<event>
 6    1  0.3836009E-003  0.5029796E+03  0.7546771E-02  0.9393167E-01
        -11   -1    0    0    0    0  0.00000000000E+00  0.00000000000E+00  0.50000000000E+03  0.50000000000E+03  0.00000000000E+00 0.  1.
         11   -1    0    0    0    0 -0.00000000000E+00 -0.00000000000E+00 -0.50000000000E+03  0.50000000000E+03  0.00000000000E+00 0. -1.
        -11    1    1    2    0    0 -0.47751539076E+01  0.67826258896E+01  0.49695116157E+03  0.49702038499E+03  0.00000000000E+00 0.  1.
         11    1    1    2    0    0 -0.37864158789E+01 -0.13853540547E+02 -0.41817136513E+03  0.41841791088E+03  0.00000000000E+00 0. -1.
        -15    1    1    2    0    0  0.13495123882E+01  0.78763272682E+01 -0.76228505625E+02  0.76666814944E+02  0.17770000000E+01 0. -1.
         15    1    1    2    0    0  0.72120573983E+01 -0.80541261123E+00 -0.25512908129E+01  0.78948891824E+01  0.17770000000E+01 0.  1.
</event>
<event>
 6    1  0.3836009E-003  0.5042949E+03  0.7546771E-02  0.9390251E-01
        -11   -1    0    0    0    0  0.00000000000E+00  0.00000000000E+00  0.50000000000E+03  0.50000000000E+03  0.00000000000E+00 0.  1.
         11   -1    0    0    0    0 -0.00000000000E+00 -0.00000000000E+00 -0.50000000000E+03  0.50000000000E+03  0.00000000000E+00 0. -1.
        -11    1    1    2    0    0 -0.33970503618E+01 -0.64685347362E+01  0.46347228410E+03  0.46352986961E+03  0.00000000000E+00 0.  1.
         11    1    1    2    0    0 -0.24570489623E+01 -0.10320099948E+02 -0.49559161241E+03  0.49570514203E+03  0.00000000000E+00 0. -1.
        -15    1    1    2    0    0  0.63627132092E+01  0.61222966313E+01  0.26780747501E+01  0.93966190085E+01  0.17770000000E+01 0. -1.
         15    1    1    2    0    0 -0.50861388502E+00  0.10666338053E+02  0.29441253552E+02  0.31368369343E+02  0.17770000000E+01 0.  1.
</event>
<event>
 6    1  0.3836009E-003  0.5938392E+03  0.7546771E-02  0.9211306E-01
        -11   -1    0    0    0    0  0.00000000000E+00  0.00000000000E+00  0.50000000000E+03  0.50000000000E+03  0.00000000000E+00 0. -1.
         11   -1    0    0    0    0 -0.00000000000E+00 -0.00000000000E+00 -0.50000000000E+03  0.50000000000E+03  0.00000000000E+00 0.  1.
        -11    1    1    2    0    0  0.11042546582E+02 -0.38890134747E+02  0.40414384976E+03  0.40616084463E+03  0.00000000000E+00 0. -1.
         11    1    1    2    0    0  0.50455285045E+02  0.10708142794E+01 -0.17983226154E+03  0.18677934769E+03  0.00000000000E+00 0.  1.
        -15    1    1    2    0    0  0.23169233479E+02  0.61075015708E+02  0.72456132091E+02  0.97570588449E+02  0.17770000000E+01 0. -1.
         15    1    1    2    0    0 -0.84667065106E+02 -0.23255695240E+02 -0.29676772031E+03  0.30948921923E+03  0.17770000000E+01 0.  1.
</event>
<event>
 6    1  0.3836009E-003  0.5074519E+03  0.7546771E-02  0.9383288E-01
        -11   -1    0    0    0    0  0.00000000000E+00  0.00000000000E+00  0.50000000000E+03  0.50000000000E+03  0.00000000000E+00 0. -1.
         11   -1    0    0    0    0 -0.00000000000E+00 -0.00000000000E+00 -0.50000000000E+03  0.50000000000E+03  0.00000000000E+00 0. -1.
        -11    1    1    2    0    0 -0.66064173281E+00 -0.11097856123E+02  0.49242258524E+03  0.49254807005E+03  0.00000000000E+00 0. -1.
         11    1    1    2    0    0 -0.27189284457E+01 -0.94158277245E+01 -0.45399953758E+03  0.45410530773E+03  0.00000000000E+00 0. -1.
        -15    1    1    2    0    0  0.11050449904E+02  0.17167144319E+02 -0.39718100038E+02  0.44693494905E+02  0.17770000000E+01 0.  1.
         15    1    1    2    0    0 -0.76708797258E+01  0.33465395283E+01  0.12950523796E+01  0.86531273103E+01  0.17770000000E+01 0. -1.
</event>
<event>
 6    1  0.3836009E-003  0.5016530E+03  0.7546771E-02  0.9396118E-01
        -11   -1    0    0    0    0  0.00000000000E+00  0.00000000000E+00  0.50000000000E+03  0.50000000000E+03  0.00000000000E+00 0. -1.
         11   -1    0    0    0    0 -0.00000000000E+00 -0.00000000000E+00 -0.50000000000E+03  0.50000000000E+03  0.00000000000E+00 0. -1.
        -11    1    1    2    0    0  0.27945258504E+01 -0.88675680982E+01  0.49826021558E+03  0.49834695300E+03  0.00000000000E+00 0. -1.
         11    1    1    2    0    0 -0.66765761885E+01 -0.35250027942E+01 -0.45866570633E+03  0.45872784140E+03  0.00000000000E+00 0. -1.
        -15    1    1    2    0    0  0.64080696032E+01  0.11448584969E+02 -0.33633466498E+02  0.36145556456E+02  0.17770000000E+01 0. -1.
         15    1    1    2    0    0 -0.25260192652E+01  0.94398592330E+00 -0.59610427506E+01  0.67796491374E+01  0.17770000000E+01 0.  1.
</event>
<event>
 6    1  0.3836009E-003  0.5019208E+03  0.7546771E-02  0.9395522E-01
        -11   -1    0    0    0    0  0.00000000000E+00  0.00000000000E+00  0.50000000000E+03  0.50000000000E+03  0.00000000000E+00 0.  1.
         11   -1    0    0    0    0 -0.00000000000E+00 -0.00000000000E+00 -0.50000000000E+03  0.50000000000E+03  0.00000000000E+00 0. -1.
        -11    1    1    2    0    0  0.55639024799E+01  0.69704595457E+01  0.45601021151E+03  0.45609742086E+03  0.00000000000E+00 0.  1.
         11    1    1    2    0    0  0.88187919013E+00 -0.12771540988E+02 -0.49791462193E+03  0.49807917112E+03  0.00000000000E+00 0. -1.
        -15    1    1    2    0    0 -0.53764207273E+01  0.88466285244E+01  0.40565087664E+02  0.41902897301E+02  0.17770000000E+01 0. -1.
         15    1    1    2    0    0 -0.10693609427E+01 -0.30455470821E+01  0.13393227562E+01  0.39205107193E+01  0.17770000000E+01 0.  1.
</event>
<event>
 6    1  0.3836009E-003  0.5059910E+03  0.7546771E-02  0.9386503E-01
        -11   -1    0    0    0    0  0.00000000000E+00  0.00000000000E+00  0.50000000000E+03  0.50000000000E+03  0.00000000000E+00 0. -1.
         11   -1    0    0    0    0 -0.00000000000E+00 -0.00000000000E+00 -0.50000000000E+03  0.50000000000E+03  0.00000000000E+00 0. -1.
        -11    1    1    2    0    0  0.99131308626E+01 -0.75783774627E+01  0.47046810096E+03  0.47063354746E+03  0.00000000000E+00 0. -1.
         11    1    1    2    0    0  0.28756501154E+01 -0.75505108655E+01 -0.49394294113E+03  0.49400901679E+03  0.00000000000E+00 0. -1.
        -15    1    1    2    0    0  0.10475671433E+01  0.39875727777E+01 -0.14325528125E+01  0.47125439137E+01  0.17770000000E+01 0.  1.
         15    1    1    2    0    0 -0.13836348121E+02  0.11141315550E+02  0.24907392984E+02  0.30644891838E+02  0.17770000000E+01 0. -1.
</event>
<event>
 6    1  0.3836009E-003  0.5113040E+03  0.7546771E-02  0.9374865E-01
        -11   -1    0    0    0    0  0.00000000000E+00  0.00000000000E+00  0.50000000000E+03  0.50000000000E+03  0.00000000000E+00 0.  1.
         11   -1    0    0    0    0 -0.00000000000E+00 -0.00000000000E+00 -0.50000000000E+03  0.50000000000E+03  0.00000000000E+00 0. -1.
        -11    1    1    2    0    0  0.10452385040E+02 -0.41315459163E+01  0.47381054234E+03  0.47394382796E+03  0.00000000000E+00 0.  1.
         11    1    1    2    0    0 -0.30831466407E+01  0.94047872389E+01 -0.48859576826E+03  0.48869600016E+03  0.00000000000E+00 0. -1.
        -15    1    1    2    0    0  0.34093729593E+01  0.11672041176E+02 -0.11645533603E+00  0.12289493889E+02  0.17770000000E+01 0.  1.
         15    1    1    2    0    0 -0.10778611359E+02 -0.16945282499E+02  0.14901681253E+02  0.25070677991E+02  0.17770000000E+01 0. -1.
</event>
<event>
 6    1  0.3836009E-003  0.5736340E+03  0.7546771E-02  0.9248623E-01
        -11   -1    0    0    0    0  0.00000000000E+00  0.00000000000E+00  0.50000000000E+03  0.50000000000E+03  0.00000000000E+00 0. -1.
         11   -1    0    0    0    0 -0.00000000000E+00 -0.00000000000E+00 -0.50000000000E+03  0.50000000000E+03  0.00000000000E+00 0. -1.
        -11    1    1    2    0    0  0.14955997620E+02  0.61701316636E+01  0.26056243460E+03  0.26106423485E+03  0.00000000000E+00 0. -1.
         11    1    1    2    0    0  0.63475446408E+02  0.27465343636E+02 -0.42071901398E+03  0.42636600020E+03  0.00000000000E+00 0. -1.
        -15    1    1    2    0    0  0.26938054351E+02 -0.29091512411E+02 -0.57983261573E+02  0.70265149386E+02  0.17770000000E+01 0.  1.
         15    1    1    2    0    0 -0.10536949838E+03 -0.45439628887E+01  0.21813984095E+03  0.24230461557E+03  0.17770000000E+01 0. -1.
</event>
<event>
 6    1  0.3836009E-003  0.5054986E+03  0.7546771E-02  0.9387589E-01
        -11   -1    0    0    0    0  0.00000000000E+00  0.00000000000E+00  0.50000000000E+03  0.50000000000E+03  0.00000000000E+00 0. -1.
         11   -1    0    0    0    0 -0.00000000000E+00 -0.00000000000E+00 -0.50000000000E+03  0.50000000000E+03  0.00000000000E+00 0. -1.
        -11    1    1    2    0    0 -0.95676973106E+01 -0.93633332986E+01  0.49432012688E+03  0.49450136570E+03  0.00000000000E+00 0. -1.
         11    1    1    2    0    0 -0.12897045418E+02 -0.44466359483E+01 -0.43582443424E+03  0.43603789266E+03  0.00000000000E+00 0. -1.
        -15    1    1    2    0    0  0.17181556939E+02  0.17530434042E+02 -0.24196746870E+02  0.34513219274E+02  0.17770000000E+01 0. -1.
         15    1    1    2    0    0  0.52831857893E+01 -0.37204647954E+01 -0.34298945763E+02  0.34947522370E+02  0.17770000000E+01 0.  1.
</event>
<event>
 6    1  0.3836009E-003  0.5035590E+03  0.7546771E-02  0.9391881E-01
        -11   -1    0    0    0    0  0.00000000000E+00  0.00000000000E+00  0.50000000000E+03  0.50000000000E+03  0.00000000000E+00 0. -1.
         11   -1    0    0    0    0 -0.00000000000E+00 -0.00000000000E+00 -0.50000000000E+03  0.50000000000E+03  0.00000000000E+00 0.  1.
        -11    1    1    2    0    0 -0.36746831861E+01  0.40949202203E+01  0.39720563372E+03  0.39724373768E+03  0.00000000000E+00 0. -1.
         11    1    1    2    0    0  0.11956270262E+00  0.79713788453E+01 -0.49637695499E+03  0.49644097194E+03  0.00000000000E+00 0.  1.
        -15    1    1    2    0    0  0.11077689468E+02  0.94341678035E+01  0.49819539758E+02  0.51931329627E+02  0.17770000000E+01 0. -1.
         15    1    1    2    0    0 -0.75225689849E+01 -0.21500466869E+02  0.49351781508E+02  0.54383960749E+02  0.17770000000E+01 0.  1.
</event>
<event>
 6    1  0.3836009E-003  0.5057481E+03  0.7546771E-02  0.9387039E-01
        -11   -1    0    0    0    0  0.00000000000E+00  0.00000000000E+00  0.50000000000E+03  0.50000000000E+03  0.00000000000E+00 0.  1.
         11   -1    0    0    0    0 -0.00000000000E+00 -0.00000000000E+00 -0.50000000000E+03  0.50000000000E+03  0.00000000000E+00 0. -1.
        -11    1    1    2    0    0  0.61451152858E+01 -0.77740110881E+01  0.47475317310E+03  0.47485658157E+03  0.00000000000E+00 0.  1.
         11    1    1    2    0    0 -0.58192442910E+01 -0.64503823857E+01 -0.49417558699E+03  0.49425194164E+03  0.00000000000E+00 0. -1.
        -15    1    1    2    0    0  0.59815171056E+01  0.11050802304E+02  0.19891852066E+02  0.23595386966E+02  0.17770000000E+01 0.  1.
         15    1    1    2    0    0 -0.63073881004E+01  0.31735911700E+01 -0.46943817793E+00  0.72960898272E+01  0.17770000000E+01 0. -1.
</event>
<event>
 6    1  0.3836009E-003  0.5030682E+03  0.7546771E-02  0.9392970E-01
        -11   -1    0    0    0    0  0.00000000000E+00  0.00000000000E+00  0.50000000000E+03  0.50000000000E+03  0.00000000000E+00 0. -1.
         11   -1    0    0    0    0 -0.00000000000E+00 -0.00000000000E+00 -0.50000000000E+03  0.50000000000E+03  0.00000000000E+00 0. -1.
        -11    1    1    2    0    0  0.10291022792E+01  0.76973934671E+01  0.49687109780E+03  0.49693178279E+03  0.00000000000E+00 0. -1.
         11    1    1    2    0    0 -0.62011286486E+01  0.58715586582E+01 -0.47224042403E+03  0.47231763389E+03  0.00000000000E+00 0. -1.
        -15    1    1    2    0    0  0.22769953119E+01 -0.12190957616E+02 -0.23940328343E+02  0.27020384997E+02  0.17770000000E+01 0.  1.
         15    1    1    2    0    0  0.28950310574E+01 -0.13779945093E+01 -0.69034542495E+00  0.37301983187E+01  0.17770000000E+01 0. -1.
</event>
<event>
 6    1  0.3836009E-003  0.5001107E+03  0.7546771E-02  0.9399562E-01
        -11   -1    0    0    0    0  0.00000000000E+00  0.00000000000E+00  0.50000000000E+03  0.50000000000E+03  0.00000000000E+00 0. -1.
         11   -1    0    0    0    0 -0.00000000000E+00 -0.00000000000E+00 -0.50000000000E+03  0.50000000000E+03  0.00000000000E+00 0.  1.
        -11    1    1    2    0    0  0.25111153202E+01 -0.94711523956E+00  0.15513046397E+03  0.15515367730E+03  0.00000000000E+00 0. -1.
         11    1    1    2    0    0 -0.48209395962E+00 -0.77448795742E+01 -0.49982909973E+03  0.49988933227E+03  0.00000000000E+00 0.  1.
        -15    1    1    2    0    0  0.97924111067E-02  0.92067210639E+01  0.18755695920E+03  0.18779119916E+03  0.17770000000E+01 0.  1.
         15    1    1    2    0    0 -0.20388137717E+01 -0.51472625008E+00  0.15714167656E+03  0.15716579127E+03  0.17770000000E+01 0.  1.
</event>
<event>
 6    1  0.3836009E-003  0.5190418E+03  0.7546771E-02  0.9358182E-01
        -11   -1    0    0    0    0  0.00000000000E+00  0.00000000000E+00  0.50000000000E+03  0.50000000000E+03  0.00000000000E+00 0.  1.
         11   -1    0    0    0    0 -0.00000000000E+00 -0.00000000000E+00 -0.50000000000E+03  0.50000000000E+03  0.00000000000E+00 0. -1.
        -11    1    1    2    0    0 -0.87517928858E+01  0.14249571545E+01  0.48087649775E+03  0.48095824192E+03  0.00000000000E+00 0.  1.
         11    1    1    2    0    0  0.17838547830E+02 -0.38382876117E+00 -0.46590486974E+03  0.46624640348E+03  0.00000000000E+00 0. -1.
        -15    1    1    2    0    0 -0.16848896390E+02  0.25416866221E+01 -0.30498930614E+02  0.34981251808E+02  0.17770000000E+01 0. -1.
         15    1    1    2    0    0  0.77621414455E+01 -0.35828150154E+01  0.15527302604E+02  0.17814102796E+02  0.17770000000E+01 0.  1.
</event>
<event>
 6    1  0.3836009E-003  0.4776939E+03  0.7546771E-02  0.9451153E-01
        -11   -1    0    0    0    0  0.00000000000E+00  0.00000000000E+00  0.50000000000E+03  0.50000000000E+03  0.00000000000E+00 0.  1.
         11   -1    0    0    0    0 -0.00000000000E+00 -0.00000000000E+00 -0.50000000000E+03  0.50000000000E+03  0.00000000000E+00 0. -1.
        -11    1    1    2    0    0  0.16095885866E+02 -0.19271554640E+02  0.47713208800E+03  0.47779231864E+03  0.00000000000E+00 0.  1.
         11    1    1    2    0    0 -0.11178854330E+02 -0.11333221236E+02 -0.47783334870E+03  0.47809843947E+03  0.00000000000E+00 0. -1.
        -15    1    1    2    0    0  0.78153414143E+01 -0.26210606582E+01 -0.64898042997E+00  0.84574479008E+01  0.17770000000E+01 0. -1.
         15    1    1    2    0    0 -0.12732372950E+02  0.33225836535E+02  0.13502411383E+01  0.35651793987E+02  0.17770000000E+01 0.  1.
</event>
<event>
 6    1  0.3836009E-003  0.5029074E+03  0.7546771E-02  0.9393328E-01
        -11   -1    0    0    0    0  0.00000000000E+00  0.00000000000E+00  0.50000000000E+03  0.50000000000E+03  0.00000000000E+00 0.  1.
         11   -1    0    0    0    0 -0.00000000000E+00 -0.00000000000E+00 -0.50000000000E+03  0.50000000000E+03  0.00000000000E+00 0. -1.
        -11    1    1    2    0    0  0.13356492190E+02  0.17765873472E+02  0.49659540821E+03  0.49709256844E+03  0.00000000000E+00 0.  1.
         11    1    1    2    0    0  0.48469519941E+01 -0.51037984260E+00 -0.16185196071E+03  0.16192532420E+03  0.00000000000E+00 0. -1.
        -15    1    1    2    0    0 -0.54749932710E+01 -0.48255812854E+01 -0.31182021300E+03  0.31191066790E+03  0.17770000000E+01 0.  1.
         15    1    1    2    0    0 -0.12728450913E+02 -0.12429912344E+02 -0.22923234494E+02  0.29071439458E+02  0.17770000000E+01 0. -1.
</event>
<event>
 6    1  0.3836009E-003  0.5032205E+03  0.7546771E-02  0.9392632E-01
        -11   -1    0    0    0    0  0.00000000000E+00  0.00000000000E+00  0.50000000000E+03  0.50000000000E+03  0.00000000000E+00 0. -1.
         11   -1    0    0    0    0 -0.00000000000E+00 -0.00000000000E+00 -0.50000000000E+03  0.50000000000E+03  0.00000000000E+00 0. -1.
        -11    1    1    2    0    0 -0.15479276935E+01 -0.86608185421E+00  0.13039403262E+03  0.13040609618E+03  0.00000000000E+00 0. -1.
         11    1    1    2    0    0 -0.29002594181E+01  0.11430757154E+02 -0.49663955322E+03  0.49677954822E+03  0.00000000000E+00 0. -1.
        -15    1    1    2    0    0 -0.76152250879E+00 -0.72187561929E+01  0.36629634759E+03  0.36637257313E+03  0.17770000000E+01 0. -1.
         15    1    1    2    0    0  0.52097096204E+01 -0.33459191067E+01 -0.50826985439E-01  0.64417824692E+01  0.17770000000E+01 0.  1.
</event>
<event>
 6    1  0.3836009E-003  0.5080077E+03  0.7546771E-02  0.9382068E-01
        -11   -1    0    0    0    0  0.00000000000E+00  0.00000000000E+00  0.50000000000E+03  0.50000000000E+03  0.00000000000E+00 0. -1.
         11   -1    0    0    0    0 -0.00000000000E+00 -0.00000000000E+00 -0.50000000000E+03  0.50000000000E+03  0.00000000000E+00 0.  1.
        -11    1    1    2    0    0  0.25668158931E+02  0.16965206692E+02  0.49102932223E+03  0.49199234538E+03  0.00000000000E+00 0. -1.
         11    1    1    2    0    0 -0.50816614748E+01  0.50128463443E+01 -0.44906198327E+03  0.44911871118E+03  0.00000000000E+00 0.  1.
        -15    1    1    2    0    0 -0.25139793478E+02 -0.16887204488E+02 -0.21348818785E+02  0.37096046744E+02  0.17770000000E+01 0. -1.
         15    1    1    2    0    0  0.45532960223E+01 -0.50908485481E+01 -0.20618520170E+02  0.21792896701E+02  0.17770000000E+01 0.  1.
</event>
<event>
 6    1  0.3836009E-003  0.5411728E+03  0.7546771E-02  0.9312120E-01
        -11   -1    0    0    0    0  0.00000000000E+00  0.00000000000E+00  0.50000000000E+03  0.50000000000E+03  0.00000000000E+00 0.  1.
         11   -1    0    0    0    0 -0.00000000000E+00 -0.00000000000E+00 -0.50000000000E+03  0.50000000000E+03  0.00000000000E+00 0. -1.
        -11    1    1    2    0    0  0.41476671319E+02 -0.24604807723E+02  0.45628574583E+03  0.45882719260E+03  0.00000000000E+00 0.  1.
         11    1    1    2    0    0 -0.68569478315E+01 -0.23238811837E+02 -0.24672150524E+03  0.24790837271E+03  0.00000000000E+00 0. -1.
        -15    1    1    2    0    0 -0.23349103560E+02  0.34271249287E+02  0.31151366112E+02  0.51896671419E+02  0.17770000000E+01 0.  1.
         15    1    1    2    0    0 -0.11270619928E+02  0.13572370274E+02 -0.24071560670E+03  0.24136776327E+03  0.17770000000E+01 0. -1.
</event>
<event>
 6    1  0.3836009E-003  0.5090001E+03  0.7546771E-02  0.9379894E-01
        -11   -1    0    0    0    0  0.00000000000E+00  0.00000000000E+00  0.50000000000E+03  0.50000000000E+03  0.00000000000E+00 0. -1.
         11   -1    0    0    0    0 -0.00000000000E+00 -0.00000000000E+00 -0.50000000000E+03  0.50000000000E+03  0.00000000000E+00 0.  1.
        -11    1    1    2    0    0  0.94740879087E+01 -0.26112298622E+01  0.44916528111E+03  0.44927277529E+03  0.00000000000E+00 0. -1.
         11    1    1    2    0    0  0.17371455270E+02 -0.96985522084E+01 -0.49059668157E+03  0.49099993212E+03  0.00000000000E+00 0.  1.
        -15    1    1    2    0    0 -0.79801348534E+01  0.85464835288E+01  0.38389727529E+02  0.40170310451E+02  0.17770000000E+01 0. -1.
         15    1    1    2    0    0 -0.18865408326E+02  0.37632985418E+01  0.30416729349E+01  0.19556982141E+02  0.17770000000E+01 0.  1.
</event>
<event>
 6    1  0.3836009E-003  0.5025416E+03  0.7546771E-02  0.9394141E-01
        -11   -1    0    0    0    0  0.00000000000E+00  0.00000000000E+00  0.50000000000E+03  0.50000000000E+03  0.00000000000E+00 0.  1.
         11   -1    0    0    0    0 -0.00000000000E+00 -0.00000000000E+00 -0.50000000000E+03  0.50000000000E+03  0.00000000000E+00 0.  1.
        -11    1    1    2    0    0 -0.27144637592E+02  0.11843930385E+02  0.49657600191E+03  0.49745837586E+03  0.00000000000E+00 0.  1.
         11    1    1    2    0    0  0.34831258195E+01 -0.16053993919E+01 -0.81628655951E+02  0.81718706212E+02  0.00000000000E+00 0.  1.
        -15    1    1    2    0    0  0.18145742536E+02  0.22897044914E+02 -0.10333794273E+03  0.10740312275E+03  0.17770000000E+01 0.  1.
         15    1    1    2    0    0  0.55157692370E+01 -0.33135575907E+02 -0.31160940323E+03  0.31341979518E+03  0.17770000000E+01 0. -1.
</event>
<event>
 6    1  0.3836009E-003  0.5140006E+03  0.7546771E-02  0.9369016E-01
        -11   -1    0    0    0    0  0.00000000000E+00  0.00000000000E+00  0.50000000000E+03  0.50000000000E+03  0.00000000000E+00 0. -1.
         11   -1    0    0    0    0 -0.00000000000E+00 -0.00000000000E+00 -0.50000000000E+03  0.50000000000E+03  0.00000000000E+00 0.  1.
        -11    1    1    2    0    0  0.42276086301E+01 -0.52841847545E+01  0.48595224533E+03  0.48599936217E+03  0.00000000000E+00 0. -1.
         11    1    1    2    0    0 -0.17877135822E+02 -0.79690303896E+01 -0.45829863136E+03  0.45871639706E+03  0.00000000000E+00 0.  1.
        -15    1    1    2    0    0 -0.59517545808E+01  0.19618837709E+02  0.21239395527E+00  0.20579723415E+02  0.17770000000E+01 0.  1.
         15    1    1    2    0    0  0.19601281772E+02 -0.63656225651E+01 -0.27866007932E+02  0.34704517355E+02  0.17770000000E+01 0. -1.
</event>
<event>
 6    1  0.3836009E-003  0.5008421E+03  0.7546771E-02  0.9397927E-01
        -11   -1    0    0    0    0  0.00000000000E+00  0.00000000000E+00  0.50000000000E+03  0.50000000000E+03  0.00000000000E+00 0.  1.
         11   -1    0    0    0    0 -0.00000000000E+00 -0.00000000000E+00 -0.50000000000E+03  0.50000000000E+03  0.00000000000E+00 0. -1.
        -11    1    1    2    0    0 -0.82811980168E+01 -0.10593957480E+02  0.49897675898E+03  0.49915790706E+03  0.00000000000E+00 0.  1.
         11    1    1    2    0    0  0.13121998113E+02 -0.51487057608E+01 -0.30015192615E+03  0.30048273623E+03  0.00000000000E+00 0. -1.
        -15    1    1    2    0    0  0.13489274326E+01  0.14802951032E+02 -0.82129181086E+02  0.83482375861E+02  0.17770000000E+01 0. -1.
         15    1    1    2    0    0 -0.61897275287E+01  0.93971220799E+00 -0.11669565175E+03  0.11687698085E+03  0.17770000000E+01 0.  1.
</event>
<event>
 6    1  0.3836009E-003  0.5031205E+03  0.7546771E-02  0.9392854E-01
        -11   -1    0    0    0    0  0.00000000000E+00  0.00000000000E+00  0.50000000000E+03  0.50000000000E+03  0.00000000000E+00 0. -1.
         11   -1    0    0    0    0 -0.00000000000E+00 -0.00000000000E+00 -0.50000000000E+03  0.50000000000E+03  0.00000000000E+00 0.  1.
        -11    1    1    2    0    0  0.47879550434E+01 -0.12253997844E+02  0.42177722097E+03  0.42198235639E+03  0.00000000000E+00 0. -1.
         11    1    1    2    0    0  0.11280805331E+02 -0.76275211672E+01 -0.49669290070E+03  0.49687953596E+03  0.00000000000E+00 0.  1.
        -15    1    1    2    0    0 -0.12452367040E+02  0.17558174787E+02  0.36273476005E+02  0.42216983990E+02  0.17770000000E+01 0.  1.
         15    1    1    2    0    0 -0.36163933341E+01  0.23233442247E+01  0.38642203726E+02  0.38921123659E+02  0.17770000000E+01 0. -1.
</event>
<event>
 6    1  0.3836009E-003  0.5011404E+03  0.7546771E-02  0.9397262E-01
        -11   -1    0    0    0    0  0.00000000000E+00  0.00000000000E+00  0.50000000000E+03  0.50000000000E+03  0.00000000000E+00 0.  1.
         11   -1    0    0    0    0 -0.00000000000E+00 -0.00000000000E+00 -0.50000000000E+03  0.50000000000E+03  0.00000000000E+00 0. -1.
        -11    1    1    2    0    0  0.23568652247E+01 -0.16844222049E+02  0.49856956684E+03  0.49885959508E+03  0.00000000000E+00 0.  1.
         11    1    1    2    0    0 -0.53480255035E+01  0.18830204261E+02 -0.36604395979E+03  0.36656699042E+03  0.00000000000E+00 0. -1.
        -15    1    1    2    0    0 -0.25285367449E+01  0.96039201652E+01 -0.46921528164E+02  0.47993919561E+02  0.17770000000E+01 0. -1.
         15    1    1    2    0    0  0.55196970237E+01 -0.11589902377E+02 -0.85604078888E+02  0.86579494937E+02  0.17770000000E+01 0.  1.
</event>
<event>
 6    1  0.3836009E-003  0.4414311E+03  0.7546771E-02  0.9541332E-01
        -11   -1    0    0    0    0  0.00000000000E+00  0.00000000000E+00  0.50000000000E+03  0.50000000000E+03  0.00000000000E+00 0. -1.
         11   -1    0    0    0    0 -0.00000000000E+00 -0.00000000000E+00 -0.50000000000E+03  0.50000000000E+03  0.00000000000E+00 0. -1.
        -11    1    1    2    0    0  0.71348888348E+02  0.34111940228E+02  0.44101907654E+03  0.44805369567E+03  0.00000000000E+00 0. -1.
         11    1    1    2    0    0  0.80174789587E+01 -0.19172624891E+02 -0.43800706284E+03  0.43849977949E+03  0.00000000000E+00 0. -1.
        -15    1    1    2    0    0 -0.47463038798E+02  0.20307935979E+02  0.25890145990E+02  0.57780703562E+02  0.17770000000E+01 0. -1.
         15    1    1    2    0    0 -0.31903328508E+02 -0.35247251315E+02 -0.28902159687E+02  0.55665821280E+02  0.17770000000E+01 0.  1.
</event>
<event>
 6    1  0.3836009E-003  0.5134094E+03  0.7546771E-02  0.9370295E-01
        -11   -1    0    0    0    0  0.00000000000E+00  0.00000000000E+00  0.50000000000E+03  0.50000000000E+03  0.00000000000E+00 0.  1.
         11   -1    0    0    0    0 -0.00000000000E+00 -0.00000000000E+00 -0.50000000000E+03  0.50000000000E+03  0.00000000000E+00 0. -1.
        -11    1    1    2    0    0 -0.61392265160E+01 -0.42600200237E+01  0.45479279024E+03  0.45485417435E+03  0.00000000000E+00 0.  1.
         11    1    1    2    0    0 -0.12271927242E+02  0.94558472826E+01 -0.48634393786E+03  0.48659062787E+03  0.00000000000E+00 0. -1.
        -15    1    1    2    0    0 -0.12744162414E+02  0.69330981279E+01  0.38868402512E+01  0.15124377059E+02  0.17770000000E+01 0. -1.
         15    1    1    2    0    0  0.31155316172E+02 -0.12128925387E+02  0.27664307367E+02  0.43430820714E+02  0.17770000000E+01 0.  1.
</event>
<event>
 6    1  0.3836009E-003  0.5005351E+03  0.7546771E-02  0.9398613E-01
        -11   -1    0    0    0    0  0.00000000000E+00  0.00000000000E+00  0.50000000000E+03  0.50000000000E+03  0.00000000000E+00 0.  1.
         11   -1    0    0    0    0 -0.00000000000E+00 -0.00000000000E+00 -0.50000000000E+03  0.50000000000E+03  0.00000000000E+00 0. -1.
        -11    1    1    2    0    0 -0.73158056735E+01  0.63240031925E+01  0.49937125136E+03  0.49946487436E+03  0.00000000000E+00 0.  1.
         11    1    1    2    0    0 -0.58014299985E+01 -0.27862734979E+01 -0.35115165079E+03  0.35121062308E+03  0.00000000000E+00 0. -1.
        -15    1    1    2    0    0  0.24629059664E+01 -0.98602417431E+00 -0.89987950184E+02  0.90044583717E+02  0.17770000000E+01 0. -1.
         15    1    1    2    0    0  0.10654329706E+02 -0.25517055203E+01 -0.58231650387E+02  0.59279918845E+02  0.17770000000E+01 0.  1.
</event>
<event>
 6    1  0.3836009E-003  0.5153470E+03  0.7546771E-02  0.9366110E-01
        -11   -1    0    0    0    0  0.00000000000E+00  0.00000000000E+00  0.50000000000E+03  0.50000000000E+03  0.00000000000E+00 0. -1.
         11   -1    0    0    0    0 -0.00000000000E+00 -0.00000000000E+00 -0.50000000000E+03  0.50000000000E+03  0.00000000000E+00 0. -1.
        -11    1    1    2    0    0 -0.53224112141E+01 -0.53810371140E+01  0.33423940364E+03  0.33432508516E+03  0.00000000000E+00 0. -1.
         11    1    1    2    0    0 -0.34594411297E+01  0.63126724631E+01 -0.48459955957E+03  0.48465302093E+03  0.00000000000E+00 0. -1.
        -15    1    1    2    0    0  0.15999022297E+01  0.44500260275E+01  0.16428383312E+03  0.16436148568E+03  0.17770000000E+01 0. -1.
         15    1    1    2    0    0  0.71819501141E+01 -0.53816613766E+01 -0.13923677199E+02  0.16660408229E+02  0.17770000000E+01 0.  1.
</event>
<event>
 6    1  0.3836009E-003  0.5006220E+03  0.7546771E-02  0.9398419E-01
        -11   -1    0    0    0    0  0.00000000000E+00  0.00000000000E+00  0.50000000000E+03  0.50000000000E+03  0.00000000000E+00 0. -1.
         11   -1    0    0    0    0 -0.00000000000E+00 -0.00000000000E+00 -0.50000000000E+03  0.50000000000E+03  0.00000000000E+00 0. -1.
        -11    1    1    2    0    0 -0.82575329591E+01 -0.58530239811E+01  0.49927538182E+03  0.49937796470E+03  0.00000000000E+00 0. -1.
         11    1    1    2    0    0 -0.71957707347E+01 -0.31001277060E+01 -0.30680252148E+03  0.30690255309E+03  0.00000000000E+00 0. -1.
        -15    1    1    2    0    0  0.11511136816E+02  0.85079751300E+01 -0.17860008598E+03  0.17918158486E+03  0.17770000000E+01 0.  1.
         15    1    1    2    0    0  0.39421668781E+01  0.44517655705E+00 -0.13872774359E+02  0.14537897347E+02  0.17770000000E+01 0. -1.
</event>
<event>
 6    1  0.3836009E-003  0.5062126E+03  0.7546771E-02  0.9386015E-01
        -11   -1    0    0    0    0  0.00000000000E+00  0.00000000000E+00  0.50000000000E+03  0.50000000000E+03  0.00000000000E+00 0.  1.
         11   -1    0    0    0    0 -0.00000000000E+00 -0.00000000000E+00 -0.50000000000E+03  0.50000000000E+03  0.00000000000E+00 0.  1.
        -11    1    1    2    0    0 -0.64266137470E+01 -0.18366612966E+01  0.49374218233E+03  0.49378742116E+03  0.00000000000E+00 0.  1.
         11    1    1    2    0    0  0.43780132762E+00 -0.66216907513E+01 -0.48583602790E+03  0.48588134814E+03  0.00000000000E+00 0.  1.
        -15    1    1    2    0    0  0.48469732455E+01  0.46222466665E+01  0.37504276309E+01  0.78791973134E+01  0.17770000000E+01 0. -1.
         15    1    1    2    0    0  0.11418391739E+01  0.38361053814E+01 -0.11656582056E+02  0.12452033385E+02  0.17770000000E+01 0.  1.
</event>
<event>
 6    1  0.3836009E-003  0.5086369E+03  0.7546771E-02  0.9380689E-01
        -11   -1    0    0    0    0  0.00000000000E+00  0.00000000000E+00  0.50000000000E+03  0.50000000000E+03  0.00000000000E+00 0. -1.
         11   -1    0    0    0    0 -0.00000000000E+00 -0.00000000000E+00 -0.50000000000E+03  0.50000000000E+03  0.00000000000E+00 0.  1.
        -11    1    1    2    0    0 -0.11037565343E+01 -0.74246486962E+01  0.43697199118E+03  0.43703645701E+03  0.00000000000E+00 0. -1.
         11    1    1    2    0    0  0.50925366729E+01  0.52112455334E+01 -0.49130902742E+03  0.49136305460E+03  0.00000000000E+00 0.  1.
        -15    1    1    2    0    0 -0.18124006592E+01 -0.55226131645E+01 -0.72529926434E+01  0.94629637851E+01  0.17770000000E+01 0. -1.
         15    1    1    2    0    0 -0.21763794794E+01  0.77360163272E+01  0.61590028883E+02  0.62137524597E+02  0.17770000000E+01 0. -1.
</event>
<event>
 6    1  0.3836009E-003  0.5104169E+03  0.7546771E-02  0.9376798E-01
        -11   -1    0    0    0    0  0.00000000000E+00  0.00000000000E+00  0.50000000000E+03  0.50000000000E+03  0.00000000000E+00 0. -1.
         11   -1    0    0    0    0 -0.00000000000E+00 -0.00000000000E+00 -0.50000000000E+03  0.50000000000E+03  0.00000000000E+00 0.  1.
        -11    1    1    2    0    0  0.45712425943E+01 -0.58760177923E+01  0.48952650644E+03  0.48958311282E+03  0.00000000000E+00 0. -1.
         11    1    1    2    0    0  0.11659299153E+01  0.92504479800E+01 -0.43853395734E+03  0.43863306067E+03  0.00000000000E+00 0.  1.
        -15    1    1    2    0    0  0.18097588313E+02 -0.10477620079E+02 -0.87642057554E+01  0.22743620134E+02  0.17770000000E+01 0. -1.
         15    1    1    2    0    0 -0.23834760823E+02  0.71031898910E+01 -0.42228343352E+02  0.49040206376E+02  0.17770000000E+01 0.  1.
</event>
<event>
 6    1  0.3836009E-003  0.5073764E+03  0.7546771E-02  0.9383454E-01
        -11   -1    0    0    0    0  0.00000000000E+00  0.00000000000E+00  0.50000000000E+03  0.50000000000E+03  0.00000000000E+00 0.  1.
         11   -1    0    0    0    0 -0.00000000000E+00 -0.00000000000E+00 -0.50000000000E+03  0.50000000000E+03  0.00000000000E+00 0. -1.
        -11    1    1    2    0    0 -0.29286902687E+01 -0.58247063715E+01  0.45633474287E+03  0.45638131204E+03  0.00000000000E+00 0.  1.
         11    1    1    2    0    0  0.66874818832E+01 -0.18029860847E+02 -0.49224813009E+03  0.49262360872E+03  0.00000000000E+00 0. -1.
        -15    1    1    2    0    0 -0.72273797637E+01  0.22654775684E+02  0.11923072754E+02  0.26660669018E+02  0.17770000000E+01 0.  1.
         15    1    1    2    0    0  0.34685881492E+01  0.11997915345E+01  0.23990314468E+02  0.24334410220E+02  0.17770000000E+01 0. -1.
</event>
<event>
 6    1  0.3836009E-003  0.5070141E+03  0.7546771E-02  0.9384251E-01
        -11   -1    0    0    0    0  0.00000000000E+00  0.00000000000E+00  0.50000000000E+03  0.50000000000E+03  0.00000000000E+00 0.  1.
         11   -1    0    0    0    0 -0.00000000000E+00 -0.00000000000E+00 -0.50000000000E+03  0.50000000000E+03  0.00000000000E+00 0. -1.
        -11    1    1    2    0    0 -0.17731974800E+02  0.11267755681E+02  0.49253806010E+03  0.49298592870E+03  0.00000000000E+00 0.  1.
         11    1    1    2    0    0 -0.96324136878E+01  0.58814655764E+01 -0.43882756463E+03  0.43897267171E+03  0.00000000000E+00 0. -1.
        -15    1    1    2    0    0  0.22216886272E+02 -0.14926625993E+02 -0.19087580422E+02  0.32922449097E+02  0.17770000000E+01 0. -1.
         15    1    1    2    0    0  0.51475022157E+01 -0.22225952642E+01 -0.34622915046E+02  0.35118950497E+02  0.17770000000E+01 0.  1.
</event>
<event>
 6    1  0.3836009E-003  0.5172136E+03  0.7546771E-02  0.9362096E-01
        -11   -1    0    0    0    0  0.00000000000E+00  0.00000000000E+00  0.50000000000E+03  0.50000000000E+03  0.00000000000E+00 0.  1.
         11   -1    0    0    0    0 -0.00000000000E+00 -0.00000000000E+00 -0.50000000000E+03  0.50000000000E+03  0.00000000000E+00 0. -1.
        -11    1    1    2    0    0 -0.46983481300E+01 -0.17737312636E+01  0.15851463079E+03  0.15859416374E+03  0.00000000000E+00 0.  1.
         11    1    1    2    0    0  0.87896868585E+00  0.69157880152E+01 -0.48273609493E+03  0.48278643110E+03  0.00000000000E+00 0. -1.
        -15    1    1    2    0    0  0.34554839142E+02 -0.23883054292E+02  0.31951717363E+03  0.32227134400E+03  0.17770000000E+01 0.  1.
         15    1    1    2    0    0 -0.30735459697E+02  0.18740997540E+02  0.47042905078E+01  0.36348061156E+02  0.17770000000E+01 0. -1.
</event>
<event>
 6    1  0.3836009E-003  0.5060016E+03  0.7546771E-02  0.9386480E-01
        -11   -1    0    0    0    0  0.00000000000E+00  0.00000000000E+00  0.50000000000E+03  0.50000000000E+03  0.00000000000E+00 0. -1.
         11   -1    0    0    0    0 -0.00000000000E+00 -0.00000000000E+00 -0.50000000000E+03  0.50000000000E+03  0.00000000000E+00 0. -1.
        -11    1    1    2    0    0 -0.27535902465E+01 -0.17392278749E+02  0.37890303263E+03  0.37931198473E+03  0.00000000000E+00 0. -1.
         11    1    1    2    0    0  0.88965132279E+01 -0.15378558147E+01 -0.49391589090E+03  0.49399840104E+03  0.00000000000E+00 0. -1.
        -15    1    1    2    0    0  0.56579900227E+01  0.34335381745E+01  0.10403457709E+03  0.10426002588E+03  0.17770000000E+01 0. -1.
         15    1    1    2    0    0 -0.11800913004E+02  0.15496596389E+02  0.10978281170E+02  0.22429588356E+02  0.17770000000E+01 0.  1.
</event>
<event>
 6    1  0.3836009E-003  0.5005684E+03  0.7546771E-02  0.9398539E-01
        -11   -1    0    0    0    0  0.00000000000E+00  0.00000000000E+00  0.50000000000E+03  0.50000000000E+03  0.00000000000E+00 0. -1.
         11   -1    0    0    0    0 -0.00000000000E+00 -0.00000000000E+00 -0.50000000000E+03  0.50000000000E+03  0.00000000000E+00 0.  1.
        -11    1    1    2    0    0  0.16437492598E+01  0.74630803314E+01  0.49937311431E+03  0.49943158368E+03  0.00000000000E+00 0. -1.
         11    1    1    2    0    0 -0.40761214420E+01  0.64830553226E+01 -0.16106940514E+03  0.16125135052E+03  0.00000000000E+00 0.  1.
        -15    1    1    2    0    0 -0.80535663923E+01 -0.11062179157E+02 -0.13198633273E+03  0.13270561969E+03  0.17770000000E+01 0.  1.
         15    1    1    2    0    0  0.10485938574E+02 -0.28839564973E+01 -0.20631737643E+03  0.20661144610E+03  0.17770000000E+01 0. -1.
</event>
<event>
 6    1  0.3836009E-003  0.5016529E+03  0.7546771E-02  0.9396119E-01
        -11   -1    0    0    0    0  0.00000000000E+00  0.00000000000E+00  0.50000000000E+03  0.50000000000E+03  0.00000000000E+00 0.  1.
         11   -1    0    0    0    0 -0.00000000000E+00 -0.00000000000E+00 -0.50000000000E+03  0.50000000000E+03  0.00000000000E+00 0.  1.
        -11    1    1    2    0    0  0.47982508630E+01  0.56602085412E+01  0.35454426211E+03  0.35462190424E+03  0.00000000000E+00 0.  1.
         11    1    1    2    0    0 -0.43272442493E+01  0.10233042980E+02 -0.49822328044E+03  0.49834714546E+03  0.00000000000E+00 0.  1.
        -15    1    1    2    0    0  0.60440315003E+00 -0.29155608909E+01  0.11916969927E+03  0.11922013568E+03  0.17770000000E+01 0.  1.
         15    1    1    2    0    0 -0.10754097636E+01 -0.12977690630E+02  0.24509319058E+02  0.27810814622E+02  0.17770000000E+01 0. -1.
</event>
<event>
 6    1  0.3836009E-003  0.5045040E+03  0.7546771E-02  0.9389788E-01
        -11   -1    0    0    0    0  0.00000000000E+00  0.00000000000E+00  0.50000000000E+03  0.50000000000E+03  0.00000000000E+00 0. -1.
         11   -1    0    0    0    0 -0.00000000000E+00 -0.00000000000E+00 -0.50000000000E+03  0.50000000000E+03  0.00000000000E+00 0.  1.
        -11    1    1    2    0    0  0.80221337603E+01 -0.87899705185E+01  0.49535309306E+03  0.49549601918E+03  0.00000000000E+00 0. -1.
         11    1    1    2    0    0 -0.58160484879E+01  0.27160083206E+01 -0.30549213732E+03  0.30555956717E+03  0.00000000000E+00 0.  1.
        -15    1    1    2    0    0 -0.37862898414E+01 -0.51727680956E+01  0.18377549215E+01  0.69013471645E+01  0.17770000000E+01 0. -1.
         15    1    1    2    0    0  0.15802045690E+01  0.11246730294E+02 -0.19169871066E+03  0.19204306649E+03  0.17770000000E+01 0.  1.
</event>
<event>
 6    1  0.3836009E-003  0.5027967E+03  0.7546771E-02  0.9393574E-01
        -11   -1    0    0    0    0  0.00000000000E+00  0.00000000000E+00  0.50000000000E+03  0.50000000000E+03  0.00000000000E+00 0.  1.
         11   -1    0    0    0    0 -0.00000000000E+00 -0.00000000000E+00 -0.50000000000E+03  0.50000000000E+03  0.00000000000E+00 0.  1.
        -11    1    1    2    0    0  0.17389764497E+02  0.22313753556E+02  0.49639787771E+03  0.49720333919E+03  0.00000000000E+00 0.  1.
         11    1    1    2    0    0 -0.43037568688E+01 -0.70997617495E+00 -0.16432218271E+03  0.16438006606E+03  0.00000000000E+00 0.  1.
        -15    1    1    2    0    0 -0.14269307351E+02 -0.24701816708E+02 -0.61528639479E+02  0.67843379088E+02  0.17770000000E+01 0.  1.
         15    1    1    2    0    0  0.11832997231E+01  0.30980393263E+01 -0.27054705553E+03  0.27057321566E+03  0.17770000000E+01 0. -1.
</event>
<event>
 6    1  0.3836009E-003  0.5229795E+03  0.7546771E-02  0.9349810E-01
        -11   -1    0    0    0    0  0.00000000000E+00  0.00000000000E+00  0.50000000000E+03  0.50000000000E+03  0.00000000000E+00 0. -1.
         11   -1    0    0    0    0 -0.00000000000E+00 -0.00000000000E+00 -0.50000000000E+03  0.50000000000E+03  0.00000000000E+00 0.  1.
        -11    1    1    2    0    0 -0.97543124098E+01  0.10611558738E+02  0.47680264867E+03  0.47702045823E+03  0.00000000000E+00 0. -1.
         11    1    1    2    0    0  0.42870513053E+01  0.65216057896E+01 -0.29901093966E+03  0.29911277503E+03  0.00000000000E+00 0.  1.
        -15    1    1    2    0    0  0.29554085674E+02 -0.19296059982E+02  0.82178864638E+01  0.36283237146E+02  0.17770000000E+01 0. -1.
         15    1    1    2    0    0 -0.24086824569E+02  0.21628954548E+01 -0.18600959548E+03  0.18758352959E+03  0.17770000000E+01 0.  1.
</event>
<event>
 6    1  0.3836009E-003  0.5377444E+03  0.7546771E-02  0.9319101E-01
        -11   -1    0    0    0    0  0.00000000000E+00  0.00000000000E+00  0.50000000000E+03  0.50000000000E+03  0.00000000000E+00 0. -1.
         11   -1    0    0    0    0 -0.00000000000E+00 -0.00000000000E+00 -0.50000000000E+03  0.50000000000E+03  0.00000000000E+00 0. -1.
        -11    1    1    2    0    0 -0.68930290468E+01 -0.12262338843E+02  0.46204151594E+03  0.46225560165E+03  0.00000000000E+00 0. -1.
         11    1    1    2    0    0  0.32148367170E+02 -0.11015705048E+02 -0.39585028315E+03  0.39730631751E+03  0.00000000000E+00 0. -1.
        -15    1    1    2    0    0 -0.36605311213E+02  0.20689189785E+02 -0.97927291157E+02  0.10658753898E+03  0.17770000000E+01 0. -1.
         15    1    1    2    0    0  0.11349973090E+02  0.25888541061E+01  0.31736058360E+02  0.33850541856E+02  0.17770000000E+01 0.  1.
</event>
<event>
 6    1  0.3836009E-003  0.4535201E+03  0.7546771E-02  0.9510275E-01
        -11   -1    0    0    0    0  0.00000000000E+00  0.00000000000E+00  0.50000000000E+03  0.50000000000E+03  0.00000000000E+00 0. -1.
         11   -1    0    0    0    0 -0.00000000000E+00 -0.00000000000E+00 -0.50000000000E+03  0.50000000000E+03  0.00000000000E+00 0. -1.
        -11    1    1    2    0    0 -0.11750131011E+01  0.10175636207E+02  0.45043848144E+03  0.45055493537E+03  0.00000000000E+00 0. -1.
         11    1    1    2    0    0  0.60576267336E+02  0.25153318822E+02 -0.45441379009E+03  0.45912314932E+03  0.00000000000E+00 0. -1.
        -15    1    1    2    0    0 -0.35243525479E+02  0.86945199090E+01 -0.10857488070E+02  0.37930773006E+02  0.17770000000E+01 0.  1.
         15    1    1    2    0    0 -0.24157728756E+02 -0.44023474938E+02  0.14832796725E+02  0.52391142304E+02  0.17770000000E+01 0. -1.
</event>
<event>
 6    1  0.3836009E-003  0.5002661E+03  0.7546771E-02  0.9399214E-01
        -11   -1    0    0    0    0  0.00000000000E+00  0.00000000000E+00  0.50000000000E+03  0.50000000000E+03  0.00000000000E+00 0. -1.
         11   -1    0    0    0    0 -0.00000000000E+00 -0.00000000000E+00 -0.50000000000E+03  0.50000000000E+03  0.00000000000E+00 0.  1.
        -11    1    1    2    0    0 -0.10455805752E+02 -0.62940402609E+01  0.49958486238E+03  0.49973390273E+03  0.00000000000E+00 0. -1.
         11    1    1    2    0    0  0.25666103952E+01 -0.41851309229E+01 -0.15752506868E+03  0.15760155479E+03  0.00000000000E+00 0.  1.
        -15    1    1    2    0    0 -0.43135307035E+01  0.22254293435E+01 -0.11862374121E+03  0.11873629938E+03  0.17770000000E+01 0. -1.
         15    1    1    2    0    0  0.12202726060E+02  0.82537418403E+01 -0.22343605248E+03  0.22392824310E+03  0.17770000000E+01 0.  1.
</event>
<event>
 6    1  0.3836009E-003  0.5019566E+03  0.7546771E-02  0.9395442E-01
        -11   -1    0    0    0    0  0.00000000000E+00  0.00000000000E+00  0.50000000000E+03  0.50000000000E+03  0.00000000000E+00 0.  1.
         11   -1    0    0    0    0 -0.00000000000E+00 -0.00000000000E+00 -0.50000000000E+03  0.50000000000E+03  0.00000000000E+00 0.  1.
        -11    1    1    2    0    0  0.77291235661E+01  0.39449153077E+01  0.49796782084E+03  0.49804342411E+03  0.00000000000E+00 0.  1.
         11    1    1    2    0    0  0.97767534090E+01  0.76570144890E+00 -0.37469252653E+03  0.37482083806E+03  0.00000000000E+00 0.  1.
        -15    1    1    2    0    0 -0.13689629704E+02 -0.13157752093E+02 -0.55027394964E+02  0.58238340696E+02  0.17770000000E+01 0.  1.
         15    1    1    2    0    0 -0.38162472711E+01  0.84471353360E+01 -0.68247899339E+02  0.68897397134E+02  0.17770000000E+01 0. -1.
</event>
<event>
 6    1  0.3836009E-003  0.5160721E+03  0.7546771E-02  0.9364548E-01
        -11   -1    0    0    0    0  0.00000000000E+00  0.00000000000E+00  0.50000000000E+03  0.50000000000E+03  0.00000000000E+00 0.  1.
         11   -1    0    0    0    0 -0.00000000000E+00 -0.00000000000E+00 -0.50000000000E+03  0.50000000000E+03  0.00000000000E+00 0.  1.
        -11    1    1    2    0    0 -0.12497830901E+02 -0.37844222868E+02  0.39818817747E+03  0.40017771759E+03  0.00000000000E+00 0.  1.
         11    1    1    2    0    0 -0.17824285870E+02  0.79825599087E+01 -0.48353366364E+03  0.48392791850E+03  0.00000000000E+00 0.  1.
        -15    1    1    2    0    0  0.12404056365E+02  0.16514030378E+01  0.81192979619E+02  0.82170830681E+02  0.17770000000E+01 0.  1.
         15    1    1    2    0    0  0.17918060406E+02  0.28210259922E+02  0.41525065498E+01  0.33723533226E+02  0.17770000000E+01 0. -1.
</event>
<event>
 6    1  0.3836009E-003  0.5046203E+03  0.7546771E-02  0.9389530E-01
        -11   -1    0    0    0    0  0.00000000000E+00  0.00000000000E+00  0.50000000000E+03  0.50000000000E+03  0.00000000000E+00 0.  1.
         11   -1    0    0    0    0 -0.00000000000E+00 -0.00000000000E+00 -0.50000000000E+03  0.50000000000E+03  0.00000000000E+00 0. -1.
        -11    1    1    2    0    0  0.14102123666E+01 -0.63583182167E+01  0.41765557821E+03  0.41770635490E+03  0.00000000000E+00 0.  1.
         11    1    1    2    0    0 -0.91894617481E+01 -0.16858221841E+01 -0.49529155129E+03  0.49537966145E+03  0.00000000000E+00 0. -1.
        -15    1    1    2    0    0  0.12530096796E+02  0.83902624740E+01  0.79913359004E+02  0.81343115913E+02  0.17770000000E+01 0.  1.
         15    1    1    2    0    0 -0.47508474141E+01 -0.34612207317E+00 -0.22773859291E+01  0.55708677342E+01  0.17770000000E+01 0. -1.
</event>
<event>
 6    1  0.3836009E-003  0.5042829E+03  0.7546771E-02  0.9390277E-01
        -11   -1    0    0    0    0  0.00000000000E+00  0.00000000000E+00  0.50000000000E+03  0.50000000000E+03  0.00000000000E+00 0.  1.
         11   -1    0    0    0    0 -0.00000000000E+00 -0.00000000000E+00 -0.50000000000E+03  0.50000000000E+03  0.00000000000E+00 0. -1.
        -11    1    1    2    0    0 -0.29784489528E+01 -0.81922651450E+01  0.49564044123E+03  0.49571708802E+03  0.00000000000E+00 0.  1.
         11    1    1    2    0    0 -0.12523166421E+02  0.28217682385E+01 -0.45959518077E+03  0.45977442541E+03  0.00000000000E+00 0. -1.
        -15    1    1    2    0    0  0.15097323468E+02  0.46484368535E+01 -0.38331477457E+02  0.41496952107E+02  0.17770000000E+01 0.  1.
         15    1    1    2    0    0  0.40429190600E+00  0.72206005291E+00  0.22862169956E+01  0.30115344621E+01  0.17770000000E+01 0. -1.
</event>
<event>
 6    1  0.3836009E-003  0.5020452E+03  0.7546771E-02  0.9395245E-01
        -11   -1    0    0    0    0  0.00000000000E+00  0.00000000000E+00  0.50000000000E+03  0.50000000000E+03  0.00000000000E+00 0. -1.
         11   -1    0    0    0    0 -0.00000000000E+00 -0.00000000000E+00 -0.50000000000E+03  0.50000000000E+03  0.00000000000E+00 0.  1.
        -11    1    1    2    0    0  0.75634345313E+01 -0.12214633051E+02  0.49774754285E+03  0.49795483652E+03  0.00000000000E+00 0. -1.
         11    1    1    2    0    0 -0.18829763242E+02  0.60737961828E+01 -0.42072590011E+03  0.42119085224E+03  0.00000000000E+00 0.  1.
        -15    1    1    2    0    0  0.94384524595E+01 -0.20425089376E+00 -0.71282813782E+02  0.71927208850E+02  0.17770000000E+01 0.  1.
         15    1    1    2    0    0  0.18278762510E+01  0.63450877620E+01 -0.57388289571E+01  0.89271023908E+01  0.17770000000E+01 0. -1.
</event>
<event>
 6    1  0.3836009E-003  0.4923391E+03  0.7546771E-02  0.9417117E-01
        -11   -1    0    0    0    0  0.00000000000E+00  0.00000000000E+00  0.50000000000E+03  0.50000000000E+03  0.00000000000E+00 0. -1.
         11   -1    0    0    0    0 -0.00000000000E+00 -0.00000000000E+00 -0.50000000000E+03  0.50000000000E+03  0.00000000000E+00 0.  1.
        -11    1    1    2    0    0 -0.40508557289E+01 -0.64087852168E+01  0.49139743962E+03  0.49145592439E+03  0.00000000000E+00 0. -1.
         11    1    1    2    0    0  0.17758593849E+01 -0.65370657346E+01 -0.49326524930E+03  0.49331176053E+03  0.00000000000E+00 0.  1.
        -15    1    1    2    0    0 -0.10761372412E+01  0.26970500570E+01  0.25939525488E+01  0.42800080838E+01  0.17770000000E+01 0. -1.
         15    1    1    2    0    0  0.33511335851E+01  0.10248800894E+02 -0.72614286045E+00  0.10952306996E+02  0.17770000000E+01 0.  1.
</event>
<event>
 6    1  0.3836009E-003  0.5038724E+03  0.7546771E-02  0.9391186E-01
        -11   -1    0    0    0    0  0.00000000000E+00  0.00000000000E+00  0.50000000000E+03  0.50000000000E+03  0.00000000000E+00 0. -1.
         11   -1    0    0    0    0 -0.00000000000E+00 -0.00000000000E+00 -0.50000000000E+03  0.50000000000E+03  0.00000000000E+00 0. -1.
        -11    1    1    2    0    0  0.12002041700E+02 -0.16378240785E+01  0.49597972263E+03  0.49612762142E+03  0.00000000000E+00 0. -1.
         11    1    1    2    0    0  0.78641802164E+00  0.10903187565E+00 -0.27810469417E+02  0.27821799913E+02  0.00000000000E+00 0. -1.
        -15    1    1    2    0    0 -0.35477440410E+01  0.16300532937E+02 -0.45169278613E+03  0.45200423077E+03  0.17770000000E+01 0. -1.
         15    1    1    2    0    0 -0.92407156811E+01 -0.14771740734E+02 -0.16476467087E+02  0.24046347899E+02  0.17770000000E+01 0.  1.
</event>
<event>
 6    1  0.3836009E-003  0.5002084E+03  0.7546771E-02  0.9399344E-01
        -11   -1    0    0    0    0  0.00000000000E+00  0.00000000000E+00  0.50000000000E+03  0.50000000000E+03  0.00000000000E+00 0. -1.
         11   -1    0    0    0    0 -0.00000000000E+00 -0.00000000000E+00 -0.50000000000E+03  0.50000000000E+03  0.00000000000E+00 0. -1.
        -11    1    1    2    0    0  0.52182581888E+00 -0.41446145536E+01  0.26397900059E+03  0.26401205065E+03  0.00000000000E+00 0. -1.
         11    1    1    2    0    0 -0.98298396946E+00  0.77244953432E+01 -0.49973097931E+03  0.49979164235E+03  0.00000000000E+00 0. -1.
        -15    1    1    2    0    0  0.10043644867E+01 -0.75367660446E+01  0.79351291371E+02  0.79734539326E+02  0.17770000000E+01 0.  1.
         15    1    1    2    0    0 -0.54320633608E+00  0.39568852550E+01  0.15640068734E+03  0.15646176768E+03  0.17770000000E+01 0. -1.
</event>
<event>
 6    1  0.3836009E-003  0.5055679E+03  0.7546771E-02  0.9387437E-01
        -11   -1    0    0    0    0  0.00000000000E+00  0.00000000000E+00  0.50000000000E+03  0.50000000000E+03  0.00000000000E+00 0. -1.
         11   -1    0    0    0    0 -0.00000000000E+00 -0.00000000000E+00 -0.50000000000E+03  0.50000000000E+03  0.00000000000E+00 0.  1.
        -11    1    1    2    0    0 -0.17720310819E+02  0.88582788060E+01  0.41472502501E+03  0.41519793459E+03  0.00000000000E+00 0. -1.
         11    1    1    2    0    0 -0.55198935082E+01  0.80819844814E+01 -0.49433518882E+03  0.49443206470E+03  0.00000000000E+00 0.  1.
        -15    1    1    2    0    0  0.59344592281E+01 -0.74650435774E+01  0.65089308352E+02  0.65808209766E+02  0.17770000000E+01 0. -1.
         15    1    1    2    0    0  0.17305745100E+02 -0.94752197101E+01  0.14520855455E+02  0.24561790939E+02  0.17770000000E+01 0.  1.
</event>
<event>
 6    1  0.3836009E-003  0.5030857E+03  0.7546771E-02  0.9392932E-01
        -11   -1    0    0    0    0  0.00000000000E+00  0.00000000000E+00  0.50000000000E+03  0.50000000000E+03  0.00000000000E+00 0.  1.
         11   -1    0    0    0    0 -0.00000000000E+00 -0.00000000000E+00 -0.50000000000E+03  0.50000000000E+03  0.00000000000E+00 0. -1.
        -11    1    1    2    0    0  0.13962916653E+02 -0.15184973210E+01  0.41582909242E+03  0.41606622427E+03  0.00000000000E+00 0.  1.
         11    1    1    2    0    0  0.10726150946E+01  0.12680006048E+02 -0.49675132208E+03  0.49691428742E+03  0.00000000000E+00 0. -1.
        -15    1    1    2    0    0 -0.25624196038E+01 -0.21065849398E+01  0.63809150634E+02  0.63920021339E+02  0.17770000000E+01 0. -1.
         15    1    1    2    0    0 -0.12473112143E+02 -0.90549237868E+01  0.17113079031E+02  0.23099466969E+02  0.17770000000E+01 0.  1.
</event>
<event>
 6    1  0.3836009E-003  0.5014776E+03  0.7546771E-02  0.9396510E-01
        -11   -1    0    0    0    0  0.00000000000E+00  0.00000000000E+00  0.50000000000E+03  0.50000000000E+03  0.00000000000E+00 0. -1.
         11   -1    0    0    0    0 -0.00000000000E+00 -0.00000000000E+00 -0.50000000000E+03  0.50000000000E+03  0.00000000000E+00 0.  1.
        -11    1    1    2    0    0  0.82396315171E+01 -0.24188051563E+01  0.39995478723E+03  0.40004696471E+03  0.00000000000E+00 0. -1.
         11    1    1    2    0    0 -0.14061888418E+01 -0.13319751130E+02 -0.49834246948E+03  0.49852242681E+03  0.00000000000E+00 0.  1.
        -15    1    1    2    0    0 -0.62950229493E+01  0.99390294837E+01  0.91360545636E+02  0.92132071772E+02  0.17770000000E+01 0. -1.
         15    1    1    2    0    0 -0.53841972599E+00  0.57995268021E+01  0.70271366155E+01  0.92985367098E+01  0.17770000000E+01 0.  1.
</event>
<event>
 6    1  0.3836009E-003  0.5389621E+03  0.7546771E-02  0.9316616E-01
        -11   -1    0    0    0    0  0.00000000000E+00  0.00000000000E+00  0.50000000000E+03  0.50000000000E+03  0.00000000000E+00 0.  1.
         11   -1    0    0    0    0 -0.00000000000E+00 -0.00000000000E+00 -0.50000000000E+03  0.50000000000E+03  0.00000000000E+00 0. -1.
        -11    1    1    2    0    0  0.65940138484E+02 -0.21522411888E+02  0.45579013343E+03  0.46103791797E+03  0.00000000000E+00 0.  1.
         11    1    1    2    0    0  0.94237831257E+01 -0.15472767535E+00 -0.40247615579E+03  0.40258649705E+03  0.00000000000E+00 0. -1.
        -15    1    1    2    0    0 -0.10416887468E+02  0.29508002188E+02 -0.62860617185E+02  0.70241360034E+02  0.17770000000E+01 0. -1.
         15    1    1    2    0    0 -0.64947034142E+02 -0.78308626241E+01  0.95466395427E+01  0.66134224943E+02  0.17770000000E+01 0.  1.
</event>
<event>
 6    1  0.3836009E-003  0.5020095E+03  0.7546771E-02  0.9395325E-01
        -11   -1    0    0    0    0  0.00000000000E+00  0.00000000000E+00  0.50000000000E+03  0.50000000000E+03  0.00000000000E+00 0. -1.
         11   -1    0    0    0    0 -0.00000000000E+00 -0.00000000000E+00 -0.50000000000E+03  0.50000000000E+03  0.00000000000E+00 0. -1.
        -11    1    1    2    0    0  0.81430563083E+01 -0.24959161112E+01  0.49791770994E+03  0.49799054694E+03  0.00000000000E+00 0. -1.
         11    1    1    2    0    0 -0.54818244796E+01 -0.11624321918E+02 -0.26979058397E+03  0.27009652804E+03  0.00000000000E+00 0. -1.
        -15    1    1    2    0    0  0.13858739972E+02  0.14216821406E+02 -0.66210642244E+02  0.69146146385E+02  0.17770000000E+01 0.  1.
         15    1    1    2    0    0 -0.16519971801E+02 -0.96583376198E-01 -0.16191648373E+03  0.16276677864E+03  0.17770000000E+01 0. -1.
</event>
<event>
 6    1  0.3836009E-003  0.5022606E+03  0.7546771E-02  0.9394766E-01
        -11   -1    0    0    0    0  0.00000000000E+00  0.00000000000E+00  0.50000000000E+03  0.50000000000E+03  0.00000000000E+00 0.  1.
         11   -1    0    0    0    0 -0.00000000000E+00 -0.00000000000E+00 -0.50000000000E+03  0.50000000000E+03  0.00000000000E+00 0. -1.
        -11    1    1    2    0    0 -0.39508838701E+01 -0.84288472868E+01  0.44810665236E+03  0.44820333202E+03  0.00000000000E+00 0.  1.
         11    1    1    2    0    0  0.10671493397E+02 -0.26712044684E+01 -0.49761782341E+03  0.49773940398E+03  0.00000000000E+00 0. -1.
        -15    1    1    2    0    0 -0.18561973048E+01  0.11345258744E+02  0.14148784181E+02  0.18316827978E+02  0.17770000000E+01 0. -1.
         15    1    1    2    0    0 -0.48644122226E+01 -0.24520698845E+00  0.35362386867E+02  0.35740436017E+02  0.17770000000E+01 0.  1.
</event>
<event>
 6    1  0.3836009E-003  0.5030517E+03  0.7546771E-02  0.9393007E-01
        -11   -1    0    0    0    0  0.00000000000E+00  0.00000000000E+00  0.50000000000E+03  0.50000000000E+03  0.00000000000E+00 0. -1.
         11   -1    0    0    0    0 -0.00000000000E+00 -0.00000000000E+00 -0.50000000000E+03  0.50000000000E+03  0.00000000000E+00 0.  1.
        -11    1    1    2    0    0 -0.29939290977E+01 -0.50851655418E+01  0.39469754963E+03  0.39474166009E+03  0.00000000000E+00 0. -1.
         11    1    1    2    0    0 -0.72447661239E+01 -0.18818225710E+01 -0.49689190308E+03  0.49694827824E+03  0.00000000000E+00 0.  1.
        -15    1    1    2    0    0  0.84108601744E+01  0.71963608349E+01  0.10435804456E+03  0.10495851263E+03  0.17770000000E+01 0. -1.
         15    1    1    2    0    0  0.18278350472E+01 -0.22937272208E+00 -0.21636911173E+01  0.33515490532E+01  0.17770000000E+01 0.  1.
</event>
<event>
 6    1  0.3836009E-003  0.5033630E+03  0.7546771E-02  0.9392316E-01
        -11   -1    0    0    0    0  0.00000000000E+00  0.00000000000E+00  0.50000000000E+03  0.50000000000E+03  0.00000000000E+00 0. -1.
         11   -1    0    0    0    0 -0.00000000000E+00 -0.00000000000E+00 -0.50000000000E+03  0.50000000000E+03  0.00000000000E+00 0.  1.
        -11    1    1    2    0    0 -0.32015462126E+01  0.79030824394E+01  0.49656380419E+03  0.49663701055E+03  0.00000000000E+00 0. -1.
         11    1    1    2    0    0 -0.75036674406E+01  0.57131055133E+01 -0.33776422605E+03  0.33789586709E+03  0.00000000000E+00 0.  1.
        -15    1    1    2    0    0  0.22683327223E+01 -0.81240792223E+01 -0.26996432973E+01  0.90328179148E+01  0.17770000000E+01 0.  1.
         15    1    1    2    0    0  0.84368809309E+01 -0.54921087303E+01 -0.15609993485E+03  0.15643430444E+03  0.17770000000E+01 0.  1.
</event>
<event>
 6    1  0.3836009E-003  0.5053447E+03  0.7546771E-02  0.9387929E-01
        -11   -1    0    0    0    0  0.00000000000E+00  0.00000000000E+00  0.50000000000E+03  0.50000000000E+03  0.00000000000E+00 0.  1.
         11   -1    0    0    0    0 -0.00000000000E+00 -0.00000000000E+00 -0.50000000000E+03  0.50000000000E+03  0.00000000000E+00 0. -1.
        -11    1    1    2    0    0 -0.96330808678E+01  0.41089694969E+01  0.49454438828E+03  0.49465526567E+03  0.00000000000E+00 0.  1.
         11    1    1    2    0    0  0.70426943516E+01 -0.34872118526E+01 -0.48637526122E+03  0.48643874734E+03  0.00000000000E+00 0. -1.
        -15    1    1    2    0    0  0.58897604902E+01 -0.27213471392E+01 -0.11599352935E+02  0.13408867454E+02  0.17770000000E+01 0. -1.
         15    1    1    2    0    0 -0.32993739739E+01  0.20995894950E+01  0.34302258751E+01  0.54971195386E+01  0.17770000000E+01 0.  1.
</event>
<event>
 6    1  0.3836009E-003  0.5038514E+03  0.7546771E-02  0.9391233E-01
        -11   -1    0    0    0    0  0.00000000000E+00  0.00000000000E+00  0.50000000000E+03  0.50000000000E+03  0.00000000000E+00 0.  1.
         11   -1    0    0    0    0 -0.00000000000E+00 -0.00000000000E+00 -0.50000000000E+03  0.50000000000E+03  0.00000000000E+00 0. -1.
        -11    1    1    2    0    0 -0.83430145385E+01 -0.49833011056E+01  0.29408967071E+03  0.29425018878E+03  0.00000000000E+00 0.  1.
         11    1    1    2    0    0 -0.74039948898E+01 -0.62295164439E+01 -0.49605424834E+03  0.49614861011E+03  0.00000000000E+00 0. -1.
        -15    1    1    2    0    0  0.53292660336E+01  0.33470330491E+01 -0.63844050409E+00  0.65703152105E+01  0.17770000000E+01 0.  1.
         15    1    1    2    0    0  0.10417743395E+02  0.78657845003E+01  0.20260301814E+03  0.20303088590E+03  0.17770000000E+01 0.  1.
</event>
<event>
 6    1  0.3836009E-003  0.5030080E+03  0.7546771E-02  0.9393104E-01
        -11   -1    0    0    0    0  0.00000000000E+00  0.00000000000E+00  0.50000000000E+03  0.50000000000E+03  0.00000000000E+00 0.  1.
         11   -1    0    0    0    0 -0.00000000000E+00 -0.00000000000E+00 -0.50000000000E+03  0.50000000000E+03  0.00000000000E+00 0.  1.
        -11    1    1    2    0    0 -0.66071432046E+01  0.12597647738E+01  0.49694644762E+03  0.49699196487E+03  0.00000000000E+00 0.  1.
         11    1    1    2    0    0  0.64797163966E+01 -0.41278725186E+01 -0.48925828857E+03  0.48931860683E+03  0.00000000000E+00 0.  1.
        -15    1    1    2    0    0  0.23088804288E+01 -0.28059312911E+01 -0.44737585494E+00  0.40696502799E+01  0.17770000000E+01 0.  1.
         15    1    1    2    0    0 -0.21814536207E+01  0.56740390360E+01 -0.72407831960E+01  0.96197780209E+01  0.17770000000E+01 0. -1.
</event>
<event>
 6    1  0.3836009E-003  0.5296345E+03  0.7546771E-02  0.9335837E-01
        -11   -1    0    0    0    0  0.00000000000E+00  0.00000000000E+00  0.50000000000E+03  0.50000000000E+03  0.00000000000E+00 0. -1.
         11   -1    0    0    0    0 -0.00000000000E+00 -0.00000000000E+00 -0.50000000000E+03  0.50000000000E+03  0.00000000000E+00 0.  1.
        -11    1    1    2    0    0 -0.20244560641E+02  0.85932622877E+01  0.46985102235E+03  0.47036546387E+03  0.00000000000E+00 0. -1.
         11    1    1    2    0    0 -0.61905641157E+01 -0.15096763651E+01 -0.43473329167E+03  0.43477998700E+03  0.00000000000E+00 0.  1.
        -15    1    1    2    0    0  0.42477697390E+01  0.56785235147E+01 -0.59209468551E+02  0.59659098822E+02  0.17770000000E+01 0. -1.
         15    1    1    2    0    0  0.22187355018E+02 -0.12762109437E+02  0.24091737870E+02  0.35195450311E+02  0.17770000000E+01 0.  1.
</event>
<event>
 6    1  0.3836009E-003  0.5136912E+03  0.7546771E-02  0.9369685E-01
        -11   -1    0    0    0    0  0.00000000000E+00  0.00000000000E+00  0.50000000000E+03  0.50000000000E+03  0.00000000000E+00 0. -1.
         11   -1    0    0    0    0 -0.00000000000E+00 -0.00000000000E+00 -0.50000000000E+03  0.50000000000E+03  0.00000000000E+00 0. -1.
        -11    1    1    2    0    0  0.10625186480E+02  0.70811792033E+00  0.14886034478E+03  0.14924073930E+03  0.00000000000E+00 0. -1.
         11    1    1    2    0    0  0.67311385866E+01 -0.76104624458E+01 -0.48620265777E+03  0.48630880291E+03  0.00000000000E+00 0. -1.
        -15    1    1    2    0    0 -0.31185214913E+01  0.51377382892E+01  0.34700534172E+03  0.34706193459E+03  0.17770000000E+01 0. -1.
         15    1    1    2    0    0 -0.14237803575E+02  0.17646062363E+01 -0.96630287306E+01  0.17388523199E+02  0.17770000000E+01 0.  1.
</event>
<event>
 6    1  0.3836009E-003  0.5181325E+03  0.7546771E-02  0.9360127E-01
        -11   -1    0    0    0    0  0.00000000000E+00  0.00000000000E+00  0.50000000000E+03  0.50000000000E+03  0.00000000000E+00 0. -1.
         11   -1    0    0    0    0 -0.00000000000E+00 -0.00000000000E+00 -0.50000000000E+03  0.50000000000E+03  0.00000000000E+00 0. -1.
        -11    1    1    2    0    0 -0.18270564274E+01  0.29322463922E+01  0.22798331233E+03  0.22800948862E+03  0.00000000000E+00 0. -1.
         11    1    1    2    0    0  0.66291425982E+01  0.22056089048E+01 -0.48181687717E+03  0.48186752679E+03  0.00000000000E+00 0. -1.
        -15    1    1    2    0    0  0.46791336921E+01 -0.65779190776E+00 -0.17687435859E+02  0.18393751618E+02  0.17770000000E+01 0.  1.
         15    1    1    2    0    0 -0.94812198629E+01 -0.44800633893E+01  0.27152100071E+03  0.27172923297E+03  0.17770000000E+01 0. -1.
</event>
<event>
 6    1  0.3836009E-003  0.5016279E+03  0.7546771E-02  0.9396174E-01
        -11   -1    0    0    0    0  0.00000000000E+00  0.00000000000E+00  0.50000000000E+03  0.50000000000E+03  0.00000000000E+00 0. -1.
         11   -1    0    0    0    0 -0.00000000000E+00 -0.00000000000E+00 -0.50000000000E+03  0.50000000000E+03  0.00000000000E+00 0. -1.
        -11    1    1    2    0    0  0.55806593361E+01 -0.46143068624E+01  0.49831948024E+03  0.49837208988E+03  0.00000000000E+00 0. -1.
         11    1    1    2    0    0 -0.75809162118E+01  0.67535896786E+01 -0.41574058437E+03  0.41586453895E+03  0.00000000000E+00 0. -1.
        -15    1    1    2    0    0 -0.25443063313E+01  0.96406706739E+01 -0.43214457313E+02  0.44385392593E+02  0.17770000000E+01 0. -1.
         15    1    1    2    0    0  0.45445632070E+01 -0.11779953490E+02 -0.39364438559E+02  0.41377978576E+02  0.17770000000E+01 0.  1.
</event>
<event>
 6    1  0.3836009E-003  0.5253604E+03  0.7546771E-02  0.9344786E-01
        -11   -1    0    0    0    0  0.00000000000E+00  0.00000000000E+00  0.50000000000E+03  0.50000000000E+03  0.00000000000E+00 0. -1.
         11   -1    0    0    0    0 -0.00000000000E+00 -0.00000000000E+00 -0.50000000000E+03  0.50000000000E+03  0.00000000000E+00 0.  1.
        -11    1    1    2    0    0 -0.26922412555E+02 -0.82855385458E+01  0.47380297066E+03  0.47463957004E+03  0.00000000000E+00 0. -1.
         11    1    1    2    0    0 -0.13683978292E+02 -0.17408749761E+01 -0.44096024849E+03  0.44117595430E+03  0.00000000000E+00 0.  1.
        -15    1    1    2    0    0 -0.12196409472E+01 -0.10399098560E+02 -0.35963886828E+02  0.37499168786E+02  0.17770000000E+01 0.  1.
         15    1    1    2    0    0  0.41826031794E+02  0.20425512082E+02  0.31211646567E+01  0.46685306867E+02  0.17770000000E+01 0. -1.
</event>
<event>
 6    1  0.3836009E-003  0.5009389E+03  0.7546771E-02  0.9397711E-01
        -11   -1    0    0    0    0  0.00000000000E+00  0.00000000000E+00  0.50000000000E+03  0.50000000000E+03  0.00000000000E+00 0.  1.
         11   -1    0    0    0    0 -0.00000000000E+00 -0.00000000000E+00 -0.50000000000E+03  0.50000000000E+03  0.00000000000E+00 0. -1.
        -11    1    1    2    0    0 -0.71968389673E+01 -0.25019612948E+02  0.49838156255E+03  0.49906107584E+03  0.00000000000E+00 0.  1.
         11    1    1    2    0    0  0.77543177468E+01  0.15648647248E+02 -0.18475844131E+03  0.18558203372E+03  0.00000000000E+00 0. -1.
        -15    1    1    2    0    0  0.50651439546E+01  0.11088949949E+02 -0.44785076595E+02  0.46448695448E+02  0.17770000000E+01 0.  1.
         15    1    1    2    0    0 -0.56226227341E+01 -0.17179842493E+01 -0.26883804465E+03  0.26890819499E+03  0.17770000000E+01 0. -1.
</event>
<event>
 6    1  0.3836009E-003  0.5048692E+03  0.7546771E-02  0.9388980E-01
        -11   -1    0    0    0    0  0.00000000000E+00  0.00000000000E+00  0.50000000000E+03  0.50000000000E+03  0.00000000000E+00 0. -1.
         11   -1    0    0    0    0 -0.00000000000E+00 -0.00000000000E+00 -0.50000000000E+03  0.50000000000E+03  0.00000000000E+00 0.  1.
        -11    1    1    2    0    0  0.47627684087E+01  0.57864155470E+01  0.49507405394E+03  0.49513077611E+03  0.00000000000E+00 0. -1.
         11    1    1    2    0    0 -0.78643172804E+01  0.16821985882E+01 -0.48489541205E+03  0.48496209945E+03  0.00000000000E+00 0.  1.
        -15    1    1    2    0    0 -0.39337021485E+01  0.14552153724E+01 -0.62894842418E+01  0.77657585206E+01  0.17770000000E+01 0. -1.
         15    1    1    2    0    0  0.70352510201E+01 -0.89238295076E+01 -0.38891576500E+01  0.12141365913E+02  0.17770000000E+01 0.  1.
</event>
<event>
 6    1  0.3836009E-003  0.5087107E+03  0.7546771E-02  0.9380527E-01
        -11   -1    0    0    0    0  0.00000000000E+00  0.00000000000E+00  0.50000000000E+03  0.50000000000E+03  0.00000000000E+00 0. -1.
         11   -1    0    0    0    0 -0.00000000000E+00 -0.00000000000E+00 -0.50000000000E+03  0.50000000000E+03  0.00000000000E+00 0.  1.
        -11    1    1    2    0    0 -0.11598199894E+02 -0.92990697909E+01  0.49106432831E+03  0.49128928899E+03  0.00000000000E+00 0. -1.
         11    1    1    2    0    0  0.77905614478E+01 -0.21693634403E+01 -0.37246926779E+03  0.37255704856E+03  0.00000000000E+00 0.  1.
        -15    1    1    2    0    0 -0.95003027931E+00  0.14924557193E+02 -0.12579264841E+03  0.12669093530E+03  0.17770000000E+01 0.  1.
         15    1    1    2    0    0  0.47576687254E+01 -0.34561239619E+01  0.71975878880E+01  0.94627271410E+01  0.17770000000E+01 0. -1.
</event>
<event>
 6    1  0.3836009E-003  0.5071430E+03  0.7546771E-02  0.9383967E-01
        -11   -1    0    0    0    0  0.00000000000E+00  0.00000000000E+00  0.50000000000E+03  0.50000000000E+03  0.00000000000E+00 0. -1.
         11   -1    0    0    0    0 -0.00000000000E+00 -0.00000000000E+00 -0.50000000000E+03  0.50000000000E+03  0.00000000000E+00 0. -1.
        -11    1    1    2    0    0 -0.47546592831E+01  0.13017270743E+02  0.49266213170E+03  0.49285700982E+03  0.00000000000E+00 0. -1.
         11    1    1    2    0    0  0.23867919168E+01 -0.16334053949E+02 -0.43150163137E+03  0.43181727150E+03  0.00000000000E+00 0. -1.
        -15    1    1    2    0    0  0.64577354872E+01  0.15990929783E+02 -0.56832747682E+01  0.18244712221E+02  0.17770000000E+01 0. -1.
         15    1    1    2    0    0 -0.40898681209E+01 -0.12674146576E+02 -0.55477225560E+02  0.57081006451E+02  0.17770000000E+01 0.  1.
</event>
<event>
 6    1  0.3836009E-003  0.5029456E+03  0.7546771E-02  0.9393243E-01
        -11   -1    0    0    0    0  0.00000000000E+00  0.00000000000E+00  0.50000000000E+03  0.50000000000E+03  0.00000000000E+00 0.  1.
         11   -1    0    0    0    0 -0.00000000000E+00 -0.00000000000E+00 -0.50000000000E+03  0.50000000000E+03  0.00000000000E+00 0.  1.
        -11    1    1    2    0    0 -0.19897469512E+02  0.13703148070E+02  0.49646692154E+03  0.49705441327E+03  0.00000000000E+00 0.  1.
         11    1    1    2    0    0  0.26795313392E+01 -0.10358251883E+02 -0.25401014721E+03  0.25423537944E+03  0.00000000000E+00 0.  1.
        -15    1    1    2    0    0  0.13943739199E+02 -0.13146752603E+01 -0.12929798452E+02  0.19144023895E+02  0.17770000000E+01 0. -1.
         15    1    1    2    0    0  0.32741989738E+01 -0.20302209263E+01 -0.22952697588E+03  0.22956618340E+03  0.17770000000E+01 0.  1.
</event>
<event>
 6    1  0.3836009E-003  0.4830837E+03  0.7546771E-02  0.9438477E-01
        -11   -1    0    0    0    0  0.00000000000E+00  0.00000000000E+00  0.50000000000E+03  0.50000000000E+03  0.00000000000E+00 0. -1.
         11   -1    0    0    0    0 -0.00000000000E+00 -0.00000000000E+00 -0.50000000000E+03  0.50000000000E+03  0.00000000000E+00 0. -1.
        -11    1    1    2    0    0 -0.17849798549E+01  0.70330398091E+01  0.48399880025E+03  0.48405318762E+03  0.00000000000E+00 0. -1.
         11    1    1    2    0    0 -0.18170297140E+02  0.17141261881E+01 -0.48201658683E+03  0.48236198845E+03  0.00000000000E+00 0. -1.
        -15    1    1    2    0    0  0.23603329234E+02 -0.11792268602E+02 -0.59955276469E+01  0.27116025344E+02  0.17770000000E+01 0.  1.
         15    1    1    2    0    0 -0.36480522390E+01  0.30451026053E+01  0.40133142268E+01  0.64687985823E+01  0.17770000000E+01 0.  1.
</event>
<event>
 6    1  0.3836009E-003  0.5065428E+03  0.7546771E-02  0.9385288E-01
        -11   -1    0    0    0    0  0.00000000000E+00  0.00000000000E+00  0.50000000000E+03  0.50000000000E+03  0.00000000000E+00 0. -1.
         11   -1    0    0    0    0 -0.00000000000E+00 -0.00000000000E+00 -0.50000000000E+03  0.50000000000E+03  0.00000000000E+00 0. -1.
        -11    1    1    2    0    0  0.73791074834E+01 -0.16131410780E+02  0.49313829973E+03  0.49345724871E+03  0.00000000000E+00 0. -1.
         11    1    1    2    0    0  0.97585574218E+01 -0.22498236633E+01 -0.45415791614E+03  0.45426831713E+03  0.00000000000E+00 0. -1.
        -15    1    1    2    0    0 -0.31991591166E+01 -0.30178615547E+01 -0.19600151597E+02  0.20165955942E+02  0.17770000000E+01 0. -1.
         15    1    1    2    0    0 -0.13938505789E+02  0.21399095998E+02 -0.19380231988E+02  0.32108478227E+02  0.17770000000E+01 0. -1.
</event>
<event>
 6    1  0.3836009E-003  0.5198784E+03  0.7546771E-02  0.9356397E-01
        -11   -1    0    0    0    0  0.00000000000E+00  0.00000000000E+00  0.50000000000E+03  0.50000000000E+03  0.00000000000E+00 0. -1.
         11   -1    0    0    0    0 -0.00000000000E+00 -0.00000000000E+00 -0.50000000000E+03  0.50000000000E+03  0.00000000000E+00 0. -1.
        -11    1    1    2    0    0 -0.56700960955E+01 -0.39420630295E+01  0.48007192480E+03  0.48012159171E+03  0.00000000000E+00 0. -1.
         11    1    1    2    0    0  0.27258904438E+02 -0.21869864198E+02 -0.44533180974E+03  0.44670097336E+03  0.00000000000E+00 0. -1.
        -15    1    1    2    0    0 -0.30448721317E+02  0.29500508745E+02 -0.42984984882E+02  0.60400921354E+02  0.17770000000E+01 0. -1.
         15    1    1    2    0    0  0.88599129747E+01 -0.36885815180E+01  0.82448698290E+01  0.12776513571E+02  0.17770000000E+01 0.  1.
</event>
<event>
 6    1  0.3836009E-003  0.5008949E+03  0.7546771E-02  0.9397810E-01
        -11   -1    0    0    0    0  0.00000000000E+00  0.00000000000E+00  0.50000000000E+03  0.50000000000E+03  0.00000000000E+00 0.  1.
         11   -1    0    0    0    0 -0.00000000000E+00 -0.00000000000E+00 -0.50000000000E+03  0.50000000000E+03  0.00000000000E+00 0. -1.
        -11    1    1    2    0    0 -0.11042409751E+02  0.63515087501E+01  0.49894255281E+03  0.49910514672E+03  0.00000000000E+00 0.  1.
         11    1    1    2    0    0 -0.33387942391E+01  0.31887001062E+01 -0.20692690329E+03  0.20697840144E+03  0.00000000000E+00 0. -1.
        -15    1    1    2    0    0  0.10398329469E+01  0.50808539089E+01 -0.18438901180E+03  0.18447049013E+03  0.17770000000E+01 0. -1.
         15    1    1    2    0    0  0.13341371043E+02 -0.14621062765E+02 -0.10762663772E+03  0.10944596170E+03  0.17770000000E+01 0.  1.
</event>
<event>
 6    1  0.1497845E-002  0.4442240E+03  0.7546771E-02  0.9534064E-01
        -11   -1    0    0    0    0  0.00000000000E+00  0.00000000000E+00  0.50000000000E+03  0.50000000000E+03  0.00000000000E+00 0.  1.
         11   -1    0    0    0    0 -0.00000000000E+00 -0.00000000000E+00 -0.50000000000E+03  0.50000000000E+03  0.00000000000E+00 0.  1.
        -11    1    1    2    0    0 -0.33343504268E+01  0.19392516248E+02  0.46336001303E+03  0.46377762910E+03  0.00000000000E+00 0.  1.
         11    1    1    2    0    0  0.54157614500E+00 -0.11624734770E+01 -0.69099226526E+02  0.69111126136E+02  0.00000000000E+00 0.  1.
        -15    1    1    2    0    0 -0.18486317571E+02 -0.19639925831E+02  0.31104369598E+02  0.41208132220E+02  0.17770000000E+01 0. -1.
         15    1    1    2    0    0  0.21279091853E+02  0.14098830596E+01 -0.42536515610E+03  0.42590311254E+03  0.17770000000E+01 0.  1.
</event>
<event>
 6    1  0.3836009E-003  0.5014729E+03  0.7546771E-02  0.9396520E-01
        -11   -1    0    0    0    0  0.00000000000E+00  0.00000000000E+00  0.50000000000E+03  0.50000000000E+03  0.00000000000E+00 0.  1.
         11   -1    0    0    0    0 -0.00000000000E+00 -0.00000000000E+00 -0.50000000000E+03  0.50000000000E+03  0.00000000000E+00 0.  1.
        -11    1    1    2    0    0  0.46465658467E+01  0.29217095364E+01  0.27208890361E+03  0.27214426033E+03  0.00000000000E+00 0.  1.
         11    1    1    2    0    0 -0.47545503009E+01 -0.89684118505E+01 -0.49842376451E+03  0.49852711781E+03  0.00000000000E+00 0.  1.
        -15    1    1    2    0    0  0.17495050632E+02  0.13968214916E+01  0.14093540681E+03  0.14203511724E+03  0.17770000000E+01 0. -1.
         15    1    1    2    0    0 -0.17387066178E+02  0.46498808225E+01  0.85399454094E+02  0.87293504630E+02  0.17770000000E+01 0.  1.
</event>
<event>
 6    1  0.3836009E-003  0.5021511E+03  0.7546771E-02  0.9395009E-01
        -11   -1    0    0    0    0  0.00000000000E+00  0.00000000000E+00  0.50000000000E+03  0.50000000000E+03  0.00000000000E+00 0. -1.
         11   -1    0    0    0    0 -0.00000000000E+00 -0.00000000000E+00 -0.50000000000E+03  0.50000000000E+03  0.00000000000E+00 0. -1.
        -11    1    1    2    0    0 -0.26451206484E+01 -0.89735386756E+01  0.49776099714E+03  0.49784890412E+03  0.00000000000E+00 0. -1.
         11    1    1    2    0    0 -0.12573007023E+02  0.47399861947E+01 -0.36468390313E+03  0.36493135954E+03  0.00000000000E+00 0. -1.
        -15    1    1    2    0    0  0.13235348385E+02 -0.11243981575E+02 -0.79150952264E+02  0.81053269779E+02  0.17770000000E+01 0.  1.
         15    1    1    2    0    0  0.19827792871E+01  0.15477534056E+02 -0.53926141741E+02  0.56166466563E+02  0.17770000000E+01 0. -1.
</event>
<event>
 6    1  0.3836009E-003  0.5080669E+03  0.7546771E-02  0.9381938E-01
        -11   -1    0    0    0    0  0.00000000000E+00  0.00000000000E+00  0.50000000000E+03  0.50000000000E+03  0.00000000000E+00 0.  1.
         11   -1    0    0    0    0 -0.00000000000E+00 -0.00000000000E+00 -0.50000000000E+03  0.50000000000E+03  0.00000000000E+00 0.  1.
        -11    1    1    2    0    0  0.85989132305E+01 -0.10754586250E+02  0.49174033078E+03  0.49193308016E+03  0.00000000000E+00 0.  1.
         11    1    1    2    0    0 -0.46675026639E+01  0.47819654518E+01 -0.35921017948E+03  0.35927232821E+03  0.00000000000E+00 0.  1.
        -15    1    1    2    0    0  0.54682562213E+01 -0.37608250792E+01 -0.13478687774E+03  0.13496186784E+03  0.17770000000E+01 0.  1.
         15    1    1    2    0    0 -0.93996667880E+01  0.97334458772E+01  0.22567264382E+01  0.13832723795E+02  0.17770000000E+01 0.  1.
</event>
<event>
 6    1  0.3836009E-003  0.5106713E+03  0.7546771E-02  0.9376243E-01
        -11   -1    0    0    0    0  0.00000000000E+00  0.00000000000E+00  0.50000000000E+03  0.50000000000E+03  0.00000000000E+00 0.  1.
         11   -1    0    0    0    0 -0.00000000000E+00 -0.00000000000E+00 -0.50000000000E+03  0.50000000000E+03  0.00000000000E+00 0. -1.
        -11    1    1    2    0    0 -0.14223231249E+02 -0.18478060429E+01  0.34443758214E+03  0.34473607685E+03  0.00000000000E+00 0.  1.
         11    1    1    2    0    0 -0.10094554682E+02 -0.15510802778E+02 -0.48897860619E+03  0.48932868539E+03  0.00000000000E+00 0. -1.
        -15    1    1    2    0    0  0.19329497144E+02 -0.27855247664E+02  0.44064343547E+02  0.55627047230E+02  0.17770000000E+01 0. -1.
         15    1    1    2    0    0  0.49882887871E+01  0.45213856486E+02  0.10047668050E+03  0.11030819053E+03  0.17770000000E+01 0.  1.
</event>
<event>
 6    1  0.3836009E-003  0.5071625E+03  0.7546771E-02  0.9383924E-01
        -11   -1    0    0    0    0  0.00000000000E+00  0.00000000000E+00  0.50000000000E+03  0.50000000000E+03  0.00000000000E+00 0.  1.
         11   -1    0    0    0    0 -0.00000000000E+00 -0.00000000000E+00 -0.50000000000E+03  0.50000000000E+03  0.00000000000E+00 0. -1.
        -11    1    1    2    0    0  0.10708395914E+02  0.44543622195E+01  0.49270103970E+03  0.49283752455E+03  0.00000000000E+00 0.  1.
         11    1    1    2    0    0  0.86725497680E+01 -0.14618755179E+01 -0.45968133411E+03  0.45976546100E+03  0.00000000000E+00 0. -1.
        -15    1    1    2    0    0 -0.91603030156E+01 -0.73953575374E+01 -0.34058455609E+02  0.36079614631E+02  0.17770000000E+01 0.  1.
         15    1    1    2    0    0 -0.10220642666E+02  0.44028708358E+01  0.10387500179E+01  0.11317399821E+02  0.17770000000E+01 0. -1.
</event>
<event>
 6    1  0.3836009E-003  0.5021577E+03  0.7546771E-02  0.9394995E-01
        -11   -1    0    0    0    0  0.00000000000E+00  0.00000000000E+00  0.50000000000E+03  0.50000000000E+03  0.00000000000E+00 0.  1.
         11   -1    0    0    0    0 -0.00000000000E+00 -0.00000000000E+00 -0.50000000000E+03  0.50000000000E+03  0.00000000000E+00 0. -1.
        -11    1    1    2    0    0 -0.52341471266E+01 -0.17463310886E+02  0.49750843285E+03  0.49784234882E+03  0.00000000000E+00 0.  1.
         11    1    1    2    0    0  0.19529344964E+02  0.13928668911E+02 -0.28455598019E+03  0.28556524472E+03  0.00000000000E+00 0. -1.
        -15    1    1    2    0    0 -0.15571591916E+02 -0.75827289152E+01 -0.44885252175E+02  0.48143699945E+02  0.17770000000E+01 0.  1.
         15    1    1    2    0    0  0.12763940784E+01  0.11117370890E+02 -0.16806720049E+03  0.16844870651E+03  0.17770000000E+01 0. -1.
</event>
<event>
 6    1  0.3836009E-003  0.5014767E+03  0.7546771E-02  0.9396512E-01
        -11   -1    0    0    0    0  0.00000000000E+00  0.00000000000E+00  0.50000000000E+03  0.50000000000E+03  0.00000000000E+00 0.  1.
         11   -1    0    0    0    0 -0.00000000000E+00 -0.00000000000E+00 -0.50000000000E+03  0.50000000000E+03  0.00000000000E+00 0. -1.
        -11    1    1    2    0    0  0.70015445474E+01 -0.46286161280E+01  0.26534174226E+03  0.26547445433E+03  0.00000000000E+00 0.  1.
         11    1    1    2    0    0 -0.36424633442E+01  0.88380477823E+01 -0.49843164303E+03  0.49852330076E+03  0.00000000000E+00 0. -1.
        -15    1    1    2    0    0 -0.10290670003E+01  0.28121201184E+01  0.22450102552E+03  0.22452802762E+03  0.17770000000E+01 0.  1.
         15    1    1    2    0    0 -0.23300142029E+01 -0.70215517728E+01  0.85888752392E+01  0.11474217287E+02  0.17770000000E+01 0. -1.
</event>
<event>
 6    1  0.3836009E-003  0.5030701E+03  0.7546771E-02  0.9392966E-01
        -11   -1    0    0    0    0  0.00000000000E+00  0.00000000000E+00  0.50000000000E+03  0.50000000000E+03  0.00000000000E+00 0. -1.
         11   -1    0    0    0    0 -0.00000000000E+00 -0.00000000000E+00 -0.50000000000E+03  0.50000000000E+03  0.00000000000E+00 0. -1.
        -11    1    1    2    0    0  0.54458422908E+01 -0.50804226574E+01  0.28970598690E+03  0.28980170244E+03  0.00000000000E+00 0. -1.
         11    1    1    2    0    0 -0.11889059380E+02 -0.41622726826E+01 -0.49677026072E+03  0.49692994092E+03  0.00000000000E+00 0. -1.
        -15    1    1    2    0    0  0.19009071117E+01  0.68180044007E+00 -0.23804453038E+01  0.35920117666E+01  0.17770000000E+01 0. -1.
         15    1    1    2    0    0  0.45423099779E+01  0.85608948999E+01  0.20944471913E+03  0.20967634488E+03  0.17770000000E+01 0.  1.
</event>
<event>
 6    1  0.3836009E-003  0.5034038E+03  0.7546771E-02  0.9392226E-01
        -11   -1    0    0    0    0  0.00000000000E+00  0.00000000000E+00  0.50000000000E+03  0.50000000000E+03  0.00000000000E+00 0. -1.
         11   -1    0    0    0    0 -0.00000000000E+00 -0.00000000000E+00 -0.50000000000E+03  0.50000000000E+03  0.00000000000E+00 0. -1.
        -11    1    1    2    0    0  0.72240279342E+01  0.96614635240E+01  0.44029232182E+03  0.44045755653E+03  0.00000000000E+00 0. -1.
         11    1    1    2    0    0  0.10690011887E+01  0.81738669369E+01 -0.49652778159E+03  0.49659620695E+03  0.00000000000E+00 0. -1.
        -15    1    1    2    0    0 -0.12503798279E+02 -0.19194576822E+02  0.41213318671E+02  0.47185507475E+02  0.17770000000E+01 0. -1.
         15    1    1    2    0    0  0.42107691563E+01  0.13592463613E+01  0.15022141104E+02  0.15760729041E+02  0.17770000000E+01 0.  1.
</event>
<event>
 6    1  0.3836009E-003  0.5074841E+03  0.7546771E-02  0.9383217E-01
        -11   -1    0    0    0    0  0.00000000000E+00  0.00000000000E+00  0.50000000000E+03  0.50000000000E+03  0.00000000000E+00 0.  1.
         11   -1    0    0    0    0 -0.00000000000E+00 -0.00000000000E+00 -0.50000000000E+03  0.50000000000E+03  0.00000000000E+00 0.  1.
        -11    1    1    2    0    0 -0.51806003578E+01  0.50361505735E+01  0.49246290602E+03  0.49251590354E+03  0.00000000000E+00 0.  1.
         11    1    1    2    0    0 -0.58475803190E+01 -0.53056611739E+01 -0.48584238300E+03  0.48590653973E+03  0.00000000000E+00 0.  1.
        -15    1    1    2    0    0  0.10396748255E+02 -0.62288673679E+01 -0.80551734326E+01  0.14660651793E+02  0.17770000000E+01 0.  1.
         15    1    1    2    0    0  0.63143242191E+00  0.64983779683E+01  0.14346504085E+01  0.69169049377E+01  0.17770000000E+01 0. -1.
</event>
<event>
 6    1  0.3836009E-003  0.5007183E+03  0.7546771E-02  0.9398204E-01
        -11   -1    0    0    0    0  0.00000000000E+00  0.00000000000E+00  0.50000000000E+03  0.50000000000E+03  0.00000000000E+00 0. -1.
         11   -1    0    0    0    0 -0.00000000000E+00 -0.00000000000E+00 -0.50000000000E+03  0.50000000000E+03  0.00000000000E+00 0. -1.
        -11    1    1    2    0    0  0.26053094962E+01  0.94539657958E+01  0.49918533995E+03  0.49928165271E+03  0.00000000000E+00 0. -1.
         11    1    1    2    0    0  0.13031826994E+01  0.12060968253E+01 -0.11205365631E+03  0.11206772438E+03  0.00000000000E+00 0. -1.
        -15    1    1    2    0    0  0.73040656402E+00 -0.11470819618E+02 -0.44899224139E+02  0.46381151923E+02  0.17770000000E+01 0.  1.
         15    1    1    2    0    0 -0.46388987596E+01  0.81075699723E+00 -0.34223245950E+03  0.34226947100E+03  0.17770000000E+01 0. -1.
</event>
<event>
 6    1  0.3836009E-003  0.5085069E+03  0.7546771E-02  0.9380974E-01
        -11   -1    0    0    0    0  0.00000000000E+00  0.00000000000E+00  0.50000000000E+03  0.50000000000E+03  0.00000000000E+00 0. -1.
         11   -1    0    0    0    0 -0.00000000000E+00 -0.00000000000E+00 -0.50000000000E+03  0.50000000000E+03  0.00000000000E+00 0.  1.
        -11    1    1    2    0    0  0.71429419878E+00 -0.29315444404E+02  0.21896682572E+03  0.22092165186E+03  0.00000000000E+00 0. -1.
         11    1    1    2    0    0  0.64149320278E+01  0.25983517954E+02 -0.49076387923E+03  0.49149311258E+03  0.00000000000E+00 0.  1.
        -15    1    1    2    0    0 -0.74736722130E+01  0.69041722498E+01  0.27908150139E+03  0.27927256492E+03  0.17770000000E+01 0. -1.
         15    1    1    2    0    0  0.34444598639E+00 -0.35722457997E+01 -0.72844478849E+01  0.83126706346E+01  0.17770000000E+01 0.  1.
</event>
<event>
 6    1  0.3836009E-003  0.5045688E+03  0.7546771E-02  0.9389644E-01
        -11   -1    0    0    0    0  0.00000000000E+00  0.00000000000E+00  0.50000000000E+03  0.50000000000E+03  0.00000000000E+00 0. -1.
         11   -1    0    0    0    0 -0.00000000000E+00 -0.00000000000E+00 -0.50000000000E+03  0.50000000000E+03  0.00000000000E+00 0. -1.
        -11    1    1    2    0    0  0.99500158452E+01  0.67629679324E+01  0.47591095963E+03  0.47606300219E+03  0.00000000000E+00 0. -1.
         11    1    1    2    0    0 -0.61576888978E+01 -0.58854204795E+01 -0.49535793566E+03  0.49543116548E+03  0.00000000000E+00 0. -1.
        -15    1    1    2    0    0 -0.91511378254E+01 -0.35133244643E+01  0.19904495918E+02  0.22258334598E+02  0.17770000000E+01 0. -1.
         15    1    1    2    0    0  0.53588108780E+01  0.26357770114E+01 -0.45751989032E+00  0.62474977335E+01  0.17770000000E+01 0. -1.
</event>
<event>
 6    1  0.3836009E-003  0.5001710E+03  0.7546771E-02  0.9399427E-01
        -11   -1    0    0    0    0  0.00000000000E+00  0.00000000000E+00  0.50000000000E+03  0.50000000000E+03  0.00000000000E+00 0. -1.
         11   -1    0    0    0    0 -0.00000000000E+00 -0.00000000000E+00 -0.50000000000E+03  0.50000000000E+03  0.00000000000E+00 0.  1.
        -11    1    1    2    0    0  0.11987106866E+02  0.47625442610E+01  0.49966259157E+03  0.49982904875E+03  0.00000000000E+00 0. -1.
         11    1    1    2    0    0 -0.72694674988E+00 -0.52125005754E+01 -0.15271367329E+03  0.15280433444E+03  0.00000000000E+00 0.  1.
        -15    1    1    2    0    0 -0.69152000033E+01 -0.11222038160E+01 -0.69743044786E+02  0.70116541255E+02  0.17770000000E+01 0. -1.
         15    1    1    2    0    0 -0.43449601131E+01  0.15721601304E+01 -0.27720587349E+03  0.27725007555E+03  0.17770000000E+01 0.  1.
</event>
<event>
 6    1  0.7783712E-003  0.5017480E+03  0.7546771E-02  0.9395907E-01
        -11   -1    0    0    0    0  0.00000000000E+00  0.00000000000E+00  0.50000000000E+03  0.50000000000E+03  0.00000000000E+00 0.  1.
         11   -1    0    0    0    0 -0.00000000000E+00 -0.00000000000E+00 -0.50000000000E+03  0.50000000000E+03  0.00000000000E+00 0.  1.
        -11    1    1    2    0    0 -0.81827404028E+01  0.15705743913E+01  0.49818228446E+03  0.49825195684E+03  0.00000000000E+00 0.  1.
         11    1    1    2    0    0  0.57326910196E+01 -0.73898139056E+01 -0.27787927771E+03  0.27803662722E+03  0.00000000000E+00 0.  1.
        -15    1    1    2    0    0  0.79097690006E+01  0.13125517605E+01 -0.86318043019E+01  0.11914403563E+02  0.17770000000E+01 0. -1.
         15    1    1    2    0    0 -0.54597196174E+01  0.45066877538E+01 -0.21167120245E+03  0.21179701237E+03  0.17770000000E+01 0.  1.
</event>
<event>
 6    1  0.3836009E-003  0.4349872E+03  0.7546771E-02  0.9558323E-01
        -11   -1    0    0    0    0  0.00000000000E+00  0.00000000000E+00  0.50000000000E+03  0.50000000000E+03  0.00000000000E+00 0. -1.
         11   -1    0    0    0    0 -0.00000000000E+00 -0.00000000000E+00 -0.50000000000E+03  0.50000000000E+03  0.00000000000E+00 0.  1.
        -11    1    1    2    0    0  0.52160300146E+00 -0.31964122186E+01  0.50659081569E+02  0.50762502560E+02  0.00000000000E+00 0. -1.
         11    1    1    2    0    0  0.26009061540E+01  0.72977263649E+01 -0.43909422439E+03  0.43916256604E+03  0.00000000000E+00 0.  1.
        -15    1    1    2    0    0 -0.15488880114E+02  0.64373747446E+02 -0.39097432132E+02  0.76913273859E+02  0.17770000000E+01 0. -1.
         15    1    1    2    0    0  0.12366370959E+02 -0.68475061592E+02  0.42753257495E+03  0.43316165754E+03  0.17770000000E+01 0.  1.
</event>
<event>
 6    1  0.3836009E-003  0.5053155E+03  0.7546771E-02  0.9387994E-01
        -11   -1    0    0    0    0  0.00000000000E+00  0.00000000000E+00  0.50000000000E+03  0.50000000000E+03  0.00000000000E+00 0.  1.
         11   -1    0    0    0    0 -0.00000000000E+00 -0.00000000000E+00 -0.50000000000E+03  0.50000000000E+03  0.00000000000E+00 0.  1.
        -11    1    1    2    0    0  0.16014270250E+01  0.28745792162E+02  0.49384595069E+03  0.49468445311E+03  0.00000000000E+00 0.  1.
         11    1    1    2    0    0 -0.77600082159E+01  0.71323790612E+00 -0.37397679543E+03  0.37405797673E+03  0.00000000000E+00 0.  1.
        -15    1    1    2    0    0  0.72596171213E+01 -0.29254040575E+00 -0.86770401707E+02  0.87092180832E+02  0.17770000000E+01 0.  1.
         15    1    1    2    0    0 -0.11010359304E+01 -0.29166489662E+02 -0.33098753552E+02  0.44165389334E+02  0.17770000000E+01 0. -1.
</event>
<event>
 6    1  0.3836009E-003  0.5028700E+03  0.7546771E-02  0.9393411E-01
        -11   -1    0    0    0    0  0.00000000000E+00  0.00000000000E+00  0.50000000000E+03  0.50000000000E+03  0.00000000000E+00 0.  1.
         11   -1    0    0    0    0 -0.00000000000E+00 -0.00000000000E+00 -0.50000000000E+03  0.50000000000E+03  0.00000000000E+00 0.  1.
        -11    1    1    2    0    0  0.10518719578E+02  0.26449651179E+01  0.32118414051E+03  0.32136722206E+03  0.00000000000E+00 0.  1.
         11    1    1    2    0    0  0.86507190213E+01  0.71783678098E+01 -0.49700286702E+03  0.49712997670E+03  0.00000000000E+00 0.  1.
        -15    1    1    2    0    0 -0.29072050443E+01 -0.19617362333E+01  0.14939108142E+03  0.14944280908E+03  0.17770000000E+01 0.  1.
         15    1    1    2    0    0 -0.16262233555E+02 -0.78615966944E+01  0.26427645096E+02  0.32059992157E+02  0.17770000000E+01 0. -1.
</event>
<event>
 6    1  0.3836009E-003  0.5004019E+03  0.7546771E-02  0.9398911E-01
        -11   -1    0    0    0    0  0.00000000000E+00  0.00000000000E+00  0.50000000000E+03  0.50000000000E+03  0.00000000000E+00 0. -1.
         11   -1    0    0    0    0 -0.00000000000E+00 -0.00000000000E+00 -0.50000000000E+03  0.50000000000E+03  0.00000000000E+00 0. -1.
        -11    1    1    2    0    0  0.55514529488E+01  0.42999530561E+01  0.34562153800E+03  0.34569286333E+03  0.00000000000E+00 0. -1.
         11    1    1    2    0    0  0.62511407296E+01  0.29679067176E+01 -0.49955019016E+03  0.49959811621E+03  0.00000000000E+00 0. -1.
        -15    1    1    2    0    0 -0.20241719873E+01 -0.31054061638E+01  0.65020861530E+02  0.65150679067E+02  0.17770000000E+01 0. -1.
         15    1    1    2    0    0 -0.97784216911E+01 -0.41624536098E+01  0.88907790626E+02  0.89558341398E+02  0.17770000000E+01 0.  1.
</event>
<event>
 6    1  0.3836009E-003  0.5237136E+03  0.7546771E-02  0.9348258E-01
        -11   -1    0    0    0    0  0.00000000000E+00  0.00000000000E+00  0.50000000000E+03  0.50000000000E+03  0.00000000000E+00 0.  1.
         11   -1    0    0    0    0 -0.00000000000E+00 -0.00000000000E+00 -0.50000000000E+03  0.50000000000E+03  0.00000000000E+00 0. -1.
        -11    1    1    2    0    0  0.12364460829E+02  0.73408465989E+01  0.45775480162E+03  0.45798059601E+03  0.00000000000E+00 0.  1.
         11    1    1    2    0    0 -0.59124614798E+01  0.18622013751E+02 -0.47588550476E+03  0.47628641618E+03  0.00000000000E+00 0. -1.
        -15    1    1    2    0    0  0.17477246483E+02 -0.79389646399E+01 -0.12400605993E+02  0.22921912271E+02  0.17770000000E+01 0.  1.
         15    1    1    2    0    0 -0.23929245832E+02 -0.18023895710E+02  0.30531309130E+02  0.42811075540E+02  0.17770000000E+01 0.  1.
</event>
<event>
 6    1  0.3836009E-003  0.5029140E+03  0.7546771E-02  0.9393313E-01
        -11   -1    0    0    0    0  0.00000000000E+00  0.00000000000E+00  0.50000000000E+03  0.50000000000E+03  0.00000000000E+00 0. -1.
         11   -1    0    0    0    0 -0.00000000000E+00 -0.00000000000E+00 -0.50000000000E+03  0.50000000000E+03  0.00000000000E+00 0.  1.
        -11    1    1    2    0    0 -0.11562875704E+01  0.18667335862E+02  0.49673399428E+03  0.49708597597E+03  0.00000000000E+00 0. -1.
         11    1    1    2    0    0 -0.60110833564E+01 -0.23861277489E+01 -0.30511349695E+03  0.30518203215E+03  0.00000000000E+00 0.  1.
        -15    1    1    2    0    0  0.88530772345E+01 -0.23134450747E+01 -0.17741525798E+03  0.17765995750E+03  0.17770000000E+01 0.  1.
         15    1    1    2    0    0 -0.16857063077E+01 -0.13967763038E+02 -0.14205239354E+02  0.20072034380E+02  0.17770000000E+01 0. -1.
</event>
<event>
 6    1  0.3836009E-003  0.5035745E+03  0.7546771E-02  0.9391847E-01
        -11   -1    0    0    0    0  0.00000000000E+00  0.00000000000E+00  0.50000000000E+03  0.50000000000E+03  0.00000000000E+00 0. -1.
         11   -1    0    0    0    0 -0.00000000000E+00 -0.00000000000E+00 -0.50000000000E+03  0.50000000000E+03  0.00000000000E+00 0. -1.
        -11    1    1    2    0    0  0.49403138838E+01 -0.52491087165E+01  0.49637316538E+03  0.49642550212E+03  0.00000000000E+00 0. -1.
         11    1    1    2    0    0  0.33640932822E+01  0.65167002368E+01 -0.48135008393E+03  0.48140594908E+03  0.00000000000E+00 0. -1.
        -15    1    1    2    0    0 -0.54283269075E+01 -0.45860592143E+01 -0.15755445793E+02  0.17374995634E+02  0.17770000000E+01 0.  1.
         15    1    1    2    0    0 -0.28760802584E+01  0.33184676939E+01  0.73236434667E+00  0.47935531732E+01  0.17770000000E+01 0. -1.
</event>
<event>
 6    1  0.3836009E-003  0.5214766E+03  0.7546771E-02  0.9352996E-01
        -11   -1    0    0    0    0  0.00000000000E+00  0.00000000000E+00  0.50000000000E+03  0.50000000000E+03  0.00000000000E+00 0. -1.
         11   -1    0    0    0    0 -0.00000000000E+00 -0.00000000000E+00 -0.50000000000E+03  0.50000000000E+03  0.00000000000E+00 0.  1.
        -11    1    1    2    0    0  0.58824650393E+01  0.47478714801E+01  0.47846371597E+03  0.47852343012E+03  0.00000000000E+00 0. -1.
         11    1    1    2    0    0 -0.84711392556E+01  0.88927817565E+01 -0.45043053573E+03  0.45059794639E+03  0.00000000000E+00 0.  1.
        -15    1    1    2    0    0 -0.46347157075E+01 -0.66214919912E+01  0.20065281312E+02  0.21704791845E+02  0.17770000000E+01 0. -1.
         15    1    1    2    0    0  0.72233899238E+01 -0.70191612454E+01 -0.48098461548E+02  0.49173831647E+02  0.17770000000E+01 0. -1.
</event>
<event>
 6    1  0.3836009E-003  0.5092588E+03  0.7546771E-02  0.9379328E-01
        -11   -1    0    0    0    0  0.00000000000E+00  0.00000000000E+00  0.50000000000E+03  0.50000000000E+03  0.00000000000E+00 0. -1.
         11   -1    0    0    0    0 -0.00000000000E+00 -0.00000000000E+00 -0.50000000000E+03  0.50000000000E+03  0.00000000000E+00 0.  1.
        -11    1    1    2    0    0 -0.63448997032E+01 -0.10133303070E+02  0.49059558326E+03  0.49074124333E+03  0.00000000000E+00 0. -1.
         11    1    1    2    0    0  0.21880279074E+02  0.12465357246E+02 -0.35910614645E+03  0.35998799447E+03  0.00000000000E+00 0.  1.
        -15    1    1    2    0    0 -0.22706093259E+02 -0.97979565567E+01 -0.13570636310E+03  0.13795267790E+03  0.17770000000E+01 0. -1.
         15    1    1    2    0    0  0.71707138879E+01  0.74659023811E+01  0.42169262904E+01  0.11318084306E+02  0.17770000000E+01 0.  1.
</event>
<event>
 6    1  0.3836009E-003  0.5552887E+03  0.7546771E-02  0.9283944E-01
        -11   -1    0    0    0    0  0.00000000000E+00  0.00000000000E+00  0.50000000000E+03  0.50000000000E+03  0.00000000000E+00 0. -1.
         11   -1    0    0    0    0 -0.00000000000E+00 -0.00000000000E+00 -0.50000000000E+03  0.50000000000E+03  0.00000000000E+00 0.  1.
        -11    1    1    2    0    0 -0.26753357637E+02  0.32084091878E+02  0.44274485132E+03  0.44471129339E+03  0.00000000000E+00 0. -1.
         11    1    1    2    0    0 -0.42549293991E+01  0.36569018595E+01 -0.31281054886E+03  0.31286085858E+03  0.00000000000E+00 0.  1.
        -15    1    1    2    0    0  0.71496687645E+02 -0.31917879464E+02  0.25018765930E+02  0.82216931051E+02  0.17770000000E+01 0. -1.
         15    1    1    2    0    0 -0.40488400610E+02 -0.38231142728E+01 -0.15495306839E+03  0.16021091698E+03  0.17770000000E+01 0.  1.
</event>
<event>
 6    1  0.3836009E-003  0.5015325E+03  0.7546771E-02  0.9396387E-01
        -11   -1    0    0    0    0  0.00000000000E+00  0.00000000000E+00  0.50000000000E+03  0.50000000000E+03  0.00000000000E+00 0. -1.
         11   -1    0    0    0    0 -0.00000000000E+00 -0.00000000000E+00 -0.50000000000E+03  0.50000000000E+03  0.00000000000E+00 0.  1.
        -11    1    1    2    0    0  0.73410079819E+01 -0.58992149512E+01  0.49837851135E+03  0.49846748311E+03  0.00000000000E+00 0. -1.
         11    1    1    2    0    0 -0.62837110657E+01  0.26121354985E+01 -0.29895807010E+03  0.29903550952E+03  0.00000000000E+00 0.  1.
        -15    1    1    2    0    0  0.33247806952E+00 -0.57588335340E+01 -0.18632057949E+03  0.18641832199E+03  0.17770000000E+01 0.  1.
         15    1    1    2    0    0 -0.13897749857E+01  0.90459129867E+01 -0.13099861765E+02  0.16078685379E+02  0.17770000000E+01 0. -1.
</event>
<event>
 6    1  0.3836009E-003  0.5091571E+03  0.7546771E-02  0.9379550E-01
        -11   -1    0    0    0    0  0.00000000000E+00  0.00000000000E+00  0.50000000000E+03  0.50000000000E+03  0.00000000000E+00 0.  1.
         11   -1    0    0    0    0 -0.00000000000E+00 -0.00000000000E+00 -0.50000000000E+03  0.50000000000E+03  0.00000000000E+00 0. -1.
        -11    1    1    2    0    0 -0.33895356897E+01 -0.92915955566E+01  0.49074328700E+03  0.49084294478E+03  0.00000000000E+00 0.  1.
         11    1    1    2    0    0  0.28001270757E+02  0.21731423076E+01 -0.44944000955E+03  0.45031668401E+03  0.00000000000E+00 0. -1.
        -15    1    1    2    0    0  0.11400021884E+01  0.11241988520E+02 -0.19607597267E+01  0.11605353014E+02  0.17770000000E+01 0. -1.
         15    1    1    2    0    0 -0.25751737255E+02 -0.41235352708E+01 -0.39342517719E+02  0.47235018199E+02  0.17770000000E+01 0.  1.
</event>
<event>
 6    1  0.3836009E-003  0.5002374E+03  0.7546771E-02  0.9399279E-01
        -11   -1    0    0    0    0  0.00000000000E+00  0.00000000000E+00  0.50000000000E+03  0.50000000000E+03  0.00000000000E+00 0. -1.
         11   -1    0    0    0    0 -0.00000000000E+00 -0.00000000000E+00 -0.50000000000E+03  0.50000000000E+03  0.00000000000E+00 0.  1.
        -11    1    1    2    0    0  0.73807958873E+01  0.18669535304E+01  0.49970464580E+03  0.49976263835E+03  0.00000000000E+00 0. -1.
         11    1    1    2    0    0  0.28248255016E+01  0.17308898401E+01 -0.11326442212E+03  0.11331286307E+03  0.00000000000E+00 0.  1.
        -15    1    1    2    0    0 -0.13197535316E+02  0.10335276289E+01 -0.24222933082E+03  0.24259729915E+03  0.17770000000E+01 0.  1.
         15    1    1    2    0    0  0.29919139273E+01 -0.46313709994E+01 -0.14421089286E+03  0.14432719943E+03  0.17770000000E+01 0. -1.
</event>
<event>
 6    1  0.3836009E-003  0.5079080E+03  0.7546771E-02  0.9382287E-01
        -11   -1    0    0    0    0  0.00000000000E+00  0.00000000000E+00  0.50000000000E+03  0.50000000000E+03  0.00000000000E+00 0.  1.
         11   -1    0    0    0    0 -0.00000000000E+00 -0.00000000000E+00 -0.50000000000E+03  0.50000000000E+03  0.00000000000E+00 0.  1.
        -11    1    1    2    0    0  0.14971089844E+02 -0.99423944703E+01  0.47773245714E+03  0.47807037698E+03  0.00000000000E+00 0.  1.
         11    1    1    2    0    0 -0.86362816984E+01 -0.41917330744E+01 -0.49199833841E+03  0.49209198428E+03  0.00000000000E+00 0.  1.
        -15    1    1    2    0    0  0.33960025855E+00  0.11778578187E+02 -0.19315168399E+01  0.12072229236E+02  0.17770000000E+01 0.  1.
         15    1    1    2    0    0 -0.66744084039E+01  0.23555493581E+01  0.16197398113E+02  0.17765409507E+02  0.17770000000E+01 0. -1.
</event>
<event>
 6    1  0.3836009E-003  0.5037657E+03  0.7546771E-02  0.9391423E-01
        -11   -1    0    0    0    0  0.00000000000E+00  0.00000000000E+00  0.50000000000E+03  0.50000000000E+03  0.00000000000E+00 0. -1.
         11   -1    0    0    0    0 -0.00000000000E+00 -0.00000000000E+00 -0.50000000000E+03  0.50000000000E+03  0.00000000000E+00 0. -1.
        -11    1    1    2    0    0 -0.13733124931E+02 -0.74995860829E+01  0.49598751699E+03  0.49623427887E+03  0.00000000000E+00 0. -1.
         11    1    1    2    0    0  0.52078459298E+01  0.55204116599E+01 -0.42420395529E+03  0.42427183773E+03  0.00000000000E+00 0. -1.
        -15    1    1    2    0    0 -0.10878623883E+02  0.45168213918E+01 -0.13587249235E+02  0.18069787045E+02  0.17770000000E+01 0.  1.
         15    1    1    2    0    0  0.19403902884E+02 -0.25376469688E+01 -0.58196312465E+02  0.61424096353E+02  0.17770000000E+01 0. -1.
</event>
<event>
 6    1  0.3836009E-003  0.5019929E+03  0.7546771E-02  0.9395361E-01
        -11   -1    0    0    0    0  0.00000000000E+00  0.00000000000E+00  0.50000000000E+03  0.50000000000E+03  0.00000000000E+00 0. -1.
         11   -1    0    0    0    0 -0.00000000000E+00 -0.00000000000E+00 -0.50000000000E+03  0.50000000000E+03  0.00000000000E+00 0. -1.
        -11    1    1    2    0    0 -0.67191097675E+01 -0.21985704263E+01  0.49795690364E+03  0.49800708632E+03  0.00000000000E+00 0. -1.
         11    1    1    2    0    0  0.97960753827E+01  0.17907197581E+02 -0.20722326596E+03  0.20822610973E+03  0.00000000000E+00 0. -1.
        -15    1    1    2    0    0 -0.78040810092E+01 -0.23022812301E+00 -0.24653091429E+03  0.24666091323E+03  0.17770000000E+01 0. -1.
         15    1    1    2    0    0  0.47271153941E+01 -0.15478399032E+02 -0.44202723380E+02  0.47105890712E+02  0.17770000000E+01 0.  1.
</event>
<event>
 6    1  0.3836009E-003  0.5362948E+03  0.7546771E-02  0.9322070E-01
        -11   -1    0    0    0    0  0.00000000000E+00  0.00000000000E+00  0.50000000000E+03  0.50000000000E+03  0.00000000000E+00 0. -1.
         11   -1    0    0    0    0 -0.00000000000E+00 -0.00000000000E+00 -0.50000000000E+03  0.50000000000E+03  0.00000000000E+00 0. -1.
        -11    1    1    2    0    0 -0.48072534940E+01 -0.39773339944E+01  0.41060864696E+03  0.41065604808E+03  0.00000000000E+00 0. -1.
         11    1    1    2    0    0 -0.22887305854E+02  0.42376484069E+01 -0.46312062702E+03  0.46370518824E+03  0.00000000000E+00 0. -1.
        -15    1    1    2    0    0  0.20849046079E+02 -0.22975131191E+01 -0.33363083672E+02  0.39448883001E+02  0.17770000000E+01 0. -1.
         15    1    1    2    0    0  0.68455132682E+01  0.20371987067E+01  0.85875063732E+02  0.86189880673E+02  0.17770000000E+01 0. -1.
</event>
<event>
 6    1  0.3836009E-003  0.4855701E+03  0.7546771E-02  0.9432690E-01
        -11   -1    0    0    0    0  0.00000000000E+00  0.00000000000E+00  0.50000000000E+03  0.50000000000E+03  0.00000000000E+00 0. -1.
         11   -1    0    0    0    0 -0.00000000000E+00 -0.00000000000E+00 -0.50000000000E+03  0.50000000000E+03  0.00000000000E+00 0. -1.
        -11    1    1    2    0    0 -0.68265794656E+01  0.52165512102E+01  0.48655506425E+03  0.48663091264E+03  0.00000000000E+00 0. -1.
         11    1    1    2    0    0 -0.10302832739E+01 -0.12898452442E+02 -0.48440096531E+03  0.48457375781E+03  0.00000000000E+00 0. -1.
        -15    1    1    2    0    0  0.20735613687E+01 -0.52327065076E+01  0.89497489912E+01  0.10720849320E+02  0.17770000000E+01 0.  1.
         15    1    1    2    0    0  0.57833013708E+01  0.12914607740E+02 -0.11103847924E+02  0.18074480229E+02  0.17770000000E+01 0. -1.
</event>
<event>
 6    1  0.3836009E-003  0.4761485E+03  0.7546771E-02  0.9454820E-01
        -11   -1    0    0    0    0  0.00000000000E+00  0.00000000000E+00  0.50000000000E+03  0.50000000000E+03  0.00000000000E+00 0. -1.
         11   -1    0    0    0    0 -0.00000000000E+00 -0.00000000000E+00 -0.50000000000E+03  0.50000000000E+03  0.00000000000E+00 0.  1.
        -11    1    1    2    0    0  0.19679484152E+02  0.12999990128E+02  0.47290863809E+03  0.47349642218E+03  0.00000000000E+00 0. -1.
         11    1    1    2    0    0 -0.36775971128E+02 -0.21948978944E+01 -0.47760802474E+03  0.47902684155E+03  0.00000000000E+00 0.  1.
        -15    1    1    2    0    0  0.70311366712E+01  0.67420510716E+01 -0.15784302805E+02  0.18633144651E+02  0.17770000000E+01 0.  1.
         15    1    1    2    0    0  0.10065350305E+02 -0.17547143305E+02  0.20483689456E+02  0.28843591622E+02  0.17770000000E+01 0. -1.
</event>
<event>
 6    1  0.3836009E-003  0.5025428E+03  0.7546771E-02  0.9394138E-01
        -11   -1    0    0    0    0  0.00000000000E+00  0.00000000000E+00  0.50000000000E+03  0.50000000000E+03  0.00000000000E+00 0.  1.
         11   -1    0    0    0    0 -0.00000000000E+00 -0.00000000000E+00 -0.50000000000E+03  0.50000000000E+03  0.00000000000E+00 0. -1.
        -11    1    1    2    0    0  0.14601054208E+02 -0.55271185059E+01  0.34503055879E+03  0.34538359302E+03  0.00000000000E+00 0.  1.
         11    1    1    2    0    0  0.63629977517E+01  0.27577752150E+01 -0.49740883202E+03  0.49745717327E+03  0.00000000000E+00 0. -1.
        -15    1    1    2    0    0 -0.12679486344E+02 -0.11992609614E+01  0.14408117456E+03  0.14465389795E+03  0.17770000000E+01 0.  1.
         15    1    1    2    0    0 -0.82845656158E+01  0.39686042524E+01  0.82970986674E+01  0.12505335759E+02  0.17770000000E+01 0. -1.
</event>
<event>
 6    1  0.3836009E-003  0.5004339E+03  0.7546771E-02  0.9398839E-01
        -11   -1    0    0    0    0  0.00000000000E+00  0.00000000000E+00  0.50000000000E+03  0.50000000000E+03  0.00000000000E+00 0.  1.
         11   -1    0    0    0    0 -0.00000000000E+00 -0.00000000000E+00 -0.50000000000E+03  0.50000000000E+03  0.00000000000E+00 0. -1.
        -11    1    1    2    0    0 -0.37519129594E+01  0.34705443622E+01  0.26562025157E+03  0.26566941784E+03  0.00000000000E+00 0.  1.
         11    1    1    2    0    0  0.92763712715E+01  0.19761673117E+01 -0.49947610381E+03  0.49956614635E+03  0.00000000000E+00 0. -1.
        -15    1    1    2    0    0 -0.11772797205E+02  0.36998457988E+00  0.13693804749E+03  0.13745516440E+03  0.17770000000E+01 0.  1.
         15    1    1    2    0    0  0.62483388925E+01 -0.58166962538E+01  0.96917804756E+02  0.97309271408E+02  0.17770000000E+01 0. -1.
</event>
<event>
 6    1  0.3836009E-003  0.5095898E+03  0.7546771E-02  0.9378604E-01
        -11   -1    0    0    0    0  0.00000000000E+00  0.00000000000E+00  0.50000000000E+03  0.50000000000E+03  0.00000000000E+00 0. -1.
         11   -1    0    0    0    0 -0.00000000000E+00 -0.00000000000E+00 -0.50000000000E+03  0.50000000000E+03  0.00000000000E+00 0. -1.
        -11    1    1    2    0    0 -0.43658362238E+01  0.17614829406E+02  0.49007426692E+03  0.49041016490E+03  0.00000000000E+00 0. -1.
         11    1    1    2    0    0  0.64471435370E+01  0.10321890632E+02 -0.46950184501E+03  0.46965954643E+03  0.00000000000E+00 0. -1.
        -15    1    1    2    0    0  0.35251491001E+01 -0.27619993994E+02 -0.14396062284E+02  0.31395781288E+02  0.17770000000E+01 0. -1.
         15    1    1    2    0    0 -0.56064564133E+01 -0.31672604502E+00 -0.61763596302E+01  0.85345073779E+01  0.17770000000E+01 0.  1.
</event>
<event>
 6    1  0.3836009E-003  0.5069773E+03  0.7546771E-02  0.9384331E-01
        -11   -1    0    0    0    0  0.00000000000E+00  0.00000000000E+00  0.50000000000E+03  0.50000000000E+03  0.00000000000E+00 0. -1.
         11   -1    0    0    0    0 -0.00000000000E+00 -0.00000000000E+00 -0.50000000000E+03  0.50000000000E+03  0.00000000000E+00 0.  1.
        -11    1    1    2    0    0  0.10671863388E+02  0.44787403803E-02  0.42688553744E+03  0.42701891148E+03  0.00000000000E+00 0. -1.
         11    1    1    2    0    0  0.10167966560E+02  0.10535846874E+01 -0.49291673066E+03  0.49302271849E+03  0.00000000000E+00 0.  1.
        -15    1    1    2    0    0 -0.63012073988E+01 -0.71326695529E+01  0.63093453324E+02  0.63831980786E+02  0.17770000000E+01 0.  1.
         15    1    1    2    0    0 -0.14538622550E+02  0.60746061251E+01  0.29377398919E+01  0.16126389239E+02  0.17770000000E+01 0. -1.
</event>
<event>
 6    1  0.3836009E-003  0.5032252E+03  0.7546771E-02  0.9392622E-01
        -11   -1    0    0    0    0  0.00000000000E+00  0.00000000000E+00  0.50000000000E+03  0.50000000000E+03  0.00000000000E+00 0.  1.
         11   -1    0    0    0    0 -0.00000000000E+00 -0.00000000000E+00 -0.50000000000E+03  0.50000000000E+03  0.00000000000E+00 0. -1.
        -11    1    1    2    0    0  0.93270514093E+01 -0.62957275881E+01  0.44159126277E+03  0.44173461878E+03  0.00000000000E+00 0.  1.
         11    1    1    2    0    0 -0.16630328923E+01  0.10785996631E+02 -0.49665487927E+03  0.49677477040E+03  0.00000000000E+00 0. -1.
        -15    1    1    2    0    0 -0.15075030385E+02  0.39509937782E+01  0.36390419699E+02  0.39626850339E+02  0.17770000000E+01 0.  1.
         15    1    1    2    0    0  0.74110118681E+01 -0.84412628206E+01  0.18673196803E+02  0.21863760490E+02  0.17770000000E+01 0. -1.
</event>
<event>
 6    1  0.3836009E-003  0.5027630E+03  0.7546771E-02  0.9393648E-01
        -11   -1    0    0    0    0  0.00000000000E+00  0.00000000000E+00  0.50000000000E+03  0.50000000000E+03  0.00000000000E+00 0.  1.
         11   -1    0    0    0    0 -0.00000000000E+00 -0.00000000000E+00 -0.50000000000E+03  0.50000000000E+03  0.00000000000E+00 0. -1.
        -11    1    1    2    0    0 -0.10047063020E+01  0.80552866223E+01  0.18770710386E+03  0.18788255352E+03  0.00000000000E+00 0.  1.
         11    1    1    2    0    0 -0.14930113038E+02 -0.15025098405E+02 -0.49678563529E+03  0.49723699509E+03  0.00000000000E+00 0. -1.
        -15    1    1    2    0    0  0.45501742730E+01  0.98155895655E+01  0.29930440885E+03  0.29950515316E+03  0.17770000000E+01 0.  1.
         15    1    1    2    0    0  0.11384645067E+02 -0.28457777832E+01  0.97741225814E+01  0.15375298232E+02  0.17770000000E+01 0. -1.
</event>
<event>
 6    1  0.3836009E-003  0.5355077E+03  0.7546771E-02  0.9323686E-01
        -11   -1    0    0    0    0  0.00000000000E+00  0.00000000000E+00  0.50000000000E+03  0.50000000000E+03  0.00000000000E+00 0. -1.
         11   -1    0    0    0    0 -0.00000000000E+00 -0.00000000000E+00 -0.50000000000E+03  0.50000000000E+03  0.00000000000E+00 0.  1.
        -11    1    1    2    0    0  0.83110932819E+02 -0.16313824359E+03  0.42688594383E+03  0.46449232794E+03  0.00000000000E+00 0. -1.
         11    1    1    2    0    0 -0.89847853471E+01 -0.12842669944E+02 -0.14374542709E+03  0.14459740090E+03  0.00000000000E+00 0.  1.
        -15    1    1    2    0    0 -0.14255392796E+02  0.25375295157E+02  0.27783977552E+02  0.40276903626E+02  0.17770000000E+01 0. -1.
         15    1    1    2    0    0 -0.59870754675E+02  0.15060561837E+03 -0.31092449429E+03  0.35063336754E+03  0.17770000000E+01 0.  1.
</event>
<event>
 6    1  0.3836009E-003  0.5109100E+03  0.7546771E-02  0.9375723E-01
        -11   -1    0    0    0    0  0.00000000000E+00  0.00000000000E+00  0.50000000000E+03  0.50000000000E+03  0.00000000000E+00 0.  1.
         11   -1    0    0    0    0 -0.00000000000E+00 -0.00000000000E+00 -0.50000000000E+03  0.50000000000E+03  0.00000000000E+00 0. -1.
        -11    1    1    2    0    0  0.59185618457E+01 -0.12216256182E+02  0.41238010692E+03  0.41260346445E+03  0.00000000000E+00 0.  1.
         11    1    1    2    0    0 -0.31187594352E+02 -0.65123157137E+00 -0.48809415953E+03  0.48908996996E+03  0.00000000000E+00 0. -1.
        -15    1    1    2    0    0  0.37831701315E+02  0.53401097780E+01  0.74198222815E+02  0.83476274442E+02  0.17770000000E+01 0. -1.
         15    1    1    2    0    0 -0.12562668809E+02  0.75273779750E+01  0.15158297963E+01  0.14830291155E+02  0.17770000000E+01 0.  1.
</event>
<event>
 6    1  0.3836009E-003  0.5477681E+03  0.7546771E-02  0.9298843E-01
        -11   -1    0    0    0    0  0.00000000000E+00  0.00000000000E+00  0.50000000000E+03  0.50000000000E+03  0.00000000000E+00 0. -1.
         11   -1    0    0    0    0 -0.00000000000E+00 -0.00000000000E+00 -0.50000000000E+03  0.50000000000E+03  0.00000000000E+00 0.  1.
        -11    1    1    2    0    0 -0.68238365715E+01 -0.13417075249E+02  0.45198126574E+03  0.45223185120E+03  0.00000000000E+00 0. -1.
         11    1    1    2    0    0  0.23791040227E+01  0.94679986893E+01 -0.41791406219E+03  0.41802806905E+03  0.00000000000E+00 0.  1.
        -15    1    1    2    0    0  0.94735438930E+01 -0.14800619947E+02  0.44980628983E+02  0.48324125418E+02  0.17770000000E+01 0. -1.
         15    1    1    2    0    0 -0.50288113443E+01  0.18749696507E+02 -0.79047832537E+02  0.81415954336E+02  0.17770000000E+01 0.  1.
</event>
<event>
 6    1  0.3836009E-003  0.5147352E+03  0.7546771E-02  0.9367429E-01
        -11   -1    0    0    0    0  0.00000000000E+00  0.00000000000E+00  0.50000000000E+03  0.50000000000E+03  0.00000000000E+00 0.  1.
         11   -1    0    0    0    0 -0.00000000000E+00 -0.00000000000E+00 -0.50000000000E+03  0.50000000000E+03  0.00000000000E+00 0.  1.
        -11    1    1    2    0    0  0.10668270630E+02  0.16953130422E+01  0.48514459326E+03  0.48526483744E+03  0.00000000000E+00 0.  1.
         11    1    1    2    0    0  0.53712502291E+01  0.11428619150E+02 -0.42369596639E+03  0.42388410633E+03  0.00000000000E+00 0.  1.
        -15    1    1    2    0    0 -0.32151617001E+01 -0.14912099141E+01  0.13416118724E+02  0.13989672705E+02  0.17770000000E+01 0. -1.
         15    1    1    2    0    0 -0.12824359159E+02 -0.11632722278E+02 -0.74864745592E+02  0.76861383523E+02  0.17770000000E+01 0.  1.
</event>
<event>
 6    1  0.3836009E-003  0.5022842E+03  0.7546771E-02  0.9394713E-01
        -11   -1    0    0    0    0  0.00000000000E+00  0.00000000000E+00  0.50000000000E+03  0.50000000000E+03  0.00000000000E+00 0.  1.
         11   -1    0    0    0    0 -0.00000000000E+00 -0.00000000000E+00 -0.50000000000E+03  0.50000000000E+03  0.00000000000E+00 0. -1.
        -11    1    1    2    0    0 -0.31116711771E+01  0.40348077718E+01  0.25245460123E+03  0.25250601548E+03  0.00000000000E+00 0.  1.
         11    1    1    2    0    0 -0.21397451182E+02 -0.20102956708E+01 -0.49725155550E+03  0.49771578401E+03  0.00000000000E+00 0. -1.
        -15    1    1    2    0    0  0.36609976392E+01  0.42221882196E+01  0.19853578775E+03  0.19862237166E+03  0.17770000000E+01 0. -1.
         15    1    1    2    0    0  0.20848124720E+02 -0.62467003206E+01  0.46261166513E+02  0.51155828850E+02  0.17770000000E+01 0.  1.
</event>
<event>
 6    1  0.3836009E-003  0.5001285E+03  0.7546771E-02  0.9399522E-01
        -11   -1    0    0    0    0  0.00000000000E+00  0.00000000000E+00  0.50000000000E+03  0.50000000000E+03  0.00000000000E+00 0.  1.
         11   -1    0    0    0    0 -0.00000000000E+00 -0.00000000000E+00 -0.50000000000E+03  0.50000000000E+03  0.00000000000E+00 0.  1.
        -11    1    1    2    0    0 -0.39435270344E+01  0.81764392173E+00  0.24134392390E+03  0.24137752495E+03  0.00000000000E+00 0.  1.
         11    1    1    2    0    0  0.76349689601E+01 -0.60716524919E+01 -0.49977627637E+03  0.49987146761E+03  0.00000000000E+00 0.  1.
        -15    1    1    2    0    0 -0.23262135419E+01  0.31191971151E+01  0.30590853843E+02  0.30888488599E+02  0.17770000000E+01 0. -1.
         15    1    1    2    0    0 -0.13652283838E+01  0.21348114551E+01  0.22784149862E+03  0.22786251884E+03  0.17770000000E+01 0.  1.
</event>
<event>
 6    1  0.3836009E-003  0.5034511E+03  0.7546771E-02  0.9392121E-01
        -11   -1    0    0    0    0  0.00000000000E+00  0.00000000000E+00  0.50000000000E+03  0.50000000000E+03  0.00000000000E+00 0. -1.
         11   -1    0    0    0    0 -0.00000000000E+00 -0.00000000000E+00 -0.50000000000E+03  0.50000000000E+03  0.00000000000E+00 0.  1.
        -11    1    1    2    0    0 -0.77494213263E+01  0.10092350485E+00  0.49648844398E+03  0.49654892883E+03  0.00000000000E+00 0. -1.
         11    1    1    2    0    0  0.30662026216E+00 -0.92860151434E+01 -0.43083911098E+03  0.43093928070E+03  0.00000000000E+00 0.  1.
        -15    1    1    2    0    0  0.13520752566E+02 -0.21369938532E+01 -0.51490629523E+02  0.53308724899E+02  0.17770000000E+01 0. -1.
         15    1    1    2    0    0 -0.60779515015E+01  0.11322085492E+02 -0.14158703475E+02  0.19203065573E+02  0.17770000000E+01 0.  1.
</event>
<event>
 6    1  0.3836009E-003  0.5176320E+03  0.7546771E-02  0.9361199E-01
        -11   -1    0    0    0    0  0.00000000000E+00  0.00000000000E+00  0.50000000000E+03  0.50000000000E+03  0.00000000000E+00 0. -1.
         11   -1    0    0    0    0 -0.00000000000E+00 -0.00000000000E+00 -0.50000000000E+03  0.50000000000E+03  0.00000000000E+00 0.  1.
        -11    1    1    2    0    0  0.53546565316E+01  0.54990688647E+01  0.48230696373E+03  0.48236803311E+03  0.00000000000E+00 0. -1.
         11    1    1    2    0    0  0.24287551459E+01  0.55977528221E+01 -0.22987634829E+03  0.22995732037E+03  0.00000000000E+00 0.  1.
        -15    1    1    2    0    0 -0.13694415681E+02 -0.89435881239E+01  0.13732998479E+02  0.21430766799E+02  0.17770000000E+01 0. -1.
         15    1    1    2    0    0  0.59110040038E+01 -0.21532335629E+01 -0.26616361392E+03  0.26624387972E+03  0.17770000000E+01 0.  1.
</event>
<event>
 6    1  0.3836009E-003  0.4855508E+03  0.7546771E-02  0.9432734E-01
        -11   -1    0    0    0    0  0.00000000000E+00  0.00000000000E+00  0.50000000000E+03  0.50000000000E+03  0.00000000000E+00 0. -1.
         11   -1    0    0    0    0 -0.00000000000E+00 -0.00000000000E+00 -0.50000000000E+03  0.50000000000E+03  0.00000000000E+00 0. -1.
        -11    1    1    2    0    0  0.16442505391E+02  0.13671874114E+02  0.48611713959E+03  0.48658724760E+03  0.00000000000E+00 0. -1.
         11    1    1    2    0    0  0.77920747222E+01 -0.30662860900E+01 -0.48480321540E+03  0.48487552650E+03  0.00000000000E+00 0. -1.
        -15    1    1    2    0    0 -0.11085455995E+02 -0.72579051521E+01 -0.51482611422E+01  0.14325740595E+02  0.17770000000E+01 0. -1.
         15    1    1    2    0    0 -0.13149124118E+02 -0.33476828720E+01  0.38343369541E+01  0.14211485304E+02  0.17770000000E+01 0.  1.
</event>
<event>
 6    1  0.4742550E-003  0.4748534E+03  0.7546771E-02  0.9457905E-01
        -11   -1    0    0    0    0  0.00000000000E+00  0.00000000000E+00  0.50000000000E+03  0.50000000000E+03  0.00000000000E+00 0. -1.
         11   -1    0    0    0    0 -0.00000000000E+00 -0.00000000000E+00 -0.50000000000E+03  0.50000000000E+03  0.00000000000E+00 0. -1.
        -11    1    1    2    0    0 -0.83001970481E+01  0.29664342293E+01  0.47912068694E+03  0.47920175882E+03  0.00000000000E+00 0. -1.
         11    1    1    2    0    0  0.30043753253E+02  0.93268479094E+01 -0.46982689809E+03  0.47087889247E+03  0.00000000000E+00 0. -1.
        -15    1    1    2    0    0 -0.26527563461E+02 -0.11688384047E+02 -0.21855125421E+02  0.36347409550E+02  0.17770000000E+01 0. -1.
         15    1    1    2    0    0  0.47840072565E+01 -0.60489809214E+00  0.12561336577E+02  0.13571939166E+02  0.17770000000E+01 0.  1.
</event>
<event>
 6    1  0.3836009E-003  0.5131311E+03  0.7546771E-02  0.9370898E-01
        -11   -1    0    0    0    0  0.00000000000E+00  0.00000000000E+00  0.50000000000E+03  0.50000000000E+03  0.00000000000E+00 0. -1.
         11   -1    0    0    0    0 -0.00000000000E+00 -0.00000000000E+00 -0.50000000000E+03  0.50000000000E+03  0.00000000000E+00 0. -1.
        -11    1    1    2    0    0  0.51580374298E+01 -0.32622949983E+01  0.27707731267E+03  0.27714452026E+03  0.00000000000E+00 0. -1.
         11    1    1    2    0    0  0.75975152355E+01  0.32115818193E+01 -0.48679905807E+03  0.48686893455E+03  0.00000000000E+00 0. -1.
        -15    1    1    2    0    0 -0.82264241681E+01 -0.24693351325E+02  0.13805345138E+01  0.26124686770E+02  0.17770000000E+01 0.  1.
         15    1    1    2    0    0 -0.45291284972E+01  0.24744064504E+02  0.20834121089E+03  0.20986185841E+03  0.17770000000E+01 0. -1.
</event>
<event>
 6    1  0.3836009E-003  0.5031183E+03  0.7546771E-02  0.9392859E-01
        -11   -1    0    0    0    0  0.00000000000E+00  0.00000000000E+00  0.50000000000E+03  0.50000000000E+03  0.00000000000E+00 0.  1.
         11   -1    0    0    0    0 -0.00000000000E+00 -0.00000000000E+00 -0.50000000000E+03  0.50000000000E+03  0.00000000000E+00 0.  1.
        -11    1    1    2    0    0 -0.37077796181E+01  0.23301162900E+01  0.18592286532E+03  0.18597443082E+03  0.00000000000E+00 0.  1.
         11    1    1    2    0    0 -0.73888587347E+01 -0.73949630090E+01 -0.49677171477E+03  0.49688169347E+03  0.00000000000E+00 0.  1.
        -15    1    1    2    0    0  0.27793513907E+01 -0.39319155416E+01 -0.84728857885E+00  0.52019593343E+01  0.17770000000E+01 0. -1.
         15    1    1    2    0    0  0.83172869620E+01  0.89967622607E+01  0.31169613803E+03  0.31194191637E+03  0.17770000000E+01 0.  1.
</event>
<event>
 6    1  0.3836009E-003  0.5585983E+03  0.7546771E-02  0.9277466E-01
        -11   -1    0    0    0    0  0.00000000000E+00  0.00000000000E+00  0.50000000000E+03  0.50000000000E+03  0.00000000000E+00 0.  1.
         11   -1    0    0    0    0 -0.00000000000E+00 -0.00000000000E+00 -0.50000000000E+03  0.50000000000E+03  0.00000000000E+00 0.  1.
        -11    1    1    2    0    0 -0.74007153237E+01 -0.12192718200E+02  0.43241861693E+03  0.43265377986E+03  0.00000000000E+00 0.  1.
         11    1    1    2    0    0  0.12328969865E+01  0.17038972970E+02 -0.44107093585E+03  0.44140165053E+03  0.00000000000E+00 0.  1.
        -15    1    1    2    0    0 -0.36887630602E+02  0.46000765442E+02  0.46327575874E+01  0.59172526433E+02  0.17770000000E+01 0. -1.
         15    1    1    2    0    0  0.43055448939E+02 -0.50847020211E+02  0.40195613404E+01  0.66772043177E+02  0.17770000000E+01 0.  1.
</event>
<event>
 6    1  0.3836009E-003  0.5052798E+03  0.7546771E-02  0.9388073E-01
        -11   -1    0    0    0    0  0.00000000000E+00  0.00000000000E+00  0.50000000000E+03  0.50000000000E+03  0.00000000000E+00 0. -1.
         11   -1    0    0    0    0 -0.00000000000E+00 -0.00000000000E+00 -0.50000000000E+03  0.50000000000E+03  0.00000000000E+00 0.  1.
        -11    1    1    2    0    0  0.87505478606E+01 -0.24009084149E+01  0.46518124994E+03  0.46526974085E+03  0.00000000000E+00 0. -1.
         11    1    1    2    0    0  0.33871313174E-01 -0.94838875920E+01 -0.49462928825E+03  0.49472020180E+03  0.00000000000E+00 0.  1.
        -15    1    1    2    0    0  0.56486838651E+01 -0.13846742706E+01  0.13017797457E+02  0.14368219509E+02  0.17770000000E+01 0. -1.
         15    1    1    2    0    0 -0.14433103039E+02  0.13269470278E+02  0.16430240850E+02  0.25641837847E+02  0.17770000000E+01 0.  1.
</event>
<event>
 6    1  0.3836009E-003  0.5028045E+03  0.7546771E-02  0.9393556E-01
        -11   -1    0    0    0    0  0.00000000000E+00  0.00000000000E+00  0.50000000000E+03  0.50000000000E+03  0.00000000000E+00 0.  1.
         11   -1    0    0    0    0 -0.00000000000E+00 -0.00000000000E+00 -0.50000000000E+03  0.50000000000E+03  0.00000000000E+00 0. -1.
        -11    1    1    2    0    0 -0.12854286387E+01 -0.23550349126E+01  0.11371310713E+03  0.11374475483E+03  0.00000000000E+00 0.  1.
         11    1    1    2    0    0  0.16233334174E+02 -0.47986693151E+01 -0.49690729710E+03  0.49719554531E+03  0.00000000000E+00 0. -1.
        -15    1    1    2    0    0  0.17962981825E+02 -0.17188936753E+02  0.10848534112E+03  0.11131197254E+03  0.17770000000E+01 0. -1.
         15    1    1    2    0    0 -0.32910887360E+02  0.24342640981E+02  0.27470884884E+03  0.27774772733E+03  0.17770000000E+01 0.  1.
</event>
<event>
 6    1  0.3836009E-003  0.5032323E+03  0.7546771E-02  0.9392606E-01
        -11   -1    0    0    0    0  0.00000000000E+00  0.00000000000E+00  0.50000000000E+03  0.50000000000E+03  0.00000000000E+00 0.  1.
         11   -1    0    0    0    0 -0.00000000000E+00 -0.00000000000E+00 -0.50000000000E+03  0.50000000000E+03  0.00000000000E+00 0. -1.
        -11    1    1    2    0    0 -0.97766774552E+01  0.82022370064E+01  0.27940152195E+03  0.27969281467E+03  0.00000000000E+00 0.  1.
         11    1    1    2    0    0 -0.13780571147E+02  0.68745838826E+00 -0.49657605943E+03  0.49676771186E+03  0.00000000000E+00 0. -1.
        -15    1    1    2    0    0  0.14200431093E+02 -0.17795334683E+02  0.41387732717E+02  0.47269740090E+02  0.17770000000E+01 0.  1.
         15    1    1    2    0    0  0.93568175092E+01  0.89056392882E+01  0.17578680477E+03  0.17626973338E+03  0.17770000000E+01 0. -1.
</event>
<event>
 6    1  0.3836009E-003  0.5048045E+03  0.7546771E-02  0.9389123E-01
        -11   -1    0    0    0    0  0.00000000000E+00  0.00000000000E+00  0.50000000000E+03  0.50000000000E+03  0.00000000000E+00 0. -1.
         11   -1    0    0    0    0 -0.00000000000E+00 -0.00000000000E+00 -0.50000000000E+03  0.50000000000E+03  0.00000000000E+00 0. -1.
        -11    1    1    2    0    0  0.12253337455E+02  0.39250757483E+02  0.49348535805E+03  0.49519548146E+03  0.00000000000E+00 0. -1.
         11    1    1    2    0    0  0.25796076299E+01  0.40091444706E+01 -0.22867101377E+03  0.22872070337E+03  0.00000000000E+00 0. -1.
        -15    1    1    2    0    0  0.24159168403E+02 -0.25348569186E+02 -0.11339680177E+03  0.11869375619E+03  0.17770000000E+01 0. -1.
         15    1    1    2    0    0 -0.38992113488E+02 -0.17911332767E+02 -0.15141754251E+03  0.15739005898E+03  0.17770000000E+01 0.  1.
</event>
<event>
 6    1  0.3836009E-003  0.5003639E+03  0.7546771E-02  0.9398996E-01
        -11   -1    0    0    0    0  0.00000000000E+00  0.00000000000E+00  0.50000000000E+03  0.50000000000E+03  0.00000000000E+00 0. -1.
         11   -1    0    0    0    0 -0.00000000000E+00 -0.00000000000E+00 -0.50000000000E+03  0.50000000000E+03  0.00000000000E+00 0.  1.
        -11    1    1    2    0    0  0.38006690437E+01 -0.69818927503E+01  0.49957286605E+03  0.49963610799E+03  0.00000000000E+00 0. -1.
         11    1    1    2    0    0  0.28331243603E+01  0.39924804690E+01 -0.24858038476E+03  0.24862858681E+03  0.00000000000E+00 0.  1.
        -15    1    1    2    0    0 -0.48248189471E+01  0.77785819489E+01 -0.65153879645E+02  0.65817710206E+02  0.17770000000E+01 0.  1.
         15    1    1    2    0    0 -0.18089744568E+01 -0.47891696675E+01 -0.18583860165E+03  0.18591759499E+03  0.17770000000E+01 0.  1.
</event>
<event>
 6    1  0.3836009E-003  0.5023875E+03  0.7546771E-02  0.9394483E-01
        -11   -1    0    0    0    0  0.00000000000E+00  0.00000000000E+00  0.50000000000E+03  0.50000000000E+03  0.00000000000E+00 0.  1.
         11   -1    0    0    0    0 -0.00000000000E+00 -0.00000000000E+00 -0.50000000000E+03  0.50000000000E+03  0.00000000000E+00 0. -1.
        -11    1    1    2    0    0  0.11437625931E+02 -0.13739147317E+02  0.49729132218E+03  0.49761254262E+03  0.00000000000E+00 0.  1.
         11    1    1    2    0    0 -0.73210528269E+01 -0.99514023710E+01 -0.40644580846E+03  0.40663352473E+03  0.00000000000E+00 0. -1.
        -15    1    1    2    0    0 -0.37444952148E+01  0.16363532809E+02 -0.29844026925E+02  0.34287171398E+02  0.17770000000E+01 0.  1.
         15    1    1    2    0    0 -0.37207788953E+00  0.73270168784E+01 -0.61001486797E+02  0.61466761252E+02  0.17770000000E+01 0. -1.
</event>
<event>
 6    1  0.3836009E-003  0.5091788E+03  0.7546771E-02  0.9379502E-01
        -11   -1    0    0    0    0  0.00000000000E+00  0.00000000000E+00  0.50000000000E+03  0.50000000000E+03  0.00000000000E+00 0.  1.
         11   -1    0    0    0    0 -0.00000000000E+00 -0.00000000000E+00 -0.50000000000E+03  0.50000000000E+03  0.00000000000E+00 0. -1.
        -11    1    1    2    0    0 -0.46756081860E+01 -0.11743712628E+02  0.70908778353E+02  0.72026598876E+02  0.00000000000E+00 0.  1.
         11    1    1    2    0    0  0.31211682435E+01 -0.60161316912E+01 -0.49077437181E+03  0.49082116861E+03  0.00000000000E+00 0. -1.
        -15    1    1    2    0    0 -0.55944613701E+00  0.53969102808E+01 -0.75962949349E+01  0.95026862674E+01  0.17770000000E+01 0. -1.
         15    1    1    2    0    0  0.21138860795E+01  0.12362934038E+02  0.42746188839E+03  0.42764954625E+03  0.17770000000E+01 0.  1.
</event>
<event>
 6    1  0.3836009E-003  0.5094726E+03  0.7546771E-02  0.9378860E-01
        -11   -1    0    0    0    0  0.00000000000E+00  0.00000000000E+00  0.50000000000E+03  0.50000000000E+03  0.00000000000E+00 0.  1.
         11   -1    0    0    0    0 -0.00000000000E+00 -0.00000000000E+00 -0.50000000000E+03  0.50000000000E+03  0.00000000000E+00 0. -1.
        -11    1    1    2    0    0 -0.61176670004E+01 -0.12465297707E+02  0.45760912134E+03  0.45781974338E+03  0.00000000000E+00 0.  1.
         11    1    1    2    0    0  0.15352201263E+02  0.12798360878E+02 -0.49012004697E+03  0.49052741878E+03  0.00000000000E+00 0. -1.
        -15    1    1    2    0    0  0.12423776445E+01  0.17245328036E+02  0.23483054015E+02  0.29215687501E+02  0.17770000000E+01 0. -1.
         15    1    1    2    0    0 -0.10476911907E+02 -0.17578391207E+02  0.90278716207E+01  0.22437150343E+02  0.17770000000E+01 0.  1.
</event>
<event>
 6    1  0.3836009E-003  0.5061914E+03  0.7546771E-02  0.9386062E-01
        -11   -1    0    0    0    0  0.00000000000E+00  0.00000000000E+00  0.50000000000E+03  0.50000000000E+03  0.00000000000E+00 0.  1.
         11   -1    0    0    0    0 -0.00000000000E+00 -0.00000000000E+00 -0.50000000000E+03  0.50000000000E+03  0.00000000000E+00 0. -1.
        -11    1    1    2    0    0 -0.14866599433E+02  0.29389190377E+02  0.49270906270E+03  0.49380862766E+03  0.00000000000E+00 0.  1.
         11    1    1    2    0    0 -0.32713200313E+01 -0.10587411218E+02 -0.42440731565E+03  0.42455195723E+03  0.00000000000E+00 0. -1.
        -15    1    1    2    0    0  0.77362113157E+00 -0.24057911640E+02 -0.25467264571E+02  0.35087332413E+02  0.17770000000E+01 0.  1.
         15    1    1    2    0    0  0.17364298332E+02  0.52561324810E+01 -0.42834482478E+02  0.46552082696E+02  0.17770000000E+01 0. -1.
</event>
<event>
 6    1  0.3836009E-003  0.5626918E+03  0.7546771E-02  0.9269519E-01
        -11   -1    0    0    0    0  0.00000000000E+00  0.00000000000E+00  0.50000000000E+03  0.50000000000E+03  0.00000000000E+00 0. -1.
         11   -1    0    0    0    0 -0.00000000000E+00 -0.00000000000E+00 -0.50000000000E+03  0.50000000000E+03  0.00000000000E+00 0.  1.
        -11    1    1    2    0    0  0.35273385496E+01 -0.48123507235E+01  0.30635227147E+03  0.30641037038E+03  0.00000000000E+00 0. -1.
         11    1    1    2    0    0 -0.26204120016E+02  0.16449717877E+02 -0.43621238939E+03  0.43730824116E+03  0.00000000000E+00 0.  1.
        -15    1    1    2    0    0  0.32770225721E+02 -0.22588427613E+02 -0.56601702573E+02  0.69217304332E+02  0.17770000000E+01 0. -1.
         15    1    1    2    0    0 -0.10093444255E+02  0.10951060459E+02  0.18646182049E+03  0.18706408413E+03  0.17770000000E+01 0. -1.
</event>
<event>
 6    1  0.3836009E-003  0.5013558E+03  0.7546771E-02  0.9396781E-01
        -11   -1    0    0    0    0  0.00000000000E+00  0.00000000000E+00  0.50000000000E+03  0.50000000000E+03  0.00000000000E+00 0. -1.
         11   -1    0    0    0    0 -0.00000000000E+00 -0.00000000000E+00 -0.50000000000E+03  0.50000000000E+03  0.00000000000E+00 0.  1.
        -11    1    1    2    0    0  0.41226471607E-01 -0.85114674671E+01  0.37898909066E+03  0.37908465759E+03  0.00000000000E+00 0. -1.
         11    1    1    2    0    0 -0.12270790896E+01 -0.10008609099E+02 -0.49854226256E+03  0.49864422741E+03  0.00000000000E+00 0.  1.
        -15    1    1    2    0    0 -0.41807959856E+01  0.12564535269E+02  0.37516617415E+02  0.39824626964E+02  0.17770000000E+01 0.  1.
         15    1    1    2    0    0  0.53666486037E+01  0.59555412973E+01  0.82036554479E+02  0.82446488034E+02  0.17770000000E+01 0. -1.
</event>
<event>
 6    1  0.3836009E-003  0.5009030E+03  0.7546771E-02  0.9397792E-01
        -11   -1    0    0    0    0  0.00000000000E+00  0.00000000000E+00  0.50000000000E+03  0.50000000000E+03  0.00000000000E+00 0.  1.
         11   -1    0    0    0    0 -0.00000000000E+00 -0.00000000000E+00 -0.50000000000E+03  0.50000000000E+03  0.00000000000E+00 0.  1.
        -11    1    1    2    0    0  0.18134585347E+01 -0.71436140589E+01  0.49904261419E+03  0.49909703529E+03  0.00000000000E+00 0.  1.
         11    1    1    2    0    0 -0.30432107616E+01  0.93183841305E+01 -0.27210401801E+03  0.27228053553E+03  0.00000000000E+00 0.  1.
        -15    1    1    2    0    0 -0.51374465377E+01  0.50643298373E+01 -0.18258752876E+02  0.19712447317E+02  0.17770000000E+01 0. -1.
         15    1    1    2    0    0  0.63671987646E+01 -0.72390999089E+01 -0.20867984331E+03  0.20890998186E+03  0.17770000000E+01 0.  1.
</event>
<event>
 6    1  0.3836009E-003  0.5007322E+03  0.7546771E-02  0.9398173E-01
        -11   -1    0    0    0    0  0.00000000000E+00  0.00000000000E+00  0.50000000000E+03  0.50000000000E+03  0.00000000000E+00 0. -1.
         11   -1    0    0    0    0 -0.00000000000E+00 -0.00000000000E+00 -0.50000000000E+03  0.50000000000E+03  0.00000000000E+00 0.  1.
        -11    1    1    2    0    0 -0.10454846422E+02  0.13048833124E+02  0.49898776429E+03  0.49926782870E+03  0.00000000000E+00 0. -1.
         11    1    1    2    0    0  0.26143259260E+01 -0.92814487217E+01 -0.22008465038E+03  0.22029578599E+03  0.00000000000E+00 0.  1.
        -15    1    1    2    0    0  0.60195390735E+01  0.11824567345E+02 -0.11647614216E+03  0.11724293012E+03  0.17770000000E+01 0. -1.
         15    1    1    2    0    0  0.18209814224E+01 -0.15591951747E+02 -0.16242697176E+03  0.16319345519E+03  0.17770000000E+01 0.  1.
</event>
<event>
 6    1  0.3836009E-003  0.5087024E+03  0.7546771E-02  0.9380545E-01
        -11   -1    0    0    0    0  0.00000000000E+00  0.00000000000E+00  0.50000000000E+03  0.50000000000E+03  0.00000000000E+00 0. -1.
         11   -1    0    0    0    0 -0.00000000000E+00 -0.00000000000E+00 -0.50000000000E+03  0.50000000000E+03  0.00000000000E+00 0.  1.
        -11    1    1    2    0    0  0.58574580570E+01  0.35451915334E+01  0.46528690089E+03  0.46533727374E+03  0.00000000000E+00 0. -1.
         11    1    1    2    0    0 -0.67649729323E+01  0.34721828664E+01 -0.49123878932E+03  0.49129763794E+03  0.00000000000E+00 0.  1.
        -15    1    1    2    0    0  0.55564793455E+01  0.94920696319E+01  0.23422371853E+02  0.25937214207E+02  0.17770000000E+01 0.  1.
         15    1    1    2    0    0 -0.46489644701E+01 -0.16509444032E+02  0.25295165816E+01  0.17427874111E+02  0.17770000000E+01 0. -1.
</event>
<event>
 6    1  0.3836009E-003  0.5156608E+03  0.7546771E-02  0.9365433E-01
        -11   -1    0    0    0    0  0.00000000000E+00  0.00000000000E+00  0.50000000000E+03  0.50000000000E+03  0.00000000000E+00 0. -1.
         11   -1    0    0    0    0 -0.00000000000E+00 -0.00000000000E+00 -0.50000000000E+03  0.50000000000E+03  0.00000000000E+00 0. -1.
        -11    1    1    2    0    0  0.69426198635E+00 -0.90218813330E+01  0.47214102751E+03  0.47222772705E+03  0.00000000000E+00 0. -1.
         11    1    1    2    0    0  0.44088741803E+01  0.60406282970E+01 -0.48428141597E+03  0.48433915515E+03  0.00000000000E+00 0. -1.
        -15    1    1    2    0    0  0.29415243298E+01 -0.17432225950E+01  0.26191524052E+02  0.26473478267E+02  0.17770000000E+01 0.  1.
         15    1    1    2    0    0 -0.80446604964E+01  0.47244756310E+01 -0.14051135591E+02  0.16959639527E+02  0.17770000000E+01 0. -1.
</event>
<event>
 6    1  0.3836009E-003  0.5091614E+03  0.7546771E-02  0.9379541E-01
        -11   -1    0    0    0    0  0.00000000000E+00  0.00000000000E+00  0.50000000000E+03  0.50000000000E+03  0.00000000000E+00 0. -1.
         11   -1    0    0    0    0 -0.00000000000E+00 -0.00000000000E+00 -0.50000000000E+03  0.50000000000E+03  0.00000000000E+00 0.  1.
        -11    1    1    2    0    0 -0.11781144194E+02 -0.12308697738E+02  0.49054279308E+03  0.49083859999E+03  0.00000000000E+00 0. -1.
         11    1    1    2    0    0  0.21650758330E+01 -0.13330008264E+02 -0.41714881743E+03  0.41736735924E+03  0.00000000000E+00 0.  1.
        -15    1    1    2    0    0  0.14040724627E+02 -0.54021981159E+01 -0.51053417347E+02  0.53253496076E+02  0.17770000000E+01 0.  1.
         15    1    1    2    0    0 -0.44246562666E+01  0.31040904118E+02 -0.22340558297E+02  0.38540544697E+02  0.17770000000E+01 0. -1.
</event>
<event>
 6    1  0.3836009E-003  0.5010367E+03  0.7546771E-02  0.9397493E-01
        -11   -1    0    0    0    0  0.00000000000E+00  0.00000000000E+00  0.50000000000E+03  0.50000000000E+03  0.00000000000E+00 0. -1.
         11   -1    0    0    0    0 -0.00000000000E+00 -0.00000000000E+00 -0.50000000000E+03  0.50000000000E+03  0.00000000000E+00 0.  1.
        -11    1    1    2    0    0 -0.54556816188E+01 -0.40170875101E+01  0.49891734025E+03  0.49896333919E+03  0.00000000000E+00 0. -1.
         11    1    1    2    0    0  0.42465165310E+01 -0.15134721696E+01 -0.31656944167E+03  0.31660153964E+03  0.00000000000E+00 0.  1.
        -15    1    1    2    0    0 -0.50898580620E+01  0.29229579063E+01 -0.17078434102E+03  0.17089440952E+03  0.17770000000E+01 0.  1.
         15    1    1    2    0    0  0.62990231498E+01  0.26076017734E+01 -0.11563557561E+02  0.13540711655E+02  0.17770000000E+01 0. -1.
</event>
<event>
 6    1  0.3836009E-003  0.5279472E+03  0.7546771E-02  0.9339359E-01
        -11   -1    0    0    0    0  0.00000000000E+00  0.00000000000E+00  0.50000000000E+03  0.50000000000E+03  0.00000000000E+00 0.  1.
         11   -1    0    0    0    0 -0.00000000000E+00 -0.00000000000E+00 -0.50000000000E+03  0.50000000000E+03  0.00000000000E+00 0. -1.
        -11    1    1    2    0    0  0.27012938885E+01 -0.73019989878E+01  0.47198859551E+03  0.47205280475E+03  0.00000000000E+00 0.  1.
         11    1    1    2    0    0 -0.89625234100E+01 -0.93212961474E+01 -0.44573257054E+03  0.44592010252E+03  0.00000000000E+00 0. -1.
        -15    1    1    2    0    0 -0.88093370444E+01  0.29514162853E+02 -0.45079955868E+02  0.54626462252E+02  0.17770000000E+01 0.  1.
         15    1    1    2    0    0  0.15070566566E+02 -0.12890867718E+02  0.18823930903E+02  0.27400630481E+02  0.17770000000E+01 0. -1.
</event>
<event>
 6    1  0.3836009E-003  0.5036641E+03  0.7546771E-02  0.9391648E-01
        -11   -1    0    0    0    0  0.00000000000E+00  0.00000000000E+00  0.50000000000E+03  0.50000000000E+03  0.00000000000E+00 0.  1.
         11   -1    0    0    0    0 -0.00000000000E+00 -0.00000000000E+00 -0.50000000000E+03  0.50000000000E+03  0.00000000000E+00 0.  1.
        -11    1    1    2    0    0 -0.70888096771E+01 -0.82131735335E+01  0.49621735786E+03  0.49633594841E+03  0.00000000000E+00 0.  1.
         11    1    1    2    0    0  0.97334363677E+01  0.11886833881E+02 -0.30794721215E+03  0.30833021596E+03  0.00000000000E+00 0.  1.
        -15    1    1    2    0    0 -0.15872769839E+02 -0.76481225792E+01 -0.20935246940E+02  0.27420446656E+02  0.17770000000E+01 0.  1.
         15    1    1    2    0    0  0.13228143148E+02  0.39744622318E+01 -0.16733489877E+03  0.16791338897E+03  0.17770000000E+01 0. -1.
</event>
<event>
 6    1  0.3836009E-003  0.5072969E+03  0.7546771E-02  0.9383629E-01
        -11   -1    0    0    0    0  0.00000000000E+00  0.00000000000E+00  0.50000000000E+03  0.50000000000E+03  0.00000000000E+00 0. -1.
         11   -1    0    0    0    0 -0.00000000000E+00 -0.00000000000E+00 -0.50000000000E+03  0.50000000000E+03  0.00000000000E+00 0.  1.
        -11    1    1    2    0    0  0.11347655202E+02 -0.45017743729E+01  0.45563789609E+03  0.45580141247E+03  0.00000000000E+00 0. -1.
         11    1    1    2    0    0  0.79494467535E+01 -0.18722599319E+01 -0.49263539729E+03  0.49270308881E+03  0.00000000000E+00 0.  1.
        -15    1    1    2    0    0 -0.69200963079E+01 -0.25055810428E+01 -0.33890794390E+01  0.82951345810E+01  0.17770000000E+01 0. -1.
         15    1    1    2    0    0 -0.12377005648E+02  0.88796153476E+01  0.40386580634E+02  0.43200364140E+02  0.17770000000E+01 0. -1.
</event>
<event>
 6    1  0.3836009E-003  0.5015018E+03  0.7546771E-02  0.9396456E-01
        -11   -1    0    0    0    0  0.00000000000E+00  0.00000000000E+00  0.50000000000E+03  0.50000000000E+03  0.00000000000E+00 0. -1.
         11   -1    0    0    0    0 -0.00000000000E+00 -0.00000000000E+00 -0.50000000000E+03  0.50000000000E+03  0.00000000000E+00 0. -1.
        -11    1    1    2    0    0 -0.49532755331E+01 -0.33315988661E+01  0.40887780861E+03  0.40892138225E+03  0.00000000000E+00 0. -1.
         11    1    1    2    0    0 -0.72080513524E+01 -0.27078053439E+00 -0.49844597818E+03  0.49849816699E+03  0.00000000000E+00 0. -1.
        -15    1    1    2    0    0  0.12128104289E+02  0.23516680981E+01  0.24685529442E+02  0.27661423487E+02  0.17770000000E+01 0. -1.
         15    1    1    2    0    0  0.33222596285E-01  0.12507113024E+01  0.64882640134E+02  0.64919027274E+02  0.17770000000E+01 0.  1.
</event>
<event>
 6    1  0.3836009E-003  0.6162353E+03  0.7546771E-02  0.9171735E-01
        -11   -1    0    0    0    0  0.00000000000E+00  0.00000000000E+00  0.50000000000E+03  0.50000000000E+03  0.00000000000E+00 0. -1.
         11   -1    0    0    0    0 -0.00000000000E+00 -0.00000000000E+00 -0.50000000000E+03  0.50000000000E+03  0.00000000000E+00 0. -1.
        -11    1    1    2    0    0 -0.38863956964E+02  0.38028371539E+01  0.38177276589E+03  0.38376465899E+03  0.00000000000E+00 0. -1.
         11    1    1    2    0    0  0.22243289216E+01 -0.33440122302E+01 -0.26874497686E+03  0.26877498515E+03  0.00000000000E+00 0. -1.
        -15    1    1    2    0    0  0.41965441528E+02 -0.36260520682E+01  0.11337806016E+03  0.12096275787E+03  0.17770000000E+01 0. -1.
         15    1    1    2    0    0 -0.53258134851E+01  0.31672271445E+01 -0.22640584919E+03  0.22649759798E+03  0.17770000000E+01 0.  1.
</event>
<event>
 6    1  0.5061008E-003  0.5337553E+03  0.7546771E-02  0.9327294E-01
        -11   -1    0    0    0    0  0.00000000000E+00  0.00000000000E+00  0.50000000000E+03  0.50000000000E+03  0.00000000000E+00 0.  1.
         11   -1    0    0    0    0 -0.00000000000E+00 -0.00000000000E+00 -0.50000000000E+03  0.50000000000E+03  0.00000000000E+00 0. -1.
        -11    1    1    2    0    0  0.25150800660E+02  0.10661292067E+02  0.41719712673E+03  0.41809050273E+03  0.00000000000E+00 0.  1.
         11    1    1    2    0    0 -0.12559588429E+02 -0.24886938069E+02 -0.46541061225E+03  0.46624472216E+03  0.00000000000E+00 0. -1.
        -15    1    1    2    0    0 -0.17193961786E+02 -0.19222615958E+01  0.78816586701E+02  0.80712697141E+02  0.17770000000E+01 0.  1.
         15    1    1    2    0    0  0.46027495554E+01  0.16147907598E+02 -0.30603101184E+02  0.34952077969E+02  0.17770000000E+01 0. -1.
</event>
<event>
 6    1  0.3836009E-003  0.5042490E+03  0.7546771E-02  0.9390352E-01
        -11   -1    0    0    0    0  0.00000000000E+00  0.00000000000E+00  0.50000000000E+03  0.50000000000E+03  0.00000000000E+00 0.  1.
         11   -1    0    0    0    0 -0.00000000000E+00 -0.00000000000E+00 -0.50000000000E+03  0.50000000000E+03  0.00000000000E+00 0. -1.
        -11    1    1    2    0    0 -0.97561442713E+01 -0.29822783851E+01  0.49564598352E+03  0.49575096300E+03  0.00000000000E+00 0.  1.
         11    1    1    2    0    0 -0.22784477534E+02 -0.10915001252E+02 -0.21698592680E+03  0.21845173860E+03  0.00000000000E+00 0. -1.
        -15    1    1    2    0    0  0.38453497017E+00 -0.17381320295E+02 -0.10408780331E+03  0.10554471417E+03  0.17770000000E+01 0.  1.
         15    1    1    2    0    0  0.32156086836E+02  0.31278599932E+02 -0.17457225341E+03  0.18025258424E+03  0.17770000000E+01 0. -1.
</event>
<event>
 6    1  0.3836009E-003  0.5068782E+03  0.7546771E-02  0.9384549E-01
        -11   -1    0    0    0    0  0.00000000000E+00  0.00000000000E+00  0.50000000000E+03  0.50000000000E+03  0.00000000000E+00 0. -1.
         11   -1    0    0    0    0 -0.00000000000E+00 -0.00000000000E+00 -0.50000000000E+03  0.50000000000E+03  0.00000000000E+00 0. -1.
        -11    1    1    2    0    0  0.13593239289E+02 -0.88420392303E+00  0.49293365188E+03  0.49312183396E+03  0.00000000000E+00 0. -1.
         11    1    1    2    0    0 -0.62248977106E+01 -0.82772401980E+00 -0.32784936274E+03  0.32790949838E+03  0.00000000000E+00 0. -1.
        -15    1    1    2    0    0  0.12897590203E+02  0.30883636697E+02 -0.77248490430E+02  0.84205901524E+02  0.17770000000E+01 0.  1.
         15    1    1    2    0    0 -0.20265931782E+02 -0.29171708754E+02 -0.87835798712E+02  0.94762766143E+02  0.17770000000E+01 0. -1.
</event>
<event>
 6    1  0.3836009E-003  0.5010354E+03  0.7546771E-02  0.9397496E-01
        -11   -1    0    0    0    0  0.00000000000E+00  0.00000000000E+00  0.50000000000E+03  0.50000000000E+03  0.00000000000E+00 0.  1.
         11   -1    0    0    0    0 -0.00000000000E+00 -0.00000000000E+00 -0.50000000000E+03  0.50000000000E+03  0.00000000000E+00 0. -1.
        -11    1    1    2    0    0  0.12434929726E+02 -0.33491562186E+01  0.49879842228E+03  0.49896463842E+03  0.00000000000E+00 0.  1.
         11    1    1    2    0    0 -0.23998907003E+01 -0.98699766497E+01 -0.20554672853E+03  0.20579755471E+03  0.00000000000E+00 0. -1.
        -15    1    1    2    0    0 -0.85419221448E+01 -0.73984199961E+01 -0.61161830278E+02  0.62222409663E+02  0.17770000000E+01 0.  1.
         15    1    1    2    0    0 -0.14931168805E+01  0.20617552864E+02 -0.23208986347E+03  0.23301539721E+03  0.17770000000E+01 0. -1.
</event>
<event>
 6    1  0.3836009E-003  0.5018336E+03  0.7546771E-02  0.9395716E-01
        -11   -1    0    0    0    0  0.00000000000E+00  0.00000000000E+00  0.50000000000E+03  0.50000000000E+03  0.00000000000E+00 0.  1.
         11   -1    0    0    0    0 -0.00000000000E+00 -0.00000000000E+00 -0.50000000000E+03  0.50000000000E+03  0.00000000000E+00 0.  1.
        -11    1    1    2    0    0 -0.31645591644E+01  0.68529346902E+01  0.49810916257E+03  0.49816635272E+03  0.00000000000E+00 0.  1.
         11    1    1    2    0    0  0.84089065933E+01 -0.31839221124E+01 -0.22654237074E+03  0.22672073750E+03  0.00000000000E+00 0.  1.
        -15    1    1    2    0    0 -0.83066201887E+01  0.17917837837E+01 -0.26704978162E+03  0.26719085692E+03  0.17770000000E+01 0.  1.
         15    1    1    2    0    0  0.30622727598E+01 -0.54607963615E+01 -0.45170102079E+01  0.79220528637E+01  0.17770000000E+01 0.  1.
</event>
<event>
 6    1  0.3836009E-003  0.5062625E+03  0.7546771E-02  0.9385905E-01
        -11   -1    0    0    0    0  0.00000000000E+00  0.00000000000E+00  0.50000000000E+03  0.50000000000E+03  0.00000000000E+00 0. -1.
         11   -1    0    0    0    0 -0.00000000000E+00 -0.00000000000E+00 -0.50000000000E+03  0.50000000000E+03  0.00000000000E+00 0. -1.
        -11    1    1    2    0    0 -0.34995942607E+01  0.18271270859E+02  0.49338692370E+03  0.49373752437E+03  0.00000000000E+00 0. -1.
         11    1    1    2    0    0 -0.12178158153E+01  0.53620015046E+01 -0.27670507789E+03  0.27675970491E+03  0.00000000000E+00 0. -1.
        -15    1    1    2    0    0 -0.45771844619E+01 -0.22353641010E+01 -0.20158675008E+03  0.20165892741E+03  0.17770000000E+01 0. -1.
         15    1    1    2    0    0  0.92945945379E+01 -0.21397908263E+02 -0.15095095733E+02  0.27843843302E+02  0.17770000000E+01 0.  1.
</event>
<event>
 6    1  0.3836009E-003  0.5023937E+03  0.7546771E-02  0.9394470E-01
        -11   -1    0    0    0    0  0.00000000000E+00  0.00000000000E+00  0.50000000000E+03  0.50000000000E+03  0.00000000000E+00 0.  1.
         11   -1    0    0    0    0 -0.00000000000E+00 -0.00000000000E+00 -0.50000000000E+03  0.50000000000E+03  0.00000000000E+00 0.  1.
        -11    1    1    2    0    0  0.92514468660E+01 -0.50828411766E+01  0.47437815409E+03  0.47449558230E+03  0.00000000000E+00 0.  1.
         11    1    1    2    0    0 -0.67648102813E+01 -0.67315939871E+01 -0.49751482331E+03  0.49760634685E+03  0.00000000000E+00 0.  1.
        -15    1    1    2    0    0  0.34635735172E+01  0.38403478291E+01  0.75812803771E+01  0.93476282615E+01  0.17770000000E+01 0.  1.
         15    1    1    2    0    0 -0.59502101019E+01  0.79740873346E+01  0.15555388841E+02  0.18550442585E+02  0.17770000000E+01 0. -1.
</event>
<event>
 6    1  0.3836009E-003  0.5042973E+03  0.7546771E-02  0.9390245E-01
        -11   -1    0    0    0    0  0.00000000000E+00  0.00000000000E+00  0.50000000000E+03  0.50000000000E+03  0.00000000000E+00 0. -1.
         11   -1    0    0    0    0 -0.00000000000E+00 -0.00000000000E+00 -0.50000000000E+03  0.50000000000E+03  0.00000000000E+00 0.  1.
        -11    1    1    2    0    0  0.11354540617E+02  0.10197080322E+02  0.43624732631E+03  0.43651418734E+03  0.00000000000E+00 0. -1.
         11    1    1    2    0    0 -0.37315710992E+01  0.78439587162E+01 -0.49562661154E+03  0.49570272379E+03  0.00000000000E+00 0.  1.
        -15    1    1    2    0    0 -0.63343180707E+01  0.42758480565E+01  0.28881971471E+02  0.29928789936E+02  0.17770000000E+01 0.  1.
         15    1    1    2    0    0 -0.12886514474E+01 -0.22316887095E+02  0.30497313755E+02  0.37854298929E+02  0.17770000000E+01 0. -1.
</event>
<event>
 6    1  0.3836009E-003  0.3760153E+03  0.7546771E-02  0.9730049E-01
        -11   -1    0    0    0    0  0.00000000000E+00  0.00000000000E+00  0.50000000000E+03  0.50000000000E+03  0.00000000000E+00 0. -1.
         11   -1    0    0    0    0 -0.00000000000E+00 -0.00000000000E+00 -0.50000000000E+03  0.50000000000E+03  0.00000000000E+00 0. -1.
        -11    1    1    2    0    0  0.66857123312E+01 -0.89687449374E+01  0.39660409799E+03  0.39676182740E+03  0.00000000000E+00 0. -1.
         11    1    1    2    0    0  0.25176844172E+02  0.52472728005E+02 -0.35366449659E+03  0.35842131188E+03  0.00000000000E+00 0. -1.
        -15    1    1    2    0    0 -0.54444603946E+02  0.86052825270E+02 -0.49281171185E+02  0.11314192502E+03  0.17770000000E+01 0.  1.
         15    1    1    2    0    0  0.22582047443E+02 -0.12955680834E+03  0.63415697773E+01  0.13167493569E+03  0.17770000000E+01 0. -1.
</event>
<event>
 6    1  0.3836009E-003  0.5043258E+03  0.7546771E-02  0.9390182E-01
        -11   -1    0    0    0    0  0.00000000000E+00  0.00000000000E+00  0.50000000000E+03  0.50000000000E+03  0.00000000000E+00 0. -1.
         11   -1    0    0    0    0 -0.00000000000E+00 -0.00000000000E+00 -0.50000000000E+03  0.50000000000E+03  0.00000000000E+00 0.  1.
        -11    1    1    2    0    0  0.11859069926E+02  0.21161288183E+01  0.49552775884E+03  0.49567416245E+03  0.00000000000E+00 0. -1.
         11    1    1    2    0    0  0.30883335408E+01 -0.72395458925E+01 -0.47202262209E+03  0.47208823814E+03  0.00000000000E+00 0.  1.
        -15    1    1    2    0    0 -0.30386697963E+01  0.41967146172E+01 -0.18273639858E+02  0.19076938181E+02  0.17770000000E+01 0. -1.
         15    1    1    2    0    0 -0.11908733671E+02  0.92670245703E+00 -0.52314968981E+01  0.13160661225E+02  0.17770000000E+01 0.  1.
</event>
<event>
 6    1  0.3836009E-003  0.5001518E+03  0.7546771E-02  0.9399470E-01
        -11   -1    0    0    0    0  0.00000000000E+00  0.00000000000E+00  0.50000000000E+03  0.50000000000E+03  0.00000000000E+00 0.  1.
         11   -1    0    0    0    0 -0.00000000000E+00 -0.00000000000E+00 -0.50000000000E+03  0.50000000000E+03  0.00000000000E+00 0.  1.
        -11    1    1    2    0    0  0.88149856379E+00  0.67904826679E+00  0.49584575877E+02  0.49597059502E+02  0.00000000000E+00 0.  1.
         11    1    1    2    0    0 -0.87655638486E+01  0.94542554063E+01 -0.49968191422E+03  0.49984821041E+03  0.00000000000E+00 0.  1.
        -15    1    1    2    0    0  0.47919231187E+01 -0.65551758108E+00  0.32729845330E+03  0.32733901004E+03  0.17770000000E+01 0.  1.
         15    1    1    2    0    0  0.30921421661E+01 -0.94777860920E+01  0.12279888504E+03  0.12321572005E+03  0.17770000000E+01 0. -1.
</event>
<event>
 6    1  0.3836009E-003  0.3964908E+03  0.7546771E-02  0.9666827E-01
        -11   -1    0    0    0    0  0.00000000000E+00  0.00000000000E+00  0.50000000000E+03  0.50000000000E+03  0.00000000000E+00 0.  1.
         11   -1    0    0    0    0 -0.00000000000E+00 -0.00000000000E+00 -0.50000000000E+03  0.50000000000E+03  0.00000000000E+00 0.  1.
        -11    1    1    2    0    0  0.91929852812E+01 -0.35047589580E+01  0.43950198418E+03  0.43961208856E+03  0.00000000000E+00 0.  1.
         11    1    1    2    0    0  0.53105408012E+01  0.66464029606E+00 -0.12305125596E+03  0.12316758983E+03  0.00000000000E+00 0.  1.
        -15    1    1    2    0    0 -0.55626835510E+02 -0.36100747175E+02  0.39219719084E+02  0.77064601923E+02  0.17770000000E+01 0. -1.
         15    1    1    2    0    0  0.41123309427E+02  0.38940865837E+02 -0.35567044730E+03  0.36015571968E+03  0.17770000000E+01 0.  1.
</event>
<event>
 6    1  0.3836009E-003  0.5094163E+03  0.7546771E-02  0.9378983E-01
        -11   -1    0    0    0    0  0.00000000000E+00  0.00000000000E+00  0.50000000000E+03  0.50000000000E+03  0.00000000000E+00 0.  1.
         11   -1    0    0    0    0 -0.00000000000E+00 -0.00000000000E+00 -0.50000000000E+03  0.50000000000E+03  0.00000000000E+00 0. -1.
        -11    1    1    2    0    0 -0.79775240247E+01  0.20279855037E+01  0.49051461752E+03  0.49058367647E+03  0.00000000000E+00 0.  1.
         11    1    1    2    0    0  0.12566457006E+02 -0.12022101547E+02 -0.48227117977E+03  0.48258464294E+03  0.00000000000E+00 0. -1.
        -15    1    1    2    0    0 -0.13527228387E+01  0.10507727050E+02 -0.15391777550E+02  0.18769835694E+02  0.17770000000E+01 0.  1.
         15    1    1    2    0    0 -0.32362101426E+01 -0.51361100728E+00  0.71483397963E+01  0.80618449004E+01  0.17770000000E+01 0. -1.
</event>
<event>
 6    1  0.3836009E-003  0.5161009E+03  0.7546771E-02  0.9364486E-01
        -11   -1    0    0    0    0  0.00000000000E+00  0.00000000000E+00  0.50000000000E+03  0.50000000000E+03  0.00000000000E+00 0. -1.
         11   -1    0    0    0    0 -0.00000000000E+00 -0.00000000000E+00 -0.50000000000E+03  0.50000000000E+03  0.00000000000E+00 0. -1.
        -11    1    1    2    0    0  0.71347979167E+01 -0.29614791138E+01  0.21398686077E+03  0.21412625313E+03  0.00000000000E+00 0. -1.
         11    1    1    2    0    0  0.12705653619E+02 -0.28024682164E+00 -0.48373222189E+03  0.48389913687E+03  0.00000000000E+00 0. -1.
        -15    1    1    2    0    0 -0.36280697902E+02  0.24882753850E+02  0.16114711943E+02  0.46885841673E+02  0.17770000000E+01 0.  1.
         15    1    1    2    0    0  0.16440246366E+02 -0.21641027915E+02  0.25363064918E+03  0.25508876832E+03  0.17770000000E+01 0. -1.
</event>
<event>
 6    1  0.3836009E-003  0.5021797E+03  0.7546771E-02  0.9394946E-01
        -11   -1    0    0    0    0  0.00000000000E+00  0.00000000000E+00  0.50000000000E+03  0.50000000000E+03  0.00000000000E+00 0. -1.
         11   -1    0    0    0    0 -0.00000000000E+00 -0.00000000000E+00 -0.50000000000E+03  0.50000000000E+03  0.00000000000E+00 0.  1.
        -11    1    1    2    0    0  0.18933764212E+02  0.11180164122E+02  0.49733444983E+03  0.49782028733E+03  0.00000000000E+00 0. -1.
         11    1    1    2    0    0  0.39940532911E+01 -0.55353259830E+01 -0.43152816136E+03  0.43158214322E+03  0.00000000000E+00 0.  1.
        -15    1    1    2    0    0 -0.75723567792E+01  0.67101736909E+00 -0.31361072916E+02  0.32318191084E+02  0.17770000000E+01 0. -1.
         15    1    1    2    0    0 -0.15355460724E+02 -0.63158555079E+01 -0.34445215549E+02  0.38279378366E+02  0.17770000000E+01 0.  1.
</event>
<event>
 6    1  0.3836009E-003  0.5072694E+03  0.7546771E-02  0.9383689E-01
        -11   -1    0    0    0    0  0.00000000000E+00  0.00000000000E+00  0.50000000000E+03  0.50000000000E+03  0.00000000000E+00 0.  1.
         11   -1    0    0    0    0 -0.00000000000E+00 -0.00000000000E+00 -0.50000000000E+03  0.50000000000E+03  0.00000000000E+00 0.  1.
        -11    1    1    2    0    0 -0.44043955600E+01 -0.61930853274E+01  0.49267203757E+03  0.49273064610E+03  0.00000000000E+00 0.  1.
         11    1    1    2    0    0  0.71819778821E+01 -0.68561394251E+01 -0.48285121562E+03  0.48295329368E+03  0.00000000000E+00 0.  1.
        -15    1    1    2    0    0 -0.55466509689E+01  0.76234698060E+01  0.29656392885E+01  0.10041681843E+02  0.17770000000E+01 0.  1.
         15    1    1    2    0    0  0.27690686469E+01  0.54257549464E+01 -0.12786461238E+02  0.14274378372E+02  0.17770000000E+01 0. -1.
</event>
<event>
 6    1  0.3836009E-003  0.5019751E+03  0.7546771E-02  0.9395401E-01
        -11   -1    0    0    0    0  0.00000000000E+00  0.00000000000E+00  0.50000000000E+03  0.50000000000E+03  0.00000000000E+00 0. -1.
         11   -1    0    0    0    0 -0.00000000000E+00 -0.00000000000E+00 -0.50000000000E+03  0.50000000000E+03  0.00000000000E+00 0. -1.
        -11    1    1    2    0    0 -0.10337125045E+02  0.10179503251E+02  0.49781353899E+03  0.49802489701E+03  0.00000000000E+00 0. -1.
         11    1    1    2    0    0 -0.73819569217E+01  0.80496236895E+01 -0.11806606544E+03  0.11857017136E+03  0.00000000000E+00 0. -1.
        -15    1    1    2    0    0  0.30564348192E+02 -0.40573865541E+01 -0.17023909558E+03  0.17301777122E+03  0.17770000000E+01 0. -1.
         15    1    1    2    0    0 -0.12845266225E+02 -0.14171740387E+02 -0.20950837798E+03  0.21038716040E+03  0.17770000000E+01 0.  1.
</event>
<event>
 6    1  0.3836009E-003  0.5186675E+03  0.7546771E-02  0.9358982E-01
        -11   -1    0    0    0    0  0.00000000000E+00  0.00000000000E+00  0.50000000000E+03  0.50000000000E+03  0.00000000000E+00 0.  1.
         11   -1    0    0    0    0 -0.00000000000E+00 -0.00000000000E+00 -0.50000000000E+03  0.50000000000E+03  0.00000000000E+00 0. -1.
        -11    1    1    2    0    0 -0.10969658462E+02  0.17125333026E+02  0.45213505018E+03  0.45259221606E+03  0.00000000000E+00 0.  1.
         11    1    1    2    0    0  0.53762398347E+01  0.40164399217E+01 -0.48128571588E+03  0.48133250052E+03  0.00000000000E+00 0. -1.
        -15    1    1    2    0    0 -0.10485024235E+02 -0.10103633581E+02 -0.12998073034E+02  0.19599152439E+02  0.17770000000E+01 0. -1.
         15    1    1    2    0    0  0.16078442862E+02 -0.11038139367E+02  0.42148738729E+02  0.46476130982E+02  0.17770000000E+01 0.  1.
</event>
<event>
 6    1  0.5391112E-003  0.5024473E+03  0.7546771E-02  0.9394350E-01
        -11   -1    0    0    0    0  0.00000000000E+00  0.00000000000E+00  0.50000000000E+03  0.50000000000E+03  0.00000000000E+00 0.  1.
         11   -1    0    0    0    0 -0.00000000000E+00 -0.00000000000E+00 -0.50000000000E+03  0.50000000000E+03  0.00000000000E+00 0. -1.
        -11    1    1    2    0    0  0.42331118315E+01  0.76449586004E+01  0.49747594361E+03  0.49755268977E+03  0.00000000000E+00 0.  1.
         11    1    1    2    0    0 -0.21015305263E+02  0.38637542077E+01 -0.23890997187E+03  0.23986359939E+03  0.00000000000E+00 0. -1.
        -15    1    1    2    0    0  0.16674560206E+02 -0.55517749509E+01 -0.25459384678E+03  0.25520589278E+03  0.17770000000E+01 0. -1.
         15    1    1    2    0    0  0.10763322546E+00 -0.59569378572E+01 -0.39721249553E+01  0.73778180518E+01  0.17770000000E+01 0.  1.
</event>
<event>
 6    1  0.3836009E-003  0.5058869E+03  0.7546771E-02  0.9386733E-01
        -11   -1    0    0    0    0  0.00000000000E+00  0.00000000000E+00  0.50000000000E+03  0.50000000000E+03  0.00000000000E+00 0. -1.
         11   -1    0    0    0    0 -0.00000000000E+00 -0.00000000000E+00 -0.50000000000E+03  0.50000000000E+03  0.00000000000E+00 0. -1.
        -11    1    1    2    0    0  0.21376833910E+02  0.15128166584E+02  0.49341856694E+03  0.49411305655E+03  0.00000000000E+00 0. -1.
         11    1    1    2    0    0  0.81889662120E+01  0.11037419070E+02 -0.32003600111E+03  0.32033096290E+03  0.00000000000E+00 0. -1.
        -15    1    1    2    0    0 -0.10932178034E+02 -0.38490432849E+02 -0.79297367847E+02  0.88838371293E+02  0.17770000000E+01 0.  1.
         15    1    1    2    0    0 -0.18633622088E+02  0.12324847194E+02 -0.94085197988E+02  0.96717609255E+02  0.17770000000E+01 0. -1.
</event>
<event>
 6    1  0.3836009E-003  0.5002465E+03  0.7546771E-02  0.9399258E-01
        -11   -1    0    0    0    0  0.00000000000E+00  0.00000000000E+00  0.50000000000E+03  0.50000000000E+03  0.00000000000E+00 0.  1.
         11   -1    0    0    0    0 -0.00000000000E+00 -0.00000000000E+00 -0.50000000000E+03  0.50000000000E+03  0.00000000000E+00 0. -1.
        -11    1    1    2    0    0 -0.44348727782E+01  0.87506502065E+01  0.49965717598E+03  0.49975347470E+03  0.00000000000E+00 0.  1.
         11    1    1    2    0    0  0.85347174706E+01  0.12576505868E+01 -0.31420522414E+03  0.31432363252E+03  0.00000000000E+00 0. -1.
        -15    1    1    2    0    0  0.25427081764E+00 -0.42083543495E+01 -0.36768350235E+02  0.37051912339E+02  0.17770000000E+01 0. -1.
         15    1    1    2    0    0 -0.43541155100E+01 -0.57999464438E+01 -0.14868360160E+03  0.14887098044E+03  0.17770000000E+01 0.  1.
</event>
<event>
 6    1  0.3836009E-003  0.5001708E+03  0.7546771E-02  0.9399428E-01
        -11   -1    0    0    0    0  0.00000000000E+00  0.00000000000E+00  0.50000000000E+03  0.50000000000E+03  0.00000000000E+00 0. -1.
         11   -1    0    0    0    0 -0.00000000000E+00 -0.00000000000E+00 -0.50000000000E+03  0.50000000000E+03  0.00000000000E+00 0. -1.
        -11    1    1    2    0    0 -0.62636826553E+01 -0.37332064817E+01  0.49977601943E+03  0.49982921098E+03  0.00000000000E+00 0. -1.
         11    1    1    2    0    0  0.15945780231E+01  0.50790815245E+01 -0.14336716112E+03  0.14346596334E+03  0.00000000000E+00 0. -1.
        -15    1    1    2    0    0  0.29237045858E+01  0.39503677206E+01 -0.57075589517E+02  0.57314344639E+02  0.17770000000E+01 0.  1.
         15    1    1    2    0    0  0.17454000464E+01 -0.52962427635E+01 -0.29933326879E+03  0.29939048105E+03  0.17770000000E+01 0. -1.
</event>
<event>
 6    1  0.3836009E-003  0.5408569E+03  0.7546771E-02  0.9312761E-01
        -11   -1    0    0    0    0  0.00000000000E+00  0.00000000000E+00  0.50000000000E+03  0.50000000000E+03  0.00000000000E+00 0.  1.
         11   -1    0    0    0    0 -0.00000000000E+00 -0.00000000000E+00 -0.50000000000E+03  0.50000000000E+03  0.00000000000E+00 0. -1.
        -11    1    1    2    0    0  0.39714187636E+02 -0.30235989699E+02  0.45642186558E+03  0.45914306175E+03  0.00000000000E+00 0.  1.
         11    1    1    2    0    0  0.45700995241E+01  0.22986618036E+02 -0.40064597553E+03  0.40133087114E+03  0.00000000000E+00 0. -1.
        -15    1    1    2    0    0 -0.65238526209E+02  0.44669264840E+02 -0.15349026745E+02  0.80561522294E+02  0.17770000000E+01 0.  1.
         15    1    1    2    0    0  0.20954239049E+02 -0.37419893177E+02 -0.40426863310E+02  0.58964544818E+02  0.17770000000E+01 0. -1.
</event>
<event>
 6    1  0.3836009E-003  0.5030848E+03  0.7546771E-02  0.9392934E-01
        -11   -1    0    0    0    0  0.00000000000E+00  0.00000000000E+00  0.50000000000E+03  0.50000000000E+03  0.00000000000E+00 0. -1.
         11   -1    0    0    0    0 -0.00000000000E+00 -0.00000000000E+00 -0.50000000000E+03  0.50000000000E+03  0.00000000000E+00 0.  1.
        -11    1    1    2    0    0  0.71187891485E+01  0.10439037980E+02  0.43648449662E+03  0.43666734073E+03  0.00000000000E+00 0. -1.
         11    1    1    2    0    0  0.50263365623E+01  0.46393589826E+01 -0.49686813934E+03  0.49691521973E+03  0.00000000000E+00 0.  1.
        -15    1    1    2    0    0 -0.91732014198E+01 -0.16680312612E+02  0.59506714802E+02  0.62502698251E+02  0.17770000000E+01 0. -1.
         15    1    1    2    0    0 -0.29719242910E+01  0.16019156497E+01  0.87692792041E+00  0.39147412837E+01  0.17770000000E+01 0.  1.
</event>
<event>
 6    1  0.3836009E-003  0.4270130E+03  0.7546771E-02  0.9579790E-01
        -11   -1    0    0    0    0  0.00000000000E+00  0.00000000000E+00  0.50000000000E+03  0.50000000000E+03  0.00000000000E+00 0.  1.
         11   -1    0    0    0    0 -0.00000000000E+00 -0.00000000000E+00 -0.50000000000E+03  0.50000000000E+03  0.00000000000E+00 0.  1.
        -11    1    1    2    0    0 -0.41770921001E+01 -0.86372383586E+01  0.32448645959E+03  0.32462826809E+03  0.00000000000E+00 0.  1.
         11    1    1    2    0    0  0.69034192753E+02  0.85919222364E+02 -0.26961801440E+03  0.29127599666E+03  0.00000000000E+00 0.  1.
        -15    1    1    2    0    0 -0.15723805467E+03 -0.17676439840E+03 -0.71875213716E+02  0.24726233529E+03  0.17770000000E+01 0.  1.
         15    1    1    2    0    0  0.92380954016E+02  0.99482414398E+02  0.17006768521E+02  0.13683339996E+03  0.17770000000E+01 0. -1.
</event>
<event>
 6    1  0.3836009E-003  0.5024265E+03  0.7546771E-02  0.9394397E-01
        -11   -1    0    0    0    0  0.00000000000E+00  0.00000000000E+00  0.50000000000E+03  0.50000000000E+03  0.00000000000E+00 0. -1.
         11   -1    0    0    0    0 -0.00000000000E+00 -0.00000000000E+00 -0.50000000000E+03  0.50000000000E+03  0.00000000000E+00 0. -1.
        -11    1    1    2    0    0  0.57526873538E+00  0.39066010561E+01  0.24102988054E+03  0.24106222387E+03  0.00000000000E+00 0. -1.
         11    1    1    2    0    0 -0.13305312106E+01  0.71989554599E+01 -0.49751967290E+03  0.49757353245E+03  0.00000000000E+00 0. -1.
        -15    1    1    2    0    0  0.12849837656E+02 -0.16131200224E+02  0.45804083445E+02  0.50264358523E+02  0.17770000000E+01 0.  1.
         15    1    1    2    0    0 -0.12094575181E+02  0.50256437076E+01  0.21068570891E+03  0.21109988515E+03  0.17770000000E+01 0. -1.
</event>
<event>
 6    1  0.3836009E-003  0.5035985E+03  0.7546771E-02  0.9391794E-01
        -11   -1    0    0    0    0  0.00000000000E+00  0.00000000000E+00  0.50000000000E+03  0.50000000000E+03  0.00000000000E+00 0. -1.
         11   -1    0    0    0    0 -0.00000000000E+00 -0.00000000000E+00 -0.50000000000E+03  0.50000000000E+03  0.00000000000E+00 0.  1.
        -11    1    1    2    0    0 -0.42766725076E+01 -0.76682437844E+01  0.40311242707E+03  0.40320803657E+03  0.00000000000E+00 0. -1.
         11    1    1    2    0    0  0.91818846739E+01  0.20018286621E+01 -0.49631258092E+03  0.49640154342E+03  0.00000000000E+00 0.  1.
        -15    1    1    2    0    0 -0.42186068059E+01  0.15888736218E+02  0.17871323880E+02  0.24347289956E+02  0.17770000000E+01 0.  1.
         15    1    1    2    0    0 -0.68660536038E+00 -0.10222321095E+02  0.75328829971E+02  0.76043130060E+02  0.17770000000E+01 0. -1.
</event>
<event>
 6    1  0.3836009E-003  0.5033929E+03  0.7546771E-02  0.9392250E-01
        -11   -1    0    0    0    0  0.00000000000E+00  0.00000000000E+00  0.50000000000E+03  0.50000000000E+03  0.00000000000E+00 0.  1.
         11   -1    0    0    0    0 -0.00000000000E+00 -0.00000000000E+00 -0.50000000000E+03  0.50000000000E+03  0.00000000000E+00 0. -1.
        -11    1    1    2    0    0 -0.30984851719E+01  0.65813522765E+01  0.49655381473E+03  0.49660709392E+03  0.00000000000E+00 0.  1.
         11    1    1    2    0    0 -0.14356022923E+00  0.40467512593E+01 -0.24566707421E+03  0.24570044395E+03  0.00000000000E+00 0. -1.
        -15    1    1    2    0    0  0.10533821243E+02 -0.59082139572E+01 -0.78930188206E+01  0.14537051188E+02  0.17770000000E+01 0. -1.
         15    1    1    2    0    0 -0.72917758418E+01 -0.47198895786E+01 -0.24299372170E+03  0.24315541094E+03  0.17770000000E+01 0.  1.
</event>
<event>
 6    1  0.3836009E-003  0.5479945E+03  0.7546771E-02  0.9298391E-01
        -11   -1    0    0    0    0  0.00000000000E+00  0.00000000000E+00  0.50000000000E+03  0.50000000000E+03  0.00000000000E+00 0.  1.
         11   -1    0    0    0    0 -0.00000000000E+00 -0.00000000000E+00 -0.50000000000E+03  0.50000000000E+03  0.00000000000E+00 0. -1.
        -11    1    1    2    0    0  0.23513560555E+02 -0.54275459085E+02  0.35663978781E+03  0.36151161978E+03  0.00000000000E+00 0.  1.
         11    1    1    2    0    0  0.83085231570E+01  0.41923796877E+02 -0.44998037921E+03  0.45200550657E+03  0.00000000000E+00 0. -1.
        -15    1    1    2    0    0  0.58854012641E+02 -0.24193619528E+01  0.70332503237E+02  0.91757652851E+02  0.17770000000E+01 0.  1.
         15    1    1    2    0    0 -0.90676096353E+02  0.14771024160E+02  0.23008088159E+02  0.94725220793E+02  0.17770000000E+01 0. -1.
</event>
<event>
 6    1  0.3836009E-003  0.5096848E+03  0.7546771E-02  0.9378396E-01
        -11   -1    0    0    0    0  0.00000000000E+00  0.00000000000E+00  0.50000000000E+03  0.50000000000E+03  0.00000000000E+00 0.  1.
         11   -1    0    0    0    0 -0.00000000000E+00 -0.00000000000E+00 -0.50000000000E+03  0.50000000000E+03  0.00000000000E+00 0.  1.
        -11    1    1    2    0    0  0.98620744843E+00  0.19270544730E+02  0.48993532274E+03  0.49031515066E+03  0.00000000000E+00 0.  1.
         11    1    1    2    0    0 -0.89180257026E+01 -0.35415981116E+01 -0.47003789558E+03  0.47013582865E+03  0.00000000000E+00 0.  1.
        -15    1    1    2    0    0  0.66301482507E+01 -0.13311012544E+02  0.39416119400E+01  0.15486637933E+02  0.17770000000E+01 0.  1.
         15    1    1    2    0    0  0.13016700034E+01 -0.24179340748E+01 -0.23839039094E+02  0.24062382757E+02  0.17770000000E+01 0. -1.
</event>
<event>
 6    1  0.3836009E-003  0.5055660E+03  0.7546771E-02  0.9387441E-01
        -11   -1    0    0    0    0  0.00000000000E+00  0.00000000000E+00  0.50000000000E+03  0.50000000000E+03  0.00000000000E+00 0.  1.
         11   -1    0    0    0    0 -0.00000000000E+00 -0.00000000000E+00 -0.50000000000E+03  0.50000000000E+03  0.00000000000E+00 0.  1.
        -11    1    1    2    0    0  0.97747014048E+01  0.11592724808E+02  0.49420142786E+03  0.49443400708E+03  0.00000000000E+00 0.  1.
         11    1    1    2    0    0  0.37366701455E+01  0.63463102339E+01 -0.42205283664E+03  0.42211708716E+03  0.00000000000E+00 0.  1.
        -15    1    1    2    0    0 -0.76497310350E+01 -0.17986217311E+02 -0.12031056325E+02  0.23020131263E+02  0.17770000000E+01 0. -1.
         15    1    1    2    0    0 -0.58616405153E+01  0.47182269543E-01 -0.60117534895E+02  0.60428774492E+02  0.17770000000E+01 0.  1.
</event>
<event>
 6    1  0.3836009E-003  0.5052387E+03  0.7546771E-02  0.9388164E-01
        -11   -1    0    0    0    0  0.00000000000E+00  0.00000000000E+00  0.50000000000E+03  0.50000000000E+03  0.00000000000E+00 0. -1.
         11   -1    0    0    0    0 -0.00000000000E+00 -0.00000000000E+00 -0.50000000000E+03  0.50000000000E+03  0.00000000000E+00 0. -1.
        -11    1    1    2    0    0 -0.21418686678E+02 -0.14570857996E+02  0.33780643142E+03  0.33879825140E+03  0.00000000000E+00 0. -1.
         11    1    1    2    0    0  0.22349507386E+02 -0.14172536010E+02 -0.49405306617E+03  0.49476134999E+03  0.00000000000E+00 0. -1.
        -15    1    1    2    0    0  0.57009306545E+01  0.98406067472E+01  0.30208840932E+01  0.11900488275E+02  0.17770000000E+01 0. -1.
         15    1    1    2    0    0 -0.66317513623E+01  0.18902787259E+02  0.15322575065E+03  0.15453991033E+03  0.17770000000E+01 0.  1.
</event>
<event>
 6    1  0.3836009E-003  0.5013368E+03  0.7546771E-02  0.9396824E-01
        -11   -1    0    0    0    0  0.00000000000E+00  0.00000000000E+00  0.50000000000E+03  0.50000000000E+03  0.00000000000E+00 0.  1.
         11   -1    0    0    0    0 -0.00000000000E+00 -0.00000000000E+00 -0.50000000000E+03  0.50000000000E+03  0.00000000000E+00 0.  1.
        -11    1    1    2    0    0  0.68163833866E+01 -0.24559675761E+01  0.23667396341E+03  0.23678483865E+03  0.00000000000E+00 0.  1.
         11    1    1    2    0    0  0.44734340831E+01 -0.66727469621E+01 -0.49859850396E+03  0.49866321833E+03  0.00000000000E+00 0.  1.
        -15    1    1    2    0    0 -0.21755716708E+02  0.89394685070E+00  0.11829192582E+03  0.12029234304E+03  0.17770000000E+01 0.  1.
         15    1    1    2    0    0  0.10465899239E+02  0.82347676875E+01  0.14363261472E+03  0.14425959998E+03  0.17770000000E+01 0. -1.
</event>
<event>
 6    1  0.3836009E-003  0.4571179E+03  0.7546771E-02  0.9501230E-01
        -11   -1    0    0    0    0  0.00000000000E+00  0.00000000000E+00  0.50000000000E+03  0.50000000000E+03  0.00000000000E+00 0. -1.
         11   -1    0    0    0    0 -0.00000000000E+00 -0.00000000000E+00 -0.50000000000E+03  0.50000000000E+03  0.00000000000E+00 0.  1.
        -11    1    1    2    0    0 -0.79555798511E+01  0.32047808588E+01  0.45140507293E+03  0.45148654658E+03  0.00000000000E+00 0. -1.
         11    1    1    2    0    0 -0.14163155048E+02 -0.22952299409E+02 -0.46251164845E+03  0.46329734293E+03  0.00000000000E+00 0.  1.
        -15    1    1    2    0    0  0.38150754833E+02  0.73564159806E+01 -0.23232832356E+02  0.45304736824E+02  0.17770000000E+01 0. -1.
         15    1    1    2    0    0 -0.16032019934E+02  0.12391102570E+02  0.34339407877E+02  0.39911373672E+02  0.17770000000E+01 0.  1.
</event>
<event>
 6    1  0.3836009E-003  0.5181366E+03  0.7546771E-02  0.9360118E-01
        -11   -1    0    0    0    0  0.00000000000E+00  0.00000000000E+00  0.50000000000E+03  0.50000000000E+03  0.00000000000E+00 0.  1.
         11   -1    0    0    0    0 -0.00000000000E+00 -0.00000000000E+00 -0.50000000000E+03  0.50000000000E+03  0.00000000000E+00 0.  1.
        -11    1    1    2    0    0 -0.11167985909E+01 -0.96124686987E+01  0.48176622406E+03  0.48186340537E+03  0.00000000000E+00 0.  1.
         11    1    1    2    0    0 -0.19821089965E+02  0.55357823624E+01 -0.45639245766E+03  0.45685620922E+03  0.00000000000E+00 0.  1.
        -15    1    1    2    0    0  0.35675758494E+02 -0.34886657722E+01 -0.26451354612E+02  0.44584329341E+02  0.17770000000E+01 0.  1.
         15    1    1    2    0    0 -0.14737869938E+02  0.75653521084E+01  0.10775882103E+01  0.16696056067E+02  0.17770000000E+01 0. -1.
</event>
<event>
 6    1  0.3836009E-003  0.5337624E+03  0.7546771E-02  0.9327280E-01
        -11   -1    0    0    0    0  0.00000000000E+00  0.00000000000E+00  0.50000000000E+03  0.50000000000E+03  0.00000000000E+00 0. -1.
         11   -1    0    0    0    0 -0.00000000000E+00 -0.00000000000E+00 -0.50000000000E+03  0.50000000000E+03  0.00000000000E+00 0.  1.
        -11    1    1    2    0    0  0.69328891849E+02 -0.20329919838E+01  0.37608606011E+03  0.38242823237E+03  0.00000000000E+00 0. -1.
         11    1    1    2    0    0 -0.47342535465E+02  0.23021006602E+02 -0.46325614341E+03  0.46623763986E+03  0.00000000000E+00 0.  1.
        -15    1    1    2    0    0 -0.58330014843E+02 -0.23419896510E+02  0.95104466941E+02  0.11401271659E+03  0.17770000000E+01 0. -1.
         15    1    1    2    0    0  0.36343658459E+02  0.24318818913E+01 -0.79343836379E+01  0.37321411180E+02  0.17770000000E+01 0.  1.
</event>
<event>
 6    1  0.3836009E-003  0.4592767E+03  0.7546771E-02  0.9495845E-01
        -11   -1    0    0    0    0  0.00000000000E+00  0.00000000000E+00  0.50000000000E+03  0.50000000000E+03  0.00000000000E+00 0. -1.
         11   -1    0    0    0    0 -0.00000000000E+00 -0.00000000000E+00 -0.50000000000E+03  0.50000000000E+03  0.00000000000E+00 0.  1.
        -11    1    1    2    0    0  0.86177267354E+00 -0.28591573261E+02  0.45767135616E+03  0.45856438039E+03  0.00000000000E+00 0. -1.
         11    1    1    2    0    0  0.17745390953E+02 -0.12043161165E+02 -0.46058124451E+03  0.46108027438E+03  0.00000000000E+00 0.  1.
        -15    1    1    2    0    0 -0.51667445282E+01 -0.12171937523E+01 -0.26729485068E+02  0.27309337426E+02  0.17770000000E+01 0. -1.
         15    1    1    2    0    0 -0.13440419099E+02  0.41851928179E+02  0.29639373421E+02  0.53046007801E+02  0.17770000000E+01 0.  1.
</event>
<event>
 6    1  0.3836009E-003  0.5107181E+03  0.7546771E-02  0.9376141E-01
        -11   -1    0    0    0    0  0.00000000000E+00  0.00000000000E+00  0.50000000000E+03  0.50000000000E+03  0.00000000000E+00 0.  1.
         11   -1    0    0    0    0 -0.00000000000E+00 -0.00000000000E+00 -0.50000000000E+03  0.50000000000E+03  0.00000000000E+00 0. -1.
        -11    1    1    2    0    0  0.90013281263E+01  0.21385260124E+00  0.48919907422E+03  0.48928192676E+03  0.00000000000E+00 0.  1.
         11    1    1    2    0    0 -0.10481542817E+02 -0.48085414901E+01 -0.39580781295E+03  0.39597576896E+03  0.00000000000E+00 0. -1.
        -15    1    1    2    0    0  0.37322399538E+01  0.81135958684E+01 -0.10337472654E+03  0.10377500599E+03  0.17770000000E+01 0.  1.
         15    1    1    2    0    0 -0.22520252631E+01 -0.35189069795E+01  0.99834652649E+01  0.10967298291E+02  0.17770000000E+01 0. -1.
</event>
<event>
 6    1  0.3836009E-003  0.5024022E+03  0.7546771E-02  0.9394451E-01
        -11   -1    0    0    0    0  0.00000000000E+00  0.00000000000E+00  0.50000000000E+03  0.50000000000E+03  0.00000000000E+00 0. -1.
         11   -1    0    0    0    0 -0.00000000000E+00 -0.00000000000E+00 -0.50000000000E+03  0.50000000000E+03  0.00000000000E+00 0. -1.
        -11    1    1    2    0    0 -0.34801546142E+01  0.98435644907E+01  0.49748822518E+03  0.49759777072E+03  0.00000000000E+00 0. -1.
         11    1    1    2    0    0  0.16604194450E+02  0.54638831323E+01 -0.39882975694E+03  0.39921263546E+03  0.00000000000E+00 0. -1.
        -15    1    1    2    0    0  0.59192767407E+01 -0.15710953159E+01 -0.15474273758E+02  0.16736697851E+02  0.17770000000E+01 0.  1.
         15    1    1    2    0    0 -0.19043316577E+02 -0.13736352307E+02 -0.83184194478E+02  0.86452895966E+02  0.17770000000E+01 0. -1.
</event>
<event>
 6    1  0.3836009E-003  0.5063876E+03  0.7546771E-02  0.9385629E-01
        -11   -1    0    0    0    0  0.00000000000E+00  0.00000000000E+00  0.50000000000E+03  0.50000000000E+03  0.00000000000E+00 0. -1.
         11   -1    0    0    0    0 -0.00000000000E+00 -0.00000000000E+00 -0.50000000000E+03  0.50000000000E+03  0.00000000000E+00 0. -1.
        -11    1    1    2    0    0  0.15042314228E+02 -0.18010525218E+01  0.49337984203E+03  0.49361238186E+03  0.00000000000E+00 0. -1.
         11    1    1    2    0    0  0.46930376974E+01 -0.87048031921E+01 -0.46913558743E+03  0.46923980819E+03  0.00000000000E+00 0. -1.
        -15    1    1    2    0    0 -0.98421061576E+01 -0.31431553180E+01 -0.13445415884E+02  0.17049440350E+02  0.17770000000E+01 0. -1.
         15    1    1    2    0    0 -0.98932457675E+01  0.13649011032E+02 -0.10798838714E+02  0.20098369599E+02  0.17770000000E+01 0.  1.
</event>
<event>
 6    1  0.3836009E-003  0.5025566E+03  0.7546771E-02  0.9394107E-01
        -11   -1    0    0    0    0  0.00000000000E+00  0.00000000000E+00  0.50000000000E+03  0.50000000000E+03  0.00000000000E+00 0.  1.
         11   -1    0    0    0    0 -0.00000000000E+00 -0.00000000000E+00 -0.50000000000E+03  0.50000000000E+03  0.00000000000E+00 0.  1.
        -11    1    1    2    0    0  0.65634143727E+01 -0.20951294485E+01  0.49049780224E+03  0.49054618741E+03  0.00000000000E+00 0.  1.
         11    1    1    2    0    0 -0.58332330595E+01 -0.43869540045E+01 -0.49738983327E+03  0.49744338192E+03  0.00000000000E+00 0.  1.
        -15    1    1    2    0    0  0.95150337334E+00  0.62251325632E+01  0.25553961311E+01  0.70246289927E+01  0.17770000000E+01 0. -1.
         15    1    1    2    0    0 -0.16816846865E+01  0.25695088985E+00  0.43366348990E+01  0.49858016800E+01  0.17770000000E+01 0.  1.
</event>
<event>
 6    1  0.3836009E-003  0.5095757E+03  0.7546771E-02  0.9378635E-01
        -11   -1    0    0    0    0  0.00000000000E+00  0.00000000000E+00  0.50000000000E+03  0.50000000000E+03  0.00000000000E+00 0.  1.
         11   -1    0    0    0    0 -0.00000000000E+00 -0.00000000000E+00 -0.50000000000E+03  0.50000000000E+03  0.00000000000E+00 0.  1.
        -11    1    1    2    0    0 -0.11950208259E+02  0.35248524157E+01  0.49026598173E+03  0.49042427031E+03  0.00000000000E+00 0.  1.
         11    1    1    2    0    0 -0.10902782530E+02  0.41640691529E+01 -0.46472940268E+03  0.46487592737E+03  0.00000000000E+00 0.  1.
        -15    1    1    2    0    0 -0.60783885226E+01 -0.28739975264E+01 -0.26005282137E+01  0.74247656397E+01  0.17770000000E+01 0. -1.
         15    1    1    2    0    0  0.28931379312E+02 -0.48149240422E+01 -0.22936050841E+02  0.37275036682E+02  0.17770000000E+01 0.  1.
</event>
<event>
 6    1  0.3836009E-003  0.5038370E+03  0.7546771E-02  0.9391265E-01
        -11   -1    0    0    0    0  0.00000000000E+00  0.00000000000E+00  0.50000000000E+03  0.50000000000E+03  0.00000000000E+00 0.  1.
         11   -1    0    0    0    0 -0.00000000000E+00 -0.00000000000E+00 -0.50000000000E+03  0.50000000000E+03  0.00000000000E+00 0.  1.
        -11    1    1    2    0    0  0.86226294985E+01 -0.97927314040E+00  0.40645917551E+03  0.40655180491E+03  0.00000000000E+00 0.  1.
         11    1    1    2    0    0 -0.14938691500E+02  0.12250089916E+02 -0.49578672198E+03  0.49616298018E+03  0.00000000000E+00 0.  1.
        -15    1    1    2    0    0 -0.48717074439E+01 -0.72317876055E+00  0.77824905574E+02  0.78000834467E+02  0.17770000000E+01 0.  1.
         15    1    1    2    0    0  0.11187769446E+02 -0.10547638015E+02  0.11502640892E+02  0.19284380450E+02  0.17770000000E+01 0.  1.
</event>
<event>
 6    1  0.3836009E-003  0.5076653E+03  0.7546771E-02  0.9382820E-01
        -11   -1    0    0    0    0  0.00000000000E+00  0.00000000000E+00  0.50000000000E+03  0.50000000000E+03  0.00000000000E+00 0.  1.
         11   -1    0    0    0    0 -0.00000000000E+00 -0.00000000000E+00 -0.50000000000E+03  0.50000000000E+03  0.00000000000E+00 0.  1.
        -11    1    1    2    0    0  0.65364101367E+01  0.20401935268E+01  0.49228711309E+03  0.49233473243E+03  0.00000000000E+00 0.  1.
         11    1    1    2    0    0 -0.30117193592E+01 -0.66777108774E+01 -0.40793606773E+03  0.40800183533E+03  0.00000000000E+00 0.  1.
        -15    1    1    2    0    0 -0.17810905344E+02 -0.82523253615E+01 -0.86316925361E+01  0.21517273714E+02  0.17770000000E+01 0.  1.
         15    1    1    2    0    0  0.14286214566E+02  0.12889842712E+02 -0.75719352820E+02  0.78146158525E+02  0.17770000000E+01 0.  1.
</event>
<event>
 6    1  0.3836009E-003  0.5012789E+03  0.7546771E-02  0.9396953E-01
        -11   -1    0    0    0    0  0.00000000000E+00  0.00000000000E+00  0.50000000000E+03  0.50000000000E+03  0.00000000000E+00 0. -1.
         11   -1    0    0    0    0 -0.00000000000E+00 -0.00000000000E+00 -0.50000000000E+03  0.50000000000E+03  0.00000000000E+00 0. -1.
        -11    1    1    2    0    0  0.94993402507E+01  0.42074923688E+01  0.49861291232E+03  0.49872114131E+03  0.00000000000E+00 0. -1.
         11    1    1    2    0    0 -0.17799140901E+01  0.75632997014E+01 -0.43823345758E+03  0.43830233280E+03  0.00000000000E+00 0. -1.
        -15    1    1    2    0    0 -0.74738541284E+01 -0.72589954513E+01 -0.23357092615E+02  0.25637141317E+02  0.17770000000E+01 0.  1.
         15    1    1    2    0    0 -0.24557203214E+00 -0.45117966190E+01 -0.37022362125E+02  0.37339384579E+02  0.17770000000E+01 0. -1.
</event>
<event>
 6    1  0.3836009E-003  0.5046386E+03  0.7546771E-02  0.9389490E-01
        -11   -1    0    0    0    0  0.00000000000E+00  0.00000000000E+00  0.50000000000E+03  0.50000000000E+03  0.00000000000E+00 0.  1.
         11   -1    0    0    0    0 -0.00000000000E+00 -0.00000000000E+00 -0.50000000000E+03  0.50000000000E+03  0.00000000000E+00 0.  1.
        -11    1    1    2    0    0  0.86316848801E+01  0.13642286017E+01  0.49528432205E+03  0.49536141026E+03  0.00000000000E+00 0.  1.
         11    1    1    2    0    0  0.69257487709E+01 -0.37149466407E+01 -0.47308375184E+03  0.47314902841E+03  0.00000000000E+00 0.  1.
        -15    1    1    2    0    0 -0.12003876747E+02 -0.55525698051E+01 -0.11587715951E+02  0.17673623804E+02  0.17770000000E+01 0. -1.
         15    1    1    2    0    0 -0.35535569041E+01  0.79032878440E+01 -0.10612854256E+02  0.13815937531E+02  0.17770000000E+01 0.  1.
</event>
<event>
 6    1  0.3836009E-003  0.5003747E+03  0.7546771E-02  0.9398972E-01
        -11   -1    0    0    0    0  0.00000000000E+00  0.00000000000E+00  0.50000000000E+03  0.50000000000E+03  0.00000000000E+00 0. -1.
         11   -1    0    0    0    0 -0.00000000000E+00 -0.00000000000E+00 -0.50000000000E+03  0.50000000000E+03  0.00000000000E+00 0.  1.
        -11    1    1    2    0    0  0.36459332328E+00  0.23555849872E+01  0.17246650142E+03  0.17248297256E+03  0.00000000000E+00 0. -1.
         11    1    1    2    0    0 -0.14583955333E+02 -0.56336042147E+01 -0.49938066474E+03  0.49962533719E+03  0.00000000000E+00 0.  1.
        -15    1    1    2    0    0  0.82455903398E+01  0.59589965357E+01  0.29850546931E+03  0.29868406776E+03  0.17770000000E+01 0. -1.
         15    1    1    2    0    0  0.59737716698E+01 -0.26809773082E+01  0.28408694008E+02  0.29207622490E+02  0.17770000000E+01 0.  1.
</event>
<event>
 6    1  0.3836009E-003  0.5017022E+03  0.7546771E-02  0.9396009E-01
        -11   -1    0    0    0    0  0.00000000000E+00  0.00000000000E+00  0.50000000000E+03  0.50000000000E+03  0.00000000000E+00 0. -1.
         11   -1    0    0    0    0 -0.00000000000E+00 -0.00000000000E+00 -0.50000000000E+03  0.50000000000E+03  0.00000000000E+00 0. -1.
        -11    1    1    2    0    0 -0.17332216156E+02 -0.12150382138E+02  0.25694160544E+03  0.25781199761E+03  0.00000000000E+00 0. -1.
         11    1    1    2    0    0  0.82056425667E+01 -0.78309583297E+01 -0.49816866006E+03  0.49829777277E+03  0.00000000000E+00 0. -1.
        -15    1    1    2    0    0 -0.25715748017E+01  0.21226221385E+02  0.19419610438E+03  0.19537771152E+03  0.17770000000E+01 0.  1.
         15    1    1    2    0    0  0.11698148391E+02 -0.12448809180E+01  0.47030950238E+02  0.48512518112E+02  0.17770000000E+01 0. -1.
</event>
<event>
 6    1  0.3836009E-003  0.5293130E+03  0.7546771E-02  0.9336507E-01
        -11   -1    0    0    0    0  0.00000000000E+00  0.00000000000E+00  0.50000000000E+03  0.50000000000E+03  0.00000000000E+00 0. -1.
         11   -1    0    0    0    0 -0.00000000000E+00 -0.00000000000E+00 -0.50000000000E+03  0.50000000000E+03  0.00000000000E+00 0.  1.
        -11    1    1    2    0    0 -0.26540808454E+01 -0.20076779129E+02  0.45910254998E+03  0.45954898825E+03  0.00000000000E+00 0. -1.
         11    1    1    2    0    0 -0.36322636176E+01  0.94336723601E+01 -0.47057842691E+03  0.47068699089E+03  0.00000000000E+00 0.  1.
        -15    1    1    2    0    0  0.15064832593E+02 -0.19358877964E+02 -0.14959431756E+02  0.28786414583E+02  0.17770000000E+01 0. -1.
         15    1    1    2    0    0 -0.87784881303E+01  0.30001984733E+02  0.26435308690E+02  0.40977606279E+02  0.17770000000E+01 0.  1.
</event>
<event>
 6    1  0.3836009E-003  0.5006857E+03  0.7546771E-02  0.9398277E-01
        -11   -1    0    0    0    0  0.00000000000E+00  0.00000000000E+00  0.50000000000E+03  0.50000000000E+03  0.00000000000E+00 0.  1.
         11   -1    0    0    0    0 -0.00000000000E+00 -0.00000000000E+00 -0.50000000000E+03  0.50000000000E+03  0.00000000000E+00 0. -1.
        -11    1    1    2    0    0 -0.21501862996E+01 -0.59056591027E+01  0.37080863047E+03  0.37086188877E+03  0.00000000000E+00 0.  1.
         11    1    1    2    0    0 -0.95787957339E+00  0.11613628177E+02 -0.49917826067E+03  0.49931425957E+03  0.00000000000E+00 0. -1.
        -15    1    1    2    0    0  0.28410694347E+01 -0.10751173439E+02  0.49153585185E+02  0.50427096599E+02  0.17770000000E+01 0.  1.
         15    1    1    2    0    0  0.26699643834E+00  0.50432043653E+01  0.79216045014E+02  0.79396755060E+02  0.17770000000E+01 0. -1.
</event>
<event>
 6    1  0.3836009E-003  0.5006375E+03  0.7546771E-02  0.9398384E-01
        -11   -1    0    0    0    0  0.00000000000E+00  0.00000000000E+00  0.50000000000E+03  0.50000000000E+03  0.00000000000E+00 0. -1.
         11   -1    0    0    0    0 -0.00000000000E+00 -0.00000000000E+00 -0.50000000000E+03  0.50000000000E+03  0.00000000000E+00 0. -1.
        -11    1    1    2    0    0 -0.23223929954E+01 -0.11916424199E+01  0.14412409883E+03  0.14414773458E+03  0.00000000000E+00 0. -1.
         11    1    1    2    0    0 -0.11624215913E+02 -0.24692422190E+01 -0.49922110672E+03  0.49936252658E+03  0.00000000000E+00 0. -1.
        -15    1    1    2    0    0  0.49529857976E+01  0.12364352091E+02  0.81457722818E+02  0.82558631327E+02  0.17770000000E+01 0. -1.
         15    1    1    2    0    0  0.89936231107E+01 -0.87034674522E+01  0.27363928507E+03  0.27393110752E+03  0.17770000000E+01 0.  1.
</event>
<event>
 6    1  0.3836009E-003  0.5003890E+03  0.7546771E-02  0.9398940E-01
        -11   -1    0    0    0    0  0.00000000000E+00  0.00000000000E+00  0.50000000000E+03  0.50000000000E+03  0.00000000000E+00 0.  1.
         11   -1    0    0    0    0 -0.00000000000E+00 -0.00000000000E+00 -0.50000000000E+03  0.50000000000E+03  0.00000000000E+00 0.  1.
        -11    1    1    2    0    0 -0.25717125809E+01  0.13196957392E+01  0.13616281240E+03  0.13619349024E+03  0.00000000000E+00 0.  1.
         11    1    1    2    0    0 -0.70139191067E+01  0.66173345075E+01 -0.49951796536E+03  0.49961103059E+03  0.00000000000E+00 0.  1.
        -15    1    1    2    0    0 -0.36451616671E+01 -0.13941595698E+01  0.22554170125E+03  0.22558246301E+03  0.17770000000E+01 0.  1.
         15    1    1    2    0    0  0.13230793355E+02 -0.65428706770E+01  0.13781345170E+03  0.13861301616E+03  0.17770000000E+01 0. -1.
</event>
<event>
 6    1  0.3836009E-003  0.4207637E+03  0.7546771E-02  0.9596965E-01
        -11   -1    0    0    0    0  0.00000000000E+00  0.00000000000E+00  0.50000000000E+03  0.50000000000E+03  0.00000000000E+00 0. -1.
         11   -1    0    0    0    0 -0.00000000000E+00 -0.00000000000E+00 -0.50000000000E+03  0.50000000000E+03  0.00000000000E+00 0. -1.
        -11    1    1    2    0    0 -0.22579308324E+02  0.37552229733E+02  0.42590889441E+03  0.42815695890E+03  0.00000000000E+00 0. -1.
         11    1    1    2    0    0  0.35728107634E+02 -0.87235510079E+01 -0.41243806699E+03  0.41407457918E+03  0.00000000000E+00 0. -1.
        -15    1    1    2    0    0  0.41232018721E+01 -0.41416327298E+02  0.64565641261E+02  0.76838744921E+02  0.17770000000E+01 0. -1.
         15    1    1    2    0    0 -0.17272001182E+02  0.12587648573E+02 -0.78036468676E+02  0.80929717001E+02  0.17770000000E+01 0.  1.
</event>
<event>
 6    1  0.3836009E-003  0.5001441E+03  0.7546771E-02  0.9399487E-01
        -11   -1    0    0    0    0  0.00000000000E+00  0.00000000000E+00  0.50000000000E+03  0.50000000000E+03  0.00000000000E+00 0.  1.
         11   -1    0    0    0    0 -0.00000000000E+00 -0.00000000000E+00 -0.50000000000E+03  0.50000000000E+03  0.00000000000E+00 0.  1.
        -11    1    1    2    0    0 -0.12411119896E+01 -0.31947767128E+00  0.89374773278E+02  0.89383961220E+02  0.00000000000E+00 0.  1.
         11    1    1    2    0    0 -0.13478312738E+01 -0.66120924444E+01 -0.49981034126E+03  0.49985589288E+03  0.00000000000E+00 0.  1.
        -15    1    1    2    0    0  0.79029885261E+01  0.66219844407E+01  0.23094887311E+03  0.23118574269E+03  0.17770000000E+01 0. -1.
         15    1    1    2    0    0 -0.53140452628E+01  0.30958567493E+00  0.17948669488E+03  0.17957440321E+03  0.17770000000E+01 0.  1.
</event>
<event>
 6    1  0.3836009E-003  0.4826391E+03  0.7546771E-02  0.9439517E-01
        -11   -1    0    0    0    0  0.00000000000E+00  0.00000000000E+00  0.50000000000E+03  0.50000000000E+03  0.00000000000E+00 0.  1.
         11   -1    0    0    0    0 -0.00000000000E+00 -0.00000000000E+00 -0.50000000000E+03  0.50000000000E+03  0.00000000000E+00 0. -1.
        -11    1    1    2    0    0 -0.35639661210E+01 -0.17053776913E+02  0.48416226239E+03  0.48447562321E+03  0.00000000000E+00 0.  1.
         11    1    1    2    0    0  0.18909022980E+01  0.67032217385E+01 -0.48081482762E+03  0.48086526923E+03  0.00000000000E+00 0. -1.
        -15    1    1    2    0    0 -0.39033714923E+00  0.79123199674E+01  0.14404404785E+02  0.16534865484E+02  0.17770000000E+01 0. -1.
         15    1    1    2    0    0  0.20634009722E+01  0.24382352069E+01 -0.17751839551E+02  0.18124242079E+02  0.17770000000E+01 0.  1.
</event>
<event>
 6    1  0.3836009E-003  0.5015425E+03  0.7546771E-02  0.9396365E-01
        -11   -1    0    0    0    0  0.00000000000E+00  0.00000000000E+00  0.50000000000E+03  0.50000000000E+03  0.00000000000E+00 0.  1.
         11   -1    0    0    0    0 -0.00000000000E+00 -0.00000000000E+00 -0.50000000000E+03  0.50000000000E+03  0.00000000000E+00 0.  1.
        -11    1    1    2    0    0 -0.36378135501E+01 -0.11332015677E+01  0.27201472753E+03  0.27204141196E+03  0.00000000000E+00 0.  1.
         11    1    1    2    0    0 -0.52400783473E+01 -0.64145824322E+01 -0.49838866917E+03  0.49845749151E+03  0.00000000000E+00 0.  1.
        -15    1    1    2    0    0  0.61466511423E+01  0.22450293831E+00  0.21729841099E+03  0.21739270657E+03  0.17770000000E+01 0.  1.
         15    1    1    2    0    0  0.27312407551E+01  0.73232810616E+01  0.90755306600E+01  0.12108389956E+02  0.17770000000E+01 0.  1.
</event>
<event>
 6    1  0.3836009E-003  0.5001616E+03  0.7546771E-02  0.9399448E-01
        -11   -1    0    0    0    0  0.00000000000E+00  0.00000000000E+00  0.50000000000E+03  0.50000000000E+03  0.00000000000E+00 0. -1.
         11   -1    0    0    0    0 -0.00000000000E+00 -0.00000000000E+00 -0.50000000000E+03  0.50000000000E+03  0.00000000000E+00 0.  1.
        -11    1    1    2    0    0  0.61993837086E+00  0.85744586693E+01  0.49976446168E+03  0.49983839670E+03  0.00000000000E+00 0. -1.
         11    1    1    2    0    0 -0.26135724004E+01 -0.35056059353E+01 -0.10158718033E+03  0.10168124331E+03  0.00000000000E+00 0.  1.
        -15    1    1    2    0    0  0.60135887322E+00  0.36589331414E+01 -0.44850272082E+02  0.45038362083E+02  0.17770000000E+01 0.  1.
         15    1    1    2    0    0  0.13922751564E+01 -0.87277858754E+01 -0.35332700927E+03  0.35344199790E+03  0.17770000000E+01 0.  1.
</event>
<event>
 6    1  0.3836009E-003  0.5015149E+03  0.7546771E-02  0.9396426E-01
        -11   -1    0    0    0    0  0.00000000000E+00  0.00000000000E+00  0.50000000000E+03  0.50000000000E+03  0.00000000000E+00 0.  1.
         11   -1    0    0    0    0 -0.00000000000E+00 -0.00000000000E+00 -0.50000000000E+03  0.50000000000E+03  0.00000000000E+00 0.  1.
        -11    1    1    2    0    0  0.23226334928E+02  0.16177739343E+02  0.49768088435E+03  0.49848514976E+03  0.00000000000E+00 0.  1.
         11    1    1    2    0    0 -0.13405690608E+02 -0.79951808157E+01 -0.21512796532E+03  0.21569347908E+03  0.00000000000E+00 0.  1.
        -15    1    1    2    0    0 -0.25264521327E+02 -0.10435982509E+02 -0.17930601600E+03  0.18138635801E+03  0.17770000000E+01 0. -1.
         15    1    1    2    0    0  0.15443877007E+02  0.22534239815E+01 -0.10324690304E+03  0.10443501315E+03  0.17770000000E+01 0.  1.
</event>
<event>
 6    1  0.3836009E-003  0.5031199E+03  0.7546771E-02  0.9392856E-01
        -11   -1    0    0    0    0  0.00000000000E+00  0.00000000000E+00  0.50000000000E+03  0.50000000000E+03  0.00000000000E+00 0.  1.
         11   -1    0    0    0    0 -0.00000000000E+00 -0.00000000000E+00 -0.50000000000E+03  0.50000000000E+03  0.00000000000E+00 0.  1.
        -11    1    1    2    0    0  0.96257891944E+01 -0.30577427563E+01  0.49677739982E+03  0.49688005654E+03  0.00000000000E+00 0.  1.
         11    1    1    2    0    0  0.14413629686E+01 -0.73080742061E+01 -0.45207832563E+03  0.45213968857E+03  0.00000000000E+00 0.  1.
        -15    1    1    2    0    0 -0.21385396090E+01  0.83940639605E+01 -0.39153561530E+02  0.40139665804E+02  0.17770000000E+01 0. -1.
         15    1    1    2    0    0 -0.89286125540E+01  0.19717530019E+01 -0.55455126591E+01  0.10840589084E+02  0.17770000000E+01 0.  1.
</event>
<event>
 6    1  0.3836009E-003  0.5116985E+03  0.7546771E-02  0.9374007E-01
        -11   -1    0    0    0    0  0.00000000000E+00  0.00000000000E+00  0.50000000000E+03  0.50000000000E+03  0.00000000000E+00 0.  1.
         11   -1    0    0    0    0 -0.00000000000E+00 -0.00000000000E+00 -0.50000000000E+03  0.50000000000E+03  0.00000000000E+00 0. -1.
        -11    1    1    2    0    0  0.21130886145E+02  0.18457540643E+02  0.48749478361E+03  0.48830150440E+03  0.00000000000E+00 0.  1.
         11    1    1    2    0    0  0.29567561681E+00 -0.12614440333E+02 -0.38973767706E+03  0.38994187830E+03  0.00000000000E+00 0. -1.
        -15    1    1    2    0    0  0.16913374301E+02  0.19837637981E+02 -0.40494993370E+02  0.48193322442E+02  0.17770000000E+01 0. -1.
         15    1    1    2    0    0 -0.38339936063E+02 -0.25680738291E+02 -0.57262113173E+02  0.73563294859E+02  0.17770000000E+01 0.  1.
</event>
<event>
 6    1  0.3836009E-003  0.5168749E+03  0.7546771E-02  0.9362823E-01
        -11   -1    0    0    0    0  0.00000000000E+00  0.00000000000E+00  0.50000000000E+03  0.50000000000E+03  0.00000000000E+00 0. -1.
         11   -1    0    0    0    0 -0.00000000000E+00 -0.00000000000E+00 -0.50000000000E+03  0.50000000000E+03  0.00000000000E+00 0. -1.
        -11    1    1    2    0    0 -0.83517031830E+00  0.85442815418E+01  0.48304880583E+03  0.48312508843E+03  0.00000000000E+00 0. -1.
         11    1    1    2    0    0 -0.38107241454E+02 -0.86966991209E+00 -0.14261726815E+03  0.14762318026E+03  0.00000000000E+00 0. -1.
        -15    1    1    2    0    0  0.18149688419E+02 -0.35033662872E+02 -0.15381261641E+02  0.42385252891E+02  0.17770000000E+01 0.  1.
         15    1    1    2    0    0  0.20792723354E+02  0.27359051243E+02 -0.32505027604E+03  0.32686647842E+03  0.17770000000E+01 0. -1.
</event>
<event>
 6    1  0.3836009E-003  0.4044062E+03  0.7546771E-02  0.9643471E-01
        -11   -1    0    0    0    0  0.00000000000E+00  0.00000000000E+00  0.50000000000E+03  0.50000000000E+03  0.00000000000E+00 0.  1.
         11   -1    0    0    0    0 -0.00000000000E+00 -0.00000000000E+00 -0.50000000000E+03  0.50000000000E+03  0.00000000000E+00 0. -1.
        -11    1    1    2    0    0  0.68099796922E+01  0.14910958700E+02  0.11695934550E+03  0.11810250215E+03  0.00000000000E+00 0.  1.
         11    1    1    2    0    0  0.25617286226E+00 -0.11764652608E+02 -0.42896219334E+03  0.42912356727E+03  0.00000000000E+00 0. -1.
        -15    1    1    2    0    0  0.16770878230E+02  0.49932801427E+01 -0.68862124077E+02  0.71072815229E+02  0.17770000000E+01 0. -1.
         15    1    1    2    0    0 -0.23837030785E+02 -0.81395862337E+01  0.38086497191E+03  0.38170111535E+03  0.17770000000E+01 0.  1.
</event>
<event>
 6    1  0.3836009E-003  0.4942519E+03  0.7546771E-02  0.9412764E-01
        -11   -1    0    0    0    0  0.00000000000E+00  0.00000000000E+00  0.50000000000E+03  0.50000000000E+03  0.00000000000E+00 0.  1.
         11   -1    0    0    0    0 -0.00000000000E+00 -0.00000000000E+00 -0.50000000000E+03  0.50000000000E+03  0.00000000000E+00 0. -1.
        -11    1    1    2    0    0  0.83280108429E+01  0.31240414324E+01  0.49325457838E+03  0.49333476920E+03  0.00000000000E+00 0.  1.
         11    1    1    2    0    0 -0.59034587735E+01 -0.80483009637E+01 -0.49508529117E+03  0.49518589591E+03  0.00000000000E+00 0. -1.
        -15    1    1    2    0    0 -0.27081542161E+01 -0.21347598569E+01  0.15844325732E+01  0.41904002772E+01  0.17770000000E+01 0.  1.
         15    1    1    2    0    0  0.28360214661E+00  0.70590193881E+01  0.24628021403E+00  0.72889346165E+01  0.17770000000E+01 0. -1.
</event>
<event>
 6    1  0.3836009E-003  0.3862669E+03  0.7546771E-02  0.9697871E-01
        -11   -1    0    0    0    0  0.00000000000E+00  0.00000000000E+00  0.50000000000E+03  0.50000000000E+03  0.00000000000E+00 0.  1.
         11   -1    0    0    0    0 -0.00000000000E+00 -0.00000000000E+00 -0.50000000000E+03  0.50000000000E+03  0.00000000000E+00 0.  1.
        -11    1    1    2    0    0 -0.68260810918E+01 -0.15044608430E+00  0.80924191788E+02  0.81211716110E+02  0.00000000000E+00 0.  1.
         11    1    1    2    0    0 -0.10482254856E+02  0.14107806671E+02 -0.36551646556E+03  0.36593878514E+03  0.00000000000E+00 0.  1.
        -15    1    1    2    0    0  0.47958763388E+02 -0.52727264945E+02 -0.12305263619E+03  0.14221573913E+03  0.17770000000E+01 0. -1.
         15    1    1    2    0    0 -0.30650427440E+02  0.38769904358E+02  0.40764490996E+03  0.41063375961E+03  0.17770000000E+01 0.  1.
</event>
<event>
 6    1  0.3836009E-003  0.5035156E+03  0.7546771E-02  0.9391977E-01
        -11   -1    0    0    0    0  0.00000000000E+00  0.00000000000E+00  0.50000000000E+03  0.50000000000E+03  0.00000000000E+00 0. -1.
         11   -1    0    0    0    0 -0.00000000000E+00 -0.00000000000E+00 -0.50000000000E+03  0.50000000000E+03  0.00000000000E+00 0.  1.
        -11    1    1    2    0    0 -0.90890235966E+01  0.53175881423E+01  0.49637267788E+03  0.49648436273E+03  0.00000000000E+00 0. -1.
         11    1    1    2    0    0 -0.12816869027E+02 -0.22930276444E+01 -0.34880977348E+03  0.34905270115E+03  0.00000000000E+00 0.  1.
        -15    1    1    2    0    0  0.23335001827E+02  0.13685196439E+01 -0.37077877026E+02  0.43867093020E+02  0.17770000000E+01 0. -1.
         15    1    1    2    0    0 -0.14291092042E+01 -0.43930801418E+01 -0.11048502738E+03  0.11059584309E+03  0.17770000000E+01 0.  1.
</event>
<event>
 6    1  0.3836009E-003  0.5299539E+03  0.7546771E-02  0.9335172E-01
        -11   -1    0    0    0    0  0.00000000000E+00  0.00000000000E+00  0.50000000000E+03  0.50000000000E+03  0.00000000000E+00 0.  1.
         11   -1    0    0    0    0 -0.00000000000E+00 -0.00000000000E+00 -0.50000000000E+03  0.50000000000E+03  0.00000000000E+00 0. -1.
        -11    1    1    2    0    0 -0.37251447941E+02 -0.45054172388E+02  0.35477558605E+03  0.35955982156E+03  0.00000000000E+00 0.  1.
         11    1    1    2    0    0 -0.76652420619E+01  0.15540268214E+02 -0.46972663848E+03  0.47004613685E+03  0.00000000000E+00 0. -1.
        -15    1    1    2    0    0  0.33714767406E+02  0.31996639842E+02  0.13743290103E+03  0.14509111109E+03  0.17770000000E+01 0.  1.
         15    1    1    2    0    0  0.11201922597E+02 -0.24827356679E+01 -0.22481848603E+02  0.25302930500E+02  0.17770000000E+01 0. -1.
</event>
<event>
 6    1  0.3836009E-003  0.5033944E+03  0.7546771E-02  0.9392246E-01
        -11   -1    0    0    0    0  0.00000000000E+00  0.00000000000E+00  0.50000000000E+03  0.50000000000E+03  0.00000000000E+00 0.  1.
         11   -1    0    0    0    0 -0.00000000000E+00 -0.00000000000E+00 -0.50000000000E+03  0.50000000000E+03  0.00000000000E+00 0. -1.
        -11    1    1    2    0    0  0.78267626910E+01  0.15808625684E+02  0.49629221873E+03  0.49660561539E+03  0.00000000000E+00 0.  1.
         11    1    1    2    0    0  0.66348842205E+01 -0.11811197059E+02 -0.47215764852E+03  0.47235195683E+03  0.00000000000E+00 0. -1.
        -15    1    1    2    0    0 -0.28574758589E+01 -0.59558648174E+01 -0.48671500940E+01  0.83954971887E+01  0.17770000000E+01 0. -1.
         15    1    1    2    0    0 -0.11604171053E+02  0.19584361919E+01 -0.19267420117E+02  0.22646930589E+02  0.17770000000E+01 0.  1.
</event>
<event>
 6    1  0.3836009E-003  0.5045590E+03  0.7546771E-02  0.9389666E-01
        -11   -1    0    0    0    0  0.00000000000E+00  0.00000000000E+00  0.50000000000E+03  0.50000000000E+03  0.00000000000E+00 0. -1.
         11   -1    0    0    0    0 -0.00000000000E+00 -0.00000000000E+00 -0.50000000000E+03  0.50000000000E+03  0.00000000000E+00 0.  1.
        -11    1    1    2    0    0 -0.68714783784E+01 -0.64226628905E+01  0.49535167802E+03  0.49544096795E+03  0.00000000000E+00 0. -1.
         11    1    1    2    0    0  0.11324741008E+02 -0.12034916476E+01 -0.35750546636E+03  0.35768681361E+03  0.00000000000E+00 0.  1.
        -15    1    1    2    0    0  0.68458582634E+01  0.91235908204E+01 -0.35443271856E+01  0.12075829952E+02  0.17770000000E+01 0.  1.
         15    1    1    2    0    0 -0.11299120893E+02 -0.14974362822E+01 -0.13430188447E+03  0.13479638848E+03  0.17770000000E+01 0.  1.
</event>
<event>
 6    1  0.3836009E-003  0.5003653E+03  0.7546771E-02  0.9398993E-01
        -11   -1    0    0    0    0  0.00000000000E+00  0.00000000000E+00  0.50000000000E+03  0.50000000000E+03  0.00000000000E+00 0.  1.
         11   -1    0    0    0    0 -0.00000000000E+00 -0.00000000000E+00 -0.50000000000E+03  0.50000000000E+03  0.00000000000E+00 0.  1.
        -11    1    1    2    0    0  0.26962267053E+01 -0.90279011186E+01  0.49954590130E+03  0.49963474673E+03  0.00000000000E+00 0.  1.
         11    1    1    2    0    0  0.49707218520E+01 -0.25339502821E+01 -0.30880150803E+03  0.30885190682E+03  0.00000000000E+00 0.  1.
        -15    1    1    2    0    0 -0.76806870345E+01  0.42835391553E+01 -0.12988688353E+03  0.13019639743E+03  0.17770000000E+01 0.  1.
         15    1    1    2    0    0  0.13738477202E-01  0.72783122453E+01 -0.60857509732E+02  0.61316949024E+02  0.17770000000E+01 0. -1.
</event>
<event>
 6    1  0.3836009E-003  0.5088308E+03  0.7546771E-02  0.9380264E-01
        -11   -1    0    0    0    0  0.00000000000E+00  0.00000000000E+00  0.50000000000E+03  0.50000000000E+03  0.00000000000E+00 0. -1.
         11   -1    0    0    0    0 -0.00000000000E+00 -0.00000000000E+00 -0.50000000000E+03  0.50000000000E+03  0.00000000000E+00 0.  1.
        -11    1    1    2    0    0 -0.78697781609E+01 -0.43658620432E+01  0.44015482278E+03  0.44024681961E+03  0.00000000000E+00 0. -1.
         11    1    1    2    0    0  0.69649047938E+01  0.17683823916E+01 -0.49111662021E+03  0.49116918849E+03  0.00000000000E+00 0.  1.
        -15    1    1    2    0    0  0.12530743779E+02  0.19975937915E+02  0.34905775022E+02  0.42161931812E+02  0.17770000000E+01 0.  1.
         15    1    1    2    0    0 -0.11625870412E+02 -0.17378458263E+02  0.16056022416E+02  0.26422060087E+02  0.17770000000E+01 0. -1.
</event>
<event>
 6    1  0.3836009E-003  0.5026122E+03  0.7546771E-02  0.9393984E-01
        -11   -1    0    0    0    0  0.00000000000E+00  0.00000000000E+00  0.50000000000E+03  0.50000000000E+03  0.00000000000E+00 0.  1.
         11   -1    0    0    0    0 -0.00000000000E+00 -0.00000000000E+00 -0.50000000000E+03  0.50000000000E+03  0.00000000000E+00 0. -1.
        -11    1    1    2    0    0  0.76580275103E+00  0.87552007144E+01  0.42820727490E+03  0.42829745536E+03  0.00000000000E+00 0.  1.
         11    1    1    2    0    0 -0.92382138923E+01 -0.15520907919E+02 -0.49705977799E+03  0.49738784271E+03  0.00000000000E+00 0. -1.
        -15    1    1    2    0    0  0.20131700389E+01 -0.16092386963E+01  0.60857293223E+02  0.60937758166E+02  0.17770000000E+01 0. -1.
         15    1    1    2    0    0  0.64592411024E+01  0.83749459010E+01  0.79952098716E+01  0.13376943760E+02  0.17770000000E+01 0.  1.
</event>
<event>
 6    1  0.3836009E-003  0.5101071E+03  0.7546771E-02  0.9377474E-01
        -11   -1    0    0    0    0  0.00000000000E+00  0.00000000000E+00  0.50000000000E+03  0.50000000000E+03  0.00000000000E+00 0. -1.
         11   -1    0    0    0    0 -0.00000000000E+00 -0.00000000000E+00 -0.50000000000E+03  0.50000000000E+03  0.00000000000E+00 0.  1.
        -11    1    1    2    0    0  0.30070982485E+01 -0.19137613149E+02  0.48950971394E+03  0.48989289739E+03  0.00000000000E+00 0. -1.
         11    1    1    2    0    0  0.10269369651E+02  0.86898832885E+01 -0.40984165615E+03  0.41006238201E+03  0.00000000000E+00 0.  1.
        -15    1    1    2    0    0 -0.13572793732E+02  0.32729313090E+02 -0.33709271424E+02  0.48937729555E+02  0.17770000000E+01 0.  1.
         15    1    1    2    0    0  0.29632583262E+00 -0.22281583229E+02 -0.45958786363E+02  0.51106991040E+02  0.17770000000E+01 0. -1.
</event>
<event>
 6    1  0.3836009E-003  0.5011293E+03  0.7546771E-02  0.9397286E-01
        -11   -1    0    0    0    0  0.00000000000E+00  0.00000000000E+00  0.50000000000E+03  0.50000000000E+03  0.00000000000E+00 0. -1.
         11   -1    0    0    0    0 -0.00000000000E+00 -0.00000000000E+00 -0.50000000000E+03  0.50000000000E+03  0.00000000000E+00 0.  1.
        -11    1    1    2    0    0  0.30309678893E+01 -0.63782301728E+01  0.42814822003E+03  0.42820645359E+03  0.00000000000E+00 0. -1.
         11    1    1    2    0    0  0.10717698974E+01 -0.83790361391E+01 -0.49879918673E+03  0.49887071032E+03  0.00000000000E+00 0.  1.
        -15    1    1    2    0    0 -0.66881248171E+01  0.10964300744E+02  0.46403276086E+02  0.48180583899E+02  0.17770000000E+01 0.  1.
         15    1    1    2    0    0  0.25853870304E+01  0.37929655679E+01  0.24247690616E+02  0.24742252183E+02  0.17770000000E+01 0. -1.
</event>
<event>
 6    1  0.3836009E-003  0.5249678E+03  0.7546771E-02  0.9345612E-01
        -11   -1    0    0    0    0  0.00000000000E+00  0.00000000000E+00  0.50000000000E+03  0.50000000000E+03  0.00000000000E+00 0.  1.
         11   -1    0    0    0    0 -0.00000000000E+00 -0.00000000000E+00 -0.50000000000E+03  0.50000000000E+03  0.00000000000E+00 0.  1.
        -11    1    1    2    0    0  0.17361792569E+02  0.20763922637E+02  0.42802004985E+03  0.42887496476E+03  0.00000000000E+00 0.  1.
         11    1    1    2    0    0  0.26620968965E+01  0.70635204027E+01 -0.47497217373E+03  0.47503215249E+03  0.00000000000E+00 0.  1.
        -15    1    1    2    0    0 -0.17365705716E+02 -0.42748629127E+02 -0.57189766268E+00  0.46178975987E+02  0.17770000000E+01 0. -1.
         15    1    1    2    0    0 -0.26581837495E+01  0.14921186087E+02  0.47524021550E+02  0.49913906764E+02  0.17770000000E+01 0.  1.
</event>
<event>
 6    1  0.3836009E-003  0.5119612E+03  0.7546771E-02  0.9373436E-01
        -11   -1    0    0    0    0  0.00000000000E+00  0.00000000000E+00  0.50000000000E+03  0.50000000000E+03  0.00000000000E+00 0. -1.
         11   -1    0    0    0    0 -0.00000000000E+00 -0.00000000000E+00 -0.50000000000E+03  0.50000000000E+03  0.00000000000E+00 0. -1.
        -11    1    1    2    0    0 -0.75954619577E+01  0.56869406777E+01  0.44121898601E+03  0.44132100104E+03  0.00000000000E+00 0. -1.
         11    1    1    2    0    0 -0.37538387112E+00  0.67335304847E+01 -0.48799222302E+03  0.48803882128E+03  0.00000000000E+00 0. -1.
        -15    1    1    2    0    0  0.14374585109E+01 -0.44216025631E+01 -0.10921051405E+02  0.12001831068E+02  0.17770000000E+01 0.  1.
         15    1    1    2    0    0  0.65333873180E+01 -0.79988685993E+01  0.57694288415E+02  0.58638346612E+02  0.17770000000E+01 0. -1.
</event>
<event>
 6    1  0.3836009E-003  0.5053964E+03  0.7546771E-02  0.9387815E-01
        -11   -1    0    0    0    0  0.00000000000E+00  0.00000000000E+00  0.50000000000E+03  0.50000000000E+03  0.00000000000E+00 0.  1.
         11   -1    0    0    0    0 -0.00000000000E+00 -0.00000000000E+00 -0.50000000000E+03  0.50000000000E+03  0.00000000000E+00 0. -1.
        -11    1    1    2    0    0  0.88126094846E+01 -0.10712407212E+02  0.49440900517E+03  0.49460356059E+03  0.00000000000E+00 0.  1.
         11    1    1    2    0    0 -0.88248712934E+01 -0.55388882734E+00 -0.48558082525E+03  0.48566132540E+03  0.00000000000E+00 0. -1.
        -15    1    1    2    0    0 -0.54919786001E+01  0.84226960451E+01 -0.21126382069E+01  0.10427109226E+02  0.17770000000E+01 0. -1.
         15    1    1    2    0    0  0.55042404088E+01  0.28435999940E+01 -0.67155417186E+01  0.93080047797E+01  0.17770000000E+01 0.  1.
</event>
<event>
 6    1  0.3836009E-003  0.5071874E+03  0.7546771E-02  0.9383869E-01
        -11   -1    0    0    0    0  0.00000000000E+00  0.00000000000E+00  0.50000000000E+03  0.50000000000E+03  0.00000000000E+00 0.  1.
         11   -1    0    0    0    0 -0.00000000000E+00 -0.00000000000E+00 -0.50000000000E+03  0.50000000000E+03  0.00000000000E+00 0. -1.
        -11    1    1    2    0    0  0.57456963492E+01  0.10569524835E+02  0.44703203419E+03  0.44719388130E+03  0.00000000000E+00 0.  1.
         11    1    1    2    0    0  0.93609929056E+01  0.17210807472E+02 -0.49242296081E+03  0.49281255302E+03  0.00000000000E+00 0. -1.
        -15    1    1    2    0    0 -0.82572535447E+01 -0.42140454071E+01  0.13364928423E+01  0.95333287424E+01  0.17770000000E+01 0. -1.
         15    1    1    2    0    0 -0.68494357101E+01 -0.23566286900E+02  0.44054433779E+02  0.50460236943E+02  0.17770000000E+01 0.  1.
</event>
<event>
 6    1  0.3836009E-003  0.5063202E+03  0.7546771E-02  0.9385778E-01
        -11   -1    0    0    0    0  0.00000000000E+00  0.00000000000E+00  0.50000000000E+03  0.50000000000E+03  0.00000000000E+00 0.  1.
         11   -1    0    0    0    0 -0.00000000000E+00 -0.00000000000E+00 -0.50000000000E+03  0.50000000000E+03  0.00000000000E+00 0.  1.
        -11    1    1    2    0    0  0.10243094649E+02  0.15321819185E+01  0.47329544544E+03  0.47340875281E+03  0.00000000000E+00 0.  1.
         11    1    1    2    0    0  0.49912236103E+01  0.12169501280E+02 -0.49350450471E+03  0.49367975981E+03  0.00000000000E+00 0.  1.
        -15    1    1    2    0    0 -0.16420299122E+02 -0.88381621861E+01  0.20268504366E+02  0.27599082092E+02  0.17770000000E+01 0.  1.
         15    1    1    2    0    0  0.11859808630E+01 -0.48635210125E+01 -0.59445092906E-01  0.53124052900E+01  0.17770000000E+01 0. -1.
</event>
<event>
 6    1  0.3836009E-003  0.5165271E+03  0.7546771E-02  0.9363570E-01
        -11   -1    0    0    0    0  0.00000000000E+00  0.00000000000E+00  0.50000000000E+03  0.50000000000E+03  0.00000000000E+00 0. -1.
         11   -1    0    0    0    0 -0.00000000000E+00 -0.00000000000E+00 -0.50000000000E+03  0.50000000000E+03  0.00000000000E+00 0. -1.
        -11    1    1    2    0    0 -0.11750362626E+02 -0.13240792284E+02  0.48314872573E+03  0.48347293697E+03  0.00000000000E+00 0. -1.
         11    1    1    2    0    0 -0.67724656448E+01 -0.23424594203E+01 -0.41761995413E+03  0.41768143302E+03  0.00000000000E+00 0. -1.
        -15    1    1    2    0    0 -0.15348277523E+02 -0.25570233495E+01  0.66840715715E+01  0.17027698997E+02  0.17770000000E+01 0.  1.
         15    1    1    2    0    0  0.33871105794E+02  0.18140275054E+02 -0.72212843176E+02  0.81817931014E+02  0.17770000000E+01 0. -1.
</event>
<event>
 6    1  0.3836009E-003  0.5014340E+03  0.7546771E-02  0.9396607E-01
        -11   -1    0    0    0    0  0.00000000000E+00  0.00000000000E+00  0.50000000000E+03  0.50000000000E+03  0.00000000000E+00 0.  1.
         11   -1    0    0    0    0 -0.00000000000E+00 -0.00000000000E+00 -0.50000000000E+03  0.50000000000E+03  0.00000000000E+00 0.  1.
        -11    1    1    2    0    0  0.25917079967E+01 -0.10872301099E+02  0.42807492357E+03  0.42822081228E+03  0.00000000000E+00 0.  1.
         11    1    1    2    0    0 -0.97938891793E+01 -0.46506615626E+01 -0.49844808495E+03  0.49856598592E+03  0.00000000000E+00 0.  1.
        -15    1    1    2    0    0 -0.65785100534E+00  0.46447858468E+01  0.34643510306E+02  0.35004818795E+02  0.17770000000E+01 0.  1.
         15    1    1    2    0    0  0.78600321879E+01  0.10878176814E+02  0.35729651075E+02  0.38208383004E+02  0.17770000000E+01 0. -1.
</event>
<event>
 6    1  0.3836009E-003  0.5064227E+03  0.7546771E-02  0.9385552E-01
        -11   -1    0    0    0    0  0.00000000000E+00  0.00000000000E+00  0.50000000000E+03  0.50000000000E+03  0.00000000000E+00 0.  1.
         11   -1    0    0    0    0 -0.00000000000E+00 -0.00000000000E+00 -0.50000000000E+03  0.50000000000E+03  0.00000000000E+00 0. -1.
        -11    1    1    2    0    0  0.40722839360E+01 -0.69185643695E+01  0.49351198576E+03  0.49357727877E+03  0.00000000000E+00 0.  1.
         11    1    1    2    0    0 -0.62507976790E+01  0.34237282532E+01 -0.47963791819E+03  0.47969086603E+03  0.00000000000E+00 0. -1.
        -15    1    1    2    0    0  0.89978210953E+01 -0.24989114456E+01 -0.14632941829E+02  0.17449528889E+02  0.17770000000E+01 0.  1.
         15    1    1    2    0    0 -0.68193073523E+01  0.59937475619E+01  0.75887425504E+00  0.92823263106E+01  0.17770000000E+01 0.  1.
</event>
<event>
 6    1  0.3836009E-003  0.5005966E+03  0.7546771E-02  0.9398476E-01
        -11   -1    0    0    0    0  0.00000000000E+00  0.00000000000E+00  0.50000000000E+03  0.50000000000E+03  0.00000000000E+00 0.  1.
         11   -1    0    0    0    0 -0.00000000000E+00 -0.00000000000E+00 -0.50000000000E+03  0.50000000000E+03  0.00000000000E+00 0.  1.
        -11    1    1    2    0    0 -0.83771902432E+01  0.53650714228E+01  0.32882337543E+03  0.32897381892E+03  0.00000000000E+00 0.  1.
         11    1    1    2    0    0  0.46828625733E+01  0.71467895162E+01 -0.49933030634E+03  0.49940340471E+03  0.00000000000E+00 0.  1.
        -15    1    1    2    0    0 -0.23934857949E+01 -0.87051128765E+01  0.13702347827E+03  0.13733207597E+03  0.17770000000E+01 0.  1.
         15    1    1    2    0    0  0.60878134647E+01 -0.38067480626E+01  0.33483452644E+02  0.34290700394E+02  0.17770000000E+01 0. -1.
</event>
<event>
 6    1  0.3836009E-003  0.5009854E+03  0.7546771E-02  0.9397607E-01
        -11   -1    0    0    0    0  0.00000000000E+00  0.00000000000E+00  0.50000000000E+03  0.50000000000E+03  0.00000000000E+00 0.  1.
         11   -1    0    0    0    0 -0.00000000000E+00 -0.00000000000E+00 -0.50000000000E+03  0.50000000000E+03  0.00000000000E+00 0.  1.
        -11    1    1    2    0    0  0.71128664584E-01  0.12957096961E+02  0.29096731702E+03  0.29125567977E+03  0.00000000000E+00 0.  1.
         11    1    1    2    0    0  0.12577553332E+02 -0.46142226931E+01 -0.49883469550E+03  0.49901456826E+03  0.00000000000E+00 0.  1.
        -15    1    1    2    0    0 -0.14006049368E+02  0.25787312470E+01  0.72678358421E+02  0.74081851931E+02  0.17770000000E+01 0.  1.
         15    1    1    2    0    0  0.13573673723E+01 -0.10921605514E+02  0.13518902006E+03  0.13564790004E+03  0.17770000000E+01 0. -1.
</event>
<event>
 6    1  0.3836009E-003  0.5011932E+03  0.7546771E-02  0.9397144E-01
        -11   -1    0    0    0    0  0.00000000000E+00  0.00000000000E+00  0.50000000000E+03  0.50000000000E+03  0.00000000000E+00 0.  1.
         11   -1    0    0    0    0 -0.00000000000E+00 -0.00000000000E+00 -0.50000000000E+03  0.50000000000E+03  0.00000000000E+00 0. -1.
        -11    1    1    2    0    0  0.67724603457E+01 -0.48672649611E+01  0.49873710134E+03  0.49880682908E+03  0.00000000000E+00 0.  1.
         11    1    1    2    0    0 -0.69187169962E+01  0.30009180444E+01 -0.44244042315E+03  0.44250469171E+03  0.00000000000E+00 0. -1.
        -15    1    1    2    0    0 -0.44173387006E+01  0.97614662268E+00 -0.51652792078E+02  0.51880963771E+02  0.17770000000E+01 0. -1.
         15    1    1    2    0    0  0.45635953511E+01  0.89020029400E+00 -0.46438861179E+01  0.68075154328E+01  0.17770000000E+01 0.  1.
</event>
<event>
 6    1  0.3836009E-003  0.5069132E+03  0.7546771E-02  0.9384472E-01
        -11   -1    0    0    0    0  0.00000000000E+00  0.00000000000E+00  0.50000000000E+03  0.50000000000E+03  0.00000000000E+00 0. -1.
         11   -1    0    0    0    0 -0.00000000000E+00 -0.00000000000E+00 -0.50000000000E+03  0.50000000000E+03  0.00000000000E+00 0. -1.
        -11    1    1    2    0    0 -0.13771317266E+02 -0.51559290784E+01  0.46006287914E+03  0.46029782267E+03  0.00000000000E+00 0. -1.
         11    1    1    2    0    0  0.81535102727E+01  0.65562812502E+00 -0.49301895623E+03  0.49308680856E+03  0.00000000000E+00 0. -1.
        -15    1    1    2    0    0 -0.62172801231E+01  0.17954043573E+01 -0.39060709983E+01  0.77648675828E+01  0.17770000000E+01 0.  1.
         15    1    1    2    0    0  0.11835087116E+02  0.27048965961E+01  0.36862148081E+02  0.38850501191E+02  0.17770000000E+01 0.  1.
</event>
<event>
 6    1  0.3836009E-003  0.5009644E+03  0.7546771E-02  0.9397654E-01
        -11   -1    0    0    0    0  0.00000000000E+00  0.00000000000E+00  0.50000000000E+03  0.50000000000E+03  0.00000000000E+00 0. -1.
         11   -1    0    0    0    0 -0.00000000000E+00 -0.00000000000E+00 -0.50000000000E+03  0.50000000000E+03  0.00000000000E+00 0. -1.
        -11    1    1    2    0    0  0.93904159564E+01 -0.19017909705E+01  0.41190469243E+03  0.41201610693E+03  0.00000000000E+00 0. -1.
         11    1    1    2    0    0  0.26313404229E+01  0.77929079184E+01 -0.49896783350E+03  0.49903562221E+03  0.00000000000E+00 0. -1.
        -15    1    1    2    0    0 -0.57576237800E+01 -0.49679209118E+01  0.18640427809E+02  0.20210238684E+02  0.17770000000E+01 0. -1.
         15    1    1    2    0    0 -0.62641325993E+01 -0.92319603607E+00  0.68422713265E+02  0.68738032178E+02  0.17770000000E+01 0.  1.
</event>
<event>
 6    1  0.3836009E-003  0.5787199E+03  0.7546771E-02  0.9239079E-01
        -11   -1    0    0    0    0  0.00000000000E+00  0.00000000000E+00  0.50000000000E+03  0.50000000000E+03  0.00000000000E+00 0. -1.
         11   -1    0    0    0    0 -0.00000000000E+00 -0.00000000000E+00 -0.50000000000E+03  0.50000000000E+03  0.00000000000E+00 0. -1.
        -11    1    1    2    0    0 -0.33883110539E+02  0.26839168284E+02  0.41905674095E+03  0.42128014227E+03  0.00000000000E+00 0. -1.
         11    1    1    2    0    0  0.68148724751E+01  0.71042019971E+01 -0.29832635623E+03  0.29848873847E+03  0.00000000000E+00 0. -1.
        -15    1    1    2    0    0  0.19609658657E+02 -0.28468613630E+02 -0.19870096239E+03  0.20169340807E+03  0.17770000000E+01 0.  1.
         15    1    1    2    0    0  0.74585794077E+01 -0.54747566515E+01  0.77970577673E+02  0.78537711189E+02  0.17770000000E+01 0. -1.
</event>
<event>
 6    1  0.4328290E-003  0.5096421E+03  0.7546771E-02  0.9378490E-01
        -11   -1    0    0    0    0  0.00000000000E+00  0.00000000000E+00  0.50000000000E+03  0.50000000000E+03  0.00000000000E+00 0.  1.
         11   -1    0    0    0    0 -0.00000000000E+00 -0.00000000000E+00 -0.50000000000E+03  0.50000000000E+03  0.00000000000E+00 0. -1.
        -11    1    1    2    0    0  0.84840199626E+01  0.92706566844E+01  0.46197305325E+03  0.46214394468E+03  0.00000000000E+00 0.  1.
         11    1    1    2    0    0 -0.14285036792E+02 -0.11016180374E+02 -0.49002600636E+03  0.49035793602E+03  0.00000000000E+00 0. -1.
        -15    1    1    2    0    0 -0.62568095517E+01 -0.85628154090E+01  0.29568978308E+02  0.31463497591E+02  0.17770000000E+01 0.  1.
         15    1    1    2    0    0  0.12057826382E+02  0.10308339098E+02 -0.15160251972E+01  0.16034621711E+02  0.17770000000E+01 0. -1.
</event>
<event>
 6    1  0.3836009E-003  0.5015152E+03  0.7546771E-02  0.9396426E-01
        -11   -1    0    0    0    0  0.00000000000E+00  0.00000000000E+00  0.50000000000E+03  0.50000000000E+03  0.00000000000E+00 0.  1.
         11   -1    0    0    0    0 -0.00000000000E+00 -0.00000000000E+00 -0.50000000000E+03  0.50000000000E+03  0.00000000000E+00 0.  1.
        -11    1    1    2    0    0  0.74195403811E+01 -0.11156051560E+01  0.49842833745E+03  0.49848480591E+03  0.00000000000E+00 0.  1.
         11    1    1    2    0    0 -0.69968323942E+01 -0.72238110969E+01 -0.32244960116E+03  0.32260639237E+03  0.00000000000E+00 0.  1.
        -15    1    1    2    0    0 -0.10229499803E+02 -0.24125832604E+01 -0.13438214212E+03  0.13480423240E+03  0.17770000000E+01 0.  1.
         15    1    1    2    0    0  0.98067918158E+01  0.10751999513E+02 -0.41596594164E+02  0.44104569313E+02  0.17770000000E+01 0. -1.
</event>
<event>
 6    1  0.3836009E-003  0.5005340E+03  0.7546771E-02  0.9398616E-01
        -11   -1    0    0    0    0  0.00000000000E+00  0.00000000000E+00  0.50000000000E+03  0.50000000000E+03  0.00000000000E+00 0.  1.
         11   -1    0    0    0    0 -0.00000000000E+00 -0.00000000000E+00 -0.50000000000E+03  0.50000000000E+03  0.00000000000E+00 0.  1.
        -11    1    1    2    0    0  0.36858216545E+01 -0.10369568057E+02  0.49934470342E+03  0.49946596086E+03  0.00000000000E+00 0.  1.
         11    1    1    2    0    0 -0.54042610074E+01  0.14639389729E+01 -0.29289830554E+03  0.29295181608E+03  0.00000000000E+00 0.  1.
        -15    1    1    2    0    0  0.10089300109E+02  0.32182760266E+01 -0.13099943979E+03  0.13143881554E+03  0.17770000000E+01 0.  1.
         15    1    1    2    0    0 -0.83708607557E+01  0.56873530580E+01 -0.75446958094E+02  0.76143407523E+02  0.17770000000E+01 0. -1.
</event>
<event>
 6    1  0.3836009E-003  0.5001574E+03  0.7546771E-02  0.9399457E-01
        -11   -1    0    0    0    0  0.00000000000E+00  0.00000000000E+00  0.50000000000E+03  0.50000000000E+03  0.00000000000E+00 0. -1.
         11   -1    0    0    0    0 -0.00000000000E+00 -0.00000000000E+00 -0.50000000000E+03  0.50000000000E+03  0.00000000000E+00 0.  1.
        -11    1    1    2    0    0  0.29767455636E+01 -0.43129354641E+00  0.31957370389E+02  0.32098606674E+02  0.00000000000E+00 0. -1.
         11    1    1    2    0    0 -0.12504142392E+02  0.37553617539E+01 -0.49967201133E+03  0.49984255044E+03  0.00000000000E+00 0.  1.
        -15    1    1    2    0    0  0.12030945195E+02 -0.55876663441E+01  0.29674843561E+03  0.29705009244E+03  0.17770000000E+01 0. -1.
         15    1    1    2    0    0 -0.25035483664E+01  0.22635981366E+01  0.17096620534E+03  0.17100875044E+03  0.17770000000E+01 0.  1.
</event>
<event>
 6    1  0.3836009E-003  0.5009256E+03  0.7546771E-02  0.9397741E-01
        -11   -1    0    0    0    0  0.00000000000E+00  0.00000000000E+00  0.50000000000E+03  0.50000000000E+03  0.00000000000E+00 0. -1.
         11   -1    0    0    0    0 -0.00000000000E+00 -0.00000000000E+00 -0.50000000000E+03  0.50000000000E+03  0.00000000000E+00 0. -1.
        -11    1    1    2    0    0  0.32885978703E+01 -0.22135676744E+01  0.25616199067E+03  0.25619266231E+03  0.00000000000E+00 0. -1.
         11    1    1    2    0    0  0.96192275021E+01  0.18545800165E+02 -0.49863695007E+03  0.49907442753E+03  0.00000000000E+00 0. -1.
        -15    1    1    2    0    0 -0.10278688186E+02 -0.21751811940E+02  0.13980333045E+03  0.14186938249E+03  0.17770000000E+01 0. -1.
         15    1    1    2    0    0 -0.26291371860E+01  0.54195794499E+01  0.10267162895E+03  0.10286352766E+03  0.17770000000E+01 0.  1.
</event>
<event>
 6    1  0.3836009E-003  0.5002879E+03  0.7546771E-02  0.9399166E-01
        -11   -1    0    0    0    0  0.00000000000E+00  0.00000000000E+00  0.50000000000E+03  0.50000000000E+03  0.00000000000E+00 0. -1.
         11   -1    0    0    0    0 -0.00000000000E+00 -0.00000000000E+00 -0.50000000000E+03  0.50000000000E+03  0.00000000000E+00 0. -1.
        -11    1    1    2    0    0 -0.53483351657E+01 -0.52355376143E+01  0.49965601159E+03  0.49971206255E+03  0.00000000000E+00 0. -1.
         11    1    1    2    0    0  0.35437973637E+01  0.12926694892E+01 -0.19453338818E+03  0.19456995814E+03  0.00000000000E+00 0. -1.
        -15    1    1    2    0    0 -0.58756937576E+01  0.54529419518E+01 -0.73655211662E+02  0.74111445048E+02  0.17770000000E+01 0.  1.
         15    1    1    2    0    0  0.76802315596E+01 -0.15100738267E+01 -0.23146741175E+03  0.23160653426E+03  0.17770000000E+01 0. -1.
</event>
<event>
 6    1  0.3836009E-003  0.5096198E+03  0.7546771E-02  0.9378538E-01
        -11   -1    0    0    0    0  0.00000000000E+00  0.00000000000E+00  0.50000000000E+03  0.50000000000E+03  0.00000000000E+00 0. -1.
         11   -1    0    0    0    0 -0.00000000000E+00 -0.00000000000E+00 -0.50000000000E+03  0.50000000000E+03  0.00000000000E+00 0.  1.
        -11    1    1    2    0    0 -0.76282903993E-01  0.91971440183E+01  0.43233481286E+03  0.43243263485E+03  0.00000000000E+00 0. -1.
         11    1    1    2    0    0 -0.70859989851E+01  0.76505642982E+00 -0.49032844627E+03  0.49038024217E+03  0.00000000000E+00 0.  1.
        -15    1    1    2    0    0 -0.14581768784E+01 -0.78070127457E+01  0.65140061626E+02  0.65646485705E+02  0.17770000000E+01 0.  1.
         15    1    1    2    0    0  0.86204587675E+01 -0.21551877024E+01 -0.71464282110E+01  0.11540637269E+02  0.17770000000E+01 0. -1.
</event>
<event>
 6    1  0.3836009E-003  0.5001632E+03  0.7546771E-02  0.9399445E-01
        -11   -1    0    0    0    0  0.00000000000E+00  0.00000000000E+00  0.50000000000E+03  0.50000000000E+03  0.00000000000E+00 0. -1.
         11   -1    0    0    0    0 -0.00000000000E+00 -0.00000000000E+00 -0.50000000000E+03  0.50000000000E+03  0.00000000000E+00 0. -1.
        -11    1    1    2    0    0  0.63437398460E+01 -0.54632596595E+01  0.49976670460E+03  0.49983682264E+03  0.00000000000E+00 0. -1.
         11    1    1    2    0    0  0.16369698931E+01  0.35937470338E+01 -0.23483404088E+03  0.23486724217E+03  0.00000000000E+00 0. -1.
        -15    1    1    2    0    0  0.13826070311E+01  0.34872573151E+01 -0.68657111591E+02  0.68782477905E+02  0.17770000000E+01 0.  1.
         15    1    1    2    0    0 -0.93633167702E+01 -0.16177446894E+01 -0.19627555213E+03  0.19651345728E+03  0.17770000000E+01 0. -1.
</event>
<event>
 6    1  0.3836009E-003  0.5125182E+03  0.7546771E-02  0.9372227E-01
        -11   -1    0    0    0    0  0.00000000000E+00  0.00000000000E+00  0.50000000000E+03  0.50000000000E+03  0.00000000000E+00 0.  1.
         11   -1    0    0    0    0 -0.00000000000E+00 -0.00000000000E+00 -0.50000000000E+03  0.50000000000E+03  0.00000000000E+00 0. -1.
        -11    1    1    2    0    0  0.49638037296E+01 -0.55492006829E+01  0.48742489668E+03  0.48748175645E+03  0.00000000000E+00 0.  1.
         11    1    1    2    0    0  0.88014264031E+01 -0.54887044812E+01 -0.24121723789E+03  0.24144015167E+03  0.00000000000E+00 0. -1.
        -15    1    1    2    0    0 -0.78111667914E+00  0.58025730918E+01  0.11477621848E+02  0.13006672519E+02  0.17770000000E+01 0.  1.
         15    1    1    2    0    0 -0.12984113454E+02  0.52353320723E+01 -0.25768528063E+03  0.25807141936E+03  0.17770000000E+01 0. -1.
</event>
<event>
 6    1  0.3836009E-003  0.5059530E+03  0.7546771E-02  0.9386587E-01
        -11   -1    0    0    0    0  0.00000000000E+00  0.00000000000E+00  0.50000000000E+03  0.50000000000E+03  0.00000000000E+00 0. -1.
         11   -1    0    0    0    0 -0.00000000000E+00 -0.00000000000E+00 -0.50000000000E+03  0.50000000000E+03  0.00000000000E+00 0. -1.
        -11    1    1    2    0    0 -0.14407059440E+02  0.70941345689E+01  0.49378594571E+03  0.49404701222E+03  0.00000000000E+00 0. -1.
         11    1    1    2    0    0 -0.21994559270E+01 -0.61094975918E+01 -0.47328023555E+03  0.47332477743E+03  0.00000000000E+00 0. -1.
        -15    1    1    2    0    0  0.12966406960E+02  0.25075151046E+01 -0.21359634909E+01  0.13495755276E+02  0.17770000000E+01 0. -1.
         15    1    1    2    0    0  0.36401084071E+01 -0.34921520817E+01 -0.18369746666E+02  0.19132455069E+02  0.17770000000E+01 0. -1.
</event>
<event>
 6    1  0.3836009E-003  0.5100553E+03  0.7546771E-02  0.9377587E-01
        -11   -1    0    0    0    0  0.00000000000E+00  0.00000000000E+00  0.50000000000E+03  0.50000000000E+03  0.00000000000E+00 0.  1.
         11   -1    0    0    0    0 -0.00000000000E+00 -0.00000000000E+00 -0.50000000000E+03  0.50000000000E+03  0.00000000000E+00 0.  1.
        -11    1    1    2    0    0 -0.74839770455E+01 -0.55884349421E+01  0.48168219780E+03  0.48177274746E+03  0.00000000000E+00 0.  1.
         11    1    1    2    0    0  0.10785122664E+02  0.87998799285E+01 -0.48974695915E+03  0.48994473235E+03  0.00000000000E+00 0.  1.
        -15    1    1    2    0    0 -0.13398497630E+02  0.24819379741E+01  0.91434250565E+01  0.16505747654E+02  0.17770000000E+01 0. -1.
         15    1    1    2    0    0  0.10097352011E+02 -0.56933829605E+01 -0.10786637044E+01  0.11776772545E+02  0.17770000000E+01 0.  1.
</event>
<event>
 6    1  0.3836009E-003  0.5130372E+03  0.7546771E-02  0.9371101E-01
        -11   -1    0    0    0    0  0.00000000000E+00  0.00000000000E+00  0.50000000000E+03  0.50000000000E+03  0.00000000000E+00 0. -1.
         11   -1    0    0    0    0 -0.00000000000E+00 -0.00000000000E+00 -0.50000000000E+03  0.50000000000E+03  0.00000000000E+00 0. -1.
        -11    1    1    2    0    0  0.33322526733E+00 -0.97568263180E+01  0.48686493286E+03  0.48696280099E+03  0.00000000000E+00 0. -1.
         11    1    1    2    0    0  0.20257228663E+01  0.93033572872E+01 -0.43457009652E+03  0.43467438940E+03  0.00000000000E+00 0. -1.
        -15    1    1    2    0    0  0.50432394288E+00 -0.61214790689E+01 -0.64109859332E+02  0.64427933702E+02  0.17770000000E+01 0. -1.
         15    1    1    2    0    0 -0.28632720765E+01  0.65749480997E+01  0.11815022987E+02  0.13934875912E+02  0.17770000000E+01 0.  1.
</event>
<event>
 6    1  0.3836009E-003  0.5180716E+03  0.7546771E-02  0.9360257E-01
        -11   -1    0    0    0    0  0.00000000000E+00  0.00000000000E+00  0.50000000000E+03  0.50000000000E+03  0.00000000000E+00 0. -1.
         11   -1    0    0    0    0 -0.00000000000E+00 -0.00000000000E+00 -0.50000000000E+03  0.50000000000E+03  0.00000000000E+00 0.  1.
        -11    1    1    2    0    0 -0.67300573488E+01  0.12521567123E+02  0.48171867227E+03  0.48192837905E+03  0.00000000000E+00 0. -1.
         11    1    1    2    0    0  0.81968091843E+01  0.20510483323E+01 -0.36801541205E+03  0.36811239857E+03  0.00000000000E+00 0.  1.
        -15    1    1    2    0    0 -0.13979616853E+02 -0.42263276750E+01 -0.12764184819E+03  0.12848692802E+03  0.17770000000E+01 0.  1.
         15    1    1    2    0    0  0.12512865018E+02 -0.10346287780E+02  0.13938587964E+02  0.21472294363E+02  0.17770000000E+01 0. -1.
</event>
<event>
 6    1  0.3836009E-003  0.5069513E+03  0.7546771E-02  0.9384389E-01
        -11   -1    0    0    0    0  0.00000000000E+00  0.00000000000E+00  0.50000000000E+03  0.50000000000E+03  0.00000000000E+00 0.  1.
         11   -1    0    0    0    0 -0.00000000000E+00 -0.00000000000E+00 -0.50000000000E+03  0.50000000000E+03  0.00000000000E+00 0. -1.
        -11    1    1    2    0    0  0.40093917359E+01 -0.46196731584E+01  0.44196063902E+03  0.44200296724E+03  0.00000000000E+00 0.  1.
         11    1    1    2    0    0  0.33631319181E+01  0.70413339053E+01 -0.49298692707E+03  0.49304868046E+03  0.00000000000E+00 0. -1.
        -15    1    1    2    0    0 -0.12123771511E+02 -0.76714868687E+01  0.11079765275E+01  0.14499065053E+02  0.17770000000E+01 0. -1.
         15    1    1    2    0    0  0.47512478575E+01  0.52498261218E+01  0.49918311518E+02  0.50449287253E+02  0.17770000000E+01 0. -1.
</event>
<event>
 6    1  0.3836009E-003  0.5082162E+03  0.7546771E-02  0.9381611E-01
        -11   -1    0    0    0    0  0.00000000000E+00  0.00000000000E+00  0.50000000000E+03  0.50000000000E+03  0.00000000000E+00 0.  1.
         11   -1    0    0    0    0 -0.00000000000E+00 -0.00000000000E+00 -0.50000000000E+03  0.50000000000E+03  0.00000000000E+00 0.  1.
        -11    1    1    2    0    0  0.39060301055E+00  0.13109993401E+02  0.49160885907E+03  0.49178378869E+03  0.00000000000E+00 0.  1.
         11    1    1    2    0    0  0.90104842138E+01  0.22790956331E+01 -0.46751474738E+03  0.46760712368E+03  0.00000000000E+00 0.  1.
        -15    1    1    2    0    0  0.43973030843E+01 -0.26005352303E+01 -0.20718427189E+02  0.21412846893E+02  0.17770000000E+01 0. -1.
         15    1    1    2    0    0 -0.13798390309E+02 -0.12788553804E+02 -0.33756845046E+01  0.19196240736E+02  0.17770000000E+01 0.  1.
</event>
<event>
 6    1  0.3836009E-003  0.5461822E+03  0.7546771E-02  0.9302018E-01
        -11   -1    0    0    0    0  0.00000000000E+00  0.00000000000E+00  0.50000000000E+03  0.50000000000E+03  0.00000000000E+00 0.  1.
         11   -1    0    0    0    0 -0.00000000000E+00 -0.00000000000E+00 -0.50000000000E+03  0.50000000000E+03  0.00000000000E+00 0.  1.
        -11    1    1    2    0    0  0.95890577037E+01  0.10110027104E+02  0.12186867755E+03  0.12266269703E+03  0.00000000000E+00 0.  1.
         11    1    1    2    0    0 -0.22271242430E+02  0.17920593968E+02 -0.45291663880E+03  0.45381784631E+03  0.00000000000E+00 0.  1.
        -15    1    1    2    0    0  0.99904748218E+01 -0.19544866287E+02  0.37651324552E+03  0.37715672229E+03  0.17770000000E+01 0.  1.
         15    1    1    2    0    0  0.26917099041E+01 -0.84857547847E+01 -0.45465284266E+02  0.46362734376E+02  0.17770000000E+01 0. -1.
</event>
<event>
 6    1  0.3836009E-003  0.5187319E+03  0.7546771E-02  0.9358844E-01
        -11   -1    0    0    0    0  0.00000000000E+00  0.00000000000E+00  0.50000000000E+03  0.50000000000E+03  0.00000000000E+00 0. -1.
         11   -1    0    0    0    0 -0.00000000000E+00 -0.00000000000E+00 -0.50000000000E+03  0.50000000000E+03  0.00000000000E+00 0. -1.
        -11    1    1    2    0    0  0.66378994102E+00  0.27162007451E+02  0.45344652610E+03  0.45425980154E+03  0.00000000000E+00 0. -1.
         11    1    1    2    0    0  0.17609587887E+02  0.98901845553E+01 -0.48084413012E+03  0.48126810699E+03  0.00000000000E+00 0. -1.
        -15    1    1    2    0    0 -0.12952856970E+02 -0.20864377472E+02  0.37292570364E+02  0.44687719614E+02  0.17770000000E+01 0.  1.
         15    1    1    2    0    0 -0.53205208578E+01 -0.16187814533E+02 -0.98949663417E+01  0.19784371849E+02  0.17770000000E+01 0. -1.
</event>
<event>
 6    1  0.3836009E-003  0.5054953E+03  0.7546771E-02  0.9387597E-01
        -11   -1    0    0    0    0  0.00000000000E+00  0.00000000000E+00  0.50000000000E+03  0.50000000000E+03  0.00000000000E+00 0.  1.
         11   -1    0    0    0    0 -0.00000000000E+00 -0.00000000000E+00 -0.50000000000E+03  0.50000000000E+03  0.00000000000E+00 0. -1.
        -11    1    1    2    0    0  0.15381183441E+02 -0.16281414140E+01  0.49426279012E+03  0.49450473946E+03  0.00000000000E+00 0.  1.
         11    1    1    2    0    0  0.54187206223E+01 -0.95148016870E+01 -0.16874490881E+03  0.16909978780E+03  0.00000000000E+00 0. -1.
        -15    1    1    2    0    0 -0.13961172935E+02 -0.63906051589E+01 -0.31374495965E+03  0.31412547114E+03  0.17770000000E+01 0. -1.
         15    1    1    2    0    0 -0.68387311283E+01  0.17533548260E+02 -0.11772921657E+02  0.22270001603E+02  0.17770000000E+01 0.  1.
</event>
<event>
 6    1  0.3836009E-003  0.5004974E+03  0.7546771E-02  0.9398697E-01
        -11   -1    0    0    0    0  0.00000000000E+00  0.00000000000E+00  0.50000000000E+03  0.50000000000E+03  0.00000000000E+00 0.  1.
         11   -1    0    0    0    0 -0.00000000000E+00 -0.00000000000E+00 -0.50000000000E+03  0.50000000000E+03  0.00000000000E+00 0. -1.
        -11    1    1    2    0    0 -0.12143406990E+02  0.10373287535E+02  0.49924717895E+03  0.49950256568E+03  0.00000000000E+00 0.  1.
         11    1    1    2    0    0 -0.22576626539E+01  0.99281091235E+00 -0.78351610693E+02  0.78390417861E+02  0.00000000000E+00 0. -1.
        -15    1    1    2    0    0  0.14506521982E+02 -0.17332128851E+02 -0.23111164912E+03  0.23222100241E+03  0.17770000000E+01 0. -1.
         15    1    1    2    0    0 -0.10545233884E+00  0.59660304040E+01 -0.18978391914E+03  0.18988601405E+03  0.17770000000E+01 0. -1.
</event>
<event>
 6    1  0.3836009E-003  0.5022099E+03  0.7546771E-02  0.9394878E-01
        -11   -1    0    0    0    0  0.00000000000E+00  0.00000000000E+00  0.50000000000E+03  0.50000000000E+03  0.00000000000E+00 0. -1.
         11   -1    0    0    0    0 -0.00000000000E+00 -0.00000000000E+00 -0.50000000000E+03  0.50000000000E+03  0.00000000000E+00 0.  1.
        -11    1    1    2    0    0  0.47351272459E+01  0.82427945300E+01  0.49769927892E+03  0.49779005347E+03  0.00000000000E+00 0. -1.
         11    1    1    2    0    0  0.91690194738E+01 -0.63331278255E+01 -0.35672839862E+03  0.35690240936E+03  0.00000000000E+00 0.  1.
        -15    1    1    2    0    0 -0.92304344611E+01  0.27334502774E+01 -0.13712675459E+03  0.13747573322E+03  0.17770000000E+01 0.  1.
         15    1    1    2    0    0 -0.46737122585E+01 -0.46431169819E+01 -0.38441257088E+01  0.78318039460E+01  0.17770000000E+01 0. -1.
</event>
<event>
 6    1  0.3836009E-003  0.5018584E+03  0.7546771E-02  0.9395661E-01
        -11   -1    0    0    0    0  0.00000000000E+00  0.00000000000E+00  0.50000000000E+03  0.50000000000E+03  0.00000000000E+00 0. -1.
         11   -1    0    0    0    0 -0.00000000000E+00 -0.00000000000E+00 -0.50000000000E+03  0.50000000000E+03  0.00000000000E+00 0.  1.
        -11    1    1    2    0    0 -0.34536079409E+01  0.62003283282E+01  0.49809106538E+03  0.49814162734E+03  0.00000000000E+00 0. -1.
         11    1    1    2    0    0  0.49305994471E+01  0.45300516010E+01 -0.47667466752E+03  0.47672169117E+03  0.00000000000E+00 0.  1.
        -15    1    1    2    0    0 -0.33441445085E+01 -0.36847071260E+01 -0.60215689341E+01  0.80110792361E+01  0.17770000000E+01 0. -1.
         15    1    1    2    0    0  0.18671530023E+01 -0.70456728031E+01 -0.15394828929E+02  0.17125602247E+02  0.17770000000E+01 0.  1.
</event>
<event>
 6    1  0.3836009E-003  0.5021571E+03  0.7546771E-02  0.9394996E-01
        -11   -1    0    0    0    0  0.00000000000E+00  0.00000000000E+00  0.50000000000E+03  0.50000000000E+03  0.00000000000E+00 0.  1.
         11   -1    0    0    0    0 -0.00000000000E+00 -0.00000000000E+00 -0.50000000000E+03  0.50000000000E+03  0.00000000000E+00 0. -1.
        -11    1    1    2    0    0 -0.35712760843E+01 -0.24559743991E+01  0.29392587125E+03  0.29395782625E+03  0.00000000000E+00 0.  1.
         11    1    1    2    0    0  0.92173799658E+00 -0.23911388554E+02 -0.49726749544E+03  0.49784291310E+03  0.00000000000E+00 0. -1.
        -15    1    1    2    0    0  0.19123421489E+02  0.14958438596E+02  0.10027656379E+03  0.10318918117E+03  0.17770000000E+01 0. -1.
         15    1    1    2    0    0 -0.16473883402E+02  0.11408924358E+02  0.10306506040E+03  0.10501007948E+03  0.17770000000E+01 0.  1.
</event>
<event>
 6    1  0.3836009E-003  0.4801175E+03  0.7546771E-02  0.9445431E-01
        -11   -1    0    0    0    0  0.00000000000E+00  0.00000000000E+00  0.50000000000E+03  0.50000000000E+03  0.00000000000E+00 0. -1.
         11   -1    0    0    0    0 -0.00000000000E+00 -0.00000000000E+00 -0.50000000000E+03  0.50000000000E+03  0.00000000000E+00 0. -1.
        -11    1    1    2    0    0  0.28985984187E+01  0.59522107397E+01  0.47889424901E+03  0.47894000920E+03  0.00000000000E+00 0. -1.
         11    1    1    2    0    0  0.12890431336E+01  0.10468815688E+02 -0.48133203083E+03  0.48144758971E+03  0.00000000000E+00 0. -1.
        -15    1    1    2    0    0 -0.87079105304E+01 -0.60070046542E+01 -0.15174396402E+02  0.18583106465E+02  0.17770000000E+01 0. -1.
         15    1    1    2    0    0  0.45202689781E+01 -0.10414021774E+02  0.17612178230E+02  0.21029294618E+02  0.17770000000E+01 0.  1.
</event>
<event>
 6    1  0.3836009E-003  0.5070697E+03  0.7546771E-02  0.9384128E-01
        -11   -1    0    0    0    0  0.00000000000E+00  0.00000000000E+00  0.50000000000E+03  0.50000000000E+03  0.00000000000E+00 0. -1.
         11   -1    0    0    0    0 -0.00000000000E+00 -0.00000000000E+00 -0.50000000000E+03  0.50000000000E+03  0.00000000000E+00 0.  1.
        -11    1    1    2    0    0 -0.46733517548E+01 -0.44272763211E+01  0.42880679602E+03  0.42885511458E+03  0.00000000000E+00 0. -1.
         11    1    1    2    0    0 -0.79877591799E+01 -0.20462279236E+01 -0.49286127912E+03  0.49293025044E+03  0.00000000000E+00 0.  1.
        -15    1    1    2    0    0  0.90012047754E+01  0.10517198306E+02  0.53244063925E-01  0.13956851778E+02  0.17770000000E+01 0. -1.
         15    1    1    2    0    0  0.36599061593E+01 -0.40436940615E+01  0.64001239038E+02  0.64257783203E+02  0.17770000000E+01 0.  1.
</event>
<event>
 6    1  0.3836009E-003  0.5013691E+03  0.7546771E-02  0.9396751E-01
        -11   -1    0    0    0    0  0.00000000000E+00  0.00000000000E+00  0.50000000000E+03  0.50000000000E+03  0.00000000000E+00 0. -1.
         11   -1    0    0    0    0 -0.00000000000E+00 -0.00000000000E+00 -0.50000000000E+03  0.50000000000E+03  0.00000000000E+00 0. -1.
        -11    1    1    2    0    0 -0.63907133109E+01 -0.14703431950E+02  0.49837305984E+03  0.49863086437E+03  0.00000000000E+00 0. -1.
         11    1    1    2    0    0 -0.37322097586E+01  0.20736568822E+01 -0.23873303949E+03  0.23877121600E+03  0.00000000000E+00 0. -1.
        -15    1    1    2    0    0  0.38277747727E+01  0.15332993884E+01 -0.23263371259E+03  0.23267703976E+03  0.17770000000E+01 0. -1.
         15    1    1    2    0    0  0.62951482967E+01  0.11096475679E+02 -0.27006307757E+02  0.29920879871E+02  0.17770000000E+01 0.  1.
</event>
<event>
 6    1  0.3836009E-003  0.5074210E+03  0.7546771E-02  0.9383356E-01
        -11   -1    0    0    0    0  0.00000000000E+00  0.00000000000E+00  0.50000000000E+03  0.50000000000E+03  0.00000000000E+00 0. -1.
         11   -1    0    0    0    0 -0.00000000000E+00 -0.00000000000E+00 -0.50000000000E+03  0.50000000000E+03  0.00000000000E+00 0. -1.
        -11    1    1    2    0    0  0.60992123603E+01  0.35666624581E+01  0.49252829153E+03  0.49257896771E+03  0.00000000000E+00 0. -1.
         11    1    1    2    0    0  0.53202425462E+01 -0.47809718268E+01 -0.12329505494E+03  0.12350236130E+03  0.00000000000E+00 0. -1.
        -15    1    1    2    0    0 -0.38608106093E+01 -0.77893888295E+01  0.45324050378E+01  0.99639781877E+01  0.17770000000E+01 0.  1.
         15    1    1    2    0    0 -0.75586442972E+01  0.90036981982E+01 -0.37376564162E+03  0.37395469281E+03  0.17770000000E+01 0. -1.
</event>
<event>
 6    1  0.3836009E-003  0.5005488E+03  0.7546771E-02  0.9398582E-01
        -11   -1    0    0    0    0  0.00000000000E+00  0.00000000000E+00  0.50000000000E+03  0.50000000000E+03  0.00000000000E+00 0. -1.
         11   -1    0    0    0    0 -0.00000000000E+00 -0.00000000000E+00 -0.50000000000E+03  0.50000000000E+03  0.00000000000E+00 0. -1.
        -11    1    1    2    0    0 -0.92758524767E+01  0.76362146222E+01  0.41175924535E+03  0.41193449643E+03  0.00000000000E+00 0. -1.
         11    1    1    2    0    0  0.18394760234E+01 -0.80623414838E+01 -0.49938268849E+03  0.49945115335E+03  0.00000000000E+00 0. -1.
        -15    1    1    2    0    0 -0.48849828275E+00  0.17955434827E+01  0.51483656658E+02  0.51547912071E+02  0.17770000000E+01 0.  1.
         15    1    1    2    0    0  0.79248747360E+01 -0.13694166211E+01  0.36139786478E+02  0.37066438150E+02  0.17770000000E+01 0. -1.
</event>
<event>
 6    1  0.3836009E-003  0.5007442E+03  0.7546771E-02  0.9398146E-01
        -11   -1    0    0    0    0  0.00000000000E+00  0.00000000000E+00  0.50000000000E+03  0.50000000000E+03  0.00000000000E+00 0. -1.
         11   -1    0    0    0    0 -0.00000000000E+00 -0.00000000000E+00 -0.50000000000E+03  0.50000000000E+03  0.00000000000E+00 0.  1.
        -11    1    1    2    0    0 -0.41401482611E+01 -0.54802990768E+01  0.49920859650E+03  0.49925584355E+03  0.00000000000E+00 0. -1.
         11    1    1    2    0    0  0.62767718673E+00  0.12336417837E+02 -0.39725885967E+03  0.39745085579E+03  0.00000000000E+00 0.  1.
        -15    1    1    2    0    0  0.69729285578E+01 -0.87983524745E+01 -0.56228985426E+02  0.57366272930E+02  0.17770000000E+01 0. -1.
         15    1    1    2    0    0 -0.34604574834E+01  0.19422337139E+01 -0.45720751406E+02  0.45927027728E+02  0.17770000000E+01 0.  1.
</event>
<event>
 6    1  0.3836009E-003  0.5094268E+03  0.7546771E-02  0.9378960E-01
        -11   -1    0    0    0    0  0.00000000000E+00  0.00000000000E+00  0.50000000000E+03  0.50000000000E+03  0.00000000000E+00 0. -1.
         11   -1    0    0    0    0 -0.00000000000E+00 -0.00000000000E+00 -0.50000000000E+03  0.50000000000E+03  0.00000000000E+00 0.  1.
        -11    1    1    2    0    0  0.45273643184E+01  0.81013939371E+01  0.49048545715E+03  0.49057324967E+03  0.00000000000E+00 0. -1.
         11    1    1    2    0    0 -0.64583839205E+01  0.24655195244E+01 -0.41896380326E+03  0.41902083236E+03  0.00000000000E+00 0.  1.
        -15    1    1    2    0    0 -0.74653837824E+01 -0.25210746502E+02 -0.67496985771E+02  0.72459054034E+02  0.17770000000E+01 0. -1.
         15    1    1    2    0    0  0.93964033845E+01  0.14643833041E+02 -0.40246681210E+01  0.17946863937E+02  0.17770000000E+01 0.  1.
</event>
<event>
 6    1  0.3836009E-003  0.5124658E+03  0.7546771E-02  0.9372340E-01
        -11   -1    0    0    0    0  0.00000000000E+00  0.00000000000E+00  0.50000000000E+03  0.50000000000E+03  0.00000000000E+00 0.  1.
         11   -1    0    0    0    0 -0.00000000000E+00 -0.00000000000E+00 -0.50000000000E+03  0.50000000000E+03  0.00000000000E+00 0.  1.
        -11    1    1    2    0    0 -0.27058954382E+02  0.35690188284E+01  0.45382371782E+03  0.45464369760E+03  0.00000000000E+00 0.  1.
         11    1    1    2    0    0  0.15654304473E+02 -0.12569488076E+02 -0.48712062502E+03  0.48753415532E+03  0.00000000000E+00 0.  1.
        -15    1    1    2    0    0  0.77895349290E+01 -0.17395770396E+02  0.71048403331E+01  0.20418769974E+02  0.17770000000E+01 0.  1.
         15    1    1    2    0    0  0.36151149801E+01  0.26396239644E+02  0.26192066866E+02  0.37403377112E+02  0.17770000000E+01 0. -1.
</event>
<event>
 6    1  0.3836009E-003  0.5002123E+03  0.7546771E-02  0.9399335E-01
        -11   -1    0    0    0    0  0.00000000000E+00  0.00000000000E+00  0.50000000000E+03  0.50000000000E+03  0.00000000000E+00 0.  1.
         11   -1    0    0    0    0 -0.00000000000E+00 -0.00000000000E+00 -0.50000000000E+03  0.50000000000E+03  0.00000000000E+00 0.  1.
        -11    1    1    2    0    0 -0.77629047736E+01 -0.36699805127E+01  0.49971393002E+03  0.49978769823E+03  0.00000000000E+00 0.  1.
         11    1    1    2    0    0  0.39044833858E+01  0.39211711705E+01 -0.37465437304E+03  0.37469523591E+03  0.00000000000E+00 0.  1.
        -15    1    1    2    0    0 -0.10262305514E+01 -0.34562396435E+01 -0.71003978575E+02  0.71117659158E+02  0.17770000000E+01 0. -1.
         15    1    1    2    0    0  0.48846519392E+01  0.32050489858E+01 -0.54055578406E+02  0.54399406700E+02  0.17770000000E+01 0.  1.
</event>
<event>
 6    1  0.3836009E-003  0.5166033E+03  0.7546771E-02  0.9363406E-01
        -11   -1    0    0    0    0  0.00000000000E+00  0.00000000000E+00  0.50000000000E+03  0.50000000000E+03  0.00000000000E+00 0.  1.
         11   -1    0    0    0    0 -0.00000000000E+00 -0.00000000000E+00 -0.50000000000E+03  0.50000000000E+03  0.00000000000E+00 0. -1.
        -11    1    1    2    0    0  0.99704920798E+00  0.66565895032E+01  0.46856242920E+03  0.46861077063E+03  0.00000000000E+00 0.  1.
         11    1    1    2    0    0 -0.42898477531E+01  0.54795726805E+01 -0.48334658957E+03  0.48339668406E+03  0.00000000000E+00 0. -1.
        -15    1    1    2    0    0  0.93186462275E+01 -0.99808915877E+01 -0.13293652911E+02  0.19139861575E+02  0.17770000000E+01 0. -1.
         15    1    1    2    0    0 -0.60258476823E+01 -0.21552705960E+01  0.28077813274E+02  0.28852683738E+02  0.17770000000E+01 0.  1.
</event>
<event>
 6    1  0.3836009E-003  0.5006593E+03  0.7546771E-02  0.9398336E-01
        -11   -1    0    0    0    0  0.00000000000E+00  0.00000000000E+00  0.50000000000E+03  0.50000000000E+03  0.00000000000E+00 0.  1.
         11   -1    0    0    0    0 -0.00000000000E+00 -0.00000000000E+00 -0.50000000000E+03  0.50000000000E+03  0.00000000000E+00 0.  1.
        -11    1    1    2    0    0 -0.69629810076E+01 -0.40942991749E+01  0.49927534847E+03  0.49934068528E+03  0.00000000000E+00 0.  1.
         11    1    1    2    0    0  0.28229152600E+01  0.30302372702E+01 -0.96334977929E+02  0.96423955327E+02  0.00000000000E+00 0.  1.
        -15    1    1    2    0    0  0.10444873437E+02  0.36807864353E+01 -0.50762293495E+02  0.51986649631E+02  0.17770000000E+01 0. -1.
         15    1    1    2    0    0 -0.63048076897E+01 -0.26167245305E+01 -0.35217807704E+03  0.35224870976E+03  0.17770000000E+01 0.  1.
</event>
<event>
 6    1  0.3836009E-003  0.5003196E+03  0.7546771E-02  0.9399095E-01
        -11   -1    0    0    0    0  0.00000000000E+00  0.00000000000E+00  0.50000000000E+03  0.50000000000E+03  0.00000000000E+00 0.  1.
         11   -1    0    0    0    0 -0.00000000000E+00 -0.00000000000E+00 -0.50000000000E+03  0.50000000000E+03  0.00000000000E+00 0. -1.
        -11    1    1    2    0    0  0.28251228481E+01  0.77173984942E+01  0.49961285078E+03  0.49968043811E+03  0.00000000000E+00 0.  1.
         11    1    1    2    0    0  0.47745218879E+01 -0.23565830114E+01 -0.32866464731E+03  0.32870777285E+03  0.00000000000E+00 0. -1.
        -15    1    1    2    0    0 -0.21321867811E+01 -0.77223521631E+00 -0.12840903398E+03  0.12844134966E+03  0.17770000000E+01 0. -1.
         15    1    1    2    0    0 -0.54674579550E+01 -0.45885802665E+01 -0.42539169498E+02  0.43170439377E+02  0.17770000000E+01 0.  1.
</event>
<event>
 6    1  0.3836009E-003  0.5295525E+03  0.7546771E-02  0.9336008E-01
        -11   -1    0    0    0    0  0.00000000000E+00  0.00000000000E+00  0.50000000000E+03  0.50000000000E+03  0.00000000000E+00 0.  1.
         11   -1    0    0    0    0 -0.00000000000E+00 -0.00000000000E+00 -0.50000000000E+03  0.50000000000E+03  0.00000000000E+00 0. -1.
        -11    1    1    2    0    0  0.20649983885E+02 -0.67569432596E+01  0.32437787442E+03  0.32510472702E+03  0.00000000000E+00 0.  1.
         11    1    1    2    0    0  0.46522200691E+01  0.53100201403E+01 -0.47039455760E+03  0.47044753085E+03  0.00000000000E+00 0. -1.
        -15    1    1    2    0    0 -0.15518854839E+02  0.31847710784E+00 -0.26971797354E+02  0.31170047557E+02  0.17770000000E+01 0. -1.
         15    1    1    2    0    0 -0.97833491144E+01  0.11284460115E+01  0.17298848053E+03  0.17327769457E+03  0.17770000000E+01 0.  1.
</event>
<event>
 6    1  0.3836009E-003  0.5017820E+03  0.7546771E-02  0.9395831E-01
        -11   -1    0    0    0    0  0.00000000000E+00  0.00000000000E+00  0.50000000000E+03  0.50000000000E+03  0.00000000000E+00 0. -1.
         11   -1    0    0    0    0 -0.00000000000E+00 -0.00000000000E+00 -0.50000000000E+03  0.50000000000E+03  0.00000000000E+00 0. -1.
        -11    1    1    2    0    0 -0.27123404733E+01 -0.37250153580E+01  0.18076099549E+03  0.18081971690E+03  0.00000000000E+00 0. -1.
         11    1    1    2    0    0 -0.83240412890E+01 -0.51147688792E+01 -0.49812223580E+03  0.49821803693E+03  0.00000000000E+00 0. -1.
        -15    1    1    2    0    0  0.50925112307E+01  0.61927534949E+01  0.77955447278E+01  0.11323078781E+02  0.17770000000E+01 0. -1.
         15    1    1    2    0    0  0.59438705315E+01  0.26470307422E+01  0.30956569558E+03  0.30963916738E+03  0.17770000000E+01 0.  1.
</event>
<event>
 6    1  0.3836009E-003  0.5171072E+03  0.7546771E-02  0.9362324E-01
        -11   -1    0    0    0    0  0.00000000000E+00  0.00000000000E+00  0.50000000000E+03  0.50000000000E+03  0.00000000000E+00 0. -1.
         11   -1    0    0    0    0 -0.00000000000E+00 -0.00000000000E+00 -0.50000000000E+03  0.50000000000E+03  0.00000000000E+00 0. -1.
        -11    1    1    2    0    0 -0.35080351329E+02  0.16431562877E+02  0.48133648391E+03  0.48289278111E+03  0.00000000000E+00 0. -1.
         11    1    1    2    0    0 -0.14244450078E+02 -0.30103916760E+01 -0.44712062920E+03  0.44735760178E+03  0.00000000000E+00 0. -1.
        -15    1    1    2    0    0  0.43737843340E+01 -0.14986346100E+02 -0.75694561477E+01  0.17440612208E+02  0.17770000000E+01 0. -1.
         15    1    1    2    0    0  0.44951017073E+02  0.15651748982E+01 -0.26646398560E+02  0.52309004900E+02  0.17770000000E+01 0.  1.
</event>
<event>
 6    1  0.3836009E-003  0.4907157E+03  0.7546771E-02  0.9420827E-01
        -11   -1    0    0    0    0  0.00000000000E+00  0.00000000000E+00  0.50000000000E+03  0.50000000000E+03  0.00000000000E+00 0. -1.
         11   -1    0    0    0    0 -0.00000000000E+00 -0.00000000000E+00 -0.50000000000E+03  0.50000000000E+03  0.00000000000E+00 0. -1.
        -11    1    1    2    0    0  0.23011139600E+00  0.68887242232E+01  0.49158764588E+03  0.49163596396E+03  0.00000000000E+00 0. -1.
         11    1    1    2    0    0 -0.37253223901E+01 -0.55223003238E+01 -0.48975896900E+03  0.48980426860E+03  0.00000000000E+00 0. -1.
        -15    1    1    2    0    0  0.14025418596E+01  0.27525432679E+01 -0.90945775888E+01  0.97679418829E+01  0.17770000000E+01 0.  1.
         15    1    1    2    0    0  0.20926691344E+01 -0.41189671672E+01  0.72659006995E+01  0.87918255560E+01  0.17770000000E+01 0.  1.
</event>
<event>
 6    1  0.3836009E-003  0.5023470E+03  0.7546771E-02  0.9394573E-01
        -11   -1    0    0    0    0  0.00000000000E+00  0.00000000000E+00  0.50000000000E+03  0.50000000000E+03  0.00000000000E+00 0. -1.
         11   -1    0    0    0    0 -0.00000000000E+00 -0.00000000000E+00 -0.50000000000E+03  0.50000000000E+03  0.00000000000E+00 0.  1.
        -11    1    1    2    0    0 -0.25459997343E+01 -0.12261730985E+02  0.49749535494E+03  0.49765295171E+03  0.00000000000E+00 0. -1.
         11    1    1    2    0    0 -0.29320540880E+01  0.52808212970E+01 -0.34849505194E+03  0.34854739310E+03  0.00000000000E+00 0.  1.
        -15    1    1    2    0    0 -0.54401789861E+01  0.11822841517E+02 -0.18209338611E+02  0.22452458008E+02  0.17770000000E+01 0. -1.
         15    1    1    2    0    0  0.10918232808E+02 -0.48419318296E+01 -0.13079096439E+03  0.13134719718E+03  0.17770000000E+01 0.  1.
</event>
<event>
 6    1  0.3836009E-003  0.4899977E+03  0.7546771E-02  0.9422473E-01
        -11   -1    0    0    0    0  0.00000000000E+00  0.00000000000E+00  0.50000000000E+03  0.50000000000E+03  0.00000000000E+00 0.  1.
         11   -1    0    0    0    0 -0.00000000000E+00 -0.00000000000E+00 -0.50000000000E+03  0.50000000000E+03  0.00000000000E+00 0. -1.
        -11    1    1    2    0    0 -0.85865175732E+01  0.60994295814E+01  0.49214246975E+03  0.49225515930E+03  0.00000000000E+00 0.  1.
         11    1    1    2    0    0 -0.87418795803E+01 -0.57514449805E+01 -0.48779083688E+03  0.48790306427E+03  0.00000000000E+00 0. -1.
        -15    1    1    2    0    0  0.82848033197E+01  0.14590717697E+01 -0.57539578472E+01  0.10345656885E+02  0.17770000000E+01 0.  1.
         15    1    1    2    0    0  0.90435938338E+01 -0.18070563706E+01  0.14023249808E+01  0.94961195501E+01  0.17770000000E+01 0. -1.
</event>
<event>
 6    1  0.3836009E-003  0.5010960E+03  0.7546771E-02  0.9397361E-01
        -11   -1    0    0    0    0  0.00000000000E+00  0.00000000000E+00  0.50000000000E+03  0.50000000000E+03  0.00000000000E+00 0. -1.
         11   -1    0    0    0    0 -0.00000000000E+00 -0.00000000000E+00 -0.50000000000E+03  0.50000000000E+03  0.00000000000E+00 0.  1.
        -11    1    1    2    0    0 -0.28923663268E+01  0.12627270217E+02  0.49873580815E+03  0.49890401889E+03  0.00000000000E+00 0. -1.
         11    1    1    2    0    0 -0.86230944054E+01  0.84018481383E+01 -0.21073277396E+03  0.21107640993E+03  0.00000000000E+00 0.  1.
        -15    1    1    2    0    0  0.46184476202E+01 -0.50650192134E+01 -0.20837684728E+03  0.20849712873E+03  0.17770000000E+01 0. -1.
         15    1    1    2    0    0  0.68970131119E+01 -0.15964099142E+02 -0.79626186918E+02  0.81522442452E+02  0.17770000000E+01 0.  1.
</event>
<event>
 6    1  0.3836009E-003  0.5002191E+03  0.7546771E-02  0.9399319E-01
        -11   -1    0    0    0    0  0.00000000000E+00  0.00000000000E+00  0.50000000000E+03  0.50000000000E+03  0.00000000000E+00 0.  1.
         11   -1    0    0    0    0 -0.00000000000E+00 -0.00000000000E+00 -0.50000000000E+03  0.50000000000E+03  0.00000000000E+00 0.  1.
        -11    1    1    2    0    0  0.60987113617E+01  0.34940401296E+01  0.49973142922E+03  0.49978085593E+03  0.00000000000E+00 0.  1.
         11    1    1    2    0    0 -0.26825151848E+01 -0.48409496156E+01 -0.32980380435E+03  0.32985023881E+03  0.00000000000E+00 0.  1.
        -15    1    1    2    0    0 -0.39211809151E+01  0.25574859999E+01 -0.29361504240E+02  0.29785433598E+02  0.17770000000E+01 0. -1.
         15    1    1    2    0    0  0.50498473823E+00 -0.12105765139E+01 -0.14056612064E+03  0.14058347167E+03  0.17770000000E+01 0.  1.
</event>
<event>
 6    1  0.3836009E-003  0.5155086E+03  0.7546771E-02  0.9365761E-01
        -11   -1    0    0    0    0  0.00000000000E+00  0.00000000000E+00  0.50000000000E+03  0.50000000000E+03  0.00000000000E+00 0.  1.
         11   -1    0    0    0    0 -0.00000000000E+00 -0.00000000000E+00 -0.50000000000E+03  0.50000000000E+03  0.00000000000E+00 0.  1.
        -11    1    1    2    0    0  0.59234728104E+01 -0.10516895919E+02  0.48434102826E+03  0.48449140786E+03  0.00000000000E+00 0.  1.
         11    1    1    2    0    0 -0.13621370643E+02  0.35251996346E+01 -0.47060664925E+03  0.47081693585E+03  0.00000000000E+00 0.  1.
        -15    1    1    2    0    0  0.20618481850E+02 -0.84101633608E+01 -0.76567213139E+01  0.23614312436E+02  0.17770000000E+01 0.  1.
         15    1    1    2    0    0 -0.12920584017E+02  0.15401859646E+02 -0.60776576993E+01  0.21077343855E+02  0.17770000000E+01 0. -1.
</event>
<event>
 6    1  0.3836009E-003  0.5116693E+03  0.7546771E-02  0.9374071E-01
        -11   -1    0    0    0    0  0.00000000000E+00  0.00000000000E+00  0.50000000000E+03  0.50000000000E+03  0.00000000000E+00 0. -1.
         11   -1    0    0    0    0 -0.00000000000E+00 -0.00000000000E+00 -0.50000000000E+03  0.50000000000E+03  0.00000000000E+00 0. -1.
        -11    1    1    2    0    0 -0.63664756367E+01  0.63352179137E+01  0.48824813632E+03  0.48833073794E+03  0.00000000000E+00 0. -1.
         11    1    1    2    0    0  0.43897775562E+01 -0.58256464027E+01 -0.48268038392E+03  0.48273549830E+03  0.00000000000E+00 0. -1.
        -15    1    1    2    0    0  0.44601942406E+01 -0.18682358962E+01  0.10939304172E+02  0.12091722077E+02  0.17770000000E+01 0. -1.
         15    1    1    2    0    0 -0.24834961602E+01  0.13586643852E+01 -0.16507056575E+02  0.16842041677E+02  0.17770000000E+01 0.  1.
</event>
<event>
 6    1  0.3836009E-003  0.5056831E+03  0.7546771E-02  0.9387182E-01
        -11   -1    0    0    0    0  0.00000000000E+00  0.00000000000E+00  0.50000000000E+03  0.50000000000E+03  0.00000000000E+00 0.  1.
         11   -1    0    0    0    0 -0.00000000000E+00 -0.00000000000E+00 -0.50000000000E+03  0.50000000000E+03  0.00000000000E+00 0.  1.
        -11    1    1    2    0    0  0.10251953366E+01 -0.14101716609E+02  0.36226038619E+03  0.36253620073E+03  0.00000000000E+00 0.  1.
         11    1    1    2    0    0  0.20077587375E+01 -0.10566989975E+02 -0.49419988120E+03  0.49431691752E+03  0.00000000000E+00 0.  1.
        -15    1    1    2    0    0 -0.21062046950E+02 -0.29980508779E+01  0.38426878342E+02  0.43958853931E+02  0.17770000000E+01 0.  1.
         15    1    1    2    0    0  0.18029092875E+02  0.27666757461E+02  0.93512616663E+02  0.99188027818E+02  0.17770000000E+01 0. -1.
</event>
<event>
 6    1  0.3836009E-003  0.5486550E+03  0.7546771E-02  0.9297073E-01
        -11   -1    0    0    0    0  0.00000000000E+00  0.00000000000E+00  0.50000000000E+03  0.50000000000E+03  0.00000000000E+00 0.  1.
         11   -1    0    0    0    0 -0.00000000000E+00 -0.00000000000E+00 -0.50000000000E+03  0.50000000000E+03  0.00000000000E+00 0. -1.
        -11    1    1    2    0    0  0.88043099964E+00  0.60614418582E+01  0.45130344190E+03  0.45134500430E+03  0.00000000000E+00 0.  1.
         11    1    1    2    0    0  0.97447316419E+00  0.76537257781E+01 -0.42435979949E+03  0.42442993361E+03  0.00000000000E+00 0. -1.
        -15    1    1    2    0    0  0.27111378493E+00  0.77016823430E+01 -0.72963131687E+02  0.73390501621E+02  0.17770000000E+01 0.  1.
         15    1    1    2    0    0 -0.21260179488E+01 -0.21416849979E+02  0.46019489279E+02  0.50834560467E+02  0.17770000000E+01 0. -1.
</event>
<event>
 6    1  0.3836009E-003  0.5206243E+03  0.7546771E-02  0.9354808E-01
        -11   -1    0    0    0    0  0.00000000000E+00  0.00000000000E+00  0.50000000000E+03  0.50000000000E+03  0.00000000000E+00 0. -1.
         11   -1    0    0    0    0 -0.00000000000E+00 -0.00000000000E+00 -0.50000000000E+03  0.50000000000E+03  0.00000000000E+00 0. -1.
        -11    1    1    2    0    0 -0.15383420379E+01  0.15260485332E+02  0.42206205759E+03  0.42234065559E+03  0.00000000000E+00 0. -1.
         11    1    1    2    0    0 -0.15172948661E+02 -0.32173285259E+02 -0.47805411613E+03  0.47937571549E+03  0.00000000000E+00 0. -1.
        -15    1    1    2    0    0  0.66428991543E+01 -0.56728559358E+01  0.69487198090E+02  0.70056675849E+02  0.17770000000E+01 0.  1.
         15    1    1    2    0    0  0.10068391544E+02  0.22585655862E+02 -0.13495139550E+02  0.28226953068E+02  0.17770000000E+01 0. -1.
</event>
<event>
 6    1  0.3836009E-003  0.5026199E+03  0.7546771E-02  0.9393967E-01
        -11   -1    0    0    0    0  0.00000000000E+00  0.00000000000E+00  0.50000000000E+03  0.50000000000E+03  0.00000000000E+00 0. -1.
         11   -1    0    0    0    0 -0.00000000000E+00 -0.00000000000E+00 -0.50000000000E+03  0.50000000000E+03  0.00000000000E+00 0.  1.
        -11    1    1    2    0    0  0.49839202812E+01 -0.60148541661E-01  0.33345180566E+03  0.33348905496E+03  0.00000000000E+00 0. -1.
         11    1    1    2    0    0  0.49848858847E+01  0.98600751128E+01 -0.49725740284E+03  0.49738013113E+03  0.00000000000E+00 0.  1.
        -15    1    1    2    0    0 -0.21529698429E+02 -0.32447901190E+01  0.50338055488E+02  0.54873801916E+02  0.17770000000E+01 0. -1.
         15    1    1    2    0    0  0.11560892263E+02 -0.65551364522E+01  0.11346754169E+03  0.11425701199E+03  0.17770000000E+01 0.  1.
</event>
<event>
 6    1  0.3836009E-003  0.5137239E+03  0.7546771E-02  0.9369614E-01
        -11   -1    0    0    0    0  0.00000000000E+00  0.00000000000E+00  0.50000000000E+03  0.50000000000E+03  0.00000000000E+00 0.  1.
         11   -1    0    0    0    0 -0.00000000000E+00 -0.00000000000E+00 -0.50000000000E+03  0.50000000000E+03  0.00000000000E+00 0.  1.
        -11    1    1    2    0    0  0.11847403123E+02 -0.13200426419E+02  0.44686293232E+03  0.44721481695E+03  0.00000000000E+00 0.  1.
         11    1    1    2    0    0  0.15426542241E+02 -0.11067781025E+02 -0.48590526344E+03  0.48627605228E+03  0.00000000000E+00 0.  1.
        -15    1    1    2    0    0 -0.12921616667E+02  0.22503299007E+02  0.44005620603E+02  0.51117697690E+02  0.17770000000E+01 0. -1.
         15    1    1    2    0    0 -0.14352328697E+02  0.17649084375E+01 -0.49632894867E+01  0.15391433083E+02  0.17770000000E+01 0.  1.
</event>
<event>
 6    1  0.3836009E-003  0.5016669E+03  0.7546771E-02  0.9396088E-01
        -11   -1    0    0    0    0  0.00000000000E+00  0.00000000000E+00  0.50000000000E+03  0.50000000000E+03  0.00000000000E+00 0. -1.
         11   -1    0    0    0    0 -0.00000000000E+00 -0.00000000000E+00 -0.50000000000E+03  0.50000000000E+03  0.00000000000E+00 0.  1.
        -11    1    1    2    0    0 -0.12384801661E+01 -0.11138242368E+02  0.39037203311E+03  0.39053286483E+03  0.00000000000E+00 0. -1.
         11    1    1    2    0    0  0.92623357956E+01 -0.23336690085E+01 -0.49824151553E+03  0.49833306601E+03  0.00000000000E+00 0.  1.
        -15    1    1    2    0    0 -0.11336118637E+01  0.10640052981E+02  0.98208868784E+02  0.98806049613E+02  0.17770000000E+01 0.  1.
         15    1    1    2    0    0 -0.68902437658E+01  0.28318583961E+01  0.96606136425E+01  0.12328019552E+02  0.17770000000E+01 0. -1.
</event>
<event>
 6    1  0.3836009E-003  0.5033358E+03  0.7546771E-02  0.9392376E-01
        -11   -1    0    0    0    0  0.00000000000E+00  0.00000000000E+00  0.50000000000E+03  0.50000000000E+03  0.00000000000E+00 0.  1.
         11   -1    0    0    0    0 -0.00000000000E+00 -0.00000000000E+00 -0.50000000000E+03  0.50000000000E+03  0.00000000000E+00 0. -1.
        -11    1    1    2    0    0  0.55658597615E+01  0.60354162158E+01  0.49659631270E+03  0.49666417510E+03  0.00000000000E+00 0.  1.
         11    1    1    2    0    0  0.66438907731E+01 -0.44698246940E+00 -0.48050404372E+03  0.48055018168E+03  0.00000000000E+00 0. -1.
        -15    1    1    2    0    0 -0.10719068941E+02 -0.70230324589E+01 -0.15097815202E+02  0.19882735645E+02  0.17770000000E+01 0.  1.
         15    1    1    2    0    0 -0.14906815938E+01  0.14345987126E+01 -0.99445377031E+00  0.29029075737E+01  0.17770000000E+01 0. -1.
</event>
<event>
 6    1  0.3836009E-003  0.5011905E+03  0.7546771E-02  0.9397150E-01
        -11   -1    0    0    0    0  0.00000000000E+00  0.00000000000E+00  0.50000000000E+03  0.50000000000E+03  0.00000000000E+00 0. -1.
         11   -1    0    0    0    0 -0.00000000000E+00 -0.00000000000E+00 -0.50000000000E+03  0.50000000000E+03  0.00000000000E+00 0.  1.
        -11    1    1    2    0    0  0.77915888004E+01  0.30989461545E+01  0.33812648662E+03  0.33823044404E+03  0.00000000000E+00 0. -1.
         11    1    1    2    0    0  0.46313278142E+01 -0.69903161299E+01 -0.49873897225E+03  0.49880945877E+03  0.00000000000E+00 0.  1.
        -15    1    1    2    0    0 -0.41529662750E+01  0.34351751898E+01  0.65564867281E+01  0.86713784764E+01  0.17770000000E+01 0.  1.
         15    1    1    2    0    0 -0.82699503396E+01  0.45619478559E+00  0.15405599891E+03  0.15428871871E+03  0.17770000000E+01 0. -1.
</event>
<event>
 6    1  0.3836009E-003  0.5064773E+03  0.7546771E-02  0.9385432E-01
        -11   -1    0    0    0    0  0.00000000000E+00  0.00000000000E+00  0.50000000000E+03  0.50000000000E+03  0.00000000000E+00 0.  1.
         11   -1    0    0    0    0 -0.00000000000E+00 -0.00000000000E+00 -0.50000000000E+03  0.50000000000E+03  0.00000000000E+00 0.  1.
        -11    1    1    2    0    0  0.86155899884E+01 -0.32262039727E+02  0.49239173141E+03  0.49352272973E+03  0.00000000000E+00 0.  1.
         11    1    1    2    0    0 -0.11248753454E+02  0.21292191066E+01 -0.31349476860E+03  0.31370374235E+03  0.00000000000E+00 0.  1.
        -15    1    1    2    0    0  0.19263354161E+01  0.33441785631E+01  0.52072713541E+01  0.67206921036E+01  0.17770000000E+01 0.  1.
         15    1    1    2    0    0  0.70682804995E+00  0.26788642057E+02 -0.18410423417E+03  0.18605283582E+03  0.17770000000E+01 0. -1.
</event>
<event>
 6    1  0.3836009E-003  0.5079765E+03  0.7546771E-02  0.9382136E-01
        -11   -1    0    0    0    0  0.00000000000E+00  0.00000000000E+00  0.50000000000E+03  0.50000000000E+03  0.00000000000E+00 0.  1.
         11   -1    0    0    0    0 -0.00000000000E+00 -0.00000000000E+00 -0.50000000000E+03  0.50000000000E+03  0.00000000000E+00 0.  1.
        -11    1    1    2    0    0  0.42715901355E+01 -0.11720238616E+02  0.43194081979E+03  0.43212091164E+03  0.00000000000E+00 0.  1.
         11    1    1    2    0    0  0.11624742063E+02  0.84298388260E+01 -0.49181388344E+03  0.49202346769E+03  0.00000000000E+00 0.  1.
        -15    1    1    2    0    0  0.76096218763E+01  0.52385227065E+01  0.48871738976E+02  0.49768997024E+02  0.17770000000E+01 0. -1.
         15    1    1    2    0    0 -0.23505954074E+02 -0.19481229162E+01  0.11001324677E+02  0.26086623651E+02  0.17770000000E+01 0. -1.
</event>
<event>
 6    1  0.3836009E-003  0.5000176E+03  0.7546771E-02  0.9399770E-01
        -11   -1    0    0    0    0  0.00000000000E+00  0.00000000000E+00  0.50000000000E+03  0.50000000000E+03  0.00000000000E+00 0.  1.
         11   -1    0    0    0    0 -0.00000000000E+00 -0.00000000000E+00 -0.50000000000E+03  0.50000000000E+03  0.00000000000E+00 0. -1.
        -11    1    1    2    0    0 -0.13034834362E+01  0.10187889837E+01  0.10251658343E+03  0.10252993162E+03  0.00000000000E+00 0.  1.
         11    1    1    2    0    0  0.63003187698E+01  0.24972258882E+01 -0.49993644044E+03  0.49998237432E+03  0.00000000000E+00 0. -1.
        -15    1    1    2    0    0 -0.20841998477E+01 -0.65080229674E+00  0.12756558714E+03  0.12759664645E+03  0.17770000000E+01 0. -1.
         15    1    1    2    0    0 -0.29126354859E+01 -0.28652125751E+01  0.26985426987E+03  0.26989104762E+03  0.17770000000E+01 0. -1.
</event>
<event>
 6    1  0.3836009E-003  0.5020483E+03  0.7546771E-02  0.9395238E-01
        -11   -1    0    0    0    0  0.00000000000E+00  0.00000000000E+00  0.50000000000E+03  0.50000000000E+03  0.00000000000E+00 0.  1.
         11   -1    0    0    0    0 -0.00000000000E+00 -0.00000000000E+00 -0.50000000000E+03  0.50000000000E+03  0.00000000000E+00 0.  1.
        -11    1    1    2    0    0 -0.30408397279E+01  0.11810167784E+02  0.45028632380E+03  0.45045144041E+03  0.00000000000E+00 0.  1.
         11    1    1    2    0    0  0.10101504653E+02  0.85608960924E+00 -0.49784849136E+03  0.49795169810E+03  0.00000000000E+00 0.  1.
        -15    1    1    2    0    0 -0.65755290746E+00 -0.12804334940E+01  0.27475119014E+02  0.27570124766E+02  0.17770000000E+01 0. -1.
         15    1    1    2    0    0 -0.64031120180E+01 -0.11385823899E+02  0.20087048547E+02  0.24026736726E+02  0.17770000000E+01 0.  1.
</event>
<event>
 6    1  0.3836009E-003  0.5104913E+03  0.7546771E-02  0.9376636E-01
        -11   -1    0    0    0    0  0.00000000000E+00  0.00000000000E+00  0.50000000000E+03  0.50000000000E+03  0.00000000000E+00 0.  1.
         11   -1    0    0    0    0 -0.00000000000E+00 -0.00000000000E+00 -0.50000000000E+03  0.50000000000E+03  0.00000000000E+00 0. -1.
        -11    1    1    2    0    0  0.15610445018E+02 -0.19925870878E+02  0.46113983271E+03  0.46183403040E+03  0.00000000000E+00 0.  1.
         11    1    1    2    0    0  0.77569458498E+01  0.12794806432E+02 -0.48927998406E+03  0.48950871298E+03  0.00000000000E+00 0. -1.
        -15    1    1    2    0    0 -0.25143589990E+02 -0.32588492985E+01  0.28205782101E+02  0.37967671633E+02  0.17770000000E+01 0.  1.
         15    1    1    2    0    0  0.17761991221E+01  0.10389913745E+02 -0.65630750859E-01  0.10689584994E+02  0.17770000000E+01 0. -1.
</event>
<event>
 6    1  0.3836009E-003  0.5101170E+03  0.7546771E-02  0.9377453E-01
        -11   -1    0    0    0    0  0.00000000000E+00  0.00000000000E+00  0.50000000000E+03  0.50000000000E+03  0.00000000000E+00 0.  1.
         11   -1    0    0    0    0 -0.00000000000E+00 -0.00000000000E+00 -0.50000000000E+03  0.50000000000E+03  0.00000000000E+00 0.  1.
        -11    1    1    2    0    0  0.83744622763E+01 -0.45349792522E+01  0.48979045989E+03  0.48988303936E+03  0.00000000000E+00 0.  1.
         11    1    1    2    0    0  0.34391464907E+01  0.50430791710E+01 -0.26617267272E+03  0.26624265638E+03  0.00000000000E+00 0.  1.
        -15    1    1    2    0    0 -0.14098735574E+02  0.88141803922E+00  0.51078671669E+01  0.15126112472E+02  0.17770000000E+01 0.  1.
         15    1    1    2    0    0  0.22851268066E+01 -0.13895179581E+01 -0.22872565434E+03  0.22874819179E+03  0.17770000000E+01 0. -1.
</event>
<event>
 6    1  0.6735388E-003  0.5012202E+03  0.7546771E-02  0.9397084E-01
        -11   -1    0    0    0    0  0.00000000000E+00  0.00000000000E+00  0.50000000000E+03  0.50000000000E+03  0.00000000000E+00 0.  1.
         11   -1    0    0    0    0 -0.00000000000E+00 -0.00000000000E+00 -0.50000000000E+03  0.50000000000E+03  0.00000000000E+00 0. -1.
        -11    1    1    2    0    0  0.16569421681E+02 -0.94772063896E+01  0.49841442100E+03  0.49877980937E+03  0.00000000000E+00 0.  1.
         11    1    1    2    0    0 -0.24200076083E+01 -0.13174314289E+01 -0.57390530286E+01  0.63662227466E+01  0.00000000000E+00 0. -1.
        -15    1    1    2    0    0 -0.28480284837E+01  0.75296523739E+00 -0.20753212284E+01  0.40178240497E+01  0.17770000000E+01 0.  1.
         15    1    1    2    0    0 -0.11301385589E+02  0.10041672581E+02 -0.49060004674E+03  0.49083614384E+03  0.17770000000E+01 0. -1.
</event>
<event>
 6    1  0.3836009E-003  0.4577196E+03  0.7546771E-02  0.9499726E-01
        -11   -1    0    0    0    0  0.00000000000E+00  0.00000000000E+00  0.50000000000E+03  0.50000000000E+03  0.00000000000E+00 0.  1.
         11   -1    0    0    0    0 -0.00000000000E+00 -0.00000000000E+00 -0.50000000000E+03  0.50000000000E+03  0.00000000000E+00 0. -1.
        -11    1    1    2    0    0  0.84876186292E+01 -0.87919767141E+01  0.44957926978E+03  0.44974532609E+03  0.00000000000E+00 0.  1.
         11    1    1    2    0    0 -0.30301836285E+02 -0.16126014729E+02 -0.46516052942E+03  0.46642530781E+03  0.00000000000E+00 0. -1.
        -15    1    1    2    0    0 -0.14395303365E+02 -0.19958640505E+02  0.42198857152E+01  0.25030726203E+02  0.17770000000E+01 0.  1.
         15    1    1    2    0    0  0.36209521022E+02  0.44876631948E+02  0.11361373921E+02  0.58798639899E+02  0.17770000000E+01 0. -1.
</event>
<event>
 6    1  0.3836009E-003  0.5000283E+03  0.7546771E-02  0.9399746E-01
        -11   -1    0    0    0    0  0.00000000000E+00  0.00000000000E+00  0.50000000000E+03  0.50000000000E+03  0.00000000000E+00 0.  1.
         11   -1    0    0    0    0 -0.00000000000E+00 -0.00000000000E+00 -0.50000000000E+03  0.50000000000E+03  0.00000000000E+00 0.  1.
        -11    1    1    2    0    0 -0.43134072947E+01  0.63287657255E+01  0.49991299329E+03  0.49997165882E+03  0.00000000000E+00 0.  1.
         11    1    1    2    0    0  0.69082374131E+00 -0.50337217300E-01 -0.16104883569E+02  0.16119771898E+02  0.00000000000E+00 0.  1.
        -15    1    1    2    0    0  0.50123925890E+01 -0.41301690930E+01 -0.31987312110E+03  0.31994398527E+03  0.17770000000E+01 0.  1.
         15    1    1    2    0    0 -0.13898090357E+01 -0.21482594153E+01 -0.16393498862E+03  0.16396458402E+03  0.17770000000E+01 0.  1.
</event>
<event>
 6    1  0.3836009E-003  0.4870433E+03  0.7546771E-02  0.9429277E-01
        -11   -1    0    0    0    0  0.00000000000E+00  0.00000000000E+00  0.50000000000E+03  0.50000000000E+03  0.00000000000E+00 0.  1.
         11   -1    0    0    0    0 -0.00000000000E+00 -0.00000000000E+00 -0.50000000000E+03  0.50000000000E+03  0.00000000000E+00 0.  1.
        -11    1    1    2    0    0 -0.42781796824E+01 -0.65942693305E+01  0.48787556537E+03  0.48793888397E+03  0.00000000000E+00 0.  1.
         11    1    1    2    0    0 -0.42064950990E+01  0.96256227973E+01 -0.48607747548E+03  0.48619097008E+03  0.00000000000E+00 0.  1.
        -15    1    1    2    0    0  0.87671622911E+01 -0.10020002858E+02  0.64586210042E+01  0.14904197603E+02  0.17770000000E+01 0. -1.
         15    1    1    2    0    0 -0.28248750963E+00  0.69886493909E+01 -0.82567108906E+01  0.10965948351E+02  0.17770000000E+01 0.  1.
</event>
<event>
 6    1  0.4004652E-003  0.5002304E+03  0.7546771E-02  0.9399294E-01
        -11   -1    0    0    0    0  0.00000000000E+00  0.00000000000E+00  0.50000000000E+03  0.50000000000E+03  0.00000000000E+00 0.  1.
         11   -1    0    0    0    0 -0.00000000000E+00 -0.00000000000E+00 -0.50000000000E+03  0.50000000000E+03  0.00000000000E+00 0. -1.
        -11    1    1    2    0    0  0.37339599546E+01 -0.57532928300E+01  0.49972252707E+03  0.49976959381E+03  0.00000000000E+00 0.  1.
         11    1    1    2    0    0 -0.24318221084E+01 -0.73742416022E+00 -0.13679547518E+03  0.13681907610E+03  0.00000000000E+00 0. -1.
        -15    1    1    2    0    0  0.64636183357E+01  0.36160921025E+01 -0.26772051117E+03  0.26782883399E+03  0.17770000000E+01 0. -1.
         15    1    1    2    0    0 -0.77657561820E+01  0.28746248878E+01 -0.95206540720E+02  0.95582496108E+02  0.17770000000E+01 0.  1.
</event>
<event>
 6    1  0.3836009E-003  0.5048952E+03  0.7546771E-02  0.9388922E-01
        -11   -1    0    0    0    0  0.00000000000E+00  0.00000000000E+00  0.50000000000E+03  0.50000000000E+03  0.00000000000E+00 0.  1.
         11   -1    0    0    0    0 -0.00000000000E+00 -0.00000000000E+00 -0.50000000000E+03  0.50000000000E+03  0.00000000000E+00 0. -1.
        -11    1    1    2    0    0 -0.93422030166E+01  0.11802474877E+01  0.49162328578E+03  0.49171345809E+03  0.00000000000E+00 0.  1.
         11    1    1    2    0    0  0.68918758322E+01 -0.57180592284E+01 -0.49502378454E+03  0.49510477822E+03  0.00000000000E+00 0. -1.
        -15    1    1    2    0    0 -0.43638926755E+01  0.17667611264E+01  0.23058325246E+01  0.55353045799E+01  0.17770000000E+01 0.  1.
         15    1    1    2    0    0  0.68142198599E+01  0.27710506143E+01  0.10946662348E+01  0.76464591133E+01  0.17770000000E+01 0. -1.
</event>
<event>
 6    1  0.3836009E-003  0.5003370E+03  0.7546771E-02  0.9399056E-01
        -11   -1    0    0    0    0  0.00000000000E+00  0.00000000000E+00  0.50000000000E+03  0.50000000000E+03  0.00000000000E+00 0. -1.
         11   -1    0    0    0    0 -0.00000000000E+00 -0.00000000000E+00 -0.50000000000E+03  0.50000000000E+03  0.00000000000E+00 0. -1.
        -11    1    1    2    0    0 -0.99925984731E+01  0.36120846399E+01  0.49955000564E+03  0.49966299374E+03  0.00000000000E+00 0. -1.
         11    1    1    2    0    0  0.34906974828E+01  0.39329051226E+01 -0.32256775738E+03  0.32261061795E+03  0.00000000000E+00 0. -1.
        -15    1    1    2    0    0 -0.27476859685E+01 -0.54637070305E+01 -0.56238055124E+02  0.56597512717E+02  0.17770000000E+01 0. -1.
         15    1    1    2    0    0  0.92495869588E+01 -0.20812827320E+01 -0.12074419314E+03  0.12112887559E+03  0.17770000000E+01 0. -1.
</event>
<event>
 6    1  0.3836009E-003  0.4654287E+03  0.7546771E-02  0.9480672E-01
        -11   -1    0    0    0    0  0.00000000000E+00  0.00000000000E+00  0.50000000000E+03  0.50000000000E+03  0.00000000000E+00 0. -1.
         11   -1    0    0    0    0 -0.00000000000E+00 -0.00000000000E+00 -0.50000000000E+03  0.50000000000E+03  0.00000000000E+00 0. -1.
        -11    1    1    2    0    0  0.11826073094E+02 -0.18277131324E+02  0.46571512281E+03  0.46622364284E+03  0.00000000000E+00 0. -1.
         11    1    1    2    0    0  0.86177716475E+01  0.77202935757E+00 -0.46494252919E+03  0.46502302896E+03  0.00000000000E+00 0. -1.
        -15    1    1    2    0    0 -0.22695651258E+02  0.17826373084E+02  0.27755316996E+02  0.40079764394E+02  0.17770000000E+01 0. -1.
         15    1    1    2    0    0  0.22518065169E+01 -0.32127111777E+00 -0.28527910617E+02  0.28673563799E+02  0.17770000000E+01 0.  1.
</event>
<event>
 6    1  0.3836009E-003  0.5003918E+03  0.7546771E-02  0.9398934E-01
        -11   -1    0    0    0    0  0.00000000000E+00  0.00000000000E+00  0.50000000000E+03  0.50000000000E+03  0.00000000000E+00 0.  1.
         11   -1    0    0    0    0 -0.00000000000E+00 -0.00000000000E+00 -0.50000000000E+03  0.50000000000E+03  0.00000000000E+00 0.  1.
        -11    1    1    2    0    0  0.27008898794E+01 -0.29682914319E+01  0.14541822430E+03  0.14547359045E+03  0.00000000000E+00 0.  1.
         11    1    1    2    0    0  0.12242957827E+02 -0.40444769751E+01 -0.49944184089E+03  0.49960824677E+03  0.00000000000E+00 0.  1.
        -15    1    1    2    0    0 -0.54588827921E+01  0.56882733228E+01  0.29386392885E+03  0.29397503680E+03  0.17770000000E+01 0.  1.
         15    1    1    2    0    0 -0.94849649145E+01  0.13244950842E+01  0.60159687734E+02  0.60943125978E+02  0.17770000000E+01 0.  1.
</event>
<event>
 6    1  0.3836009E-003  0.5046830E+03  0.7546771E-02  0.9389392E-01
        -11   -1    0    0    0    0  0.00000000000E+00  0.00000000000E+00  0.50000000000E+03  0.50000000000E+03  0.00000000000E+00 0. -1.
         11   -1    0    0    0    0 -0.00000000000E+00 -0.00000000000E+00 -0.50000000000E+03  0.50000000000E+03  0.00000000000E+00 0. -1.
        -11    1    1    2    0    0  0.95224702948E+01  0.72470491930E+01  0.45849453800E+03  0.45865067157E+03  0.00000000000E+00 0. -1.
         11    1    1    2    0    0 -0.73578786226E+01 -0.42360044140E-01 -0.49526238203E+03  0.49531703709E+03  0.00000000000E+00 0. -1.
        -15    1    1    2    0    0  0.54855302266E+01 -0.19310983294E+01 -0.17835961638E+01  0.63371229198E+01  0.17770000000E+01 0. -1.
         15    1    1    2    0    0 -0.76501218988E+01 -0.52735908195E+01  0.38551440201E+02  0.39695168419E+02  0.17770000000E+01 0. -1.
</event>
<event>
 6    1  0.3836009E-003  0.5032328E+03  0.7546771E-02  0.9392605E-01
        -11   -1    0    0    0    0  0.00000000000E+00  0.00000000000E+00  0.50000000000E+03  0.50000000000E+03  0.00000000000E+00 0. -1.
         11   -1    0    0    0    0 -0.00000000000E+00 -0.00000000000E+00 -0.50000000000E+03  0.50000000000E+03  0.00000000000E+00 0.  1.
        -11    1    1    2    0    0 -0.17547739758E+02  0.19385854603E+01  0.49645334873E+03  0.49676715747E+03  0.00000000000E+00 0. -1.
         11    1    1    2    0    0  0.31204352486E+02  0.11716270010E+02 -0.41425295626E+03  0.41559174002E+03  0.00000000000E+00 0.  1.
        -15    1    1    2    0    0 -0.14604121112E+02 -0.17577478336E+02 -0.48389483130E+02  0.53543887650E+02  0.17770000000E+01 0.  1.
         15    1    1    2    0    0  0.94750838416E+00  0.39226228665E+01 -0.33810909334E+02  0.34097214861E+02  0.17770000000E+01 0. -1.
</event>
<event>
 6    1  0.3836009E-003  0.5017897E+03  0.7546771E-02  0.9395814E-01
        -11   -1    0    0    0    0  0.00000000000E+00  0.00000000000E+00  0.50000000000E+03  0.50000000000E+03  0.00000000000E+00 0.  1.
         11   -1    0    0    0    0 -0.00000000000E+00 -0.00000000000E+00 -0.50000000000E+03  0.50000000000E+03  0.00000000000E+00 0. -1.
        -11    1    1    2    0    0 -0.50785197315E+01 -0.91808501417E+01  0.49809978857E+03  0.49821027564E+03  0.00000000000E+00 0.  1.
         11    1    1    2    0    0 -0.35456835949E+01 -0.74118328444E+01 -0.33675110054E+03  0.33685131862E+03  0.00000000000E+00 0. -1.
        -15    1    1    2    0    0  0.69154692953E+01  0.10713271678E+01 -0.79598260716E+01  0.10746535142E+02  0.17770000000E+01 0.  1.
         15    1    1    2    0    0  0.17087340311E+01  0.15521355818E+02 -0.15338886196E+03  0.15419187060E+03  0.17770000000E+01 0. -1.
</event>
<event>
 6    1  0.3836009E-003  0.5008192E+03  0.7546771E-02  0.9397979E-01
        -11   -1    0    0    0    0  0.00000000000E+00  0.00000000000E+00  0.50000000000E+03  0.50000000000E+03  0.00000000000E+00 0.  1.
         11   -1    0    0    0    0 -0.00000000000E+00 -0.00000000000E+00 -0.50000000000E+03  0.50000000000E+03  0.00000000000E+00 0. -1.
        -11    1    1    2    0    0 -0.45140764789E+01  0.61644537000E+01  0.49912236259E+03  0.49918083919E+03  0.00000000000E+00 0.  1.
         11    1    1    2    0    0 -0.67976973144E+01  0.42278130232E+01 -0.41382900437E+03  0.41390642415E+03  0.00000000000E+00 0. -1.
        -15    1    1    2    0    0  0.11193033047E+01 -0.38711598776E+01 -0.26131864214E+02  0.26500391977E+02  0.17770000000E+01 0.  1.
         15    1    1    2    0    0  0.10192470489E+02 -0.65211068457E+01 -0.59161494003E+02  0.60412344689E+02  0.17770000000E+01 0. -1.
</event>
<event>
 6    1  0.3836009E-003  0.5089328E+03  0.7546771E-02  0.9380041E-01
        -11   -1    0    0    0    0  0.00000000000E+00  0.00000000000E+00  0.50000000000E+03  0.50000000000E+03  0.00000000000E+00 0.  1.
         11   -1    0    0    0    0 -0.00000000000E+00 -0.00000000000E+00 -0.50000000000E+03  0.50000000000E+03  0.00000000000E+00 0.  1.
        -11    1    1    2    0    0 -0.89214456087E+01  0.20857598527E+02  0.49054296686E+03  0.49106723974E+03  0.00000000000E+00 0.  1.
         11    1    1    2    0    0 -0.22195774125E+01 -0.94920063676E+01 -0.47281679117E+03  0.47291726837E+03  0.00000000000E+00 0.  1.
        -15    1    1    2    0    0  0.15203738963E+02 -0.15358810960E+02 -0.54389997277E+01  0.22355920907E+02  0.17770000000E+01 0.  1.
         15    1    1    2    0    0 -0.40627159417E+01  0.39932187997E+01 -0.12287175963E+02  0.13659570980E+02  0.17770000000E+01 0.  1.
</event>
<event>
 6    1  0.3836009E-003  0.4840064E+03  0.7546771E-02  0.9436325E-01
        -11   -1    0    0    0    0  0.00000000000E+00  0.00000000000E+00  0.50000000000E+03  0.50000000000E+03  0.00000000000E+00 0.  1.
         11   -1    0    0    0    0 -0.00000000000E+00 -0.00000000000E+00 -0.50000000000E+03  0.50000000000E+03  0.00000000000E+00 0.  1.
        -11    1    1    2    0    0  0.14181050426E+02  0.28048410425E+01  0.48923363886E+03  0.48944716029E+03  0.00000000000E+00 0.  1.
         11    1    1    2    0    0  0.30185895640E+01 -0.19007470076E+02 -0.47852640335E+03  0.47891326407E+03  0.00000000000E+00 0.  1.
        -15    1    1    2    0    0 -0.15676730182E+02  0.59242822543E+01 -0.12453081206E+02  0.20954568713E+02  0.17770000000E+01 0. -1.
         15    1    1    2    0    0 -0.15229098077E+01  0.10278346779E+02  0.17458457019E+01  0.10685006926E+02  0.17770000000E+01 0.  1.
</event>
<event>
 6    1  0.3836009E-003  0.5007560E+03  0.7546771E-02  0.9398120E-01
        -11   -1    0    0    0    0  0.00000000000E+00  0.00000000000E+00  0.50000000000E+03  0.50000000000E+03  0.00000000000E+00 0.  1.
         11   -1    0    0    0    0 -0.00000000000E+00 -0.00000000000E+00 -0.50000000000E+03  0.50000000000E+03  0.00000000000E+00 0. -1.
        -11    1    1    2    0    0 -0.64051521141E+01 -0.76201132183E+01  0.47094383822E+03  0.47104903233E+03  0.00000000000E+00 0.  1.
         11    1    1    2    0    0  0.49267307388E+01  0.62620200304E+01 -0.49918037590E+03  0.49924396166E+03  0.00000000000E+00 0. -1.
        -15    1    1    2    0    0  0.28347568470E+01  0.19797828980E+01  0.26563400868E+02  0.26846366260E+02  0.17770000000E+01 0. -1.
         15    1    1    2    0    0 -0.13563354717E+01 -0.62168971013E+00  0.16731368054E+01  0.28606397496E+01  0.17770000000E+01 0.  1.
</event>
<event>
 6    1  0.3836009E-003  0.5047948E+03  0.7546771E-02  0.9389144E-01
        -11   -1    0    0    0    0  0.00000000000E+00  0.00000000000E+00  0.50000000000E+03  0.50000000000E+03  0.00000000000E+00 0.  1.
         11   -1    0    0    0    0 -0.00000000000E+00 -0.00000000000E+00 -0.50000000000E+03  0.50000000000E+03  0.00000000000E+00 0.  1.
        -11    1    1    2    0    0 -0.20718698323E+02  0.21827629131E+01  0.34998576738E+03  0.35060528559E+03  0.00000000000E+00 0.  1.
         11    1    1    2    0    0 -0.13172146102E+01 -0.18712130545E+02 -0.49484979124E+03  0.49520520471E+03  0.00000000000E+00 0.  1.
        -15    1    1    2    0    0 -0.28416141928E+01 -0.59232888908E-01  0.10110432706E+03  0.10115987821E+03  0.17770000000E+01 0. -1.
         15    1    1    2    0    0  0.24877527126E+02  0.16588600521E+02  0.43759696799E+02  0.53029631491E+02  0.17770000000E+01 0.  1.
</event>
<event>
 6    1  0.3836009E-003  0.5025617E+03  0.7546771E-02  0.9394096E-01
        -11   -1    0    0    0    0  0.00000000000E+00  0.00000000000E+00  0.50000000000E+03  0.50000000000E+03  0.00000000000E+00 0.  1.
         11   -1    0    0    0    0 -0.00000000000E+00 -0.00000000000E+00 -0.50000000000E+03  0.50000000000E+03  0.00000000000E+00 0.  1.
        -11    1    1    2    0    0  0.10877342532E+01  0.22253671366E+02  0.49693907136E+03  0.49743828733E+03  0.00000000000E+00 0.  1.
         11    1    1    2    0    0  0.57211341452E+01  0.43519566668E+01 -0.30389530954E+03  0.30398031197E+03  0.00000000000E+00 0.  1.
        -15    1    1    2    0    0 -0.79795534084E+01  0.63200932634E+01 -0.84618360326E+02  0.85246944137E+02  0.17770000000E+01 0. -1.
         15    1    1    2    0    0  0.11706850100E+01 -0.32925721296E+02 -0.10842540150E+03  0.11333445657E+03  0.17770000000E+01 0.  1.
</event>
<event>
 6    1  0.3836009E-003  0.5063798E+03  0.7546771E-02  0.9385646E-01
        -11   -1    0    0    0    0  0.00000000000E+00  0.00000000000E+00  0.50000000000E+03  0.50000000000E+03  0.00000000000E+00 0.  1.
         11   -1    0    0    0    0 -0.00000000000E+00 -0.00000000000E+00 -0.50000000000E+03  0.50000000000E+03  0.00000000000E+00 0.  1.
        -11    1    1    2    0    0  0.92429699754E+01  0.16048348146E+01  0.49353101525E+03  0.49362016876E+03  0.00000000000E+00 0.  1.
         11    1    1    2    0    0 -0.38593245264E+01 -0.80575975915E+01 -0.48592765786E+03  0.48600978173E+03  0.00000000000E+00 0.  1.
        -15    1    1    2    0    0 -0.22769592410E+01  0.52719825002E+01 -0.12688580693E+02  0.14040518219E+02  0.17770000000E+01 0.  1.
         15    1    1    2    0    0 -0.31066862080E+01  0.11807802768E+01  0.50852233022E+01  0.63295312852E+01  0.17770000000E+01 0.  1.
</event>
<event>
 6    1  0.3836009E-003  0.5020308E+03  0.7546771E-02  0.9395277E-01
        -11   -1    0    0    0    0  0.00000000000E+00  0.00000000000E+00  0.50000000000E+03  0.50000000000E+03  0.00000000000E+00 0. -1.
         11   -1    0    0    0    0 -0.00000000000E+00 -0.00000000000E+00 -0.50000000000E+03  0.50000000000E+03  0.00000000000E+00 0. -1.
        -11    1    1    2    0    0 -0.82062726949E+00 -0.51561970973E+01  0.18480354189E+03  0.18487728063E+03  0.00000000000E+00 0. -1.
         11    1    1    2    0    0  0.82952693058E+01  0.48382329024E+01 -0.49787662110E+03  0.49796922578E+03  0.00000000000E+00 0. -1.
        -15    1    1    2    0    0  0.11358226586E+02 -0.11865411570E+02  0.41765513120E+02  0.44914508993E+02  0.17770000000E+01 0.  1.
         15    1    1    2    0    0 -0.18832868622E+02  0.12183375765E+02  0.27130756609E+03  0.27223898460E+03  0.17770000000E+01 0. -1.
</event>
<event>
 6    1  0.3836009E-003  0.5032985E+03  0.7546771E-02  0.9392459E-01
        -11   -1    0    0    0    0  0.00000000000E+00  0.00000000000E+00  0.50000000000E+03  0.50000000000E+03  0.00000000000E+00 0.  1.
         11   -1    0    0    0    0 -0.00000000000E+00 -0.00000000000E+00 -0.50000000000E+03  0.50000000000E+03  0.00000000000E+00 0. -1.
        -11    1    1    2    0    0  0.17309525410E+02 -0.27259448639E+02  0.49565080792E+03  0.49670154077E+03  0.00000000000E+00 0.  1.
         11    1    1    2    0    0 -0.38004664963E+01 -0.36051081260E+01 -0.27082730813E+03  0.27087796363E+03  0.00000000000E+00 0. -1.
        -15    1    1    2    0    0  0.18161882462E+01  0.24945276549E+02 -0.20537434442E+03  0.20689935824E+03  0.17770000000E+01 0.  1.
         15    1    1    2    0    0 -0.15325247160E+02  0.59192802162E+01 -0.19449155368E+02  0.25521137364E+02  0.17770000000E+01 0. -1.
</event>
<event>
 6    1  0.3836009E-003  0.3287056E+03  0.7546771E-02  0.9894227E-01
        -11   -1    0    0    0    0  0.00000000000E+00  0.00000000000E+00  0.50000000000E+03  0.50000000000E+03  0.00000000000E+00 0. -1.
         11   -1    0    0    0    0 -0.00000000000E+00 -0.00000000000E+00 -0.50000000000E+03  0.50000000000E+03  0.00000000000E+00 0.  1.
        -11    1    1    2    0    0 -0.14525416802E+02 -0.14592352174E+01  0.21613367750E+03  0.21662613797E+03  0.00000000000E+00 0. -1.
         11    1    1    2    0    0 -0.10816245443E+02  0.20898031625E+01 -0.11762535192E+03  0.11814009420E+03  0.00000000000E+00 0.  1.
        -15    1    1    2    0    0  0.16835709344E+02 -0.28986322486E+01  0.28304956739E+03  0.28357020032E+03  0.17770000000E+01 0. -1.
         15    1    1    2    0    0  0.85059529011E+01  0.22680643035E+01 -0.38155789297E+03  0.38166356752E+03  0.17770000000E+01 0.  1.
</event>
<event>
 6    1  0.3836009E-003  0.5046622E+03  0.7546771E-02  0.9389438E-01
        -11   -1    0    0    0    0  0.00000000000E+00  0.00000000000E+00  0.50000000000E+03  0.50000000000E+03  0.00000000000E+00 0. -1.
         11   -1    0    0    0    0 -0.00000000000E+00 -0.00000000000E+00 -0.50000000000E+03  0.50000000000E+03  0.00000000000E+00 0. -1.
        -11    1    1    2    0    0 -0.17396462533E+02  0.10521233781E+02  0.42200717501E+03  0.42249661422E+03  0.00000000000E+00 0. -1.
         11    1    1    2    0    0  0.89201802227E+01 -0.81301724346E+01 -0.49519071766E+03  0.49533777987E+03  0.00000000000E+00 0. -1.
        -15    1    1    2    0    0 -0.19184870303E+01 -0.21291741776E+01 -0.34412621251E+01  0.48180897852E+01  0.17770000000E+01 0.  1.
         15    1    1    2    0    0  0.10394769341E+02 -0.26188716881E+00  0.76624804775E+02  0.77347516123E+02  0.17770000000E+01 0. -1.
</event>
<event>
 6    1  0.3836009E-003  0.5028705E+03  0.7546771E-02  0.9393410E-01
        -11   -1    0    0    0    0  0.00000000000E+00  0.00000000000E+00  0.50000000000E+03  0.50000000000E+03  0.00000000000E+00 0. -1.
         11   -1    0    0    0    0 -0.00000000000E+00 -0.00000000000E+00 -0.50000000000E+03  0.50000000000E+03  0.00000000000E+00 0.  1.
        -11    1    1    2    0    0  0.64260823933E+01  0.28825099493E+01  0.49707960451E+03  0.49712949683E+03  0.00000000000E+00 0. -1.
         11    1    1    2    0    0  0.67193486255E+01  0.59814288065E+01 -0.40215204619E+03  0.40225265119E+03  0.00000000000E+00 0.  1.
        -15    1    1    2    0    0 -0.19129694936E+01 -0.11566490280E+02 -0.11998430421E+02  0.16869001489E+02  0.17770000000E+01 0. -1.
         15    1    1    2    0    0 -0.11232461525E+02  0.27025515239E+01 -0.82929127893E+02  0.83748850492E+02  0.17770000000E+01 0.  1.
</event>
<event>
 6    1  0.3836009E-003  0.5077201E+03  0.7546771E-02  0.9382699E-01
        -11   -1    0    0    0    0  0.00000000000E+00  0.00000000000E+00  0.50000000000E+03  0.50000000000E+03  0.00000000000E+00 0.  1.
         11   -1    0    0    0    0 -0.00000000000E+00 -0.00000000000E+00 -0.50000000000E+03  0.50000000000E+03  0.00000000000E+00 0. -1.
        -11    1    1    2    0    0  0.81095436942E+01 -0.13630135883E+01  0.45385775705E+03  0.45393224840E+03  0.00000000000E+00 0.  1.
         11    1    1    2    0    0 -0.14109477282E+02 -0.19510969100E+02 -0.49169069538E+03  0.49227989517E+03  0.00000000000E+00 0. -1.
        -15    1    1    2    0    0  0.10171672166E+02  0.20435476026E+02  0.90066955492E+01  0.24603859225E+02  0.17770000000E+01 0. -1.
         15    1    1    2    0    0 -0.41717385775E+01  0.43850666273E+00  0.28826242779E+02  0.29183997201E+02  0.17770000000E+01 0.  1.
</event>
<event>
 6    1  0.3836009E-003  0.5433848E+03  0.7546771E-02  0.9307645E-01
        -11   -1    0    0    0    0  0.00000000000E+00  0.00000000000E+00  0.50000000000E+03  0.50000000000E+03  0.00000000000E+00 0.  1.
         11   -1    0    0    0    0 -0.00000000000E+00 -0.00000000000E+00 -0.50000000000E+03  0.50000000000E+03  0.00000000000E+00 0. -1.
        -11    1    1    2    0    0  0.37597471766E+02  0.15959851629E+01  0.45506187163E+03  0.45661518160E+03  0.00000000000E+00 0.  1.
         11    1    1    2    0    0 -0.22004379513E+02 -0.14839119076E+02 -0.37236759221E+03  0.37331222308E+03  0.00000000000E+00 0. -1.
        -15    1    1    2    0    0  0.30748240732E+02  0.23768717263E+02  0.29100354541E+02  0.48583892309E+02  0.17770000000E+01 0. -1.
         15    1    1    2    0    0 -0.46341332985E+02 -0.10525583350E+02 -0.11179463397E+03  0.12148870302E+03  0.17770000000E+01 0.  1.
</event>
<event>
 6    1  0.3836009E-003  0.5029116E+03  0.7546771E-02  0.9393318E-01
        -11   -1    0    0    0    0  0.00000000000E+00  0.00000000000E+00  0.50000000000E+03  0.50000000000E+03  0.00000000000E+00 0.  1.
         11   -1    0    0    0    0 -0.00000000000E+00 -0.00000000000E+00 -0.50000000000E+03  0.50000000000E+03  0.00000000000E+00 0.  1.
        -11    1    1    2    0    0 -0.13799050346E+01 -0.91870924738E+01  0.44238837611E+03  0.44248591177E+03  0.00000000000E+00 0.  1.
         11    1    1    2    0    0 -0.15283198734E+02 -0.20292305907E+01 -0.49684920656E+03  0.49708835030E+03  0.00000000000E+00 0.  1.
        -15    1    1    2    0    0  0.12963787532E+02 -0.13307789329E+00  0.36607033042E+02  0.38875571945E+02  0.17770000000E+01 0.  1.
         15    1    1    2    0    0  0.36993162370E+01  0.11349400958E+02  0.17853797415E+02  0.21550165983E+02  0.17770000000E+01 0. -1.
</event>
<event>
 6    1  0.3836009E-003  0.5013646E+03  0.7546771E-02  0.9396761E-01
        -11   -1    0    0    0    0  0.00000000000E+00  0.00000000000E+00  0.50000000000E+03  0.50000000000E+03  0.00000000000E+00 0. -1.
         11   -1    0    0    0    0 -0.00000000000E+00 -0.00000000000E+00 -0.50000000000E+03  0.50000000000E+03  0.00000000000E+00 0.  1.
        -11    1    1    2    0    0  0.14890490611E+01  0.81026203374E+01  0.47511437842E+03  0.47518579766E+03  0.00000000000E+00 0. -1.
         11    1    1    2    0    0 -0.45727077977E+00 -0.77591610578E+01 -0.49857480655E+03  0.49863538924E+03  0.00000000000E+00 0.  1.
        -15    1    1    2    0    0 -0.15587470615E+00  0.56110355811E+00 -0.64280472916E+00  0.19773874296E+01  0.17770000000E+01 0.  1.
         15    1    1    2    0    0 -0.87590357518E+00 -0.90456283766E+00  0.24103232861E+02  0.24201425668E+02  0.17770000000E+01 0. -1.
</event>
<event>
 6    1  0.3836009E-003  0.5053270E+03  0.7546771E-02  0.9387968E-01
        -11   -1    0    0    0    0  0.00000000000E+00  0.00000000000E+00  0.50000000000E+03  0.50000000000E+03  0.00000000000E+00 0.  1.
         11   -1    0    0    0    0 -0.00000000000E+00 -0.00000000000E+00 -0.50000000000E+03  0.50000000000E+03  0.00000000000E+00 0. -1.
        -11    1    1    2    0    0  0.58722204591E+01  0.12671365248E+02  0.42581661358E+03  0.42604557840E+03  0.00000000000E+00 0.  1.
         11    1    1    2    0    0  0.91340853926E+01  0.89048063182E+01 -0.49450849882E+03  0.49467300563E+03  0.00000000000E+00 0. -1.
        -15    1    1    2    0    0 -0.65163746465E+01 -0.74089516036E+01  0.59415004265E+02  0.60254926464E+02  0.17770000000E+01 0.  1.
         15    1    1    2    0    0 -0.84899312052E+01 -0.14167219963E+02  0.92768809742E+01  0.19026489507E+02  0.17770000000E+01 0.  1.
</event>
<event>
 6    1  0.3836009E-003  0.4890623E+03  0.7546771E-02  0.9424622E-01
        -11   -1    0    0    0    0  0.00000000000E+00  0.00000000000E+00  0.50000000000E+03  0.50000000000E+03  0.00000000000E+00 0. -1.
         11   -1    0    0    0    0 -0.00000000000E+00 -0.00000000000E+00 -0.50000000000E+03  0.50000000000E+03  0.00000000000E+00 0. -1.
        -11    1    1    2    0    0 -0.53960664110E+01 -0.76004018973E+01  0.48539511801E+03  0.48548460762E+03  0.00000000000E+00 0. -1.
         11    1    1    2    0    0  0.28247408504E+01 -0.11741307578E+02 -0.49271392522E+03  0.49286189705E+03  0.00000000000E+00 0. -1.
        -15    1    1    2    0    0  0.55972539482E+00  0.47215427576E+01 -0.20422408135E-01  0.50758649119E+01  0.17770000000E+01 0. -1.
         15    1    1    2    0    0  0.20116001657E+01  0.14620166718E+02  0.73392296115E+01  0.16577630421E+02  0.17770000000E+01 0.  1.
</event>
<event>
 6    1  0.3836009E-003  0.5105591E+03  0.7546771E-02  0.9376488E-01
        -11   -1    0    0    0    0  0.00000000000E+00  0.00000000000E+00  0.50000000000E+03  0.50000000000E+03  0.00000000000E+00 0. -1.
         11   -1    0    0    0    0 -0.00000000000E+00 -0.00000000000E+00 -0.50000000000E+03  0.50000000000E+03  0.00000000000E+00 0. -1.
        -11    1    1    2    0    0 -0.12845462486E+02 -0.15793656461E+01  0.48926975786E+03  0.48944090170E+03  0.00000000000E+00 0. -1.
         11    1    1    2    0    0 -0.37581963816E+01 -0.10544460774E+02 -0.47449000261E+03  0.47462203095E+03  0.00000000000E+00 0. -1.
        -15    1    1    2    0    0 -0.37367158915E+01  0.94984740403E+01  0.38623192987E+00  0.10367784665E+02  0.17770000000E+01 0.  1.
         15    1    1    2    0    0  0.20340374759E+02  0.26253523797E+01 -0.15165987185E+02  0.25569282680E+02  0.17770000000E+01 0. -1.
</event>
<event>
 6    1  0.3836009E-003  0.5035474E+03  0.7546771E-02  0.9391907E-01
        -11   -1    0    0    0    0  0.00000000000E+00  0.00000000000E+00  0.50000000000E+03  0.50000000000E+03  0.00000000000E+00 0. -1.
         11   -1    0    0    0    0 -0.00000000000E+00 -0.00000000000E+00 -0.50000000000E+03  0.50000000000E+03  0.00000000000E+00 0. -1.
        -11    1    1    2    0    0  0.26610839893E+00 -0.43724666734E+01  0.24149691909E+03  0.24153664569E+03  0.00000000000E+00 0. -1.
         11    1    1    2    0    0 -0.57899242859E+01 -0.63334876099E+01 -0.49637839164E+03  0.49645255964E+03  0.00000000000E+00 0. -1.
        -15    1    1    2    0    0 -0.70174915463E+01  0.56739145485E+01  0.24500851524E+03  0.24518109382E+03  0.17770000000E+01 0. -1.
         15    1    1    2    0    0  0.12541307433E+02  0.50320397348E+01  0.98729573021E+01  0.16829700857E+02  0.17770000000E+01 0.  1.
</event>
<event>
 6    1  0.3836009E-003  0.5051730E+03  0.7546771E-02  0.9388309E-01
        -11   -1    0    0    0    0  0.00000000000E+00  0.00000000000E+00  0.50000000000E+03  0.50000000000E+03  0.00000000000E+00 0.  1.
         11   -1    0    0    0    0 -0.00000000000E+00 -0.00000000000E+00 -0.50000000000E+03  0.50000000000E+03  0.00000000000E+00 0.  1.
        -11    1    1    2    0    0  0.73532264013E+01 -0.32029459114E+01  0.49476197917E+03  0.49482698474E+03  0.00000000000E+00 0.  1.
         11    1    1    2    0    0  0.11615029611E+02 -0.58986739130E+01 -0.41988103406E+03  0.42008307040E+03  0.00000000000E+00 0.  1.
        -15    1    1    2    0    0 -0.19147021929E+02  0.20081712957E+02 -0.41920027213E+02  0.50302386171E+02  0.17770000000E+01 0.  1.
         15    1    1    2    0    0  0.17876591735E+00 -0.10980093132E+02 -0.32960917891E+02  0.34787558691E+02  0.17770000000E+01 0. -1.
</event>
<event>
 6    1  0.3836009E-003  0.5047145E+03  0.7546771E-02  0.9389322E-01
        -11   -1    0    0    0    0  0.00000000000E+00  0.00000000000E+00  0.50000000000E+03  0.50000000000E+03  0.00000000000E+00 0. -1.
         11   -1    0    0    0    0 -0.00000000000E+00 -0.00000000000E+00 -0.50000000000E+03  0.50000000000E+03  0.00000000000E+00 0.  1.
        -11    1    1    2    0    0 -0.34644027713E+01  0.95746622561E+01  0.16643827942E+03  0.16674944408E+03  0.00000000000E+00 0. -1.
         11    1    1    2    0    0 -0.15124078998E+01 -0.69140189552E+01 -0.49523491142E+03  0.49528548185E+03  0.00000000000E+00 0.  1.
        -15    1    1    2    0    0  0.38990946531E+01 -0.89038516363E+01  0.33090730669E+03  0.33105480644E+03  0.17770000000E+01 0. -1.
         15    1    1    2    0    0  0.10777160180E+01  0.62432083354E+01 -0.21106746955E+01  0.69102676363E+01  0.17770000000E+01 0. -1.
</event>
<event>
 6    1  0.3836009E-003  0.5152049E+03  0.7546771E-02  0.9366416E-01
        -11   -1    0    0    0    0  0.00000000000E+00  0.00000000000E+00  0.50000000000E+03  0.50000000000E+03  0.00000000000E+00 0. -1.
         11   -1    0    0    0    0 -0.00000000000E+00 -0.00000000000E+00 -0.50000000000E+03  0.50000000000E+03  0.00000000000E+00 0.  1.
        -11    1    1    2    0    0  0.18014496382E+02 -0.10285510031E+02  0.48435111974E+03  0.48479513301E+03  0.00000000000E+00 0. -1.
         11    1    1    2    0    0 -0.20337697383E+02 -0.16792592702E+02 -0.43246113831E+03  0.43326464113E+03  0.00000000000E+00 0.  1.
        -15    1    1    2    0    0 -0.78472388069E+01  0.35713669819E+02 -0.10013205498E+02  0.37953489723E+02  0.17770000000E+01 0. -1.
         15    1    1    2    0    0  0.10170439807E+02 -0.86355670860E+01 -0.41876775932E+02  0.43986736140E+02  0.17770000000E+01 0.  1.
</event>
<event>
 6    1  0.3836009E-003  0.5001101E+03  0.7546771E-02  0.9399563E-01
        -11   -1    0    0    0    0  0.00000000000E+00  0.00000000000E+00  0.50000000000E+03  0.50000000000E+03  0.00000000000E+00 0.  1.
         11   -1    0    0    0    0 -0.00000000000E+00 -0.00000000000E+00 -0.50000000000E+03  0.50000000000E+03  0.00000000000E+00 0.  1.
        -11    1    1    2    0    0 -0.20364625014E+01  0.54700478778E+00  0.37023176922E+02  0.37083177091E+02  0.00000000000E+00 0.  1.
         11    1    1    2    0    0  0.72408273455E+01 -0.57349739126E+01 -0.49980458086E+03  0.49988992644E+03  0.00000000000E+00 0.  1.
        -15    1    1    2    0    0 -0.30373108488E+01  0.83818373392E+01  0.39929078607E+03  0.39939425387E+03  0.17770000000E+01 0.  1.
         15    1    1    2    0    0 -0.21670539953E+01 -0.31938682144E+01  0.63490617867E+02  0.63632642593E+02  0.17770000000E+01 0.  1.
</event>
<event>
 6    1  0.3836009E-003  0.5029928E+03  0.7546771E-02  0.9393138E-01
        -11   -1    0    0    0    0  0.00000000000E+00  0.00000000000E+00  0.50000000000E+03  0.50000000000E+03  0.00000000000E+00 0.  1.
         11   -1    0    0    0    0 -0.00000000000E+00 -0.00000000000E+00 -0.50000000000E+03  0.50000000000E+03  0.00000000000E+00 0. -1.
        -11    1    1    2    0    0 -0.27755174859E+01 -0.84449702103E+00  0.13477302208E+03  0.13480424383E+03  0.00000000000E+00 0.  1.
         11    1    1    2    0    0 -0.83674378027E+01  0.18856321236E+00 -0.49693673309E+03  0.49700720947E+03  0.00000000000E+00 0. -1.
        -15    1    1    2    0    0  0.29281989575E+01 -0.15679069152E+02  0.20516869611E+02  0.26048171265E+02  0.17770000000E+01 0. -1.
         15    1    1    2    0    0  0.82147563310E+01  0.16335002960E+02  0.34164684139E+03  0.34214037544E+03  0.17770000000E+01 0.  1.
</event>
<event>
 6    1  0.3836009E-003  0.5045616E+03  0.7546771E-02  0.9389660E-01
        -11   -1    0    0    0    0  0.00000000000E+00  0.00000000000E+00  0.50000000000E+03  0.50000000000E+03  0.00000000000E+00 0.  1.
         11   -1    0    0    0    0 -0.00000000000E+00 -0.00000000000E+00 -0.50000000000E+03  0.50000000000E+03  0.00000000000E+00 0. -1.
        -11    1    1    2    0    0 -0.78184621995E+01 -0.29762117185E+01  0.39311935792E+03  0.39320836176E+03  0.00000000000E+00 0.  1.
         11    1    1    2    0    0 -0.25240713250E+02  0.57833382255E+01 -0.49476124913E+03  0.49543842629E+03  0.00000000000E+00 0. -1.
        -15    1    1    2    0    0  0.20420594854E+01 -0.89540501885E+00  0.56203642624E+02  0.56275917854E+02  0.17770000000E+01 0. -1.
         15    1    1    2    0    0  0.31017115964E+02 -0.19117214882E+01  0.45438248580E+02  0.55077294095E+02  0.17770000000E+01 0.  1.
</event>
<event>
 6    1  0.3836009E-003  0.5020794E+03  0.7546771E-02  0.9395169E-01
        -11   -1    0    0    0    0  0.00000000000E+00  0.00000000000E+00  0.50000000000E+03  0.50000000000E+03  0.00000000000E+00 0.  1.
         11   -1    0    0    0    0 -0.00000000000E+00 -0.00000000000E+00 -0.50000000000E+03  0.50000000000E+03  0.00000000000E+00 0. -1.
        -11    1    1    2    0    0 -0.51637553577E+01  0.12749639463E+02  0.49773059346E+03  0.49792063759E+03  0.00000000000E+00 0.  1.
         11    1    1    2    0    0  0.62577678382E+01 -0.56354579655E+01 -0.45865899603E+03  0.45873629973E+03  0.00000000000E+00 0. -1.
        -15    1    1    2    0    0 -0.28319196559E+01  0.14684811274E+01 -0.42413210269E+00  0.36761151777E+01  0.17770000000E+01 0.  1.
         15    1    1    2    0    0  0.17379071754E+01 -0.85826626246E+01 -0.38647465324E+02  0.39666947501E+02  0.17770000000E+01 0. -1.
</event>
<event>
 6    1  0.3836009E-003  0.5007672E+03  0.7546771E-02  0.9398095E-01
        -11   -1    0    0    0    0  0.00000000000E+00  0.00000000000E+00  0.50000000000E+03  0.50000000000E+03  0.00000000000E+00 0. -1.
         11   -1    0    0    0    0 -0.00000000000E+00 -0.00000000000E+00 -0.50000000000E+03  0.50000000000E+03  0.00000000000E+00 0. -1.
        -11    1    1    2    0    0 -0.93029211525E+01  0.84602894814E+01  0.49907440268E+03  0.49923279164E+03  0.00000000000E+00 0. -1.
         11    1    1    2    0    0 -0.74056734336E+01 -0.26174759572E+01 -0.29944783972E+03  0.29955083691E+03  0.00000000000E+00 0. -1.
        -15    1    1    2    0    0  0.44232932738E+01  0.39274795210E+01 -0.20913262553E+02  0.21806258239E+02  0.17770000000E+01 0.  1.
         15    1    1    2    0    0  0.12285301312E+02 -0.97702930451E+01 -0.17871330040E+03  0.17941011321E+03  0.17770000000E+01 0. -1.
</event>
<event>
 6    1  0.3836009E-003  0.5008658E+03  0.7546771E-02  0.9397874E-01
        -11   -1    0    0    0    0  0.00000000000E+00  0.00000000000E+00  0.50000000000E+03  0.50000000000E+03  0.00000000000E+00 0.  1.
         11   -1    0    0    0    0 -0.00000000000E+00 -0.00000000000E+00 -0.50000000000E+03  0.50000000000E+03  0.00000000000E+00 0. -1.
        -11    1    1    2    0    0  0.11451706036E+02  0.43216738711E+00  0.49900257973E+03  0.49913415322E+03  0.00000000000E+00 0.  1.
         11    1    1    2    0    0 -0.34057198405E-01 -0.71890864901E+01 -0.33841625988E+03  0.33849261303E+03  0.00000000000E+00 0. -1.
        -15    1    1    2    0    0 -0.15625136616E+02  0.52348074710E+01 -0.83056615770E+02  0.84694198477E+02  0.17770000000E+01 0.  1.
         15    1    1    2    0    0  0.42074877776E+01  0.15221116319E+01 -0.77529704081E+02  0.77679035274E+02  0.17770000000E+01 0. -1.
</event>
<event>
 6    1  0.3836009E-003  0.5086032E+03  0.7546771E-02  0.9380763E-01
        -11   -1    0    0    0    0  0.00000000000E+00  0.00000000000E+00  0.50000000000E+03  0.50000000000E+03  0.00000000000E+00 0.  1.
         11   -1    0    0    0    0 -0.00000000000E+00 -0.00000000000E+00 -0.50000000000E+03  0.50000000000E+03  0.00000000000E+00 0. -1.
        -11    1    1    2    0    0  0.96449121643E+01 -0.96123819894E+01  0.46302190292E+03  0.46322209015E+03  0.00000000000E+00 0.  1.
         11    1    1    2    0    0 -0.77363084821E+01  0.11608917013E+02 -0.49119875061E+03  0.49139681523E+03  0.00000000000E+00 0. -1.
        -15    1    1    2    0    0 -0.50783966577E+01  0.11081409877E+02  0.29277153331E+02  0.31763142062E+02  0.17770000000E+01 0. -1.
         15    1    1    2    0    0  0.31697929754E+01 -0.13077944901E+02 -0.11003056399E+01  0.13617952557E+02  0.17770000000E+01 0.  1.
</event>
<event>
 6    1  0.3836009E-003  0.3548775E+03  0.7546771E-02  0.9800005E-01
        -11   -1    0    0    0    0  0.00000000000E+00  0.00000000000E+00  0.50000000000E+03  0.50000000000E+03  0.00000000000E+00 0. -1.
         11   -1    0    0    0    0 -0.00000000000E+00 -0.00000000000E+00 -0.50000000000E+03  0.50000000000E+03  0.00000000000E+00 0. -1.
        -11    1    1    2    0    0 -0.19814486659E+02 -0.98255860102E+01  0.35668201865E+03  0.35736706402E+03  0.00000000000E+00 0. -1.
         11    1    1    2    0    0 -0.13009103360E+03  0.50739566482E+02 -0.34193568165E+03  0.36934833290E+03  0.00000000000E+00 0. -1.
        -15    1    1    2    0    0 -0.83402699874E+01  0.47882844714E+02  0.59819449310E+02  0.77096375830E+02  0.17770000000E+01 0.  1.
         15    1    1    2    0    0  0.15824579025E+03 -0.88796825186E+02 -0.74565786306E+02  0.19618822725E+03  0.17770000000E+01 0. -1.
</event>
<event>
 6    1  0.3836009E-003  0.5147348E+03  0.7546771E-02  0.9367430E-01
        -11   -1    0    0    0    0  0.00000000000E+00  0.00000000000E+00  0.50000000000E+03  0.50000000000E+03  0.00000000000E+00 0.  1.
         11   -1    0    0    0    0 -0.00000000000E+00 -0.00000000000E+00 -0.50000000000E+03  0.50000000000E+03  0.00000000000E+00 0.  1.
        -11    1    1    2    0    0  0.39385999579E+01 -0.17660873008E+02  0.48492771835E+03  0.48526519660E+03  0.00000000000E+00 0.  1.
         11    1    1    2    0    0  0.97056362474E+01  0.94454698219E+01 -0.45174896009E+03  0.45195192135E+03  0.00000000000E+00 0.  1.
        -15    1    1    2    0    0 -0.16671701408E+02  0.22761452290E+02 -0.21707261835E+01  0.28353114808E+02  0.17770000000E+01 0.  1.
         15    1    1    2    0    0  0.30274652024E+01 -0.14546049103E+02 -0.31008032077E+02  0.34429767243E+02  0.17770000000E+01 0. -1.
</event>
<event>
 6    1  0.3836009E-003  0.5113704E+03  0.7546771E-02  0.9374721E-01
        -11   -1    0    0    0    0  0.00000000000E+00  0.00000000000E+00  0.50000000000E+03  0.50000000000E+03  0.00000000000E+00 0.  1.
         11   -1    0    0    0    0 -0.00000000000E+00 -0.00000000000E+00 -0.50000000000E+03  0.50000000000E+03  0.00000000000E+00 0. -1.
        -11    1    1    2    0    0  0.15257534453E+01  0.64314086848E+01  0.48858486787E+03  0.48862957754E+03  0.00000000000E+00 0.  1.
         11    1    1    2    0    0  0.19760677721E+01  0.67620877786E+01 -0.43427020393E+03  0.43432734279E+03  0.00000000000E+00 0. -1.
        -15    1    1    2    0    0 -0.35373069634E+01 -0.15258744094E+02 -0.64552212626E+02  0.66449136156E+02  0.17770000000E+01 0. -1.
         15    1    1    2    0    0  0.35485746013E-01  0.20652476308E+01  0.10237548686E+02  0.10593943511E+02  0.17770000000E+01 0.  1.
</event>
<event>
 6    1  0.3836009E-003  0.5613756E+03  0.7546771E-02  0.9272066E-01
        -11   -1    0    0    0    0  0.00000000000E+00  0.00000000000E+00  0.50000000000E+03  0.50000000000E+03  0.00000000000E+00 0. -1.
         11   -1    0    0    0    0 -0.00000000000E+00 -0.00000000000E+00 -0.50000000000E+03  0.50000000000E+03  0.00000000000E+00 0. -1.
        -11    1    1    2    0    0 -0.13876231601E+02 -0.37755433270E+01  0.42809841914E+03  0.42833988957E+03  0.00000000000E+00 0. -1.
         11    1    1    2    0    0  0.96734710906E+01 -0.43848810868E+00 -0.43851751072E+03  0.43862441282E+03  0.00000000000E+00 0. -1.
        -15    1    1    2    0    0 -0.13174986560E+02 -0.13233244199E+02  0.67917802715E+02  0.70460518572E+02  0.17770000000E+01 0.  1.
         15    1    1    2    0    0  0.17377747071E+02  0.17447275634E+02 -0.57498711133E+02  0.62575179035E+02  0.17770000000E+01 0. -1.
</event>
<event>
 6    1  0.3836009E-003  0.5135508E+03  0.7546771E-02  0.9369989E-01
        -11   -1    0    0    0    0  0.00000000000E+00  0.00000000000E+00  0.50000000000E+03  0.50000000000E+03  0.00000000000E+00 0.  1.
         11   -1    0    0    0    0 -0.00000000000E+00 -0.00000000000E+00 -0.50000000000E+03  0.50000000000E+03  0.00000000000E+00 0.  1.
        -11    1    1    2    0    0  0.61783102662E+01 -0.15334188560E+02  0.26093833093E+03  0.26146151037E+03  0.00000000000E+00 0.  1.
         11    1    1    2    0    0 -0.46832900306E+01 -0.59295115337E+01 -0.48639053962E+03  0.48644922587E+03  0.00000000000E+00 0.  1.
        -15    1    1    2    0    0 -0.24462431948E+02 -0.39892563314E+02  0.81462588676E+02  0.93963494333E+02  0.17770000000E+01 0.  1.
         15    1    1    2    0    0  0.22967411713E+02  0.61156263407E+02  0.14398962002E+03  0.15812576943E+03  0.17770000000E+01 0. -1.
</event>
<event>
 6    1  0.3836009E-003  0.5003144E+03  0.7546771E-02  0.9399106E-01
        -11   -1    0    0    0    0  0.00000000000E+00  0.00000000000E+00  0.50000000000E+03  0.50000000000E+03  0.00000000000E+00 0. -1.
         11   -1    0    0    0    0 -0.00000000000E+00 -0.00000000000E+00 -0.50000000000E+03  0.50000000000E+03  0.00000000000E+00 0. -1.
        -11    1    1    2    0    0  0.73953899123E+01 -0.64881153980E+01  0.49958871340E+03  0.49968557112E+03  0.00000000000E+00 0. -1.
         11    1    1    2    0    0 -0.41891910610E-01  0.59489206197E+01 -0.34017462596E+03  0.34022664146E+03  0.00000000000E+00 0. -1.
        -15    1    1    2    0    0 -0.77824326313E+01  0.51216430732E+01 -0.89926300253E+02  0.90425077781E+02  0.17770000000E+01 0.  1.
         15    1    1    2    0    0  0.42893462963E+00 -0.45824482949E+01 -0.69487787185E+02  0.69662709638E+02  0.17770000000E+01 0. -1.
</event>
<event>
 6    1  0.3836009E-003  0.5024867E+03  0.7546771E-02  0.9394263E-01
        -11   -1    0    0    0    0  0.00000000000E+00  0.00000000000E+00  0.50000000000E+03  0.50000000000E+03  0.00000000000E+00 0. -1.
         11   -1    0    0    0    0 -0.00000000000E+00 -0.00000000000E+00 -0.50000000000E+03  0.50000000000E+03  0.00000000000E+00 0.  1.
        -11    1    1    2    0    0  0.10467413519E+02 -0.11880496514E+02  0.49726131278E+03  0.49751334267E+03  0.00000000000E+00 0. -1.
         11    1    1    2    0    0 -0.86527320806E+01  0.88180733423E+01 -0.46899385921E+03  0.46915654975E+03  0.00000000000E+00 0.  1.
        -15    1    1    2    0    0 -0.18663511159E+01  0.79117896298E+01 -0.26648483541E+02  0.27917361724E+02  0.17770000000E+01 0.  1.
         15    1    1    2    0    0  0.51669677562E-01 -0.48493664582E+01 -0.16189700285E+01  0.54127458609E+01  0.17770000000E+01 0. -1.
</event>
<event>
 6    1  0.3836009E-003  0.5021860E+03  0.7546771E-02  0.9394932E-01
        -11   -1    0    0    0    0  0.00000000000E+00  0.00000000000E+00  0.50000000000E+03  0.50000000000E+03  0.00000000000E+00 0. -1.
         11   -1    0    0    0    0 -0.00000000000E+00 -0.00000000000E+00 -0.50000000000E+03  0.50000000000E+03  0.00000000000E+00 0.  1.
        -11    1    1    2    0    0 -0.44106721249E+01  0.95713280756E+01  0.49770239109E+03  0.49781395566E+03  0.00000000000E+00 0. -1.
         11    1    1    2    0    0  0.10441081782E+02 -0.66695628300E+01 -0.44682834279E+03  0.44700007515E+03  0.00000000000E+00 0.  1.
        -15    1    1    2    0    0 -0.76858599458E+01  0.28742576009E+00 -0.54665553777E+01  0.96018755132E+01  0.17770000000E+01 0. -1.
         15    1    1    2    0    0  0.16554502883E+01 -0.31891910057E+01 -0.45407492917E+02  0.45584093684E+02  0.17770000000E+01 0.  1.
</event>
<event>
 6    1  0.3836009E-003  0.5146438E+03  0.7546771E-02  0.9367626E-01
        -11   -1    0    0    0    0  0.00000000000E+00  0.00000000000E+00  0.50000000000E+03  0.50000000000E+03  0.00000000000E+00 0.  1.
         11   -1    0    0    0    0 -0.00000000000E+00 -0.00000000000E+00 -0.50000000000E+03  0.50000000000E+03  0.00000000000E+00 0. -1.
        -11    1    1    2    0    0  0.17512382338E+02  0.63493072386E+01  0.42935414589E+03  0.42975804801E+03  0.00000000000E+00 0.  1.
         11    1    1    2    0    0  0.65999929983E+01 -0.24547990871E+01 -0.48530507889E+03  0.48535616360E+03  0.00000000000E+00 0. -1.
        -15    1    1    2    0    0  0.17820185131E+02  0.82888589763E+01  0.21933365284E+02  0.29504142471E+02  0.17770000000E+01 0. -1.
         15    1    1    2    0    0 -0.41932560467E+02 -0.12183367128E+02  0.34017567720E+02  0.55381645917E+02  0.17770000000E+01 0.  1.
</event>
<event>
 6    1  0.3836009E-003  0.5013536E+03  0.7546771E-02  0.9396786E-01
        -11   -1    0    0    0    0  0.00000000000E+00  0.00000000000E+00  0.50000000000E+03  0.50000000000E+03  0.00000000000E+00 0. -1.
         11   -1    0    0    0    0 -0.00000000000E+00 -0.00000000000E+00 -0.50000000000E+03  0.50000000000E+03  0.00000000000E+00 0. -1.
        -11    1    1    2    0    0 -0.10359241439E+02 -0.24539822971E+01  0.49853272454E+03  0.49864638106E+03  0.00000000000E+00 0. -1.
         11    1    1    2    0    0  0.46687903271E+00 -0.73176112171E+01 -0.41217347522E+03  0.41223869188E+03  0.00000000000E+00 0. -1.
        -15    1    1    2    0    0  0.22913901152E+00  0.26979356186E+01 -0.60231896518E+02  0.60318906227E+02  0.17770000000E+01 0.  1.
         15    1    1    2    0    0  0.96632233945E+01  0.70736578956E+01 -0.26127352800E+02  0.28796020832E+02  0.17770000000E+01 0. -1.
</event>
<event>
 6    1  0.3836009E-003  0.5046230E+03  0.7546771E-02  0.9389524E-01
        -11   -1    0    0    0    0  0.00000000000E+00  0.00000000000E+00  0.50000000000E+03  0.50000000000E+03  0.00000000000E+00 0. -1.
         11   -1    0    0    0    0 -0.00000000000E+00 -0.00000000000E+00 -0.50000000000E+03  0.50000000000E+03  0.00000000000E+00 0. -1.
        -11    1    1    2    0    0  0.29378402979E+01 -0.15170992835E+01  0.94145004603E+02  0.94203048717E+02  0.00000000000E+00 0. -1.
         11    1    1    2    0    0 -0.13396097383E+02 -0.24442706097E+01 -0.49518977945E+03  0.49537697520E+03  0.00000000000E+00 0. -1.
        -15    1    1    2    0    0  0.28071511225E+01  0.14081763766E+02  0.39659416322E+03  0.39685798997E+03  0.17770000000E+01 0. -1.
         15    1    1    2    0    0  0.76511059630E+01 -0.10120393873E+02  0.44506116260E+01  0.13561986117E+02  0.17770000000E+01 0.  1.
</event>
<event>
 6    1  0.3836009E-003  0.5627286E+03  0.7546771E-02  0.9269448E-01
        -11   -1    0    0    0    0  0.00000000000E+00  0.00000000000E+00  0.50000000000E+03  0.50000000000E+03  0.00000000000E+00 0.  1.
         11   -1    0    0    0    0 -0.00000000000E+00 -0.00000000000E+00 -0.50000000000E+03  0.50000000000E+03  0.00000000000E+00 0.  1.
        -11    1    1    2    0    0  0.16432506272E+02 -0.73661433766E+01  0.43690040692E+03  0.43727137214E+03  0.00000000000E+00 0.  1.
         11    1    1    2    0    0  0.86310916854E+01  0.29762708517E+01 -0.39615044531E+03  0.39625563624E+03  0.00000000000E+00 0.  1.
        -15    1    1    2    0    0 -0.12728715840E+02 -0.41285637495E+01 -0.10225520897E+03  0.10314238089E+03  0.17770000000E+01 0. -1.
         15    1    1    2    0    0 -0.12334882117E+02  0.85184362744E+01  0.61505247362E+02  0.63330610730E+02  0.17770000000E+01 0.  1.
</event>
<event>
 6    1  0.6825918E-003  0.5005189E+03  0.7546771E-02  0.9398649E-01
        -11   -1    0    0    0    0  0.00000000000E+00  0.00000000000E+00  0.50000000000E+03  0.50000000000E+03  0.00000000000E+00 0.  1.
         11   -1    0    0    0    0 -0.00000000000E+00 -0.00000000000E+00 -0.50000000000E+03  0.50000000000E+03  0.00000000000E+00 0. -1.
        -11    1    1    2    0    0  0.46489250882E+01 -0.80029294067E+01  0.49939538884E+03  0.49948114457E+03  0.00000000000E+00 0.  1.
         11    1    1    2    0    0 -0.30714475929E+01 -0.36634166133E+01 -0.24564502736E+03  0.24569154214E+03  0.00000000000E+00 0. -1.
        -15    1    1    2    0    0  0.12451973928E+01  0.18732168974E+01 -0.20363863864E+03  0.20365881355E+03  0.17770000000E+01 0.  1.
         15    1    1    2    0    0 -0.28226748880E+01  0.97931291226E+01 -0.50111722841E+02  0.51168499750E+02  0.17770000000E+01 0. -1.
</event>
<event>
 6    1  0.3836009E-003  0.5016119E+03  0.7546771E-02  0.9396210E-01
        -11   -1    0    0    0    0  0.00000000000E+00  0.00000000000E+00  0.50000000000E+03  0.50000000000E+03  0.00000000000E+00 0.  1.
         11   -1    0    0    0    0 -0.00000000000E+00 -0.00000000000E+00 -0.50000000000E+03  0.50000000000E+03  0.00000000000E+00 0. -1.
        -11    1    1    2    0    0 -0.54669407590E+00 -0.11125245316E+02  0.44725168301E+03  0.44739036412E+03  0.00000000000E+00 0.  1.
         11    1    1    2    0    0 -0.71970751796E+00  0.10260468938E+02 -0.49828193504E+03  0.49838808371E+03  0.00000000000E+00 0. -1.
        -15    1    1    2    0    0 -0.17322059856E+01 -0.38739233452E+01  0.23109674389E+01  0.51484093820E+01  0.17770000000E+01 0. -1.
         15    1    1    2    0    0  0.29986075795E+01  0.47386997238E+01  0.48719284590E+02  0.49073142781E+02  0.17770000000E+01 0.  1.
</event>
<event>
 6    1  0.3836009E-003  0.5090752E+03  0.7546771E-02  0.9379729E-01
        -11   -1    0    0    0    0  0.00000000000E+00  0.00000000000E+00  0.50000000000E+03  0.50000000000E+03  0.00000000000E+00 0.  1.
         11   -1    0    0    0    0 -0.00000000000E+00 -0.00000000000E+00 -0.50000000000E+03  0.50000000000E+03  0.00000000000E+00 0.  1.
        -11    1    1    2    0    0 -0.15083625506E+02 -0.14737984793E+02  0.49047160408E+03  0.49092475835E+03  0.00000000000E+00 0.  1.
         11    1    1    2    0    0 -0.21122768826E+02 -0.22204965335E+01 -0.37419335295E+03  0.37479563412E+03  0.00000000000E+00 0.  1.
        -15    1    1    2    0    0  0.17299449527E+02  0.18769347967E+02 -0.11983487418E+02  0.28254576209E+02  0.17770000000E+01 0. -1.
         15    1    1    2    0    0  0.18906944805E+02 -0.18108666402E+01 -0.10429476371E+03  0.10602503132E+03  0.17770000000E+01 0.  1.
</event>
<event>
 6    1  0.3836009E-003  0.4866918E+03  0.7546771E-02  0.9430090E-01
        -11   -1    0    0    0    0  0.00000000000E+00  0.00000000000E+00  0.50000000000E+03  0.50000000000E+03  0.00000000000E+00 0.  1.
         11   -1    0    0    0    0 -0.00000000000E+00 -0.00000000000E+00 -0.50000000000E+03  0.50000000000E+03  0.00000000000E+00 0. -1.
        -11    1    1    2    0    0 -0.16244926382E+01  0.80440569969E+01  0.48216801692E+03  0.48223784834E+03  0.00000000000E+00 0.  1.
         11    1    1    2    0    0  0.20409486149E+01  0.74101293965E+01 -0.49125078108E+03  0.49131090503E+03  0.00000000000E+00 0. -1.
        -15    1    1    2    0    0 -0.42202001584E+01 -0.18474858733E+00  0.95667422731E+01  0.10607756980E+02  0.17770000000E+01 0. -1.
         15    1    1    2    0    0  0.38037441817E+01 -0.15269437806E+02 -0.48397811378E+00  0.15843489657E+02  0.17770000000E+01 0.  1.
</event>
<event>
 6    1  0.3836009E-003  0.5009552E+03  0.7546771E-02  0.9397675E-01
        -11   -1    0    0    0    0  0.00000000000E+00  0.00000000000E+00  0.50000000000E+03  0.50000000000E+03  0.00000000000E+00 0.  1.
         11   -1    0    0    0    0 -0.00000000000E+00 -0.00000000000E+00 -0.50000000000E+03  0.50000000000E+03  0.00000000000E+00 0.  1.
        -11    1    1    2    0    0  0.30401383585E+01  0.42182137127E+01  0.34094511881E+03  0.34098476478E+03  0.00000000000E+00 0.  1.
         11    1    1    2    0    0 -0.87929468739E+01 -0.63517185520E+01 -0.49892693594E+03  0.49904483531E+03  0.00000000000E+00 0.  1.
        -15    1    1    2    0    0  0.14293597685E+02 -0.11050437469E+00  0.66272061252E+02  0.67819340734E+02  0.17770000000E+01 0. -1.
         15    1    1    2    0    0 -0.85407891695E+01  0.22440092139E+01  0.91709755873E+02  0.92151059182E+02  0.17770000000E+01 0.  1.
</event>
<event>
 6    1  0.3836009E-003  0.5013387E+03  0.7546771E-02  0.9396819E-01
        -11   -1    0    0    0    0  0.00000000000E+00  0.00000000000E+00  0.50000000000E+03  0.50000000000E+03  0.00000000000E+00 0. -1.
         11   -1    0    0    0    0 -0.00000000000E+00 -0.00000000000E+00 -0.50000000000E+03  0.50000000000E+03  0.00000000000E+00 0.  1.
        -11    1    1    2    0    0 -0.60587592647E+01 -0.84771492636E+01  0.43831376416E+03  0.43843759701E+03  0.00000000000E+00 0. -1.
         11    1    1    2    0    0  0.95646700634E+01 -0.29641005360E+01 -0.49856075705E+03  0.49866130517E+03  0.00000000000E+00 0.  1.
        -15    1    1    2    0    0  0.10846961198E+01  0.10501876255E+02  0.53122547853E+02  0.54190670691E+02  0.17770000000E+01 0. -1.
         15    1    1    2    0    0 -0.45906069185E+01  0.93937354482E+00  0.71244450401E+01  0.87104271231E+01  0.17770000000E+01 0.  1.
</event>
<event>
 6    1  0.3836009E-003  0.5046082E+03  0.7546771E-02  0.9389557E-01
        -11   -1    0    0    0    0  0.00000000000E+00  0.00000000000E+00  0.50000000000E+03  0.50000000000E+03  0.00000000000E+00 0. -1.
         11   -1    0    0    0    0 -0.00000000000E+00 -0.00000000000E+00 -0.50000000000E+03  0.50000000000E+03  0.00000000000E+00 0. -1.
        -11    1    1    2    0    0 -0.98686193894E+01 -0.26521967820E+01  0.48198362501E+03  0.48209193996E+03  0.00000000000E+00 0. -1.
         11    1    1    2    0    0  0.83092506615E+01  0.19016482474E+01 -0.49531848722E+03  0.49539182844E+03  0.00000000000E+00 0. -1.
        -15    1    1    2    0    0  0.67890761199E+01  0.68297834680E+01  0.58700029251E+01  0.11417187049E+02  0.17770000000E+01 0.  1.
         15    1    1    2    0    0 -0.52297073920E+01 -0.60792349334E+01  0.74648592832E+01  0.11099044549E+02  0.17770000000E+01 0. -1.
</event>
<event>
 6    1  0.3836009E-003  0.5396762E+03  0.7546771E-02  0.9315161E-01
        -11   -1    0    0    0    0  0.00000000000E+00  0.00000000000E+00  0.50000000000E+03  0.50000000000E+03  0.00000000000E+00 0.  1.
         11   -1    0    0    0    0 -0.00000000000E+00 -0.00000000000E+00 -0.50000000000E+03  0.50000000000E+03  0.00000000000E+00 0. -1.
        -11    1    1    2    0    0 -0.43044640547E+01 -0.98655360520E+01  0.38440853736E+03  0.38455920326E+03  0.00000000000E+00 0.  1.
         11    1    1    2    0    0  0.73915901866E+01  0.20696079511E+02 -0.45979886575E+03  0.46032375592E+03  0.00000000000E+00 0. -1.
        -15    1    1    2    0    0 -0.48682294932E+01  0.13607131633E+02  0.11094728966E+03  0.11189867069E+03  0.17770000000E+01 0. -1.
         15    1    1    2    0    0  0.17811033614E+01 -0.24437675091E+02 -0.35556961273E+02  0.43218370134E+02  0.17770000000E+01 0.  1.
</event>
<event>
 6    1  0.3836009E-003  0.5026237E+03  0.7546771E-02  0.9393958E-01
        -11   -1    0    0    0    0  0.00000000000E+00  0.00000000000E+00  0.50000000000E+03  0.50000000000E+03  0.00000000000E+00 0. -1.
         11   -1    0    0    0    0 -0.00000000000E+00 -0.00000000000E+00 -0.50000000000E+03  0.50000000000E+03  0.00000000000E+00 0. -1.
        -11    1    1    2    0    0  0.47124805090E+01 -0.10072077022E+02  0.49725199741E+03  0.49737631943E+03  0.00000000000E+00 0. -1.
         11    1    1    2    0    0 -0.69415071062E+01  0.11470934639E+00 -0.40934099873E+03  0.40939986678E+03  0.00000000000E+00 0. -1.
        -15    1    1    2    0    0 -0.97351215214E+01  0.41394876342E+01 -0.11834924017E+02  0.15972823933E+02  0.17770000000E+01 0.  1.
         15    1    1    2    0    0  0.11964148119E+02  0.58178800418E+01 -0.76076074658E+02  0.77250989850E+02  0.17770000000E+01 0. -1.
</event>
<event>
 6    1  0.3836009E-003  0.5152430E+03  0.7546771E-02  0.9366334E-01
        -11   -1    0    0    0    0  0.00000000000E+00  0.00000000000E+00  0.50000000000E+03  0.50000000000E+03  0.00000000000E+00 0.  1.
         11   -1    0    0    0    0 -0.00000000000E+00 -0.00000000000E+00 -0.50000000000E+03  0.50000000000E+03  0.00000000000E+00 0. -1.
        -11    1    1    2    0    0 -0.27970562949E+01  0.14486332302E+02  0.48453241515E+03  0.48475698931E+03  0.00000000000E+00 0.  1.
         11    1    1    2    0    0  0.11966273289E+02  0.93639180462E+00 -0.31885750673E+03  0.31908334040E+03  0.00000000000E+00 0. -1.
        -15    1    1    2    0    0 -0.49754288514E+01  0.15136097007E+02 -0.16445985292E+03  0.16523939384E+03  0.17770000000E+01 0. -1.
         15    1    1    2    0    0 -0.41937881426E+01 -0.30558821114E+02 -0.12150555067E+01  0.30920276450E+02  0.17770000000E+01 0.  1.
</event>
<event>
 6    1  0.3836009E-003  0.5007164E+03  0.7546771E-02  0.9398208E-01
        -11   -1    0    0    0    0  0.00000000000E+00  0.00000000000E+00  0.50000000000E+03  0.50000000000E+03  0.00000000000E+00 0.  1.
         11   -1    0    0    0    0 -0.00000000000E+00 -0.00000000000E+00 -0.50000000000E+03  0.50000000000E+03  0.00000000000E+00 0. -1.
        -11    1    1    2    0    0  0.59730456895E+01 -0.51279384936E+00  0.42340908702E+03  0.42345152639E+03  0.00000000000E+00 0.  1.
         11    1    1    2    0    0  0.63542474590E+01  0.44898772383E+01 -0.49922294003E+03  0.49928356603E+03  0.00000000000E+00 0. -1.
        -15    1    1    2    0    0 -0.10812524159E+02 -0.14875900943E+01  0.64718901742E+02  0.65656816666E+02  0.17770000000E+01 0. -1.
         15    1    1    2    0    0 -0.15147689899E+01 -0.24894932947E+01  0.11094951271E+02  0.11608090913E+02  0.17770000000E+01 0.  1.
</event>
<event>
 6    1  0.3836009E-003  0.5054186E+03  0.7546771E-02  0.9387766E-01
        -11   -1    0    0    0    0  0.00000000000E+00  0.00000000000E+00  0.50000000000E+03  0.50000000000E+03  0.00000000000E+00 0.  1.
         11   -1    0    0    0    0 -0.00000000000E+00 -0.00000000000E+00 -0.50000000000E+03  0.50000000000E+03  0.00000000000E+00 0. -1.
        -11    1    1    2    0    0  0.41970020582E+01 -0.20195378528E+02  0.25677754525E+03  0.25760468918E+03  0.00000000000E+00 0.  1.
         11    1    1    2    0    0 -0.92655484976E+01 -0.59207360801E+01 -0.49445914142E+03  0.49458138666E+03  0.00000000000E+00 0. -1.
        -15    1    1    2    0    0  0.27302040279E+02  0.23981709949E+02  0.20490980462E+03  0.20811465488E+03  0.17770000000E+01 0.  1.
         15    1    1    2    0    0 -0.22233493840E+02  0.21344046595E+01  0.32771791542E+02  0.39699269281E+02  0.17770000000E+01 0. -1.
</event>
<event>
 6    1  0.3836009E-003  0.3490338E+03  0.7546771E-02  0.9820270E-01
        -11   -1    0    0    0    0  0.00000000000E+00  0.00000000000E+00  0.50000000000E+03  0.50000000000E+03  0.00000000000E+00 0.  1.
         11   -1    0    0    0    0 -0.00000000000E+00 -0.00000000000E+00 -0.50000000000E+03  0.50000000000E+03  0.00000000000E+00 0.  1.
        -11    1    1    2    0    0 -0.60372268000E+01  0.40922342610E+00  0.36161269666E+03  0.36166332127E+03  0.00000000000E+00 0.  1.
         11    1    1    2    0    0  0.27795905778E+02 -0.40402283958E+01 -0.15795210022E+03  0.16043005263E+03  0.00000000000E+00 0.  1.
        -15    1    1    2    0    0 -0.64307199649E+02  0.39457401736E+01 -0.33432305746E+03  0.34047914660E+03  0.17770000000E+01 0. -1.
         15    1    1    2    0    0  0.42548520670E+02 -0.31473520393E+00  0.13066246103E+03  0.13742747949E+03  0.17770000000E+01 0.  1.
</event>
<event>
 6    1  0.3836009E-003  0.5198680E+03  0.7546771E-02  0.9356419E-01
        -11   -1    0    0    0    0  0.00000000000E+00  0.00000000000E+00  0.50000000000E+03  0.50000000000E+03  0.00000000000E+00 0. -1.
         11   -1    0    0    0    0 -0.00000000000E+00 -0.00000000000E+00 -0.50000000000E+03  0.50000000000E+03  0.00000000000E+00 0. -1.
        -11    1    1    2    0    0 -0.29281095795E+01 -0.60565712750E+01  0.45961366330E+03  0.45966289319E+03  0.00000000000E+00 0. -1.
         11    1    1    2    0    0 -0.69948794806E+00  0.13478640397E+02 -0.47994230767E+03  0.48013204614E+03  0.00000000000E+00 0. -1.
        -15    1    1    2    0    0 -0.26668326564E+01  0.10481852251E+02  0.34663527061E+02  0.36355179278E+02  0.17770000000E+01 0. -1.
         15    1    1    2    0    0  0.62944301839E+01 -0.17903921374E+02 -0.14334882690E+02  0.23849881396E+02  0.17770000000E+01 0.  1.
</event>
<event>
 6    1  0.3836009E-003  0.5085717E+03  0.7546771E-02  0.9380831E-01
        -11   -1    0    0    0    0  0.00000000000E+00  0.00000000000E+00  0.50000000000E+03  0.50000000000E+03  0.00000000000E+00 0. -1.
         11   -1    0    0    0    0 -0.00000000000E+00 -0.00000000000E+00 -0.50000000000E+03  0.50000000000E+03  0.00000000000E+00 0. -1.
        -11    1    1    2    0    0 -0.11621571348E+02  0.26062188504E+01  0.49128391897E+03  0.49142826774E+03  0.00000000000E+00 0. -1.
         11    1    1    2    0    0  0.39160347112E+02 -0.12265901680E+01 -0.41324449734E+03  0.41509764139E+03  0.00000000000E+00 0. -1.
        -15    1    1    2    0    0  0.99616409114E+00 -0.12217961555E+02 -0.34454360671E+01  0.12856892554E+02  0.17770000000E+01 0.  1.
         15    1    1    2    0    0 -0.28534939855E+02  0.10838332872E+02 -0.74593985568E+02  0.80617198313E+02  0.17770000000E+01 0. -1.
</event>
<event>
 6    1  0.3836009E-003  0.5006380E+03  0.7546771E-02  0.9398383E-01
        -11   -1    0    0    0    0  0.00000000000E+00  0.00000000000E+00  0.50000000000E+03  0.50000000000E+03  0.00000000000E+00 0. -1.
         11   -1    0    0    0    0 -0.00000000000E+00 -0.00000000000E+00 -0.50000000000E+03  0.50000000000E+03  0.00000000000E+00 0. -1.
        -11    1    1    2    0    0  0.18024349164E+01  0.14205487107E+01  0.78616359677E+02  0.78649848945E+02  0.00000000000E+00 0. -1.
         11    1    1    2    0    0  0.34654170114E+01  0.75440127997E+01 -0.49929294023E+03  0.49936195431E+03  0.00000000000E+00 0. -1.
        -15    1    1    2    0    0 -0.11819343138E+02 -0.78271283911E+01  0.39876876772E+03  0.39902462161E+03  0.17770000000E+01 0. -1.
         15    1    1    2    0    0  0.65514912099E+01 -0.11374331194E+01  0.21907812828E+02  0.22963575138E+02  0.17770000000E+01 0.  1.
</event>
<event>
 6    1  0.3836009E-003  0.5125428E+03  0.7546771E-02  0.9372174E-01
        -11   -1    0    0    0    0  0.00000000000E+00  0.00000000000E+00  0.50000000000E+03  0.50000000000E+03  0.00000000000E+00 0. -1.
         11   -1    0    0    0    0 -0.00000000000E+00 -0.00000000000E+00 -0.50000000000E+03  0.50000000000E+03  0.00000000000E+00 0.  1.
        -11    1    1    2    0    0  0.65853533053E+01  0.16990039723E+02  0.48711652708E+03  0.48745721790E+03  0.00000000000E+00 0. -1.
         11    1    1    2    0    0  0.85665109331E+01  0.47094632130E+01 -0.42999799900E+03  0.43010910627E+03  0.00000000000E+00 0.  1.
        -15    1    1    2    0    0 -0.11776167709E+02 -0.17488843305E+02  0.35888246824E+01  0.21461014833E+02  0.17770000000E+01 0. -1.
         15    1    1    2    0    0 -0.33756965290E+01 -0.42106596316E+01 -0.60707352757E+02  0.60972660999E+02  0.17770000000E+01 0.  1.
</event>
<event>
 6    1  0.3836009E-003  0.4907605E+03  0.7546771E-02  0.9420724E-01
        -11   -1    0    0    0    0  0.00000000000E+00  0.00000000000E+00  0.50000000000E+03  0.50000000000E+03  0.00000000000E+00 0.  1.
         11   -1    0    0    0    0 -0.00000000000E+00 -0.00000000000E+00 -0.50000000000E+03  0.50000000000E+03  0.00000000000E+00 0.  1.
        -11    1    1    2    0    0 -0.62475141156E+01  0.47961346299E+01  0.49069940996E+03  0.49076261601E+03  0.00000000000E+00 0.  1.
         11    1    1    2    0    0  0.56108260280E+01  0.82837438096E+01 -0.49074377157E+03  0.49084575084E+03  0.00000000000E+00 0.  1.
        -15    1    1    2    0    0 -0.44503187358E+01 -0.53756302115E+01 -0.39074661281E+01  0.81932141168E+01  0.17770000000E+01 0. -1.
         15    1    1    2    0    0  0.50870068234E+01 -0.77042482281E+01  0.39518277417E+01  0.10198419029E+02  0.17770000000E+01 0.  1.
</event>
<event>
 6    1  0.3836009E-003  0.5002879E+03  0.7546771E-02  0.9399166E-01
        -11   -1    0    0    0    0  0.00000000000E+00  0.00000000000E+00  0.50000000000E+03  0.50000000000E+03  0.00000000000E+00 0. -1.
         11   -1    0    0    0    0 -0.00000000000E+00 -0.00000000000E+00 -0.50000000000E+03  0.50000000000E+03  0.00000000000E+00 0.  1.
        -11    1    1    2    0    0 -0.10971339522E+02 -0.37425505654E+01  0.49957762950E+03  0.49971210199E+03  0.00000000000E+00 0. -1.
         11    1    1    2    0    0  0.54636150587E+00 -0.14340694870E+01 -0.63024722920E+02  0.63043403821E+02  0.00000000000E+00 0.  1.
        -15    1    1    2    0    0  0.40371120653E+01 -0.87556136275E+00 -0.16678065772E+02  0.17273693537E+02  0.17770000000E+01 0. -1.
         15    1    1    2    0    0  0.63878659513E+01  0.60521814152E+01 -0.41987484081E+03  0.41997080066E+03  0.17770000000E+01 0.  1.
</event>
<event>
 6    1  0.3836009E-003  0.5052916E+03  0.7546771E-02  0.9388047E-01
        -11   -1    0    0    0    0  0.00000000000E+00  0.00000000000E+00  0.50000000000E+03  0.50000000000E+03  0.00000000000E+00 0. -1.
         11   -1    0    0    0    0 -0.00000000000E+00 -0.00000000000E+00 -0.50000000000E+03  0.50000000000E+03  0.00000000000E+00 0.  1.
        -11    1    1    2    0    0  0.45005767931E+01 -0.67830839139E+01  0.44966592894E+03  0.44973960585E+03  0.00000000000E+00 0. -1.
         11    1    1    2    0    0 -0.79786430587E+01 -0.24958381418E+01 -0.49463779224E+03  0.49470843278E+03  0.00000000000E+00 0.  1.
        -15    1    1    2    0    0 -0.65850580899E+01  0.17992171191E+01  0.41941702625E+02  0.42530745589E+02  0.17770000000E+01 0. -1.
         15    1    1    2    0    0  0.10063124356E+02  0.74797049366E+01  0.30301606732E+01  0.13021215782E+02  0.17770000000E+01 0.  1.
</event>
<event>
 6    1  0.3836009E-003  0.5002803E+03  0.7546771E-02  0.9399183E-01
        -11   -1    0    0    0    0  0.00000000000E+00  0.00000000000E+00  0.50000000000E+03  0.50000000000E+03  0.00000000000E+00 0. -1.
         11   -1    0    0    0    0 -0.00000000000E+00 -0.00000000000E+00 -0.50000000000E+03  0.50000000000E+03  0.00000000000E+00 0.  1.
        -11    1    1    2    0    0 -0.48639617861E+01  0.29435050774E+01  0.39589130882E+03  0.39593212896E+03  0.00000000000E+00 0. -1.
         11    1    1    2    0    0  0.21724533484E+01 -0.87329499722E+01 -0.49963868673E+03  0.49971972269E+03  0.00000000000E+00 0.  1.
        -15    1    1    2    0    0  0.32182753976E+01  0.17646463743E+01  0.16796031002E+02  0.17283971181E+02  0.17770000000E+01 0. -1.
         15    1    1    2    0    0 -0.52676695989E+00  0.40247985206E+01  0.86951346915E+02  0.87064177168E+02  0.17770000000E+01 0.  1.
</event>
<event>
 6    1  0.3836009E-003  0.5103209E+03  0.7546771E-02  0.9377008E-01
        -11   -1    0    0    0    0  0.00000000000E+00  0.00000000000E+00  0.50000000000E+03  0.50000000000E+03  0.00000000000E+00 0. -1.
         11   -1    0    0    0    0 -0.00000000000E+00 -0.00000000000E+00 -0.50000000000E+03  0.50000000000E+03  0.00000000000E+00 0. -1.
        -11    1    1    2    0    0 -0.22297134032E+02 -0.18057334450E+01  0.46906746637E+03  0.46960058653E+03  0.00000000000E+00 0. -1.
         11    1    1    2    0    0  0.66824433099E+01  0.27825340468E+01 -0.48962561591E+03  0.48967912076E+03  0.00000000000E+00 0. -1.
        -15    1    1    2    0    0  0.54414962139E+01  0.12520769013E+02 -0.35555156752E+00  0.13771843872E+02  0.17770000000E+01 0. -1.
         15    1    1    2    0    0  0.10173194508E+02 -0.13497569614E+02  0.20913701109E+02  0.26948448844E+02  0.17770000000E+01 0.  1.
</event>
<event>
 6    1  0.3836009E-003  0.4546739E+03  0.7546771E-02  0.9507364E-01
        -11   -1    0    0    0    0  0.00000000000E+00  0.00000000000E+00  0.50000000000E+03  0.50000000000E+03  0.00000000000E+00 0. -1.
         11   -1    0    0    0    0 -0.00000000000E+00 -0.00000000000E+00 -0.50000000000E+03  0.50000000000E+03  0.00000000000E+00 0.  1.
        -11    1    1    2    0    0  0.20446962692E+02 -0.14246102567E+02  0.45190890105E+03  0.45259549774E+03  0.00000000000E+00 0. -1.
         11    1    1    2    0    0 -0.36154029411E+01 -0.73970000347E+01 -0.45710623346E+03  0.45718037514E+03  0.00000000000E+00 0.  1.
        -15    1    1    2    0    0 -0.20015273768E+02  0.18010096290E+02  0.43710429761E+02  0.51368610564E+02  0.17770000000E+01 0.  1.
         15    1    1    2    0    0  0.31837140174E+01  0.36330063117E+01 -0.38513097356E+02  0.38855516555E+02  0.17770000000E+01 0. -1.
</event>
<event>
 6    1  0.3836009E-003  0.5200887E+03  0.7546771E-02  0.9355949E-01
        -11   -1    0    0    0    0  0.00000000000E+00  0.00000000000E+00  0.50000000000E+03  0.50000000000E+03  0.00000000000E+00 0.  1.
         11   -1    0    0    0    0 -0.00000000000E+00 -0.00000000000E+00 -0.50000000000E+03  0.50000000000E+03  0.00000000000E+00 0.  1.
        -11    1    1    2    0    0 -0.13657411848E+02  0.10513807451E+02  0.47960174201E+03  0.47991134180E+03  0.00000000000E+00 0.  1.
         11    1    1    2    0    0  0.31580386232E+01 -0.13775589605E+02 -0.46289451970E+03  0.46311022062E+03  0.00000000000E+00 0.  1.
        -15    1    1    2    0    0 -0.14833462463E+02 -0.89595536666E+01  0.83036361408E+01  0.19298013180E+02  0.17770000000E+01 0.  1.
         15    1    1    2    0    0  0.25332835688E+02  0.12221335821E+02 -0.25010858457E+02  0.37680424400E+02  0.17770000000E+01 0. -1.
</event>
<event>
 6    1  0.3836009E-003  0.5004698E+03  0.7546771E-02  0.9398759E-01
        -11   -1    0    0    0    0  0.00000000000E+00  0.00000000000E+00  0.50000000000E+03  0.50000000000E+03  0.00000000000E+00 0. -1.
         11   -1    0    0    0    0 -0.00000000000E+00 -0.00000000000E+00 -0.50000000000E+03  0.50000000000E+03  0.00000000000E+00 0.  1.
        -11    1    1    2    0    0 -0.74145786785E+01 -0.20455867725E+01  0.49947097757E+03  0.49953019712E+03  0.00000000000E+00 0. -1.
         11    1    1    2    0    0 -0.11119593109E+01 -0.94027596707E+01 -0.18876842917E+03  0.18900573588E+03  0.00000000000E+00 0.  1.
        -15    1    1    2    0    0  0.13294833833E+02  0.79679650657E+01 -0.22363938968E+03  0.22418290617E+03  0.17770000000E+01 0. -1.
         15    1    1    2    0    0 -0.47682958436E+01  0.34803813775E+01 -0.87063158723E+02  0.87281160828E+02  0.17770000000E+01 0.  1.
</event>
<event>
 6    1  0.3836009E-003  0.5000621E+03  0.7546771E-02  0.9399671E-01
        -11   -1    0    0    0    0  0.00000000000E+00  0.00000000000E+00  0.50000000000E+03  0.50000000000E+03  0.00000000000E+00 0. -1.
         11   -1    0    0    0    0 -0.00000000000E+00 -0.00000000000E+00 -0.50000000000E+03  0.50000000000E+03  0.00000000000E+00 0.  1.
        -11    1    1    2    0    0 -0.13512769780E+01 -0.33217211609E+00  0.17400636443E+02  0.17456186193E+02  0.00000000000E+00 0. -1.
         11    1    1    2    0    0 -0.22622947026E+01 -0.84694506962E+01 -0.49986105285E+03  0.49993791788E+03  0.00000000000E+00 0.  1.
        -15    1    1    2    0    0  0.50509587250E+01  0.63686587243E+01  0.38012151434E+03  0.38021256607E+03  0.17770000000E+01 0. -1.
         15    1    1    2    0    0 -0.14373870444E+01  0.24329640880E+01  0.10233890207E+03  0.10239332986E+03  0.17770000000E+01 0. -1.
</event>
<event>
 6    1  0.3836009E-003  0.5188086E+03  0.7546771E-02  0.9358680E-01
        -11   -1    0    0    0    0  0.00000000000E+00  0.00000000000E+00  0.50000000000E+03  0.50000000000E+03  0.00000000000E+00 0.  1.
         11   -1    0    0    0    0 -0.00000000000E+00 -0.00000000000E+00 -0.50000000000E+03  0.50000000000E+03  0.00000000000E+00 0. -1.
        -11    1    1    2    0    0 -0.45170609733E+02  0.90534490061E+02  0.47043416607E+03  0.48119141980E+03  0.00000000000E+00 0.  1.
         11    1    1    2    0    0  0.22582671699E+02  0.38022626649E+01 -0.18478242710E+03  0.18619607844E+03  0.00000000000E+00 0. -1.
        -15    1    1    2    0    0  0.28115577203E+02 -0.25626905524E+01  0.41319698938E+01  0.28588178825E+02  0.17770000000E+01 0. -1.
         15    1    1    2    0    0 -0.55276391697E+01 -0.91774062174E+02 -0.28978370887E+03  0.30402432294E+03  0.17770000000E+01 0.  1.
</event>
<event>
 6    1  0.3836009E-003  0.5254131E+03  0.7546771E-02  0.9344675E-01
        -11   -1    0    0    0    0  0.00000000000E+00  0.00000000000E+00  0.50000000000E+03  0.50000000000E+03  0.00000000000E+00 0. -1.
         11   -1    0    0    0    0 -0.00000000000E+00 -0.00000000000E+00 -0.50000000000E+03  0.50000000000E+03  0.00000000000E+00 0.  1.
        -11    1    1    2    0    0  0.15124592448E+01 -0.12321584816E+02  0.39758051592E+03  0.39777427722E+03  0.00000000000E+00 0. -1.
         11    1    1    2    0    0  0.16819111436E+02 -0.12126837085E+01 -0.47428717806E+03  0.47458685230E+03  0.00000000000E+00 0.  1.
        -15    1    1    2    0    0  0.22089804123E+01  0.14344219541E+00 -0.23902068433E+02  0.24070038938E+02  0.17770000000E+01 0.  1.
         15    1    1    2    0    0 -0.20540551093E+02  0.13390826329E+02  0.10060873057E+03  0.10356883153E+03  0.17770000000E+01 0. -1.
</event>
<event>
 6    1  0.3836009E-003  0.5104996E+03  0.7546771E-02  0.9376618E-01
        -11   -1    0    0    0    0  0.00000000000E+00  0.00000000000E+00  0.50000000000E+03  0.50000000000E+03  0.00000000000E+00 0. -1.
         11   -1    0    0    0    0 -0.00000000000E+00 -0.00000000000E+00 -0.50000000000E+03  0.50000000000E+03  0.00000000000E+00 0. -1.
        -11    1    1    2    0    0 -0.10388800948E+01  0.59336286212E+02  0.21054728864E+03  0.21875107974E+03  0.00000000000E+00 0. -1.
         11    1    1    2    0    0 -0.63756168664E+01  0.17113496100E+01 -0.48945584913E+03  0.48950036308E+03  0.00000000000E+00 0. -1.
        -15    1    1    2    0    0 -0.17946337421E+02 -0.43703030855E+02  0.22272950026E+03  0.22769192772E+03  0.17770000000E+01 0. -1.
         15    1    1    2    0    0  0.25360834382E+02 -0.17344604968E+02  0.56179060227E+02  0.64056629470E+02  0.17770000000E+01 0.  1.
</event>
<event>
 6    1  0.3836009E-003  0.5027777E+03  0.7546771E-02  0.9393616E-01
        -11   -1    0    0    0    0  0.00000000000E+00  0.00000000000E+00  0.50000000000E+03  0.50000000000E+03  0.00000000000E+00 0. -1.
         11   -1    0    0    0    0 -0.00000000000E+00 -0.00000000000E+00 -0.50000000000E+03  0.50000000000E+03  0.00000000000E+00 0.  1.
        -11    1    1    2    0    0  0.49364571094E+01 -0.57000149032E+01  0.49716514465E+03  0.49722232435E+03  0.00000000000E+00 0. -1.
         11    1    1    2    0    0  0.13359134279E+01 -0.68675445285E+01 -0.45145644081E+03  0.45151064858E+03  0.00000000000E+00 0.  1.
        -15    1    1    2    0    0 -0.59710601161E+01  0.78235140763E+01 -0.69529080236E+01  0.12180377268E+02  0.17770000000E+01 0. -1.
         15    1    1    2    0    0 -0.30131042125E+00  0.47440453554E+01 -0.38755795817E+02  0.39086649801E+02  0.17770000000E+01 0.  1.
</event>
<event>
 6    1  0.3836009E-003  0.5066537E+03  0.7546771E-02  0.9385043E-01
        -11   -1    0    0    0    0  0.00000000000E+00  0.00000000000E+00  0.50000000000E+03  0.50000000000E+03  0.00000000000E+00 0. -1.
         11   -1    0    0    0    0 -0.00000000000E+00 -0.00000000000E+00 -0.50000000000E+03  0.50000000000E+03  0.00000000000E+00 0. -1.
        -11    1    1    2    0    0  0.61110993215E+01 -0.57303576620E+01  0.47291343067E+03  0.47298762715E+03  0.00000000000E+00 0. -1.
         11    1    1    2    0    0 -0.49739070250E+01 -0.55301390934E+01 -0.49329021574E+03  0.49334628724E+03  0.00000000000E+00 0. -1.
        -15    1    1    2    0    0 -0.86688386319E+01  0.15424714340E+02  0.11512413735E+02  0.21184050007E+02  0.17770000000E+01 0.  1.
         15    1    1    2    0    0  0.75316463354E+01 -0.41642175847E+01  0.88643713349E+01  0.12482035602E+02  0.17770000000E+01 0. -1.
</event>
<event>
 6    1  0.3836009E-003  0.5003732E+03  0.7546771E-02  0.9398975E-01
        -11   -1    0    0    0    0  0.00000000000E+00  0.00000000000E+00  0.50000000000E+03  0.50000000000E+03  0.00000000000E+00 0. -1.
         11   -1    0    0    0    0 -0.00000000000E+00 -0.00000000000E+00 -0.50000000000E+03  0.50000000000E+03  0.00000000000E+00 0. -1.
        -11    1    1    2    0    0 -0.31648211740E+00  0.14719222072E+01  0.85183369245E+02  0.85196673126E+02  0.00000000000E+00 0. -1.
         11    1    1    2    0    0  0.21014888573E+01  0.10266468100E+02 -0.49951683984E+03  0.49962675060E+03  0.00000000000E+00 0. -1.
        -15    1    1    2    0    0  0.35545338474E+01 -0.10910704052E+02  0.39054297430E+03  0.39071556237E+03  0.17770000000E+01 0. -1.
         15    1    1    2    0    0 -0.53395405873E+01 -0.82768625475E+00  0.23790496295E+02  0.24461013904E+02  0.17770000000E+01 0.  1.
</event>
<event>
 6    1  0.3836009E-003  0.5473426E+03  0.7546771E-02  0.9299694E-01
        -11   -1    0    0    0    0  0.00000000000E+00  0.00000000000E+00  0.50000000000E+03  0.50000000000E+03  0.00000000000E+00 0. -1.
         11   -1    0    0    0    0 -0.00000000000E+00 -0.00000000000E+00 -0.50000000000E+03  0.50000000000E+03  0.00000000000E+00 0.  1.
        -11    1    1    2    0    0  0.55633570310E+01 -0.42512738539E+01  0.42365015445E+03  0.42370800988E+03  0.00000000000E+00 0. -1.
         11    1    1    2    0    0 -0.17353632101E+02  0.11076196481E+01 -0.45232329385E+03  0.45265741740E+03  0.00000000000E+00 0.  1.
        -15    1    1    2    0    0  0.14569427825E+02 -0.27603491254E+02 -0.38553787439E+02  0.49636410139E+02  0.17770000000E+01 0. -1.
         15    1    1    2    0    0 -0.27791527553E+01  0.30747145460E+02  0.67226926835E+02  0.73998162577E+02  0.17770000000E+01 0.  1.
</event>
<event>
 6    1  0.3836009E-003  0.5013258E+03  0.7546771E-02  0.9396848E-01
        -11   -1    0    0    0    0  0.00000000000E+00  0.00000000000E+00  0.50000000000E+03  0.50000000000E+03  0.00000000000E+00 0. -1.
         11   -1    0    0    0    0 -0.00000000000E+00 -0.00000000000E+00 -0.50000000000E+03  0.50000000000E+03  0.00000000000E+00 0.  1.
        -11    1    1    2    0    0 -0.20189924405E+00 -0.18976286577E+02  0.49831297181E+03  0.49867420034E+03  0.00000000000E+00 0. -1.
         11    1    1    2    0    0  0.60475078449E+01  0.13114794545E+01 -0.11720305827E+03  0.11736630350E+03  0.00000000000E+00 0.  1.
        -15    1    1    2    0    0  0.97870445539E+01  0.42606576415E+01 -0.30200780856E+03  0.30220161085E+03  0.17770000000E+01 0.  1.
         15    1    1    2    0    0 -0.15632653155E+02  0.13404149481E+02 -0.79102104981E+02  0.81757885304E+02  0.17770000000E+01 0. -1.
</event>
<event>
 6    1  0.3836009E-003  0.4446534E+03  0.7546771E-02  0.9532951E-01
        -11   -1    0    0    0    0  0.00000000000E+00  0.00000000000E+00  0.50000000000E+03  0.50000000000E+03  0.00000000000E+00 0. -1.
         11   -1    0    0    0    0 -0.00000000000E+00 -0.00000000000E+00 -0.50000000000E+03  0.50000000000E+03  0.00000000000E+00 0. -1.
        -11    1    1    2    0    0  0.49040486652E+02 -0.13010261842E+02  0.47451513155E+03  0.47721991399E+03  0.00000000000E+00 0. -1.
         11    1    1    2    0    0 -0.17744061653E+01 -0.73929664677E+00 -0.13465302594E+02  0.13601817919E+02  0.00000000000E+00 0. -1.
        -15    1    1    2    0    0 -0.46703661107E+02 -0.60626935644E+02 -0.49962470318E+02  0.91412600092E+02  0.17770000000E+01 0.  1.
         15    1    1    2    0    0 -0.56241937958E+00  0.74376494133E+02 -0.41108735864E+03  0.41776566799E+03  0.17770000000E+01 0. -1.
</event>
<event>
 6    1  0.3836009E-003  0.5045042E+03  0.7546771E-02  0.9389787E-01
        -11   -1    0    0    0    0  0.00000000000E+00  0.00000000000E+00  0.50000000000E+03  0.50000000000E+03  0.00000000000E+00 0.  1.
         11   -1    0    0    0    0 -0.00000000000E+00 -0.00000000000E+00 -0.50000000000E+03  0.50000000000E+03  0.00000000000E+00 0.  1.
        -11    1    1    2    0    0 -0.63580865549E+01  0.91575061158E+00  0.45445509068E+03  0.45450048769E+03  0.00000000000E+00 0.  1.
         11    1    1    2    0    0 -0.36586256707E+01 -0.67001444124E+01 -0.49543694613E+03  0.49549575687E+03  0.00000000000E+00 0.  1.
        -15    1    1    2    0    0  0.11900060004E+02  0.10134243494E+02  0.10065769375E+02  0.18675967482E+02  0.17770000000E+01 0. -1.
         15    1    1    2    0    0 -0.18833477782E+01 -0.43498496935E+01  0.30916086077E+02  0.31327787961E+02  0.17770000000E+01 0.  1.
</event>
<event>
 6    1  0.3836009E-003  0.5023452E+03  0.7546771E-02  0.9394577E-01
        -11   -1    0    0    0    0  0.00000000000E+00  0.00000000000E+00  0.50000000000E+03  0.50000000000E+03  0.00000000000E+00 0. -1.
         11   -1    0    0    0    0 -0.00000000000E+00 -0.00000000000E+00 -0.50000000000E+03  0.50000000000E+03  0.00000000000E+00 0. -1.
        -11    1    1    2    0    0 -0.46946786696E+01  0.54815076323E+01  0.39602214810E+03  0.39608790529E+03  0.00000000000E+00 0. -1.
         11    1    1    2    0    0 -0.55407397355E+01  0.16066951609E+02 -0.49736448051E+03  0.49765477311E+03  0.00000000000E+00 0. -1.
        -15    1    1    2    0    0  0.90700723240E+01 -0.21142558599E+02  0.52260753835E+02  0.57128085181E+02  0.17770000000E+01 0.  1.
         15    1    1    2    0    0  0.11653460811E+01 -0.40590064207E+00  0.49081578575E+02  0.49129236420E+02  0.17770000000E+01 0. -1.
</event>
<event>
 6    1  0.3836009E-003  0.5003998E+03  0.7546771E-02  0.9398916E-01
        -11   -1    0    0    0    0  0.00000000000E+00  0.00000000000E+00  0.50000000000E+03  0.50000000000E+03  0.00000000000E+00 0.  1.
         11   -1    0    0    0    0 -0.00000000000E+00 -0.00000000000E+00 -0.50000000000E+03  0.50000000000E+03  0.00000000000E+00 0.  1.
        -11    1    1    2    0    0 -0.37060441757E+01  0.63517583288E+00  0.20915008482E+03  0.20918388129E+03  0.00000000000E+00 0.  1.
         11    1    1    2    0    0 -0.71854887863E+01  0.47781660922E+00 -0.49954828150E+03  0.49960018526E+03  0.00000000000E+00 0.  1.
        -15    1    1    2    0    0  0.11860441753E+02  0.67854436798E+00  0.89834107540E+02  0.90633631217E+02  0.17770000000E+01 0. -1.
         15    1    1    2    0    0 -0.96890879085E+00 -0.17915368101E+01  0.20056408914E+03  0.20058230223E+03  0.17770000000E+01 0.  1.
</event>
<event>
 6    1  0.3836009E-003  0.5023305E+03  0.7546771E-02  0.9394610E-01
        -11   -1    0    0    0    0  0.00000000000E+00  0.00000000000E+00  0.50000000000E+03  0.50000000000E+03  0.00000000000E+00 0. -1.
         11   -1    0    0    0    0 -0.00000000000E+00 -0.00000000000E+00 -0.50000000000E+03  0.50000000000E+03  0.00000000000E+00 0.  1.
        -11    1    1    2    0    0  0.14905705518E+01 -0.11725099517E+02  0.46638539975E+03  0.46653514430E+03  0.00000000000E+00 0. -1.
         11    1    1    2    0    0 -0.49653746966E+01  0.12014375170E+02 -0.49749967453E+03  0.49766949506E+03  0.00000000000E+00 0.  1.
        -15    1    1    2    0    0 -0.20704659989E+01 -0.69084204559E+00  0.29642467761E+02  0.29775790773E+02  0.17770000000E+01 0.  1.
         15    1    1    2    0    0  0.55452701437E+01  0.40156639248E+00  0.14718070143E+01  0.60195698702E+01  0.17770000000E+01 0. -1.
</event>
<event>
 6    1  0.3836009E-003  0.5018653E+03  0.7546771E-02  0.9395646E-01
        -11   -1    0    0    0    0  0.00000000000E+00  0.00000000000E+00  0.50000000000E+03  0.50000000000E+03  0.00000000000E+00 0.  1.
         11   -1    0    0    0    0 -0.00000000000E+00 -0.00000000000E+00 -0.50000000000E+03  0.50000000000E+03  0.00000000000E+00 0. -1.
        -11    1    1    2    0    0 -0.45174658309E+01 -0.55679744756E+01  0.44582689076E+03  0.44588454376E+03  0.00000000000E+00 0.  1.
         11    1    1    2    0    0 -0.81995496311E+01  0.22650187320E+01 -0.49806205519E+03  0.49813469437E+03  0.00000000000E+00 0. -1.
        -15    1    1    2    0    0  0.11010908789E+02 -0.55295494590E+00  0.49290074670E+02  0.50539242788E+02  0.17770000000E+01 0.  1.
         15    1    1    2    0    0  0.17061066725E+01  0.38559106895E+01  0.29450897521E+01  0.54415190775E+01  0.17770000000E+01 0. -1.
</event>
<event>
 6    1  0.3836009E-003  0.5101216E+03  0.7546771E-02  0.9377442E-01
        -11   -1    0    0    0    0  0.00000000000E+00  0.00000000000E+00  0.50000000000E+03  0.50000000000E+03  0.00000000000E+00 0.  1.
         11   -1    0    0    0    0 -0.00000000000E+00 -0.00000000000E+00 -0.50000000000E+03  0.50000000000E+03  0.00000000000E+00 0.  1.
        -11    1    1    2    0    0 -0.75891103584E+01  0.25519925923E+00  0.41160999039E+03  0.41168002613E+03  0.00000000000E+00 0.  1.
         11    1    1    2    0    0  0.13698189678E+02  0.94478268500E+00 -0.48968590509E+03  0.48987837129E+03  0.00000000000E+00 0.  1.
        -15    1    1    2    0    0 -0.14167938915E+02 -0.21773199007E+00 -0.48641005744E+01  0.15086255457E+02  0.17770000000E+01 0.  1.
         15    1    1    2    0    0  0.80588595960E+01 -0.98224995415E+00  0.82940015271E+02  0.83355347130E+02  0.17770000000E+01 0. -1.
</event>
<event>
 6    1  0.3836009E-003  0.5075969E+03  0.7546771E-02  0.9382970E-01
        -11   -1    0    0    0    0  0.00000000000E+00  0.00000000000E+00  0.50000000000E+03  0.50000000000E+03  0.00000000000E+00 0.  1.
         11   -1    0    0    0    0 -0.00000000000E+00 -0.00000000000E+00 -0.50000000000E+03  0.50000000000E+03  0.00000000000E+00 0. -1.
        -11    1    1    2    0    0  0.40983209400E+01 -0.76115425051E+01  0.48477492883E+03  0.48485200158E+03  0.00000000000E+00 0.  1.
         11    1    1    2    0    0  0.18735915448E+01  0.79058718460E+01 -0.49233603260E+03  0.49240306879E+03  0.00000000000E+00 0. -1.
        -15    1    1    2    0    0 -0.11899426671E+02  0.51394638731E+01  0.58613754317E+01  0.14336104594E+02  0.17770000000E+01 0.  1.
         15    1    1    2    0    0  0.59275141857E+01 -0.54337932140E+01  0.16997283409E+01  0.84088250396E+01  0.17770000000E+01 0. -1.
</event>
<event>
 6    1  0.3836009E-003  0.5010804E+03  0.7546771E-02  0.9397396E-01
        -11   -1    0    0    0    0  0.00000000000E+00  0.00000000000E+00  0.50000000000E+03  0.50000000000E+03  0.00000000000E+00 0.  1.
         11   -1    0    0    0    0 -0.00000000000E+00 -0.00000000000E+00 -0.50000000000E+03  0.50000000000E+03  0.00000000000E+00 0.  1.
        -11    1    1    2    0    0  0.69648926435E+01  0.87477723433E+00  0.49887026233E+03  0.49891964644E+03  0.00000000000E+00 0.  1.
         11    1    1    2    0    0  0.55038784467E+01  0.47431651639E+01 -0.41270334279E+03  0.41276729455E+03  0.00000000000E+00 0.  1.
        -15    1    1    2    0    0 -0.20346865666E+01 -0.27742231961E+01 -0.57378946047E+02  0.57509455242E+02  0.17770000000E+01 0.  1.
         15    1    1    2    0    0 -0.10434084524E+02 -0.28437192021E+01 -0.28787973489E+02  0.30803603772E+02  0.17770000000E+01 0. -1.
</event>
<event>
 6    1  0.3836009E-003  0.5056643E+03  0.7546771E-02  0.9387224E-01
        -11   -1    0    0    0    0  0.00000000000E+00  0.00000000000E+00  0.50000000000E+03  0.50000000000E+03  0.00000000000E+00 0.  1.
         11   -1    0    0    0    0 -0.00000000000E+00 -0.00000000000E+00 -0.50000000000E+03  0.50000000000E+03  0.00000000000E+00 0. -1.
        -11    1    1    2    0    0 -0.48083808219E+01 -0.67339737598E+00  0.24348618469E+03  0.24353458918E+03  0.00000000000E+00 0.  1.
         11    1    1    2    0    0  0.55009155218E+01 -0.81865730467E+01 -0.49423727483E+03  0.49433567936E+03  0.00000000000E+00 0. -1.
        -15    1    1    2    0    0  0.38754913547E+01 -0.35143329278E+01 -0.41320081111E+01  0.68993615065E+01  0.17770000000E+01 0. -1.
         15    1    1    2    0    0 -0.45680260546E+01  0.12374303350E+02  0.25488309825E+03  0.25523036996E+03  0.17770000000E+01 0.  1.
</event>
<event>
 6    1  0.3836009E-003  0.5015456E+03  0.7546771E-02  0.9396358E-01
        -11   -1    0    0    0    0  0.00000000000E+00  0.00000000000E+00  0.50000000000E+03  0.50000000000E+03  0.00000000000E+00 0. -1.
         11   -1    0    0    0    0 -0.00000000000E+00 -0.00000000000E+00 -0.50000000000E+03  0.50000000000E+03  0.00000000000E+00 0.  1.
        -11    1    1    2    0    0 -0.42857890502E+01  0.61948746441E+01  0.11435221146E+03  0.11460005552E+03  0.00000000000E+00 0. -1.
         11    1    1    2    0    0 -0.85675200625E+01  0.35620693980E+01 -0.49836802061E+03  0.49845438579E+03  0.00000000000E+00 0.  1.
        -15    1    1    2    0    0  0.14651360469E+02  0.14127761821E+02  0.11016241687E+03  0.11204093822E+03  0.17770000000E+01 0.  1.
         15    1    1    2    0    0 -0.17980513562E+01 -0.23884705863E+02  0.27385339229E+03  0.27490462048E+03  0.17770000000E+01 0. -1.
</event>
<event>
 6    1  0.3836009E-003  0.5084823E+03  0.7546771E-02  0.9381027E-01
        -11   -1    0    0    0    0  0.00000000000E+00  0.00000000000E+00  0.50000000000E+03  0.50000000000E+03  0.00000000000E+00 0. -1.
         11   -1    0    0    0    0 -0.00000000000E+00 -0.00000000000E+00 -0.50000000000E+03  0.50000000000E+03  0.00000000000E+00 0. -1.
        -11    1    1    2    0    0 -0.10205192047E+02 -0.19074947649E+02  0.49104135377E+03  0.49151766060E+03  0.00000000000E+00 0. -1.
         11    1    1    2    0    0 -0.20740381683E+01 -0.81608737934E+01 -0.44185731649E+03  0.44193754041E+03  0.00000000000E+00 0. -1.
        -15    1    1    2    0    0  0.32155806133E+01  0.48743697924E+01 -0.40318271300E+02  0.40777692053E+02  0.17770000000E+01 0. -1.
         15    1    1    2    0    0  0.90636496024E+01  0.22361451650E+02 -0.88657659849E+01  0.25767106929E+02  0.17770000000E+01 0.  1.
</event>
<event>
 6    1  0.3836009E-003  0.5064004E+03  0.7546771E-02  0.9385601E-01
        -11   -1    0    0    0    0  0.00000000000E+00  0.00000000000E+00  0.50000000000E+03  0.50000000000E+03  0.00000000000E+00 0. -1.
         11   -1    0    0    0    0 -0.00000000000E+00 -0.00000000000E+00 -0.50000000000E+03  0.50000000000E+03  0.00000000000E+00 0.  1.
        -11    1    1    2    0    0  0.83837938048E+01  0.37552587217E+01  0.46895630382E+03  0.46904627155E+03  0.00000000000E+00 0. -1.
         11    1    1    2    0    0  0.55711075085E+01 -0.15420959336E+02 -0.49332722119E+03  0.49359962560E+03  0.00000000000E+00 0.  1.
        -15    1    1    2    0    0 -0.15805241545E+01  0.12733656039E+02  0.42340652599E+01  0.13628246048E+02  0.17770000000E+01 0. -1.
         15    1    1    2    0    0 -0.12374377159E+02 -0.10679554246E+01  0.20136852115E+02  0.23725856801E+02  0.17770000000E+01 0.  1.
</event>
<event>
 6    1  0.3836009E-003  0.5011351E+03  0.7546771E-02  0.9397273E-01
        -11   -1    0    0    0    0  0.00000000000E+00  0.00000000000E+00  0.50000000000E+03  0.50000000000E+03  0.00000000000E+00 0. -1.
         11   -1    0    0    0    0 -0.00000000000E+00 -0.00000000000E+00 -0.50000000000E+03  0.50000000000E+03  0.00000000000E+00 0. -1.
        -11    1    1    2    0    0  0.33403401751E+01 -0.62544605055E+01  0.28666675797E+03  0.28675443549E+03  0.00000000000E+00 0. -1.
         11    1    1    2    0    0 -0.39765276639E+01 -0.69312939210E+01 -0.49880088288E+03  0.49886488789E+03  0.00000000000E+00 0. -1.
        -15    1    1    2    0    0  0.17293415476E+01  0.11084812251E+01  0.17950657728E+03  0.17952712432E+03  0.17770000000E+01 0. -1.
         15    1    1    2    0    0 -0.10931540588E+01  0.12077273201E+02  0.32627547633E+02  0.34853552291E+02  0.17770000000E+01 0.  1.
</event>
<event>
 6    1  0.3836009E-003  0.4789552E+03  0.7546771E-02  0.9448171E-01
        -11   -1    0    0    0    0  0.00000000000E+00  0.00000000000E+00  0.50000000000E+03  0.50000000000E+03  0.00000000000E+00 0. -1.
         11   -1    0    0    0    0 -0.00000000000E+00 -0.00000000000E+00 -0.50000000000E+03  0.50000000000E+03  0.00000000000E+00 0.  1.
        -11    1    1    2    0    0 -0.99951361111E+01 -0.10039956548E+01  0.48471087712E+03  0.48481495970E+03  0.00000000000E+00 0. -1.
         11    1    1    2    0    0 -0.10672461441E+02 -0.55096116894E+01 -0.47325667166E+03  0.47340905623E+03  0.00000000000E+00 0.  1.
        -15    1    1    2    0    0  0.40277565040E+01 -0.16890477113E+00  0.11661943574E+02  0.12466355049E+02  0.17770000000E+01 0. -1.
         15    1    1    2    0    0  0.16639841048E+02  0.66825121154E+01 -0.23116149031E+02  0.29309629021E+02  0.17770000000E+01 0.  1.
</event>
<event>
 6    1  0.3836009E-003  0.5000883E+03  0.7546771E-02  0.9399612E-01
        -11   -1    0    0    0    0  0.00000000000E+00  0.00000000000E+00  0.50000000000E+03  0.50000000000E+03  0.00000000000E+00 0. -1.
         11   -1    0    0    0    0 -0.00000000000E+00 -0.00000000000E+00 -0.50000000000E+03  0.50000000000E+03  0.00000000000E+00 0.  1.
        -11    1    1    2    0    0  0.11908144958E+02 -0.26850779097E+01  0.49976261740E+03  0.49991167951E+03  0.00000000000E+00 0. -1.
         11    1    1    2    0    0  0.98213765545E+00  0.29083298360E+01 -0.94510289352E+02  0.94560127804E+02  0.00000000000E+00 0.  1.
        -15    1    1    2    0    0 -0.10546096315E+02 -0.13685447551E+01 -0.23569610561E+03  0.23594258834E+03  0.17770000000E+01 0. -1.
         15    1    1    2    0    0 -0.23441862981E+01  0.11452928288E+01 -0.16955622243E+03  0.16958560434E+03  0.17770000000E+01 0.  1.
</event>
<event>
 6    1  0.3836009E-003  0.5080473E+03  0.7546771E-02  0.9381981E-01
        -11   -1    0    0    0    0  0.00000000000E+00  0.00000000000E+00  0.50000000000E+03  0.50000000000E+03  0.00000000000E+00 0.  1.
         11   -1    0    0    0    0 -0.00000000000E+00 -0.00000000000E+00 -0.50000000000E+03  0.50000000000E+03  0.00000000000E+00 0. -1.
        -11    1    1    2    0    0 -0.11625900257E+02 -0.17431481759E+01  0.47876745088E+03  0.47891175820E+03  0.00000000000E+00 0.  1.
         11    1    1    2    0    0  0.12887948532E+02 -0.96406106344E+01 -0.49168931166E+03  0.49195266011E+03  0.00000000000E+00 0. -1.
        -15    1    1    2    0    0  0.79944586748E+01  0.13002120529E+02  0.12059250193E+02  0.19533298544E+02  0.17770000000E+01 0. -1.
         15    1    1    2    0    0 -0.92565069501E+01 -0.16183617190E+01  0.86261058491E+00  0.96022831448E+01  0.17770000000E+01 0.  1.
</event>
<event>
 6    1  0.3836009E-003  0.5024913E+03  0.7546771E-02  0.9394252E-01
        -11   -1    0    0    0    0  0.00000000000E+00  0.00000000000E+00  0.50000000000E+03  0.50000000000E+03  0.00000000000E+00 0.  1.
         11   -1    0    0    0    0 -0.00000000000E+00 -0.00000000000E+00 -0.50000000000E+03  0.50000000000E+03  0.00000000000E+00 0.  1.
        -11    1    1    2    0    0 -0.34174640093E+02 -0.23814907665E+02  0.49576184642E+03  0.49750865743E+03  0.00000000000E+00 0.  1.
         11    1    1    2    0    0  0.64465011421E-01 -0.67346798974E+00 -0.39296917608E+02  0.39302740978E+02  0.00000000000E+00 0.  1.
        -15    1    1    2    0    0  0.30124772004E+02  0.31317261463E+02 -0.45169737925E+03  0.45378624142E+03  0.17770000000E+01 0.  1.
         15    1    1    2    0    0  0.39854030777E+01 -0.68288858079E+01 -0.47675495630E+01  0.94023601774E+01  0.17770000000E+01 0. -1.
</event>
<event>
 6    1  0.3836009E-003  0.4788095E+03  0.7546771E-02  0.9448515E-01
        -11   -1    0    0    0    0  0.00000000000E+00  0.00000000000E+00  0.50000000000E+03  0.50000000000E+03  0.00000000000E+00 0. -1.
         11   -1    0    0    0    0 -0.00000000000E+00 -0.00000000000E+00 -0.50000000000E+03  0.50000000000E+03  0.00000000000E+00 0.  1.
        -11    1    1    2    0    0  0.14666264759E+02 -0.10959159609E+02  0.47908255448E+03  0.47943226477E+03  0.00000000000E+00 0. -1.
         11    1    1    2    0    0  0.24272327893E+01  0.17997520506E+02 -0.47802083259E+03  0.47836567456E+03  0.00000000000E+00 0.  1.
        -15    1    1    2    0    0 -0.71090858185E+01  0.64777421532E+01  0.15638036998E+02  0.18444678764E+02  0.17770000000E+01 0. -1.
         15    1    1    2    0    0 -0.99844117300E+01 -0.13516103050E+02 -0.16699758884E+02  0.23757381906E+02  0.17770000000E+01 0. -1.
</event>
<event>
 6    1  0.3836009E-003  0.5028526E+03  0.7546771E-02  0.9393449E-01
        -11   -1    0    0    0    0  0.00000000000E+00  0.00000000000E+00  0.50000000000E+03  0.50000000000E+03  0.00000000000E+00 0. -1.
         11   -1    0    0    0    0 -0.00000000000E+00 -0.00000000000E+00 -0.50000000000E+03  0.50000000000E+03  0.00000000000E+00 0. -1.
        -11    1    1    2    0    0  0.37417709547E+01  0.69554753446E+01  0.49708467227E+03  0.49714741365E+03  0.00000000000E+00 0. -1.
         11    1    1    2    0    0  0.94009169307E+01 -0.10467921475E+02 -0.20231249352E+03  0.20280113326E+03  0.00000000000E+00 0. -1.
        -15    1    1    2    0    0 -0.13441186267E+01  0.10174324636E+02 -0.27895195823E+03  0.27914633486E+03  0.17770000000E+01 0. -1.
         15    1    1    2    0    0 -0.11798569259E+02 -0.66618785056E+01 -0.15820220526E+02  0.20905118231E+02  0.17770000000E+01 0.  1.
</event>
<event>
 6    1  0.3836009E-003  0.5006492E+03  0.7546771E-02  0.9398358E-01
        -11   -1    0    0    0    0  0.00000000000E+00  0.00000000000E+00  0.50000000000E+03  0.50000000000E+03  0.00000000000E+00 0. -1.
         11   -1    0    0    0    0 -0.00000000000E+00 -0.00000000000E+00 -0.50000000000E+03  0.50000000000E+03  0.00000000000E+00 0. -1.
        -11    1    1    2    0    0 -0.90654807813E+01 -0.29683576722E+00  0.44582376915E+03  0.44591602819E+03  0.00000000000E+00 0. -1.
         11    1    1    2    0    0  0.10418798383E+02 -0.10421639209E+01 -0.49924103561E+03  0.49935082768E+03  0.00000000000E+00 0. -1.
        -15    1    1    2    0    0 -0.37406228014E+01 -0.28852627637E+00  0.48941523707E+02  0.49117267616E+02  0.17770000000E+01 0. -1.
         15    1    1    2    0    0  0.23873051996E+01  0.16275259645E+01  0.44757427530E+01  0.56158765186E+01  0.17770000000E+01 0.  1.
</event>
<event>
 6    1  0.3836009E-003  0.5004039E+03  0.7546771E-02  0.9398906E-01
        -11   -1    0    0    0    0  0.00000000000E+00  0.00000000000E+00  0.50000000000E+03  0.50000000000E+03  0.00000000000E+00 0.  1.
         11   -1    0    0    0    0 -0.00000000000E+00 -0.00000000000E+00 -0.50000000000E+03  0.50000000000E+03  0.00000000000E+00 0.  1.
        -11    1    1    2    0    0 -0.76747743890E+01 -0.82836938578E+01  0.49946841423E+03  0.49959605539E+03  0.00000000000E+00 0.  1.
         11    1    1    2    0    0  0.27937734065E+01 -0.21390067959E+01 -0.24811850275E+03  0.24814345030E+03  0.00000000000E+00 0.  1.
        -15    1    1    2    0    0 -0.23320991791E+01  0.45013383473E+01 -0.19790059249E+03  0.19797349058E+03  0.17770000000E+01 0.  1.
         15    1    1    2    0    0  0.72131001616E+01  0.59213623064E+01 -0.53449318987E+02  0.54287003737E+02  0.17770000000E+01 0. -1.
</event>
<event>
 6    1  0.3836009E-003  0.5014595E+03  0.7546771E-02  0.9396550E-01
        -11   -1    0    0    0    0  0.00000000000E+00  0.00000000000E+00  0.50000000000E+03  0.50000000000E+03  0.00000000000E+00 0. -1.
         11   -1    0    0    0    0 -0.00000000000E+00 -0.00000000000E+00 -0.50000000000E+03  0.50000000000E+03  0.00000000000E+00 0. -1.
        -11    1    1    2    0    0  0.62403319321E+01 -0.43110183536E+01  0.49848276238E+03  0.49854046076E+03  0.00000000000E+00 0. -1.
         11    1    1    2    0    0 -0.44389500233E+01 -0.59332397608E+01 -0.27273707377E+03  0.27283771554E+03  0.00000000000E+00 0. -1.
        -15    1    1    2    0    0 -0.85477281786E+00  0.39699456322E+01 -0.21456258122E+01  0.49246872001E+01  0.17770000000E+01 0. -1.
         15    1    1    2    0    0 -0.94660909098E+00  0.62743124822E+01 -0.22360006280E+03  0.22369713650E+03  0.17770000000E+01 0.  1.
</event>
<event>
 6    1  0.3836009E-003  0.5191940E+03  0.7546771E-02  0.9357857E-01
        -11   -1    0    0    0    0  0.00000000000E+00  0.00000000000E+00  0.50000000000E+03  0.50000000000E+03  0.00000000000E+00 0. -1.
         11   -1    0    0    0    0 -0.00000000000E+00 -0.00000000000E+00 -0.50000000000E+03  0.50000000000E+03  0.00000000000E+00 0.  1.
        -11    1    1    2    0    0  0.62034376192E+01 -0.18610307505E+01  0.44312747934E+03  0.44317480639E+03  0.00000000000E+00 0. -1.
         11    1    1    2    0    0  0.27187330366E+00 -0.76887910034E+01 -0.48074443724E+03  0.48080599555E+03  0.00000000000E+00 0.  1.
        -15    1    1    2    0    0  0.10279653479E+01  0.62182983254E+01 -0.18319948771E+02  0.19455132968E+02  0.17770000000E+01 0.  1.
         15    1    1    2    0    0 -0.75032762707E+01  0.33315234285E+01  0.55936906667E+02  0.56564065091E+02  0.17770000000E+01 0.  1.
</event>
<event>
 6    1  0.3836009E-003  0.5017723E+03  0.7546771E-02  0.9395853E-01
        -11   -1    0    0    0    0  0.00000000000E+00  0.00000000000E+00  0.50000000000E+03  0.50000000000E+03  0.00000000000E+00 0. -1.
         11   -1    0    0    0    0 -0.00000000000E+00 -0.00000000000E+00 -0.50000000000E+03  0.50000000000E+03  0.00000000000E+00 0.  1.
        -11    1    1    2    0    0  0.61542948440E+01 -0.54941570525E+01  0.49815936642E+03  0.49822767432E+03  0.00000000000E+00 0. -1.
         11    1    1    2    0    0  0.28314419652E+01 -0.80559177979E+01 -0.44738149421E+03  0.44746297750E+03  0.00000000000E+00 0.  1.
        -15    1    1    2    0    0  0.35728958774E+00  0.57422744972E+01 -0.25422567706E+02  0.26125965054E+02  0.17770000000E+01 0. -1.
         15    1    1    2    0    0 -0.93430263969E+01  0.78078003532E+01 -0.25355304509E+02  0.28183383124E+02  0.17770000000E+01 0.  1.
</event>
<event>
 6    1  0.3836009E-003  0.5024289E+03  0.7546771E-02  0.9394391E-01
        -11   -1    0    0    0    0  0.00000000000E+00  0.00000000000E+00  0.50000000000E+03  0.50000000000E+03  0.00000000000E+00 0.  1.
         11   -1    0    0    0    0 -0.00000000000E+00 -0.00000000000E+00 -0.50000000000E+03  0.50000000000E+03  0.00000000000E+00 0.  1.
        -11    1    1    2    0    0 -0.43986426047E+01  0.71528449602E+01  0.43256673770E+03  0.43264823334E+03  0.00000000000E+00 0.  1.
         11    1    1    2    0    0 -0.31287377974E+01  0.98520187872E+01 -0.49746375751E+03  0.49757114196E+03  0.00000000000E+00 0.  1.
        -15    1    1    2    0    0  0.17872304865E+01  0.29545871375E+01  0.18696568976E+02  0.19095632968E+02  0.17770000000E+01 0.  1.
         15    1    1    2    0    0  0.57401499155E+01 -0.19959450885E+02  0.46200450831E+02  0.50684991730E+02  0.17770000000E+01 0. -1.
</event>
<event>
 6    1  0.3836009E-003  0.5048623E+03  0.7546771E-02  0.9388995E-01
        -11   -1    0    0    0    0  0.00000000000E+00  0.00000000000E+00  0.50000000000E+03  0.50000000000E+03  0.00000000000E+00 0. -1.
         11   -1    0    0    0    0 -0.00000000000E+00 -0.00000000000E+00 -0.50000000000E+03  0.50000000000E+03  0.00000000000E+00 0. -1.
        -11    1    1    2    0    0  0.43222777277E+01  0.57317777231E+01  0.21713352978E+03  0.21725216941E+03  0.00000000000E+00 0. -1.
         11    1    1    2    0    0  0.82129562187E+01  0.14193892266E+02 -0.49486609114E+03  0.49513772568E+03  0.00000000000E+00 0. -1.
        -15    1    1    2    0    0 -0.48550909503E+01 -0.14975453314E+01  0.26219340302E+03  0.26224864703E+03  0.17770000000E+01 0. -1.
         15    1    1    2    0    0 -0.76801429961E+01 -0.18428124658E+02  0.15539158340E+02  0.25361457879E+02  0.17770000000E+01 0. -1.
</event>
<event>
 6    1  0.3836009E-003  0.5003083E+03  0.7546771E-02  0.9399120E-01
        -11   -1    0    0    0    0  0.00000000000E+00  0.00000000000E+00  0.50000000000E+03  0.50000000000E+03  0.00000000000E+00 0.  1.
         11   -1    0    0    0    0 -0.00000000000E+00 -0.00000000000E+00 -0.50000000000E+03  0.50000000000E+03  0.00000000000E+00 0. -1.
        -11    1    1    2    0    0 -0.79418888131E+00  0.87041098330E+01  0.49961523097E+03  0.49969167622E+03  0.00000000000E+00 0.  1.
         11    1    1    2    0    0 -0.54396302793E+01  0.45599901291E+00 -0.34160271723E+03  0.34164632873E+03  0.00000000000E+00 0. -1.
        -15    1    1    2    0    0  0.37342464682E+01 -0.68368053543E+00 -0.83678827036E+02  0.83783744478E+02  0.17770000000E+01 0.  1.
         15    1    1    2    0    0  0.24995726923E+01 -0.84764283105E+01 -0.74333686706E+02  0.74878250573E+02  0.17770000000E+01 0. -1.
</event>
<event>
 6    1  0.3836009E-003  0.4959316E+03  0.7546771E-02  0.9408959E-01
        -11   -1    0    0    0    0  0.00000000000E+00  0.00000000000E+00  0.50000000000E+03  0.50000000000E+03  0.00000000000E+00 0. -1.
         11   -1    0    0    0    0 -0.00000000000E+00 -0.00000000000E+00 -0.50000000000E+03  0.50000000000E+03  0.00000000000E+00 0. -1.
        -11    1    1    2    0    0 -0.10749848485E+01 -0.83952412567E+01  0.49852112910E+03  0.49859297210E+03  0.00000000000E+00 0. -1.
         11    1    1    2    0    0 -0.41230722033E+01  0.13191911558E+01 -0.88807202168E+01  0.98796346728E+01  0.00000000000E+00 0. -1.
        -15    1    1    2    0    0  0.80722209565E+01 -0.15126857748E+02 -0.31154373474E+03  0.31202025408E+03  0.17770000000E+01 0. -1.
         15    1    1    2    0    0 -0.28741639046E+01  0.22202907849E+02 -0.17809667414E+03  0.17950713915E+03  0.17770000000E+01 0.  1.
</event>
<event>
 6    1  0.3836009E-003  0.5181314E+03  0.7546771E-02  0.9360129E-01
        -11   -1    0    0    0    0  0.00000000000E+00  0.00000000000E+00  0.50000000000E+03  0.50000000000E+03  0.00000000000E+00 0. -1.
         11   -1    0    0    0    0 -0.00000000000E+00 -0.00000000000E+00 -0.50000000000E+03  0.50000000000E+03  0.00000000000E+00 0. -1.
        -11    1    1    2    0    0  0.68244231140E+01  0.12143887144E+02  0.44432790455E+03  0.44454621077E+03  0.00000000000E+00 0. -1.
         11    1    1    2    0    0  0.26946222310E+02  0.13071574790E+02 -0.48093698623E+03  0.48186860210E+03  0.00000000000E+00 0. -1.
        -15    1    1    2    0    0 -0.12242626849E+02  0.72017847506E+00  0.37832178473E+02  0.39809948835E+02  0.17770000000E+01 0.  1.
         15    1    1    2    0    0 -0.21528018575E+02 -0.25935640409E+02 -0.12230967894E+01  0.33775238296E+02  0.17770000000E+01 0. -1.
</event>
<event>
 6    1  0.3836009E-003  0.5069261E+03  0.7546771E-02  0.9384444E-01
        -11   -1    0    0    0    0  0.00000000000E+00  0.00000000000E+00  0.50000000000E+03  0.50000000000E+03  0.00000000000E+00 0.  1.
         11   -1    0    0    0    0 -0.00000000000E+00 -0.00000000000E+00 -0.50000000000E+03  0.50000000000E+03  0.00000000000E+00 0. -1.
        -11    1    1    2    0    0 -0.72876874633E+01 -0.43122437389E+01  0.47102107710E+03  0.47109718838E+03  0.00000000000E+00 0.  1.
         11    1    1    2    0    0 -0.62855199970E+01 -0.58862305371E+01 -0.49299872471E+03  0.49307392756E+03  0.00000000000E+00 0. -1.
        -15    1    1    2    0    0  0.67379763937E+00 -0.42616944179E+01 -0.18897523728E+01  0.50343753933E+01  0.17770000000E+01 0. -1.
         15    1    1    2    0    0  0.12899409821E+02  0.14460168694E+02  0.23867399990E+02  0.30794508661E+02  0.17770000000E+01 0.  1.
</event>
<event>
 6    1  0.3836009E-003  0.4866436E+03  0.7546771E-02  0.9430202E-01
        -11   -1    0    0    0    0  0.00000000000E+00  0.00000000000E+00  0.50000000000E+03  0.50000000000E+03  0.00000000000E+00 0.  1.
         11   -1    0    0    0    0 -0.00000000000E+00 -0.00000000000E+00 -0.50000000000E+03  0.50000000000E+03  0.00000000000E+00 0.  1.
        -11    1    1    2    0    0 -0.10031521390E+02  0.90967650209E+01  0.48466692077E+03  0.48485606797E+03  0.00000000000E+00 0.  1.
         11    1    1    2    0    0 -0.69577367577E+01 -0.81525833055E+00 -0.48857225891E+03  0.48862247894E+03  0.00000000000E+00 0.  1.
        -15    1    1    2    0    0  0.38664367678E+01 -0.64069931958E+00 -0.66656366327E+01  0.79339945561E+01  0.17770000000E+01 0.  1.
         15    1    1    2    0    0  0.13122821380E+02 -0.76408073707E+01  0.10570974773E+02  0.18587458538E+02  0.17770000000E+01 0. -1.
</event>
<event>
 6    1  0.3836009E-003  0.5015218E+03  0.7546771E-02  0.9396411E-01
        -11   -1    0    0    0    0  0.00000000000E+00  0.00000000000E+00  0.50000000000E+03  0.50000000000E+03  0.00000000000E+00 0.  1.
         11   -1    0    0    0    0 -0.00000000000E+00 -0.00000000000E+00 -0.50000000000E+03  0.50000000000E+03  0.00000000000E+00 0.  1.
        -11    1    1    2    0    0 -0.40562655752E+01  0.11256910395E+02  0.49833459842E+03  0.49847822752E+03  0.00000000000E+00 0.  1.
         11    1    1    2    0    0  0.58710553673E+01 -0.74122352681E+00 -0.34884171930E+03  0.34889190852E+03  0.00000000000E+00 0.  1.
        -15    1    1    2    0    0  0.80215659376E+01 -0.89192278218E+01 -0.25629909789E+02  0.28353979435E+02  0.17770000000E+01 0. -1.
         15    1    1    2    0    0 -0.98363557297E+01 -0.15964590467E+01 -0.12386296933E+03  0.12427588453E+03  0.17770000000E+01 0.  1.
</event>
<event>
 6    1  0.3836009E-003  0.4871381E+03  0.7546771E-02  0.9429058E-01
        -11   -1    0    0    0    0  0.00000000000E+00  0.00000000000E+00  0.50000000000E+03  0.50000000000E+03  0.00000000000E+00 0.  1.
         11   -1    0    0    0    0 -0.00000000000E+00 -0.00000000000E+00 -0.50000000000E+03  0.50000000000E+03  0.00000000000E+00 0.  1.
        -11    1    1    2    0    0 -0.32254386561E+01 -0.18859217792E+02  0.48582968331E+03  0.48620628826E+03  0.00000000000E+00 0.  1.
         11    1    1    2    0    0 -0.75049377474E+01 -0.10924482862E+01 -0.48827738255E+03  0.48833627742E+03  0.00000000000E+00 0.  1.
        -15    1    1    2    0    0  0.62268536755E+01  0.63848991403E+01 -0.36712174305E+01  0.98069470352E+01  0.17770000000E+01 0.  1.
         15    1    1    2    0    0  0.45035227279E+01  0.13566766938E+02  0.61189166688E+01  0.15650487286E+02  0.17770000000E+01 0. -1.
</event>
<event>
 6    1  0.4038504E-003  0.5154478E+03  0.7546771E-02  0.9365892E-01
        -11   -1    0    0    0    0  0.00000000000E+00  0.00000000000E+00  0.50000000000E+03  0.50000000000E+03  0.00000000000E+00 0. -1.
         11   -1    0    0    0    0 -0.00000000000E+00 -0.00000000000E+00 -0.50000000000E+03  0.50000000000E+03  0.00000000000E+00 0. -1.
        -11    1    1    2    0    0 -0.77951893186E+01 -0.37134026061E+01  0.48447525944E+03  0.48455219672E+03  0.00000000000E+00 0. -1.
         11    1    1    2    0    0  0.15907009483E+02  0.61493285247E+00 -0.43438011000E+03  0.43467170492E+03  0.00000000000E+00 0. -1.
        -15    1    1    2    0    0  0.88091436509E+01  0.26910389440E+01  0.12658524204E+02  0.15755591594E+02  0.17770000000E+01 0. -1.
         15    1    1    2    0    0 -0.16920963815E+02  0.40743080964E+00 -0.62753673643E+02  0.65020506772E+02  0.17770000000E+01 0.  1.
</event>
<event>
 6    1  0.3836009E-003  0.5254079E+03  0.7546771E-02  0.9344686E-01
        -11   -1    0    0    0    0  0.00000000000E+00  0.00000000000E+00  0.50000000000E+03  0.50000000000E+03  0.00000000000E+00 0.  1.
         11   -1    0    0    0    0 -0.00000000000E+00 -0.00000000000E+00 -0.50000000000E+03  0.50000000000E+03  0.00000000000E+00 0.  1.
        -11    1    1    2    0    0 -0.28947016382E+02  0.15859422968E+02  0.47344291600E+03  0.47459208355E+03  0.00000000000E+00 0.  1.
         11    1    1    2    0    0 -0.35637099815E+02  0.46393994802E+01 -0.33100530332E+03  0.33295050343E+03  0.00000000000E+00 0.  1.
        -15    1    1    2    0    0  0.12772792395E+02 -0.16318344246E+02  0.15653196805E+02  0.26030998516E+02  0.17770000000E+01 0. -1.
         15    1    1    2    0    0  0.51811323802E+02 -0.41804782019E+01 -0.15809080949E+03  0.16642641451E+03  0.17770000000E+01 0.  1.
</event>
<event>
 6    1  0.3836009E-003  0.5105918E+03  0.7546771E-02  0.9376417E-01
        -11   -1    0    0    0    0  0.00000000000E+00  0.00000000000E+00  0.50000000000E+03  0.50000000000E+03  0.00000000000E+00 0.  1.
         11   -1    0    0    0    0 -0.00000000000E+00 -0.00000000000E+00 -0.50000000000E+03  0.50000000000E+03  0.00000000000E+00 0. -1.
        -11    1    1    2    0    0 -0.48675715384E+01  0.93663221337E+01  0.48929436337E+03  0.48940820924E+03  0.00000000000E+00 0.  1.
         11    1    1    2    0    0  0.14653879708E+02  0.23429374610E+02 -0.42801107400E+03  0.42890226306E+03  0.00000000000E+00 0. -1.
        -15    1    1    2    0    0 -0.77530942202E+01 -0.26892402185E+02 -0.67255793556E+02  0.72868451755E+02  0.17770000000E+01 0.  1.
         15    1    1    2    0    0 -0.20332139499E+01 -0.59032945584E+01  0.59725041856E+01  0.88210759466E+01  0.17770000000E+01 0. -1.
</event>
<event>
 6    1  0.3836009E-003  0.5024999E+03  0.7546771E-02  0.9394233E-01
        -11   -1    0    0    0    0  0.00000000000E+00  0.00000000000E+00  0.50000000000E+03  0.50000000000E+03  0.00000000000E+00 0. -1.
         11   -1    0    0    0    0 -0.00000000000E+00 -0.00000000000E+00 -0.50000000000E+03  0.50000000000E+03  0.00000000000E+00 0. -1.
        -11    1    1    2    0    0  0.95554623607E+01  0.34765145778E+01  0.49739614886E+03  0.49750007228E+03  0.00000000000E+00 0. -1.
         11    1    1    2    0    0 -0.13705391926E+02 -0.27588857065E+02 -0.18970952499E+03  0.19219439813E+03  0.00000000000E+00 0. -1.
        -15    1    1    2    0    0  0.15607464253E+02  0.55299839837E+01 -0.17851497625E+03  0.17929006703E+03  0.17770000000E+01 0. -1.
         15    1    1    2    0    0 -0.11457534688E+02  0.18582358504E+02 -0.12917164763E+03  0.13101546256E+03  0.17770000000E+01 0.  1.
</event>
<event>
 6    1  0.7454673E-003  0.5432428E+03  0.7546771E-02  0.9307932E-01
        -11   -1    0    0    0    0  0.00000000000E+00  0.00000000000E+00  0.50000000000E+03  0.50000000000E+03  0.00000000000E+00 0. -1.
         11   -1    0    0    0    0 -0.00000000000E+00 -0.00000000000E+00 -0.50000000000E+03  0.50000000000E+03  0.00000000000E+00 0.  1.
        -11    1    1    2    0    0  0.36682838958E+01  0.50642687908E+01  0.45671435630E+03  0.45675716347E+03  0.00000000000E+00 0. -1.
         11    1    1    2    0    0 -0.11619888813E+02  0.96988525863E+00 -0.38213413291E+03  0.38231199043E+03  0.00000000000E+00 0.  1.
        -15    1    1    2    0    0 -0.69439854875E+01 -0.42004177921E+01  0.42284534573E+02  0.43092946489E+02  0.17770000000E+01 0. -1.
         15    1    1    2    0    0  0.14895590405E+02 -0.18337362573E+01 -0.11686475796E+03  0.11783789961E+03  0.17770000000E+01 0.  1.
</event>
<event>
 6    1  0.3836009E-003  0.5041944E+03  0.7546771E-02  0.9390473E-01
        -11   -1    0    0    0    0  0.00000000000E+00  0.00000000000E+00  0.50000000000E+03  0.50000000000E+03  0.00000000000E+00 0.  1.
         11   -1    0    0    0    0 -0.00000000000E+00 -0.00000000000E+00 -0.50000000000E+03  0.50000000000E+03  0.00000000000E+00 0.  1.
        -11    1    1    2    0    0  0.69112578901E+01  0.61593475098E+01  0.49571916839E+03  0.49580560400E+03  0.00000000000E+00 0.  1.
         11    1    1    2    0    0  0.13973385549E+01  0.68102830498E+01 -0.46853521220E+03  0.46858678767E+03  0.00000000000E+00 0.  1.
        -15    1    1    2    0    0 -0.51807082631E+01 -0.85377526915E+01 -0.27414631934E+01  0.10507440629E+02  0.17770000000E+01 0.  1.
         15    1    1    2    0    0 -0.31278881819E+01 -0.44318778681E+01 -0.24442492996E+02  0.25100167704E+02  0.17770000000E+01 0.  1.
</event>
<event>
 6    1  0.3836009E-003  0.5011064E+03  0.7546771E-02  0.9397338E-01
        -11   -1    0    0    0    0  0.00000000000E+00  0.00000000000E+00  0.50000000000E+03  0.50000000000E+03  0.00000000000E+00 0.  1.
         11   -1    0    0    0    0 -0.00000000000E+00 -0.00000000000E+00 -0.50000000000E+03  0.50000000000E+03  0.00000000000E+00 0.  1.
        -11    1    1    2    0    0  0.42242994446E+01 -0.48572528649E+01  0.23063991478E+03  0.23072972912E+03  0.00000000000E+00 0.  1.
         11    1    1    2    0    0  0.55379974661E+01 -0.79741469523E+01 -0.49879914746E+03  0.49889362187E+03  0.00000000000E+00 0.  1.
        -15    1    1    2    0    0 -0.55942611872E+01 -0.88285525776E+00  0.22043036535E+03  0.22051026935E+03  0.17770000000E+01 0. -1.
         15    1    1    2    0    0 -0.41680357234E+01  0.13714255075E+02  0.47728867340E+02  0.49866379663E+02  0.17770000000E+01 0.  1.
</event>
<event>
 6    1  0.3836009E-003  0.5034126E+03  0.7546771E-02  0.9392206E-01
        -11   -1    0    0    0    0  0.00000000000E+00  0.00000000000E+00  0.50000000000E+03  0.50000000000E+03  0.00000000000E+00 0.  1.
         11   -1    0    0    0    0 -0.00000000000E+00 -0.00000000000E+00 -0.50000000000E+03  0.50000000000E+03  0.00000000000E+00 0. -1.
        -11    1    1    2    0    0  0.35613655834E+01  0.33332084701E+02  0.49545464533E+03  0.49658737073E+03  0.00000000000E+00 0.  1.
         11    1    1    2    0    0 -0.20878785578E+02 -0.57872187361E+01 -0.65598464209E+02  0.69083819339E+02  0.00000000000E+00 0. -1.
        -15    1    1    2    0    0  0.37358968744E+01 -0.32254332321E+02 -0.12603305960E+03  0.13016062662E+03  0.17770000000E+01 0.  1.
         15    1    1    2    0    0  0.13581523120E+02  0.47094663562E+01 -0.30382312151E+03  0.30416818331E+03  0.17770000000E+01 0. -1.
</event>
<event>
 6    1  0.3836009E-003  0.5215150E+03  0.7546771E-02  0.9352915E-01
        -11   -1    0    0    0    0  0.00000000000E+00  0.00000000000E+00  0.50000000000E+03  0.50000000000E+03  0.00000000000E+00 0. -1.
         11   -1    0    0    0    0 -0.00000000000E+00 -0.00000000000E+00 -0.50000000000E+03  0.50000000000E+03  0.00000000000E+00 0.  1.
        -11    1    1    2    0    0 -0.11399667415E+01  0.40510285412E+01  0.30389254421E+03  0.30392168199E+03  0.00000000000E+00 0. -1.
         11    1    1    2    0    0  0.11223107201E+02  0.28811862524E+01 -0.47834470577E+03  0.47848502266E+03  0.00000000000E+00 0.  1.
        -15    1    1    2    0    0 -0.35913106068E+01  0.50983669796E+01  0.19376044076E+03  0.19386891703E+03  0.17770000000E+01 0. -1.
         15    1    1    2    0    0 -0.64918298531E+01 -0.12030581773E+02 -0.19308279194E+02  0.23724378329E+02  0.17770000000E+01 0.  1.
</event>
<event>
 6    1  0.3836009E-003  0.5080376E+03  0.7546771E-02  0.9382002E-01
        -11   -1    0    0    0    0  0.00000000000E+00  0.00000000000E+00  0.50000000000E+03  0.50000000000E+03  0.00000000000E+00 0.  1.
         11   -1    0    0    0    0 -0.00000000000E+00 -0.00000000000E+00 -0.50000000000E+03  0.50000000000E+03  0.00000000000E+00 0.  1.
        -11    1    1    2    0    0 -0.88998565271E+00 -0.13227743616E+02  0.30821002132E+03  0.30849502835E+03  0.00000000000E+00 0.  1.
         11    1    1    2    0    0  0.10115061798E+02 -0.20822848725E+01 -0.49185399626E+03  0.49196240103E+03  0.00000000000E+00 0.  1.
        -15    1    1    2    0    0 -0.64102607676E+01 -0.29567908688E+02  0.49390073110E+02  0.57947301215E+02  0.17770000000E+01 0. -1.
         15    1    1    2    0    0 -0.28148153774E+01  0.44877937177E+02  0.13425390183E+03  0.14159526940E+03  0.17770000000E+01 0.  1.
</event>
<event>
 6    1  0.3836009E-003  0.5021239E+03  0.7546771E-02  0.9395070E-01
        -11   -1    0    0    0    0  0.00000000000E+00  0.00000000000E+00  0.50000000000E+03  0.50000000000E+03  0.00000000000E+00 0. -1.
         11   -1    0    0    0    0 -0.00000000000E+00 -0.00000000000E+00 -0.50000000000E+03  0.50000000000E+03  0.00000000000E+00 0. -1.
        -11    1    1    2    0    0  0.13998777351E+01 -0.96751653727E+01  0.49778007989E+03  0.49787606532E+03  0.00000000000E+00 0. -1.
         11    1    1    2    0    0  0.79548991870E+01  0.26243788041E+01 -0.44856945557E+03  0.44864766160E+03  0.00000000000E+00 0. -1.
        -15    1    1    2    0    0 -0.21387355877E+01  0.10258772007E+02 -0.15411089168E+02  0.18721004015E+02  0.17770000000E+01 0.  1.
         15    1    1    2    0    0 -0.72160413344E+01 -0.32079854381E+01 -0.33799535146E+02  0.34755269071E+02  0.17770000000E+01 0. -1.
</event>
<event>
 6    1  0.3836009E-003  0.5015677E+03  0.7546771E-02  0.9396309E-01
        -11   -1    0    0    0    0  0.00000000000E+00  0.00000000000E+00  0.50000000000E+03  0.50000000000E+03  0.00000000000E+00 0. -1.
         11   -1    0    0    0    0 -0.00000000000E+00 -0.00000000000E+00 -0.50000000000E+03  0.50000000000E+03  0.00000000000E+00 0. -1.
        -11    1    1    2    0    0  0.17037969665E+02 -0.24610587559E+02  0.49753271084E+03  0.49843231414E+03  0.00000000000E+00 0. -1.
         11    1    1    2    0    0 -0.61930449478E+01 -0.61879019860E+01 -0.29523579486E+03  0.29536556757E+03  0.00000000000E+00 0. -1.
        -15    1    1    2    0    0 -0.12906620046E+02  0.33575666585E+02 -0.18508411281E+03  0.18855554294E+03  0.17770000000E+01 0. -1.
         15    1    1    2    0    0  0.20616953292E+01 -0.27771770399E+01 -0.17212803164E+02  0.17646575354E+02  0.17770000000E+01 0.  1.
</event>
<event>
 6    1  0.3836009E-003  0.5010137E+03  0.7546771E-02  0.9397544E-01
        -11   -1    0    0    0    0  0.00000000000E+00  0.00000000000E+00  0.50000000000E+03  0.50000000000E+03  0.00000000000E+00 0. -1.
         11   -1    0    0    0    0 -0.00000000000E+00 -0.00000000000E+00 -0.50000000000E+03  0.50000000000E+03  0.00000000000E+00 0. -1.
        -11    1    1    2    0    0  0.42275244222E+01  0.67474075634E+01  0.49892281675E+03  0.49898634905E+03  0.00000000000E+00 0. -1.
         11    1    1    2    0    0  0.64374387837E+01 -0.19670708477E+01 -0.42678168174E+03  0.42683476177E+03  0.00000000000E+00 0. -1.
        -15    1    1    2    0    0 -0.82142394034E+00  0.91143529764E+00 -0.15558840019E+01  0.26615701417E+01  0.17770000000E+01 0. -1.
         15    1    1    2    0    0 -0.98435392655E+01 -0.56917720133E+01 -0.70585251006E+02  0.71517319039E+02  0.17770000000E+01 0. -1.
</event>
<event>
 6    1  0.4475042E-003  0.5046741E+03  0.7546771E-02  0.9389411E-01
        -11   -1    0    0    0    0  0.00000000000E+00  0.00000000000E+00  0.50000000000E+03  0.50000000000E+03  0.00000000000E+00 0. -1.
         11   -1    0    0    0    0 -0.00000000000E+00 -0.00000000000E+00 -0.50000000000E+03  0.50000000000E+03  0.00000000000E+00 0. -1.
        -11    1    1    2    0    0 -0.24378355695E+01  0.16819902997E+02  0.49503425361E+03  0.49532591737E+03  0.00000000000E+00 0. -1.
         11    1    1    2    0    0 -0.52226945684E+01 -0.30146548294E+01 -0.43116821884E+03  0.43121038672E+03  0.00000000000E+00 0. -1.
        -15    1    1    2    0    0  0.42856562032E+01 -0.17174031092E+02 -0.12254660232E+02  0.21602051279E+02  0.17770000000E+01 0. -1.
         15    1    1    2    0    0  0.33748739347E+01  0.33687829242E+01 -0.51611374535E+02  0.51861644622E+02  0.17770000000E+01 0.  1.
</event>
<event>
 6    1  0.3836009E-003  0.5012450E+03  0.7546771E-02  0.9397028E-01
        -11   -1    0    0    0    0  0.00000000000E+00  0.00000000000E+00  0.50000000000E+03  0.50000000000E+03  0.00000000000E+00 0. -1.
         11   -1    0    0    0    0 -0.00000000000E+00 -0.00000000000E+00 -0.50000000000E+03  0.50000000000E+03  0.00000000000E+00 0. -1.
        -11    1    1    2    0    0  0.19440606714E+01  0.42748461893E+01  0.29943006020E+03  0.29946688404E+03  0.00000000000E+00 0. -1.
         11    1    1    2    0    0  0.17575617889E+01  0.81972198319E+01 -0.49868449392E+03  0.49875495779E+03  0.00000000000E+00 0. -1.
        -15    1    1    2    0    0 -0.70712584624E+01  0.24593648791E+01  0.14936499021E+03  0.14956306095E+03  0.17770000000E+01 0. -1.
         15    1    1    2    0    0  0.33696360021E+01 -0.14931430900E+02  0.49889443511E+02  0.52215097226E+02  0.17770000000E+01 0.  1.
</event>
<event>
 6    1  0.3836009E-003  0.5004992E+03  0.7546771E-02  0.9398693E-01
        -11   -1    0    0    0    0  0.00000000000E+00  0.00000000000E+00  0.50000000000E+03  0.50000000000E+03  0.00000000000E+00 0. -1.
         11   -1    0    0    0    0 -0.00000000000E+00 -0.00000000000E+00 -0.50000000000E+03  0.50000000000E+03  0.00000000000E+00 0.  1.
        -11    1    1    2    0    0  0.13867485313E+02  0.67367186560E+01  0.49926279248E+03  0.49950077726E+03  0.00000000000E+00 0. -1.
         11    1    1    2    0    0 -0.38885712602E+01 -0.43173918690E+01 -0.23140607169E+03  0.23147900742E+03  0.00000000000E+00 0.  1.
        -15    1    1    2    0    0 -0.10059034006E+02 -0.91853385377E+01 -0.23622479043E+03  0.23662388711E+03  0.17770000000E+01 0.  1.
         15    1    1    2    0    0  0.80119953665E-01  0.67660117506E+01 -0.31631930365E+02  0.32396328216E+02  0.17770000000E+01 0. -1.
</event>
<event>
 6    1  0.3836009E-003  0.5008693E+03  0.7546771E-02  0.9397867E-01
        -11   -1    0    0    0    0  0.00000000000E+00  0.00000000000E+00  0.50000000000E+03  0.50000000000E+03  0.00000000000E+00 0.  1.
         11   -1    0    0    0    0 -0.00000000000E+00 -0.00000000000E+00 -0.50000000000E+03  0.50000000000E+03  0.00000000000E+00 0.  1.
        -11    1    1    2    0    0  0.65078278591E+01  0.43693674949E+01  0.49906911764E+03  0.49913067165E+03  0.00000000000E+00 0.  1.
         11    1    1    2    0    0  0.50870288217E+01 -0.18930826435E+01 -0.23541153974E+03  0.23547410615E+03  0.00000000000E+00 0.  1.
        -15    1    1    2    0    0 -0.16582291891E+02 -0.72614992032E+01 -0.10403326145E+03  0.10561145293E+03  0.17770000000E+01 0. -1.
         15    1    1    2    0    0  0.49874352105E+01  0.47852143518E+01 -0.15962431646E+03  0.15978376927E+03  0.17770000000E+01 0.  1.
</event>
<event>
 6    1  0.3836009E-003  0.5013325E+03  0.7546771E-02  0.9396833E-01
        -11   -1    0    0    0    0  0.00000000000E+00  0.00000000000E+00  0.50000000000E+03  0.50000000000E+03  0.00000000000E+00 0. -1.
         11   -1    0    0    0    0 -0.00000000000E+00 -0.00000000000E+00 -0.50000000000E+03  0.50000000000E+03  0.00000000000E+00 0. -1.
        -11    1    1    2    0    0  0.54251813091E+01  0.78246039583E+01  0.29473804596E+03  0.29489179839E+03  0.00000000000E+00 0. -1.
         11    1    1    2    0    0 -0.47606293639E+01  0.55696355490E+01 -0.49861369601E+03  0.49866752680E+03  0.00000000000E+00 0. -1.
        -15    1    1    2    0    0  0.35143788057E+01 -0.40838238859E+01  0.58674164015E+01  0.81616652804E+01  0.17770000000E+01 0.  1.
         15    1    1    2    0    0 -0.41789307510E+01 -0.93104156214E+01  0.19800823364E+03  0.19827900953E+03  0.17770000000E+01 0. -1.
</event>
<event>
 6    1  0.3836009E-003  0.5726916E+03  0.7546771E-02  0.9250404E-01
        -11   -1    0    0    0    0  0.00000000000E+00  0.00000000000E+00  0.50000000000E+03  0.50000000000E+03  0.00000000000E+00 0.  1.
         11   -1    0    0    0    0 -0.00000000000E+00 -0.00000000000E+00 -0.50000000000E+03  0.50000000000E+03  0.00000000000E+00 0.  1.
        -11    1    1    2    0    0 -0.19187521601E+02  0.45161434885E+02  0.24467224204E+03  0.24954402860E+03  0.00000000000E+00 0.  1.
         11    1    1    2    0    0 -0.24701663786E+02 -0.15051216834E+02 -0.42632818434E+03  0.42730835714E+03  0.00000000000E+00 0.  1.
        -15    1    1    2    0    0  0.98530066618E+02 -0.49117854184E+02  0.22522686427E+03  0.25070108844E+03  0.17770000000E+01 0. -1.
         15    1    1    2    0    0 -0.54640881231E+02  0.19007636134E+02 -0.43570921971E+02  0.72446525821E+02  0.17770000000E+01 0.  1.
</event>
<event>
 6    1  0.3836009E-003  0.5001866E+03  0.7546771E-02  0.9399392E-01
        -11   -1    0    0    0    0  0.00000000000E+00  0.00000000000E+00  0.50000000000E+03  0.50000000000E+03  0.00000000000E+00 0.  1.
         11   -1    0    0    0    0 -0.00000000000E+00 -0.00000000000E+00 -0.50000000000E+03  0.50000000000E+03  0.00000000000E+00 0. -1.
        -11    1    1    2    0    0 -0.11513867313E+01  0.23043555266E+01  0.16798379901E+03  0.16800354900E+03  0.00000000000E+00 0.  1.
         11    1    1    2    0    0 -0.99690297572E+01 -0.55073661110E+01 -0.49968362104E+03  0.49981339895E+03  0.00000000000E+00 0. -1.
        -15    1    1    2    0    0  0.99005302554E+00  0.34511489891E+01  0.21315430464E+03  0.21319194626E+03  0.17770000000E+01 0. -1.
         15    1    1    2    0    0  0.10130363463E+02 -0.24813840475E+00  0.11854551739E+03  0.11899110579E+03  0.17770000000E+01 0.  1.
</event>
<event>
 6    1  0.3836009E-003  0.5109884E+03  0.7546771E-02  0.9375553E-01
        -11   -1    0    0    0    0  0.00000000000E+00  0.00000000000E+00  0.50000000000E+03  0.50000000000E+03  0.00000000000E+00 0.  1.
         11   -1    0    0    0    0 -0.00000000000E+00 -0.00000000000E+00 -0.50000000000E+03  0.50000000000E+03  0.00000000000E+00 0.  1.
        -11    1    1    2    0    0  0.97758744919E+01 -0.42767628627E+01  0.40651884367E+03  0.40665886032E+03  0.00000000000E+00 0.  1.
         11    1    1    2    0    0  0.10811292725E+02 -0.29210611484E+01 -0.48888333514E+03  0.48901158680E+03  0.00000000000E+00 0.  1.
        -15    1    1    2    0    0 -0.91277155779E+01  0.87335054940E+01  0.89647039019E+02  0.90550199578E+02  0.17770000000E+01 0.  1.
         15    1    1    2    0    0 -0.11459451639E+02 -0.15356814829E+01 -0.72825475454E+01  0.13779353295E+02  0.17770000000E+01 0. -1.
</event>
<event>
 6    1  0.3836009E-003  0.4557732E+03  0.7546771E-02  0.9504600E-01
        -11   -1    0    0    0    0  0.00000000000E+00  0.00000000000E+00  0.50000000000E+03  0.50000000000E+03  0.00000000000E+00 0. -1.
         11   -1    0    0    0    0 -0.00000000000E+00 -0.00000000000E+00 -0.50000000000E+03  0.50000000000E+03  0.00000000000E+00 0. -1.
        -11    1    1    2    0    0 -0.20228771358E+01 -0.15632183740E+01  0.28737807956E+02  0.28851296153E+02  0.00000000000E+00 0. -1.
         11    1    1    2    0    0  0.47597958388E+02  0.10430734602E+01 -0.46864819959E+03  0.47106028131E+03  0.00000000000E+00 0. -1.
        -15    1    1    2    0    0 -0.56307840791E+02 -0.10097203334E+02 -0.26233399366E+01  0.57293682820E+02  0.17770000000E+01 0.  1.
         15    1    1    2    0    0  0.10732759539E+02  0.10617348248E+02  0.44253373157E+03  0.44279473972E+03  0.17770000000E+01 0. -1.
</event>
<event>
 6    1  0.3836009E-003  0.5043902E+03  0.7546771E-02  0.9390040E-01
        -11   -1    0    0    0    0  0.00000000000E+00  0.00000000000E+00  0.50000000000E+03  0.50000000000E+03  0.00000000000E+00 0.  1.
         11   -1    0    0    0    0 -0.00000000000E+00 -0.00000000000E+00 -0.50000000000E+03  0.50000000000E+03  0.00000000000E+00 0.  1.
        -11    1    1    2    0    0  0.24558046906E+01  0.98122737808E+01  0.43764807805E+03  0.43776495053E+03  0.00000000000E+00 0.  1.
         11    1    1    2    0    0 -0.98759215011E+01 -0.17455855524E+01 -0.49550832301E+03  0.49560980526E+03  0.00000000000E+00 0.  1.
        -15    1    1    2    0    0 -0.70842847186E+01 -0.45287526196E+01  0.47726169928E+02  0.48493728617E+02  0.17770000000E+01 0. -1.
         15    1    1    2    0    0  0.14504401529E+02 -0.35379356088E+01  0.10134075033E+02  0.18131515598E+02  0.17770000000E+01 0.  1.
</event>
<event>
 6    1  0.3836009E-003  0.5009422E+03  0.7546771E-02  0.9397704E-01
        -11   -1    0    0    0    0  0.00000000000E+00  0.00000000000E+00  0.50000000000E+03  0.50000000000E+03  0.00000000000E+00 0. -1.
         11   -1    0    0    0    0 -0.00000000000E+00 -0.00000000000E+00 -0.50000000000E+03  0.50000000000E+03  0.00000000000E+00 0.  1.
        -11    1    1    2    0    0 -0.52733522632E+01 -0.87330950551E+01  0.49895352775E+03  0.49905781032E+03  0.00000000000E+00 0. -1.
         11    1    1    2    0    0  0.10744517356E+01  0.73556912192E+01 -0.43862711412E+03  0.43869010233E+03  0.00000000000E+00 0.  1.
        -15    1    1    2    0    0 -0.54663959084E+00  0.47209116562E+01 -0.73631382315E+01  0.89419995148E+01  0.17770000000E+01 0. -1.
         15    1    1    2    0    0  0.47455401185E+01 -0.33435078203E+01 -0.52963275390E+02  0.53310087832E+02  0.17770000000E+01 0.  1.
</event>
<event>
 6    1  0.3836009E-003  0.5203958E+03  0.7546771E-02  0.9355295E-01
        -11   -1    0    0    0    0  0.00000000000E+00  0.00000000000E+00  0.50000000000E+03  0.50000000000E+03  0.00000000000E+00 0. -1.
         11   -1    0    0    0    0 -0.00000000000E+00 -0.00000000000E+00 -0.50000000000E+03  0.50000000000E+03  0.00000000000E+00 0.  1.
        -11    1    1    2    0    0 -0.17999480083E+01  0.26970964152E+02  0.47884185649E+03  0.47960420792E+03  0.00000000000E+00 0. -1.
         11    1    1    2    0    0 -0.22324650573E+01  0.12956443018E+02 -0.30112582182E+03  0.30141269695E+03  0.00000000000E+00 0.  1.
        -15    1    1    2    0    0  0.10344835153E+02 -0.52970106365E+01 -0.18297040500E+03  0.18334775912E+03  0.17770000000E+01 0. -1.
         15    1    1    2    0    0 -0.63124220872E+01 -0.34630396533E+02  0.52543703291E+01  0.35635336019E+02  0.17770000000E+01 0.  1.
</event>
<event>
 6    1  0.3836009E-003  0.5077764E+03  0.7546771E-02  0.9382576E-01
        -11   -1    0    0    0    0  0.00000000000E+00  0.00000000000E+00  0.50000000000E+03  0.50000000000E+03  0.00000000000E+00 0. -1.
         11   -1    0    0    0    0 -0.00000000000E+00 -0.00000000000E+00 -0.50000000000E+03  0.50000000000E+03  0.00000000000E+00 0.  1.
        -11    1    1    2    0    0  0.10076654167E+01 -0.10795398404E+02  0.49210413993E+03  0.49222356766E+03  0.00000000000E+00 0. -1.
         11    1    1    2    0    0  0.25694838776E+01 -0.10684537953E+02 -0.45661191442E+03  0.45674413186E+03  0.00000000000E+00 0.  1.
        -15    1    1    2    0    0 -0.47943242457E+01 -0.50343393793E+01 -0.66271357606E+00  0.72060416487E+01  0.17770000000E+01 0. -1.
         15    1    1    2    0    0  0.12171749514E+01  0.26514275736E+02 -0.34829511942E+02  0.43826258839E+02  0.17770000000E+01 0.  1.
</event>
<event>
 6    1  0.3836009E-003  0.5026581E+03  0.7546771E-02  0.9393882E-01
        -11   -1    0    0    0    0  0.00000000000E+00  0.00000000000E+00  0.50000000000E+03  0.50000000000E+03  0.00000000000E+00 0. -1.
         11   -1    0    0    0    0 -0.00000000000E+00 -0.00000000000E+00 -0.50000000000E+03  0.50000000000E+03  0.00000000000E+00 0.  1.
        -11    1    1    2    0    0  0.15903518592E+02  0.56586368122E+01  0.49705533673E+03  0.49734188426E+03  0.00000000000E+00 0. -1.
         11    1    1    2    0    0  0.12752492431E+02  0.15800670458E+01 -0.26924942854E+03  0.26955588928E+03  0.00000000000E+00 0.  1.
        -15    1    1    2    0    0 -0.33820974121E+02 -0.14894215521E+02 -0.20685149291E+03  0.21013422804E+03  0.17770000000E+01 0.  1.
         15    1    1    2    0    0  0.51649630977E+01  0.76555116629E+01 -0.20954415279E+02  0.22967998418E+02  0.17770000000E+01 0. -1.
</event>
<event>
 6    1  0.3836009E-003  0.5047166E+03  0.7546771E-02  0.9389317E-01
        -11   -1    0    0    0    0  0.00000000000E+00  0.00000000000E+00  0.50000000000E+03  0.50000000000E+03  0.00000000000E+00 0.  1.
         11   -1    0    0    0    0 -0.00000000000E+00 -0.00000000000E+00 -0.50000000000E+03  0.50000000000E+03  0.00000000000E+00 0. -1.
        -11    1    1    2    0    0 -0.69313191863E+01 -0.97549703263E-01  0.38779000459E+03  0.38785195676E+03  0.00000000000E+00 0.  1.
         11    1    1    2    0    0 -0.36086976907E+01  0.10237656093E+02 -0.49516439088E+03  0.49528335960E+03  0.00000000000E+00 0. -1.
        -15    1    1    2    0    0  0.13470130719E+02 -0.25957420739E+02  0.59372545314E+02  0.66207922329E+02  0.17770000000E+01 0. -1.
         15    1    1    2    0    0 -0.29301138418E+01  0.15817314349E+02  0.48001840978E+02  0.50656761312E+02  0.17770000000E+01 0.  1.
</event>
<event>
 6    1  0.3836009E-003  0.5439441E+03  0.7546771E-02  0.9306517E-01
        -11   -1    0    0    0    0  0.00000000000E+00  0.00000000000E+00  0.50000000000E+03  0.50000000000E+03  0.00000000000E+00 0. -1.
         11   -1    0    0    0    0 -0.00000000000E+00 -0.00000000000E+00 -0.50000000000E+03  0.50000000000E+03  0.00000000000E+00 0.  1.
        -11    1    1    2    0    0 -0.37163905502E+01 -0.49105083775E+01  0.42683731872E+03  0.42688174159E+03  0.00000000000E+00 0. -1.
         11    1    1    2    0    0 -0.68334596340E+01 -0.28339760531E+01 -0.45599585126E+03  0.45605585618E+03  0.00000000000E+00 0.  1.
        -15    1    1    2    0    0  0.90932187514E+01  0.30887891181E+01 -0.43315370569E+02  0.44402773584E+02  0.17770000000E+01 0.  1.
         15    1    1    2    0    0  0.14566314328E+01  0.46556953124E+01  0.72473903104E+02  0.72659628640E+02  0.17770000000E+01 0. -1.
</event>
<event>
 6    1  0.3836009E-003  0.4844604E+03  0.7546771E-02  0.9435268E-01
        -11   -1    0    0    0    0  0.00000000000E+00  0.00000000000E+00  0.50000000000E+03  0.50000000000E+03  0.00000000000E+00 0.  1.
         11   -1    0    0    0    0 -0.00000000000E+00 -0.00000000000E+00 -0.50000000000E+03  0.50000000000E+03  0.00000000000E+00 0.  1.
        -11    1    1    2    0    0 -0.62291825352E+01 -0.25783813875E+01  0.48202346977E+03  0.48207061327E+03  0.00000000000E+00 0.  1.
         11    1    1    2    0    0 -0.79119957734E+01 -0.34117528688E+01 -0.48690801567E+03  0.48698424559E+03  0.00000000000E+00 0.  1.
        -15    1    1    2    0    0  0.13943180687E+02  0.30737415106E+01 -0.87823139818E+01  0.16856658696E+02  0.17770000000E+01 0. -1.
         15    1    1    2    0    0  0.19799762190E+00  0.29163927456E+01  0.13666859878E+02  0.14088482446E+02  0.17770000000E+01 0.  1.
</event>
<event>
 6    1  0.3836009E-003  0.5022671E+03  0.7546771E-02  0.9394751E-01
        -11   -1    0    0    0    0  0.00000000000E+00  0.00000000000E+00  0.50000000000E+03  0.50000000000E+03  0.00000000000E+00 0. -1.
         11   -1    0    0    0    0 -0.00000000000E+00 -0.00000000000E+00 -0.50000000000E+03  0.50000000000E+03  0.00000000000E+00 0. -1.
        -11    1    1    2    0    0 -0.13520082469E+01 -0.65364607039E+01  0.43993197234E+03  0.43998260594E+03  0.00000000000E+00 0. -1.
         11    1    1    2    0    0  0.55215252232E+01 -0.95705868841E+01 -0.49761024065E+03  0.49773289521E+03  0.00000000000E+00 0. -1.
        -15    1    1    2    0    0 -0.15684573290E+01  0.18480879756E+02  0.39373007517E+02  0.43559091185E+02  0.17770000000E+01 0. -1.
         15    1    1    2    0    0 -0.26010596474E+01 -0.23738321681E+01  0.18305260793E+02  0.18725407663E+02  0.17770000000E+01 0. -1.
</event>
<event>
 6    1  0.3836009E-003  0.5006535E+03  0.7546771E-02  0.9398349E-01
        -11   -1    0    0    0    0  0.00000000000E+00  0.00000000000E+00  0.50000000000E+03  0.50000000000E+03  0.00000000000E+00 0. -1.
         11   -1    0    0    0    0 -0.00000000000E+00 -0.00000000000E+00 -0.50000000000E+03  0.50000000000E+03  0.00000000000E+00 0.  1.
        -11    1    1    2    0    0  0.60619575012E+01 -0.42348460568E+01  0.49929172134E+03  0.49934647716E+03  0.00000000000E+00 0. -1.
         11    1    1    2    0    0 -0.64703349564E+01  0.20155105527E+01 -0.43189926625E+03  0.43195243222E+03  0.00000000000E+00 0.  1.
        -15    1    1    2    0    0  0.47496529842E+01 -0.33377706326E+01 -0.30074537846E+02  0.30681190849E+02  0.17770000000E+01 0.  1.
         15    1    1    2    0    0 -0.43412755290E+01  0.55571061367E+01 -0.37317917246E+02  0.38019899768E+02  0.17770000000E+01 0. -1.
</event>
<event>
 6    1  0.3836009E-003  0.3738103E+03  0.7546771E-02  0.9737114E-01
        -11   -1    0    0    0    0  0.00000000000E+00  0.00000000000E+00  0.50000000000E+03  0.50000000000E+03  0.00000000000E+00 0.  1.
         11   -1    0    0    0    0 -0.00000000000E+00 -0.00000000000E+00 -0.50000000000E+03  0.50000000000E+03  0.00000000000E+00 0. -1.
        -11    1    1    2    0    0 -0.91396639313E+02 -0.15641416941E+02  0.49085246436E+02  0.10491597123E+03  0.00000000000E+00 0.  1.
         11    1    1    2    0    0 -0.25463881093E-01 -0.30240586869E+01 -0.13656767295E+03  0.13660115254E+03  0.00000000000E+00 0. -1.
        -15    1    1    2    0    0  0.92492620337E+02  0.13080505384E+02  0.41779618172E+03  0.42811539522E+03  0.17770000000E+01 0.  1.
         15    1    1    2    0    0 -0.10705171422E+01  0.55849702446E+01 -0.33031375520E+03  0.33036748101E+03  0.17770000000E+01 0. -1.
</event>
<event>
 6    1  0.3836009E-003  0.5026745E+03  0.7546771E-02  0.9393845E-01
        -11   -1    0    0    0    0  0.00000000000E+00  0.00000000000E+00  0.50000000000E+03  0.50000000000E+03  0.00000000000E+00 0.  1.
         11   -1    0    0    0    0 -0.00000000000E+00 -0.00000000000E+00 -0.50000000000E+03  0.50000000000E+03  0.00000000000E+00 0.  1.
        -11    1    1    2    0    0  0.16402422303E+01 -0.67487916875E+01  0.49727701277E+03  0.49732551113E+03  0.00000000000E+00 0.  1.
         11    1    1    2    0    0  0.62506006675E+01  0.61807330504E+00 -0.45923129575E+03  0.45927424816E+03  0.00000000000E+00 0.  1.
        -15    1    1    2    0    0 -0.88352757355E+01 -0.14400042424E+01 -0.73426203362E+01  0.11713561027E+02  0.17770000000E+01 0.  1.
         15    1    1    2    0    0  0.94443283765E+00  0.75707226249E+01 -0.30703096690E+02  0.31686679690E+02  0.17770000000E+01 0. -1.
</event>
<event>
 6    1  0.3836009E-003  0.5373296E+03  0.7546771E-02  0.9319950E-01
        -11   -1    0    0    0    0  0.00000000000E+00  0.00000000000E+00  0.50000000000E+03  0.50000000000E+03  0.00000000000E+00 0. -1.
         11   -1    0    0    0    0 -0.00000000000E+00 -0.00000000000E+00 -0.50000000000E+03  0.50000000000E+03  0.00000000000E+00 0.  1.
        -11    1    1    2    0    0  0.27039151740E+00  0.93702302903E+01  0.46257541583E+03  0.46267038987E+03  0.00000000000E+00 0. -1.
         11    1    1    2    0    0  0.63972065108E+01 -0.14848713120E+02 -0.41730565828E+03  0.41761875073E+03  0.00000000000E+00 0.  1.
        -15    1    1    2    0    0 -0.21047394346E+02 -0.34398392685E+02  0.17460107221E+02  0.43980169410E+02  0.17770000000E+01 0. -1.
         15    1    1    2    0    0  0.14379796318E+02  0.39876875515E+02 -0.62729864778E+02  0.75730689994E+02  0.17770000000E+01 0.  1.
</event>
<event>
 6    1  0.3836009E-003  0.5064675E+03  0.7546771E-02  0.9385453E-01
        -11   -1    0    0    0    0  0.00000000000E+00  0.00000000000E+00  0.50000000000E+03  0.50000000000E+03  0.00000000000E+00 0.  1.
         11   -1    0    0    0    0 -0.00000000000E+00 -0.00000000000E+00 -0.50000000000E+03  0.50000000000E+03  0.00000000000E+00 0.  1.
        -11    1    1    2    0    0  0.38074610887E+01  0.27627716673E+02  0.49274391007E+03  0.49353252011E+03  0.00000000000E+00 0.  1.
         11    1    1    2    0    0 -0.82274630559E+01  0.35355574854E+01 -0.40100426580E+03  0.40110424145E+03  0.00000000000E+00 0.  1.
        -15    1    1    2    0    0  0.11065651658E+02 -0.18974050964E+02 -0.13417238271E+02  0.25800063341E+02  0.17770000000E+01 0. -1.
         15    1    1    2    0    0 -0.66456496910E+01 -0.12189223195E+02 -0.78322406002E+02  0.79563175106E+02  0.17770000000E+01 0.  1.
</event>
<event>
 6    1  0.3836009E-003  0.5539890E+03  0.7546771E-02  0.9286501E-01
        -11   -1    0    0    0    0  0.00000000000E+00  0.00000000000E+00  0.50000000000E+03  0.50000000000E+03  0.00000000000E+00 0. -1.
         11   -1    0    0    0    0 -0.00000000000E+00 -0.00000000000E+00 -0.50000000000E+03  0.50000000000E+03  0.00000000000E+00 0. -1.
        -11    1    1    2    0    0  0.93057357902E+02  0.61744866850E+02  0.43180289308E+03  0.44601103004E+03  0.00000000000E+00 0. -1.
         11    1    1    2    0    0  0.18366288957E+02 -0.13414933604E+02 -0.19683475180E+03  0.19814439314E+03  0.00000000000E+00 0. -1.
        -15    1    1    2    0    0 -0.19187676950E+02  0.48151830283E+01 -0.24781183030E+03  0.24860654436E+03  0.17770000000E+01 0. -1.
         15    1    1    2    0    0 -0.92235969909E+02 -0.53145116274E+02  0.12843689021E+02  0.10723803246E+03  0.17770000000E+01 0. -1.
</event>
<event>
 6    1  0.3836009E-003  0.5024983E+03  0.7546771E-02  0.9394237E-01
        -11   -1    0    0    0    0  0.00000000000E+00  0.00000000000E+00  0.50000000000E+03  0.50000000000E+03  0.00000000000E+00 0. -1.
         11   -1    0    0    0    0 -0.00000000000E+00 -0.00000000000E+00 -0.50000000000E+03  0.50000000000E+03  0.00000000000E+00 0. -1.
        -11    1    1    2    0    0 -0.65614047283E+01  0.83679652663E+01  0.49738808321E+03  0.49750173889E+03  0.00000000000E+00 0. -1.
         11    1    1    2    0    0 -0.56894581345E+01  0.33050899582E+01 -0.34945747421E+03  0.34951941267E+03  0.00000000000E+00 0. -1.
        -15    1    1    2    0    0  0.11590310367E+02 -0.13762736059E+02 -0.30089047827E+02  0.35103514445E+02  0.17770000000E+01 0.  1.
         15    1    1    2    0    0  0.66055249591E+00  0.20896808346E+01 -0.11784156117E+03  0.11787533399E+03  0.17770000000E+01 0. -1.
</event>
<event>
 6    1  0.3836009E-003  0.5028763E+03  0.7546771E-02  0.9393397E-01
        -11   -1    0    0    0    0  0.00000000000E+00  0.00000000000E+00  0.50000000000E+03  0.50000000000E+03  0.00000000000E+00 0.  1.
         11   -1    0    0    0    0 -0.00000000000E+00 -0.00000000000E+00 -0.50000000000E+03  0.50000000000E+03  0.00000000000E+00 0. -1.
        -11    1    1    2    0    0  0.82489248674E+01 -0.67711180715E+01  0.31820001034E+03  0.31837892421E+03  0.00000000000E+00 0.  1.
         11    1    1    2    0    0 -0.14296287051E+02  0.69171379311E+01 -0.49686998827E+03  0.49712374301E+03  0.00000000000E+00 0. -1.
        -15    1    1    2    0    0  0.82422538647E+01  0.10046159180E+01  0.33143440580E+01  0.91151855411E+01  0.17770000000E+01 0. -1.
         15    1    1    2    0    0 -0.21948916808E+01 -0.11506357775E+01  0.17535563387E+03  0.17538214724E+03  0.17770000000E+01 0.  1.
</event>
<event>
 6    1  0.3836009E-003  0.5046011E+03  0.7546771E-02  0.9389573E-01
        -11   -1    0    0    0    0  0.00000000000E+00  0.00000000000E+00  0.50000000000E+03  0.50000000000E+03  0.00000000000E+00 0.  1.
         11   -1    0    0    0    0 -0.00000000000E+00 -0.00000000000E+00 -0.50000000000E+03  0.50000000000E+03  0.00000000000E+00 0. -1.
        -11    1    1    2    0    0  0.22703934190E+01  0.69547911878E+01  0.49534489241E+03  0.49539891627E+03  0.00000000000E+00 0.  1.
         11    1    1    2    0    0  0.34548055333E+01  0.32882936670E+01 -0.12722937161E+03  0.12731874001E+03  0.00000000000E+00 0. -1.
        -15    1    1    2    0    0  0.34422908653E+02  0.66167987769E+01 -0.10853684888E+03  0.11407069720E+03  0.17770000000E+01 0.  1.
         15    1    1    2    0    0 -0.40148107606E+02 -0.16859883632E+02 -0.25957867192E+03  0.26321164653E+03  0.17770000000E+01 0. -1.
</event>
<event>
 6    1  0.3836009E-003  0.5007617E+03  0.7546771E-02  0.9398107E-01
        -11   -1    0    0    0    0  0.00000000000E+00  0.00000000000E+00  0.50000000000E+03  0.50000000000E+03  0.00000000000E+00 0. -1.
         11   -1    0    0    0    0 -0.00000000000E+00 -0.00000000000E+00 -0.50000000000E+03  0.50000000000E+03  0.00000000000E+00 0. -1.
        -11    1    1    2    0    0  0.84581923942E+01 -0.46165131144E+00  0.49916645413E+03  0.49923832292E+03  0.00000000000E+00 0. -1.
         11    1    1    2    0    0  0.20692051377E+01  0.66250593765E+01 -0.84249597039E+02  0.84535008268E+02  0.00000000000E+00 0. -1.
        -15    1    1    2    0    0  0.50494473625E+01 -0.14014482327E+02 -0.22624104119E+03  0.22673788630E+03  0.17770000000E+01 0.  1.
         15    1    1    2    0    0 -0.15576844894E+02  0.78510742621E+01 -0.18867581590E+03  0.18948878251E+03  0.17770000000E+01 0. -1.
</event>
<event>
 6    1  0.3836009E-003  0.4601004E+03  0.7546771E-02  0.9493799E-01
        -11   -1    0    0    0    0  0.00000000000E+00  0.00000000000E+00  0.50000000000E+03  0.50000000000E+03  0.00000000000E+00 0. -1.
         11   -1    0    0    0    0 -0.00000000000E+00 -0.00000000000E+00 -0.50000000000E+03  0.50000000000E+03  0.00000000000E+00 0. -1.
        -11    1    1    2    0    0 -0.96811264504E+01  0.23152210041E+01  0.46404553948E+03  0.46415228877E+03  0.00000000000E+00 0. -1.
         11    1    1    2    0    0 -0.10918811471E+02  0.63990822788E+01 -0.45617848300E+03  0.45635400409E+03  0.00000000000E+00 0. -1.
        -15    1    1    2    0    0  0.18198820156E+02 -0.42955384649E+01 -0.41440836735E+02  0.45498894317E+02  0.17770000000E+01 0.  1.
         15    1    1    2    0    0  0.24011177654E+01 -0.44187648181E+01  0.33573780256E+02  0.33994812821E+02  0.17770000000E+01 0. -1.
</event>
<event>
 6    1  0.3836009E-003  0.5045217E+03  0.7546771E-02  0.9389749E-01
        -11   -1    0    0    0    0  0.00000000000E+00  0.00000000000E+00  0.50000000000E+03  0.50000000000E+03  0.00000000000E+00 0. -1.
         11   -1    0    0    0    0 -0.00000000000E+00 -0.00000000000E+00 -0.50000000000E+03  0.50000000000E+03  0.00000000000E+00 0.  1.
        -11    1    1    2    0    0 -0.13155915513E+02  0.18566984952E+02  0.49495552750E+03  0.49547833984E+03  0.00000000000E+00 0. -1.
         11    1    1    2    0    0 -0.13144093439E+02 -0.43866008329E+01 -0.42134101539E+03  0.42156880898E+03  0.00000000000E+00 0.  1.
        -15    1    1    2    0    0  0.10185531917E+02 -0.13677265115E+02 -0.17331710733E+02  0.24379470203E+02  0.17770000000E+01 0.  1.
         15    1    1    2    0    0  0.16114477036E+02 -0.50311900402E+00 -0.56282801382E+02  0.58573380979E+02  0.17770000000E+01 0. -1.
</event>
<event>
 6    1  0.3836009E-003  0.5004021E+03  0.7546771E-02  0.9398910E-01
        -11   -1    0    0    0    0  0.00000000000E+00  0.00000000000E+00  0.50000000000E+03  0.50000000000E+03  0.00000000000E+00 0.  1.
         11   -1    0    0    0    0 -0.00000000000E+00 -0.00000000000E+00 -0.50000000000E+03  0.50000000000E+03  0.00000000000E+00 0.  1.
        -11    1    1    2    0    0  0.19325892571E+01 -0.28687717429E+02  0.49504797517E+03  0.49588226199E+03  0.00000000000E+00 0.  1.
         11    1    1    2    0    0 -0.93703588780E+00 -0.18627338271E+01 -0.65916007975E+01  0.69135385035E+01  0.00000000000E+00 0.  1.
        -15    1    1    2    0    0 -0.10607418400E+02  0.85813791453E+01 -0.45888185502E+03  0.45908808740E+03  0.17770000000E+01 0.  1.
         15    1    1    2    0    0  0.96118650305E+01  0.21969072111E+02 -0.29574519350E+02  0.38116112112E+02  0.17770000000E+01 0. -1.
</event>
<event>
 6    1  0.3836009E-003  0.5039880E+03  0.7546771E-02  0.9390930E-01
        -11   -1    0    0    0    0  0.00000000000E+00  0.00000000000E+00  0.50000000000E+03  0.50000000000E+03  0.00000000000E+00 0.  1.
         11   -1    0    0    0    0 -0.00000000000E+00 -0.00000000000E+00 -0.50000000000E+03  0.50000000000E+03  0.00000000000E+00 0.  1.
        -11    1    1    2    0    0  0.68122383255E+01 -0.62522794755E+01  0.43392327337E+03  0.43402177913E+03  0.00000000000E+00 0.  1.
         11    1    1    2    0    0  0.20758277606E+00 -0.73432847716E+01 -0.49595761818E+03  0.49601202198E+03  0.00000000000E+00 0.  1.
        -15    1    1    2    0    0 -0.32362841113E+01  0.17902992915E+00  0.53283662682E+02  0.53411721788E+02  0.17770000000E+01 0.  1.
         15    1    1    2    0    0 -0.37835369903E+01  0.13416534318E+02  0.87506821264E+01  0.16554477096E+02  0.17770000000E+01 0. -1.
</event>
<event>
 6    1  0.3836009E-003  0.5028249E+03  0.7546771E-02  0.9393511E-01
        -11   -1    0    0    0    0  0.00000000000E+00  0.00000000000E+00  0.50000000000E+03  0.50000000000E+03  0.00000000000E+00 0.  1.
         11   -1    0    0    0    0 -0.00000000000E+00 -0.00000000000E+00 -0.50000000000E+03  0.50000000000E+03  0.00000000000E+00 0.  1.
        -11    1    1    2    0    0 -0.12523262534E+02 -0.57695831021E+01  0.42361046733E+03  0.42383481243E+03  0.00000000000E+00 0.  1.
         11    1    1    2    0    0 -0.33048437467E+00  0.80067016264E+01 -0.49711053211E+03  0.49717511767E+03  0.00000000000E+00 0.  1.
        -15    1    1    2    0    0  0.14397379206E+01 -0.77864217380E+01  0.55251024935E+01  0.98176216736E+01  0.17770000000E+01 0.  1.
         15    1    1    2    0    0  0.11414008988E+02  0.55493032137E+01  0.67974962286E+02  0.69172448229E+02  0.17770000000E+01 0. -1.
</event>
<event>
 6    1  0.3836009E-003  0.5080540E+03  0.7546771E-02  0.9381966E-01
        -11   -1    0    0    0    0  0.00000000000E+00  0.00000000000E+00  0.50000000000E+03  0.50000000000E+03  0.00000000000E+00 0. -1.
         11   -1    0    0    0    0 -0.00000000000E+00 -0.00000000000E+00 -0.50000000000E+03  0.50000000000E+03  0.00000000000E+00 0. -1.
        -11    1    1    2    0    0 -0.18149413473E+01  0.59785931358E+01  0.39918668148E+03  0.39923557489E+03  0.00000000000E+00 0. -1.
         11    1    1    2    0    0  0.25194725753E+02 -0.84430299290E+01 -0.49122784463E+03  0.49194598718E+03  0.00000000000E+00 0. -1.
        -15    1    1    2    0    0 -0.19121520733E+02 -0.15589741319E+02  0.85600006576E+02  0.89102140515E+02  0.17770000000E+01 0. -1.
         15    1    1    2    0    0 -0.42582636728E+01  0.18054178112E+02  0.64411565707E+01  0.19716297415E+02  0.17770000000E+01 0.  1.
</event>
<event>
 6    1  0.3836009E-003  0.5024139E+03  0.7546771E-02  0.9394425E-01
        -11   -1    0    0    0    0  0.00000000000E+00  0.00000000000E+00  0.50000000000E+03  0.50000000000E+03  0.00000000000E+00 0. -1.
         11   -1    0    0    0    0 -0.00000000000E+00 -0.00000000000E+00 -0.50000000000E+03  0.50000000000E+03  0.00000000000E+00 0. -1.
        -11    1    1    2    0    0  0.22368527791E+01  0.28769764621E+02  0.49674869079E+03  0.49758613794E+03  0.00000000000E+00 0. -1.
         11    1    1    2    0    0  0.26672121568E+01  0.23218916837E+01 -0.18489149425E+03  0.18492530883E+03  0.00000000000E+00 0. -1.
        -15    1    1    2    0    0 -0.55952673777E+01  0.61914372078E+01 -0.18639096435E+03  0.18658614695E+03  0.17770000000E+01 0.  1.
         15    1    1    2    0    0  0.69120244176E+00 -0.37283093513E+02 -0.12546623219E+03  0.13090240628E+03  0.17770000000E+01 0. -1.
</event>
<event>
 6    1  0.3836009E-003  0.5054340E+03  0.7546771E-02  0.9387732E-01
        -11   -1    0    0    0    0  0.00000000000E+00  0.00000000000E+00  0.50000000000E+03  0.50000000000E+03  0.00000000000E+00 0.  1.
         11   -1    0    0    0    0 -0.00000000000E+00 -0.00000000000E+00 -0.50000000000E+03  0.50000000000E+03  0.00000000000E+00 0.  1.
        -11    1    1    2    0    0  0.19890115350E+02  0.21556542501E+02  0.49369550906E+03  0.49456602884E+03  0.00000000000E+00 0.  1.
         11    1    1    2    0    0 -0.46835173172E+01 -0.61366784784E+01 -0.37225689100E+03  0.37233692679E+03  0.00000000000E+00 0.  1.
        -15    1    1    2    0    0  0.27175220899E+01  0.42292720576E+01 -0.96331381673E+02  0.96478829245E+02  0.17770000000E+01 0.  1.
         15    1    1    2    0    0 -0.17924120123E+02 -0.19649136080E+02 -0.25107236392E+02  0.36618215127E+02  0.17770000000E+01 0. -1.
</event>
<event>
 6    1  0.3836009E-003  0.5151682E+03  0.7546771E-02  0.9366495E-01
        -11   -1    0    0    0    0  0.00000000000E+00  0.00000000000E+00  0.50000000000E+03  0.50000000000E+03  0.00000000000E+00 0.  1.
         11   -1    0    0    0    0 -0.00000000000E+00 -0.00000000000E+00 -0.50000000000E+03  0.50000000000E+03  0.00000000000E+00 0. -1.
        -11    1    1    2    0    0  0.24059924128E+01  0.67655643971E+01  0.46312840395E+03  0.46318406731E+03  0.00000000000E+00 0.  1.
         11    1    1    2    0    0 -0.12426192884E+02 -0.22491473579E+01 -0.48466735088E+03  0.48483183676E+03  0.00000000000E+00 0. -1.
        -15    1    1    2    0    0  0.17342653320E+02 -0.10270918597E+02 -0.73898379134E+01  0.21541281912E+02  0.17770000000E+01 0. -1.
         15    1    1    2    0    0 -0.73224528486E+01  0.57545015582E+01  0.28928784840E+02  0.30442814016E+02  0.17770000000E+01 0.  1.
</event>
<event>
 6    1  0.3836009E-003  0.5099871E+03  0.7546771E-02  0.9377736E-01
        -11   -1    0    0    0    0  0.00000000000E+00  0.00000000000E+00  0.50000000000E+03  0.50000000000E+03  0.00000000000E+00 0.  1.
         11   -1    0    0    0    0 -0.00000000000E+00 -0.00000000000E+00 -0.50000000000E+03  0.50000000000E+03  0.00000000000E+00 0.  1.
        -11    1    1    2    0    0  0.58148472983E+01  0.18419460027E+01  0.12522205905E+03  0.12537052798E+03  0.00000000000E+00 0.  1.
         11    1    1    2    0    0 -0.17633483385E+02 -0.13344376396E+02 -0.48951368555E+03  0.49001291867E+03  0.00000000000E+00 0.  1.
        -15    1    1    2    0    0 -0.34070414427E+01  0.44984761062E+01  0.36742652342E+03  0.36747415155E+03  0.17770000000E+01 0.  1.
         15    1    1    2    0    0  0.15225677530E+02  0.70039542876E+01 -0.31348969105E+01  0.17142401802E+02  0.17770000000E+01 0. -1.
</event>
<event>
 6    1  0.3836009E-003  0.5097994E+03  0.7546771E-02  0.9378146E-01
        -11   -1    0    0    0    0  0.00000000000E+00  0.00000000000E+00  0.50000000000E+03  0.50000000000E+03  0.00000000000E+00 0.  1.
         11   -1    0    0    0    0 -0.00000000000E+00 -0.00000000000E+00 -0.50000000000E+03  0.50000000000E+03  0.00000000000E+00 0.  1.
        -11    1    1    2    0    0 -0.29136754823E+01  0.60553685057E+01  0.46456085235E+03  0.46460945161E+03  0.00000000000E+00 0.  1.
         11    1    1    2    0    0  0.66571574814E+01 -0.44426389057E+01 -0.49013526297E+03  0.49020060260E+03  0.00000000000E+00 0.  1.
        -15    1    1    2    0    0  0.12286851792E+01 -0.28305604992E+01  0.34535111934E+02  0.34718200203E+02  0.17770000000E+01 0.  1.
         15    1    1    2    0    0 -0.49721671782E+01  0.12178308992E+01 -0.89607013106E+01  0.10471745582E+02  0.17770000000E+01 0.  1.
</event>
<event>
 6    1  0.3836009E-003  0.5031914E+03  0.7546771E-02  0.9392697E-01
        -11   -1    0    0    0    0  0.00000000000E+00  0.00000000000E+00  0.50000000000E+03  0.50000000000E+03  0.00000000000E+00 0. -1.
         11   -1    0    0    0    0 -0.00000000000E+00 -0.00000000000E+00 -0.50000000000E+03  0.50000000000E+03  0.00000000000E+00 0.  1.
        -11    1    1    2    0    0  0.44713536148E+01  0.58781455037E+01  0.44890171240E+03  0.44896246279E+03  0.00000000000E+00 0. -1.
         11    1    1    2    0    0 -0.56021687989E+01 -0.44771804911E+01 -0.49675683290E+03  0.49680859541E+03  0.00000000000E+00 0.  1.
        -15    1    1    2    0    0  0.12268242993E+02  0.24108456234E+01  0.17159966653E+02  0.21305965063E+02  0.17770000000E+01 0. -1.
         15    1    1    2    0    0 -0.11137427809E+02 -0.38118106361E+01  0.30695153844E+02  0.32922976734E+02  0.17770000000E+01 0.  1.
</event>
<event>
 6    1  0.3836009E-003  0.5009380E+03  0.7546771E-02  0.9397713E-01
        -11   -1    0    0    0    0  0.00000000000E+00  0.00000000000E+00  0.50000000000E+03  0.50000000000E+03  0.00000000000E+00 0.  1.
         11   -1    0    0    0    0 -0.00000000000E+00 -0.00000000000E+00 -0.50000000000E+03  0.50000000000E+03  0.00000000000E+00 0. -1.
        -11    1    1    2    0    0  0.37470241437E+01 -0.87894661317E+01  0.49897053369E+03  0.49906200856E+03  0.00000000000E+00 0.  1.
         11    1    1    2    0    0 -0.14590142189E+01  0.79722199471E+01 -0.46484389614E+03  0.46491454354E+03  0.00000000000E+00 0. -1.
        -15    1    1    2    0    0 -0.11014525098E+01 -0.47525248322E+01 -0.20517071793E+02  0.21163828904E+02  0.17770000000E+01 0. -1.
         15    1    1    2    0    0 -0.11865574150E+01  0.55697710168E+01 -0.13609565751E+02  0.14859618993E+02  0.17770000000E+01 0. -1.
</event>
<event>
 6    1  0.3836009E-003  0.5027675E+03  0.7546771E-02  0.9393638E-01
        -11   -1    0    0    0    0  0.00000000000E+00  0.00000000000E+00  0.50000000000E+03  0.50000000000E+03  0.00000000000E+00 0.  1.
         11   -1    0    0    0    0 -0.00000000000E+00 -0.00000000000E+00 -0.50000000000E+03  0.50000000000E+03  0.00000000000E+00 0. -1.
        -11    1    1    2    0    0 -0.15340357651E+02  0.20068618762E+02  0.49659042314E+03  0.49723246513E+03  0.00000000000E+00 0.  1.
         11    1    1    2    0    0  0.47788631253E+01  0.18974072720E+01 -0.32263520331E+03  0.32267617220E+03  0.00000000000E+00 0. -1.
        -15    1    1    2    0    0 -0.97244125253E+01  0.47603182322E+01 -0.69620047627E+02  0.70479313200E+02  0.17770000000E+01 0.  1.
         15    1    1    2    0    0  0.20285907051E+02 -0.26726344267E+02 -0.10433517220E+03  0.10961204947E+03  0.17770000000E+01 0. -1.
</event>
<event>
 6    1  0.3836009E-003  0.4475461E+03  0.7546771E-02  0.9525492E-01
        -11   -1    0    0    0    0  0.00000000000E+00  0.00000000000E+00  0.50000000000E+03  0.50000000000E+03  0.00000000000E+00 0.  1.
         11   -1    0    0    0    0 -0.00000000000E+00 -0.00000000000E+00 -0.50000000000E+03  0.50000000000E+03  0.00000000000E+00 0.  1.
        -11    1    1    2    0    0 -0.39923042094E+02  0.53785383285E+00  0.44883224200E+03  0.45060461608E+03  0.00000000000E+00 0.  1.
         11    1    1    2    0    0 -0.14110989639E+02  0.15495661435E+01 -0.44589837601E+03  0.44612429088E+03  0.00000000000E+00 0.  1.
        -15    1    1    2    0    0  0.34521648417E+02  0.80486692216E+01  0.40928399171E+02  0.54173950136E+02  0.17770000000E+01 0.  1.
         15    1    1    2    0    0  0.19512383316E+02 -0.10136089198E+02 -0.43862265162E+02  0.49097142901E+02  0.17770000000E+01 0. -1.
</event>
<event>
 6    1  0.3836009E-003  0.4838299E+03  0.7546771E-02  0.9436737E-01
        -11   -1    0    0    0    0  0.00000000000E+00  0.00000000000E+00  0.50000000000E+03  0.50000000000E+03  0.00000000000E+00 0.  1.
         11   -1    0    0    0    0 -0.00000000000E+00 -0.00000000000E+00 -0.50000000000E+03  0.50000000000E+03  0.00000000000E+00 0.  1.
        -11    1    1    2    0    0 -0.77290592718E+01  0.99066054837E+01  0.47788700223E+03  0.47805215833E+03  0.00000000000E+00 0.  1.
         11    1    1    2    0    0 -0.12519506791E+02  0.11939774040E+01 -0.48979491962E+03  0.48995635206E+03  0.00000000000E+00 0.  1.
        -15    1    1    2    0    0 -0.19316407539E+01 -0.42802094438E+01  0.62932111044E+01  0.80506933794E+01  0.17770000000E+01 0.  1.
         15    1    1    2    0    0  0.22180206817E+02 -0.68203734439E+01  0.56147062914E+01  0.23940796229E+02  0.17770000000E+01 0. -1.
</event>
<event>
 6    1  0.3836009E-003  0.5054809E+03  0.7546771E-02  0.9387629E-01
        -11   -1    0    0    0    0  0.00000000000E+00  0.00000000000E+00  0.50000000000E+03  0.50000000000E+03  0.00000000000E+00 0. -1.
         11   -1    0    0    0    0 -0.00000000000E+00 -0.00000000000E+00 -0.50000000000E+03  0.50000000000E+03  0.00000000000E+00 0. -1.
        -11    1    1    2    0    0 -0.41824910160E+01 -0.52665251258E+01  0.47297615505E+03  0.47302396637E+03  0.00000000000E+00 0. -1.
         11    1    1    2    0    0  0.66600343391E+01 -0.35539593592E+01 -0.49446146950E+03  0.49451909114E+03  0.00000000000E+00 0. -1.
        -15    1    1    2    0    0 -0.58648743653E+01  0.78176863043E+01 -0.66582445808E+00  0.99556025273E+01  0.17770000000E+01 0.  1.
         15    1    1    2    0    0  0.33873310422E+01  0.10027981808E+01  0.22151138913E+02  0.22501339959E+02  0.17770000000E+01 0. -1.
</event>
<event>
 6    1  0.3836009E-003  0.5159138E+03  0.7546771E-02  0.9364889E-01
        -11   -1    0    0    0    0  0.00000000000E+00  0.00000000000E+00  0.50000000000E+03  0.50000000000E+03  0.00000000000E+00 0.  1.
         11   -1    0    0    0    0 -0.00000000000E+00 -0.00000000000E+00 -0.50000000000E+03  0.50000000000E+03  0.00000000000E+00 0.  1.
        -11    1    1    2    0    0  0.10907924733E+02  0.12910935081E+02  0.44144505485E+03  0.44176850444E+03  0.00000000000E+00 0.  1.
         11    1    1    2    0    0  0.75241639803E+01 -0.20469841653E+00 -0.48402764131E+03  0.48408616227E+03  0.00000000000E+00 0.  1.
        -15    1    1    2    0    0 -0.48270658162E+01 -0.17218568185E+01 -0.13937345968E+02  0.14955691122E+02  0.17770000000E+01 0. -1.
         15    1    1    2    0    0 -0.13605022897E+02 -0.10984379846E+02  0.56519932436E+02  0.59189642170E+02  0.17770000000E+01 0.  1.
</event>
<event>
 6    1  0.3836009E-003  0.5609030E+03  0.7546771E-02  0.9272983E-01
        -11   -1    0    0    0    0  0.00000000000E+00  0.00000000000E+00  0.50000000000E+03  0.50000000000E+03  0.00000000000E+00 0. -1.
         11   -1    0    0    0    0 -0.00000000000E+00 -0.00000000000E+00 -0.50000000000E+03  0.50000000000E+03  0.00000000000E+00 0. -1.
        -11    1    1    2    0    0 -0.86430996400E+01 -0.15520971018E+01  0.43900921727E+03  0.43909703373E+03  0.00000000000E+00 0. -1.
         11    1    1    2    0    0 -0.50348147197E+01  0.52303912580E+01 -0.37932310655E+03  0.37939257441E+03  0.00000000000E+00 0. -1.
        -15    1    1    2    0    0  0.49444735874E+02  0.98865506006E+01 -0.10838819947E+03  0.11955620143E+03  0.17770000000E+01 0. -1.
         15    1    1    2    0    0 -0.35766821514E+02 -0.13564844757E+02  0.48702088748E+02  0.61954190431E+02  0.17770000000E+01 0.  1.
</event>
<event>
 6    1  0.3836009E-003  0.5002112E+03  0.7546771E-02  0.9399337E-01
        -11   -1    0    0    0    0  0.00000000000E+00  0.00000000000E+00  0.50000000000E+03  0.50000000000E+03  0.00000000000E+00 0. -1.
         11   -1    0    0    0    0 -0.00000000000E+00 -0.00000000000E+00 -0.50000000000E+03  0.50000000000E+03  0.00000000000E+00 0. -1.
        -11    1    1    2    0    0  0.34669585127E+01 -0.23352284187E+01  0.29796818959E+03  0.29799750855E+03  0.00000000000E+00 0. -1.
         11    1    1    2    0    0  0.20431694189E+01  0.82279727638E+01 -0.49971690642E+03  0.49978881604E+03  0.00000000000E+00 0. -1.
        -15    1    1    2    0    0 -0.56444558753E+01  0.10933805073E+01  0.11875849767E+03  0.11891086519E+03  0.17770000000E+01 0.  1.
         15    1    1    2    0    0  0.13432794369E+00 -0.69861248524E+01  0.82990219160E+02  0.83302810215E+02  0.17770000000E+01 0. -1.
</event>
<event>
 6    1  0.3836009E-003  0.5505186E+03  0.7546771E-02  0.9293365E-01
        -11   -1    0    0    0    0  0.00000000000E+00  0.00000000000E+00  0.50000000000E+03  0.50000000000E+03  0.00000000000E+00 0.  1.
         11   -1    0    0    0    0 -0.00000000000E+00 -0.00000000000E+00 -0.50000000000E+03  0.50000000000E+03  0.00000000000E+00 0. -1.
        -11    1    1    2    0    0 -0.32262981778E+01 -0.18569648470E+02  0.33429143033E+03  0.33482234280E+03  0.00000000000E+00 0.  1.
         11    1    1    2    0    0  0.73880160917E+01  0.24032419880E+02 -0.44877765895E+03  0.44948139801E+03  0.00000000000E+00 0. -1.
        -15    1    1    2    0    0  0.95352098532E+01  0.56795142209E+02 -0.24629119181E+02  0.62660670648E+02  0.17770000000E+01 0. -1.
         15    1    1    2    0    0 -0.13696927767E+02 -0.62257913619E+02  0.13911534780E+03  0.15303558854E+03  0.17770000000E+01 0.  1.
</event>
<event>
 6    1  0.3836009E-003  0.5080232E+03  0.7546771E-02  0.9382034E-01
        -11   -1    0    0    0    0  0.00000000000E+00  0.00000000000E+00  0.50000000000E+03  0.50000000000E+03  0.00000000000E+00 0. -1.
         11   -1    0    0    0    0 -0.00000000000E+00 -0.00000000000E+00 -0.50000000000E+03  0.50000000000E+03  0.00000000000E+00 0. -1.
        -11    1    1    2    0    0  0.15827013116E+01  0.17069220196E+02  0.49167810112E+03  0.49197684736E+03  0.00000000000E+00 0. -1.
         11    1    1    2    0    0 -0.71047692809E-01  0.88714289050E+00 -0.36184909156E+02  0.36195852261E+02  0.00000000000E+00 0. -1.
        -15    1    1    2    0    0 -0.41525470839E+01 -0.44174707643E+01  0.68247870118E+01  0.93001689228E+01  0.17770000000E+01 0.  1.
         15    1    1    2    0    0  0.26408934651E+01 -0.13538892323E+02 -0.46231797897E+03  0.46252713146E+03  0.17770000000E+01 0. -1.
</event>
<event>
 6    1  0.3836009E-003  0.5144400E+03  0.7546771E-02  0.9368066E-01
        -11   -1    0    0    0    0  0.00000000000E+00  0.00000000000E+00  0.50000000000E+03  0.50000000000E+03  0.00000000000E+00 0. -1.
         11   -1    0    0    0    0 -0.00000000000E+00 -0.00000000000E+00 -0.50000000000E+03  0.50000000000E+03  0.00000000000E+00 0.  1.
        -11    1    1    2    0    0 -0.75176156016E+01 -0.78883044256E+01  0.48543773734E+03  0.48556002381E+03  0.00000000000E+00 0. -1.
         11    1    1    2    0    0  0.17939738875E+02 -0.31065652373E+01 -0.47503290830E+03  0.47538168765E+03  0.00000000000E+00 0.  1.
        -15    1    1    2    0    0 -0.12825593258E+02  0.19706091597E+02  0.19372139967E+01  0.23658749238E+02  0.17770000000E+01 0.  1.
         15    1    1    2    0    0  0.24034699841E+01 -0.87112219341E+01 -0.12342043032E+02  0.15399539304E+02  0.17770000000E+01 0. -1.
</event>
<event>
 6    1  0.3836009E-003  0.5042497E+03  0.7546771E-02  0.9390351E-01
        -11   -1    0    0    0    0  0.00000000000E+00  0.00000000000E+00  0.50000000000E+03  0.50000000000E+03  0.00000000000E+00 0.  1.
         11   -1    0    0    0    0 -0.00000000000E+00 -0.00000000000E+00 -0.50000000000E+03  0.50000000000E+03  0.00000000000E+00 0. -1.
        -11    1    1    2    0    0 -0.15199097537E+02 -0.26745531312E+02  0.49479496878E+03  0.49575033751E+03  0.00000000000E+00 0.  1.
         11    1    1    2    0    0 -0.10867412544E+01  0.26863351115E+02 -0.42582642032E+03  0.42667430305E+03  0.00000000000E+00 0. -1.
        -15    1    1    2    0    0  0.75183835036E+01 -0.98942754402E+01 -0.60635897336E+02  0.61921664640E+02  0.17770000000E+01 0.  1.
         15    1    1    2    0    0  0.87674552875E+01  0.97764556368E+01 -0.83326511267E+01  0.15653694798E+02  0.17770000000E+01 0. -1.
</event>
<event>
 6    1  0.3836009E-003  0.5105827E+03  0.7546771E-02  0.9376437E-01
        -11   -1    0    0    0    0  0.00000000000E+00  0.00000000000E+00  0.50000000000E+03  0.50000000000E+03  0.00000000000E+00 0.  1.
         11   -1    0    0    0    0 -0.00000000000E+00 -0.00000000000E+00 -0.50000000000E+03  0.50000000000E+03  0.00000000000E+00 0. -1.
        -11    1    1    2    0    0 -0.15834967703E+02  0.13102724493E+02  0.45847746673E+03  0.45893792074E+03  0.00000000000E+00 0.  1.
         11    1    1    2    0    0 -0.56712792300E+00  0.92695001976E+01 -0.48932915641E+03  0.48941727450E+03  0.00000000000E+00 0. -1.
        -15    1    1    2    0    0 -0.67363585985E+01 -0.26677621043E+01 -0.10666056959E+01  0.75359709742E+01  0.17770000000E+01 0.  1.
         15    1    1    2    0    0  0.23138454224E+02 -0.19704462586E+02  0.31918295370E+02  0.44108833787E+02  0.17770000000E+01 0. -1.
</event>
<event>
 6    1  0.8033013E-003  0.5002072E+03  0.7546771E-02  0.9399346E-01
        -11   -1    0    0    0    0  0.00000000000E+00  0.00000000000E+00  0.50000000000E+03  0.50000000000E+03  0.00000000000E+00 0. -1.
         11   -1    0    0    0    0 -0.00000000000E+00 -0.00000000000E+00 -0.50000000000E+03  0.50000000000E+03  0.00000000000E+00 0. -1.
        -11    1    1    2    0    0  0.83768993609E+01  0.34290967961E+01  0.49971087142E+03  0.49979284325E+03  0.00000000000E+00 0. -1.
         11    1    1    2    0    0 -0.34580652476E+00  0.17582222807E+01 -0.86818055897E+02  0.86836546209E+02  0.00000000000E+00 0. -1.
        -15    1    1    2    0    0 -0.92019424216E+01 -0.54713680176E+01 -0.40613488463E+03  0.40627984673E+03  0.17770000000E+01 0. -1.
         15    1    1    2    0    0  0.11708495855E+01  0.28404894078E+00 -0.67579308897E+01  0.70907638138E+01  0.17770000000E+01 0. -1.
</event>
<event>
 6    1  0.3836009E-003  0.5183522E+03  0.7546771E-02  0.9359656E-01
        -11   -1    0    0    0    0  0.00000000000E+00  0.00000000000E+00  0.50000000000E+03  0.50000000000E+03  0.00000000000E+00 0. -1.
         11   -1    0    0    0    0 -0.00000000000E+00 -0.00000000000E+00 -0.50000000000E+03  0.50000000000E+03  0.00000000000E+00 0. -1.
        -11    1    1    2    0    0 -0.11704200302E+02  0.66875984983E+00  0.48150507472E+03  0.48164776811E+03  0.00000000000E+00 0. -1.
         11    1    1    2    0    0 -0.93394691695E+01  0.33283370210E+01 -0.40615146544E+03  0.40627246571E+03  0.00000000000E+00 0. -1.
        -15    1    1    2    0    0  0.61751898941E+01  0.11366966408E+01  0.17088511758E+02  0.18292075131E+02  0.17770000000E+01 0. -1.
         15    1    1    2    0    0  0.14868479577E+02 -0.51337935117E+01 -0.92442121039E+02  0.93787691047E+02  0.17770000000E+01 0.  1.
</event>
<event>
 6    1  0.3836009E-003  0.5031687E+03  0.7546771E-02  0.9392747E-01
        -11   -1    0    0    0    0  0.00000000000E+00  0.00000000000E+00  0.50000000000E+03  0.50000000000E+03  0.00000000000E+00 0.  1.
         11   -1    0    0    0    0 -0.00000000000E+00 -0.00000000000E+00 -0.50000000000E+03  0.50000000000E+03  0.00000000000E+00 0. -1.
        -11    1    1    2    0    0 -0.15479643572E+02 -0.93073443069E+00  0.37984239458E+03  0.38015882253E+03  0.00000000000E+00 0.  1.
         11    1    1    2    0    0 -0.74726799785E+01 -0.27461464314E+01 -0.49676752853E+03  0.49683131913E+03  0.00000000000E+00 0. -1.
        -15    1    1    2    0    0  0.39470471266E+01 -0.23333568732E+00  0.88161617286E+02  0.88268126286E+02  0.17770000000E+01 0. -1.
         15    1    1    2    0    0  0.19005276424E+02  0.39102165494E+01  0.28763516670E+02  0.34741732047E+02  0.17770000000E+01 0.  1.
</event>
<event>
 6    1  0.3836009E-003  0.5008904E+03  0.7546771E-02  0.9397820E-01
        -11   -1    0    0    0    0  0.00000000000E+00  0.00000000000E+00  0.50000000000E+03  0.50000000000E+03  0.00000000000E+00 0.  1.
         11   -1    0    0    0    0 -0.00000000000E+00 -0.00000000000E+00 -0.50000000000E+03  0.50000000000E+03  0.00000000000E+00 0. -1.
        -11    1    1    2    0    0 -0.88204457680E+01  0.22088703607E+02  0.49854256822E+03  0.49910961063E+03  0.00000000000E+00 0.  1.
         11    1    1    2    0    0 -0.16053412574E+00 -0.10109252910E+01 -0.74825141201E+02  0.74832142138E+02  0.00000000000E+00 0. -1.
        -15    1    1    2    0    0  0.18175698077E+02 -0.22635894937E+01 -0.10139217373E+03  0.10304858301E+03  0.17770000000E+01 0.  1.
         15    1    1    2    0    0 -0.91947181835E+01 -0.18814188823E+02 -0.32232525329E+03  0.32300966422E+03  0.17770000000E+01 0. -1.
</event>
<event>
 6    1  0.3836009E-003  0.5012238E+03  0.7546771E-02  0.9397076E-01
        -11   -1    0    0    0    0  0.00000000000E+00  0.00000000000E+00  0.50000000000E+03  0.50000000000E+03  0.00000000000E+00 0.  1.
         11   -1    0    0    0    0 -0.00000000000E+00 -0.00000000000E+00 -0.50000000000E+03  0.50000000000E+03  0.00000000000E+00 0. -1.
        -11    1    1    2    0    0  0.11457994224E+02 -0.11230147400E+02  0.49851814221E+03  0.49877624238E+03  0.00000000000E+00 0.  1.
         11    1    1    2    0    0 -0.71590637312E+01 -0.35713942764E+01 -0.31549780433E+03  0.31559922621E+03  0.00000000000E+00 0. -1.
        -15    1    1    2    0    0 -0.34316109654E+01  0.64501470632E+01 -0.16912773401E+03  0.16929479759E+03  0.17770000000E+01 0. -1.
         15    1    1    2    0    0 -0.86731952715E+00  0.83513946135E+01 -0.13892603878E+02  0.16329733821E+02  0.17770000000E+01 0.  1.
</event>
<event>
 6    1  0.3836009E-003  0.5009143E+03  0.7546771E-02  0.9397766E-01
        -11   -1    0    0    0    0  0.00000000000E+00  0.00000000000E+00  0.50000000000E+03  0.50000000000E+03  0.00000000000E+00 0. -1.
         11   -1    0    0    0    0 -0.00000000000E+00 -0.00000000000E+00 -0.50000000000E+03  0.50000000000E+03  0.00000000000E+00 0. -1.
        -11    1    1    2    0    0  0.66478920096E+01 -0.10040528550E+02  0.49894038037E+03  0.49908567386E+03  0.00000000000E+00 0. -1.
         11    1    1    2    0    0  0.42534398480E+01 -0.22162632823E+01 -0.16945530241E+03  0.16952316387E+03  0.00000000000E+00 0. -1.
        -15    1    1    2    0    0 -0.82422305729E+00  0.38443143156E+01 -0.28358484148E+03  0.28361766190E+03  0.17770000000E+01 0. -1.
         15    1    1    2    0    0 -0.10077108800E+02  0.84124775168E+01 -0.45900236479E+02  0.47773500370E+02  0.17770000000E+01 0. -1.
</event>
<event>
 6    1  0.3836009E-003  0.5228305E+03  0.7546771E-02  0.9350125E-01
        -11   -1    0    0    0    0  0.00000000000E+00  0.00000000000E+00  0.50000000000E+03  0.50000000000E+03  0.00000000000E+00 0.  1.
         11   -1    0    0    0    0 -0.00000000000E+00 -0.00000000000E+00 -0.50000000000E+03  0.50000000000E+03  0.00000000000E+00 0.  1.
        -11    1    1    2    0    0  0.69811188919E+01 -0.10746593078E+01  0.47711717987E+03  0.47716946072E+03  0.00000000000E+00 0.  1.
         11    1    1    2    0    0  0.12171774585E+02  0.93549081928E+01 -0.44233792087E+03  0.44260422800E+03  0.00000000000E+00 0.  1.
        -15    1    1    2    0    0 -0.10724499670E+02  0.72131338520E+01  0.19311270037E+02  0.23305086839E+02  0.17770000000E+01 0.  1.
         15    1    1    2    0    0 -0.84283938073E+01 -0.15493382737E+02 -0.54090529041E+02  0.56921224440E+02  0.17770000000E+01 0. -1.
</event>
<event>
 6    1  0.3836009E-003  0.5001797E+03  0.7546771E-02  0.9399408E-01
        -11   -1    0    0    0    0  0.00000000000E+00  0.00000000000E+00  0.50000000000E+03  0.50000000000E+03  0.00000000000E+00 0. -1.
         11   -1    0    0    0    0 -0.00000000000E+00 -0.00000000000E+00 -0.50000000000E+03  0.50000000000E+03  0.00000000000E+00 0.  1.
        -11    1    1    2    0    0 -0.29841001267E+01 -0.65157254069E+00  0.16260064186E+03  0.16262932741E+03  0.00000000000E+00 0. -1.
         11    1    1    2    0    0 -0.62060001547E+01 -0.28149971259E+01 -0.49977382198E+03  0.49982027948E+03  0.00000000000E+00 0.  1.
        -15    1    1    2    0    0  0.78665219501E+01 -0.32699581164E+01  0.20912309882E+03  0.20930409213E+03  0.17770000000E+01 0. -1.
         15    1    1    2    0    0  0.13235783313E+01  0.67365277830E+01  0.12805008129E+03  0.12824630098E+03  0.17770000000E+01 0.  1.
</event>
<event>
 6    1  0.3836009E-003  0.5016731E+03  0.7546771E-02  0.9396074E-01
        -11   -1    0    0    0    0  0.00000000000E+00  0.00000000000E+00  0.50000000000E+03  0.50000000000E+03  0.00000000000E+00 0.  1.
         11   -1    0    0    0    0 -0.00000000000E+00 -0.00000000000E+00 -0.50000000000E+03  0.50000000000E+03  0.00000000000E+00 0. -1.
        -11    1    1    2    0    0 -0.71562949323E+01  0.18346797845E+01  0.49827209314E+03  0.49832685800E+03  0.00000000000E+00 0.  1.
         11    1    1    2    0    0 -0.59399186072E+01  0.90602479291E+01 -0.42221341367E+03  0.42235238534E+03  0.00000000000E+00 0. -1.
        -15    1    1    2    0    0  0.12790638374E+02 -0.60592174632E+01 -0.32961100675E+02  0.35915267408E+02  0.17770000000E+01 0. -1.
         15    1    1    2    0    0  0.30557516563E+00 -0.48357102504E+01 -0.43097578794E+02  0.43405489246E+02  0.17770000000E+01 0.  1.
</event>
<event>
 6    1  0.3836009E-003  0.5011347E+03  0.7546771E-02  0.9397274E-01
        -11   -1    0    0    0    0  0.00000000000E+00  0.00000000000E+00  0.50000000000E+03  0.50000000000E+03  0.00000000000E+00 0.  1.
         11   -1    0    0    0    0 -0.00000000000E+00 -0.00000000000E+00 -0.50000000000E+03  0.50000000000E+03  0.00000000000E+00 0.  1.
        -11    1    1    2    0    0  0.86494029906E+01 -0.16135532475E+02  0.49852923557E+03  0.49886527871E+03  0.00000000000E+00 0.  1.
         11    1    1    2    0    0 -0.64397091472E+01  0.26423203658E+01 -0.31412597485E+03  0.31420308685E+03  0.00000000000E+00 0.  1.
        -15    1    1    2    0    0  0.19995526762E+00  0.10201183092E+02 -0.20496708922E+02  0.22964688637E+02  0.17770000000E+01 0. -1.
         15    1    1    2    0    0 -0.24096491110E+01  0.32920290178E+01 -0.16390655181E+03  0.16396694581E+03  0.17770000000E+01 0.  1.
</event>
<event>
 6    1  0.3836009E-003  0.5042483E+03  0.7546771E-02  0.9390354E-01
        -11   -1    0    0    0    0  0.00000000000E+00  0.00000000000E+00  0.50000000000E+03  0.50000000000E+03  0.00000000000E+00 0.  1.
         11   -1    0    0    0    0 -0.00000000000E+00 -0.00000000000E+00 -0.50000000000E+03  0.50000000000E+03  0.00000000000E+00 0.  1.
        -11    1    1    2    0    0 -0.46214767219E+01 -0.55480002341E+01  0.49569914891E+03  0.49575173685E+03  0.00000000000E+00 0.  1.
         11    1    1    2    0    0  0.20668358436E+01 -0.52566285157E+01 -0.39577522952E+03  0.39581553311E+03  0.00000000000E+00 0.  1.
        -15    1    1    2    0    0 -0.18708043630E+02  0.83694628240E+01 -0.46038237753E+02  0.50425349467E+02  0.17770000000E+01 0. -1.
         15    1    1    2    0    0  0.21262684508E+02  0.24351659258E+01 -0.53885681642E+02  0.58007380570E+02  0.17770000000E+01 0.  1.
</event>
<event>
 6    1  0.3836009E-003  0.5001401E+03  0.7546771E-02  0.9399496E-01
        -11   -1    0    0    0    0  0.00000000000E+00  0.00000000000E+00  0.50000000000E+03  0.50000000000E+03  0.00000000000E+00 0. -1.
         11   -1    0    0    0    0 -0.00000000000E+00 -0.00000000000E+00 -0.50000000000E+03  0.50000000000E+03  0.00000000000E+00 0.  1.
        -11    1    1    2    0    0  0.39263523983E+01 -0.30408291556E+01  0.24587832098E+03  0.24592846849E+03  0.00000000000E+00 0. -1.
         11    1    1    2    0    0  0.58113677252E+01  0.78743810713E+01 -0.49976412441E+03  0.49985993831E+03  0.00000000000E+00 0.  1.
        -15    1    1    2    0    0 -0.55303305933E+01 -0.16577024662E+01  0.18606350585E+03  0.18616153865E+03  0.17770000000E+01 0. -1.
         15    1    1    2    0    0 -0.42073895302E+01 -0.31758494495E+01  0.67822297584E+02  0.68050054555E+02  0.17770000000E+01 0.  1.
</event>
<event>
 6    1  0.3836009E-003  0.5010717E+03  0.7546771E-02  0.9397415E-01
        -11   -1    0    0    0    0  0.00000000000E+00  0.00000000000E+00  0.50000000000E+03  0.50000000000E+03  0.00000000000E+00 0. -1.
         11   -1    0    0    0    0 -0.00000000000E+00 -0.00000000000E+00 -0.50000000000E+03  0.50000000000E+03  0.00000000000E+00 0. -1.
        -11    1    1    2    0    0  0.20123629688E+01 -0.17638080566E+01  0.13261974173E+03  0.13264673581E+03  0.00000000000E+00 0. -1.
         11    1    1    2    0    0  0.39008093433E-01 -0.13177105235E+02 -0.49875429946E+03  0.49892834040E+03  0.00000000000E+00 0. -1.
        -15    1    1    2    0    0  0.90067556481E+01  0.93283159750E+01  0.40769798230E+02  0.42819076391E+02  0.17770000000E+01 0.  1.
         15    1    1    2    0    0 -0.11058126710E+02  0.56125973170E+01  0.32536475949E+03  0.32560584741E+03  0.17770000000E+01 0. -1.
</event>
<event>
 6    1  0.3836009E-003  0.4958553E+03  0.7546771E-02  0.9409132E-01
        -11   -1    0    0    0    0  0.00000000000E+00  0.00000000000E+00  0.50000000000E+03  0.50000000000E+03  0.00000000000E+00 0.  1.
         11   -1    0    0    0    0 -0.00000000000E+00 -0.00000000000E+00 -0.50000000000E+03  0.50000000000E+03  0.00000000000E+00 0.  1.
        -11    1    1    2    0    0  0.50454729840E+01 -0.54775123606E+01  0.49612587163E+03  0.49618176150E+03  0.00000000000E+00 0.  1.
         11    1    1    2    0    0 -0.61624548038E+01  0.28758405524E+01 -0.49548638159E+03  0.49553304698E+03  0.00000000000E+00 0.  1.
        -15    1    1    2    0    0  0.39319831938E+01  0.13636336860E+01 -0.12189156441E+01  0.46865203524E+01  0.17770000000E+01 0.  1.
         15    1    1    2    0    0 -0.28150013739E+01  0.12380381222E+01  0.57942560525E+00  0.35986711658E+01  0.17770000000E+01 0. -1.
</event>
<event>
 6    1  0.3836009E-003  0.5001595E+03  0.7546771E-02  0.9399453E-01
        -11   -1    0    0    0    0  0.00000000000E+00  0.00000000000E+00  0.50000000000E+03  0.50000000000E+03  0.00000000000E+00 0. -1.
         11   -1    0    0    0    0 -0.00000000000E+00 -0.00000000000E+00 -0.50000000000E+03  0.50000000000E+03  0.00000000000E+00 0. -1.
        -11    1    1    2    0    0  0.32482621712E+01  0.61760409377E+01  0.49979177358E+03  0.49984048618E+03  0.00000000000E+00 0. -1.
         11    1    1    2    0    0  0.96400433810E+00 -0.78516143375E+01 -0.38163742886E+03  0.38171940514E+03  0.00000000000E+00 0. -1.
        -15    1    1    2    0    0 -0.30039766553E+01  0.37277082840E+01 -0.84825926135E+02  0.84979498459E+02  0.17770000000E+01 0. -1.
         15    1    1    2    0    0 -0.12082898541E+01 -0.20521348842E+01 -0.33328418588E+02  0.33460610223E+02  0.17770000000E+01 0.  1.
</event>
<event>
 6    1  0.3836009E-003  0.5150332E+03  0.7546771E-02  0.9366786E-01
        -11   -1    0    0    0    0  0.00000000000E+00  0.00000000000E+00  0.50000000000E+03  0.50000000000E+03  0.00000000000E+00 0. -1.
         11   -1    0    0    0    0 -0.00000000000E+00 -0.00000000000E+00 -0.50000000000E+03  0.50000000000E+03  0.00000000000E+00 0.  1.
        -11    1    1    2    0    0 -0.93414996104E+00  0.10289328006E+02  0.48485673976E+03  0.48496680401E+03  0.00000000000E+00 0. -1.
         11    1    1    2    0    0 -0.18076045244E+02  0.20885449819E+02 -0.43659434461E+03  0.43746721840E+03  0.00000000000E+00 0.  1.
        -15    1    1    2    0    0  0.23964675067E+02 -0.29343745124E+02 -0.56240350214E+02  0.67834325751E+02  0.17770000000E+01 0. -1.
         15    1    1    2    0    0 -0.49544798620E+01 -0.18310327000E+01  0.79779550684E+01  0.97316518395E+01  0.17770000000E+01 0.  1.
</event>
<event>
 6    1  0.3836009E-003  0.5480664E+03  0.7546771E-02  0.9298248E-01
        -11   -1    0    0    0    0  0.00000000000E+00  0.00000000000E+00  0.50000000000E+03  0.50000000000E+03  0.00000000000E+00 0.  1.
         11   -1    0    0    0    0 -0.00000000000E+00 -0.00000000000E+00 -0.50000000000E+03  0.50000000000E+03  0.00000000000E+00 0. -1.
        -11    1    1    2    0    0 -0.38755392171E+01  0.17575094924E+02  0.24525005808E+03  0.24590952555E+03  0.00000000000E+00 0.  1.
         11    1    1    2    0    0 -0.17697899415E+02  0.15930358386E+01 -0.45158417359E+03  0.45193364473E+03  0.00000000000E+00 0. -1.
        -15    1    1    2    0    0 -0.31699260021E+02  0.41654241544E+02 -0.24312645873E+02  0.57742370949E+02  0.17770000000E+01 0.  1.
         15    1    1    2    0    0  0.53272698653E+02 -0.60822372306E+02  0.23064676138E+03  0.24441445877E+03  0.17770000000E+01 0. -1.
</event>
<event>
 6    1  0.3836009E-003  0.5015737E+03  0.7546771E-02  0.9396295E-01
        -11   -1    0    0    0    0  0.00000000000E+00  0.00000000000E+00  0.50000000000E+03  0.50000000000E+03  0.00000000000E+00 0.  1.
         11   -1    0    0    0    0 -0.00000000000E+00 -0.00000000000E+00 -0.50000000000E+03  0.50000000000E+03  0.00000000000E+00 0.  1.
        -11    1    1    2    0    0 -0.10735192857E+02  0.21812094388E+01  0.49830587939E+03  0.49842627487E+03  0.00000000000E+00 0.  1.
         11    1    1    2    0    0  0.16795127913E+01 -0.13283620920E+02 -0.35278563435E+03  0.35303962830E+03  0.00000000000E+00 0.  1.
        -15    1    1    2    0    0  0.88209604394E+01  0.26680141560E+01 -0.14768911194E+02  0.17498745940E+02  0.17770000000E+01 0. -1.
         15    1    1    2    0    0  0.23471962648E+00  0.84343973256E+01 -0.13075133385E+03  0.13103535089E+03  0.17770000000E+01 0.  1.
</event>
<event>
 6    1  0.3836009E-003  0.5094294E+03  0.7546771E-02  0.9378954E-01
        -11   -1    0    0    0    0  0.00000000000E+00  0.00000000000E+00  0.50000000000E+03  0.50000000000E+03  0.00000000000E+00 0. -1.
         11   -1    0    0    0    0 -0.00000000000E+00 -0.00000000000E+00 -0.50000000000E+03  0.50000000000E+03  0.00000000000E+00 0. -1.
        -11    1    1    2    0    0  0.21920874612E+02  0.26177397720E+02  0.48938094946E+03  0.49057058064E+03  0.00000000000E+00 0. -1.
         11    1    1    2    0    0  0.89499650104E+01  0.50416197350E+01 -0.40486168109E+03  0.40499197599E+03  0.00000000000E+00 0. -1.
        -15    1    1    2    0    0 -0.37828537463E+02 -0.22532126741E+02 -0.43584936568E+02  0.61979830644E+02  0.17770000000E+01 0. -1.
         15    1    1    2    0    0  0.69576978406E+01 -0.86868907149E+01 -0.40934331798E+02  0.42457612725E+02  0.17770000000E+01 0.  1.
</event>
<event>
 6    1  0.3836009E-003  0.5045621E+03  0.7546771E-02  0.9389659E-01
        -11   -1    0    0    0    0  0.00000000000E+00  0.00000000000E+00  0.50000000000E+03  0.50000000000E+03  0.00000000000E+00 0.  1.
         11   -1    0    0    0    0 -0.00000000000E+00 -0.00000000000E+00 -0.50000000000E+03  0.50000000000E+03  0.00000000000E+00 0. -1.
        -11    1    1    2    0    0  0.56569697610E+01  0.90145437805E+01  0.45556111152E+03  0.45568540643E+03  0.00000000000E+00 0.  1.
         11    1    1    2    0    0 -0.83728604351E+01 -0.28439915560E+02 -0.49455012184E+03  0.49543794425E+03  0.00000000000E+00 0. -1.
        -15    1    1    2    0    0  0.12214574499E+01  0.24131217416E+02  0.31964014712E+02  0.40108148521E+02  0.17770000000E+01 0. -1.
         15    1    1    2    0    0  0.14944332243E+01 -0.47058456369E+01  0.70249956111E+01  0.87685007929E+01  0.17770000000E+01 0.  1.
</event>
<event>
 6    1  0.3836009E-003  0.5025332E+03  0.7546771E-02  0.9394159E-01
        -11   -1    0    0    0    0  0.00000000000E+00  0.00000000000E+00  0.50000000000E+03  0.50000000000E+03  0.00000000000E+00 0.  1.
         11   -1    0    0    0    0 -0.00000000000E+00 -0.00000000000E+00 -0.50000000000E+03  0.50000000000E+03  0.00000000000E+00 0. -1.
        -11    1    1    2    0    0  0.39850808450E+01 -0.16701692332E+02  0.49717038781E+03  0.49746680483E+03  0.00000000000E+00 0.  1.
         11    1    1    2    0    0  0.59042778137E+01 -0.16828396185E+01 -0.29499591582E+03  0.29505979529E+03  0.00000000000E+00 0. -1.
        -15    1    1    2    0    0 -0.42602493193E+00  0.41435856986E+01  0.40726693085E-01  0.45288174337E+01  0.17770000000E+01 0.  1.
         15    1    1    2    0    0 -0.94633337267E+01  0.14240946252E+02 -0.20221519869E+03  0.20294458245E+03  0.17770000000E+01 0. -1.
</event>
<event>
 6    1  0.3836009E-003  0.5002108E+03  0.7546771E-02  0.9399338E-01
        -11   -1    0    0    0    0  0.00000000000E+00  0.00000000000E+00  0.50000000000E+03  0.50000000000E+03  0.00000000000E+00 0. -1.
         11   -1    0    0    0    0 -0.00000000000E+00 -0.00000000000E+00 -0.50000000000E+03  0.50000000000E+03  0.00000000000E+00 0. -1.
        -11    1    1    2    0    0  0.10464777800E+02  0.84852214888E+00  0.49967893900E+03  0.49978922922E+03  0.00000000000E+00 0. -1.
         11    1    1    2    0    0 -0.10776927547E+02  0.36361411088E+01 -0.32688546595E+03  0.32708327921E+03  0.00000000000E+00 0. -1.
        -15    1    1    2    0    0 -0.95684416722E+00  0.20683172453E+01 -0.23930423788E+02  0.24104281750E+02  0.17770000000E+01 0.  1.
         15    1    1    2    0    0  0.12689939137E+01 -0.65529805029E+01 -0.14886304926E+03  0.14902320981E+03  0.17770000000E+01 0. -1.
</event>
<event>
 6    1  0.3836009E-003  0.5195459E+03  0.7546771E-02  0.9357106E-01
        -11   -1    0    0    0    0  0.00000000000E+00  0.00000000000E+00  0.50000000000E+03  0.50000000000E+03  0.00000000000E+00 0.  1.
         11   -1    0    0    0    0 -0.00000000000E+00 -0.00000000000E+00 -0.50000000000E+03  0.50000000000E+03  0.00000000000E+00 0. -1.
        -11    1    1    2    0    0 -0.72893099331E+01  0.22221333791E+01  0.40829769724E+03  0.40836880572E+03  0.00000000000E+00 0.  1.
         11    1    1    2    0    0  0.13228625210E+02  0.48330745316E+02 -0.47783394143E+03  0.48045409047E+03  0.00000000000E+00 0. -1.
        -15    1    1    2    0    0 -0.28705514685E+01 -0.16646560326E+02 -0.13317496109E+02  0.21583824222E+02  0.17770000000E+01 0.  1.
         15    1    1    2    0    0 -0.30687638087E+01 -0.33906318369E+02  0.82853740297E+02  0.89593279585E+02  0.17770000000E+01 0. -1.
</event>
<event>
 6    1  0.3836009E-003  0.5050255E+03  0.7546771E-02  0.9388635E-01
        -11   -1    0    0    0    0  0.00000000000E+00  0.00000000000E+00  0.50000000000E+03  0.50000000000E+03  0.00000000000E+00 0. -1.
         11   -1    0    0    0    0 -0.00000000000E+00 -0.00000000000E+00 -0.50000000000E+03  0.50000000000E+03  0.00000000000E+00 0. -1.
        -11    1    1    2    0    0  0.87994885631E+01 -0.34388388381E+01  0.47066800193E+03  0.47076281145E+03  0.00000000000E+00 0. -1.
         11    1    1    2    0    0  0.37534837471E+01  0.60753354472E+01 -0.49492300666E+03  0.49497452546E+03  0.00000000000E+00 0. -1.
        -15    1    1    2    0    0 -0.72010227327E+01 -0.74812203154E+01  0.19011606217E+01  0.10704930010E+02  0.17770000000E+01 0. -1.
         15    1    1    2    0    0 -0.53519495775E+01  0.48447237063E+01  0.22353844109E+02  0.23557733072E+02  0.17770000000E+01 0.  1.
</event>
<event>
 6    1  0.3836009E-003  0.3569259E+03  0.7546771E-02  0.9793000E-01
        -11   -1    0    0    0    0  0.00000000000E+00  0.00000000000E+00  0.50000000000E+03  0.50000000000E+03  0.00000000000E+00 0.  1.
         11   -1    0    0    0    0 -0.00000000000E+00 -0.00000000000E+00 -0.50000000000E+03  0.50000000000E+03  0.00000000000E+00 0. -1.
        -11    1    1    2    0    0  0.10547547630E+03  0.17233675363E+02  0.41240537759E+03  0.42602848629E+03  0.00000000000E+00 0.  1.
         11    1    1    2    0    0  0.10611494598E+01  0.43224068783E+01 -0.14961460677E+03  0.14968079302E+03  0.00000000000E+00 0. -1.
        -15    1    1    2    0    0 -0.11115067410E+03 -0.16982364975E+02  0.41542827489E+02  0.11988259806E+03  0.17770000000E+01 0. -1.
         15    1    1    2    0    0  0.46140483414E+01 -0.45737172663E+01 -0.30433359831E+03  0.30440812263E+03  0.17770000000E+01 0.  1.
</event>
<event>
 6    1  0.4896431E-003  0.5003555E+03  0.7546771E-02  0.9399015E-01
        -11   -1    0    0    0    0  0.00000000000E+00  0.00000000000E+00  0.50000000000E+03  0.50000000000E+03  0.00000000000E+00 0. -1.
         11   -1    0    0    0    0 -0.00000000000E+00 -0.00000000000E+00 -0.50000000000E+03  0.50000000000E+03  0.00000000000E+00 0.  1.
        -11    1    1    2    0    0 -0.16188483039E+01  0.96196836441E+01  0.49954922494E+03  0.49964446071E+03  0.00000000000E+00 0. -1.
         11    1    1    2    0    0  0.90302112150E+01 -0.19167251916E+01 -0.15933407044E+03  0.15960126740E+03  0.00000000000E+00 0.  1.
        -15    1    1    2    0    0 -0.15817326776E+01 -0.60868927416E+01 -0.45027926451E+02  0.45499714625E+02  0.17770000000E+01 0. -1.
         15    1    1    2    0    0 -0.58296302334E+01 -0.16160657109E+01 -0.29518722804E+03  0.29525455727E+03  0.17770000000E+01 0.  1.
</event>
<event>
 6    1  0.3836009E-003  0.5093164E+03  0.7546771E-02  0.9379201E-01
        -11   -1    0    0    0    0  0.00000000000E+00  0.00000000000E+00  0.50000000000E+03  0.50000000000E+03  0.00000000000E+00 0. -1.
         11   -1    0    0    0    0 -0.00000000000E+00 -0.00000000000E+00 -0.50000000000E+03  0.50000000000E+03  0.00000000000E+00 0. -1.
        -11    1    1    2    0    0  0.22456432173E+02 -0.11435081345E+02  0.49003603788E+03  0.49068357508E+03  0.00000000000E+00 0. -1.
         11    1    1    2    0    0 -0.16303998381E+01  0.10075420043E+02 -0.32299990053E+03  0.32316111776E+03  0.00000000000E+00 0. -1.
        -15    1    1    2    0    0 -0.21807579386E+02  0.94723022698E+01 -0.55848970961E+01  0.24487626131E+02  0.17770000000E+01 0. -1.
         15    1    1    2    0    0  0.98154705056E+00 -0.81126409679E+01 -0.16145124026E+03  0.16166768103E+03  0.17770000000E+01 0.  1.
</event>
<event>
 6    1  0.3836009E-003  0.4858740E+03  0.7546771E-02  0.9431984E-01
        -11   -1    0    0    0    0  0.00000000000E+00  0.00000000000E+00  0.50000000000E+03  0.50000000000E+03  0.00000000000E+00 0.  1.
         11   -1    0    0    0    0 -0.00000000000E+00 -0.00000000000E+00 -0.50000000000E+03  0.50000000000E+03  0.00000000000E+00 0. -1.
        -11    1    1    2    0    0  0.67557432782E+00  0.16391763729E+00  0.30574639594E+02  0.30582541686E+02  0.00000000000E+00 0.  1.
         11    1    1    2    0    0  0.82856617378E+01  0.12536200990E+02 -0.49830210603E+03  0.49852863248E+03  0.00000000000E+00 0. -1.
        -15    1    1    2    0    0  0.28614719844E+01  0.18784824280E+02  0.22956752062E+03  0.23035941895E+03  0.17770000000E+01 0.  1.
         15    1    1    2    0    0 -0.11822708050E+02 -0.31484942908E+02  0.23815994582E+03  0.24052940688E+03  0.17770000000E+01 0. -1.
</event>
<event>
 6    1  0.3836009E-003  0.5096819E+03  0.7546771E-02  0.9378403E-01
        -11   -1    0    0    0    0  0.00000000000E+00  0.00000000000E+00  0.50000000000E+03  0.50000000000E+03  0.00000000000E+00 0. -1.
         11   -1    0    0    0    0 -0.00000000000E+00 -0.00000000000E+00 -0.50000000000E+03  0.50000000000E+03  0.00000000000E+00 0. -1.
        -11    1    1    2    0    0  0.34595407229E+02 -0.16491184059E+02  0.48881798605E+03  0.49031808537E+03  0.00000000000E+00 0. -1.
         11    1    1    2    0    0  0.27902765549E+02  0.14049376117E+02 -0.30375057755E+03  0.30535284944E+03  0.00000000000E+00 0. -1.
        -15    1    1    2    0    0 -0.78218044506E+01 -0.15241971153E+01  0.27900700277E+01  0.86282107919E+01  0.17770000000E+01 0.  1.
         15    1    1    2    0    0 -0.54676368328E+02  0.39660050577E+01 -0.18785747852E+03  0.19570085441E+03  0.17770000000E+01 0. -1.
</event>
<event>
 6    1  0.3836009E-003  0.5090052E+03  0.7546771E-02  0.9379882E-01
        -11   -1    0    0    0    0  0.00000000000E+00  0.00000000000E+00  0.50000000000E+03  0.50000000000E+03  0.00000000000E+00 0.  1.
         11   -1    0    0    0    0 -0.00000000000E+00 -0.00000000000E+00 -0.50000000000E+03  0.50000000000E+03  0.00000000000E+00 0. -1.
        -11    1    1    2    0    0  0.84218104539E+01  0.34193479531E+01  0.49091062382E+03  0.49099476516E+03  0.00000000000E+00 0.  1.
         11    1    1    2    0    0 -0.45416540173E+01 -0.23322898944E+01 -0.38116320607E+02  0.38456730152E+02  0.00000000000E+00 0. -1.
        -15    1    1    2    0    0  0.41675404496E+01 -0.54164455064E+01 -0.45919603236E+03  0.45925032405E+03  0.17770000000E+01 0. -1.
         15    1    1    2    0    0 -0.80476968862E+01  0.43293874477E+01  0.64017291414E+01  0.11298180643E+02  0.17770000000E+01 0.  1.
</event>
<event>
 6    1  0.3836009E-003  0.5153425E+03  0.7546771E-02  0.9366119E-01
        -11   -1    0    0    0    0  0.00000000000E+00  0.00000000000E+00  0.50000000000E+03  0.50000000000E+03  0.00000000000E+00 0. -1.
         11   -1    0    0    0    0 -0.00000000000E+00 -0.00000000000E+00 -0.50000000000E+03  0.50000000000E+03  0.00000000000E+00 0.  1.
        -11    1    1    2    0    0 -0.66088757000E+01 -0.36928680259E+01  0.48459835204E+03  0.48465748453E+03  0.00000000000E+00 0. -1.
         11    1    1    2    0    0 -0.56834936040E+01 -0.92189432531E+01 -0.47027536063E+03  0.47040004871E+03  0.00000000000E+00 0.  1.
        -15    1    1    2    0    0  0.93694006699E+01  0.12392968727E+02 -0.27327674458E+02  0.31485407145E+02  0.17770000000E+01 0. -1.
         15    1    1    2    0    0  0.29229686341E+01  0.51884255219E+00  0.13004683047E+02  0.13457059612E+02  0.17770000000E+01 0. -1.
</event>
<event>
 6    1  0.3836009E-003  0.4760870E+03  0.7546771E-02  0.9454966E-01
        -11   -1    0    0    0    0  0.00000000000E+00  0.00000000000E+00  0.50000000000E+03  0.50000000000E+03  0.00000000000E+00 0.  1.
         11   -1    0    0    0    0 -0.00000000000E+00 -0.00000000000E+00 -0.50000000000E+03  0.50000000000E+03  0.00000000000E+00 0. -1.
        -11    1    1    2    0    0 -0.18192266458E+02 -0.12609546994E+02  0.47872947661E+03  0.47924093211E+03  0.00000000000E+00 0.  1.
         11    1    1    2    0    0  0.53568311813E+01  0.69468444847E+01 -0.47297238578E+03  0.47305373057E+03  0.00000000000E+00 0. -1.
        -15    1    1    2    0    0  0.29464785940E+02  0.54583916222E+01 -0.55204282382E-02  0.30018750958E+02  0.17770000000E+01 0. -1.
         15    1    1    2    0    0 -0.16629350663E+02  0.20431088660E+00 -0.57515703928E+01  0.17686586369E+02  0.17770000000E+01 0.  1.
</event>
<event>
 6    1  0.3836009E-003  0.5037448E+03  0.7546771E-02  0.9391469E-01
        -11   -1    0    0    0    0  0.00000000000E+00  0.00000000000E+00  0.50000000000E+03  0.50000000000E+03  0.00000000000E+00 0. -1.
         11   -1    0    0    0    0 -0.00000000000E+00 -0.00000000000E+00 -0.50000000000E+03  0.50000000000E+03  0.00000000000E+00 0. -1.
        -11    1    1    2    0    0  0.84768725842E+01 -0.14769701775E+01  0.43671446832E+03  0.43679922807E+03  0.00000000000E+00 0. -1.
         11    1    1    2    0    0  0.61790659852E+01 -0.11427387308E+02 -0.49608512357E+03  0.49625519228E+03  0.00000000000E+00 0. -1.
        -15    1    1    2    0    0  0.24097448123E+01  0.34681182332E+01  0.36717433132E+02  0.37002193704E+02  0.17770000000E+01 0.  1.
         15    1    1    2    0    0 -0.17065683382E+02  0.94362392526E+01  0.22653222119E+02  0.29943385945E+02  0.17770000000E+01 0. -1.
</event>
<event>
 6    1  0.3836009E-003  0.5003009E+03  0.7546771E-02  0.9399137E-01
        -11   -1    0    0    0    0  0.00000000000E+00  0.00000000000E+00  0.50000000000E+03  0.50000000000E+03  0.00000000000E+00 0.  1.
         11   -1    0    0    0    0 -0.00000000000E+00 -0.00000000000E+00 -0.50000000000E+03  0.50000000000E+03  0.00000000000E+00 0.  1.
        -11    1    1    2    0    0  0.45480121294E+01 -0.51883716909E+00  0.20569711273E+03  0.20574803958E+03  0.00000000000E+00 0.  1.
         11    1    1    2    0    0 -0.89970022929E+01 -0.18281427528E+01 -0.49961475506E+03  0.49969910109E+03  0.00000000000E+00 0.  1.
        -15    1    1    2    0    0  0.40937864878E+00 -0.44056416314E+01  0.23884125794E+03  0.23888884757E+03  0.17770000000E+01 0.  1.
         15    1    1    2    0    0  0.40396115148E+01  0.67526215533E+01  0.55076384395E+02  0.55664011768E+02  0.17770000000E+01 0. -1.
</event>
<event>
 6    1  0.3836009E-003  0.5016661E+03  0.7546771E-02  0.9396089E-01
        -11   -1    0    0    0    0  0.00000000000E+00  0.00000000000E+00  0.50000000000E+03  0.50000000000E+03  0.00000000000E+00 0. -1.
         11   -1    0    0    0    0 -0.00000000000E+00 -0.00000000000E+00 -0.50000000000E+03  0.50000000000E+03  0.00000000000E+00 0.  1.
        -11    1    1    2    0    0 -0.74503492355E+01  0.81649042805E+00  0.49827755088E+03  0.49833391624E+03  0.00000000000E+00 0. -1.
         11    1    1    2    0    0 -0.11691239803E+02  0.42997657115E+01 -0.40700999452E+03  0.40720057553E+03  0.00000000000E+00 0.  1.
        -15    1    1    2    0    0 -0.18860492653E+01 -0.13583836100E+01 -0.11918891427E+02  0.12272737661E+02  0.17770000000E+01 0. -1.
         15    1    1    2    0    0  0.21027638304E+02 -0.37578725295E+01 -0.79348664931E+02  0.82192770570E+02  0.17770000000E+01 0. -1.
</event>
<event>
 6    1  0.3836009E-003  0.4450732E+03  0.7546771E-02  0.9531865E-01
        -11   -1    0    0    0    0  0.00000000000E+00  0.00000000000E+00  0.50000000000E+03  0.50000000000E+03  0.00000000000E+00 0. -1.
         11   -1    0    0    0    0 -0.00000000000E+00 -0.00000000000E+00 -0.50000000000E+03  0.50000000000E+03  0.00000000000E+00 0.  1.
        -11    1    1    2    0    0  0.54986898740E+02  0.53132336861E+02  0.47045403113E+03  0.47662731737E+03  0.00000000000E+00 0. -1.
         11    1    1    2    0    0 -0.14877561753E+02 -0.19432345644E+01 -0.13699428272E+03  0.13781346633E+03  0.00000000000E+00 0.  1.
        -15    1    1    2    0    0 -0.10304744146E+03 -0.34658441041E+02 -0.11790486554E+03  0.16038920716E+03  0.17770000000E+01 0. -1.
         15    1    1    2    0    0  0.62938104475E+02 -0.16530661255E+02 -0.21555488287E+03  0.22517000914E+03  0.17770000000E+01 0.  1.
</event>
<event>
 6    1  0.3836009E-003  0.5078778E+03  0.7546771E-02  0.9382353E-01
        -11   -1    0    0    0    0  0.00000000000E+00  0.00000000000E+00  0.50000000000E+03  0.50000000000E+03  0.00000000000E+00 0.  1.
         11   -1    0    0    0    0 -0.00000000000E+00 -0.00000000000E+00 -0.50000000000E+03  0.50000000000E+03  0.00000000000E+00 0. -1.
        -11    1    1    2    0    0 -0.14191436734E+02  0.18070945980E+02  0.49158554914E+03  0.49212224913E+03  0.00000000000E+00 0.  1.
         11    1    1    2    0    0  0.36296232893E+01 -0.25180025597E+01 -0.13684346133E+03  0.13691474505E+03  0.00000000000E+00 0. -1.
        -15    1    1    2    0    0 -0.13280567593E+02  0.10965750315E+02 -0.32216380249E+03  0.32262872550E+03  0.17770000000E+01 0. -1.
         15    1    1    2    0    0  0.23842381038E+02 -0.26518693735E+02 -0.32578285321E+02  0.48334280324E+02  0.17770000000E+01 0.  1.
</event>
<event>
 6    1  0.3836009E-003  0.5029148E+03  0.7546771E-02  0.9393311E-01
        -11   -1    0    0    0    0  0.00000000000E+00  0.00000000000E+00  0.50000000000E+03  0.50000000000E+03  0.00000000000E+00 0.  1.
         11   -1    0    0    0    0 -0.00000000000E+00 -0.00000000000E+00 -0.50000000000E+03  0.50000000000E+03  0.00000000000E+00 0.  1.
        -11    1    1    2    0    0  0.46230851554E+01 -0.72697729870E+01  0.33924144772E+03  0.33935082491E+03  0.00000000000E+00 0.  1.
         11    1    1    2    0    0  0.64080988428E+01  0.24847902577E+01 -0.49703764262E+03  0.49708515980E+03  0.00000000000E+00 0.  1.
        -15    1    1    2    0    0  0.12821738634E+02  0.66908773736E+01  0.27958852690E+02  0.31528082631E+02  0.17770000000E+01 0. -1.
         15    1    1    2    0    0 -0.23852922633E+02 -0.19058946443E+01  0.12983734221E+03  0.13203593266E+03  0.17770000000E+01 0.  1.
</event>
<event>
 6    1  0.3836009E-003  0.5025812E+03  0.7546771E-02  0.9394052E-01
        -11   -1    0    0    0    0  0.00000000000E+00  0.00000000000E+00  0.50000000000E+03  0.50000000000E+03  0.00000000000E+00 0. -1.
         11   -1    0    0    0    0 -0.00000000000E+00 -0.00000000000E+00 -0.50000000000E+03  0.50000000000E+03  0.00000000000E+00 0. -1.
        -11    1    1    2    0    0  0.10465628902E+02  0.39953913848E+01  0.43681864761E+03  0.43696226775E+03  0.00000000000E+00 0. -1.
         11    1    1    2    0    0 -0.63186441478E+01  0.66028992750E+01 -0.49733478981E+03  0.49741875386E+03  0.00000000000E+00 0. -1.
        -15    1    1    2    0    0 -0.11587205946E+01 -0.55481456470E+01  0.59006445017E+02  0.59304661167E+02  0.17770000000E+01 0.  1.
         15    1    1    2    0    0 -0.29882641600E+01 -0.50501450128E+01  0.15096971779E+01  0.63143172164E+01  0.17770000000E+01 0. -1.
</event>
<event>
 6    1  0.3836009E-003  0.5002935E+03  0.7546771E-02  0.9399153E-01
        -11   -1    0    0    0    0  0.00000000000E+00  0.00000000000E+00  0.50000000000E+03  0.50000000000E+03  0.00000000000E+00 0.  1.
         11   -1    0    0    0    0 -0.00000000000E+00 -0.00000000000E+00 -0.50000000000E+03  0.50000000000E+03  0.00000000000E+00 0. -1.
        -11    1    1    2    0    0 -0.13895145000E+01  0.81640101857E+01  0.22888886586E+03  0.22903863152E+03  0.00000000000E+00 0.  1.
         11    1    1    2    0    0 -0.23082054952E+01 -0.78155165999E+01 -0.49964000288E+03  0.49970645642E+03  0.00000000000E+00 0. -1.
        -15    1    1    2    0    0 -0.15275234998E+01 -0.50462886907E-01  0.59343111615E+01  0.63804116252E+01  0.17770000000E+01 0.  1.
         15    1    1    2    0    0  0.52252434951E+01 -0.29803069894E+00  0.26481682586E+03  0.26487450043E+03  0.17770000000E+01 0.  1.
</event>
<event>
 6    1  0.3836009E-003  0.5002809E+03  0.7546771E-02  0.9399181E-01
        -11   -1    0    0    0    0  0.00000000000E+00  0.00000000000E+00  0.50000000000E+03  0.50000000000E+03  0.00000000000E+00 0.  1.
         11   -1    0    0    0    0 -0.00000000000E+00 -0.00000000000E+00 -0.50000000000E+03  0.50000000000E+03  0.00000000000E+00 0. -1.
        -11    1    1    2    0    0  0.14445603626E+01  0.19820024803E+00  0.42066412253E+02  0.42091674685E+02  0.00000000000E+00 0.  1.
         11    1    1    2    0    0  0.52165901418E+01  0.44888765085E+01 -0.49967170213E+03  0.49971909383E+03  0.00000000000E+00 0. -1.
        -15    1    1    2    0    0 -0.68948922469E+01 -0.39046851468E+01  0.45412128634E+03  0.45419388651E+03  0.17770000000E+01 0.  1.
         15    1    1    2    0    0  0.23374174256E+00 -0.78239160980E+00  0.34840035343E+01  0.39953449739E+01  0.17770000000E+01 0. -1.
</event>
<event>
 6    1  0.3836009E-003  0.5063973E+03  0.7546771E-02  0.9385608E-01
        -11   -1    0    0    0    0  0.00000000000E+00  0.00000000000E+00  0.50000000000E+03  0.50000000000E+03  0.00000000000E+00 0.  1.
         11   -1    0    0    0    0 -0.00000000000E+00 -0.00000000000E+00 -0.50000000000E+03  0.50000000000E+03  0.00000000000E+00 0. -1.
        -11    1    1    2    0    0 -0.25267668335E+01 -0.79886814436E+01  0.49353157837E+03  0.49360269694E+03  0.00000000000E+00 0.  1.
         11    1    1    2    0    0 -0.31908504982E+01 -0.68462273481E+01 -0.48388157976E+03  0.48394052898E+03  0.00000000000E+00 0. -1.
        -15    1    1    2    0    0 -0.15102796339E+01  0.35106214453E+01 -0.76834174446E+01  0.87634491003E+01  0.17770000000E+01 0. -1.
         15    1    1    2    0    0  0.72278969657E+01  0.11324287346E+02 -0.19665811656E+01  0.13693324977E+02  0.17770000000E+01 0.  1.
</event>
<event>
 6    1  0.3836009E-003  0.5042056E+03  0.7546771E-02  0.9390448E-01
        -11   -1    0    0    0    0  0.00000000000E+00  0.00000000000E+00  0.50000000000E+03  0.50000000000E+03  0.00000000000E+00 0.  1.
         11   -1    0    0    0    0 -0.00000000000E+00 -0.00000000000E+00 -0.50000000000E+03  0.50000000000E+03  0.00000000000E+00 0. -1.
        -11    1    1    2    0    0  0.23565067819E+02  0.21533039150E+02  0.49476567646E+03  0.49579437149E+03  0.00000000000E+00 0.  1.
         11    1    1    2    0    0  0.12264725713E+02  0.46970922805E+01 -0.19610215548E+03  0.19654144997E+03  0.00000000000E+00 0. -1.
        -15    1    1    2    0    0 -0.51561304684E+01 -0.12245639905E+02 -0.92461198982E+01  0.16284650450E+02  0.17770000000E+01 0.  1.
         15    1    1    2    0    0 -0.30673663064E+02 -0.13984491525E+02 -0.28941740108E+03  0.29137952808E+03  0.17770000000E+01 0. -1.
</event>
<event>
 6    1  0.3836009E-003  0.5165121E+03  0.7546771E-02  0.9363602E-01
        -11   -1    0    0    0    0  0.00000000000E+00  0.00000000000E+00  0.50000000000E+03  0.50000000000E+03  0.00000000000E+00 0. -1.
         11   -1    0    0    0    0 -0.00000000000E+00 -0.00000000000E+00 -0.50000000000E+03  0.50000000000E+03  0.00000000000E+00 0. -1.
        -11    1    1    2    0    0 -0.19799711398E+02 -0.30493711868E+01  0.48307264741E+03  0.48348785912E+03  0.00000000000E+00 0. -1.
         11    1    1    2    0    0  0.14428502296E+02  0.37358511898E+02 -0.30561156100E+03  0.30822437656E+03  0.00000000000E+00 0. -1.
        -15    1    1    2    0    0  0.12356525772E+02  0.60552999121E+01  0.95439743818E+01  0.16840295787E+02  0.17770000000E+01 0.  1.
         15    1    1    2    0    0 -0.69853166701E+01 -0.40364440624E+02 -0.18700506079E+03  0.19144746853E+03  0.17770000000E+01 0. -1.
</event>
<event>
 6    1  0.3836009E-003  0.5061182E+03  0.7546771E-02  0.9386223E-01
        -11   -1    0    0    0    0  0.00000000000E+00  0.00000000000E+00  0.50000000000E+03  0.50000000000E+03  0.00000000000E+00 0.  1.
         11   -1    0    0    0    0 -0.00000000000E+00 -0.00000000000E+00 -0.50000000000E+03  0.50000000000E+03  0.00000000000E+00 0.  1.
        -11    1    1    2    0    0  0.78752518906E+01 -0.27513566090E+00  0.49381892281E+03  0.49388179134E+03  0.00000000000E+00 0.  1.
         11    1    1    2    0    0 -0.25981480758E+01  0.25467120681E+02 -0.31287783091E+03  0.31392333727E+03  0.00000000000E+00 0.  1.
        -15    1    1    2    0    0 -0.27543319090E+01 -0.30400603184E+01  0.39441438274E+01  0.59617372079E+01  0.17770000000E+01 0. -1.
         15    1    1    2    0    0 -0.25227719057E+01 -0.22151924702E+02 -0.18488523573E+03  0.18623313418E+03  0.17770000000E+01 0.  1.
</event>
<event>
 6    1  0.3836009E-003  0.5061290E+03  0.7546771E-02  0.9386199E-01
        -11   -1    0    0    0    0  0.00000000000E+00  0.00000000000E+00  0.50000000000E+03  0.50000000000E+03  0.00000000000E+00 0. -1.
         11   -1    0    0    0    0 -0.00000000000E+00 -0.00000000000E+00 -0.50000000000E+03  0.50000000000E+03  0.00000000000E+00 0. -1.
        -11    1    1    2    0    0 -0.46875726177E+01  0.11543671604E+02  0.49371383919E+03  0.49387102030E+03  0.00000000000E+00 0. -1.
         11    1    1    2    0    0  0.68115830599E+01 -0.22212439696E+01 -0.48527103075E+03  0.48532391747E+03  0.00000000000E+00 0. -1.
        -15    1    1    2    0    0  0.65524423014E+01 -0.58938871014E+01 -0.16799350748E+01  0.91461640119E+01  0.17770000000E+01 0. -1.
         15    1    1    2    0    0 -0.86764527436E+01 -0.34285405331E+01 -0.67628733654E+01  0.11658898214E+02  0.17770000000E+01 0.  1.
</event>
<event>
 6    1  0.3836009E-003  0.4339549E+03  0.7546771E-02  0.9561075E-01
        -11   -1    0    0    0    0  0.00000000000E+00  0.00000000000E+00  0.50000000000E+03  0.50000000000E+03  0.00000000000E+00 0.  1.
         11   -1    0    0    0    0 -0.00000000000E+00 -0.00000000000E+00 -0.50000000000E+03  0.50000000000E+03  0.00000000000E+00 0.  1.
        -11    1    1    2    0    0  0.15051040934E+02  0.51811965007E+01  0.43234761250E+03  0.43264053979E+03  0.00000000000E+00 0.  1.
         11    1    1    2    0    0  0.61297939951E+01  0.12503036584E+02 -0.43549084449E+03  0.43571341032E+03  0.00000000000E+00 0.  1.
        -15    1    1    2    0    0 -0.60230420190E+01  0.33403312649E+01 -0.61535195827E+02  0.61944918295E+02  0.17770000000E+01 0. -1.
         15    1    1    2    0    0 -0.15157792910E+02 -0.21024564349E+02  0.64678427816E+02  0.69701131595E+02  0.17770000000E+01 0.  1.
</event>
<event>
 6    1  0.3836009E-003  0.5047894E+03  0.7546771E-02  0.9389156E-01
        -11   -1    0    0    0    0  0.00000000000E+00  0.00000000000E+00  0.50000000000E+03  0.50000000000E+03  0.00000000000E+00 0.  1.
         11   -1    0    0    0    0 -0.00000000000E+00 -0.00000000000E+00 -0.50000000000E+03  0.50000000000E+03  0.00000000000E+00 0. -1.
        -11    1    1    2    0    0  0.30745336064E+02  0.66883624113E+01  0.49421003364E+03  0.49521062916E+03  0.00000000000E+00 0.  1.
         11    1    1    2    0    0  0.85244267569E+01  0.80830757475E+00 -0.40302955651E+03  0.40312050634E+03  0.00000000000E+00 0. -1.
        -15    1    1    2    0    0 -0.38341384158E+01  0.46329536945E+01 -0.23206160068E+02  0.24038478975E+02  0.17770000000E+01 0.  1.
         15    1    1    2    0    0 -0.35435624405E+02 -0.12129623681E+02 -0.67974317062E+02  0.77630385524E+02  0.17770000000E+01 0. -1.
</event>
<event>
 6    1  0.3836009E-003  0.5051944E+03  0.7546771E-02  0.9388261E-01
        -11   -1    0    0    0    0  0.00000000000E+00  0.00000000000E+00  0.50000000000E+03  0.50000000000E+03  0.00000000000E+00 0.  1.
         11   -1    0    0    0    0 -0.00000000000E+00 -0.00000000000E+00 -0.50000000000E+03  0.50000000000E+03  0.00000000000E+00 0.  1.
        -11    1    1    2    0    0  0.74738024441E+00 -0.13394927498E+02  0.49462367438E+03  0.49480557991E+03  0.00000000000E+00 0.  1.
         11    1    1    2    0    0  0.71312082401E+01  0.22642657598E+02 -0.37937711236E+03  0.38011910956E+03  0.00000000000E+00 0.  1.
        -15    1    1    2    0    0 -0.12302910055E+02  0.45637866143E+01 -0.54643546729E+01  0.14325035604E+02  0.17770000000E+01 0. -1.
         15    1    1    2    0    0  0.44243215701E+01 -0.13811516715E+02 -0.10978220735E+03  0.11075027492E+03  0.17770000000E+01 0.  1.
</event>
<event>
 6    1  0.3836009E-003  0.5006739E+03  0.7546771E-02  0.9398303E-01
        -11   -1    0    0    0    0  0.00000000000E+00  0.00000000000E+00  0.50000000000E+03  0.50000000000E+03  0.00000000000E+00 0. -1.
         11   -1    0    0    0    0 -0.00000000000E+00 -0.00000000000E+00 -0.50000000000E+03  0.50000000000E+03  0.00000000000E+00 0. -1.
        -11    1    1    2    0    0 -0.71772445967E+01 -0.25490067865E+01  0.49926800437E+03  0.49932609631E+03  0.00000000000E+00 0. -1.
         11    1    1    2    0    0  0.12850284463E+02  0.42747207825E+00 -0.40071747931E+03  0.40092369694E+03  0.00000000000E+00 0. -1.
        -15    1    1    2    0    0 -0.65945972210E+01  0.29300179573E+00 -0.19687350970E+02  0.20840443368E+02  0.17770000000E+01 0.  1.
         15    1    1    2    0    0  0.92155735445E+00  0.18285329125E+01 -0.78863174084E+02  0.78909763377E+02  0.17770000000E+01 0. -1.
</event>
<event>
 6    1  0.3836009E-003  0.5016198E+03  0.7546771E-02  0.9396193E-01
        -11   -1    0    0    0    0  0.00000000000E+00  0.00000000000E+00  0.50000000000E+03  0.50000000000E+03  0.00000000000E+00 0. -1.
         11   -1    0    0    0    0 -0.00000000000E+00 -0.00000000000E+00 -0.50000000000E+03  0.50000000000E+03  0.00000000000E+00 0. -1.
        -11    1    1    2    0    0  0.20897844087E-01 -0.53832840150E+01  0.15647772939E+03  0.15657030363E+03  0.00000000000E+00 0. -1.
         11    1    1    2    0    0  0.23717565042E+02 -0.16418047911E+02 -0.49754476002E+03  0.49838023979E+03  0.00000000000E+00 0. -1.
        -15    1    1    2    0    0 -0.17633013618E+02 -0.81227055579E+01  0.87608062552E+02  0.89750943549E+02  0.17770000000E+01 0.  1.
         15    1    1    2    0    0 -0.61054492680E+01  0.29924037484E+02  0.25345896808E+03  0.25529851303E+03  0.17770000000E+01 0. -1.
</event>
<event>
 6    1  0.3836009E-003  0.5037836E+03  0.7546771E-02  0.9391383E-01
        -11   -1    0    0    0    0  0.00000000000E+00  0.00000000000E+00  0.50000000000E+03  0.50000000000E+03  0.00000000000E+00 0.  1.
         11   -1    0    0    0    0 -0.00000000000E+00 -0.00000000000E+00 -0.50000000000E+03  0.50000000000E+03  0.00000000000E+00 0. -1.
        -11    1    1    2    0    0 -0.32176098131E+01 -0.81389323533E+01  0.49613923841E+03  0.49621642367E+03  0.00000000000E+00 0.  1.
         11    1    1    2    0    0  0.41528540277E+01  0.59877763225E+01 -0.48837655495E+03  0.48843091537E+03  0.00000000000E+00 0. -1.
        -15    1    1    2    0    0  0.14275072184E+01  0.30561043417E+01  0.25498560559E+01  0.45866159106E+01  0.17770000000E+01 0.  1.
         15    1    1    2    0    0 -0.23627514330E+01 -0.90494831096E+00 -0.10312539516E+02  0.10766045052E+02  0.17770000000E+01 0. -1.
</event>
<event>
 6    1  0.3836009E-003  0.5007914E+03  0.7546771E-02  0.9398041E-01
        -11   -1    0    0    0    0  0.00000000000E+00  0.00000000000E+00  0.50000000000E+03  0.50000000000E+03  0.00000000000E+00 0.  1.
         11   -1    0    0    0    0 -0.00000000000E+00 -0.00000000000E+00 -0.50000000000E+03  0.50000000000E+03  0.00000000000E+00 0. -1.
        -11    1    1    2    0    0 -0.57403532285E+01  0.17703429483E+01  0.41728854600E+03  0.41733178215E+03  0.00000000000E+00 0.  1.
         11    1    1    2    0    0  0.12578074650E+01 -0.10059504115E+02 -0.49910569698E+03  0.49920864622E+03  0.00000000000E+00 0. -1.
        -15    1    1    2    0    0  0.60553597190E+01  0.12675899179E+00  0.54134253530E+02  0.54500996169E+02  0.17770000000E+01 0. -1.
         15    1    1    2    0    0 -0.15728139555E+01  0.81624021753E+01  0.27682897447E+02  0.28958575467E+02  0.17770000000E+01 0.  1.
</event>
<event>
 6    1  0.3836009E-003  0.5050411E+03  0.7546771E-02  0.9388600E-01
        -11   -1    0    0    0    0  0.00000000000E+00  0.00000000000E+00  0.50000000000E+03  0.50000000000E+03  0.00000000000E+00 0. -1.
         11   -1    0    0    0    0 -0.00000000000E+00 -0.00000000000E+00 -0.50000000000E+03  0.50000000000E+03  0.00000000000E+00 0. -1.
        -11    1    1    2    0    0 -0.86430903514E+01 -0.42557018251E+00  0.38190442179E+03  0.38200244961E+03  0.00000000000E+00 0. -1.
         11    1    1    2    0    0 -0.15069744241E+01  0.87527074485E+01 -0.49487917562E+03  0.49495886629E+03  0.00000000000E+00 0. -1.
        -15    1    1    2    0    0  0.68783349839E+01 -0.12541484922E+01  0.11464601991E+03  0.11487276435E+03  0.17770000000E+01 0.  1.
         15    1    1    2    0    0  0.32717297916E+01 -0.70729887738E+01 -0.16712660844E+01  0.81659197491E+01  0.17770000000E+01 0. -1.
</event>
<event>
 6    1  0.4032839E-003  0.5713586E+03  0.7546771E-02  0.9252928E-01
        -11   -1    0    0    0    0  0.00000000000E+00  0.00000000000E+00  0.50000000000E+03  0.50000000000E+03  0.00000000000E+00 0.  1.
         11   -1    0    0    0    0 -0.00000000000E+00 -0.00000000000E+00 -0.50000000000E+03  0.50000000000E+03  0.00000000000E+00 0. -1.
        -11    1    1    2    0    0  0.45422245481E+02 -0.30706035321E+02  0.39291030468E+03  0.39671721480E+03  0.00000000000E+00 0.  1.
         11    1    1    2    0    0 -0.49939959909E+02  0.30841323782E+02 -0.42460362582E+03  0.42864137214E+03  0.00000000000E+00 0. -1.
        -15    1    1    2    0    0  0.52846394234E+02 -0.10154090622E+02 -0.53668481030E+02  0.76021776649E+02  0.17770000000E+01 0.  1.
         15    1    1    2    0    0 -0.48328679805E+02  0.10018802161E+02  0.85361802167E+02  0.98619636415E+02  0.17770000000E+01 0. -1.
</event>
<event>
 6    1  0.3836009E-003  0.5250405E+03  0.7546771E-02  0.9345459E-01
        -11   -1    0    0    0    0  0.00000000000E+00  0.00000000000E+00  0.50000000000E+03  0.50000000000E+03  0.00000000000E+00 0.  1.
         11   -1    0    0    0    0 -0.00000000000E+00 -0.00000000000E+00 -0.50000000000E+03  0.50000000000E+03  0.00000000000E+00 0. -1.
        -11    1    1    2    0    0 -0.15488775204E+02 -0.66785677100E+01  0.47465989540E+03  0.47495949482E+03  0.00000000000E+00 0.  1.
         11    1    1    2    0    0  0.22787249552E+01  0.12416970061E+02 -0.45076374880E+03  0.45094049604E+03  0.00000000000E+00 0. -1.
        -15    1    1    2    0    0 -0.10337932078E+02 -0.10098192389E+02 -0.41724091977E+02  0.44191672400E+02  0.17770000000E+01 0.  1.
         15    1    1    2    0    0  0.23547982327E+02  0.43597900382E+01  0.17827945385E+02  0.29908336739E+02  0.17770000000E+01 0. -1.
</event>
<event>
 6    1  0.3836009E-003  0.5027760E+03  0.7546771E-02  0.9393620E-01
        -11   -1    0    0    0    0  0.00000000000E+00  0.00000000000E+00  0.50000000000E+03  0.50000000000E+03  0.00000000000E+00 0. -1.
         11   -1    0    0    0    0 -0.00000000000E+00 -0.00000000000E+00 -0.50000000000E+03  0.50000000000E+03  0.00000000000E+00 0. -1.
        -11    1    1    2    0    0 -0.65908419004E+01 -0.89481152218E+01  0.49709977985E+03  0.49722399287E+03  0.00000000000E+00 0. -1.
         11    1    1    2    0    0  0.59844188780E+01 -0.70204801825E+01 -0.37681257923E+03  0.37692548372E+03  0.00000000000E+00 0. -1.
        -15    1    1    2    0    0 -0.17614120646E-01  0.30977406878E+01 -0.10766837587E+03  0.10772758792E+03  0.17770000000E+01 0. -1.
         15    1    1    2    0    0  0.62403714304E+00  0.12870854717E+02 -0.12618824746E+02  0.18122935481E+02  0.17770000000E+01 0.  1.
</event>
<event>
 6    1  0.3836009E-003  0.5206993E+03  0.7546771E-02  0.9354648E-01
        -11   -1    0    0    0    0  0.00000000000E+00  0.00000000000E+00  0.50000000000E+03  0.50000000000E+03  0.00000000000E+00 0. -1.
         11   -1    0    0    0    0 -0.00000000000E+00 -0.00000000000E+00 -0.50000000000E+03  0.50000000000E+03  0.00000000000E+00 0.  1.
        -11    1    1    2    0    0  0.40315551795E+01 -0.58165421918E+01  0.47924839929E+03  0.47930065076E+03  0.00000000000E+00 0. -1.
         11    1    1    2    0    0  0.18898580706E+02  0.31442590848E+01 -0.45071932281E+03  0.45112631343E+03  0.00000000000E+00 0.  1.
        -15    1    1    2    0    0  0.33709737805E+01 -0.36405258744E+01  0.16330524385E+02  0.17159855727E+02  0.17770000000E+01 0. -1.
         15    1    1    2    0    0 -0.26301109666E+02  0.63128089813E+01 -0.44859600870E+02  0.52413180080E+02  0.17770000000E+01 0.  1.
</event>
<event>
 6    1  0.3836009E-003  0.5030891E+03  0.7546771E-02  0.9392924E-01
        -11   -1    0    0    0    0  0.00000000000E+00  0.00000000000E+00  0.50000000000E+03  0.50000000000E+03  0.00000000000E+00 0. -1.
         11   -1    0    0    0    0 -0.00000000000E+00 -0.00000000000E+00 -0.50000000000E+03  0.50000000000E+03  0.00000000000E+00 0.  1.
        -11    1    1    2    0    0 -0.43948063570E+01 -0.10182959772E+02  0.49678707266E+03  0.49691085977E+03  0.00000000000E+00 0. -1.
         11    1    1    2    0    0 -0.66052394032E+01 -0.30339138558E+01 -0.39353339038E+03  0.39360051215E+03  0.00000000000E+00 0.  1.
        -15    1    1    2    0    0  0.15517450443E+02  0.21047223145E+01 -0.20533817795E+02  0.25884677446E+02  0.17770000000E+01 0. -1.
         15    1    1    2    0    0 -0.45174046826E+01  0.11112151313E+02 -0.82719864483E+02  0.83603950631E+02  0.17770000000E+01 0.  1.
</event>
<event>
 6    1  0.3836009E-003  0.5102663E+03  0.7546771E-02  0.9377127E-01
        -11   -1    0    0    0    0  0.00000000000E+00  0.00000000000E+00  0.50000000000E+03  0.50000000000E+03  0.00000000000E+00 0.  1.
         11   -1    0    0    0    0 -0.00000000000E+00 -0.00000000000E+00 -0.50000000000E+03  0.50000000000E+03  0.00000000000E+00 0. -1.
        -11    1    1    2    0    0  0.76151435863E+00 -0.16142357535E+02  0.48946699210E+03  0.48973369495E+03  0.00000000000E+00 0.  1.
         11    1    1    2    0    0  0.55935848080E+01  0.40614594913E+01 -0.47576417905E+03  0.47581439418E+03  0.00000000000E+00 0. -1.
        -15    1    1    2    0    0 -0.98275283817E+01  0.38925346051E+01  0.63393333253E+01  0.12452992241E+02  0.17770000000E+01 0. -1.
         15    1    1    2    0    0  0.34724292150E+01  0.81883634388E+01 -0.20042146378E+02  0.21998918630E+02  0.17770000000E+01 0.  1.
</event>
<event>
 6    1  0.3836009E-003  0.5018012E+03  0.7546771E-02  0.9395788E-01
        -11   -1    0    0    0    0  0.00000000000E+00  0.00000000000E+00  0.50000000000E+03  0.50000000000E+03  0.00000000000E+00 0.  1.
         11   -1    0    0    0    0 -0.00000000000E+00 -0.00000000000E+00 -0.50000000000E+03  0.50000000000E+03  0.00000000000E+00 0. -1.
        -11    1    1    2    0    0 -0.59046142732E+01 -0.50638228739E+01  0.28248196794E+03  0.28258904611E+03  0.00000000000E+00 0.  1.
         11    1    1    2    0    0  0.14976237155E+02  0.34281605819E+02 -0.49679224775E+03  0.49819880931E+03  0.00000000000E+00 0. -1.
        -15    1    1    2    0    0 -0.15360393931E+02 -0.31515088503E+02  0.20250083675E+03  0.20552101868E+03  0.17770000000E+01 0.  1.
         15    1    1    2    0    0  0.62887710487E+01  0.22973055581E+01  0.11809443056E+02  0.13691125901E+02  0.17770000000E+01 0. -1.
</event>
<event>
 6    1  0.3836009E-003  0.5052045E+03  0.7546771E-02  0.9388239E-01
        -11   -1    0    0    0    0  0.00000000000E+00  0.00000000000E+00  0.50000000000E+03  0.50000000000E+03  0.00000000000E+00 0.  1.
         11   -1    0    0    0    0 -0.00000000000E+00 -0.00000000000E+00 -0.50000000000E+03  0.50000000000E+03  0.00000000000E+00 0. -1.
        -11    1    1    2    0    0  0.11098925064E+01  0.79846426048E+01  0.49472985853E+03  0.49479553282E+03  0.00000000000E+00 0.  1.
         11    1    1    2    0    0  0.12981935572E+01  0.61899098747E+01 -0.40932344672E+03  0.40937230528E+03  0.00000000000E+00 0. -1.
        -15    1    1    2    0    0 -0.11568511574E+02  0.10139363081E+02 -0.19061305717E+02  0.24558669515E+02  0.17770000000E+01 0.  1.
         15    1    1    2    0    0  0.91604255101E+01 -0.24313915561E+02 -0.66345106093E+02  0.71273492387E+02  0.17770000000E+01 0. -1.
</event>
<event>
 6    1  0.3836009E-003  0.5133900E+03  0.7546771E-02  0.9370337E-01
        -11   -1    0    0    0    0  0.00000000000E+00  0.00000000000E+00  0.50000000000E+03  0.50000000000E+03  0.00000000000E+00 0.  1.
         11   -1    0    0    0    0 -0.00000000000E+00 -0.00000000000E+00 -0.50000000000E+03  0.50000000000E+03  0.00000000000E+00 0. -1.
        -11    1    1    2    0    0 -0.20814616741E+02  0.66099816188E+01  0.42045852377E+03  0.42102530843E+03  0.00000000000E+00 0.  1.
         11    1    1    2    0    0  0.49010987629E+01 -0.48221120148E+01 -0.48656147123E+03  0.48661004800E+03  0.00000000000E+00 0. -1.
        -15    1    1    2    0    0 -0.22360022961E+02 -0.10361414033E+02  0.31468276629E+02  0.40009245064E+02  0.17770000000E+01 0.  1.
         15    1    1    2    0    0  0.38273540939E+02  0.85735444294E+01  0.34634670824E+02  0.52355398501E+02  0.17770000000E+01 0. -1.
</event>
<event>
 6    1  0.3836009E-003  0.5048661E+03  0.7546771E-02  0.9388987E-01
        -11   -1    0    0    0    0  0.00000000000E+00  0.00000000000E+00  0.50000000000E+03  0.50000000000E+03  0.00000000000E+00 0. -1.
         11   -1    0    0    0    0 -0.00000000000E+00 -0.00000000000E+00 -0.50000000000E+03  0.50000000000E+03  0.00000000000E+00 0. -1.
        -11    1    1    2    0    0 -0.76091857564E+01 -0.33770445726E+01  0.49506388878E+03  0.49513387898E+03  0.00000000000E+00 0. -1.
         11    1    1    2    0    0  0.16332808209E+02  0.97453961178E+01 -0.40575630747E+03  0.40620181489E+03  0.00000000000E+00 0. -1.
        -15    1    1    2    0    0  0.71794884317E+00  0.72013808204E+01  0.36731225230E+00  0.74610980125E+01  0.17770000000E+01 0. -1.
         15    1    1    2    0    0 -0.94415712956E+01 -0.13569732366E+02 -0.89674893566E+02  0.91203208113E+02  0.17770000000E+01 0. -1.
</event>
<event>
 6    1  0.3836009E-003  0.5003860E+03  0.7546771E-02  0.9398946E-01
        -11   -1    0    0    0    0  0.00000000000E+00  0.00000000000E+00  0.50000000000E+03  0.50000000000E+03  0.00000000000E+00 0. -1.
         11   -1    0    0    0    0 -0.00000000000E+00 -0.00000000000E+00 -0.50000000000E+03  0.50000000000E+03  0.00000000000E+00 0.  1.
        -11    1    1    2    0    0 -0.65808669386E+01 -0.39429375998E+01  0.39489673518E+03  0.39497124709E+03  0.00000000000E+00 0. -1.
         11    1    1    2    0    0  0.78451095199E+01  0.25892488868E+01 -0.49954567623E+03  0.49961398358E+03  0.00000000000E+00 0.  1.
        -15    1    1    2    0    0  0.30369439402E+00  0.50064851645E+01  0.89348973752E+02  0.89507284416E+02  0.17770000000E+01 0. -1.
         15    1    1    2    0    0 -0.15679369753E+01 -0.36527964514E+01  0.15299967293E+02  0.15907484918E+02  0.17770000000E+01 0.  1.
</event>
<event>
 6    1  0.3836009E-003  0.5002964E+03  0.7546771E-02  0.9399147E-01
        -11   -1    0    0    0    0  0.00000000000E+00  0.00000000000E+00  0.50000000000E+03  0.50000000000E+03  0.00000000000E+00 0.  1.
         11   -1    0    0    0    0 -0.00000000000E+00 -0.00000000000E+00 -0.50000000000E+03  0.50000000000E+03  0.00000000000E+00 0. -1.
        -11    1    1    2    0    0  0.37837767315E+01  0.35942438212E+01  0.21980851892E+03  0.21987046310E+03  0.00000000000E+00 0.  1.
         11    1    1    2    0    0  0.16963129195E+01  0.11160553004E+02 -0.49957605107E+03  0.49970357836E+03  0.00000000000E+00 0. -1.
        -15    1    1    2    0    0 -0.27731652268E+01 -0.30632689421E+01  0.15610219582E+03  0.15616698541E+03  0.17770000000E+01 0.  1.
         15    1    1    2    0    0 -0.27069244242E+01 -0.11691527883E+02  0.12366533634E+03  0.12425897313E+03  0.17770000000E+01 0. -1.
</event>
<event>
 6    1  0.3836009E-003  0.5204548E+03  0.7546771E-02  0.9355169E-01
        -11   -1    0    0    0    0  0.00000000000E+00  0.00000000000E+00  0.50000000000E+03  0.50000000000E+03  0.00000000000E+00 0.  1.
         11   -1    0    0    0    0 -0.00000000000E+00 -0.00000000000E+00 -0.50000000000E+03  0.50000000000E+03  0.00000000000E+00 0.  1.
        -11    1    1    2    0    0 -0.16634357356E+01  0.26401491759E+02  0.47881498544E+03  0.47954519710E+03  0.00000000000E+00 0.  1.
         11    1    1    2    0    0 -0.34618939388E+02  0.69269165079E+01 -0.38945262371E+03  0.39104961227E+03  0.00000000000E+00 0.  1.
        -15    1    1    2    0    0  0.23730345126E+02 -0.18154994622E+02 -0.10175790766E+03  0.10606866932E+03  0.17770000000E+01 0.  1.
         15    1    1    2    0    0  0.12552029998E+02 -0.15173413645E+02  0.12395545945E+02  0.23336521312E+02  0.17770000000E+01 0. -1.
</event>
<event>
 6    1  0.3836009E-003  0.5038991E+03  0.7546771E-02  0.9391127E-01
        -11   -1    0    0    0    0  0.00000000000E+00  0.00000000000E+00  0.50000000000E+03  0.50000000000E+03  0.00000000000E+00 0. -1.
         11   -1    0    0    0    0 -0.00000000000E+00 -0.00000000000E+00 -0.50000000000E+03  0.50000000000E+03  0.00000000000E+00 0. -1.
        -11    1    1    2    0    0  0.11130102282E+02 -0.12248460124E+00  0.49597605573E+03  0.49610093936E+03  0.00000000000E+00 0. -1.
         11    1    1    2    0    0 -0.12293388387E+02  0.44861178203E+01 -0.42426093219E+03  0.42446270889E+03  0.00000000000E+00 0. -1.
        -15    1    1    2    0    0 -0.64167356130E+01  0.88394340839E+00  0.38480484915E+00  0.67276783253E+01  0.17770000000E+01 0. -1.
         15    1    1    2    0    0  0.75800217177E+01 -0.52475766275E+01 -0.72099928384E+02  0.72708673428E+02  0.17770000000E+01 0.  1.
</event>
<event>
 6    1  0.3836009E-003  0.4816493E+03  0.7546771E-02  0.9441834E-01
        -11   -1    0    0    0    0  0.00000000000E+00  0.00000000000E+00  0.50000000000E+03  0.50000000000E+03  0.00000000000E+00 0. -1.
         11   -1    0    0    0    0 -0.00000000000E+00 -0.00000000000E+00 -0.50000000000E+03  0.50000000000E+03  0.00000000000E+00 0.  1.
        -11    1    1    2    0    0  0.27230940817E+02  0.10574237891E+02  0.48621625555E+03  0.48709299503E+03  0.00000000000E+00 0. -1.
         11    1    1    2    0    0 -0.55058465318E+01 -0.10741276002E+02 -0.47634822577E+03  0.47650112439E+03  0.00000000000E+00 0.  1.
        -15    1    1    2    0    0 -0.47749734619E+01  0.10554151319E+02 -0.11449935310E+02  0.16384420321E+02  0.17770000000E+01 0. -1.
         15    1    1    2    0    0 -0.16950120823E+02 -0.10387113208E+02  0.15819055292E+01  0.20021460257E+02  0.17770000000E+01 0.  1.
</event>
<event>
 6    1  0.3836009E-003  0.5016408E+03  0.7546771E-02  0.9396146E-01
        -11   -1    0    0    0    0  0.00000000000E+00  0.00000000000E+00  0.50000000000E+03  0.50000000000E+03  0.00000000000E+00 0. -1.
         11   -1    0    0    0    0 -0.00000000000E+00 -0.00000000000E+00 -0.50000000000E+03  0.50000000000E+03  0.00000000000E+00 0. -1.
        -11    1    1    2    0    0  0.83739847994E+01 -0.12132375653E+01  0.36217344036E+03  0.36227226842E+03  0.00000000000E+00 0. -1.
         11    1    1    2    0    0 -0.24459494405E+01 -0.84551207722E+01 -0.49828143414E+03  0.49835916701E+03  0.00000000000E+00 0. -1.
        -15    1    1    2    0    0 -0.97146441104E+01  0.77948570902E+01  0.23403811912E+02  0.26571229709E+02  0.17770000000E+01 0. -1.
         15    1    1    2    0    0  0.37866087516E+01  0.18735012473E+01  0.11270418187E+03  0.11279733486E+03  0.17770000000E+01 0.  1.
</event>
<event>
 6    1  0.3836009E-003  0.5396507E+03  0.7546771E-02  0.9315213E-01
        -11   -1    0    0    0    0  0.00000000000E+00  0.00000000000E+00  0.50000000000E+03  0.50000000000E+03  0.00000000000E+00 0. -1.
         11   -1    0    0    0    0 -0.00000000000E+00 -0.00000000000E+00 -0.50000000000E+03  0.50000000000E+03  0.00000000000E+00 0.  1.
        -11    1    1    2    0    0  0.90015754219E+01 -0.77533542012E+01  0.40063939211E+03  0.40081550041E+03  0.00000000000E+00 0. -1.
         11    1    1    2    0    0  0.93354388042E+01 -0.14413592993E+02 -0.46002891658E+03  0.46034933059E+03  0.00000000000E+00 0.  1.
        -15    1    1    2    0    0 -0.11626822478E+02  0.90135184751E+01  0.97138361402E+02  0.98262126484E+02  0.17770000000E+01 0.  1.
         15    1    1    2    0    0 -0.67101917484E+01  0.13153428719E+02 -0.37748836928E+02  0.40573042513E+02  0.17770000000E+01 0.  1.
</event>
<event>
 6    1  0.3836009E-003  0.5033044E+03  0.7546771E-02  0.9392446E-01
        -11   -1    0    0    0    0  0.00000000000E+00  0.00000000000E+00  0.50000000000E+03  0.50000000000E+03  0.00000000000E+00 0.  1.
         11   -1    0    0    0    0 -0.00000000000E+00 -0.00000000000E+00 -0.50000000000E+03  0.50000000000E+03  0.00000000000E+00 0. -1.
        -11    1    1    2    0    0 -0.36215306386E+01 -0.28673912043E+01  0.33728648461E+03  0.33731811412E+03  0.00000000000E+00 0.  1.
         11    1    1    2    0    0 -0.69660308757E+01 -0.32565272099E+02 -0.49557792454E+03  0.49669558265E+03  0.00000000000E+00 0. -1.
        -15    1    1    2    0    0  0.54898030001E+01  0.25805045420E+02  0.14964983016E+03  0.15196798249E+03  0.17770000000E+01 0. -1.
         15    1    1    2    0    0  0.50977585143E+01  0.96276178839E+01  0.86416097713E+01  0.14018320742E+02  0.17770000000E+01 0.  1.
</event>
<event>
 6    1  0.3836009E-003  0.5124082E+03  0.7546771E-02  0.9372466E-01
        -11   -1    0    0    0    0  0.00000000000E+00  0.00000000000E+00  0.50000000000E+03  0.50000000000E+03  0.00000000000E+00 0.  1.
         11   -1    0    0    0    0 -0.00000000000E+00 -0.00000000000E+00 -0.50000000000E+03  0.50000000000E+03  0.00000000000E+00 0. -1.
        -11    1    1    2    0    0  0.14408292376E+02  0.12190174481E+02  0.45535391945E+03  0.45574487513E+03  0.00000000000E+00 0.  1.
         11    1    1    2    0    0 -0.88622599077E+01 -0.60233737495E+01 -0.48747401130E+03  0.48759176816E+03  0.00000000000E+00 0. -1.
        -15    1    1    2    0    0 -0.10961753863E+02 -0.12779209084E+02  0.40910079533E+02  0.44274829971E+02  0.17770000000E+01 0.  1.
         15    1    1    2    0    0  0.54157213944E+01  0.66124083515E+01 -0.87899876880E+01  0.12388526748E+02  0.17770000000E+01 0. -1.
</event>
<event>
 6    1  0.3836009E-003  0.5102494E+03  0.7546771E-02  0.9377163E-01
        -11   -1    0    0    0    0  0.00000000000E+00  0.00000000000E+00  0.50000000000E+03  0.50000000000E+03  0.00000000000E+00 0. -1.
         11   -1    0    0    0    0 -0.00000000000E+00 -0.00000000000E+00 -0.50000000000E+03  0.50000000000E+03  0.00000000000E+00 0.  1.
        -11    1    1    2    0    0  0.10299148145E+02  0.43537770055E+01  0.43357535793E+03  0.43371951631E+03  0.00000000000E+00 0. -1.
         11    1    1    2    0    0  0.10634090016E+02 -0.99212912691E+00 -0.48963411710E+03  0.48975058634E+03  0.00000000000E+00 0.  1.
        -15    1    1    2    0    0 -0.21240482209E+02  0.36510917840E+01  0.62933508101E+02  0.66545268251E+02  0.17770000000E+01 0.  1.
         15    1    1    2    0    0  0.30724404818E+00 -0.70127396626E+01 -0.68747489265E+01  0.99846291009E+01  0.17770000000E+01 0. -1.
</event>
<event>
 6    1  0.3836009E-003  0.5001476E+03  0.7546771E-02  0.9399480E-01
        -11   -1    0    0    0    0  0.00000000000E+00  0.00000000000E+00  0.50000000000E+03  0.50000000000E+03  0.00000000000E+00 0.  1.
         11   -1    0    0    0    0 -0.00000000000E+00 -0.00000000000E+00 -0.50000000000E+03  0.50000000000E+03  0.00000000000E+00 0. -1.
        -11    1    1    2    0    0  0.29191709610E+01 -0.23198431772E+01  0.21416345207E+03  0.21419590901E+03  0.00000000000E+00 0.  1.
         11    1    1    2    0    0 -0.36150003891E+01 -0.63851458775E+01 -0.49979854583E+03  0.49985240294E+03  0.00000000000E+00 0. -1.
        -15    1    1    2    0    0 -0.15615514772E+01  0.15084183478E+01  0.18408737110E+03  0.18410874965E+03  0.17770000000E+01 0.  1.
         15    1    1    2    0    0  0.22573809053E+01  0.71965707069E+01  0.10154772265E+03  0.10184293841E+03  0.17770000000E+01 0. -1.
</event>
<event>
 6    1  0.3836009E-003  0.4825177E+03  0.7546771E-02  0.9439800E-01
        -11   -1    0    0    0    0  0.00000000000E+00  0.00000000000E+00  0.50000000000E+03  0.50000000000E+03  0.00000000000E+00 0.  1.
         11   -1    0    0    0    0 -0.00000000000E+00 -0.00000000000E+00 -0.50000000000E+03  0.50000000000E+03  0.00000000000E+00 0.  1.
        -11    1    1    2    0    0  0.15549495947E+02  0.80630563544E+01  0.48251894765E+03  0.48283675765E+03  0.00000000000E+00 0.  1.
         11    1    1    2    0    0 -0.63168632091E+01  0.19760966543E+01 -0.48224955310E+03  0.48229497113E+03  0.00000000000E+00 0.  1.
        -15    1    1    2    0    0 -0.15943747608E+02 -0.14673868674E+02  0.79541097258E+01  0.23150617707E+02  0.17770000000E+01 0.  1.
         15    1    1    2    0    0  0.67111148701E+01  0.46347156654E+01 -0.82235042759E+01  0.11717653506E+02  0.17770000000E+01 0. -1.
</event>
<event>
 6    1  0.3836009E-003  0.5073011E+03  0.7546771E-02  0.9383619E-01
        -11   -1    0    0    0    0  0.00000000000E+00  0.00000000000E+00  0.50000000000E+03  0.50000000000E+03  0.00000000000E+00 0. -1.
         11   -1    0    0    0    0 -0.00000000000E+00 -0.00000000000E+00 -0.50000000000E+03  0.50000000000E+03  0.00000000000E+00 0. -1.
        -11    1    1    2    0    0 -0.29393959243E+02 -0.16231069027E+02  0.49155337440E+03  0.49269886576E+03  0.00000000000E+00 0. -1.
         11    1    1    2    0    0  0.19326618297E+00 -0.36420352681E+01 -0.20867137589E+03  0.20870324600E+03  0.00000000000E+00 0. -1.
        -15    1    1    2    0    0  0.42695573559E+01  0.42438750158E+02 -0.62684643940E+02  0.75840615437E+02  0.17770000000E+01 0.  1.
         15    1    1    2    0    0  0.24931135704E+02 -0.22565645862E+02 -0.22019735456E+03  0.22275727280E+03  0.17770000000E+01 0. -1.
</event>
<event>
 6    1  0.3836009E-003  0.5003577E+03  0.7546771E-02  0.9399010E-01
        -11   -1    0    0    0    0  0.00000000000E+00  0.00000000000E+00  0.50000000000E+03  0.50000000000E+03  0.00000000000E+00 0.  1.
         11   -1    0    0    0    0 -0.00000000000E+00 -0.00000000000E+00 -0.50000000000E+03  0.50000000000E+03  0.00000000000E+00 0.  1.
        -11    1    1    2    0    0 -0.16067412854E+02  0.49583013139E+01  0.49935922169E+03  0.49964225081E+03  0.00000000000E+00 0.  1.
         11    1    1    2    0    0  0.74909373099E+01 -0.27462301697E+01 -0.32288628646E+03  0.32298484470E+03  0.00000000000E+00 0.  1.
        -15    1    1    2    0    0  0.14485185679E+01  0.12704791123E+01 -0.13915514112E+03  0.13917982379E+03  0.17770000000E+01 0.  1.
         15    1    1    2    0    0  0.71279569766E+01 -0.34825502566E+01 -0.37317794108E+02  0.38193080696E+02  0.17770000000E+01 0. -1.
</event>
<event>
 6    1  0.3836009E-003  0.5329125E+03  0.7546771E-02  0.9329035E-01
        -11   -1    0    0    0    0  0.00000000000E+00  0.00000000000E+00  0.50000000000E+03  0.50000000000E+03  0.00000000000E+00 0. -1.
         11   -1    0    0    0    0 -0.00000000000E+00 -0.00000000000E+00 -0.50000000000E+03  0.50000000000E+03  0.00000000000E+00 0.  1.
        -11    1    1    2    0    0  0.16910885590E+02  0.10044770030E+02  0.40174502526E+03  0.40222623084E+03  0.00000000000E+00 0. -1.
         11    1    1    2    0    0 -0.60767556823E+01 -0.80641097675E+01 -0.46697834978E+03  0.46708750356E+03  0.00000000000E+00 0.  1.
        -15    1    1    2    0    0 -0.20803216286E+02 -0.13236429309E+02  0.94529753290E+02  0.97708796199E+02  0.17770000000E+01 0. -1.
         15    1    1    2    0    0  0.99690863787E+01  0.11255769046E+02 -0.29296428771E+02  0.32977469396E+02  0.17770000000E+01 0.  1.
</event>
<event>
 6    1  0.3836009E-003  0.5110308E+03  0.7546771E-02  0.9375460E-01
        -11   -1    0    0    0    0  0.00000000000E+00  0.00000000000E+00  0.50000000000E+03  0.50000000000E+03  0.00000000000E+00 0.  1.
         11   -1    0    0    0    0 -0.00000000000E+00 -0.00000000000E+00 -0.50000000000E+03  0.50000000000E+03  0.00000000000E+00 0. -1.
        -11    1    1    2    0    0  0.74105290461E+01 -0.44162274801E+01  0.48889310802E+03  0.48896921179E+03  0.00000000000E+00 0.  1.
         11    1    1    2    0    0  0.11369414603E+02 -0.12995431366E+02 -0.43133057758E+03  0.43167604981E+03  0.00000000000E+00 0. -1.
        -15    1    1    2    0    0 -0.11430428498E+02  0.52824552207E+01 -0.62843539851E+02  0.64117292978E+02  0.17770000000E+01 0. -1.
         15    1    1    2    0    0 -0.73495151513E+01  0.12129203626E+02  0.52810094149E+01  0.15237445422E+02  0.17770000000E+01 0.  1.
</event>
<event>
 6    1  0.3836009E-003  0.4928306E+03  0.7546771E-02  0.9415996E-01
        -11   -1    0    0    0    0  0.00000000000E+00  0.00000000000E+00  0.50000000000E+03  0.50000000000E+03  0.00000000000E+00 0. -1.
         11   -1    0    0    0    0 -0.00000000000E+00 -0.00000000000E+00 -0.50000000000E+03  0.50000000000E+03  0.00000000000E+00 0. -1.
        -11    1    1    2    0    0  0.16803645978E+00  0.13571057506E+01  0.15684971058E+02  0.15744468532E+02  0.00000000000E+00 0. -1.
         11    1    1    2    0    0 -0.46879562870E+01 -0.81792215271E+01 -0.49911301279E+03  0.49920203940E+03  0.00000000000E+00 0. -1.
        -15    1    1    2    0    0  0.43257923565E+01  0.14001327934E+02  0.69089159560E+02  0.70648562343E+02  0.17770000000E+01 0.  1.
         15    1    1    2    0    0  0.19412747068E+00 -0.71792121578E+01  0.41433888217E+03  0.41440492973E+03  0.17770000000E+01 0. -1.
</event>
<event>
 6    1  0.3836009E-003  0.5084501E+03  0.7546771E-02  0.9381098E-01
        -11   -1    0    0    0    0  0.00000000000E+00  0.00000000000E+00  0.50000000000E+03  0.50000000000E+03  0.00000000000E+00 0. -1.
         11   -1    0    0    0    0 -0.00000000000E+00 -0.00000000000E+00 -0.50000000000E+03  0.50000000000E+03  0.00000000000E+00 0. -1.
        -11    1    1    2    0    0  0.52860111399E+01  0.44831697409E+01  0.46124510325E+03  0.46129717753E+03  0.00000000000E+00 0. -1.
         11    1    1    2    0    0 -0.12321520532E+02 -0.31498953334E+01 -0.49138531028E+03  0.49154986000E+03  0.00000000000E+00 0. -1.
        -15    1    1    2    0    0  0.92076106741E+01  0.54438108906E+01 -0.45035618196E+01  0.11741165590E+02  0.17770000000E+01 0.  1.
         15    1    1    2    0    0 -0.21721012819E+01 -0.67770852981E+01  0.34643768852E+02  0.35411796882E+02  0.17770000000E+01 0. -1.
</event>
<event>
 6    1  0.3836009E-003  0.4798421E+03  0.7546771E-02  0.9446080E-01
        -11   -1    0    0    0    0  0.00000000000E+00  0.00000000000E+00  0.50000000000E+03  0.50000000000E+03  0.00000000000E+00 0. -1.
         11   -1    0    0    0    0 -0.00000000000E+00 -0.00000000000E+00 -0.50000000000E+03  0.50000000000E+03  0.00000000000E+00 0.  1.
        -11    1    1    2    0    0 -0.57033164723E+01 -0.16170197504E+02  0.48724367476E+03  0.48754528169E+03  0.00000000000E+00 0. -1.
         11    1    1    2    0    0  0.79099447152E+01 -0.13371966287E+02 -0.47245459003E+03  0.47270997064E+03  0.00000000000E+00 0.  1.
        -15    1    1    2    0    0 -0.73202079600E+01  0.72360669063E+00 -0.31300469658E+01  0.81892596875E+01  0.17770000000E+01 0. -1.
         15    1    1    2    0    0  0.51135797171E+01  0.28818557100E+02 -0.11659037770E+02  0.31555487978E+02  0.17770000000E+01 0.  1.
</event>
<event>
 6    1  0.3836009E-003  0.5022436E+03  0.7546771E-02  0.9394803E-01
        -11   -1    0    0    0    0  0.00000000000E+00  0.00000000000E+00  0.50000000000E+03  0.50000000000E+03  0.00000000000E+00 0. -1.
         11   -1    0    0    0    0 -0.00000000000E+00 -0.00000000000E+00 -0.50000000000E+03  0.50000000000E+03  0.00000000000E+00 0. -1.
        -11    1    1    2    0    0  0.18118402934E+01 -0.51119595091E+01  0.26672269053E+03  0.26677782617E+03  0.00000000000E+00 0. -1.
         11    1    1    2    0    0 -0.45106770004E+02  0.46672365548E+01 -0.49568644319E+03  0.49775642011E+03  0.00000000000E+00 0. -1.
        -15    1    1    2    0    0  0.19911838088E+02  0.12463570023E+02  0.15840100646E+03  0.16014324353E+03  0.17770000000E+01 0.  1.
         15    1    1    2    0    0  0.23383091622E+02 -0.12018847069E+02  0.70562746209E+02  0.75322510183E+02  0.17770000000E+01 0. -1.
</event>
<event>
 6    1  0.3836009E-003  0.4769782E+03  0.7546771E-02  0.9452849E-01
        -11   -1    0    0    0    0  0.00000000000E+00  0.00000000000E+00  0.50000000000E+03  0.50000000000E+03  0.00000000000E+00 0.  1.
         11   -1    0    0    0    0 -0.00000000000E+00 -0.00000000000E+00 -0.50000000000E+03  0.50000000000E+03  0.00000000000E+00 0.  1.
        -11    1    1    2    0    0  0.17425060048E+02 -0.37010959870E+01  0.47202293104E+03  0.47235895064E+03  0.00000000000E+00 0.  1.
         11    1    1    2    0    0  0.23561052938E+01  0.95161042172E+01 -0.48177034511E+03  0.48187007886E+03  0.00000000000E+00 0.  1.
        -15    1    1    2    0    0 -0.14528548383E+02 -0.40045816497E+00  0.24823091473E+02  0.28819831438E+02  0.17770000000E+01 0. -1.
         15    1    1    2    0    0 -0.52526169588E+01 -0.54145500652E+01 -0.15075677402E+02  0.16951139060E+02  0.17770000000E+01 0.  1.
</event>
<event>
 6    1  0.3836009E-003  0.5236248E+03  0.7546771E-02  0.9348446E-01
        -11   -1    0    0    0    0  0.00000000000E+00  0.00000000000E+00  0.50000000000E+03  0.50000000000E+03  0.00000000000E+00 0. -1.
         11   -1    0    0    0    0 -0.00000000000E+00 -0.00000000000E+00 -0.50000000000E+03  0.50000000000E+03  0.00000000000E+00 0. -1.
        -11    1    1    2    0    0 -0.19082618037E+01  0.14726341101E+02  0.46250701371E+03  0.46274533420E+03  0.00000000000E+00 0. -1.
         11    1    1    2    0    0  0.52988761387E+01 -0.59037069398E+01 -0.47630918303E+03  0.47637524042E+03  0.00000000000E+00 0. -1.
        -15    1    1    2    0    0  0.19179344747E+01 -0.11999098294E+02  0.35858505649E+02  0.37903126374E+02  0.17770000000E+01 0.  1.
         15    1    1    2    0    0 -0.53085488097E+01  0.31764641333E+01 -0.22056336329E+02  0.22976299008E+02  0.17770000000E+01 0.  1.
</event>
<event>
 6    1  0.3836009E-003  0.4928354E+03  0.7546771E-02  0.9415985E-01
        -11   -1    0    0    0    0  0.00000000000E+00  0.00000000000E+00  0.50000000000E+03  0.50000000000E+03  0.00000000000E+00 0. -1.
         11   -1    0    0    0    0 -0.00000000000E+00 -0.00000000000E+00 -0.50000000000E+03  0.50000000000E+03  0.00000000000E+00 0.  1.
        -11    1    1    2    0    0 -0.14156669375E+01 -0.87912614711E+01  0.49202900283E+03  0.49210957115E+03  0.00000000000E+00 0. -1.
         11    1    1    2    0    0  0.32968298667E+01  0.10559486488E+02 -0.49344167648E+03  0.49356565919E+03  0.00000000000E+00 0.  1.
        -15    1    1    2    0    0 -0.50170256824E+01 -0.38208596400E+01  0.54605683098E+01  0.85290708962E+01  0.17770000000E+01 0. -1.
         15    1    1    2    0    0  0.31358627532E+01  0.20526346236E+01 -0.40478946582E+01  0.57956987731E+01  0.17770000000E+01 0.  1.
</event>
<event>
 6    1  0.3836009E-003  0.5017555E+03  0.7546771E-02  0.9395890E-01
        -11   -1    0    0    0    0  0.00000000000E+00  0.00000000000E+00  0.50000000000E+03  0.50000000000E+03  0.00000000000E+00 0.  1.
         11   -1    0    0    0    0 -0.00000000000E+00 -0.00000000000E+00 -0.50000000000E+03  0.50000000000E+03  0.00000000000E+00 0. -1.
        -11    1    1    2    0    0  0.74013836057E+01 -0.15113551841E+01  0.49818726316E+03  0.49824453218E+03  0.00000000000E+00 0.  1.
         11    1    1    2    0    0 -0.13252684854E+01 -0.65881251628E+01 -0.42740844982E+03  0.42746127627E+03  0.00000000000E+00 0. -1.
        -15    1    1    2    0    0  0.72094459898E+00  0.71557872397E+00 -0.57588843698E+02  0.57625206824E+02  0.17770000000E+01 0. -1.
         15    1    1    2    0    0 -0.67970597193E+01  0.73839016230E+01 -0.13189969636E+02  0.16668984732E+02  0.17770000000E+01 0.  1.
</event>
<event>
 6    1  0.3836009E-003  0.5414695E+03  0.7546771E-02  0.9311519E-01
        -11   -1    0    0    0    0  0.00000000000E+00  0.00000000000E+00  0.50000000000E+03  0.50000000000E+03  0.00000000000E+00 0. -1.
         11   -1    0    0    0    0 -0.00000000000E+00 -0.00000000000E+00 -0.50000000000E+03  0.50000000000E+03  0.00000000000E+00 0.  1.
        -11    1    1    2    0    0 -0.28676766862E+01 -0.83182731025E+01  0.36519700699E+03  0.36530298541E+03  0.00000000000E+00 0. -1.
         11    1    1    2    0    0 -0.32067134692E+02  0.82812894097E+01 -0.45733289274E+03  0.45853053951E+03  0.00000000000E+00 0.  1.
        -15    1    1    2    0    0 -0.15749411768E+01  0.20051317127E+02 -0.36081337356E+02  0.41346782132E+02  0.17770000000E+01 0. -1.
         15    1    1    2    0    0  0.36509752555E+02 -0.20014333434E+02  0.12821722311E+03  0.13481969295E+03  0.17770000000E+01 0.  1.
</event>
<event>
 6    1  0.4905404E-003  0.5012691E+03  0.7546771E-02  0.9396975E-01
        -11   -1    0    0    0    0  0.00000000000E+00  0.00000000000E+00  0.50000000000E+03  0.50000000000E+03  0.00000000000E+00 0. -1.
         11   -1    0    0    0    0 -0.00000000000E+00 -0.00000000000E+00 -0.50000000000E+03  0.50000000000E+03  0.00000000000E+00 0.  1.
        -11    1    1    2    0    0 -0.31922312982E+00 -0.72442924429E+01  0.49867822458E+03  0.49873094284E+03  0.00000000000E+00 0. -1.
         11    1    1    2    0    0 -0.42204878769E+01  0.42545393473E+01 -0.41562407911E+03  0.41566728132E+03  0.00000000000E+00 0.  1.
        -15    1    1    2    0    0  0.40057980989E+01 -0.36834025850E+01 -0.73905869061E+02  0.74127249266E+02  0.17770000000E+01 0. -1.
         15    1    1    2    0    0  0.53391290774E+00  0.66731556806E+01 -0.91482764094E+01  0.11474526569E+02  0.17770000000E+01 0.  1.
</event>
<event>
 6    1  0.3836009E-003  0.5033229E+03  0.7546771E-02  0.9392405E-01
        -11   -1    0    0    0    0  0.00000000000E+00  0.00000000000E+00  0.50000000000E+03  0.50000000000E+03  0.00000000000E+00 0.  1.
         11   -1    0    0    0    0 -0.00000000000E+00 -0.00000000000E+00 -0.50000000000E+03  0.50000000000E+03  0.00000000000E+00 0. -1.
        -11    1    1    2    0    0 -0.24064973104E+01  0.19003248783E+02  0.37935396917E+03  0.37983726597E+03  0.00000000000E+00 0.  1.
         11    1    1    2    0    0  0.82155850344E+01 -0.19668556548E+01 -0.49660526689E+03  0.49667711389E+03  0.00000000000E+00 0. -1.
        -15    1    1    2    0    0  0.51680439148E+01 -0.12677279402E+02  0.10657570627E+03  0.10746609226E+03  0.17770000000E+01 0.  1.
         15    1    1    2    0    0 -0.10977131639E+02 -0.43591137261E+01  0.10675591460E+02  0.16019527880E+02  0.17770000000E+01 0. -1.
</event>
<event>
 6    1  0.3836009E-003  0.5012646E+03  0.7546771E-02  0.9396985E-01
        -11   -1    0    0    0    0  0.00000000000E+00  0.00000000000E+00  0.50000000000E+03  0.50000000000E+03  0.00000000000E+00 0.  1.
         11   -1    0    0    0    0 -0.00000000000E+00 -0.00000000000E+00 -0.50000000000E+03  0.50000000000E+03  0.00000000000E+00 0. -1.
        -11    1    1    2    0    0  0.10779453269E+01 -0.10389253017E+02  0.49862605288E+03  0.49873544004E+03  0.00000000000E+00 0.  1.
         11    1    1    2    0    0  0.10323489987E+02 -0.27482142202E+01 -0.37219252370E+03  0.37234580946E+03  0.00000000000E+00 0. -1.
        -15    1    1    2    0    0  0.83092771022E-01  0.39035247576E+01 -0.50283536448E+01  0.66095748214E+01  0.17770000000E+01 0.  1.
         15    1    1    2    0    0 -0.11484528085E+02  0.92339424799E+01 -0.12140517553E+03  0.12230917568E+03  0.17770000000E+01 0. -1.
</event>
<event>
 6    1  0.3836009E-003  0.5028688E+03  0.7546771E-02  0.9393413E-01
        -11   -1    0    0    0    0  0.00000000000E+00  0.00000000000E+00  0.50000000000E+03  0.50000000000E+03  0.00000000000E+00 0.  1.
         11   -1    0    0    0    0 -0.00000000000E+00 -0.00000000000E+00 -0.50000000000E+03  0.50000000000E+03  0.00000000000E+00 0. -1.
        -11    1    1    2    0    0  0.64423322961E+01 -0.54316384722E+01  0.49705973931E+03  0.49713116055E+03  0.00000000000E+00 0.  1.
         11    1    1    2    0    0  0.17331031693E+01 -0.26523571151E+02 -0.31240597054E+03  0.31353467735E+03  0.00000000000E+00 0. -1.
        -15    1    1    2    0    0 -0.15867960918E+02  0.24979509798E+02 -0.10937436555E+03  0.11332112629E+03  0.17770000000E+01 0.  1.
         15    1    1    2    0    0  0.76925254524E+01  0.69756998251E+01 -0.75279403220E+02  0.76013035816E+02  0.17770000000E+01 0. -1.
</event>
<event>
 6    1  0.3836009E-003  0.5182239E+03  0.7546771E-02  0.9359931E-01
        -11   -1    0    0    0    0  0.00000000000E+00  0.00000000000E+00  0.50000000000E+03  0.50000000000E+03  0.00000000000E+00 0.  1.
         11   -1    0    0    0    0 -0.00000000000E+00 -0.00000000000E+00 -0.50000000000E+03  0.50000000000E+03  0.00000000000E+00 0.  1.
        -11    1    1    2    0    0 -0.17353797091E+02 -0.16193928726E+02  0.48119101471E+03  0.48177607894E+03  0.00000000000E+00 0.  1.
         11    1    1    2    0    0  0.10819375955E+02  0.92505542110E+01 -0.39476085580E+03  0.39501742357E+03  0.00000000000E+00 0.  1.
        -15    1    1    2    0    0  0.44139680197E+02 -0.71228271466E+01 -0.60983709810E+02  0.75638724379E+02  0.17770000000E+01 0. -1.
         15    1    1    2    0    0 -0.37605259061E+02  0.14066201661E+02 -0.25446449099E+02  0.47567773113E+02  0.17770000000E+01 0.  1.
</event>
<event>
 6    1  0.3836009E-003  0.5104827E+03  0.7546771E-02  0.9376655E-01
        -11   -1    0    0    0    0  0.00000000000E+00  0.00000000000E+00  0.50000000000E+03  0.50000000000E+03  0.00000000000E+00 0.  1.
         11   -1    0    0    0    0 -0.00000000000E+00 -0.00000000000E+00 -0.50000000000E+03  0.50000000000E+03  0.00000000000E+00 0. -1.
        -11    1    1    2    0    0  0.55292929429E+01 -0.54077144711E+01  0.48945615434E+03  0.48951725555E+03  0.00000000000E+00 0.  1.
         11    1    1    2    0    0 -0.75671782463E+01 -0.13856847834E+02 -0.46517394497E+03  0.46544180463E+03  0.00000000000E+00 0. -1.
        -15    1    1    2    0    0  0.13953744774E+02  0.64006404706E+01 -0.22541746277E+02  0.27330628347E+02  0.17770000000E+01 0. -1.
         15    1    1    2    0    0 -0.11915859470E+02  0.12863921834E+02 -0.17404630980E+01  0.17710311479E+02  0.17770000000E+01 0.  1.
</event>
<event>
 6    1  0.3836009E-003  0.5055086E+03  0.7546771E-02  0.9387567E-01
        -11   -1    0    0    0    0  0.00000000000E+00  0.00000000000E+00  0.50000000000E+03  0.50000000000E+03  0.00000000000E+00 0. -1.
         11   -1    0    0    0    0 -0.00000000000E+00 -0.00000000000E+00 -0.50000000000E+03  0.50000000000E+03  0.00000000000E+00 0. -1.
        -11    1    1    2    0    0  0.13519821406E+02 -0.91610906847E+01  0.49422160863E+03  0.49449136453E+03  0.00000000000E+00 0. -1.
         11    1    1    2    0    0  0.37415284767E+01  0.22307559442E+02 -0.15513824691E+03  0.15677851224E+03  0.00000000000E+00 0. -1.
        -15    1    1    2    0    0  0.48337395216E+00 -0.41910999106E+02 -0.12169350699E+03  0.12872153226E+03  0.17770000000E+01 0.  1.
         15    1    1    2    0    0 -0.17744723835E+02  0.28764530349E+02 -0.21738985473E+03  0.22000859097E+03  0.17770000000E+01 0. -1.
</event>
<event>
 6    1  0.3836009E-003  0.5081630E+03  0.7546771E-02  0.9381727E-01
        -11   -1    0    0    0    0  0.00000000000E+00  0.00000000000E+00  0.50000000000E+03  0.50000000000E+03  0.00000000000E+00 0.  1.
         11   -1    0    0    0    0 -0.00000000000E+00 -0.00000000000E+00 -0.50000000000E+03  0.50000000000E+03  0.00000000000E+00 0. -1.
        -11    1    1    2    0    0  0.81318152201E+01  0.16532305695E+01  0.47828637005E+03  0.47835835037E+03  0.00000000000E+00 0.  1.
         11    1    1    2    0    0  0.19733044368E+01 -0.74133194860E+01 -0.49177716165E+03  0.49183699328E+03  0.00000000000E+00 0. -1.
        -15    1    1    2    0    0 -0.67413104543E+01 -0.13186195047E+01  0.18852846086E+02  0.20143772203E+02  0.17770000000E+01 0.  1.
         15    1    1    2    0    0 -0.33638092026E+01  0.70787084212E+01 -0.53620544881E+01  0.96608841519E+01  0.17770000000E+01 0. -1.
</event>
<event>
 6    1  0.3836009E-003  0.5000672E+03  0.7546771E-02  0.9399659E-01
        -11   -1    0    0    0    0  0.00000000000E+00  0.00000000000E+00  0.50000000000E+03  0.50000000000E+03  0.00000000000E+00 0. -1.
         11   -1    0    0    0    0 -0.00000000000E+00 -0.00000000000E+00 -0.50000000000E+03  0.50000000000E+03  0.00000000000E+00 0.  1.
        -11    1    1    2    0    0 -0.47551192155E+01 -0.73617056143E+01  0.49985598116E+03  0.49993280326E+03  0.00000000000E+00 0. -1.
         11    1    1    2    0    0  0.11303947981E+01 -0.10551521262E+00 -0.54683043553E+02  0.54694827709E+02  0.00000000000E+00 0.  1.
        -15    1    1    2    0    0  0.32069045083E+01  0.91185172093E+01 -0.26426808035E+03  0.26445076596E+03  0.17770000000E+01 0. -1.
         15    1    1    2    0    0  0.41781990908E+00 -0.16512963824E+01 -0.18090485726E+03  0.18092160308E+03  0.17770000000E+01 0.  1.
</event>
<event>
 6    1  0.3836009E-003  0.4813898E+03  0.7546771E-02  0.9442442E-01
        -11   -1    0    0    0    0  0.00000000000E+00  0.00000000000E+00  0.50000000000E+03  0.50000000000E+03  0.00000000000E+00 0.  1.
         11   -1    0    0    0    0 -0.00000000000E+00 -0.00000000000E+00 -0.50000000000E+03  0.50000000000E+03  0.00000000000E+00 0.  1.
        -11    1    1    2    0    0  0.31924523385E+01  0.59558065924E+01  0.48566230460E+03  0.48570931378E+03  0.00000000000E+00 0.  1.
         11    1    1    2    0    0  0.22773000304E+02 -0.66348470471E+00 -0.47693070774E+03  0.47747455402E+03  0.00000000000E+00 0.  1.
        -15    1    1    2    0    0 -0.19729263520E+02  0.20279307455E+01 -0.15234629601E+02  0.25072056362E+02  0.17770000000E+01 0. -1.
         15    1    1    2    0    0 -0.62361891229E+01 -0.73202526332E+01  0.65030327428E+01  0.11744075836E+02  0.17770000000E+01 0.  1.
</event>
<event>
 6    1  0.3836009E-003  0.5020077E+03  0.7546771E-02  0.9395329E-01
        -11   -1    0    0    0    0  0.00000000000E+00  0.00000000000E+00  0.50000000000E+03  0.50000000000E+03  0.00000000000E+00 0. -1.
         11   -1    0    0    0    0 -0.00000000000E+00 -0.00000000000E+00 -0.50000000000E+03  0.50000000000E+03  0.00000000000E+00 0. -1.
        -11    1    1    2    0    0 -0.20786425752E+01  0.44368691510E+01  0.27993427638E+03  0.27997715202E+03  0.00000000000E+00 0. -1.
         11    1    1    2    0    0  0.15875026654E+02 -0.69527096084E+01 -0.49769064722E+03  0.49799230614E+03  0.00000000000E+00 0. -1.
        -15    1    1    2    0    0  0.10134865901E+02 -0.22434930075E+01  0.14269195915E+03  0.14308005347E+03  0.17770000000E+01 0. -1.
         15    1    1    2    0    0 -0.23931249980E+02  0.47593334649E+01  0.75064411696E+02  0.78950488364E+02  0.17770000000E+01 0.  1.
</event>
<event>
 6    1  0.3836009E-003  0.5044842E+03  0.7546771E-02  0.9389832E-01
        -11   -1    0    0    0    0  0.00000000000E+00  0.00000000000E+00  0.50000000000E+03  0.50000000000E+03  0.00000000000E+00 0.  1.
         11   -1    0    0    0    0 -0.00000000000E+00 -0.00000000000E+00 -0.50000000000E+03  0.50000000000E+03  0.00000000000E+00 0. -1.
        -11    1    1    2    0    0 -0.38729361802E+01 -0.59097242068E+01  0.47118980533E+03  0.47124277938E+03  0.00000000000E+00 0.  1.
         11    1    1    2    0    0 -0.84142344193E+01 -0.16072984544E+01 -0.49544177271E+03  0.49551582507E+03  0.00000000000E+00 0. -1.
        -15    1    1    2    0    0  0.64511334713E+01  0.68871222631E+01  0.15514493803E+01  0.97269882446E+01  0.17770000000E+01 0. -1.
         15    1    1    2    0    0  0.58360371282E+01  0.62990039802E+00  0.22700518006E+02  0.23514407299E+02  0.17770000000E+01 0.  1.
</event>
<event>
 6    1  0.3836009E-003  0.5180271E+03  0.7546771E-02  0.9360352E-01
        -11   -1    0    0    0    0  0.00000000000E+00  0.00000000000E+00  0.50000000000E+03  0.50000000000E+03  0.00000000000E+00 0. -1.
         11   -1    0    0    0    0 -0.00000000000E+00 -0.00000000000E+00 -0.50000000000E+03  0.50000000000E+03  0.00000000000E+00 0.  1.
        -11    1    1    2    0    0 -0.32913858839E+01  0.62897910796E+01  0.48192065928E+03  0.48197294170E+03  0.00000000000E+00 0. -1.
         11    1    1    2    0    0  0.21232083120E+01  0.49256914772E+01 -0.32430610747E+03  0.32435046138E+03  0.00000000000E+00 0.  1.
        -15    1    1    2    0    0 -0.30411909120E+01 -0.67045968894E+01  0.17174199793E+02  0.18769958155E+02  0.17770000000E+01 0.  1.
         15    1    1    2    0    0  0.42093684838E+01 -0.45108856674E+01 -0.17478875160E+03  0.17490663877E+03  0.17770000000E+01 0. -1.
</event>
<event>
 6    1  0.3836009E-003  0.5006395E+03  0.7546771E-02  0.9398380E-01
        -11   -1    0    0    0    0  0.00000000000E+00  0.00000000000E+00  0.50000000000E+03  0.50000000000E+03  0.00000000000E+00 0.  1.
         11   -1    0    0    0    0 -0.00000000000E+00 -0.00000000000E+00 -0.50000000000E+03  0.50000000000E+03  0.00000000000E+00 0.  1.
        -11    1    1    2    0    0  0.27953678195E+01 -0.15244870391E+02  0.49911995501E+03  0.49936054074E+03  0.00000000000E+00 0.  1.
         11    1    1    2    0    0 -0.71454147406E+01  0.53893404954E+01 -0.18247775584E+03  0.18269710813E+03  0.00000000000E+00 0.  1.
        -15    1    1    2    0    0  0.10821719008E+02  0.63057110087E+01 -0.28899241911E+03  0.28926916120E+03  0.17770000000E+01 0.  1.
         15    1    1    2    0    0 -0.64716720868E+01  0.35498188865E+01 -0.27649780065E+02  0.28673189923E+02  0.17770000000E+01 0. -1.
</event>
<event>
 6    1  0.3836009E-003  0.5154187E+03  0.7546771E-02  0.9365955E-01
        -11   -1    0    0    0    0  0.00000000000E+00  0.00000000000E+00  0.50000000000E+03  0.50000000000E+03  0.00000000000E+00 0. -1.
         11   -1    0    0    0    0 -0.00000000000E+00 -0.00000000000E+00 -0.50000000000E+03  0.50000000000E+03  0.00000000000E+00 0. -1.
        -11    1    1    2    0    0  0.83685623729E+01 -0.13399803768E+02  0.32977585460E+03  0.33015405776E+03  0.00000000000E+00 0. -1.
         11    1    1    2    0    0  0.54191167112E+02  0.30114258102E+02 -0.48059906209E+03  0.48458127246E+03  0.00000000000E+00 0. -1.
        -15    1    1    2    0    0  0.41869981422E+01  0.18623253633E+02  0.32019445603E+01  0.19436221528E+02  0.17770000000E+01 0.  1.
         15    1    1    2    0    0 -0.66746727627E+02 -0.35337707968E+02  0.14762126293E+03  0.16582844826E+03  0.17770000000E+01 0. -1.
</event>
<event>
 6    1  0.3836009E-003  0.5140763E+03  0.7546771E-02  0.9368852E-01
        -11   -1    0    0    0    0  0.00000000000E+00  0.00000000000E+00  0.50000000000E+03  0.50000000000E+03  0.00000000000E+00 0.  1.
         11   -1    0    0    0    0 -0.00000000000E+00 -0.00000000000E+00 -0.50000000000E+03  0.50000000000E+03  0.00000000000E+00 0. -1.
        -11    1    1    2    0    0  0.11949488099E+02 -0.63562236596E+01  0.48573515777E+03  0.48592369292E+03  0.00000000000E+00 0.  1.
         11    1    1    2    0    0  0.21472329879E+02 -0.55110185082E+01 -0.30888966320E+03  0.30968412343E+03  0.00000000000E+00 0. -1.
        -15    1    1    2    0    0 -0.55217603453E+02  0.36080767996E+02 -0.14241378439E+03  0.15695747597E+03  0.17770000000E+01 0.  1.
         15    1    1    2    0    0  0.21795785475E+02 -0.24213525829E+02 -0.34431710183E+02  0.47434707680E+02  0.17770000000E+01 0. -1.
</event>
<event>
 6    1  0.3836009E-003  0.5025906E+03  0.7546771E-02  0.9394032E-01
        -11   -1    0    0    0    0  0.00000000000E+00  0.00000000000E+00  0.50000000000E+03  0.50000000000E+03  0.00000000000E+00 0.  1.
         11   -1    0    0    0    0 -0.00000000000E+00 -0.00000000000E+00 -0.50000000000E+03  0.50000000000E+03  0.00000000000E+00 0.  1.
        -11    1    1    2    0    0 -0.32553859869E+00 -0.78079500634E+01  0.49734796293E+03  0.49740935485E+03  0.00000000000E+00 0.  1.
         11    1    1    2    0    0 -0.53453246733E+01 -0.23340066600E+01 -0.40805129225E+03  0.40809297616E+03  0.00000000000E+00 0.  1.
        -15    1    1    2    0    0  0.62110463762E+01  0.45455688199E+01 -0.88134401245E+02  0.88487681091E+02  0.17770000000E+01 0.  1.
         15    1    1    2    0    0 -0.54018310422E+00  0.55963879035E+01 -0.11622694366E+01  0.60099879031E+01  0.17770000000E+01 0. -1.
</event>
<event>
 6    1  0.3836009E-003  0.5003784E+03  0.7546771E-02  0.9398963E-01
        -11   -1    0    0    0    0  0.00000000000E+00  0.00000000000E+00  0.50000000000E+03  0.50000000000E+03  0.00000000000E+00 0. -1.
         11   -1    0    0    0    0 -0.00000000000E+00 -0.00000000000E+00 -0.50000000000E+03  0.50000000000E+03  0.00000000000E+00 0. -1.
        -11    1    1    2    0    0 -0.29938721126E+00  0.14962707081E+02  0.26546420184E+03  0.26588571736E+03  0.00000000000E+00 0. -1.
         11    1    1    2    0    0 -0.75840078617E+01 -0.85199187403E+01 -0.49949134715E+03  0.49962156886E+03  0.00000000000E+00 0. -1.
        -15    1    1    2    0    0  0.60465619390E+01  0.14268883438E+01  0.94898802400E+02  0.95118543657E+02  0.17770000000E+01 0.  1.
         15    1    1    2    0    0  0.18368331340E+01 -0.78696766842E+01  0.13912834291E+03  0.13937417013E+03  0.17770000000E+01 0. -1.
</event>
<event>
 6    1  0.3836009E-003  0.5031078E+03  0.7546771E-02  0.9392883E-01
        -11   -1    0    0    0    0  0.00000000000E+00  0.00000000000E+00  0.50000000000E+03  0.50000000000E+03  0.00000000000E+00 0. -1.
         11   -1    0    0    0    0 -0.00000000000E+00 -0.00000000000E+00 -0.50000000000E+03  0.50000000000E+03  0.00000000000E+00 0. -1.
        -11    1    1    2    0    0  0.12558312635E+02  0.31399369776E+01  0.49672357852E+03  0.49689222562E+03  0.00000000000E+00 0. -1.
         11    1    1    2    0    0 -0.28243802949E+01 -0.71512008700E+01 -0.42826533082E+03  0.42833434415E+03  0.00000000000E+00 0. -1.
        -15    1    1    2    0    0 -0.11429989444E+02 -0.69839533230E+01 -0.57465547239E+02  0.59032763032E+02  0.17770000000E+01 0. -1.
         15    1    1    2    0    0  0.16960571039E+01  0.10995217215E+02 -0.10992700469E+02  0.15740667200E+02  0.17770000000E+01 0.  1.
</event>
<event>
 6    1  0.3836009E-003  0.5074652E+03  0.7546771E-02  0.9383259E-01
        -11   -1    0    0    0    0  0.00000000000E+00  0.00000000000E+00  0.50000000000E+03  0.50000000000E+03  0.00000000000E+00 0.  1.
         11   -1    0    0    0    0 -0.00000000000E+00 -0.00000000000E+00 -0.50000000000E+03  0.50000000000E+03  0.00000000000E+00 0.  1.
        -11    1    1    2    0    0  0.14658671659E+01  0.14252459942E+02  0.49232640028E+03  0.49253483713E+03  0.00000000000E+00 0.  1.
         11    1    1    2    0    0 -0.78088226920E+01  0.50880233811E+01 -0.47437043519E+03  0.47446198528E+03  0.00000000000E+00 0.  1.
        -15    1    1    2    0    0  0.87486634580E+00 -0.11586225691E+02  0.93215992912E+00  0.11791211474E+02  0.17770000000E+01 0.  1.
         15    1    1    2    0    0  0.54680891803E+01 -0.77542576320E+01 -0.18888125016E+02  0.21211966111E+02  0.17770000000E+01 0.  1.
</event>
<event>
 6    1  0.3836009E-003  0.5038098E+03  0.7546771E-02  0.9391325E-01
        -11   -1    0    0    0    0  0.00000000000E+00  0.00000000000E+00  0.50000000000E+03  0.50000000000E+03  0.00000000000E+00 0. -1.
         11   -1    0    0    0    0 -0.00000000000E+00 -0.00000000000E+00 -0.50000000000E+03  0.50000000000E+03  0.00000000000E+00 0. -1.
        -11    1    1    2    0    0  0.10506547897E+02  0.14137937434E+02  0.49587744663E+03  0.49619019630E+03  0.00000000000E+00 0. -1.
         11    1    1    2    0    0 -0.45658699436E+01 -0.51851474030E+01 -0.37460381651E+03  0.37466752230E+03  0.00000000000E+00 0. -1.
        -15    1    1    2    0    0 -0.36575574559E+01 -0.25196271126E+02 -0.51930601980E+02  0.57863416389E+02  0.17770000000E+01 0. -1.
         15    1    1    2    0    0 -0.22831204971E+01  0.16243481095E+02 -0.69343028138E+02  0.71278865014E+02  0.17770000000E+01 0.  1.
</event>
<event>
 6    1  0.3836009E-003  0.5058956E+03  0.7546771E-02  0.9386714E-01
        -11   -1    0    0    0    0  0.00000000000E+00  0.00000000000E+00  0.50000000000E+03  0.50000000000E+03  0.00000000000E+00 0.  1.
         11   -1    0    0    0    0 -0.00000000000E+00 -0.00000000000E+00 -0.50000000000E+03  0.50000000000E+03  0.00000000000E+00 0. -1.
        -11    1    1    2    0    0 -0.56866947387E+01  0.49067222126E+01  0.41410537412E+03  0.41417348454E+03  0.00000000000E+00 0.  1.
         11    1    1    2    0    0 -0.12861458179E+02 -0.33406032777E+01 -0.49392572527E+03  0.49410444120E+03  0.00000000000E+00 0. -1.
        -15    1    1    2    0    0  0.27208483755E+02  0.78299635553E+01  0.69932573232E+02  0.75467426386E+02  0.17770000000E+01 0. -1.
         15    1    1    2    0    0 -0.86603308370E+01 -0.93960824903E+01  0.98877779097E+01  0.16254647870E+02  0.17770000000E+01 0.  1.
</event>
<event>
 6    1  0.3836009E-003  0.5024622E+03  0.7546771E-02  0.9394317E-01
        -11   -1    0    0    0    0  0.00000000000E+00  0.00000000000E+00  0.50000000000E+03  0.50000000000E+03  0.00000000000E+00 0.  1.
         11   -1    0    0    0    0 -0.00000000000E+00 -0.00000000000E+00 -0.50000000000E+03  0.50000000000E+03  0.00000000000E+00 0. -1.
        -11    1    1    2    0    0 -0.19880655722E+02 -0.13229196236E+02  0.49696439952E+03  0.49753780409E+03  0.00000000000E+00 0.  1.
         11    1    1    2    0    0  0.99169584946E+01  0.46336763575E+01 -0.40777604128E+03  0.40792293006E+03  0.00000000000E+00 0. -1.
        -15    1    1    2    0    0  0.11742590971E+02  0.10168774932E+02 -0.20474916078E+02  0.25761838904E+02  0.17770000000E+01 0.  1.
         15    1    1    2    0    0 -0.17788937432E+01 -0.15732550532E+01 -0.68713442162E+02  0.68777426945E+02  0.17770000000E+01 0. -1.
</event>
<event>
 6    1  0.3836009E-003  0.5130847E+03  0.7546771E-02  0.9370998E-01
        -11   -1    0    0    0    0  0.00000000000E+00  0.00000000000E+00  0.50000000000E+03  0.50000000000E+03  0.00000000000E+00 0. -1.
         11   -1    0    0    0    0 -0.00000000000E+00 -0.00000000000E+00 -0.50000000000E+03  0.50000000000E+03  0.00000000000E+00 0.  1.
        -11    1    1    2    0    0  0.81026789837E+01  0.18623290825E+02  0.48649152942E+03  0.48691527863E+03  0.00000000000E+00 0. -1.
         11    1    1    2    0    0  0.18794712437E+02  0.56442874072E+01 -0.45852676442E+03  0.45894650329E+03  0.00000000000E+00 0.  1.
        -15    1    1    2    0    0 -0.76091951250E+01  0.80252975279E+00  0.42703809671E+01  0.89407934244E+01  0.17770000000E+01 0.  1.
         15    1    1    2    0    0 -0.19288196296E+02 -0.25070107985E+02 -0.32235145969E+02  0.45197424655E+02  0.17770000000E+01 0. -1.
</event>
<event>
 6    1  0.3836009E-003  0.4869489E+03  0.7546771E-02  0.9429496E-01
        -11   -1    0    0    0    0  0.00000000000E+00  0.00000000000E+00  0.50000000000E+03  0.50000000000E+03  0.00000000000E+00 0.  1.
         11   -1    0    0    0    0 -0.00000000000E+00 -0.00000000000E+00 -0.50000000000E+03  0.50000000000E+03  0.00000000000E+00 0.  1.
        -11    1    1    2    0    0 -0.21318238231E+01  0.12623775608E+02  0.48528149666E+03  0.48545034286E+03  0.00000000000E+00 0.  1.
         11    1    1    2    0    0  0.19082037890E+02  0.21023376438E+00 -0.48831149704E+03  0.48868424009E+03  0.00000000000E+00 0.  1.
        -15    1    1    2    0    0 -0.91420529894E+01  0.78209464769E+00  0.37078133921E+01  0.10054571798E+02  0.17770000000E+01 0.  1.
         15    1    1    2    0    0 -0.78081610772E+01 -0.13616104020E+02 -0.67781301408E+00  0.15810845252E+02  0.17770000000E+01 0. -1.
</event>
<event>
 6    1  0.3836009E-003  0.5031559E+03  0.7546771E-02  0.9392776E-01
        -11   -1    0    0    0    0  0.00000000000E+00  0.00000000000E+00  0.50000000000E+03  0.50000000000E+03  0.00000000000E+00 0. -1.
         11   -1    0    0    0    0 -0.00000000000E+00 -0.00000000000E+00 -0.50000000000E+03  0.50000000000E+03  0.00000000000E+00 0.  1.
        -11    1    1    2    0    0 -0.10442687864E+02  0.14349135796E+01  0.49673228599E+03  0.49684411303E+03  0.00000000000E+00 0. -1.
         11    1    1    2    0    0  0.87728937503E+01 -0.11405206227E+02 -0.38267215436E+03  0.38294258070E+03  0.00000000000E+00 0.  1.
        -15    1    1    2    0    0  0.98038188668E+01 -0.47557163923E+01 -0.10351971303E+02  0.15134488483E+02  0.17770000000E+01 0. -1.
         15    1    1    2    0    0 -0.81340247531E+01  0.14726009040E+02 -0.10370816033E+03  0.10507881779E+03  0.17770000000E+01 0.  1.
</event>
<event>
 6    1  0.3836009E-003  0.5061207E+03  0.7546771E-02  0.9386217E-01
        -11   -1    0    0    0    0  0.00000000000E+00  0.00000000000E+00  0.50000000000E+03  0.50000000000E+03  0.00000000000E+00 0. -1.
         11   -1    0    0    0    0 -0.00000000000E+00 -0.00000000000E+00 -0.50000000000E+03  0.50000000000E+03  0.00000000000E+00 0. -1.
        -11    1    1    2    0    0 -0.35015391337E+00 -0.75117161799E+01  0.49382203811E+03  0.49387929073E+03  0.00000000000E+00 0. -1.
         11    1    1    2    0    0 -0.72776890779E+01 -0.37499578347E+01 -0.48052736602E+03  0.48059710407E+03  0.00000000000E+00 0. -1.
        -15    1    1    2    0    0  0.65711184854E+01  0.92168686132E+01  0.45763622748E+00  0.11467232670E+02  0.17770000000E+01 0.  1.
         15    1    1    2    0    0  0.10567245058E+01  0.20448054014E+01 -0.13752308316E+02  0.14056372534E+02  0.17770000000E+01 0. -1.
</event>
<event>
 6    1  0.3836009E-003  0.5354952E+03  0.7546771E-02  0.9323711E-01
        -11   -1    0    0    0    0  0.00000000000E+00  0.00000000000E+00  0.50000000000E+03  0.50000000000E+03  0.00000000000E+00 0.  1.
         11   -1    0    0    0    0 -0.00000000000E+00 -0.00000000000E+00 -0.50000000000E+03  0.50000000000E+03  0.00000000000E+00 0. -1.
        -11    1    1    2    0    0 -0.92419108151E+01 -0.96140566016E+01  0.44722171893E+03  0.44742050565E+03  0.00000000000E+00 0.  1.
         11    1    1    2    0    0 -0.52271645528E+01  0.43827819223E+01 -0.46445472901E+03  0.46450481949E+03  0.00000000000E+00 0. -1.
        -15    1    1    2    0    0  0.16304482944E+02  0.13636131916E+02 -0.31783621264E+02  0.38277102390E+02  0.17770000000E+01 0.  1.
         15    1    1    2    0    0 -0.18354075764E+01 -0.84048572371E+01  0.49016631347E+02  0.49797572469E+02  0.17770000000E+01 0. -1.
</event>
<event>
 6    1  0.3836009E-003  0.5003400E+03  0.7546771E-02  0.9399049E-01
        -11   -1    0    0    0    0  0.00000000000E+00  0.00000000000E+00  0.50000000000E+03  0.50000000000E+03  0.00000000000E+00 0.  1.
         11   -1    0    0    0    0 -0.00000000000E+00 -0.00000000000E+00 -0.50000000000E+03  0.50000000000E+03  0.00000000000E+00 0. -1.
        -11    1    1    2    0    0 -0.50371629979E+01 -0.50006484137E+01  0.49960961317E+03  0.49966002949E+03  0.00000000000E+00 0.  1.
         11    1    1    2    0    0 -0.39521640506E+01 -0.21825841405E+00 -0.24001156857E+03  0.24004420486E+03  0.00000000000E+00 0. -1.
        -15    1    1    2    0    0  0.16347865121E+01  0.56988530404E+01 -0.33271611590E+02  0.33842389391E+02  0.17770000000E+01 0.  1.
         15    1    1    2    0    0  0.73545405363E+01 -0.47994621257E+00 -0.22632643301E+03  0.22645337627E+03  0.17770000000E+01 0. -1.
</event>
<event>
 6    1  0.3836009E-003  0.5256932E+03  0.7546771E-02  0.9344086E-01
        -11   -1    0    0    0    0  0.00000000000E+00  0.00000000000E+00  0.50000000000E+03  0.50000000000E+03  0.00000000000E+00 0.  1.
         11   -1    0    0    0    0 -0.00000000000E+00 -0.00000000000E+00 -0.50000000000E+03  0.50000000000E+03  0.00000000000E+00 0. -1.
        -11    1    1    2    0    0  0.83605747928E+01 -0.17990387190E+02  0.45102349074E+03  0.45145956900E+03  0.00000000000E+00 0.  1.
         11    1    1    2    0    0  0.89408482420E+01  0.24061887263E+01 -0.47421643496E+03  0.47430681600E+03  0.00000000000E+00 0. -1.
        -15    1    1    2    0    0 -0.73976692477E+01  0.29486415860E+02 -0.13815698226E+02  0.33439579499E+02  0.17770000000E+01 0.  1.
         15    1    1    2    0    0 -0.99037537871E+01 -0.13902217397E+02  0.37008642455E+02  0.40794035508E+02  0.17770000000E+01 0. -1.
</event>
<event>
 6    1  0.3836009E-003  0.5137793E+03  0.7546771E-02  0.9369495E-01
        -11   -1    0    0    0    0  0.00000000000E+00  0.00000000000E+00  0.50000000000E+03  0.50000000000E+03  0.00000000000E+00 0. -1.
         11   -1    0    0    0    0 -0.00000000000E+00 -0.00000000000E+00 -0.50000000000E+03  0.50000000000E+03  0.00000000000E+00 0. -1.
        -11    1    1    2    0    0 -0.13913357497E+02 -0.29507796100E+01  0.47138813122E+03  0.47160264935E+03  0.00000000000E+00 0. -1.
         11    1    1    2    0    0  0.14807113507E+02  0.19528469893E+02 -0.48560268178E+03  0.48622070740E+03  0.00000000000E+00 0. -1.
        -15    1    1    2    0    0 -0.10619621246E+02 -0.54099267468E+01 -0.86809864523E+01  0.14851293466E+02  0.17770000000E+01 0.  1.
         15    1    1    2    0    0  0.97258652363E+01 -0.11167763536E+02  0.22895537018E+02  0.27325349793E+02  0.17770000000E+01 0. -1.
</event>
<event>
 6    1  0.3836009E-003  0.5035747E+03  0.7546771E-02  0.9391846E-01
        -11   -1    0    0    0    0  0.00000000000E+00  0.00000000000E+00  0.50000000000E+03  0.50000000000E+03  0.00000000000E+00 0.  1.
         11   -1    0    0    0    0 -0.00000000000E+00 -0.00000000000E+00 -0.50000000000E+03  0.50000000000E+03  0.00000000000E+00 0.  1.
        -11    1    1    2    0    0  0.63148792581E+01  0.22110871904E+02  0.49589241144E+03  0.49642527341E+03  0.00000000000E+00 0.  1.
         11    1    1    2    0    0  0.81815050356E+00  0.12272619687E+01 -0.68396202382E+02  0.68412104503E+02  0.00000000000E+00 0.  1.
        -15    1    1    2    0    0  0.31880383662E+02 -0.22912581034E+02 -0.27260222093E+03  0.27542053993E+03  0.17770000000E+01 0. -1.
         15    1    1    2    0    0 -0.39013413423E+02 -0.42555283881E+00 -0.15489398813E+03  0.15974208215E+03  0.17770000000E+01 0.  1.
</event>
<event>
 6    1  0.3836009E-003  0.5653191E+03  0.7546771E-02  0.9264456E-01
        -11   -1    0    0    0    0  0.00000000000E+00  0.00000000000E+00  0.50000000000E+03  0.50000000000E+03  0.00000000000E+00 0.  1.
         11   -1    0    0    0    0 -0.00000000000E+00 -0.00000000000E+00 -0.50000000000E+03  0.50000000000E+03  0.00000000000E+00 0. -1.
        -11    1    1    2    0    0  0.19313795701E+01 -0.81416478550E+01  0.38528617271E+03  0.38537702519E+03  0.00000000000E+00 0.  1.
         11    1    1    2    0    0 -0.59679126167E+01  0.33302925510E+01 -0.43462714200E+03  0.43468087075E+03  0.00000000000E+00 0. -1.
        -15    1    1    2    0    0 -0.11865033665E+02 -0.54483110510E+01 -0.63835207817E+02  0.65180937422E+02  0.17770000000E+01 0.  1.
         15    1    1    2    0    0  0.15901566712E+02  0.10259666355E+02  0.11317617710E+03  0.11476116665E+03  0.17770000000E+01 0. -1.
</event>
<event>
 6    1  0.3836009E-003  0.5144990E+03  0.7546771E-02  0.9367939E-01
        -11   -1    0    0    0    0  0.00000000000E+00  0.00000000000E+00  0.50000000000E+03  0.50000000000E+03  0.00000000000E+00 0. -1.
         11   -1    0    0    0    0 -0.00000000000E+00 -0.00000000000E+00 -0.50000000000E+03  0.50000000000E+03  0.00000000000E+00 0. -1.
        -11    1    1    2    0    0 -0.12373952552E+02 -0.24288383197E+02  0.35515311578E+03  0.35619766410E+03  0.00000000000E+00 0. -1.
         11    1    1    2    0    0  0.17316769970E+01  0.91345917277E+01 -0.48541195748E+03  0.48550098655E+03  0.00000000000E+00 0. -1.
        -15    1    1    2    0    0 -0.26159847318E+01 -0.52765833165E+01 -0.12253978971E+02  0.13711434543E+02  0.17770000000E+01 0.  1.
         15    1    1    2    0    0  0.13258260287E+02  0.20430374786E+02  0.14251282068E+03  0.14458991481E+03  0.17770000000E+01 0. -1.
</event>
<event>
 6    1  0.3836009E-003  0.5083948E+03  0.7546771E-02  0.9381219E-01
        -11   -1    0    0    0    0  0.00000000000E+00  0.00000000000E+00  0.50000000000E+03  0.50000000000E+03  0.00000000000E+00 0.  1.
         11   -1    0    0    0    0 -0.00000000000E+00 -0.00000000000E+00 -0.50000000000E+03  0.50000000000E+03  0.00000000000E+00 0. -1.
        -11    1    1    2    0    0  0.41623670449E+01  0.66345447257E+01  0.49154281709E+03  0.49160521104E+03  0.00000000000E+00 0.  1.
         11    1    1    2    0    0  0.21738327605E+02  0.82100064465E+01 -0.45074098799E+03  0.45133955881E+03  0.00000000000E+00 0. -1.
        -15    1    1    2    0    0 -0.20551740179E+02 -0.17661315886E+02 -0.42584940790E+02  0.50506742266E+02  0.17770000000E+01 0. -1.
         15    1    1    2    0    0 -0.53489544710E+01  0.28167647142E+01  0.17831116836E+01  0.65484878914E+01  0.17770000000E+01 0.  1.
</event>
<event>
 6    1  0.3836009E-003  0.5183999E+03  0.7546771E-02  0.9359554E-01
        -11   -1    0    0    0    0  0.00000000000E+00  0.00000000000E+00  0.50000000000E+03  0.50000000000E+03  0.00000000000E+00 0. -1.
         11   -1    0    0    0    0 -0.00000000000E+00 -0.00000000000E+00 -0.50000000000E+03  0.50000000000E+03  0.00000000000E+00 0.  1.
        -11    1    1    2    0    0  0.61658280935E+01  0.85086256872E+01  0.48148548100E+03  0.48160012725E+03  0.00000000000E+00 0. -1.
         11    1    1    2    0    0  0.50150730622E+02 -0.21172418880E+02 -0.42423172540E+03  0.42771009334E+03  0.00000000000E+00 0.  1.
        -15    1    1    2    0    0  0.70359826760E+00  0.10111708166E+02 -0.69134563918E+00  0.10313941068E+02  0.17770000000E+01 0.  1.
         15    1    1    2    0    0 -0.57020156983E+02  0.25520850267E+01 -0.56562409962E+02  0.80375838348E+02  0.17770000000E+01 0. -1.
</event>
<event>
 6    1  0.3836009E-003  0.5003374E+03  0.7546771E-02  0.9399055E-01
        -11   -1    0    0    0    0  0.00000000000E+00  0.00000000000E+00  0.50000000000E+03  0.50000000000E+03  0.00000000000E+00 0. -1.
         11   -1    0    0    0    0 -0.00000000000E+00 -0.00000000000E+00 -0.50000000000E+03  0.50000000000E+03  0.00000000000E+00 0. -1.
        -11    1    1    2    0    0 -0.88560408497E+00 -0.12806964872E+01  0.92040735021E+02  0.92053904758E+02  0.00000000000E+00 0. -1.
         11    1    1    2    0    0  0.47394599893E+01 -0.79255446929E+01 -0.49957727430E+03  0.49966261590E+03  0.00000000000E+00 0. -1.
        -15    1    1    2    0    0  0.16856190720E+01 -0.44558076749E-01  0.47120265652E+01  0.53107645805E+01  0.17770000000E+01 0.  1.
         15    1    1    2    0    0 -0.55394749764E+01  0.92507992568E+01  0.40282451271E+03  0.40297271476E+03  0.17770000000E+01 0. -1.
</event>
<event>
 6    1  0.3836009E-003  0.5062273E+03  0.7546771E-02  0.9385983E-01
        -11   -1    0    0    0    0  0.00000000000E+00  0.00000000000E+00  0.50000000000E+03  0.50000000000E+03  0.00000000000E+00 0.  1.
         11   -1    0    0    0    0 -0.00000000000E+00 -0.00000000000E+00 -0.50000000000E+03  0.50000000000E+03  0.00000000000E+00 0. -1.
        -11    1    1    2    0    0  0.22044483329E+01 -0.12058907313E+02  0.49362053228E+03  0.49377272781E+03  0.00000000000E+00 0.  1.
         11    1    1    2    0    0  0.40067597510E+00 -0.30692505732E+02 -0.33111496735E+03  0.33253467797E+03  0.00000000000E+00 0. -1.
        -15    1    1    2    0    0  0.15413928577E+02  0.39744688505E+02 -0.10533329311E+03  0.11364633661E+03  0.17770000000E+01 0.  1.
         15    1    1    2    0    0 -0.18019052885E+02  0.30067245397E+01 -0.57172271820E+02  0.60046257613E+02  0.17770000000E+01 0. -1.
</event>
<event>
 6    1  0.3836009E-003  0.5002319E+03  0.7546771E-02  0.9399291E-01
        -11   -1    0    0    0    0  0.00000000000E+00  0.00000000000E+00  0.50000000000E+03  0.50000000000E+03  0.00000000000E+00 0.  1.
         11   -1    0    0    0    0 -0.00000000000E+00 -0.00000000000E+00 -0.50000000000E+03  0.50000000000E+03  0.00000000000E+00 0. -1.
        -11    1    1    2    0    0  0.13753665717E+02  0.68781406555E+01  0.49953150725E+03  0.49976814511E+03  0.00000000000E+00 0.  1.
         11    1    1    2    0    0  0.54371254132E+01 -0.17070153638E+01 -0.11890529278E+03  0.11904177790E+03  0.00000000000E+00 0. -1.
        -15    1    1    2    0    0 -0.56901966406E+01 -0.34814940150E+01 -0.14575540143E+03  0.14591879219E+03  0.17770000000E+01 0.  1.
         15    1    1    2    0    0 -0.13500594490E+02 -0.16896312766E+01 -0.23487081303E+03  0.23527128480E+03  0.17770000000E+01 0. -1.
</event>
<event>
 6    1  0.3836009E-003  0.5003898E+03  0.7546771E-02  0.9398938E-01
        -11   -1    0    0    0    0  0.00000000000E+00  0.00000000000E+00  0.50000000000E+03  0.50000000000E+03  0.00000000000E+00 0. -1.
         11   -1    0    0    0    0 -0.00000000000E+00 -0.00000000000E+00 -0.50000000000E+03  0.50000000000E+03  0.00000000000E+00 0. -1.
        -11    1    1    2    0    0  0.43578492897E+01 -0.83213337109E+01  0.49952189080E+03  0.49961020290E+03  0.00000000000E+00 0. -1.
         11    1    1    2    0    0  0.10855687152E+01  0.34494526014E+01 -0.13744938850E+03  0.13749695117E+03  0.00000000000E+00 0. -1.
        -15    1    1    2    0    0 -0.26279226310E+01 -0.72836537335E+01 -0.55972746543E+02  0.56533739250E+02  0.17770000000E+01 0.  1.
         15    1    1    2    0    0 -0.28154953739E+01  0.12155534843E+02 -0.30609975576E+03  0.30635910669E+03  0.17770000000E+01 0. -1.
</event>
<event>
 6    1  0.3836009E-003  0.5014083E+03  0.7546771E-02  0.9396664E-01
        -11   -1    0    0    0    0  0.00000000000E+00  0.00000000000E+00  0.50000000000E+03  0.50000000000E+03  0.00000000000E+00 0.  1.
         11   -1    0    0    0    0 -0.00000000000E+00 -0.00000000000E+00 -0.50000000000E+03  0.50000000000E+03  0.00000000000E+00 0.  1.
        -11    1    1    2    0    0  0.19039181274E+01 -0.62111173796E+01  0.19900421419E+03  0.19911022110E+03  0.00000000000E+00 0.  1.
         11    1    1    2    0    0  0.70040252831E+01 -0.16660954740E+01 -0.49853969073E+03  0.49859167209E+03  0.00000000000E+00 0.  1.
        -15    1    1    2    0    0 -0.20797069704E+02  0.54691656773E+01  0.96059350991E+02  0.98452966046E+02  0.17770000000E+01 0.  1.
         15    1    1    2    0    0  0.11889126293E+02  0.24080471763E+01  0.20347612555E+03  0.20384514076E+03  0.17770000000E+01 0. -1.
</event>
<event>
 6    1  0.3836009E-003  0.5141193E+03  0.7546771E-02  0.9368759E-01
        -11   -1    0    0    0    0  0.00000000000E+00  0.00000000000E+00  0.50000000000E+03  0.50000000000E+03  0.00000000000E+00 0. -1.
         11   -1    0    0    0    0 -0.00000000000E+00 -0.00000000000E+00 -0.50000000000E+03  0.50000000000E+03  0.00000000000E+00 0. -1.
        -11    1    1    2    0    0  0.15618694540E+02 -0.27529994802E+02  0.27876892442E+03  0.28056007816E+03  0.00000000000E+00 0. -1.
         11    1    1    2    0    0 -0.86155996965E+01  0.40844985380E+01 -0.48578709865E+03  0.48588066117E+03  0.00000000000E+00 0. -1.
        -15    1    1    2    0    0 -0.12517709079E+02  0.24160415823E+02  0.21875645316E+03  0.22044945512E+03  0.17770000000E+01 0.  1.
         15    1    1    2    0    0  0.55146142357E+01 -0.71491955859E+00 -0.11738278938E+02  0.13109805550E+02  0.17770000000E+01 0. -1.
</event>
<event>
 6    1  0.3836009E-003  0.5044049E+03  0.7546771E-02  0.9390007E-01
        -11   -1    0    0    0    0  0.00000000000E+00  0.00000000000E+00  0.50000000000E+03  0.50000000000E+03  0.00000000000E+00 0. -1.
         11   -1    0    0    0    0 -0.00000000000E+00 -0.00000000000E+00 -0.50000000000E+03  0.50000000000E+03  0.00000000000E+00 0.  1.
        -11    1    1    2    0    0 -0.11290797080E+01  0.81721913304E+01  0.49552644970E+03  0.49559511890E+03  0.00000000000E+00 0. -1.
         11    1    1    2    0    0  0.49217414294E+01  0.10058926843E+02 -0.45245069794E+03  0.45258926149E+03  0.00000000000E+00 0.  1.
        -15    1    1    2    0    0  0.67244765756E+01 -0.15133618929E+02 -0.18780928750E+02  0.25102311065E+02  0.17770000000E+01 0. -1.
         15    1    1    2    0    0 -0.10517138297E+02 -0.30974992443E+01 -0.24294823003E+02  0.26713308542E+02  0.17770000000E+01 0.  1.
</event>
<event>
 6    1  0.3836009E-003  0.5094528E+03  0.7546771E-02  0.9378903E-01
        -11   -1    0    0    0    0  0.00000000000E+00  0.00000000000E+00  0.50000000000E+03  0.50000000000E+03  0.00000000000E+00 0.  1.
         11   -1    0    0    0    0 -0.00000000000E+00 -0.00000000000E+00 -0.50000000000E+03  0.50000000000E+03  0.00000000000E+00 0. -1.
        -11    1    1    2    0    0  0.18351156597E+02 -0.13882253849E+02  0.49000719842E+03  0.49054718063E+03  0.00000000000E+00 0.  1.
         11    1    1    2    0    0 -0.11802766911E+01 -0.60259570451E+01 -0.44630470988E+03  0.44634694944E+03  0.00000000000E+00 0. -1.
        -15    1    1    2    0    0 -0.89126278203E+00  0.22704842732E+01 -0.38325925594E+02  0.38444554228E+02  0.17770000000E+01 0. -1.
         15    1    1    2    0    0 -0.16279617123E+02  0.17637726621E+02 -0.53765629448E+01  0.24661315702E+02  0.17770000000E+01 0.  1.
</event>
<event>
 6    1  0.3836009E-003  0.4657830E+03  0.7546771E-02  0.9479806E-01
        -11   -1    0    0    0    0  0.00000000000E+00  0.00000000000E+00  0.50000000000E+03  0.50000000000E+03  0.00000000000E+00 0.  1.
         11   -1    0    0    0    0 -0.00000000000E+00 -0.00000000000E+00 -0.50000000000E+03  0.50000000000E+03  0.00000000000E+00 0.  1.
        -11    1    1    2    0    0  0.23898606933E+01 -0.95209528172E+01  0.46058884844E+03  0.46069344177E+03  0.00000000000E+00 0.  1.
         11    1    1    2    0    0  0.98785546343E+01 -0.13722740558E+02 -0.47099793720E+03  0.47130134341E+03  0.00000000000E+00 0.  1.
        -15    1    1    2    0    0 -0.13284352205E+02  0.16847250318E+02 -0.24408445065E+02  0.32545871878E+02  0.17770000000E+01 0. -1.
         15    1    1    2    0    0  0.10159368769E+01  0.63964430567E+01  0.34817533824E+02  0.35459342945E+02  0.17770000000E+01 0.  1.
</event>
<event>
 6    1  0.3836009E-003  0.5224369E+03  0.7546771E-02  0.9350959E-01
        -11   -1    0    0    0    0  0.00000000000E+00  0.00000000000E+00  0.50000000000E+03  0.50000000000E+03  0.00000000000E+00 0.  1.
         11   -1    0    0    0    0 -0.00000000000E+00 -0.00000000000E+00 -0.50000000000E+03  0.50000000000E+03  0.00000000000E+00 0.  1.
        -11    1    1    2    0    0 -0.73715329758E+01  0.90496711610E+01  0.32155251084E+03  0.32176428216E+03  0.00000000000E+00 0.  1.
         11    1    1    2    0    0  0.71718135781E+00 -0.94872001871E+01 -0.47746828937E+03  0.47756307298E+03  0.00000000000E+00 0.  1.
        -15    1    1    2    0    0  0.26167753900E+01 -0.62499787348E+02  0.67396823550E+02  0.91970432671E+02  0.17770000000E+01 0.  1.
         15    1    1    2    0    0  0.40375762280E+01  0.62937316374E+02  0.88518954980E+02  0.10870221219E+03  0.17770000000E+01 0. -1.
</event>
<event>
 6    1  0.3836009E-003  0.5779992E+03  0.7546771E-02  0.9240425E-01
        -11   -1    0    0    0    0  0.00000000000E+00  0.00000000000E+00  0.50000000000E+03  0.50000000000E+03  0.00000000000E+00 0. -1.
         11   -1    0    0    0    0 -0.00000000000E+00 -0.00000000000E+00 -0.50000000000E+03  0.50000000000E+03  0.00000000000E+00 0.  1.
        -11    1    1    2    0    0 -0.25405514881E+02  0.60528878272E+02  0.31527674441E+03  0.32203821335E+03  0.00000000000E+00 0. -1.
         11    1    1    2    0    0  0.27508031142E+01 -0.12870852365E+02 -0.42179553471E+03  0.42200082803E+03  0.00000000000E+00 0.  1.
        -15    1    1    2    0    0 -0.94672546796E+00 -0.79705791192E+02  0.16612411152E+03  0.18426689230E+03  0.17770000000E+01 0. -1.
         15    1    1    2    0    0  0.23601437235E+02  0.32047765285E+02 -0.59605321220E+02  0.71694066324E+02  0.17770000000E+01 0.  1.
</event>
<event>
 6    1  0.3836009E-003  0.5054721E+03  0.7546771E-02  0.9387648E-01
        -11   -1    0    0    0    0  0.00000000000E+00  0.00000000000E+00  0.50000000000E+03  0.50000000000E+03  0.00000000000E+00 0.  1.
         11   -1    0    0    0    0 -0.00000000000E+00 -0.00000000000E+00 -0.50000000000E+03  0.50000000000E+03  0.00000000000E+00 0.  1.
        -11    1    1    2    0    0 -0.12431855675E+02  0.97404736969E+01  0.27344474980E+03  0.27390045465E+03  0.00000000000E+00 0.  1.
         11    1    1    2    0    0 -0.56225210218E+01 -0.82342098248E+01 -0.49442738947E+03  0.49452791469E+03  0.00000000000E+00 0.  1.
        -15    1    1    2    0    0  0.26952015635E+00  0.35943847666E+01 -0.40893445221E+01  0.57334728207E+01  0.17770000000E+01 0.  1.
         15    1    1    2    0    0  0.17784856540E+02 -0.51006486387E+01  0.22507198419E+03  0.22583815783E+03  0.17770000000E+01 0. -1.
</event>
<event>
 6    1  0.3836009E-003  0.5035017E+03  0.7546771E-02  0.9392008E-01
        -11   -1    0    0    0    0  0.00000000000E+00  0.00000000000E+00  0.50000000000E+03  0.50000000000E+03  0.00000000000E+00 0. -1.
         11   -1    0    0    0    0 -0.00000000000E+00 -0.00000000000E+00 -0.50000000000E+03  0.50000000000E+03  0.00000000000E+00 0. -1.
        -11    1    1    2    0    0  0.65400606256E+01  0.53851786876E+01  0.45340093934E+03  0.45348008152E+03  0.00000000000E+00 0. -1.
         11    1    1    2    0    0 -0.23225392894E+01  0.65498068216E+01 -0.49644961350E+03  0.49649825065E+03  0.00000000000E+00 0. -1.
        -15    1    1    2    0    0 -0.66255364145E+01  0.48292889945E+01  0.12672357560E+02  0.15197570203E+02  0.17770000000E+01 0. -1.
         15    1    1    2    0    0  0.24080150783E+01 -0.16764274504E+02  0.30376316600E+02  0.34824097626E+02  0.17770000000E+01 0.  1.
</event>
<event>
 6    1  0.3836009E-003  0.5014036E+03  0.7546771E-02  0.9396675E-01
        -11   -1    0    0    0    0  0.00000000000E+00  0.00000000000E+00  0.50000000000E+03  0.50000000000E+03  0.00000000000E+00 0. -1.
         11   -1    0    0    0    0 -0.00000000000E+00 -0.00000000000E+00 -0.50000000000E+03  0.50000000000E+03  0.00000000000E+00 0. -1.
        -11    1    1    2    0    0 -0.15555244516E+01  0.64156283254E+00  0.10046589738E+03  0.10047998704E+03  0.00000000000E+00 0. -1.
         11    1    1    2    0    0  0.12768568437E+02  0.35334069241E+01 -0.49842034798E+03  0.49859639448E+03  0.00000000000E+00 0. -1.
        -15    1    1    2    0    0 -0.13585121357E+02 -0.85317998798E+01  0.39401247996E+03  0.39434292085E+03  0.17770000000E+01 0. -1.
         15    1    1    2    0    0  0.23720773719E+01  0.43568301231E+01  0.39419706390E+01  0.65806976301E+01  0.17770000000E+01 0.  1.
</event>
<event>
 6    1  0.3836009E-003  0.5003016E+03  0.7546771E-02  0.9399135E-01
        -11   -1    0    0    0    0  0.00000000000E+00  0.00000000000E+00  0.50000000000E+03  0.50000000000E+03  0.00000000000E+00 0.  1.
         11   -1    0    0    0    0 -0.00000000000E+00 -0.00000000000E+00 -0.50000000000E+03  0.50000000000E+03  0.00000000000E+00 0.  1.
        -11    1    1    2    0    0  0.42970997746E+01  0.57234662983E+01  0.49964710240E+03  0.49969835908E+03  0.00000000000E+00 0.  1.
         11    1    1    2    0    0 -0.27755806720E+01 -0.63513168046E-01 -0.69992240184E+02  0.70047280947E+02  0.00000000000E+00 0.  1.
        -15    1    1    2    0    0  0.93959347233E+01 -0.52747724055E+00 -0.13042518737E+03  0.13077633215E+03  0.17770000000E+01 0. -1.
         15    1    1    2    0    0 -0.10917453826E+02 -0.51324758897E+01 -0.29922967485E+03  0.29947802782E+03  0.17770000000E+01 0.  1.
</event>
<event>
 6    1  0.3836009E-003  0.5194658E+03  0.7546771E-02  0.9357277E-01
        -11   -1    0    0    0    0  0.00000000000E+00  0.00000000000E+00  0.50000000000E+03  0.50000000000E+03  0.00000000000E+00 0. -1.
         11   -1    0    0    0    0 -0.00000000000E+00 -0.00000000000E+00 -0.50000000000E+03  0.50000000000E+03  0.00000000000E+00 0. -1.
        -11    1    1    2    0    0 -0.18663135140E+02  0.11855701808E+02  0.48002527073E+03  0.48053421400E+03  0.00000000000E+00 0. -1.
         11    1    1    2    0    0  0.16792654741E+02  0.27390660553E+02 -0.41947765642E+03  0.42070624642E+03  0.00000000000E+00 0. -1.
        -15    1    1    2    0    0 -0.28480288075E+02 -0.20798048255E+02 -0.50834093599E+02  0.61894655836E+02  0.17770000000E+01 0.  1.
         15    1    1    2    0    0  0.30350768474E+02 -0.18448314106E+02 -0.97135207148E+01  0.36864883751E+02  0.17770000000E+01 0. -1.
</event>
<event>
 6    1  0.3836009E-003  0.5052247E+03  0.7546771E-02  0.9388194E-01
        -11   -1    0    0    0    0  0.00000000000E+00  0.00000000000E+00  0.50000000000E+03  0.50000000000E+03  0.00000000000E+00 0.  1.
         11   -1    0    0    0    0 -0.00000000000E+00 -0.00000000000E+00 -0.50000000000E+03  0.50000000000E+03  0.00000000000E+00 0. -1.
        -11    1    1    2    0    0  0.60207775553E+00 -0.98620548373E+01  0.47032868629E+03  0.47043245612E+03  0.00000000000E+00 0.  1.
         11    1    1    2    0    0 -0.31272000673E+01 -0.71318192523E+01 -0.49471402485E+03  0.49477531124E+03  0.00000000000E+00 0. -1.
        -15    1    1    2    0    0 -0.57784853537E+00 -0.32222046839E+00  0.14323254270E+02  0.14448220542E+02  0.17770000000E+01 0. -1.
         15    1    1    2    0    0  0.31029708471E+01  0.17316094558E+02  0.10062084293E+02  0.20344012096E+02  0.17770000000E+01 0.  1.
</event>
<event>
 6    1  0.3836009E-003  0.5547315E+03  0.7546771E-02  0.9285039E-01
        -11   -1    0    0    0    0  0.00000000000E+00  0.00000000000E+00  0.50000000000E+03  0.50000000000E+03  0.00000000000E+00 0. -1.
         11   -1    0    0    0    0 -0.00000000000E+00 -0.00000000000E+00 -0.50000000000E+03  0.50000000000E+03  0.00000000000E+00 0. -1.
        -11    1    1    2    0    0 -0.55129026936E+01  0.22031561455E+01  0.40486063688E+03  0.40490416309E+03  0.00000000000E+00 0. -1.
         11    1    1    2    0    0 -0.21769110293E+02 -0.20952448075E+02 -0.44424216300E+03  0.44526845681E+03  0.00000000000E+00 0. -1.
        -15    1    1    2    0    0  0.19500456333E+02 -0.26469789068E+02 -0.43810904950E+02  0.54803929166E+02  0.17770000000E+01 0. -1.
         15    1    1    2    0    0  0.77815566538E+01  0.45219080997E+02  0.83192431076E+02  0.95023450935E+02  0.17770000000E+01 0.  1.
</event>
<event>
 6    1  0.3836009E-003  0.5248239E+03  0.7546771E-02  0.9345916E-01
        -11   -1    0    0    0    0  0.00000000000E+00  0.00000000000E+00  0.50000000000E+03  0.50000000000E+03  0.00000000000E+00 0. -1.
         11   -1    0    0    0    0 -0.00000000000E+00 -0.00000000000E+00 -0.50000000000E+03  0.50000000000E+03  0.00000000000E+00 0.  1.
        -11    1    1    2    0    0  0.96227539145E+01 -0.13605838998E+01  0.47507672564E+03  0.47517611875E+03  0.00000000000E+00 0. -1.
         11    1    1    2    0    0 -0.14854661157E+02 -0.32063801082E+02 -0.44777727908E+03  0.44916950026E+03  0.00000000000E+00 0.  1.
        -15    1    1    2    0    0  0.19267170551E+01 -0.17641166273E+02 -0.45432886932E+00  0.17840603403E+02  0.17770000000E+01 0. -1.
         15    1    1    2    0    0  0.33051901874E+01  0.51065551255E+02 -0.26845117689E+02  0.57813777595E+02  0.17770000000E+01 0.  1.
</event>
<event>
 6    1  0.3836009E-003  0.5158392E+03  0.7546771E-02  0.9365050E-01
        -11   -1    0    0    0    0  0.00000000000E+00  0.00000000000E+00  0.50000000000E+03  0.50000000000E+03  0.00000000000E+00 0.  1.
         11   -1    0    0    0    0 -0.00000000000E+00 -0.00000000000E+00 -0.50000000000E+03  0.50000000000E+03  0.00000000000E+00 0. -1.
        -11    1    1    2    0    0  0.27653865004E+01  0.68200597891E+01  0.43677934394E+03  0.43684133947E+03  0.00000000000E+00 0.  1.
         11    1    1    2    0    0 -0.11851273758E+02  0.10111004169E+02 -0.48391015561E+03  0.48416084497E+03  0.00000000000E+00 0. -1.
        -15    1    1    2    0    0 -0.22276231353E+02 -0.30850659530E+01  0.25076066405E+01  0.22697883938E+02  0.17770000000E+01 0. -1.
         15    1    1    2    0    0  0.31362118610E+02 -0.13845998005E+02  0.44623205031E+02  0.56299931623E+02  0.17770000000E+01 0.  1.
</event>
<event>
 6    1  0.3836009E-003  0.5226213E+03  0.7546771E-02  0.9350569E-01
        -11   -1    0    0    0    0  0.00000000000E+00  0.00000000000E+00  0.50000000000E+03  0.50000000000E+03  0.00000000000E+00 0.  1.
         11   -1    0    0    0    0 -0.00000000000E+00 -0.00000000000E+00 -0.50000000000E+03  0.50000000000E+03  0.00000000000E+00 0.  1.
        -11    1    1    2    0    0  0.18203190270E+01  0.90885355818E+01  0.46160522755E+03  0.46169827934E+03  0.00000000000E+00 0.  1.
         11    1    1    2    0    0  0.37053018886E+00 -0.10218822067E+02 -0.47726921903E+03  0.47737874801E+03  0.00000000000E+00 0.  1.
        -15    1    1    2    0    0 -0.53133747025E+01 -0.98512938257E+01  0.35885884651E+02  0.37632889697E+02  0.17770000000E+01 0.  1.
         15    1    1    2    0    0  0.31225254866E+01  0.10981580311E+02 -0.20221893176E+02  0.23290082957E+02  0.17770000000E+01 0. -1.
</event>
<event>
 6    1  0.3836009E-003  0.4789203E+03  0.7546771E-02  0.9448253E-01
        -11   -1    0    0    0    0  0.00000000000E+00  0.00000000000E+00  0.50000000000E+03  0.50000000000E+03  0.00000000000E+00 0.  1.
         11   -1    0    0    0    0 -0.00000000000E+00 -0.00000000000E+00 -0.50000000000E+03  0.50000000000E+03  0.00000000000E+00 0. -1.
        -11    1    1    2    0    0  0.93211784219E+01 -0.24219212734E+01  0.48274899829E+03  0.48284505322E+03  0.00000000000E+00 0.  1.
         11    1    1    2    0    0  0.36694165889E+01 -0.67867258950E+01 -0.47509578068E+03  0.47515842104E+03  0.00000000000E+00 0. -1.
        -15    1    1    2    0    0 -0.59933189352E+01 -0.11578582980E+02 -0.13881522528E+02  0.19126888204E+02  0.17770000000E+01 0. -1.
         15    1    1    2    0    0 -0.69972760756E+01  0.20787230148E+02  0.62283049264E+01  0.22869637535E+02  0.17770000000E+01 0.  1.
</event>
<event>
 6    1  0.3836009E-003  0.5465767E+03  0.7546771E-02  0.9301227E-01
        -11   -1    0    0    0    0  0.00000000000E+00  0.00000000000E+00  0.50000000000E+03  0.50000000000E+03  0.00000000000E+00 0. -1.
         11   -1    0    0    0    0 -0.00000000000E+00 -0.00000000000E+00 -0.50000000000E+03  0.50000000000E+03  0.00000000000E+00 0.  1.
        -11    1    1    2    0    0  0.20421411079E+02  0.11003186678E+02  0.42360068941E+03  0.42423536889E+03  0.00000000000E+00 0. -1.
         11    1    1    2    0    0  0.16723017285E+02 -0.21085080778E+02 -0.45262395652E+03  0.45342329666E+03  0.00000000000E+00 0.  1.
        -15    1    1    2    0    0 -0.39995155854E+02  0.48721201967E+02 -0.13813498636E+02  0.64554926121E+02  0.17770000000E+01 0.  1.
         15    1    1    2    0    0  0.28507274904E+01 -0.38639307867E+02  0.42836765746E+02  0.57786408334E+02  0.17770000000E+01 0. -1.
</event>
<event>
 6    1  0.3836009E-003  0.5033618E+03  0.7546771E-02  0.9392319E-01
        -11   -1    0    0    0    0  0.00000000000E+00  0.00000000000E+00  0.50000000000E+03  0.50000000000E+03  0.00000000000E+00 0. -1.
         11   -1    0    0    0    0 -0.00000000000E+00 -0.00000000000E+00 -0.50000000000E+03  0.50000000000E+03  0.00000000000E+00 0. -1.
        -11    1    1    2    0    0 -0.13198730194E+02  0.26681156677E+00  0.43187754768E+03  0.43207926803E+03  0.00000000000E+00 0. -1.
         11    1    1    2    0    0 -0.43082159107E+01 -0.55091710473E+01 -0.49658895737E+03  0.49663820259E+03  0.00000000000E+00 0. -1.
        -15    1    1    2    0    0  0.14127279896E+01 -0.34208388025E+01  0.94335276246E-01  0.41066490755E+01  0.17770000000E+01 0.  1.
         15    1    1    2    0    0  0.16094218115E+02  0.86631982831E+01  0.64617074408E+02  0.67175880309E+02  0.17770000000E+01 0. -1.
</event>
<event>
 6    1  0.3836009E-003  0.4753839E+03  0.7546771E-02  0.9456640E-01
        -11   -1    0    0    0    0  0.00000000000E+00  0.00000000000E+00  0.50000000000E+03  0.50000000000E+03  0.00000000000E+00 0. -1.
         11   -1    0    0    0    0 -0.00000000000E+00 -0.00000000000E+00 -0.50000000000E+03  0.50000000000E+03  0.00000000000E+00 0. -1.
        -11    1    1    2    0    0  0.19394247786E+02 -0.12353639303E+02  0.47419703985E+03  0.47475423310E+03  0.00000000000E+00 0. -1.
         11    1    1    2    0    0 -0.89458484945E+01 -0.17532145244E+01 -0.47609015254E+03  0.47617742000E+03  0.00000000000E+00 0. -1.
        -15    1    1    2    0    0 -0.15034542434E+02  0.50742930391E+01  0.21587157580E+02  0.26850493802E+02  0.17770000000E+01 0.  1.
         15    1    1    2    0    0  0.45861431421E+01  0.90325607884E+01 -0.19694044885E+02  0.22217853097E+02  0.17770000000E+01 0. -1.
</event>
<event>
 6    1  0.3836009E-003  0.5067850E+03  0.7546771E-02  0.9384754E-01
        -11   -1    0    0    0    0  0.00000000000E+00  0.00000000000E+00  0.50000000000E+03  0.50000000000E+03  0.00000000000E+00 0. -1.
         11   -1    0    0    0    0 -0.00000000000E+00 -0.00000000000E+00 -0.50000000000E+03  0.50000000000E+03  0.00000000000E+00 0.  1.
        -11    1    1    2    0    0 -0.38976995794E+01  0.70233733443E+01  0.49314959708E+03  0.49321500883E+03  0.00000000000E+00 0. -1.
         11    1    1    2    0    0 -0.82495014431E+01  0.74658624913E+01 -0.47859694387E+03  0.47872625587E+03  0.00000000000E+00 0.  1.
        -15    1    1    2    0    0 -0.26259749968E+01 -0.25985610689E+01 -0.18215886823E-01  0.40995518208E+01  0.17770000000E+01 0. -1.
         15    1    1    2    0    0  0.14773176019E+02 -0.11890674767E+02 -0.14534437320E+02  0.23959183486E+02  0.17770000000E+01 0.  1.
</event>
<event>
 6    1  0.3836009E-003  0.5014221E+03  0.7546771E-02  0.9396633E-01
        -11   -1    0    0    0    0  0.00000000000E+00  0.00000000000E+00  0.50000000000E+03  0.50000000000E+03  0.00000000000E+00 0. -1.
         11   -1    0    0    0    0 -0.00000000000E+00 -0.00000000000E+00 -0.50000000000E+03  0.50000000000E+03  0.00000000000E+00 0. -1.
        -11    1    1    2    0    0  0.46834605917E+01 -0.84235844473E+01  0.49848469735E+03  0.49857786260E+03  0.00000000000E+00 0. -1.
         11    1    1    2    0    0  0.59332007082E+00  0.58409766204E+01 -0.41478658131E+03  0.41482812956E+03  0.00000000000E+00 0. -1.
        -15    1    1    2    0    0 -0.60064825436E+01  0.68031820595E+01 -0.14227596151E+02  0.16968893302E+02  0.17770000000E+01 0.  1.
         15    1    1    2    0    0  0.72970188114E+00 -0.42205742327E+01 -0.69470519891E+02  0.69625114539E+02  0.17770000000E+01 0. -1.
</event>
<event>
 6    1  0.3836009E-003  0.5099126E+03  0.7546771E-02  0.9377899E-01
        -11   -1    0    0    0    0  0.00000000000E+00  0.00000000000E+00  0.50000000000E+03  0.50000000000E+03  0.00000000000E+00 0. -1.
         11   -1    0    0    0    0 -0.00000000000E+00 -0.00000000000E+00 -0.50000000000E+03  0.50000000000E+03  0.00000000000E+00 0.  1.
        -11    1    1    2    0    0  0.71120738755E+00 -0.78464750163E+01  0.49002404302E+03  0.49008737560E+03  0.00000000000E+00 0. -1.
         11    1    1    2    0    0  0.74250083397E+01 -0.35937892855E+01 -0.42925459393E+03  0.42933384735E+03  0.00000000000E+00 0.  1.
        -15    1    1    2    0    0 -0.55368231613E+01  0.62394588617E+01 -0.69455046065E+02  0.69976770506E+02  0.17770000000E+01 0.  1.
         15    1    1    2    0    0 -0.25993925660E+01  0.52008054401E+01  0.86855969722E+01  0.10602006541E+02  0.17770000000E+01 0.  1.
</event>
<event>
 6    1  0.3836009E-003  0.5005848E+03  0.7546771E-02  0.9398502E-01
        -11   -1    0    0    0    0  0.00000000000E+00  0.00000000000E+00  0.50000000000E+03  0.50000000000E+03  0.00000000000E+00 0.  1.
         11   -1    0    0    0    0 -0.00000000000E+00 -0.00000000000E+00 -0.50000000000E+03  0.50000000000E+03  0.00000000000E+00 0. -1.
        -11    1    1    2    0    0 -0.44710066415E+01  0.27142889460E+01  0.36034812208E+03  0.36038607958E+03  0.00000000000E+00 0.  1.
         11    1    1    2    0    0 -0.84151665321E+01 -0.20519847376E+01 -0.49934012498E+03  0.49941524414E+03  0.00000000000E+00 0. -1.
        -15    1    1    2    0    0  0.14360856402E+02 -0.29706126884E+01  0.12242402908E+03  0.12331204062E+03  0.17770000000E+01 0.  1.
         15    1    1    2    0    0 -0.14746832285E+01  0.23083084800E+01  0.16567973814E+02  0.16886635661E+02  0.17770000000E+01 0. -1.
</event>
<event>
 6    1  0.3836009E-003  0.3244498E+03  0.7546771E-02  0.9910439E-01
        -11   -1    0    0    0    0  0.00000000000E+00  0.00000000000E+00  0.50000000000E+03  0.50000000000E+03  0.00000000000E+00 0.  1.
         11   -1    0    0    0    0 -0.00000000000E+00 -0.00000000000E+00 -0.50000000000E+03  0.50000000000E+03  0.00000000000E+00 0. -1.
        -11    1    1    2    0    0 -0.27592363505E+01  0.55584710462E+02  0.15400240555E+03  0.16374985294E+03  0.00000000000E+00 0.  1.
         11    1    1    2    0    0 -0.81400022913E+01  0.14929142194E+02 -0.31777593412E+03  0.31823055044E+03  0.00000000000E+00 0. -1.
        -15    1    1    2    0    0 -0.21103155156E+02  0.48821266624E+01  0.33104770256E+03  0.33176033129E+03  0.17770000000E+01 0.  1.
         15    1    1    2    0    0  0.32002393798E+02 -0.75395979319E+02 -0.16727417399E+03  0.18625926533E+03  0.17770000000E+01 0. -1.
</event>
<event>
 6    1  0.3836009E-003  0.5011799E+03  0.7546771E-02  0.9397174E-01
        -11   -1    0    0    0    0  0.00000000000E+00  0.00000000000E+00  0.50000000000E+03  0.50000000000E+03  0.00000000000E+00 0.  1.
         11   -1    0    0    0    0 -0.00000000000E+00 -0.00000000000E+00 -0.50000000000E+03  0.50000000000E+03  0.00000000000E+00 0. -1.
        -11    1    1    2    0    0  0.28202313747E+01  0.33231116526E+01  0.19728352715E+03  0.19733166715E+03  0.00000000000E+00 0.  1.
         11    1    1    2    0    0  0.77195771004E+01  0.26839476369E+01 -0.49875318188E+03  0.49882013981E+03  0.00000000000E+00 0. -1.
        -15    1    1    2    0    0  0.10160551518E+01 -0.94171046506E+01  0.26895335790E+03  0.26912595691E+03  0.17770000000E+01 0.  1.
         15    1    1    2    0    0 -0.11555863627E+02  0.34100453611E+01  0.32516296825E+02  0.34722236128E+02  0.17770000000E+01 0. -1.
</event>
<event>
 6    1  0.3836009E-003  0.5071633E+03  0.7546771E-02  0.9383922E-01
        -11   -1    0    0    0    0  0.00000000000E+00  0.00000000000E+00  0.50000000000E+03  0.50000000000E+03  0.00000000000E+00 0.  1.
         11   -1    0    0    0    0 -0.00000000000E+00 -0.00000000000E+00 -0.50000000000E+03  0.50000000000E+03  0.00000000000E+00 0. -1.
        -11    1    1    2    0    0 -0.36995430406E+01  0.18511811946E+02  0.49247502172E+03  0.49283670807E+03  0.00000000000E+00 0.  1.
         11    1    1    2    0    0 -0.10234202135E+02  0.17599239061E+01 -0.46658012009E+03  0.46669566603E+03  0.00000000000E+00 0. -1.
        -15    1    1    2    0    0  0.16837976473E+02 -0.11843946287E+02 -0.23021973659E+02  0.30934859229E+02  0.17770000000E+01 0.  1.
         15    1    1    2    0    0 -0.29042312982E+01 -0.84277895647E+01 -0.28729279714E+01  0.95327666766E+01  0.17770000000E+01 0. -1.
</event>
<event>
 6    1  0.3836009E-003  0.5063625E+03  0.7546771E-02  0.9385685E-01
        -11   -1    0    0    0    0  0.00000000000E+00  0.00000000000E+00  0.50000000000E+03  0.50000000000E+03  0.00000000000E+00 0.  1.
         11   -1    0    0    0    0 -0.00000000000E+00 -0.00000000000E+00 -0.50000000000E+03  0.50000000000E+03  0.00000000000E+00 0. -1.
        -11    1    1    2    0    0  0.19492969931E+02  0.13331043149E+02  0.49307224862E+03  0.49363745294E+03  0.00000000000E+00 0.  1.
         11    1    1    2    0    0 -0.75285825317E+01 -0.16849342092E+02 -0.20494928475E+03  0.20577849549E+03  0.00000000000E+00 0. -1.
        -15    1    1    2    0    0 -0.38546892477E+01 -0.18440114870E+01  0.52763605472E+01  0.70183129870E+01  0.17770000000E+01 0.  1.
         15    1    1    2    0    0 -0.81096981512E+01  0.53623104308E+01 -0.29339932441E+03  0.29356573859E+03  0.17770000000E+01 0. -1.
</event>
<event>
 6    1  0.3836009E-003  0.5016571E+03  0.7546771E-02  0.9396110E-01
        -11   -1    0    0    0    0  0.00000000000E+00  0.00000000000E+00  0.50000000000E+03  0.50000000000E+03  0.00000000000E+00 0.  1.
         11   -1    0    0    0    0 -0.00000000000E+00 -0.00000000000E+00 -0.50000000000E+03  0.50000000000E+03  0.00000000000E+00 0.  1.
        -11    1    1    2    0    0 -0.80851337405E+00  0.87982827402E+01  0.49826460676E+03  0.49834293596E+03  0.00000000000E+00 0.  1.
         11    1    1    2    0    0  0.56120932738E+01  0.53585706844E+01 -0.39127050340E+03  0.39134743733E+03  0.00000000000E+00 0.  1.
        -15    1    1    2    0    0 -0.46626864123E+01 -0.32785037545E+01 -0.89050657845E+02  0.89250583321E+02  0.17770000000E+01 0.  1.
         15    1    1    2    0    0 -0.14089348743E+00 -0.10878349670E+02 -0.17943445513E+02  0.21059043388E+02  0.17770000000E+01 0.  1.
</event>
<event>
 6    1  0.3836009E-003  0.5241470E+03  0.7546771E-02  0.9347343E-01
        -11   -1    0    0    0    0  0.00000000000E+00  0.00000000000E+00  0.50000000000E+03  0.50000000000E+03  0.00000000000E+00 0.  1.
         11   -1    0    0    0    0 -0.00000000000E+00 -0.00000000000E+00 -0.50000000000E+03  0.50000000000E+03  0.00000000000E+00 0. -1.
        -11    1    1    2    0    0  0.49569642607E+01 -0.65421543544E+01  0.34805177011E+03  0.34814854007E+03  0.00000000000E+00 0.  1.
         11    1    1    2    0    0  0.33017560641E+02  0.12345608307E+02 -0.47454562047E+03  0.47585304376E+03  0.00000000000E+00 0. -1.
        -15    1    1    2    0    0 -0.65817044503E+02 -0.14295171362E+02  0.13020140702E+03  0.14660081647E+03  0.17770000000E+01 0.  1.
         15    1    1    2    0    0  0.27842519601E+02  0.84917174086E+01 -0.37075566634E+01  0.29397599692E+02  0.17770000000E+01 0. -1.
</event>
<event>
 6    1  0.3836009E-003  0.5203923E+03  0.7546771E-02  0.9355302E-01
        -11   -1    0    0    0    0  0.00000000000E+00  0.00000000000E+00  0.50000000000E+03  0.50000000000E+03  0.00000000000E+00 0.  1.
         11   -1    0    0    0    0 -0.00000000000E+00 -0.00000000000E+00 -0.50000000000E+03  0.50000000000E+03  0.00000000000E+00 0.  1.
        -11    1    1    2    0    0  0.13459142752E+02 -0.75185352247E+01  0.44634645413E+03  0.44661262187E+03  0.00000000000E+00 0.  1.
         11    1    1    2    0    0 -0.20016180400E+02  0.21652063277E+01 -0.47918492703E+03  0.47960768331E+03  0.00000000000E+00 0.  1.
        -15    1    1    2    0    0  0.36829898055E+01  0.16328291063E+01  0.52907752936E+02  0.53090663912E+02  0.17770000000E+01 0. -1.
         15    1    1    2    0    0  0.28740478427E+01  0.37204997906E+01 -0.20069280042E+02  0.20689030912E+02  0.17770000000E+01 0.  1.
</event>
<event>
 6    1  0.3836009E-003  0.4545185E+03  0.7546771E-02  0.9507756E-01
        -11   -1    0    0    0    0  0.00000000000E+00  0.00000000000E+00  0.50000000000E+03  0.50000000000E+03  0.00000000000E+00 0.  1.
         11   -1    0    0    0    0 -0.00000000000E+00 -0.00000000000E+00 -0.50000000000E+03  0.50000000000E+03  0.00000000000E+00 0.  1.
        -11    1    1    2    0    0 -0.26314401060E+00  0.85455421991E+01  0.46497720185E+03  0.46505579641E+03  0.00000000000E+00 0.  1.
         11    1    1    2    0    0 -0.52298004578E+01  0.10399912542E+02 -0.52687044564E+02  0.53957702495E+02  0.00000000000E+00 0.  1.
        -15    1    1    2    0    0 -0.87332705452E+01 -0.75142509886E+01 -0.44410927206E+03  0.44426223927E+03  0.17770000000E+01 0.  1.
         15    1    1    2    0    0  0.14226215014E+02 -0.11431203753E+02  0.31819114769E+02  0.36724261824E+02  0.17770000000E+01 0. -1.
</event>
<event>
 6    1  0.3836009E-003  0.5074779E+03  0.7546771E-02  0.9383231E-01
        -11   -1    0    0    0    0  0.00000000000E+00  0.00000000000E+00  0.50000000000E+03  0.50000000000E+03  0.00000000000E+00 0. -1.
         11   -1    0    0    0    0 -0.00000000000E+00 -0.00000000000E+00 -0.50000000000E+03  0.50000000000E+03  0.00000000000E+00 0. -1.
        -11    1    1    2    0    0  0.30662501446E+01  0.12751584786E+02  0.49234743503E+03  0.49252208233E+03  0.00000000000E+00 0. -1.
         11    1    1    2    0    0 -0.62070667773E+01 -0.51587516392E+01 -0.42075552361E+03  0.42083292533E+03  0.00000000000E+00 0. -1.
        -15    1    1    2    0    0 -0.30258567408E+01 -0.10956144313E+02  0.28493274359E+01  0.11851974648E+02  0.17770000000E+01 0. -1.
         15    1    1    2    0    0  0.61666733735E+01  0.33633111657E+01 -0.74441238860E+02  0.74793017685E+02  0.17770000000E+01 0.  1.
</event>
<event>
 6    1  0.3836009E-003  0.5070646E+03  0.7546771E-02  0.9384139E-01
        -11   -1    0    0    0    0  0.00000000000E+00  0.00000000000E+00  0.50000000000E+03  0.50000000000E+03  0.00000000000E+00 0. -1.
         11   -1    0    0    0    0 -0.00000000000E+00 -0.00000000000E+00 -0.50000000000E+03  0.50000000000E+03  0.00000000000E+00 0.  1.
        -11    1    1    2    0    0 -0.90667991640E+01 -0.16623789847E+02  0.49257159119E+03  0.49293542141E+03  0.00000000000E+00 0. -1.
         11    1    1    2    0    0  0.81629162728E+01 -0.10689159191E+02 -0.33643077855E+03  0.33669951007E+03  0.00000000000E+00 0.  1.
        -15    1    1    2    0    0 -0.10551563111E+02  0.16880965015E+02 -0.15319598280E+03  0.15449423723E+03  0.17770000000E+01 0.  1.
         15    1    1    2    0    0  0.11455446003E+02  0.10431984024E+02 -0.29448298457E+01  0.15870831283E+02  0.17770000000E+01 0. -1.
</event>
<event>
 6    1  0.3836009E-003  0.5004879E+03  0.7546771E-02  0.9398719E-01
        -11   -1    0    0    0    0  0.00000000000E+00  0.00000000000E+00  0.50000000000E+03  0.50000000000E+03  0.00000000000E+00 0.  1.
         11   -1    0    0    0    0 -0.00000000000E+00 -0.00000000000E+00 -0.50000000000E+03  0.50000000000E+03  0.00000000000E+00 0. -1.
        -11    1    1    2    0    0 -0.60089805873E+01  0.62909498274E+01  0.49943632056E+03  0.49951208413E+03  0.00000000000E+00 0.  1.
         11    1    1    2    0    0 -0.22230654617E+01  0.10115098366E+02 -0.13425690446E+03  0.13465575974E+03  0.00000000000E+00 0. -1.
        -15    1    1    2    0    0  0.33340771409E+01 -0.15463967938E+02 -0.30694890822E+03  0.30736141652E+03  0.17770000000E+01 0. -1.
         15    1    1    2    0    0  0.48979689081E+01 -0.94208025497E+00 -0.58230507877E+02  0.58470739616E+02  0.17770000000E+01 0.  1.
</event>
<event>
 6    1  0.3836009E-003  0.5103097E+03  0.7546771E-02  0.9377032E-01
        -11   -1    0    0    0    0  0.00000000000E+00  0.00000000000E+00  0.50000000000E+03  0.50000000000E+03  0.00000000000E+00 0.  1.
         11   -1    0    0    0    0 -0.00000000000E+00 -0.00000000000E+00 -0.50000000000E+03  0.50000000000E+03  0.00000000000E+00 0. -1.
        -11    1    1    2    0    0  0.16747684567E+02 -0.10149667422E+02  0.43914293468E+03  0.43957936458E+03  0.00000000000E+00 0.  1.
         11    1    1    2    0    0  0.79922488698E+01  0.17532066327E+02 -0.48931108259E+03  0.48969029492E+03  0.00000000000E+00 0. -1.
        -15    1    1    2    0    0 -0.33902959552E+02  0.50249229269E+01  0.33768344955E+02  0.48146852096E+02  0.17770000000E+01 0.  1.
         15    1    1    2    0    0  0.91630261152E+01 -0.12407321832E+02  0.16399802954E+02  0.22583488406E+02  0.17770000000E+01 0. -1.
</event>
<event>
 6    1  0.3836009E-003  0.5010824E+03  0.7546771E-02  0.9397391E-01
        -11   -1    0    0    0    0  0.00000000000E+00  0.00000000000E+00  0.50000000000E+03  0.50000000000E+03  0.00000000000E+00 0. -1.
         11   -1    0    0    0    0 -0.00000000000E+00 -0.00000000000E+00 -0.50000000000E+03  0.50000000000E+03  0.00000000000E+00 0. -1.
        -11    1    1    2    0    0  0.13364521848E+02 -0.16580218761E+02  0.49846285468E+03  0.49891755992E+03  0.00000000000E+00 0. -1.
         11    1    1    2    0    0 -0.65078760506E+01 -0.33920154636E+01 -0.24130632130E+03  0.24141789271E+03  0.00000000000E+00 0. -1.
        -15    1    1    2    0    0 -0.17002504322E+02  0.19131466818E+02 -0.18029246920E+03  0.18210884206E+03  0.17770000000E+01 0.  1.
         15    1    1    2    0    0  0.10145858524E+02  0.84076740669E+00 -0.76864064186E+02  0.77555705317E+02  0.17770000000E+01 0. -1.
</event>
<event>
 6    1  0.3836009E-003  0.5026355E+03  0.7546771E-02  0.9393932E-01
        -11   -1    0    0    0    0  0.00000000000E+00  0.00000000000E+00  0.50000000000E+03  0.50000000000E+03  0.00000000000E+00 0.  1.
         11   -1    0    0    0    0 -0.00000000000E+00 -0.00000000000E+00 -0.50000000000E+03  0.50000000000E+03  0.00000000000E+00 0.  1.
        -11    1    1    2    0    0  0.50390854987E+01 -0.67024879460E+01  0.38724879091E+03  0.38733956909E+03  0.00000000000E+00 0.  1.
         11    1    1    2    0    0  0.12718021730E+02 -0.11914319526E+02 -0.49705913015E+03  0.49736453226E+03  0.00000000000E+00 0.  1.
        -15    1    1    2    0    0 -0.56051646938E+01  0.10915119940E+02  0.15359279725E+02  0.19738868184E+02  0.17770000000E+01 0. -1.
         15    1    1    2    0    0 -0.12151942535E+02  0.77016875325E+01  0.94451059517E+02  0.95557030464E+02  0.17770000000E+01 0.  1.
</event>
<event>
 6    1  0.3836009E-003  0.5219670E+03  0.7546771E-02  0.9351955E-01
        -11   -1    0    0    0    0  0.00000000000E+00  0.00000000000E+00  0.50000000000E+03  0.50000000000E+03  0.00000000000E+00 0. -1.
         11   -1    0    0    0    0 -0.00000000000E+00 -0.00000000000E+00 -0.50000000000E+03  0.50000000000E+03  0.00000000000E+00 0.  1.
        -11    1    1    2    0    0  0.42810827635E+02  0.23795502722E+02  0.47551712562E+03  0.47803297969E+03  0.00000000000E+00 0. -1.
         11    1    1    2    0    0  0.54503776778E+01  0.29798823500E+02 -0.36797250311E+03  0.36921733375E+03  0.00000000000E+00 0.  1.
        -15    1    1    2    0    0 -0.62332033792E+02 -0.39311980330E+02 -0.43446465504E+02  0.85565573263E+02  0.17770000000E+01 0. -1.
         15    1    1    2    0    0  0.14070828479E+02 -0.14282345893E+02 -0.64098157008E+02  0.67184113294E+02  0.17770000000E+01 0.  1.
</event>
<event>
 6    1  0.3836009E-003  0.5117605E+03  0.7546771E-02  0.9373873E-01
        -11   -1    0    0    0    0  0.00000000000E+00  0.00000000000E+00  0.50000000000E+03  0.50000000000E+03  0.00000000000E+00 0.  1.
         11   -1    0    0    0    0 -0.00000000000E+00 -0.00000000000E+00 -0.50000000000E+03  0.50000000000E+03  0.00000000000E+00 0.  1.
        -11    1    1    2    0    0 -0.15575214818E+02 -0.10382199761E+01  0.48798992164E+03  0.48823951995E+03  0.00000000000E+00 0.  1.
         11    1    1    2    0    0  0.27139082697E+01  0.22250336606E+01 -0.15731971164E+03  0.15735885023E+03  0.00000000000E+00 0.  1.
        -15    1    1    2    0    0 -0.29775688540E+01 -0.38633482872E+01 -0.33700356809E+03  0.33704354913E+03  0.17770000000E+01 0.  1.
         15    1    1    2    0    0  0.15838875402E+02  0.26765346027E+01  0.63333580912E+01  0.17358080688E+02  0.17770000000E+01 0. -1.
</event>
<event>
 6    1  0.3836009E-003  0.5064778E+03  0.7546771E-02  0.9385431E-01
        -11   -1    0    0    0    0  0.00000000000E+00  0.00000000000E+00  0.50000000000E+03  0.50000000000E+03  0.00000000000E+00 0. -1.
         11   -1    0    0    0    0 -0.00000000000E+00 -0.00000000000E+00 -0.50000000000E+03  0.50000000000E+03  0.00000000000E+00 0.  1.
        -11    1    1    2    0    0 -0.26520304711E+02 -0.13286768400E+02  0.37052743590E+03  0.37171285360E+03  0.00000000000E+00 0. -1.
         11    1    1    2    0    0 -0.81206148261E+01 -0.27248993550E+01 -0.49344789344E+03  0.49352223152E+03  0.00000000000E+00 0.  1.
        -15    1    1    2    0    0  0.38823702526E+02  0.36616173897E+01  0.10816590178E+03  0.11499437967E+03  0.17770000000E+01 0. -1.
         15    1    1    2    0    0 -0.41827829891E+01  0.12350050365E+02  0.14754555767E+02  0.19770535209E+02  0.17770000000E+01 0.  1.
</event>
<event>
 6    1  0.3836009E-003  0.5016726E+03  0.7546771E-02  0.9396075E-01
        -11   -1    0    0    0    0  0.00000000000E+00  0.00000000000E+00  0.50000000000E+03  0.50000000000E+03  0.00000000000E+00 0. -1.
         11   -1    0    0    0    0 -0.00000000000E+00 -0.00000000000E+00 -0.50000000000E+03  0.50000000000E+03  0.00000000000E+00 0. -1.
        -11    1    1    2    0    0  0.67597726010E+01 -0.18396266643E+02  0.38322824234E+03  0.38372907484E+03  0.00000000000E+00 0. -1.
         11    1    1    2    0    0  0.60113252663E+01  0.39974632203E+01 -0.49827506462E+03  0.49832735803E+03  0.00000000000E+00 0. -1.
        -15    1    1    2    0    0 -0.81420110580E+01  0.89705817494E+01  0.10371800406E+03  0.10443823905E+03  0.17770000000E+01 0. -1.
         15    1    1    2    0    0 -0.46290868093E+01  0.54282216737E+01  0.11328818213E+02  0.13505328072E+02  0.17770000000E+01 0.  1.
</event>
<event>
 6    1  0.3836009E-003  0.5033997E+03  0.7546771E-02  0.9392235E-01
        -11   -1    0    0    0    0  0.00000000000E+00  0.00000000000E+00  0.50000000000E+03  0.50000000000E+03  0.00000000000E+00 0. -1.
         11   -1    0    0    0    0 -0.00000000000E+00 -0.00000000000E+00 -0.50000000000E+03  0.50000000000E+03  0.00000000000E+00 0. -1.
        -11    1    1    2    0    0 -0.13407375342E+02 -0.58923770601E+01  0.46707437503E+03  0.46730391570E+03  0.00000000000E+00 0. -1.
         11    1    1    2    0    0  0.10118960626E+02 -0.62744171452E+01 -0.49645751922E+03  0.49660027192E+03  0.00000000000E+00 0. -1.
        -15    1    1    2    0    0 -0.49103309704E+00 -0.12617644866E+01 -0.11258334601E+01  0.25016780572E+01  0.17770000000E+01 0. -1.
         15    1    1    2    0    0  0.37794478121E+01  0.13428558692E+02  0.30508977654E+02  0.33594134321E+02  0.17770000000E+01 0.  1.
</event>
<event>
 6    1  0.3836009E-003  0.5001091E+03  0.7546771E-02  0.9399566E-01
        -11   -1    0    0    0    0  0.00000000000E+00  0.00000000000E+00  0.50000000000E+03  0.50000000000E+03  0.00000000000E+00 0. -1.
         11   -1    0    0    0    0 -0.00000000000E+00 -0.00000000000E+00 -0.50000000000E+03  0.50000000000E+03  0.00000000000E+00 0. -1.
        -11    1    1    2    0    0  0.61550664215E+01 -0.31977576689E+01  0.49984281624E+03  0.49989093955E+03  0.00000000000E+00 0. -1.
         11    1    1    2    0    0  0.25281641687E+01  0.13392792562E+01 -0.12590706224E+03  0.12593956331E+03  0.00000000000E+00 0. -1.
        -15    1    1    2    0    0 -0.39276426907E+01 -0.37100522377E+01 -0.16271607313E+03  0.16281544475E+03  0.17770000000E+01 0.  1.
         15    1    1    2    0    0 -0.47555878995E+01  0.55685306504E+01 -0.21121968087E+03  0.21135405240E+03  0.17770000000E+01 0. -1.
</event>
<event>
 6    1  0.3836009E-003  0.5020230E+03  0.7546771E-02  0.9395294E-01
        -11   -1    0    0    0    0  0.00000000000E+00  0.00000000000E+00  0.50000000000E+03  0.50000000000E+03  0.00000000000E+00 0.  1.
         11   -1    0    0    0    0 -0.00000000000E+00 -0.00000000000E+00 -0.50000000000E+03  0.50000000000E+03  0.00000000000E+00 0. -1.
        -11    1    1    2    0    0 -0.13484598474E+02  0.89219349955E+01  0.37990523033E+03  0.38024915431E+03  0.00000000000E+00 0.  1.
         11    1    1    2    0    0 -0.62916744947E+01 -0.26158610279E+01 -0.49793037494E+03  0.49797699363E+03  0.00000000000E+00 0. -1.
        -15    1    1    2    0    0  0.12809029929E+02 -0.95611809303E+01  0.10707277813E+03  0.10827384252E+03  0.17770000000E+01 0.  1.
         15    1    1    2    0    0  0.69672430394E+01  0.32551069627E+01  0.10952366484E+02  0.13500009538E+02  0.17770000000E+01 0.  1.
</event>
<event>
 6    1  0.3836009E-003  0.5026835E+03  0.7546771E-02  0.9393825E-01
        -11   -1    0    0    0    0  0.00000000000E+00  0.00000000000E+00  0.50000000000E+03  0.50000000000E+03  0.00000000000E+00 0.  1.
         11   -1    0    0    0    0 -0.00000000000E+00 -0.00000000000E+00 -0.50000000000E+03  0.50000000000E+03  0.00000000000E+00 0.  1.
        -11    1    1    2    0    0 -0.65144403020E+01 -0.56868249871E+00  0.46044001327E+03  0.46048644622E+03  0.00000000000E+00 0.  1.
         11    1    1    2    0    0 -0.82286192619E+01 -0.54685045297E+00 -0.49724810237E+03  0.49731648327E+03  0.00000000000E+00 0.  1.
        -15    1    1    2    0    0  0.14335549728E+02 -0.38555356046E+01  0.30453994161E+02  0.33926046486E+02  0.17770000000E+01 0.  1.
         15    1    1    2    0    0  0.40750983587E+00  0.49710685563E+01  0.63540949405E+01  0.82710240219E+01  0.17770000000E+01 0. -1.
</event>
<event>
 6    1  0.3836009E-003  0.5030733E+03  0.7546771E-02  0.9392959E-01
        -11   -1    0    0    0    0  0.00000000000E+00  0.00000000000E+00  0.50000000000E+03  0.50000000000E+03  0.00000000000E+00 0.  1.
         11   -1    0    0    0    0 -0.00000000000E+00 -0.00000000000E+00 -0.50000000000E+03  0.50000000000E+03  0.00000000000E+00 0. -1.
        -11    1    1    2    0    0  0.36168889853E+01 -0.12263089939E+02  0.49676215131E+03  0.49692665478E+03  0.00000000000E+00 0.  1.
         11    1    1    2    0    0  0.58745649089E+01  0.80820238452E+00 -0.37540543256E+03  0.37545226394E+03  0.00000000000E+00 0. -1.
        -15    1    1    2    0    0 -0.31919724185E+01 -0.32233994132E+01 -0.10343100835E+03  0.10354569141E+03  0.17770000000E+01 0.  1.
         15    1    1    2    0    0 -0.62994814757E+01  0.14678286967E+02 -0.17925710396E+02  0.24075389869E+02  0.17770000000E+01 0. -1.
</event>
<event>
 6    1  0.3836009E-003  0.5016993E+03  0.7546771E-02  0.9396015E-01
        -11   -1    0    0    0    0  0.00000000000E+00  0.00000000000E+00  0.50000000000E+03  0.50000000000E+03  0.00000000000E+00 0. -1.
         11   -1    0    0    0    0 -0.00000000000E+00 -0.00000000000E+00 -0.50000000000E+03  0.50000000000E+03  0.00000000000E+00 0.  1.
        -11    1    1    2    0    0  0.11432509743E+02  0.83868914239E+00  0.49816880544E+03  0.49830067669E+03  0.00000000000E+00 0. -1.
         11    1    1    2    0    0 -0.42186655839E+01 -0.79303820516E+01 -0.47570348981E+03  0.47578829149E+03  0.00000000000E+00 0.  1.
        -15    1    1    2    0    0 -0.32635454826E+01  0.38505342249E+01 -0.40317882520E+01  0.67000289882E+01  0.17770000000E+01 0.  1.
         15    1    1    2    0    0 -0.39502986766E+01  0.32411586843E+01 -0.18433527379E+02  0.19211002833E+02  0.17770000000E+01 0. -1.
</event>
<event>
 6    1  0.3836009E-003  0.5187618E+03  0.7546771E-02  0.9358781E-01
        -11   -1    0    0    0    0  0.00000000000E+00  0.00000000000E+00  0.50000000000E+03  0.50000000000E+03  0.00000000000E+00 0. -1.
         11   -1    0    0    0    0 -0.00000000000E+00 -0.00000000000E+00 -0.50000000000E+03  0.50000000000E+03  0.00000000000E+00 0. -1.
        -11    1    1    2    0    0  0.64596663930E+01 -0.22737478792E+02  0.45283336086E+03  0.45344985714E+03  0.00000000000E+00 0. -1.
         11    1    1    2    0    0 -0.55810301205E+01 -0.14655332264E+02 -0.48098266045E+03  0.48123824278E+03  0.00000000000E+00 0. -1.
        -15    1    1    2    0    0 -0.22578046400E+01  0.26508172968E+02  0.40631166714E+02  0.48598666170E+02  0.17770000000E+01 0.  1.
         15    1    1    2    0    0  0.13791683675E+01  0.10884638087E+02 -0.12481867122E+02  0.16713233904E+02  0.17770000000E+01 0. -1.
</event>
<event>
 6    1  0.3836009E-003  0.5007111E+03  0.7546771E-02  0.9398220E-01
        -11   -1    0    0    0    0  0.00000000000E+00  0.00000000000E+00  0.50000000000E+03  0.50000000000E+03  0.00000000000E+00 0.  1.
         11   -1    0    0    0    0 -0.00000000000E+00 -0.00000000000E+00 -0.50000000000E+03  0.50000000000E+03  0.00000000000E+00 0. -1.
        -11    1    1    2    0    0  0.59953646290E+01  0.37834494242E+01  0.41662161994E+03  0.41668193276E+03  0.00000000000E+00 0.  1.
         11    1    1    2    0    0 -0.38269782188E+00 -0.13648044815E+02 -0.49910220163E+03  0.49928891762E+03  0.00000000000E+00 0. -1.
        -15    1    1    2    0    0 -0.92367399687E+00  0.68532857190E+01  0.19299198149E+02  0.20577596483E+02  0.17770000000E+01 0. -1.
         15    1    1    2    0    0 -0.46889928102E+01  0.30113096714E+01  0.63181383542E+02  0.63451553132E+02  0.17770000000E+01 0.  1.
</event>
<event>
 6    1  0.3836009E-003  0.5078134E+03  0.7546771E-02  0.9382494E-01
        -11   -1    0    0    0    0  0.00000000000E+00  0.00000000000E+00  0.50000000000E+03  0.50000000000E+03  0.00000000000E+00 0. -1.
         11   -1    0    0    0    0 -0.00000000000E+00 -0.00000000000E+00 -0.50000000000E+03  0.50000000000E+03  0.00000000000E+00 0.  1.
        -11    1    1    2    0    0  0.52168655452E+01 -0.75677228792E+01  0.49210077262E+03  0.49218660742E+03  0.00000000000E+00 0. -1.
         11    1    1    2    0    0 -0.38453006465E+01  0.73357707817E+01 -0.47286271553E+03  0.47293524673E+03  0.00000000000E+00 0.  1.
        -15    1    1    2    0    0  0.25904680613E+01 -0.59267591895E+01 -0.24684945375E+02  0.25580094926E+02  0.17770000000E+01 0.  1.
         15    1    1    2    0    0 -0.39620329601E+01  0.61587112870E+01  0.54468882824E+01  0.92980509170E+01  0.17770000000E+01 0. -1.
</event>
<event>
 6    1  0.3836009E-003  0.5085689E+03  0.7546771E-02  0.9380838E-01
        -11   -1    0    0    0    0  0.00000000000E+00  0.00000000000E+00  0.50000000000E+03  0.50000000000E+03  0.00000000000E+00 0.  1.
         11   -1    0    0    0    0 -0.00000000000E+00 -0.00000000000E+00 -0.50000000000E+03  0.50000000000E+03  0.00000000000E+00 0. -1.
        -11    1    1    2    0    0 -0.49941801831E+01 -0.11142536230E+02  0.49127939985E+03  0.49143112097E+03  0.00000000000E+00 0.  1.
         11    1    1    2    0    0 -0.12346832508E+00 -0.15328547763E+02 -0.12776523094E+03  0.12868152104E+03  0.00000000000E+00 0. -1.
        -15    1    1    2    0    0  0.11898463287E+02  0.15631652105E+02 -0.36617628273E+03  0.36670717165E+03  0.17770000000E+01 0. -1.
         15    1    1    2    0    0 -0.67808147788E+01  0.10839431888E+02  0.26621138260E+01  0.13180186332E+02  0.17770000000E+01 0.  1.
</event>
<event>
 6    1  0.3836009E-003  0.5166559E+03  0.7546771E-02  0.9363293E-01
        -11   -1    0    0    0    0  0.00000000000E+00  0.00000000000E+00  0.50000000000E+03  0.50000000000E+03  0.00000000000E+00 0. -1.
         11   -1    0    0    0    0 -0.00000000000E+00 -0.00000000000E+00 -0.50000000000E+03  0.50000000000E+03  0.00000000000E+00 0. -1.
        -11    1    1    2    0    0 -0.63893003170E+01 -0.11636034527E+02  0.48316175713E+03  0.48334408449E+03  0.00000000000E+00 0. -1.
         11    1    1    2    0    0 -0.20446264681E+01 -0.96115402726E+01 -0.45178828666E+03  0.45189514067E+03  0.00000000000E+00 0. -1.
        -15    1    1    2    0    0  0.10603488168E+02  0.20581142608E+02 -0.45104433850E+02  0.50730514233E+02  0.17770000000E+01 0.  1.
         15    1    1    2    0    0 -0.21695613830E+01  0.66643219190E+00  0.13730963376E+02  0.14030260607E+02  0.17770000000E+01 0. -1.
</event>
<event>
 6    1  0.3836009E-003  0.5005767E+03  0.7546771E-02  0.9398520E-01
        -11   -1    0    0    0    0  0.00000000000E+00  0.00000000000E+00  0.50000000000E+03  0.50000000000E+03  0.00000000000E+00 0.  1.
         11   -1    0    0    0    0 -0.00000000000E+00 -0.00000000000E+00 -0.50000000000E+03  0.50000000000E+03  0.00000000000E+00 0. -1.
        -11    1    1    2    0    0  0.67212758040E+01  0.95432996566E+01  0.49928684806E+03  0.49942327415E+03  0.00000000000E+00 0.  1.
         11    1    1    2    0    0 -0.32594813349E+01  0.11390301832E+01 -0.22576056920E+03  0.22578697087E+03  0.00000000000E+00 0. -1.
        -15    1    1    2    0    0 -0.12132296805E+02 -0.73534572091E+01 -0.21764012605E+03  0.21810925738E+03  0.17770000000E+01 0. -1.
         15    1    1    2    0    0  0.86705023361E+01 -0.33288726307E+01 -0.55886152810E+02  0.56680497604E+02  0.17770000000E+01 0.  1.
</event>
<event>
 6    1  0.3836009E-003  0.5117231E+03  0.7546771E-02  0.9373954E-01
        -11   -1    0    0    0    0  0.00000000000E+00  0.00000000000E+00  0.50000000000E+03  0.50000000000E+03  0.00000000000E+00 0. -1.
         11   -1    0    0    0    0 -0.00000000000E+00 -0.00000000000E+00 -0.50000000000E+03  0.50000000000E+03  0.00000000000E+00 0.  1.
        -11    1    1    2    0    0 -0.14229263466E+02  0.17685957415E+02  0.48774896655E+03  0.48827688805E+03  0.00000000000E+00 0. -1.
         11    1    1    2    0    0  0.54759849129E+01 -0.89752641268E+01 -0.17286830036E+03  0.17318773354E+03  0.00000000000E+00 0.  1.
        -15    1    1    2    0    0 -0.96537473971E+00 -0.64838908541E+02 -0.20067351266E+03  0.21089815652E+03  0.17770000000E+01 0. -1.
         15    1    1    2    0    0  0.97186532927E+01  0.56128215253E+02 -0.11420715352E+03  0.12763722190E+03  0.17770000000E+01 0.  1.
</event>
<event>
 6    1  0.3836009E-003  0.5008938E+03  0.7546771E-02  0.9397812E-01
        -11   -1    0    0    0    0  0.00000000000E+00  0.00000000000E+00  0.50000000000E+03  0.50000000000E+03  0.00000000000E+00 0. -1.
         11   -1    0    0    0    0 -0.00000000000E+00 -0.00000000000E+00 -0.50000000000E+03  0.50000000000E+03  0.00000000000E+00 0. -1.
        -11    1    1    2    0    0 -0.29455141104E+01 -0.58390867553E+01  0.40277502814E+03  0.40282812003E+03  0.00000000000E+00 0. -1.
         11    1    1    2    0    0 -0.88711851712E+01  0.47510170772E+01 -0.49900478435E+03  0.49910624610E+03  0.00000000000E+00 0. -1.
        -15    1    1    2    0    0  0.44441399897E+01  0.30609140510E+01  0.78206492442E+02  0.78412580395E+02  0.17770000000E+01 0. -1.
         15    1    1    2    0    0  0.73725592918E+01 -0.19728443729E+01  0.18023263763E+02  0.19653053481E+02  0.17770000000E+01 0.  1.
</event>
<event>
 6    1  0.3836009E-003  0.5159823E+03  0.7546771E-02  0.9364742E-01
        -11   -1    0    0    0    0  0.00000000000E+00  0.00000000000E+00  0.50000000000E+03  0.50000000000E+03  0.00000000000E+00 0. -1.
         11   -1    0    0    0    0 -0.00000000000E+00 -0.00000000000E+00 -0.50000000000E+03  0.50000000000E+03  0.00000000000E+00 0. -1.
        -11    1    1    2    0    0  0.34059892530E+01 -0.53101168597E+01  0.18444665896E+03  0.18455451256E+03  0.00000000000E+00 0. -1.
         11    1    1    2    0    0  0.25580682776E+02 -0.80620850904E+01 -0.48327404330E+03  0.48401773674E+03  0.00000000000E+00 0. -1.
        -15    1    1    2    0    0  0.37004514914E+02  0.45399583130E+02  0.19956843164E+03  0.20799320400E+03  0.17770000000E+01 0. -1.
         15    1    1    2    0    0 -0.65991186943E+02 -0.32027381180E+02  0.99258952701E+02  0.12343454670E+03  0.17770000000E+01 0.  1.
</event>
<event>
 6    1  0.3836009E-003  0.5014596E+03  0.7546771E-02  0.9396550E-01
        -11   -1    0    0    0    0  0.00000000000E+00  0.00000000000E+00  0.50000000000E+03  0.50000000000E+03  0.00000000000E+00 0. -1.
         11   -1    0    0    0    0 -0.00000000000E+00 -0.00000000000E+00 -0.50000000000E+03  0.50000000000E+03  0.00000000000E+00 0.  1.
        -11    1    1    2    0    0  0.56379287489E+00 -0.20042673712E+01  0.75823130782E+02  0.75851711330E+02  0.00000000000E+00 0. -1.
         11    1    1    2    0    0 -0.12991642523E+02  0.24464950393E+00 -0.49837108191E+03  0.49854044762E+03  0.00000000000E+00 0.  1.
        -15    1    1    2    0    0  0.10232637650E+02 -0.30848440567E+01  0.41862277920E+03  0.41876295458E+03  0.17770000000E+01 0. -1.
         15    1    1    2    0    0  0.21952119984E+01  0.48444619240E+01  0.39251719290E+01  0.68448864653E+01  0.17770000000E+01 0.  1.
</event>
<event>
 6    1  0.3836009E-003  0.5165805E+03  0.7546771E-02  0.9363455E-01
        -11   -1    0    0    0    0  0.00000000000E+00  0.00000000000E+00  0.50000000000E+03  0.50000000000E+03  0.00000000000E+00 0. -1.
         11   -1    0    0    0    0 -0.00000000000E+00 -0.00000000000E+00 -0.50000000000E+03  0.50000000000E+03  0.00000000000E+00 0.  1.
        -11    1    1    2    0    0  0.41978208449E+01  0.89417990007E+01  0.48331851580E+03  0.48341945057E+03  0.00000000000E+00 0. -1.
         11    1    1    2    0    0  0.98547349554E+01 -0.75177913890E+01 -0.47348875401E+03  0.47365096132E+03  0.00000000000E+00 0.  1.
        -15    1    1    2    0    0 -0.57033745718E+01 -0.19642743482E+02 -0.99382742815E+01  0.22809929366E+02  0.17770000000E+01 0. -1.
         15    1    1    2    0    0 -0.83491812286E+01  0.18218735870E+02  0.10851248827E+00  0.20119658741E+02  0.17770000000E+01 0.  1.
</event>
<event>
 6    1  0.3836009E-003  0.5013710E+03  0.7546771E-02  0.9396747E-01
        -11   -1    0    0    0    0  0.00000000000E+00  0.00000000000E+00  0.50000000000E+03  0.50000000000E+03  0.00000000000E+00 0. -1.
         11   -1    0    0    0    0 -0.00000000000E+00 -0.00000000000E+00 -0.50000000000E+03  0.50000000000E+03  0.00000000000E+00 0.  1.
        -11    1    1    2    0    0 -0.80413075524E+01  0.11895414416E+01  0.46732047513E+03  0.46739116820E+03  0.00000000000E+00 0. -1.
         11    1    1    2    0    0  0.38311938557E+01  0.69316805506E+01 -0.49856605957E+03  0.49862896225E+03  0.00000000000E+00 0.  1.
        -15    1    1    2    0    0 -0.90862197986E+00 -0.76065895618E+01  0.19856474471E+02  0.21357038795E+02  0.17770000000E+01 0. -1.
         15    1    1    2    0    0  0.51187356766E+01 -0.51463243043E+00  0.11389109964E+02  0.12622830753E+02  0.17770000000E+01 0.  1.
</event>
<event>
 6    1  0.3836009E-003  0.5012404E+03  0.7546771E-02  0.9397039E-01
        -11   -1    0    0    0    0  0.00000000000E+00  0.00000000000E+00  0.50000000000E+03  0.50000000000E+03  0.00000000000E+00 0.  1.
         11   -1    0    0    0    0 -0.00000000000E+00 -0.00000000000E+00 -0.50000000000E+03  0.50000000000E+03  0.00000000000E+00 0.  1.
        -11    1    1    2    0    0 -0.11493334096E+01 -0.87337959605E+01  0.42875207679E+03  0.42884256261E+03  0.00000000000E+00 0.  1.
         11    1    1    2    0    0  0.83513124107E+01 -0.58043312504E+01 -0.49865593328E+03  0.49875963597E+03  0.00000000000E+00 0.  1.
        -15    1    1    2    0    0 -0.66986246479E+01  0.13820241769E+02  0.67661471010E+02  0.69405353129E+02  0.17770000000E+01 0. -1.
         15    1    1    2    0    0 -0.50335435319E+00  0.71788544193E+00  0.22423854814E+01  0.29924482886E+01  0.17770000000E+01 0.  1.
</event>
<event>
 6    1  0.3836009E-003  0.5162524E+03  0.7546771E-02  0.9364160E-01
        -11   -1    0    0    0    0  0.00000000000E+00  0.00000000000E+00  0.50000000000E+03  0.50000000000E+03  0.00000000000E+00 0. -1.
         11   -1    0    0    0    0 -0.00000000000E+00 -0.00000000000E+00 -0.50000000000E+03  0.50000000000E+03  0.00000000000E+00 0.  1.
        -11    1    1    2    0    0  0.21978026660E+02  0.88661846643E+01  0.48316669258E+03  0.48374755369E+03  0.00000000000E+00 0. -1.
         11    1    1    2    0    0 -0.55346619895E+01 -0.29986872103E+01 -0.42299385393E+03  0.42304068962E+03  0.00000000000E+00 0.  1.
        -15    1    1    2    0    0 -0.23860686629E+02 -0.75642189163E+01  0.66287654843E+01  0.25954730495E+02  0.17770000000E+01 0.  1.
         15    1    1    2    0    0  0.74173219577E+01  0.16967214623E+01 -0.66801604131E+02  0.67257026193E+02  0.17770000000E+01 0. -1.
</event>
<event>
 6    1  0.3836009E-003  0.5079950E+03  0.7546771E-02  0.9382096E-01
        -11   -1    0    0    0    0  0.00000000000E+00  0.00000000000E+00  0.50000000000E+03  0.50000000000E+03  0.00000000000E+00 0. -1.
         11   -1    0    0    0    0 -0.00000000000E+00 -0.00000000000E+00 -0.50000000000E+03  0.50000000000E+03  0.00000000000E+00 0.  1.
        -11    1    1    2    0    0 -0.68811773539E+01  0.10890407086E+01  0.49195571583E+03  0.49200504362E+03  0.00000000000E+00 0. -1.
         11    1    1    2    0    0 -0.98750568495E+01 -0.10477352823E+02 -0.43803898053E+03  0.43827552992E+03  0.00000000000E+00 0.  1.
        -15    1    1    2    0    0  0.38573973494E+01  0.31577319136E+01  0.60510297925E+01  0.80388727879E+01  0.17770000000E+01 0.  1.
         15    1    1    2    0    0  0.12898836854E+02  0.62305802011E+01 -0.59967765093E+02  0.61680553670E+02  0.17770000000E+01 0. -1.
</event>
<event>
 6    1  0.3836009E-003  0.5079821E+03  0.7546771E-02  0.9382124E-01
        -11   -1    0    0    0    0  0.00000000000E+00  0.00000000000E+00  0.50000000000E+03  0.50000000000E+03  0.00000000000E+00 0. -1.
         11   -1    0    0    0    0 -0.00000000000E+00 -0.00000000000E+00 -0.50000000000E+03  0.50000000000E+03  0.00000000000E+00 0. -1.
        -11    1    1    2    0    0  0.44069242195E+01  0.70049215559E+01  0.46143992228E+03  0.46151412956E+03  0.00000000000E+00 0. -1.
         11    1    1    2    0    0 -0.57326147821E+01  0.70216420604E+01 -0.49193438453E+03  0.49201789095E+03  0.00000000000E+00 0. -1.
        -15    1    1    2    0    0 -0.11765539552E+02 -0.71557067118E+00  0.23685372227E+02  0.26515930096E+02  0.17770000000E+01 0.  1.
         15    1    1    2    0    0  0.13091230114E+02 -0.13310992945E+02  0.68090900300E+01  0.19952049397E+02  0.17770000000E+01 0. -1.
</event>
<event>
 6    1  0.3836009E-003  0.5171037E+03  0.7546771E-02  0.9362332E-01
        -11   -1    0    0    0    0  0.00000000000E+00  0.00000000000E+00  0.50000000000E+03  0.50000000000E+03  0.00000000000E+00 0.  1.
         11   -1    0    0    0    0 -0.00000000000E+00 -0.00000000000E+00 -0.50000000000E+03  0.50000000000E+03  0.00000000000E+00 0. -1.
        -11    1    1    2    0    0  0.98844787754E+01  0.34495661571E+01  0.48278285031E+03  0.48289634808E+03  0.00000000000E+00 0.  1.
         11    1    1    2    0    0  0.55147093082E+01 -0.68204080192E+01 -0.43970742052E+03  0.43979489043E+03  0.00000000000E+00 0. -1.
        -15    1    1    2    0    0 -0.75840867319E+01 -0.29174539527E+02 -0.25153331235E+02  0.39300380779E+02  0.17770000000E+01 0. -1.
         15    1    1    2    0    0 -0.78151013517E+01  0.32545381389E+02 -0.17922098554E+02  0.38008380714E+02  0.17770000000E+01 0.  1.
</event>
<event>
 6    1  0.3836009E-003  0.5894444E+03  0.7546771E-02  0.9219288E-01
        -11   -1    0    0    0    0  0.00000000000E+00  0.00000000000E+00  0.50000000000E+03  0.50000000000E+03  0.00000000000E+00 0.  1.
         11   -1    0    0    0    0 -0.00000000000E+00 -0.00000000000E+00 -0.50000000000E+03  0.50000000000E+03  0.00000000000E+00 0.  1.
        -11    1    1    2    0    0  0.31739742145E+02 -0.27356676652E+02  0.40841170627E+03  0.41055562449E+03  0.00000000000E+00 0.  1.
         11    1    1    2    0    0  0.44610201184E+02  0.17444294445E+02 -0.18753440851E+03  0.19355497367E+03  0.00000000000E+00 0.  1.
        -15    1    1    2    0    0 -0.80090422144E+02 -0.37142088053E+02 -0.29503485981E+03  0.30796547965E+03  0.17770000000E+01 0.  1.
         15    1    1    2    0    0  0.37404788146E+01  0.47054470261E+02  0.74157562055E+02  0.87923922184E+02  0.17770000000E+01 0. -1.
</event>
<event>
 6    1  0.3836009E-003  0.5118759E+03  0.7546771E-02  0.9373622E-01
        -11   -1    0    0    0    0  0.00000000000E+00  0.00000000000E+00  0.50000000000E+03  0.50000000000E+03  0.00000000000E+00 0.  1.
         11   -1    0    0    0    0 -0.00000000000E+00 -0.00000000000E+00 -0.50000000000E+03  0.50000000000E+03  0.00000000000E+00 0. -1.
        -11    1    1    2    0    0 -0.11553799764E+02  0.29645056338E+01  0.48797832313E+03  0.48812408507E+03  0.00000000000E+00 0.  1.
         11    1    1    2    0    0  0.42466933003E+01  0.23198625557E+02 -0.29845618184E+03  0.29938654464E+03  0.00000000000E+00 0. -1.
        -15    1    1    2    0    0  0.20925154044E+02 -0.18903086960E+02 -0.67393401325E+01  0.29047636785E+02  0.17770000000E+01 0.  1.
         15    1    1    2    0    0 -0.13618047580E+02 -0.72600442314E+01 -0.18278280115E+03  0.18344173350E+03  0.17770000000E+01 0. -1.
</event>
<event>
 6    1  0.3836009E-003  0.5029559E+03  0.7546771E-02  0.9393220E-01
        -11   -1    0    0    0    0  0.00000000000E+00  0.00000000000E+00  0.50000000000E+03  0.50000000000E+03  0.00000000000E+00 0.  1.
         11   -1    0    0    0    0 -0.00000000000E+00 -0.00000000000E+00 -0.50000000000E+03  0.50000000000E+03  0.00000000000E+00 0.  1.
        -11    1    1    2    0    0 -0.37484733580E+01 -0.77259565075E+01  0.26158255740E+03  0.26172347199E+03  0.00000000000E+00 0.  1.
         11    1    1    2    0    0  0.66235781391E+01 -0.22570910066E+02 -0.49648716482E+03  0.49704408517E+03  0.00000000000E+00 0.  1.
        -15    1    1    2    0    0  0.14802452418E+02  0.31010579486E+02  0.18689370906E+03  0.19003469381E+03  0.17770000000E+01 0.  1.
         15    1    1    2    0    0 -0.17677557199E+02 -0.71371291242E+00  0.48010898360E+02  0.51197749023E+02  0.17770000000E+01 0. -1.
</event>
<event>
 6    1  0.3836009E-003  0.5096243E+03  0.7546771E-02  0.9378528E-01
        -11   -1    0    0    0    0  0.00000000000E+00  0.00000000000E+00  0.50000000000E+03  0.50000000000E+03  0.00000000000E+00 0. -1.
         11   -1    0    0    0    0 -0.00000000000E+00 -0.00000000000E+00 -0.50000000000E+03  0.50000000000E+03  0.00000000000E+00 0.  1.
        -11    1    1    2    0    0  0.10954451230E+02 -0.87637597397E+00  0.45741834914E+03  0.45755034058E+03  0.00000000000E+00 0. -1.
         11    1    1    2    0    0  0.31287089824E+01 -0.15066120850E+02 -0.49013417887E+03  0.49037566223E+03  0.00000000000E+00 0.  1.
        -15    1    1    2    0    0  0.27150469175E+00  0.15629658186E+02  0.34086023593E+02  0.37541639059E+02  0.17770000000E+01 0.  1.
         15    1    1    2    0    0 -0.14354664904E+02  0.31283863863E+00 -0.13701938657E+01  0.14532358128E+02  0.17770000000E+01 0. -1.
</event>
<event>
 6    1  0.3836009E-003  0.5008938E+03  0.7546771E-02  0.9397812E-01
        -11   -1    0    0    0    0  0.00000000000E+00  0.00000000000E+00  0.50000000000E+03  0.50000000000E+03  0.00000000000E+00 0.  1.
         11   -1    0    0    0    0 -0.00000000000E+00 -0.00000000000E+00 -0.50000000000E+03  0.50000000000E+03  0.00000000000E+00 0.  1.
        -11    1    1    2    0    0 -0.15278369334E+01  0.42542425809E+01  0.31819363439E+03  0.31822574037E+03  0.00000000000E+00 0.  1.
         11    1    1    2    0    0  0.67778868040E+01  0.17968978233E+02 -0.49873657487E+03  0.49910619616E+03  0.00000000000E+00 0.  1.
        -15    1    1    2    0    0 -0.69416884283E+01 -0.17385318199E+02  0.16735497383E+03  0.16840807974E+03  0.17770000000E+01 0. -1.
         15    1    1    2    0    0  0.16916385577E+01 -0.48379026146E+01  0.13187966647E+02  0.14259983731E+02  0.17770000000E+01 0.  1.
</event>
<event>
 6    1  0.3836009E-003  0.4698829E+03  0.7546771E-02  0.9469841E-01
        -11   -1    0    0    0    0  0.00000000000E+00  0.00000000000E+00  0.50000000000E+03  0.50000000000E+03  0.00000000000E+00 0.  1.
         11   -1    0    0    0    0 -0.00000000000E+00 -0.00000000000E+00 -0.50000000000E+03  0.50000000000E+03  0.00000000000E+00 0. -1.
        -11    1    1    2    0    0 -0.14598014611E+01  0.17855936933E+02  0.46972039213E+03  0.47006192389E+03  0.00000000000E+00 0.  1.
         11    1    1    2    0    0  0.19357449723E+02 -0.21386241201E+02 -0.46899495560E+03  0.46988120898E+03  0.00000000000E+00 0. -1.
        -15    1    1    2    0    0 -0.81715328039E+01  0.18007933910E+02 -0.23853184732E+02  0.31035331204E+02  0.17770000000E+01 0.  1.
         15    1    1    2    0    0 -0.97261154581E+01 -0.14477629642E+02  0.23127748198E+02  0.29021535929E+02  0.17770000000E+01 0. -1.
</event>
<event>
 6    1  0.3836009E-003  0.5017013E+03  0.7546771E-02  0.9396011E-01
        -11   -1    0    0    0    0  0.00000000000E+00  0.00000000000E+00  0.50000000000E+03  0.50000000000E+03  0.00000000000E+00 0. -1.
         11   -1    0    0    0    0 -0.00000000000E+00 -0.00000000000E+00 -0.50000000000E+03  0.50000000000E+03  0.00000000000E+00 0. -1.
        -11    1    1    2    0    0  0.38446432120E+01  0.48263017356E+01  0.38722502181E+03  0.38727418193E+03  0.00000000000E+00 0. -1.
         11    1    1    2    0    0  0.11209577134E+02 -0.14911088945E+02 -0.49794940810E+03  0.49829871384E+03  0.00000000000E+00 0. -1.
        -15    1    1    2    0    0 -0.50031503891E+01  0.72387528488E+01  0.11263248025E+02  0.14403108751E+02  0.17770000000E+01 0. -1.
         15    1    1    2    0    0 -0.10051069957E+02  0.28460343609E+01  0.99461138261E+02  0.10002399548E+03  0.17770000000E+01 0.  1.
</event>
<event>
 6    1  0.3836009E-003  0.5013432E+03  0.7546771E-02  0.9396809E-01
        -11   -1    0    0    0    0  0.00000000000E+00  0.00000000000E+00  0.50000000000E+03  0.50000000000E+03  0.00000000000E+00 0. -1.
         11   -1    0    0    0    0 -0.00000000000E+00 -0.00000000000E+00 -0.50000000000E+03  0.50000000000E+03  0.00000000000E+00 0. -1.
        -11    1    1    2    0    0  0.44320146169E+01 -0.94116044425E+00  0.11814087853E+03  0.11822772820E+03  0.00000000000E+00 0. -1.
         11    1    1    2    0    0  0.60834140723E+00  0.23761595754E+02 -0.49809000846E+03  0.49865683595E+03  0.00000000000E+00 0. -1.
        -15    1    1    2    0    0 -0.18146033182E+02  0.81704587892E+00  0.23128402347E+03  0.23200302439E+03  0.17770000000E+01 0. -1.
         15    1    1    2    0    0  0.13105677158E+02 -0.23637481189E+02  0.14866510646E+03  0.15111241146E+03  0.17770000000E+01 0.  1.
</event>
<event>
 6    1  0.3836009E-003  0.5025210E+03  0.7546771E-02  0.9394186E-01
        -11   -1    0    0    0    0  0.00000000000E+00  0.00000000000E+00  0.50000000000E+03  0.50000000000E+03  0.00000000000E+00 0.  1.
         11   -1    0    0    0    0 -0.00000000000E+00 -0.00000000000E+00 -0.50000000000E+03  0.50000000000E+03  0.00000000000E+00 0.  1.
        -11    1    1    2    0    0 -0.17547683035E+01 -0.67649099423E+01  0.49742987992E+03  0.49747897308E+03  0.00000000000E+00 0.  1.
         11    1    1    2    0    0  0.49587399344E+00  0.45659962829E+01 -0.17674786187E+03  0.17680752498E+03  0.00000000000E+00 0.  1.
        -15    1    1    2    0    0  0.16333683721E+02 -0.41603419438E+01 -0.29313663796E+03  0.29362619759E+03  0.17770000000E+01 0.  1.
         15    1    1    2    0    0 -0.15074789411E+02  0.63592556032E+01 -0.27545380086E+02  0.32087304354E+02  0.17770000000E+01 0. -1.
</event>
<event>
 6    1  0.3836009E-003  0.5029911E+03  0.7546771E-02  0.9393142E-01
        -11   -1    0    0    0    0  0.00000000000E+00  0.00000000000E+00  0.50000000000E+03  0.50000000000E+03  0.00000000000E+00 0.  1.
         11   -1    0    0    0    0 -0.00000000000E+00 -0.00000000000E+00 -0.50000000000E+03  0.50000000000E+03  0.00000000000E+00 0. -1.
        -11    1    1    2    0    0 -0.13331386773E+02  0.89081798886E+00  0.42919919823E+03  0.42940711590E+03  0.00000000000E+00 0.  1.
         11    1    1    2    0    0  0.16869795369E+02  0.20080045834E+02 -0.49631646558E+03  0.49700888548E+03  0.00000000000E+00 0. -1.
        -15    1    1    2    0    0  0.81420554948E+01 -0.10266844969E+02  0.39981627858E+02  0.42111631035E+02  0.17770000000E+01 0.  1.
         15    1    1    2    0    0 -0.11680464091E+02 -0.10704018854E+02  0.27135639501E+02  0.31472367580E+02  0.17770000000E+01 0. -1.
</event>
<event>
 6    1  0.3836009E-003  0.5098748E+03  0.7546771E-02  0.9377981E-01
        -11   -1    0    0    0    0  0.00000000000E+00  0.00000000000E+00  0.50000000000E+03  0.50000000000E+03  0.00000000000E+00 0.  1.
         11   -1    0    0    0    0 -0.00000000000E+00 -0.00000000000E+00 -0.50000000000E+03  0.50000000000E+03  0.00000000000E+00 0.  1.
        -11    1    1    2    0    0 -0.29455849113E+01  0.71524225823E+01  0.38440072418E+03  0.38447854345E+03  0.00000000000E+00 0.  1.
         11    1    1    2    0    0 -0.33143699659E+01  0.97697338029E+01 -0.49001664316E+03  0.49012523229E+03  0.00000000000E+00 0.  1.
        -15    1    1    2    0    0  0.35255081078E+01  0.65303484443E+01  0.10098072420E+03  0.10126864789E+03  0.17770000000E+01 0. -1.
         15    1    1    2    0    0  0.27344467694E+01 -0.23452504829E+02  0.46351947881E+01  0.24127576373E+02  0.17770000000E+01 0.  1.
</event>
<event>
 6    1  0.3836009E-003  0.5080224E+03  0.7546771E-02  0.9382036E-01
        -11   -1    0    0    0    0  0.00000000000E+00  0.00000000000E+00  0.50000000000E+03  0.50000000000E+03  0.00000000000E+00 0.  1.
         11   -1    0    0    0    0 -0.00000000000E+00 -0.00000000000E+00 -0.50000000000E+03  0.50000000000E+03  0.00000000000E+00 0.  1.
        -11    1    1    2    0    0 -0.13839070161E+02  0.67126447062E+00  0.49178243310E+03  0.49197757263E+03  0.00000000000E+00 0.  1.
         11    1    1    2    0    0 -0.48178968936E+01  0.48691237273E+01 -0.32327847542E+03  0.32335103705E+03  0.00000000000E+00 0.  1.
        -15    1    1    2    0    0  0.10695540144E+02 -0.10308725971E+01  0.42318204820E+01  0.11684319017E+02  0.17770000000E+01 0. -1.
         15    1    1    2    0    0  0.79614269104E+01 -0.45095156009E+01 -0.17273577817E+03  0.17298707130E+03  0.17770000000E+01 0.  1.
</event>
<event>
 6    1  0.3836009E-003  0.5008351E+03  0.7546771E-02  0.9397943E-01
        -11   -1    0    0    0    0  0.00000000000E+00  0.00000000000E+00  0.50000000000E+03  0.50000000000E+03  0.00000000000E+00 0.  1.
         11   -1    0    0    0    0 -0.00000000000E+00 -0.00000000000E+00 -0.50000000000E+03  0.50000000000E+03  0.00000000000E+00 0.  1.
        -11    1    1    2    0    0  0.47475731549E+01  0.86966939376E+01  0.19732096314E+03  0.19756956858E+03  0.00000000000E+00 0.  1.
         11    1    1    2    0    0  0.12237175981E+02 -0.17742352714E+01 -0.49901171022E+03  0.49916488591E+03  0.00000000000E+00 0.  1.
        -15    1    1    2    0    0 -0.96175647909E+01  0.49873812596E+01  0.50553564732E+02  0.51731925930E+02  0.17770000000E+01 0. -1.
         15    1    1    2    0    0 -0.73671843455E+01 -0.11909839926E+02  0.25113718235E+03  0.25153361958E+03  0.17770000000E+01 0.  1.
</event>
<event>
 6    1  0.3836009E-003  0.5013667E+03  0.7546771E-02  0.9396757E-01
        -11   -1    0    0    0    0  0.00000000000E+00  0.00000000000E+00  0.50000000000E+03  0.50000000000E+03  0.00000000000E+00 0.  1.
         11   -1    0    0    0    0 -0.00000000000E+00 -0.00000000000E+00 -0.50000000000E+03  0.50000000000E+03  0.00000000000E+00 0.  1.
        -11    1    1    2    0    0 -0.13203793549E+01 -0.30843567719E+00  0.64601717926E+02  0.64615946122E+02  0.00000000000E+00 0.  1.
         11    1    1    2    0    0 -0.23858413664E+02 -0.13717483272E+02 -0.49787325809E+03  0.49863330652E+03  0.00000000000E+00 0.  1.
        -15    1    1    2    0    0 -0.21049326476E+01  0.16463643882E+02  0.54821854007E+02  0.57306855760E+02  0.17770000000E+01 0. -1.
         15    1    1    2    0    0  0.27283725666E+02 -0.24377249329E+01  0.37844968616E+03  0.37944389160E+03  0.17770000000E+01 0.  1.
</event>
<event>
 6    1  0.3836009E-003  0.5020767E+03  0.7546771E-02  0.9395175E-01
        -11   -1    0    0    0    0  0.00000000000E+00  0.00000000000E+00  0.50000000000E+03  0.50000000000E+03  0.00000000000E+00 0.  1.
         11   -1    0    0    0    0 -0.00000000000E+00 -0.00000000000E+00 -0.50000000000E+03  0.50000000000E+03  0.00000000000E+00 0. -1.
        -11    1    1    2    0    0 -0.35372056592E+01 -0.62065955657E+01  0.49787206565E+03  0.49792331479E+03  0.00000000000E+00 0.  1.
         11    1    1    2    0    0  0.80136336458E+01 -0.24720899439E+01 -0.45856418166E+03  0.45864085977E+03  0.00000000000E+00 0. -1.
        -15    1    1    2    0    0 -0.62864545416E+01  0.72146937652E+01 -0.39320442315E+02  0.40507113321E+02  0.17770000000E+01 0.  1.
         15    1    1    2    0    0  0.18100265550E+01  0.14639917443E+01  0.12558320190E-01  0.29287121178E+01  0.17770000000E+01 0. -1.
</event>
<event>
 6    1  0.3836009E-003  0.5059531E+03  0.7546771E-02  0.9386587E-01
        -11   -1    0    0    0    0  0.00000000000E+00  0.00000000000E+00  0.50000000000E+03  0.50000000000E+03  0.00000000000E+00 0. -1.
         11   -1    0    0    0    0 -0.00000000000E+00 -0.00000000000E+00 -0.50000000000E+03  0.50000000000E+03  0.00000000000E+00 0.  1.
        -11    1    1    2    0    0 -0.13373642011E+02 -0.48835310465E+01  0.49384171929E+03  0.49404690758E+03  0.00000000000E+00 0. -1.
         11    1    1    2    0    0 -0.17816349344E+02  0.10313949537E+02 -0.41612608082E+03  0.41663499013E+03  0.00000000000E+00 0.  1.
        -15    1    1    2    0    0  0.95221882840E+01 -0.96344275417E+01 -0.58264594401E+02  0.59844924209E+02  0.17770000000E+01 0.  1.
         15    1    1    2    0    0  0.21667803070E+02  0.42040090509E+01 -0.19451044069E+02  0.29473178084E+02  0.17770000000E+01 0. -1.
</event>
<event>
 6    1  0.3836009E-003  0.5004420E+03  0.7546771E-02  0.9398821E-01
        -11   -1    0    0    0    0  0.00000000000E+00  0.00000000000E+00  0.50000000000E+03  0.50000000000E+03  0.00000000000E+00 0.  1.
         11   -1    0    0    0    0 -0.00000000000E+00 -0.00000000000E+00 -0.50000000000E+03  0.50000000000E+03  0.00000000000E+00 0. -1.
        -11    1    1    2    0    0 -0.44646122833E+01 -0.15997886082E+01  0.29645077230E+03  0.29648870549E+03  0.00000000000E+00 0.  1.
         11    1    1    2    0    0 -0.86814181155E+01  0.46946552328E+01 -0.49946048982E+03  0.49955799233E+03  0.00000000000E+00 0. -1.
        -15    1    1    2    0    0  0.67576288349E+01 -0.26656205704E+01  0.33989257931E+02  0.34802276710E+02  0.17770000000E+01 0. -1.
         15    1    1    2    0    0  0.63884015639E+01 -0.42924605406E+00  0.16902045959E+03  0.16915102547E+03  0.17770000000E+01 0.  1.
</event>
<event>
 6    1  0.3836009E-003  0.5090904E+03  0.7546771E-02  0.9379696E-01
        -11   -1    0    0    0    0  0.00000000000E+00  0.00000000000E+00  0.50000000000E+03  0.50000000000E+03  0.00000000000E+00 0.  1.
         11   -1    0    0    0    0 -0.00000000000E+00 -0.00000000000E+00 -0.50000000000E+03  0.50000000000E+03  0.00000000000E+00 0. -1.
        -11    1    1    2    0    0 -0.14945709821E+02 -0.17779911161E+01  0.30549090847E+03  0.30586145663E+03  0.00000000000E+00 0.  1.
         11    1    1    2    0    0  0.24594904803E+00  0.42225539611E+02 -0.48909014084E+03  0.49090958695E+03  0.00000000000E+00 0. -1.
        -15    1    1    2    0    0 -0.27182131041E+02 -0.31813066304E+02  0.66896065973E+02  0.78925159532E+02  0.17770000000E+01 0.  1.
         15    1    1    2    0    0  0.41881891813E+02 -0.86344821908E+01  0.11670316640E+03  0.12430379689E+03  0.17770000000E+01 0. -1.
</event>
<event>
 6    1  0.3836009E-003  0.5034144E+03  0.7546771E-02  0.9392202E-01
        -11   -1    0    0    0    0  0.00000000000E+00  0.00000000000E+00  0.50000000000E+03  0.50000000000E+03  0.00000000000E+00 0.  1.
         11   -1    0    0    0    0 -0.00000000000E+00 -0.00000000000E+00 -0.50000000000E+03  0.50000000000E+03  0.00000000000E+00 0.  1.
        -11    1    1    2    0    0 -0.71118487820E+01  0.28496031531E+01  0.41122148316E+03  0.41129284804E+03  0.00000000000E+00 0.  1.
         11    1    1    2    0    0 -0.58425835981E+01  0.19608555264E+02 -0.49616394875E+03  0.49658563739E+03  0.00000000000E+00 0.  1.
        -15    1    1    2    0    0 -0.47412979976E+01 -0.95468968065E+01  0.47428001205E+02  0.48643562499E+02  0.17770000000E+01 0. -1.
         15    1    1    2    0    0  0.17695730378E+02 -0.12911261611E+02  0.37514464379E+02  0.43477952075E+02  0.17770000000E+01 0.  1.
</event>
<event>
 6    1  0.3836009E-003  0.5017744E+03  0.7546771E-02  0.9395848E-01
        -11   -1    0    0    0    0  0.00000000000E+00  0.00000000000E+00  0.50000000000E+03  0.50000000000E+03  0.00000000000E+00 0.  1.
         11   -1    0    0    0    0 -0.00000000000E+00 -0.00000000000E+00 -0.50000000000E+03  0.50000000000E+03  0.00000000000E+00 0. -1.
        -11    1    1    2    0    0  0.93327873142E+01  0.11976861199E+02  0.49799421352E+03  0.49822563445E+03  0.00000000000E+00 0.  1.
         11    1    1    2    0    0 -0.23801017769E+00  0.61912897411E+01 -0.29674321849E+03  0.29680789484E+03  0.00000000000E+00 0. -1.
        -15    1    1    2    0    0 -0.86485070028E+01 -0.19618427132E+02 -0.20147379580E+03  0.20261916859E+03  0.17770000000E+01 0. -1.
         15    1    1    2    0    0 -0.44627013368E+00  0.14502761917E+01  0.22280077621E+00  0.23473021217E+01  0.17770000000E+01 0.  1.
</event>
<event>
 6    1  0.3836009E-003  0.5048842E+03  0.7546771E-02  0.9388947E-01
        -11   -1    0    0    0    0  0.00000000000E+00  0.00000000000E+00  0.50000000000E+03  0.50000000000E+03  0.00000000000E+00 0. -1.
         11   -1    0    0    0    0 -0.00000000000E+00 -0.00000000000E+00 -0.50000000000E+03  0.50000000000E+03  0.00000000000E+00 0.  1.
        -11    1    1    2    0    0 -0.13232654235E+02 -0.52531581426E+01  0.43788917380E+03  0.43812056256E+03  0.00000000000E+00 0. -1.
         11    1    1    2    0    0 -0.49310669382E+01  0.12866058766E+02 -0.49492399704E+03  0.49511575792E+03  0.00000000000E+00 0.  1.
        -15    1    1    2    0    0  0.43230558299E+01 -0.17084030585E+02  0.32074049130E+02  0.36639531510E+02  0.17770000000E+01 0.  1.
         15    1    1    2    0    0  0.13840665344E+02  0.94711299620E+01  0.24960774119E+02  0.30124148013E+02  0.17770000000E+01 0. -1.
</event>
<event>
 6    1  0.3836009E-003  0.5025642E+03  0.7546771E-02  0.9394090E-01
        -11   -1    0    0    0    0  0.00000000000E+00  0.00000000000E+00  0.50000000000E+03  0.50000000000E+03  0.00000000000E+00 0.  1.
         11   -1    0    0    0    0 -0.00000000000E+00 -0.00000000000E+00 -0.50000000000E+03  0.50000000000E+03  0.00000000000E+00 0. -1.
        -11    1    1    2    0    0  0.65210163973E+00 -0.11003941604E+02  0.45554115670E+03  0.45567450819E+03  0.00000000000E+00 0.  1.
         11    1    1    2    0    0 -0.38846274213E+01  0.97884151745E+01 -0.49732433113E+03  0.49743581871E+03  0.00000000000E+00 0. -1.
        -15    1    1    2    0    0 -0.18569334332E+01  0.69100888549E+00 -0.16425264657E+01  0.31275097515E+01  0.17770000000E+01 0.  1.
         15    1    1    2    0    0  0.50894592148E+01  0.52451754411E+00  0.43425700892E+02  0.43762163346E+02  0.17770000000E+01 0. -1.
</event>
<event>
 6    1  0.3836009E-003  0.5029932E+03  0.7546771E-02  0.9393137E-01
        -11   -1    0    0    0    0  0.00000000000E+00  0.00000000000E+00  0.50000000000E+03  0.50000000000E+03  0.00000000000E+00 0.  1.
         11   -1    0    0    0    0 -0.00000000000E+00 -0.00000000000E+00 -0.50000000000E+03  0.50000000000E+03  0.00000000000E+00 0.  1.
        -11    1    1    2    0    0 -0.24974593097E+01  0.80911848501E+01  0.41376963967E+03  0.41385627854E+03  0.00000000000E+00 0.  1.
         11    1    1    2    0    0  0.13620265784E+01  0.10797105263E+02 -0.49688763482E+03  0.49700679496E+03  0.00000000000E+00 0.  1.
        -15    1    1    2    0    0 -0.67539549092E+01  0.35956959692E+01  0.27585316990E+02  0.28681917280E+02  0.17770000000E+01 0.  1.
         15    1    1    2    0    0  0.78893876405E+01 -0.22483986082E+02  0.55532678161E+02  0.60455009224E+02  0.17770000000E+01 0. -1.
</event>
<event>
 6    1  0.3836009E-003  0.5016176E+03  0.7546771E-02  0.9396197E-01
        -11   -1    0    0    0    0  0.00000000000E+00  0.00000000000E+00  0.50000000000E+03  0.50000000000E+03  0.00000000000E+00 0. -1.
         11   -1    0    0    0    0 -0.00000000000E+00 -0.00000000000E+00 -0.50000000000E+03  0.50000000000E+03  0.00000000000E+00 0. -1.
        -11    1    1    2    0    0 -0.41394739125E+01 -0.43220608906E+01  0.28903164591E+03  0.28909359694E+03  0.00000000000E+00 0. -1.
         11    1    1    2    0    0 -0.11534915280E+02 -0.11005194002E+02 -0.49812730376E+03  0.49838236257E+03  0.00000000000E+00 0. -1.
        -15    1    1    2    0    0  0.12672077724E+02  0.18383956985E+02  0.73224534866E+02  0.76573766157E+02  0.17770000000E+01 0. -1.
         15    1    1    2    0    0  0.30023114684E+01 -0.30567020915E+01  0.13587112299E+03  0.13595027434E+03  0.17770000000E+01 0.  1.
</event>
<event>
 6    1  0.3836009E-003  0.5112645E+03  0.7546771E-02  0.9374952E-01
        -11   -1    0    0    0    0  0.00000000000E+00  0.00000000000E+00  0.50000000000E+03  0.50000000000E+03  0.00000000000E+00 0. -1.
         11   -1    0    0    0    0 -0.00000000000E+00 -0.00000000000E+00 -0.50000000000E+03  0.50000000000E+03  0.00000000000E+00 0. -1.
        -11    1    1    2    0    0 -0.68255091444E+01  0.85688401837E+00  0.48868713285E+03  0.48873554775E+03  0.00000000000E+00 0. -1.
         11    1    1    2    0    0 -0.70342232534E+01  0.36850149027E+01 -0.45826312596E+03  0.45833192366E+03  0.00000000000E+00 0. -1.
        -15    1    1    2    0    0  0.17886123715E+02  0.53499767789E+01  0.18943094066E+01  0.18848920665E+02  0.17770000000E+01 0. -1.
         15    1    1    2    0    0 -0.40263913177E+01 -0.98918757000E+01 -0.32318316296E+02  0.34083607924E+02  0.17770000000E+01 0.  1.
</event>
<event>
 6    1  0.3836009E-003  0.5002740E+03  0.7546771E-02  0.9399197E-01
        -11   -1    0    0    0    0  0.00000000000E+00  0.00000000000E+00  0.50000000000E+03  0.50000000000E+03  0.00000000000E+00 0.  1.
         11   -1    0    0    0    0 -0.00000000000E+00 -0.00000000000E+00 -0.50000000000E+03  0.50000000000E+03  0.00000000000E+00 0. -1.
        -11    1    1    2    0    0  0.57243341844E+01  0.88204388551E+01  0.49961534617E+03  0.49972598719E+03  0.00000000000E+00 0.  1.
         11    1    1    2    0    0  0.54078443934E+01 -0.27522914223E+01 -0.30715028432E+03  0.30721021637E+03  0.00000000000E+00 0. -1.
        -15    1    1    2    0    0 -0.50621226601E+01  0.12027710157E+01 -0.62006106698E+02  0.62249391489E+02  0.17770000000E+01 0.  1.
         15    1    1    2    0    0 -0.60700559177E+01 -0.72709184486E+01 -0.13045895515E+03  0.13081440495E+03  0.17770000000E+01 0. -1.
</event>
<event>
 6    1  0.3836009E-003  0.5066938E+03  0.7546771E-02  0.9384955E-01
        -11   -1    0    0    0    0  0.00000000000E+00  0.00000000000E+00  0.50000000000E+03  0.50000000000E+03  0.00000000000E+00 0. -1.
         11   -1    0    0    0    0 -0.00000000000E+00 -0.00000000000E+00 -0.50000000000E+03  0.50000000000E+03  0.00000000000E+00 0.  1.
        -11    1    1    2    0    0 -0.73068677234E+01  0.54706701699E+00  0.35147062116E+03  0.35154699137E+03  0.00000000000E+00 0. -1.
         11    1    1    2    0    0  0.44212043867E+00 -0.97492863921E+01 -0.49320967175E+03  0.49330621764E+03  0.00000000000E+00 0.  1.
        -15    1    1    2    0    0  0.31717693765E+02 -0.77731485328E+01  0.67007338926E+02  0.74562558532E+02  0.17770000000E+01 0. -1.
         15    1    1    2    0    0 -0.24852946481E+02  0.16975367908E+02  0.74731711660E+02  0.80584232459E+02  0.17770000000E+01 0.  1.
</event>
<event>
 6    1  0.3836009E-003  0.5006132E+03  0.7546771E-02  0.9398439E-01
        -11   -1    0    0    0    0  0.00000000000E+00  0.00000000000E+00  0.50000000000E+03  0.50000000000E+03  0.00000000000E+00 0. -1.
         11   -1    0    0    0    0 -0.00000000000E+00 -0.00000000000E+00 -0.50000000000E+03  0.50000000000E+03  0.00000000000E+00 0. -1.
        -11    1    1    2    0    0 -0.64280255895E+01 -0.43332691865E+01  0.49932660866E+03  0.49938678281E+03  0.00000000000E+00 0. -1.
         11    1    1    2    0    0 -0.18868692254E+01 -0.36888629014E+01 -0.30108385042E+03  0.30111235938E+03  0.00000000000E+00 0. -1.
        -15    1    1    2    0    0  0.20109357819E+01  0.44208238373E+01 -0.17519696940E+03  0.17527328194E+03  0.17770000000E+01 0. -1.
         15    1    1    2    0    0  0.63039590330E+01  0.36013082506E+01 -0.23045788835E+02  0.24227575872E+02  0.17770000000E+01 0.  1.
</event>
<event>
 6    1  0.3836009E-003  0.5088345E+03  0.7546771E-02  0.9380256E-01
        -11   -1    0    0    0    0  0.00000000000E+00  0.00000000000E+00  0.50000000000E+03  0.50000000000E+03  0.00000000000E+00 0. -1.
         11   -1    0    0    0    0 -0.00000000000E+00 -0.00000000000E+00 -0.50000000000E+03  0.50000000000E+03  0.00000000000E+00 0. -1.
        -11    1    1    2    0    0  0.25315056652E+02 -0.22921424767E+02  0.48997682221E+03  0.49116548139E+03  0.00000000000E+00 0. -1.
         11    1    1    2    0    0 -0.23646175928E+02  0.60013057794E+01 -0.97630813600E+02  0.10063266404E+03  0.00000000000E+00 0. -1.
        -15    1    1    2    0    0  0.25188206667E+02  0.57557366136E+02 -0.24834357091E+03  0.25617373614E+03  0.17770000000E+01 0. -1.
         15    1    1    2    0    0 -0.26857087391E+02 -0.40637247148E+02 -0.14400243770E+03  0.15202811843E+03  0.17770000000E+01 0.  1.
</event>
<event>
 6    1  0.3836009E-003  0.5132013E+03  0.7546771E-02  0.9370746E-01
        -11   -1    0    0    0    0  0.00000000000E+00  0.00000000000E+00  0.50000000000E+03  0.50000000000E+03  0.00000000000E+00 0.  1.
         11   -1    0    0    0    0 -0.00000000000E+00 -0.00000000000E+00 -0.50000000000E+03  0.50000000000E+03  0.00000000000E+00 0.  1.
        -11    1    1    2    0    0 -0.26259406240E+02  0.19726395468E+02  0.48568950540E+03  0.48679870866E+03  0.00000000000E+00 0.  1.
         11    1    1    2    0    0  0.11732902855E+02  0.10562028804E+02 -0.40936448978E+03  0.40966877225E+03  0.00000000000E+00 0.  1.
        -15    1    1    2    0    0  0.36193896234E+02 -0.86385360347E+01 -0.53936677815E+02  0.65551089786E+02  0.17770000000E+01 0.  1.
         15    1    1    2    0    0 -0.21667392848E+02 -0.21649888237E+02 -0.22388337802E+02  0.37981429305E+02  0.17770000000E+01 0. -1.
</event>
<event>
 6    1  0.3836009E-003  0.5065827E+03  0.7546771E-02  0.9385200E-01
        -11   -1    0    0    0    0  0.00000000000E+00  0.00000000000E+00  0.50000000000E+03  0.50000000000E+03  0.00000000000E+00 0.  1.
         11   -1    0    0    0    0 -0.00000000000E+00 -0.00000000000E+00 -0.50000000000E+03  0.50000000000E+03  0.00000000000E+00 0.  1.
        -11    1    1    2    0    0  0.14279635759E+02 -0.82839932809E+00  0.43618146863E+03  0.43641593443E+03  0.00000000000E+00 0.  1.
         11    1    1    2    0    0 -0.15639754872E+02  0.11622346586E+02 -0.49303237913E+03  0.49341727548E+03  0.00000000000E+00 0.  1.
        -15    1    1    2    0    0  0.11631136365E+02 -0.14670736182E+02  0.86510021374E+01  0.20700516908E+02  0.17770000000E+01 0.  1.
         15    1    1    2    0    0 -0.10271017251E+02  0.38767889240E+01  0.48199908359E+02  0.49466273182E+02  0.17770000000E+01 0. -1.
</event>
<event>
 6    1  0.3836009E-003  0.5062883E+03  0.7546771E-02  0.9385848E-01
        -11   -1    0    0    0    0  0.00000000000E+00  0.00000000000E+00  0.50000000000E+03  0.50000000000E+03  0.00000000000E+00 0.  1.
         11   -1    0    0    0    0 -0.00000000000E+00 -0.00000000000E+00 -0.50000000000E+03  0.50000000000E+03  0.00000000000E+00 0. -1.
        -11    1    1    2    0    0  0.12509914184E+02 -0.20273136847E+00  0.46715344943E+03  0.46732096504E+03  0.00000000000E+00 0.  1.
         11    1    1    2    0    0 -0.13331544085E+02  0.10840930879E+00 -0.49353168021E+03  0.49371171871E+03  0.00000000000E+00 0. -1.
        -15    1    1    2    0    0  0.93671120422E+01 -0.43961043064E+01 -0.33870400680E+00  0.10504331035E+02  0.17770000000E+01 0.  1.
         15    1    1    2    0    0 -0.85454821412E+01  0.44904263660E+01  0.26716934785E+02  0.28462985214E+02  0.17770000000E+01 0. -1.
</event>
<event>
 6    1  0.3836009E-003  0.5113157E+03  0.7546771E-02  0.9374840E-01
        -11   -1    0    0    0    0  0.00000000000E+00  0.00000000000E+00  0.50000000000E+03  0.50000000000E+03  0.00000000000E+00 0. -1.
         11   -1    0    0    0    0 -0.00000000000E+00 -0.00000000000E+00 -0.50000000000E+03  0.50000000000E+03  0.00000000000E+00 0.  1.
        -11    1    1    2    0    0  0.88358983383E+01  0.12690192816E+02  0.42556146026E+03  0.42584230714E+03  0.00000000000E+00 0. -1.
         11    1    1    2    0    0  0.10235840589E+02  0.20449238447E+01 -0.48857280576E+03  0.48868429551E+03  0.00000000000E+00 0.  1.
        -15    1    1    2    0    0 -0.97329003122E+01 -0.31324410903E+02  0.56350374823E+02  0.65226302506E+02  0.17770000000E+01 0. -1.
         15    1    1    2    0    0 -0.93388386154E+01  0.16589294243E+02  0.66609706801E+01  0.20247094842E+02  0.17770000000E+01 0.  1.
</event>
<event>
 6    1  0.3836009E-003  0.5019121E+03  0.7546771E-02  0.9395541E-01
        -11   -1    0    0    0    0  0.00000000000E+00  0.00000000000E+00  0.50000000000E+03  0.50000000000E+03  0.00000000000E+00 0.  1.
         11   -1    0    0    0    0 -0.00000000000E+00 -0.00000000000E+00 -0.50000000000E+03  0.50000000000E+03  0.00000000000E+00 0. -1.
        -11    1    1    2    0    0  0.55270870275E+00 -0.57157385270E+01  0.23801695585E+03  0.23808621637E+03  0.00000000000E+00 0.  1.
         11    1    1    2    0    0 -0.44874201783E+01 -0.11044917228E+02 -0.49794523584E+03  0.49808792901E+03  0.00000000000E+00 0. -1.
        -15    1    1    2    0    0 -0.16125033136E+01  0.66729930573E+01  0.51080165488E+01  0.87394831278E+01  0.17770000000E+01 0.  1.
         15    1    1    2    0    0  0.55472147891E+01  0.10087662698E+02  0.25482026344E+03  0.25508637149E+03  0.17770000000E+01 0. -1.
</event>
<event>
 6    1  0.3836009E-003  0.5064437E+03  0.7546771E-02  0.9385506E-01
        -11   -1    0    0    0    0  0.00000000000E+00  0.00000000000E+00  0.50000000000E+03  0.50000000000E+03  0.00000000000E+00 0.  1.
         11   -1    0    0    0    0 -0.00000000000E+00 -0.00000000000E+00 -0.50000000000E+03  0.50000000000E+03  0.00000000000E+00 0. -1.
        -11    1    1    2    0    0 -0.49146568114E+01  0.68471278773E+01  0.49348435397E+03  0.49355632366E+03  0.00000000000E+00 0.  1.
         11    1    1    2    0    0 -0.63574238814E+01  0.15410987604E+00 -0.45604988604E+03  0.45609422179E+03  0.00000000000E+00 0. -1.
        -15    1    1    2    0    0  0.15664465830E+02 -0.69509622973E+01 -0.55300061128E+01  0.18095028687E+02  0.17770000000E+01 0. -1.
         15    1    1    2    0    0 -0.43923851371E+01 -0.50275456090E-01 -0.31904461818E+02  0.32254425862E+02  0.17770000000E+01 0.  1.
</event>
<event>
 6    1  0.3836009E-003  0.5001805E+03  0.7546771E-02  0.9399406E-01
        -11   -1    0    0    0    0  0.00000000000E+00  0.00000000000E+00  0.50000000000E+03  0.50000000000E+03  0.00000000000E+00 0.  1.
         11   -1    0    0    0    0 -0.00000000000E+00 -0.00000000000E+00 -0.50000000000E+03  0.50000000000E+03  0.00000000000E+00 0. -1.
        -11    1    1    2    0    0  0.31913244850E+01 -0.62600742621E+01  0.49977005993E+03  0.49981945329E+03  0.00000000000E+00 0.  1.
         11    1    1    2    0    0 -0.30420646924E+01 -0.68838904948E+00 -0.11581374699E+03  0.11585573801E+03  0.00000000000E+00 0. -1.
        -15    1    1    2    0    0 -0.61286580528E+01  0.21316493744E+01 -0.27566739440E+03  0.27574947769E+03  0.17770000000E+01 0. -1.
         15    1    1    2    0    0  0.59793982602E+01  0.48168139372E+01 -0.10828891853E+03  0.10857533102E+03  0.17770000000E+01 0.  1.
</event>
<event>
 6    1  0.3836009E-003  0.5074307E+03  0.7546771E-02  0.9383335E-01
        -11   -1    0    0    0    0  0.00000000000E+00  0.00000000000E+00  0.50000000000E+03  0.50000000000E+03  0.00000000000E+00 0. -1.
         11   -1    0    0    0    0 -0.00000000000E+00 -0.00000000000E+00 -0.50000000000E+03  0.50000000000E+03  0.00000000000E+00 0. -1.
        -11    1    1    2    0    0  0.91886426906E+01 -0.19883467107E+00  0.49248351676E+03  0.49256926921E+03  0.00000000000E+00 0. -1.
         11    1    1    2    0    0 -0.46264231599E+01 -0.89464467022E+01 -0.46220273265E+03  0.46231245794E+03  0.00000000000E+00 0. -1.
        -15    1    1    2    0    0 -0.89901874963E+00  0.36250356400E+01  0.64994619083E+01  0.77038855262E+01  0.17770000000E+01 0. -1.
         15    1    1    2    0    0 -0.36632007811E+01  0.55202457333E+01 -0.36780246020E+02  0.37414387329E+02  0.17770000000E+01 0.  1.
</event>
<event>
 6    1  0.3836009E-003  0.5136831E+03  0.7546771E-02  0.9369703E-01
        -11   -1    0    0    0    0  0.00000000000E+00  0.00000000000E+00  0.50000000000E+03  0.50000000000E+03  0.00000000000E+00 0.  1.
         11   -1    0    0    0    0 -0.00000000000E+00 -0.00000000000E+00 -0.50000000000E+03  0.50000000000E+03  0.00000000000E+00 0. -1.
        -11    1    1    2    0    0  0.10544575254E+02  0.12254713381E+02  0.48604815110E+03  0.48631694527E+03  0.00000000000E+00 0.  1.
         11    1    1    2    0    0 -0.89519669883E+01  0.58340199196E+01 -0.45064342983E+03  0.45077009035E+03  0.00000000000E+00 0. -1.
        -15    1    1    2    0    0 -0.18542965868E+01 -0.83098943812E+01  0.11807516408E+02  0.14665194618E+02  0.17770000000E+01 0.  1.
         15    1    1    2    0    0  0.26168832155E+00 -0.97788389191E+01 -0.47212237679E+02  0.48247769763E+02  0.17770000000E+01 0. -1.
</event>
<event>
 6    1  0.3836009E-003  0.5016875E+03  0.7546771E-02  0.9396042E-01
        -11   -1    0    0    0    0  0.00000000000E+00  0.00000000000E+00  0.50000000000E+03  0.50000000000E+03  0.00000000000E+00 0. -1.
         11   -1    0    0    0    0 -0.00000000000E+00 -0.00000000000E+00 -0.50000000000E+03  0.50000000000E+03  0.00000000000E+00 0. -1.
        -11    1    1    2    0    0 -0.99867765598E+01  0.27286169364E+01  0.49820493312E+03  0.49831248875E+03  0.00000000000E+00 0. -1.
         11    1    1    2    0    0 -0.11471972406E+02  0.89263767340E+01 -0.16958810561E+03  0.17020990546E+03  0.00000000000E+00 0. -1.
        -15    1    1    2    0    0  0.19546285562E+02 -0.18317398158E+02 -0.31456703191E+03  0.31571056309E+03  0.17770000000E+01 0.  1.
         15    1    1    2    0    0  0.19124634034E+01  0.66624044872E+01 -0.14049795606E+02  0.15767042696E+02  0.17770000000E+01 0. -1.
</event>
<event>
 6    1  0.3836009E-003  0.5070674E+03  0.7546771E-02  0.9384133E-01
        -11   -1    0    0    0    0  0.00000000000E+00  0.00000000000E+00  0.50000000000E+03  0.50000000000E+03  0.00000000000E+00 0.  1.
         11   -1    0    0    0    0 -0.00000000000E+00 -0.00000000000E+00 -0.50000000000E+03  0.50000000000E+03  0.00000000000E+00 0. -1.
        -11    1    1    2    0    0 -0.12021598285E+02 -0.18807811420E+02  0.30379780690E+03  0.30461674293E+03  0.00000000000E+00 0.  1.
         11    1    1    2    0    0  0.97408593478E+01  0.19459529851E+02 -0.49245199971E+03  0.49293258126E+03  0.00000000000E+00 0. -1.
        -15    1    1    2    0    0  0.61168661062E+01  0.57258146666E+01  0.19330624139E+03  0.19349589580E+03  0.17770000000E+01 0.  1.
         15    1    1    2    0    0 -0.38361271687E+01 -0.63775330976E+01 -0.46520485772E+01  0.89547800101E+01  0.17770000000E+01 0. -1.
</event>
<event>
 6    1  0.3836009E-003  0.5004519E+03  0.7546771E-02  0.9398799E-01
        -11   -1    0    0    0    0  0.00000000000E+00  0.00000000000E+00  0.50000000000E+03  0.50000000000E+03  0.00000000000E+00 0. -1.
         11   -1    0    0    0    0 -0.00000000000E+00 -0.00000000000E+00 -0.50000000000E+03  0.50000000000E+03  0.00000000000E+00 0. -1.
        -11    1    1    2    0    0 -0.43299940540E+01 -0.42273268682E+01  0.37780011745E+03  0.37784857799E+03  0.00000000000E+00 0. -1.
         11    1    1    2    0    0 -0.55116414402E+01  0.54975117580E+01 -0.49948739354E+03  0.49954805288E+03  0.00000000000E+00 0. -1.
        -15    1    1    2    0    0  0.32973678061E+00  0.26966300370E+01  0.55510921788E+02  0.55605761452E+02  0.17770000000E+01 0.  1.
         15    1    1    2    0    0  0.95118987136E+01 -0.39668149268E+01  0.66176354298E+02  0.66997607681E+02  0.17770000000E+01 0. -1.
</event>
<event>
 6    1  0.3836009E-003  0.5007140E+03  0.7546771E-02  0.9398213E-01
        -11   -1    0    0    0    0  0.00000000000E+00  0.00000000000E+00  0.50000000000E+03  0.50000000000E+03  0.00000000000E+00 0.  1.
         11   -1    0    0    0    0 -0.00000000000E+00 -0.00000000000E+00 -0.50000000000E+03  0.50000000000E+03  0.00000000000E+00 0. -1.
        -11    1    1    2    0    0  0.32283626372E+01  0.52612620552E+01  0.45013938978E+03  0.45018171157E+03  0.00000000000E+00 0.  1.
         11    1    1    2    0    0 -0.66196337650E+01 -0.57806329621E+01 -0.49920860914E+03  0.49928596085E+03  0.00000000000E+00 0. -1.
        -15    1    1    2    0    0 -0.39004268015E+01 -0.99986240132E+00  0.16785582146E+02  0.17352998330E+02  0.17770000000E+01 0. -1.
         15    1    1    2    0    0  0.72916979293E+01  0.15192333082E+01  0.32283637215E+02  0.33179329248E+02  0.17770000000E+01 0.  1.
</event>
<event>
 6    1  0.3836009E-003  0.5046362E+03  0.7546771E-02  0.9389495E-01
        -11   -1    0    0    0    0  0.00000000000E+00  0.00000000000E+00  0.50000000000E+03  0.50000000000E+03  0.00000000000E+00 0. -1.
         11   -1    0    0    0    0 -0.00000000000E+00 -0.00000000000E+00 -0.50000000000E+03  0.50000000000E+03  0.00000000000E+00 0.  1.
        -11    1    1    2    0    0  0.17785456195E+01  0.76181484472E+01  0.49530201059E+03  0.49536378663E+03  0.00000000000E+00 0. -1.
         11    1    1    2    0    0 -0.87564016157E+01  0.11289916392E+00 -0.48839665655E+03  0.48847515950E+03  0.00000000000E+00 0.  1.
        -15    1    1    2    0    0  0.64912510982E+01 -0.23928034947E+00 -0.44213510597E+01  0.80560331491E+01  0.17770000000E+01 0.  1.
         15    1    1    2    0    0  0.48660489803E+00 -0.74917672617E+01 -0.24840029815E+01  0.81050207182E+01  0.17770000000E+01 0. -1.
</event>
<event>
 6    1  0.3836009E-003  0.5172563E+03  0.7546771E-02  0.9362004E-01
        -11   -1    0    0    0    0  0.00000000000E+00  0.00000000000E+00  0.50000000000E+03  0.50000000000E+03  0.00000000000E+00 0. -1.
         11   -1    0    0    0    0 -0.00000000000E+00 -0.00000000000E+00 -0.50000000000E+03  0.50000000000E+03  0.00000000000E+00 0.  1.
        -11    1    1    2    0    0 -0.22568088668E+01  0.11373067783E+02  0.48260446679E+03  0.48274373245E+03  0.00000000000E+00 0. -1.
         11    1    1    2    0    0  0.61478771377E+01 -0.83003465598E+01 -0.18258346733E+03  0.18287540756E+03  0.00000000000E+00 0.  1.
        -15    1    1    2    0    0  0.22545523942E+02  0.34266744597E+02 -0.28232523470E+03  0.28529494618E+03  0.17770000000E+01 0.  1.
         15    1    1    2    0    0 -0.26436592213E+02 -0.37339465820E+02 -0.17695764751E+02  0.49085913812E+02  0.17770000000E+01 0. -1.
</event>
<event>
 6    1  0.3836009E-003  0.5029470E+03  0.7546771E-02  0.9393240E-01
        -11   -1    0    0    0    0  0.00000000000E+00  0.00000000000E+00  0.50000000000E+03  0.50000000000E+03  0.00000000000E+00 0.  1.
         11   -1    0    0    0    0 -0.00000000000E+00 -0.00000000000E+00 -0.50000000000E+03  0.50000000000E+03  0.00000000000E+00 0.  1.
        -11    1    1    2    0    0 -0.33287720357E+00 -0.94637089825E+01  0.31153475249E+03  0.31167863995E+03  0.00000000000E+00 0.  1.
         11    1    1    2    0    0  0.40336512808E+01 -0.88919026898E+01 -0.49695712637E+03  0.49705303713E+03  0.00000000000E+00 0.  1.
        -15    1    1    2    0    0  0.10108197844E+01  0.87367194842E+01  0.45318038352E+01  0.10052213636E+02  0.17770000000E+01 0. -1.
         15    1    1    2    0    0 -0.47115938616E+01  0.96188921881E+01  0.18089057004E+03  0.18121610928E+03  0.17770000000E+01 0.  1.
</event>
<event>
 6    1  0.3836009E-003  0.5015870E+03  0.7546771E-02  0.9396266E-01
        -11   -1    0    0    0    0  0.00000000000E+00  0.00000000000E+00  0.50000000000E+03  0.50000000000E+03  0.00000000000E+00 0.  1.
         11   -1    0    0    0    0 -0.00000000000E+00 -0.00000000000E+00 -0.50000000000E+03  0.50000000000E+03  0.00000000000E+00 0. -1.
        -11    1    1    2    0    0  0.12066833422E+02 -0.95853289745E+00  0.49826600902E+03  0.49841302451E+03  0.00000000000E+00 0.  1.
         11    1    1    2    0    0  0.10081937593E+02 -0.90066584000E+01 -0.31810123656E+03  0.31838838243E+03  0.00000000000E+00 0. -1.
        -15    1    1    2    0    0 -0.26388289892E+01  0.75810050119E+01 -0.17431849946E+02  0.19273354067E+02  0.17770000000E+01 0.  1.
         15    1    1    2    0    0 -0.19509942026E+02  0.23841862856E+01 -0.16273292251E+03  0.16392523900E+03  0.17770000000E+01 0. -1.
</event>
<event>
 6    1  0.3836009E-003  0.5040009E+03  0.7546771E-02  0.9390902E-01
        -11   -1    0    0    0    0  0.00000000000E+00  0.00000000000E+00  0.50000000000E+03  0.50000000000E+03  0.00000000000E+00 0.  1.
         11   -1    0    0    0    0 -0.00000000000E+00 -0.00000000000E+00 -0.50000000000E+03  0.50000000000E+03  0.00000000000E+00 0.  1.
        -11    1    1    2    0    0 -0.12907651343E+02  0.11217957089E+02  0.42411657336E+03  0.42446120886E+03  0.00000000000E+00 0.  1.
         11    1    1    2    0    0 -0.86417624419E+01  0.88339466183E+00 -0.49592299407E+03  0.49599906904E+03  0.00000000000E+00 0.  1.
        -15    1    1    2    0    0  0.10918037668E+02 -0.87051252560E+01  0.11480370634E+02  0.18164233844E+02  0.17770000000E+01 0.  1.
         15    1    1    2    0    0  0.10631376117E+02 -0.33962264951E+01  0.60326050072E+02  0.61375488258E+02  0.17770000000E+01 0. -1.
</event>
<event>
 6    1  0.3836009E-003  0.5034751E+03  0.7546771E-02  0.9392067E-01
        -11   -1    0    0    0    0  0.00000000000E+00  0.00000000000E+00  0.50000000000E+03  0.50000000000E+03  0.00000000000E+00 0.  1.
         11   -1    0    0    0    0 -0.00000000000E+00 -0.00000000000E+00 -0.50000000000E+03  0.50000000000E+03  0.00000000000E+00 0. -1.
        -11    1    1    2    0    0  0.55003829828E+01 -0.34557281799E+01  0.47694166402E+03  0.47698589827E+03  0.00000000000E+00 0.  1.
         11    1    1    2    0    0  0.30432036050E+00  0.12468568868E+02 -0.49636822566E+03  0.49652489692E+03  0.00000000000E+00 0. -1.
        -15    1    1    2    0    0  0.24908918008E+01 -0.24914611392E+01 -0.39312326160E+00  0.39653745687E+01  0.17770000000E+01 0.  1.
         15    1    1    2    0    0 -0.82955951441E+01 -0.65213795490E+01  0.19819684897E+02  0.22523830235E+02  0.17770000000E+01 0.  1.
</event>
<event>
 6    1  0.3836009E-003  0.5063620E+03  0.7546771E-02  0.9385686E-01
        -11   -1    0    0    0    0  0.00000000000E+00  0.00000000000E+00  0.50000000000E+03  0.50000000000E+03  0.00000000000E+00 0.  1.
         11   -1    0    0    0    0 -0.00000000000E+00 -0.00000000000E+00 -0.50000000000E+03  0.50000000000E+03  0.00000000000E+00 0. -1.
        -11    1    1    2    0    0  0.30854296125E+02  0.27729348012E+01  0.21655808260E+03  0.21876261082E+03  0.00000000000E+00 0.  1.
         11    1    1    2    0    0  0.22621912549E+01 -0.17622611703E+02 -0.49331811043E+03  0.49363795644E+03  0.00000000000E+00 0. -1.
        -15    1    1    2    0    0 -0.11538701992E+02 -0.42815139478E+01  0.24234758544E+03  0.24266640250E+03  0.17770000000E+01 0.  1.
         15    1    1    2    0    0 -0.21577785388E+02  0.19131190850E+02  0.34412442395E+02  0.44933030236E+02  0.17770000000E+01 0. -1.
</event>
<event>
 6    1  0.3985981E-003  0.5002954E+03  0.7546771E-02  0.9399149E-01
        -11   -1    0    0    0    0  0.00000000000E+00  0.00000000000E+00  0.50000000000E+03  0.50000000000E+03  0.00000000000E+00 0.  1.
         11   -1    0    0    0    0 -0.00000000000E+00 -0.00000000000E+00 -0.50000000000E+03  0.50000000000E+03  0.00000000000E+00 0. -1.
        -11    1    1    2    0    0  0.63324496234E+01 -0.24363956317E+01  0.49965849834E+03  0.49970456362E+03  0.00000000000E+00 0.  1.
         11    1    1    2    0    0 -0.32285969566E+01  0.25143841478E+01 -0.23903992348E+03  0.23907494847E+03  0.00000000000E+00 0. -1.
        -15    1    1    2    0    0  0.17110292912E+01  0.31521402755E+01 -0.22846451671E+03  0.22849957710E+03  0.17770000000E+01 0. -1.
         15    1    1    2    0    0 -0.48148819580E+01 -0.32301287916E+01 -0.32154058141E+02  0.32720910810E+02  0.17770000000E+01 0.  1.
</event>
<event>
 6    1  0.3836009E-003  0.5208960E+03  0.7546771E-02  0.9354230E-01
        -11   -1    0    0    0    0  0.00000000000E+00  0.00000000000E+00  0.50000000000E+03  0.50000000000E+03  0.00000000000E+00 0.  1.
         11   -1    0    0    0    0 -0.00000000000E+00 -0.00000000000E+00 -0.50000000000E+03  0.50000000000E+03  0.00000000000E+00 0. -1.
        -11    1    1    2    0    0 -0.29695773674E+02  0.64776697245E+01  0.47813891546E+03  0.47910397791E+03  0.00000000000E+00 0.  1.
         11    1    1    2    0    0 -0.51657766281E+00  0.87024545081E+01 -0.45278937543E+03  0.45287329140E+03  0.00000000000E+00 0. -1.
        -15    1    1    2    0    0  0.81667509558E+01 -0.17465612405E+02 -0.37849915912E+02  0.42514906814E+02  0.17770000000E+01 0.  1.
         15    1    1    2    0    0  0.22045600381E+02  0.22854881719E+01  0.12500375883E+02  0.25507823870E+02  0.17770000000E+01 0. -1.
</event>
<event>
 6    1  0.3836009E-003  0.5285721E+03  0.7546771E-02  0.9338053E-01
        -11   -1    0    0    0    0  0.00000000000E+00  0.00000000000E+00  0.50000000000E+03  0.50000000000E+03  0.00000000000E+00 0. -1.
         11   -1    0    0    0    0 -0.00000000000E+00 -0.00000000000E+00 -0.50000000000E+03  0.50000000000E+03  0.00000000000E+00 0.  1.
        -11    1    1    2    0    0  0.10462039270E+02  0.30112942991E+01  0.47130214226E+03  0.47142786453E+03  0.00000000000E+00 0. -1.
         11    1    1    2    0    0  0.54957796276E+01  0.41249967136E+01 -0.43668876503E+03  0.43674282672E+03  0.00000000000E+00 0.  1.
        -15    1    1    2    0    0 -0.37903245861E+00 -0.13755082483E+02 -0.59823835022E+02  0.61411683949E+02  0.17770000000E+01 0.  1.
         15    1    1    2    0    0 -0.15578786439E+02  0.66187914705E+01  0.25210457792E+02  0.30417624801E+02  0.17770000000E+01 0. -1.
</event>
<event>
 6    1  0.3836009E-003  0.5477397E+03  0.7546771E-02  0.9298900E-01
        -11   -1    0    0    0    0  0.00000000000E+00  0.00000000000E+00  0.50000000000E+03  0.50000000000E+03  0.00000000000E+00 0.  1.
         11   -1    0    0    0    0 -0.00000000000E+00 -0.00000000000E+00 -0.50000000000E+03  0.50000000000E+03  0.00000000000E+00 0.  1.
        -11    1    1    2    0    0  0.36203963562E+02 -0.29354281368E+01  0.45079929839E+03  0.45226026925E+03  0.00000000000E+00 0.  1.
         11    1    1    2    0    0 -0.11559570601E+01 -0.68525195292E+01 -0.26059733716E+03  0.26068997947E+03  0.00000000000E+00 0.  1.
        -15    1    1    2    0    0 -0.34480892834E+02  0.28731062048E+01  0.42164585505E+02  0.54572856895E+02  0.17770000000E+01 0.  1.
         15    1    1    2    0    0 -0.56711366791E+00  0.69148414612E+01 -0.23236654673E+03  0.23247689438E+03  0.17770000000E+01 0.  1.
</event>
<event>
 6    1  0.3836009E-003  0.5105247E+03  0.7546771E-02  0.9376563E-01
        -11   -1    0    0    0    0  0.00000000000E+00  0.00000000000E+00  0.50000000000E+03  0.50000000000E+03  0.00000000000E+00 0. -1.
         11   -1    0    0    0    0 -0.00000000000E+00 -0.00000000000E+00 -0.50000000000E+03  0.50000000000E+03  0.00000000000E+00 0.  1.
        -11    1    1    2    0    0 -0.35657079025E+01  0.73474013663E+01  0.43408252590E+03  0.43415934618E+03  0.00000000000E+00 0. -1.
         11    1    1    2    0    0 -0.25522971400E+01  0.15700458285E+02 -0.48921677803E+03  0.48947530532E+03  0.00000000000E+00 0.  1.
        -15    1    1    2    0    0  0.71273844780E+01  0.13809783851E+02  0.20135130080E+02  0.25496880826E+02  0.17770000000E+01 0.  1.
         15    1    1    2    0    0 -0.10093794356E+01 -0.36857643502E+02  0.34999122042E+02  0.50868467680E+02  0.17770000000E+01 0. -1.
</event>
<event>
 6    1  0.3836009E-003  0.4931007E+03  0.7546771E-02  0.9415381E-01
        -11   -1    0    0    0    0  0.00000000000E+00  0.00000000000E+00  0.50000000000E+03  0.50000000000E+03  0.00000000000E+00 0.  1.
         11   -1    0    0    0    0 -0.00000000000E+00 -0.00000000000E+00 -0.50000000000E+03  0.50000000000E+03  0.00000000000E+00 0.  1.
        -11    1    1    2    0    0 -0.70378545713E+01  0.27099109183E+01  0.49236942960E+03  0.49242718266E+03  0.00000000000E+00 0.  1.
         11    1    1    2    0    0  0.21315206366E+01 -0.70050297629E+01 -0.49374248836E+03  0.49379677868E+03  0.00000000000E+00 0.  1.
        -15    1    1    2    0    0 -0.23692972522E+01  0.53643919220E+01  0.92805185151E+00  0.61975220371E+01  0.17770000000E+01 0. -1.
         15    1    1    2    0    0  0.72756311869E+01 -0.10692730774E+01  0.44500690782E+00  0.75785166246E+01  0.17770000000E+01 0.  1.
</event>
<event>
 6    1  0.3836009E-003  0.5006187E+03  0.7546771E-02  0.9398426E-01
        -11   -1    0    0    0    0  0.00000000000E+00  0.00000000000E+00  0.50000000000E+03  0.50000000000E+03  0.00000000000E+00 0.  1.
         11   -1    0    0    0    0 -0.00000000000E+00 -0.00000000000E+00 -0.50000000000E+03  0.50000000000E+03  0.00000000000E+00 0. -1.
        -11    1    1    2    0    0 -0.22600541734E+01 -0.10762047272E+02  0.34848218585E+03  0.34865565155E+03  0.00000000000E+00 0.  1.
         11    1    1    2    0    0 -0.81303973704E+01  0.14138544508E+02 -0.49911486705E+03  0.49938126948E+03  0.00000000000E+00 0. -1.
        -15    1    1    2    0    0  0.65316486057E+01 -0.16398595067E+01  0.18769895220E+02  0.20020446256E+02  0.17770000000E+01 0. -1.
         15    1    1    2    0    0  0.38588029381E+01 -0.17366377291E+01  0.13186278598E+03  0.13194263271E+03  0.17770000000E+01 0.  1.
</event>
<event>
 6    1  0.3836009E-003  0.5366093E+03  0.7546771E-02  0.9321425E-01
        -11   -1    0    0    0    0  0.00000000000E+00  0.00000000000E+00  0.50000000000E+03  0.50000000000E+03  0.00000000000E+00 0. -1.
         11   -1    0    0    0    0 -0.00000000000E+00 -0.00000000000E+00 -0.50000000000E+03  0.50000000000E+03  0.00000000000E+00 0.  1.
        -11    1    1    2    0    0  0.13748509716E+02 -0.99440718903E+01  0.44917932430E+03  0.44949969017E+03  0.00000000000E+00 0. -1.
         11    1    1    2    0    0 -0.11410464521E+02 -0.38537589992E+01 -0.46323417008E+03  0.46339070609E+03  0.00000000000E+00 0.  1.
        -15    1    1    2    0    0 -0.32981858288E+02 -0.76986074848E+01 -0.17459980590E+02  0.38145513295E+02  0.17770000000E+01 0. -1.
         15    1    1    2    0    0  0.30643813092E+02  0.21496438374E+02  0.31514826373E+02  0.48964090453E+02  0.17770000000E+01 0.  1.
</event>
<event>
 6    1  0.3836009E-003  0.5042554E+03  0.7546771E-02  0.9390338E-01
        -11   -1    0    0    0    0  0.00000000000E+00  0.00000000000E+00  0.50000000000E+03  0.50000000000E+03  0.00000000000E+00 0.  1.
         11   -1    0    0    0    0 -0.00000000000E+00 -0.00000000000E+00 -0.50000000000E+03  0.50000000000E+03  0.00000000000E+00 0.  1.
        -11    1    1    2    0    0  0.88814017085E+01 -0.10821092709E+01  0.49566386238E+03  0.49574460635E+03  0.00000000000E+00 0.  1.
         11    1    1    2    0    0  0.52716120165E+01 -0.14114332201E+01 -0.37091529106E+03  0.37095543557E+03  0.00000000000E+00 0.  1.
        -15    1    1    2    0    0 -0.45990477714E+01 -0.16387795017E+01  0.23932662020E+01  0.57203400924E+01  0.17770000000E+01 0.  1.
         15    1    1    2    0    0 -0.95539659537E+01  0.41323219927E+01 -0.12714183752E+03  0.12757961799E+03  0.17770000000E+01 0. -1.
</event>
<event>
 6    1  0.3836009E-003  0.5253679E+03  0.7546771E-02  0.9344770E-01
        -11   -1    0    0    0    0  0.00000000000E+00  0.00000000000E+00  0.50000000000E+03  0.50000000000E+03  0.00000000000E+00 0.  1.
         11   -1    0    0    0    0 -0.00000000000E+00 -0.00000000000E+00 -0.50000000000E+03  0.50000000000E+03  0.00000000000E+00 0. -1.
        -11    1    1    2    0    0 -0.37912643567E+01 -0.29966714840E+02  0.39115381729E+03  0.39231834836E+03  0.00000000000E+00 0.  1.
         11    1    1    2    0    0 -0.20649982113E+01 -0.15238059731E+02 -0.47438291656E+03  0.47463208299E+03  0.00000000000E+00 0. -1.
        -15    1    1    2    0    0 -0.41323307103E+02  0.10891518806E+02  0.50336023952E+02  0.66053871409E+02  0.17770000000E+01 0.  1.
         15    1    1    2    0    0  0.47179569671E+02  0.34313255764E+02  0.32893075316E+02  0.66995697237E+02  0.17770000000E+01 0. -1.
</event>
<event>
 6    1  0.3836009E-003  0.5001096E+03  0.7546771E-02  0.9399564E-01
        -11   -1    0    0    0    0  0.00000000000E+00  0.00000000000E+00  0.50000000000E+03  0.50000000000E+03  0.00000000000E+00 0. -1.
         11   -1    0    0    0    0 -0.00000000000E+00 -0.00000000000E+00 -0.50000000000E+03  0.50000000000E+03  0.00000000000E+00 0.  1.
        -11    1    1    2    0    0  0.23193765330E+01  0.16889628373E+01  0.13034495978E+03  0.13037653410E+03  0.00000000000E+00 0. -1.
         11    1    1    2    0    0 -0.64338891665E+01  0.28927739919E+01 -0.49984060775E+03  0.49989038421E+03  0.00000000000E+00 0.  1.
        -15    1    1    2    0    0  0.34891724422E+01 -0.44844672060E+01  0.36013793263E+03  0.36018713611E+03  0.17770000000E+01 0. -1.
         15    1    1    2    0    0  0.62534019133E+00 -0.97269623222E-01  0.93577153322E+01  0.95459455778E+01  0.17770000000E+01 0.  1.
</event>
<event>
 6    1  0.3836009E-003  0.5082782E+03  0.7546771E-02  0.9381475E-01
        -11   -1    0    0    0    0  0.00000000000E+00  0.00000000000E+00  0.50000000000E+03  0.50000000000E+03  0.00000000000E+00 0.  1.
         11   -1    0    0    0    0 -0.00000000000E+00 -0.00000000000E+00 -0.50000000000E+03  0.50000000000E+03  0.00000000000E+00 0.  1.
        -11    1    1    2    0    0  0.10114957781E+02  0.66736456447E+00  0.47654597839E+03  0.47665378134E+03  0.00000000000E+00 0.  1.
         11    1    1    2    0    0  0.62198316538E+01 -0.10817544894E+02 -0.49156349243E+03  0.49172184482E+03  0.00000000000E+00 0.  1.
        -15    1    1    2    0    0  0.36723221551E+00 -0.16442027926E+01  0.10271124883E+02  0.10558977114E+02  0.17770000000E+01 0. -1.
         15    1    1    2    0    0 -0.16702021650E+02  0.11794383122E+02  0.47463891584E+01  0.21065396732E+02  0.17770000000E+01 0. -1.
</event>
<event>
 6    1  0.3836009E-003  0.5063340E+03  0.7546771E-02  0.9385747E-01
        -11   -1    0    0    0    0  0.00000000000E+00  0.00000000000E+00  0.50000000000E+03  0.50000000000E+03  0.00000000000E+00 0.  1.
         11   -1    0    0    0    0 -0.00000000000E+00 -0.00000000000E+00 -0.50000000000E+03  0.50000000000E+03  0.00000000000E+00 0. -1.
        -11    1    1    2    0    0 -0.20415814043E+02  0.27624554658E+01  0.19217248038E+03  0.19327363721E+03  0.00000000000E+00 0.  1.
         11    1    1    2    0    0 -0.88731740413E+01  0.58712924692E+01 -0.49355132821E+03  0.49366599931E+03  0.00000000000E+00 0. -1.
        -15    1    1    2    0    0 -0.15417931313E+02  0.20861634513E+02  0.53875000351E+02  0.59821348968E+02  0.17770000000E+01 0.  1.
         15    1    1    2    0    0  0.44706919398E+02 -0.29495382448E+02  0.24750384748E+03  0.25323901452E+03  0.17770000000E+01 0. -1.
</event>
<event>
 6    1  0.3836009E-003  0.5011405E+03  0.7546771E-02  0.9397261E-01
        -11   -1    0    0    0    0  0.00000000000E+00  0.00000000000E+00  0.50000000000E+03  0.50000000000E+03  0.00000000000E+00 0. -1.
         11   -1    0    0    0    0 -0.00000000000E+00 -0.00000000000E+00 -0.50000000000E+03  0.50000000000E+03  0.00000000000E+00 0. -1.
        -11    1    1    2    0    0 -0.45417885084E+01  0.91383650264E+01  0.49875507083E+03  0.49885945740E+03  0.00000000000E+00 0. -1.
         11    1    1    2    0    0  0.12644477485E+01  0.50000732587E+01 -0.22725690014E+03  0.22731541572E+03  0.00000000000E+00 0. -1.
        -15    1    1    2    0    0 -0.15921850274E+01 -0.50607739886E+01 -0.24849696415E+03  0.24855994329E+03  0.17770000000E+01 0. -1.
         15    1    1    2    0    0  0.48695257873E+01 -0.90776642965E+01 -0.23001206544E+02  0.25265183592E+02  0.17770000000E+01 0. -1.
</event>
<event>
 6    1  0.3836009E-003  0.5052540E+03  0.7546771E-02  0.9388130E-01
        -11   -1    0    0    0    0  0.00000000000E+00  0.00000000000E+00  0.50000000000E+03  0.50000000000E+03  0.00000000000E+00 0.  1.
         11   -1    0    0    0    0 -0.00000000000E+00 -0.00000000000E+00 -0.50000000000E+03  0.50000000000E+03  0.00000000000E+00 0.  1.
        -11    1    1    2    0    0 -0.58447987099E+01  0.12898396112E+01  0.43153531624E+03  0.43157682343E+03  0.00000000000E+00 0.  1.
         11    1    1    2    0    0  0.60858349468E+01 -0.43739155789E+01 -0.49468920946E+03  0.49474597773E+03  0.00000000000E+00 0.  1.
        -15    1    1    2    0    0  0.17560685063E+02  0.27752299131E+01  0.43880115546E+02  0.47378284375E+02  0.17770000000E+01 0. -1.
         15    1    1    2    0    0 -0.17801721300E+02  0.30884605472E+00  0.19273777674E+02  0.26298914464E+02  0.17770000000E+01 0.  1.
</event>
<event>
 6    1  0.3836009E-003  0.5058930E+03  0.7546771E-02  0.9386719E-01
        -11   -1    0    0    0    0  0.00000000000E+00  0.00000000000E+00  0.50000000000E+03  0.50000000000E+03  0.00000000000E+00 0.  1.
         11   -1    0    0    0    0 -0.00000000000E+00 -0.00000000000E+00 -0.50000000000E+03  0.50000000000E+03  0.00000000000E+00 0.  1.
        -11    1    1    2    0    0 -0.13940015232E+02 -0.13088361233E+02  0.49373685507E+03  0.49410698364E+03  0.00000000000E+00 0.  1.
         11    1    1    2    0    0 -0.37387527428E+01  0.47781668595E+01 -0.44579084241E+03  0.44583212573E+03  0.00000000000E+00 0.  1.
        -15    1    1    2    0    0  0.14761018684E+01 -0.15508804507E+01 -0.38851171596E+02  0.38950678689E+02  0.17770000000E+01 0.  1.
         15    1    1    2    0    0  0.16202666106E+02  0.98610748243E+01 -0.90948410593E+01  0.21110211949E+02  0.17770000000E+01 0. -1.
</event>
<event>
 6    1  0.3836009E-003  0.5021298E+03  0.7546771E-02  0.9395057E-01
        -11   -1    0    0    0    0  0.00000000000E+00  0.00000000000E+00  0.50000000000E+03  0.50000000000E+03  0.00000000000E+00 0. -1.
         11   -1    0    0    0    0 -0.00000000000E+00 -0.00000000000E+00 -0.50000000000E+03  0.50000000000E+03  0.00000000000E+00 0. -1.
        -11    1    1    2    0    0 -0.30620568794E+01  0.38994143129E-01  0.14341205941E+03  0.14344475068E+03  0.00000000000E+00 0. -1.
         11    1    1    2    0    0 -0.44536628756E+02  0.27589010523E+02 -0.49510613115E+03  0.49787020990E+03  0.00000000000E+00 0. -1.
        -15    1    1    2    0    0 -0.10304603349E+01 -0.38473218620E+01  0.14334210302E+03  0.14340843755E+03  0.17770000000E+01 0. -1.
         15    1    1    2    0    0  0.48629145971E+02 -0.23780682804E+02  0.20835196873E+03  0.21527660187E+03  0.17770000000E+01 0.  1.
</event>
<event>
 6    1  0.3836009E-003  0.5096339E+03  0.7546771E-02  0.9378508E-01
        -11   -1    0    0    0    0  0.00000000000E+00  0.00000000000E+00  0.50000000000E+03  0.50000000000E+03  0.00000000000E+00 0.  1.
         11   -1    0    0    0    0 -0.00000000000E+00 -0.00000000000E+00 -0.50000000000E+03  0.50000000000E+03  0.00000000000E+00 0.  1.
        -11    1    1    2    0    0 -0.91010706618E+01  0.15595958497E+01  0.47066617198E+03  0.47075673896E+03  0.00000000000E+00 0.  1.
         11    1    1    2    0    0  0.10275654051E+02 -0.93128497651E+01 -0.49017001092E+03  0.49036614672E+03  0.00000000000E+00 0.  1.
        -15    1    1    2    0    0  0.37519868177E+01 -0.61336177930E+01  0.22542110923E+02  0.23727687754E+02  0.17770000000E+01 0. -1.
         15    1    1    2    0    0 -0.49265702068E+01  0.13886871708E+02 -0.30382719785E+01  0.15149426572E+02  0.17770000000E+01 0.  1.
</event>
<event>
 6    1  0.3836009E-003  0.5113802E+03  0.7546771E-02  0.9374700E-01
        -11   -1    0    0    0    0  0.00000000000E+00  0.00000000000E+00  0.50000000000E+03  0.50000000000E+03  0.00000000000E+00 0.  1.
         11   -1    0    0    0    0 -0.00000000000E+00 -0.00000000000E+00 -0.50000000000E+03  0.50000000000E+03  0.00000000000E+00 0.  1.
        -11    1    1    2    0    0 -0.98428315077E+01 -0.10120694975E+02  0.21722033677E+03  0.21767862666E+03  0.00000000000E+00 0.  1.
         11    1    1    2    0    0  0.29029123031E+02 -0.35523437926E+01 -0.48774375905E+03  0.48861977408E+03  0.00000000000E+00 0.  1.
        -15    1    1    2    0    0  0.27474463621E+02 -0.30315545126E+02  0.53372542455E+02  0.67273058832E+02  0.17770000000E+01 0. -1.
         15    1    1    2    0    0 -0.46660755144E+02  0.43988583893E+02  0.21715087983E+03  0.22642854043E+03  0.17770000000E+01 0.  1.
</event>
<event>
 6    1  0.3836009E-003  0.5001741E+03  0.7546771E-02  0.9399420E-01
        -11   -1    0    0    0    0  0.00000000000E+00  0.00000000000E+00  0.50000000000E+03  0.50000000000E+03  0.00000000000E+00 0.  1.
         11   -1    0    0    0    0 -0.00000000000E+00 -0.00000000000E+00 -0.50000000000E+03  0.50000000000E+03  0.00000000000E+00 0.  1.
        -11    1    1    2    0    0 -0.24740727706E+01 -0.21361969560E+01  0.24137688134E+03  0.24139901247E+03  0.00000000000E+00 0.  1.
         11    1    1    2    0    0  0.36405658628E+01 -0.57307552173E+01 -0.49977979047E+03  0.49982590393E+03  0.00000000000E+00 0.  1.
        -15    1    1    2    0    0  0.21528648236E+01 -0.92255118103E+00  0.24336121288E+02  0.24513067046E+02  0.17770000000E+01 0.  1.
         15    1    1    2    0    0 -0.33193579159E+01  0.87895033543E+01  0.23406678783E+03  0.23426201656E+03  0.17770000000E+01 0.  1.
</event>
<event>
 6    1  0.3836009E-003  0.5069515E+03  0.7546771E-02  0.9384388E-01
        -11   -1    0    0    0    0  0.00000000000E+00  0.00000000000E+00  0.50000000000E+03  0.50000000000E+03  0.00000000000E+00 0.  1.
         11   -1    0    0    0    0 -0.00000000000E+00 -0.00000000000E+00 -0.50000000000E+03  0.50000000000E+03  0.00000000000E+00 0.  1.
        -11    1    1    2    0    0 -0.80133267233E+01  0.36665410523E+00  0.44256721110E+03  0.44263990351E+03  0.00000000000E+00 0.  1.
         11    1    1    2    0    0  0.21871839194E+02 -0.25422785445E+01 -0.49255652908E+03  0.49304845083E+03  0.00000000000E+00 0.  1.
        -15    1    1    2    0    0 -0.85926167389E+01 -0.24428037784E+01  0.54851129159E+02  0.55602198264E+02  0.17770000000E+01 0.  1.
         15    1    1    2    0    0 -0.52658957314E+01  0.46184282177E+01 -0.48618111761E+01  0.87094473974E+01  0.17770000000E+01 0. -1.
</event>
<event>
 6    1  0.3836009E-003  0.5001940E+03  0.7546771E-02  0.9399376E-01
        -11   -1    0    0    0    0  0.00000000000E+00  0.00000000000E+00  0.50000000000E+03  0.50000000000E+03  0.00000000000E+00 0. -1.
         11   -1    0    0    0    0 -0.00000000000E+00 -0.00000000000E+00 -0.50000000000E+03  0.50000000000E+03  0.00000000000E+00 0. -1.
        -11    1    1    2    0    0  0.43566931582E+01  0.12954393748E+01  0.26678512753E+03  0.26682384303E+03  0.00000000000E+00 0. -1.
         11    1    1    2    0    0  0.42827624310E+01 -0.54564589747E+01 -0.49975784145E+03  0.49980597744E+03  0.00000000000E+00 0. -1.
        -15    1    1    2    0    0 -0.13500761268E+00 -0.11921713966E+01  0.93520102790E+02  0.93544678387E+02  0.17770000000E+01 0. -1.
         15    1    1    2    0    0 -0.85044479766E+01  0.53531909965E+01  0.13945261112E+03  0.13982550114E+03  0.17770000000E+01 0. -1.
</event>
<event>
 6    1  0.3836009E-003  0.5037025E+03  0.7546771E-02  0.9391563E-01
        -11   -1    0    0    0    0  0.00000000000E+00  0.00000000000E+00  0.50000000000E+03  0.50000000000E+03  0.00000000000E+00 0. -1.
         11   -1    0    0    0    0 -0.00000000000E+00 -0.00000000000E+00 -0.50000000000E+03  0.50000000000E+03  0.00000000000E+00 0.  1.
        -11    1    1    2    0    0 -0.77020402906E+01  0.69343994447E+00  0.43114268420E+03  0.43121203186E+03  0.00000000000E+00 0. -1.
         11    1    1    2    0    0 -0.10663634297E+01 -0.20224685229E+02 -0.49588407618E+03  0.49629748341E+03  0.00000000000E+00 0.  1.
        -15    1    1    2    0    0  0.64785916708E+01  0.14231662666E+02  0.64556698041E+02  0.66447252488E+02  0.17770000000E+01 0. -1.
         15    1    1    2    0    0  0.22898120495E+01  0.52995826185E+01  0.18469394629E+00  0.60432322483E+01  0.17770000000E+01 0.  1.
</event>
<event>
 6    1  0.3836009E-003  0.5002016E+03  0.7546771E-02  0.9399359E-01
        -11   -1    0    0    0    0  0.00000000000E+00  0.00000000000E+00  0.50000000000E+03  0.50000000000E+03  0.00000000000E+00 0.  1.
         11   -1    0    0    0    0 -0.00000000000E+00 -0.00000000000E+00 -0.50000000000E+03  0.50000000000E+03  0.00000000000E+00 0. -1.
        -11    1    1    2    0    0  0.13984085413E+01 -0.13683669889E+02  0.49960907719E+03  0.49979838773E+03  0.00000000000E+00 0.  1.
         11    1    1    2    0    0 -0.39425633444E+01  0.13010465765E+01 -0.14625719838E+03  0.14631611192E+03  0.00000000000E+00 0. -1.
        -15    1    1    2    0    0 -0.56670583248E+01  0.73566872749E+01 -0.14949849948E+03  0.14979718113E+03  0.17770000000E+01 0.  1.
         15    1    1    2    0    0  0.82112131279E+01  0.50259360376E+01 -0.20385337932E+03  0.20408831923E+03  0.17770000000E+01 0. -1.
</event>
<event>
 6    1  0.3836009E-003  0.5083929E+03  0.7546771E-02  0.9381223E-01
        -11   -1    0    0    0    0  0.00000000000E+00  0.00000000000E+00  0.50000000000E+03  0.50000000000E+03  0.00000000000E+00 0. -1.
         11   -1    0    0    0    0 -0.00000000000E+00 -0.00000000000E+00 -0.50000000000E+03  0.50000000000E+03  0.00000000000E+00 0. -1.
        -11    1    1    2    0    0  0.21126517683E+02 -0.46060654737E+01  0.19795292352E+03  0.19913037317E+03  0.00000000000E+00 0. -1.
         11    1    1    2    0    0  0.13194215274E+02 -0.43073104001E+02 -0.48953873545E+03  0.49160711255E+03  0.00000000000E+00 0. -1.
        -15    1    1    2    0    0 -0.13719211154E+02  0.16276467936E+02  0.25789170675E+03  0.25877486413E+03  0.17770000000E+01 0.  1.
         15    1    1    2    0    0 -0.20601521803E+02  0.31402701539E+02  0.33694105181E+02  0.50487650148E+02  0.17770000000E+01 0. -1.
</event>
<event>
 6    1  0.3836009E-003  0.5029781E+03  0.7546771E-02  0.9393170E-01
        -11   -1    0    0    0    0  0.00000000000E+00  0.00000000000E+00  0.50000000000E+03  0.50000000000E+03  0.00000000000E+00 0. -1.
         11   -1    0    0    0    0 -0.00000000000E+00 -0.00000000000E+00 -0.50000000000E+03  0.50000000000E+03  0.00000000000E+00 0. -1.
        -11    1    1    2    0    0 -0.63105547512E+00  0.78090776945E+01  0.39732141342E+03  0.39739864807E+03  0.00000000000E+00 0. -1.
         11    1    1    2    0    0  0.46272902081E+01  0.49980951108E+01 -0.49697519243E+03  0.49702186538E+03  0.00000000000E+00 0. -1.
        -15    1    1    2    0    0  0.51395325088E+01 -0.28463988785E+01  0.86227539421E+02  0.86445723229E+02  0.17770000000E+01 0. -1.
         15    1    1    2    0    0 -0.91357672417E+01 -0.99607739268E+01  0.13426239589E+02  0.19133763321E+02  0.17770000000E+01 0.  1.
</event>
<event>
 6    1  0.3836009E-003  0.5007076E+03  0.7546771E-02  0.9398228E-01
        -11   -1    0    0    0    0  0.00000000000E+00  0.00000000000E+00  0.50000000000E+03  0.50000000000E+03  0.00000000000E+00 0.  1.
         11   -1    0    0    0    0 -0.00000000000E+00 -0.00000000000E+00 -0.50000000000E+03  0.50000000000E+03  0.00000000000E+00 0. -1.
        -11    1    1    2    0    0 -0.49709817390E+01 -0.44488712415E+01  0.35954266103E+03  0.35960454421E+03  0.00000000000E+00 0.  1.
         11    1    1    2    0    0  0.19306590962E+01 -0.67826499689E+01 -0.49924262342E+03  0.49929242816E+03  0.00000000000E+00 0. -1.
        -15    1    1    2    0    0 -0.98177410943E+00  0.12386548304E+02  0.61327172015E+02  0.62598484132E+02  0.17770000000E+01 0. -1.
         15    1    1    2    0    0  0.40220967522E+01 -0.11550270932E+01  0.78372790371E+02  0.78504543496E+02  0.17770000000E+01 0.  1.
</event>
<event>
 6    1  0.3836009E-003  0.5013280E+03  0.7546771E-02  0.9396843E-01
        -11   -1    0    0    0    0  0.00000000000E+00  0.00000000000E+00  0.50000000000E+03  0.50000000000E+03  0.00000000000E+00 0.  1.
         11   -1    0    0    0    0 -0.00000000000E+00 -0.00000000000E+00 -0.50000000000E+03  0.50000000000E+03  0.00000000000E+00 0. -1.
        -11    1    1    2    0    0  0.22525173582E+01  0.56269197396E+01  0.22926620250E+03  0.22934630511E+03  0.00000000000E+00 0.  1.
         11    1    1    2    0    0  0.33030553245E+01 -0.12717593192E+02 -0.49849887397E+03  0.49867201115E+03  0.00000000000E+00 0. -1.
        -15    1    1    2    0    0 -0.16527776343E+00 -0.45531729236E+01  0.23949908513E+03  0.23954901004E+03  0.17770000000E+01 0. -1.
         15    1    1    2    0    0 -0.53902949193E+01  0.11643846376E+02  0.29733586343E+02  0.32432673704E+02  0.17770000000E+01 0.  1.
</event>
<event>
 6    1  0.3836009E-003  0.5096259E+03  0.7546771E-02  0.9378525E-01
        -11   -1    0    0    0    0  0.00000000000E+00  0.00000000000E+00  0.50000000000E+03  0.50000000000E+03  0.00000000000E+00 0.  1.
         11   -1    0    0    0    0 -0.00000000000E+00 -0.00000000000E+00 -0.50000000000E+03  0.50000000000E+03  0.00000000000E+00 0.  1.
        -11    1    1    2    0    0  0.25962327697E-01  0.10446526252E+02  0.32563251823E+03  0.32580004222E+03  0.00000000000E+00 0.  1.
         11    1    1    2    0    0  0.21497236821E+02  0.22434626910E+02 -0.48938871390E+03  0.49037409900E+03  0.00000000000E+00 0.  1.
        -15    1    1    2    0    0 -0.29442365840E+02  0.16150153803E+02  0.72322792906E+02  0.79758538583E+02  0.17770000000E+01 0. -1.
         15    1    1    2    0    0  0.79191666919E+01 -0.49031306965E+02  0.91433402766E+02  0.10406732020E+03  0.17770000000E+01 0.  1.
</event>
<event>
 6    1  0.3836009E-003  0.5038359E+03  0.7546771E-02  0.9391267E-01
        -11   -1    0    0    0    0  0.00000000000E+00  0.00000000000E+00  0.50000000000E+03  0.50000000000E+03  0.00000000000E+00 0.  1.
         11   -1    0    0    0    0 -0.00000000000E+00 -0.00000000000E+00 -0.50000000000E+03  0.50000000000E+03  0.00000000000E+00 0.  1.
        -11    1    1    2    0    0  0.27347583670E+01  0.74780775740E+01  0.48716781829E+03  0.48723288448E+03  0.00000000000E+00 0.  1.
         11    1    1    2    0    0  0.23241415754E+01 -0.98429389743E+01 -0.49606096592E+03  0.49616405250E+03  0.00000000000E+00 0.  1.
        -15    1    1    2    0    0 -0.70006272500E+01  0.35431219861E+01  0.88731355697E+00  0.80936734336E+01  0.17770000000E+01 0.  1.
         15    1    1    2    0    0  0.19417273076E+01 -0.11782605858E+01  0.80058340740E+01  0.85093895883E+01  0.17770000000E+01 0. -1.
</event>
<event>
 6    1  0.3836009E-003  0.5034045E+03  0.7546771E-02  0.9392224E-01
        -11   -1    0    0    0    0  0.00000000000E+00  0.00000000000E+00  0.50000000000E+03  0.50000000000E+03  0.00000000000E+00 0.  1.
         11   -1    0    0    0    0 -0.00000000000E+00 -0.00000000000E+00 -0.50000000000E+03  0.50000000000E+03  0.00000000000E+00 0.  1.
        -11    1    1    2    0    0 -0.11281465142E+02  0.55706529899E+01  0.31038813877E+03  0.31064304325E+03  0.00000000000E+00 0.  1.
         11    1    1    2    0    0  0.17356138445E+01 -0.26133479868E+02 -0.49590434467E+03  0.49659549957E+03  0.00000000000E+00 0.  1.
        -15    1    1    2    0    0 -0.73814748592E+01  0.16511767691E+01  0.27642427972E+01  0.82468977841E+01  0.17770000000E+01 0. -1.
         15    1    1    2    0    0  0.16927326156E+02  0.18911650109E+02  0.18275196311E+03  0.18451455940E+03  0.17770000000E+01 0.  1.
</event>
<event>
 6    1  0.3836009E-003  0.5034556E+03  0.7546771E-02  0.9392111E-01
        -11   -1    0    0    0    0  0.00000000000E+00  0.00000000000E+00  0.50000000000E+03  0.50000000000E+03  0.00000000000E+00 0.  1.
         11   -1    0    0    0    0 -0.00000000000E+00 -0.00000000000E+00 -0.50000000000E+03  0.50000000000E+03  0.00000000000E+00 0. -1.
        -11    1    1    2    0    0  0.88413893672E+01  0.10254884903E+01  0.49646464964E+03  0.49654442917E+03  0.00000000000E+00 0.  1.
         11    1    1    2    0    0 -0.55426393725E+01 -0.51423173963E+01 -0.47663415012E+03  0.47669411297E+03  0.00000000000E+00 0. -1.
        -15    1    1    2    0    0  0.90320974467E+00  0.10138175444E+02 -0.10168937667E+02  0.14497013880E+02  0.17770000000E+01 0. -1.
         15    1    1    2    0    0 -0.42019597393E+01 -0.60213465379E+01 -0.96615618586E+01  0.12264443988E+02  0.17770000000E+01 0.  1.
</event>
<event>
 6    1  0.3836009E-003  0.5037304E+03  0.7546771E-02  0.9391501E-01
        -11   -1    0    0    0    0  0.00000000000E+00  0.00000000000E+00  0.50000000000E+03  0.50000000000E+03  0.00000000000E+00 0. -1.
         11   -1    0    0    0    0 -0.00000000000E+00 -0.00000000000E+00 -0.50000000000E+03  0.50000000000E+03  0.00000000000E+00 0.  1.
        -11    1    1    2    0    0 -0.50430929340E+01  0.34295908388E+01  0.66728062894E+02  0.67006188202E+02  0.00000000000E+00 0. -1.
         11    1    1    2    0    0 -0.10033085061E+01  0.12269571825E+02 -0.49611691931E+03  0.49626963099E+03  0.00000000000E+00 0.  1.
        -15    1    1    2    0    0  0.17273185785E+02 -0.12066593518E+02  0.27652740309E+02  0.34810880510E+02  0.17770000000E+01 0.  1.
         15    1    1    2    0    0 -0.11226784345E+02 -0.36325691457E+01  0.40173611610E+03  0.40191330030E+03  0.17770000000E+01 0. -1.
</event>
<event>
 6    1  0.3836009E-003  0.5011066E+03  0.7546771E-02  0.9397337E-01
        -11   -1    0    0    0    0  0.00000000000E+00  0.00000000000E+00  0.50000000000E+03  0.50000000000E+03  0.00000000000E+00 0. -1.
         11   -1    0    0    0    0 -0.00000000000E+00 -0.00000000000E+00 -0.50000000000E+03  0.50000000000E+03  0.00000000000E+00 0. -1.
        -11    1    1    2    0    0 -0.65227702995E+01 -0.12228222898E+02  0.30985783434E+03  0.31016762157E+03  0.00000000000E+00 0. -1.
         11    1    1    2    0    0  0.67664603439E+01 -0.66192033224E+01 -0.49880362225E+03  0.49889342791E+03  0.00000000000E+00 0. -1.
        -15    1    1    2    0    0 -0.69399736199E+00  0.70400783101E+01  0.16037236428E+02  0.17618030997E+02  0.17770000000E+01 0. -1.
         15    1    1    2    0    0  0.45030731765E+00  0.11807347910E+02  0.17290855148E+03  0.17332091953E+03  0.17770000000E+01 0.  1.
</event>
<event>
 6    1  0.3836009E-003  0.5169899E+03  0.7546771E-02  0.9362576E-01
        -11   -1    0    0    0    0  0.00000000000E+00  0.00000000000E+00  0.50000000000E+03  0.50000000000E+03  0.00000000000E+00 0.  1.
         11   -1    0    0    0    0 -0.00000000000E+00 -0.00000000000E+00 -0.50000000000E+03  0.50000000000E+03  0.00000000000E+00 0. -1.
        -11    1    1    2    0    0  0.26881566424E+01  0.95781657096E+01  0.46396258782E+03  0.46406923011E+03  0.00000000000E+00 0.  1.
         11    1    1    2    0    0 -0.53757931483E+01 -0.61160099411E+01 -0.48294150701E+03  0.48301014889E+03  0.00000000000E+00 0. -1.
        -15    1    1    2    0    0 -0.89275536816E+01  0.89120672419E+01 -0.12033156831E+02  0.17523719628E+02  0.17770000000E+01 0. -1.
         15    1    1    2    0    0  0.11615190187E+02 -0.12374223010E+02  0.31012076029E+02  0.35396901373E+02  0.17770000000E+01 0.  1.
</event>
<event>
 6    1  0.3836009E-003  0.5011745E+03  0.7546771E-02  0.9397185E-01
        -11   -1    0    0    0    0  0.00000000000E+00  0.00000000000E+00  0.50000000000E+03  0.50000000000E+03  0.00000000000E+00 0. -1.
         11   -1    0    0    0    0 -0.00000000000E+00 -0.00000000000E+00 -0.50000000000E+03  0.50000000000E+03  0.00000000000E+00 0.  1.
        -11    1    1    2    0    0  0.51469426659E+01 -0.11731091692E+02  0.43899181368E+03  0.43917869029E+03  0.00000000000E+00 0. -1.
         11    1    1    2    0    0 -0.68103180708E+01  0.10597310402E+01 -0.49877784492E+03  0.49882546251E+03  0.00000000000E+00 0.  1.
        -15    1    1    2    0    0  0.15826777125E+00  0.12386172785E+02  0.37732693627E+02  0.39753694449E+02  0.17770000000E+01 0. -1.
         15    1    1    2    0    0  0.15051076336E+01 -0.17148121329E+01  0.22053337621E+02  0.22242152748E+02  0.17770000000E+01 0.  1.
</event>
<event>
 6    1  0.3836009E-003  0.5032305E+03  0.7546771E-02  0.9392610E-01
        -11   -1    0    0    0    0  0.00000000000E+00  0.00000000000E+00  0.50000000000E+03  0.50000000000E+03  0.00000000000E+00 0. -1.
         11   -1    0    0    0    0 -0.00000000000E+00 -0.00000000000E+00 -0.50000000000E+03  0.50000000000E+03  0.00000000000E+00 0.  1.
        -11    1    1    2    0    0  0.94942956483E+01 -0.63155087807E+01  0.40893833981E+03  0.40909729047E+03  0.00000000000E+00 0. -1.
         11    1    1    2    0    0 -0.18924078897E+01 -0.78672809689E+01 -0.49670359151E+03  0.49676949699E+03  0.00000000000E+00 0.  1.
        -15    1    1    2    0    0 -0.97514097349E+01  0.71570478172E+01  0.85315608572E+02  0.86187145911E+02  0.17770000000E+01 0. -1.
         15    1    1    2    0    0  0.21495219763E+01  0.70257419324E+01  0.24496431270E+01  0.79460666293E+01  0.17770000000E+01 0. -1.
</event>
<event>
 6    1  0.3836009E-003  0.5173048E+03  0.7546771E-02  0.9361900E-01
        -11   -1    0    0    0    0  0.00000000000E+00  0.00000000000E+00  0.50000000000E+03  0.50000000000E+03  0.00000000000E+00 0.  1.
         11   -1    0    0    0    0 -0.00000000000E+00 -0.00000000000E+00 -0.50000000000E+03  0.50000000000E+03  0.00000000000E+00 0. -1.
        -11    1    1    2    0    0 -0.20158820704E+01  0.93302791325E+01  0.26754974284E+03  0.26771997083E+03  0.00000000000E+00 0.  1.
         11    1    1    2    0    0  0.19941994005E+02 -0.56832526847E+01 -0.48224960387E+03  0.48269520706E+03  0.00000000000E+00 0. -1.
        -15    1    1    2    0    0  0.15803763745E+02 -0.59722233984E+02  0.10444246575E+03  0.12135852076E+03  0.17770000000E+01 0. -1.
         15    1    1    2    0    0 -0.33729875680E+02  0.56075207536E+02  0.11025739529E+03  0.12822630135E+03  0.17770000000E+01 0.  1.
</event>
<event>
 6    1  0.3836009E-003  0.5029949E+03  0.7546771E-02  0.9393133E-01
        -11   -1    0    0    0    0  0.00000000000E+00  0.00000000000E+00  0.50000000000E+03  0.50000000000E+03  0.00000000000E+00 0.  1.
         11   -1    0    0    0    0 -0.00000000000E+00 -0.00000000000E+00 -0.50000000000E+03  0.50000000000E+03  0.00000000000E+00 0.  1.
        -11    1    1    2    0    0  0.38368481063E+01 -0.14044677181E+02  0.49679177791E+03  0.49700507539E+03  0.00000000000E+00 0.  1.
         11    1    1    2    0    0  0.13885907699E+02 -0.11838815640E+02 -0.16616507566E+03  0.16716401633E+03  0.00000000000E+00 0.  1.
        -15    1    1    2    0    0 -0.11500923628E+02  0.40543456491E+02 -0.26080427252E+03  0.26419324254E+03  0.17770000000E+01 0.  1.
         15    1    1    2    0    0 -0.62218321773E+01 -0.14659963670E+02 -0.69822429731E+02  0.71637665742E+02  0.17770000000E+01 0. -1.
</event>
<event>
 6    1  0.3836009E-003  0.4745619E+03  0.7546771E-02  0.9458600E-01
        -11   -1    0    0    0    0  0.00000000000E+00  0.00000000000E+00  0.50000000000E+03  0.50000000000E+03  0.00000000000E+00 0.  1.
         11   -1    0    0    0    0 -0.00000000000E+00 -0.00000000000E+00 -0.50000000000E+03  0.50000000000E+03  0.00000000000E+00 0.  1.
        -11    1    1    2    0    0 -0.13129888170E+02  0.24457910364E+02  0.47689702417E+03  0.47770425475E+03  0.00000000000E+00 0.  1.
         11    1    1    2    0    0  0.11976292888E+01 -0.23324563196E+02 -0.47093514832E+03  0.47151392714E+03  0.00000000000E+00 0.  1.
        -15    1    1    2    0    0  0.62536820596E+01 -0.11078455498E+02  0.19187748623E+02  0.23090433988E+02  0.17770000000E+01 0.  1.
         15    1    1    2    0    0  0.56785768215E+01  0.99451083314E+01 -0.25149624474E+02  0.27691384122E+02  0.17770000000E+01 0. -1.
</event>
<event>
 6    1  0.3836009E-003  0.5178112E+03  0.7546771E-02  0.9360815E-01
        -11   -1    0    0    0    0  0.00000000000E+00  0.00000000000E+00  0.50000000000E+03  0.50000000000E+03  0.00000000000E+00 0. -1.
         11   -1    0    0    0    0 -0.00000000000E+00 -0.00000000000E+00 -0.50000000000E+03  0.50000000000E+03  0.00000000000E+00 0. -1.
        -11    1    1    2    0    0  0.84130438528E+01  0.64531476827E+01  0.48207219283E+03  0.48218878204E+03  0.00000000000E+00 0. -1.
         11    1    1    2    0    0 -0.18364924414E+01 -0.30655365171E+01 -0.86092326726E+02  0.86166460643E+02  0.00000000000E+00 0. -1.
        -15    1    1    2    0    0 -0.10019088545E+02 -0.13877245077E+02  0.13586902278E+02  0.21925366786E+02  0.17770000000E+01 0.  1.
         15    1    1    2    0    0  0.34425371333E+01  0.10489633911E+02 -0.40956676839E+03  0.40971939053E+03  0.17770000000E+01 0. -1.
</event>
<event>
 6    1  0.3836009E-003  0.5069716E+03  0.7546771E-02  0.9384344E-01
        -11   -1    0    0    0    0  0.00000000000E+00  0.00000000000E+00  0.50000000000E+03  0.50000000000E+03  0.00000000000E+00 0. -1.
         11   -1    0    0    0    0 -0.00000000000E+00 -0.00000000000E+00 -0.50000000000E+03  0.50000000000E+03  0.00000000000E+00 0. -1.
        -11    1    1    2    0    0 -0.16328496514E+02 -0.21301485993E+02  0.37450437549E+03  0.37546491229E+03  0.00000000000E+00 0. -1.
         11    1    1    2    0    0 -0.42961496042E+01  0.79347236849E+01 -0.49294581601E+03  0.49302839093E+03  0.00000000000E+00 0. -1.
        -15    1    1    2    0    0  0.12696759392E+01 -0.61021400699E+01 -0.28894419505E+01  0.70961112032E+01  0.17770000000E+01 0.  1.
         15    1    1    2    0    0  0.19354970179E+02  0.19468902378E+02  0.12133088248E+03  0.12441058557E+03  0.17770000000E+01 0. -1.
</event>
<event>
 6    1  0.3836009E-003  0.5003379E+03  0.7546771E-02  0.9399054E-01
        -11   -1    0    0    0    0  0.00000000000E+00  0.00000000000E+00  0.50000000000E+03  0.50000000000E+03  0.00000000000E+00 0. -1.
         11   -1    0    0    0    0 -0.00000000000E+00 -0.00000000000E+00 -0.50000000000E+03  0.50000000000E+03  0.00000000000E+00 0. -1.
        -11    1    1    2    0    0 -0.22446186697E+01  0.32619681392E+01  0.23276952813E+03  0.23280320439E+03  0.00000000000E+00 0. -1.
         11    1    1    2    0    0  0.11835436325E+02 -0.98215014415E+00 -0.49952094161E+03  0.49966209910E+03  0.00000000000E+00 0. -1.
        -15    1    1    2    0    0  0.81030027184E+00 -0.21021951439E+01  0.19406010044E+03  0.19408131317E+03  0.17770000000E+01 0. -1.
         15    1    1    2    0    0 -0.10401117927E+02 -0.17762285113E+00  0.72691313034E+02  0.73453383337E+02  0.17770000000E+01 0. -1.
</event>
<event>
 6    1  0.3836009E-003  0.5020474E+03  0.7546771E-02  0.9395240E-01
        -11   -1    0    0    0    0  0.00000000000E+00  0.00000000000E+00  0.50000000000E+03  0.50000000000E+03  0.00000000000E+00 0.  1.
         11   -1    0    0    0    0 -0.00000000000E+00 -0.00000000000E+00 -0.50000000000E+03  0.50000000000E+03  0.00000000000E+00 0.  1.
        -11    1    1    2    0    0  0.55564358414E+01  0.52712722864E-01  0.35890111452E+03  0.35894412763E+03  0.00000000000E+00 0.  1.
         11    1    1    2    0    0 -0.13489243536E+02 -0.75960066045E+01 -0.49771193212E+03  0.49795263468E+03  0.00000000000E+00 0.  1.
        -15    1    1    2    0    0  0.50834049128E+01  0.18260539511E+02  0.11732050309E+03  0.11885514916E+03  0.17770000000E+01 0.  1.
         15    1    1    2    0    0  0.28494027818E+01 -0.10717245630E+02  0.21490314514E+02  0.24248088522E+02  0.17770000000E+01 0. -1.
</event>
<event>
 6    1  0.3836009E-003  0.5105342E+03  0.7546771E-02  0.9376542E-01
        -11   -1    0    0    0    0  0.00000000000E+00  0.00000000000E+00  0.50000000000E+03  0.50000000000E+03  0.00000000000E+00 0.  1.
         11   -1    0    0    0    0 -0.00000000000E+00 -0.00000000000E+00 -0.50000000000E+03  0.50000000000E+03  0.00000000000E+00 0.  1.
        -11    1    1    2    0    0  0.81933934296E+01  0.42638762976E+01  0.48937865741E+03  0.48946581358E+03  0.00000000000E+00 0.  1.
         11    1    1    2    0    0  0.81373055962E+01  0.38951955095E+02 -0.16263155284E+03  0.16742906715E+03  0.00000000000E+00 0.  1.
        -15    1    1    2    0    0  0.20569101354E+02 -0.57967096214E+02 -0.15402976155E+03  0.16586620314E+03  0.17770000000E+01 0. -1.
         15    1    1    2    0    0 -0.36899800380E+02  0.14751264822E+02 -0.17271734302E+03  0.17723891613E+03  0.17770000000E+01 0.  1.
</event>
<event>
 6    1  0.3836009E-003  0.3773679E+03  0.7546771E-02  0.9725741E-01
        -11   -1    0    0    0    0  0.00000000000E+00  0.00000000000E+00  0.50000000000E+03  0.50000000000E+03  0.00000000000E+00 0. -1.
         11   -1    0    0    0    0 -0.00000000000E+00 -0.00000000000E+00 -0.50000000000E+03  0.50000000000E+03  0.00000000000E+00 0.  1.
        -11    1    1    2    0    0  0.47446796051E+02  0.21309857356E+03  0.36201965899E+03  0.42275339620E+03  0.00000000000E+00 0. -1.
         11    1    1    2    0    0  0.33550217337E+02  0.81733436714E+01 -0.25118594463E+03  0.25354841630E+03  0.00000000000E+00 0.  1.
        -15    1    1    2    0    0 -0.48863184312E+02  0.69209444561E+01 -0.75991996870E+02  0.90628094819E+02  0.17770000000E+01 0. -1.
         15    1    1    2    0    0 -0.32133829076E+02 -0.22819286168E+03 -0.34841717483E+02  0.23307009268E+03  0.17770000000E+01 0.  1.
</event>
<event>
 6    1  0.3836009E-003  0.5010543E+03  0.7546771E-02  0.9397454E-01
        -11   -1    0    0    0    0  0.00000000000E+00  0.00000000000E+00  0.50000000000E+03  0.50000000000E+03  0.00000000000E+00 0.  1.
         11   -1    0    0    0    0 -0.00000000000E+00 -0.00000000000E+00 -0.50000000000E+03  0.50000000000E+03  0.00000000000E+00 0.  1.
        -11    1    1    2    0    0  0.73250830917E+01  0.14020663993E+02  0.49869488084E+03  0.49894570851E+03  0.00000000000E+00 0.  1.
         11    1    1    2    0    0 -0.64787232765E+01  0.10127595711E+02 -0.24225561959E+03  0.24255376162E+03  0.00000000000E+00 0.  1.
        -15    1    1    2    0    0 -0.72992400792E+01 -0.55286374773E+01 -0.14638005107E+03  0.14667693008E+03  0.17770000000E+01 0.  1.
         15    1    1    2    0    0  0.64528802641E+01 -0.18619622226E+02 -0.11005921018E+03  0.11182359979E+03  0.17770000000E+01 0. -1.
</event>
<event>
 6    1  0.3836009E-003  0.5006902E+03  0.7546771E-02  0.9398267E-01
        -11   -1    0    0    0    0  0.00000000000E+00  0.00000000000E+00  0.50000000000E+03  0.50000000000E+03  0.00000000000E+00 0.  1.
         11   -1    0    0    0    0 -0.00000000000E+00 -0.00000000000E+00 -0.50000000000E+03  0.50000000000E+03  0.00000000000E+00 0.  1.
        -11    1    1    2    0    0  0.44598354704E+01 -0.19179889056E+01  0.32254476078E+03  0.32258129443E+03  0.00000000000E+00 0.  1.
         11    1    1    2    0    0 -0.28401747258E+01 -0.12371126344E+02 -0.49914845917E+03  0.49930981930E+03  0.00000000000E+00 0.  1.
        -15    1    1    2    0    0  0.67233822504E+00  0.17498996341E+02  0.11346598475E+03  0.11482314373E+03  0.17770000000E+01 0. -1.
         15    1    1    2    0    0 -0.22919989696E+01 -0.32098810916E+01  0.63137713641E+02  0.63285742539E+02  0.17770000000E+01 0.  1.
</event>
<event>
 6    1  0.3836009E-003  0.5052063E+03  0.7546771E-02  0.9388235E-01
        -11   -1    0    0    0    0  0.00000000000E+00  0.00000000000E+00  0.50000000000E+03  0.50000000000E+03  0.00000000000E+00 0.  1.
         11   -1    0    0    0    0 -0.00000000000E+00 -0.00000000000E+00 -0.50000000000E+03  0.50000000000E+03  0.00000000000E+00 0.  1.
        -11    1    1    2    0    0  0.76637982278E+01 -0.30731667453E+01  0.49472481313E+03  0.49479371347E+03  0.00000000000E+00 0.  1.
         11    1    1    2    0    0 -0.18652984896E+02 -0.12883050282E+01 -0.40429536539E+03  0.40472748369E+03  0.00000000000E+00 0.  1.
        -15    1    1    2    0    0  0.15148519851E+02  0.87176496875E+01 -0.92275868595E+02  0.93933320626E+02  0.17770000000E+01 0. -1.
         15    1    1    2    0    0 -0.41593331827E+01 -0.43561779140E+01  0.18464208545E+01  0.65454822217E+01  0.17770000000E+01 0.  1.
</event>
<event>
 6    1  0.3836009E-003  0.4938568E+03  0.7546771E-02  0.9413662E-01
        -11   -1    0    0    0    0  0.00000000000E+00  0.00000000000E+00  0.50000000000E+03  0.50000000000E+03  0.00000000000E+00 0. -1.
         11   -1    0    0    0    0 -0.00000000000E+00 -0.00000000000E+00 -0.50000000000E+03  0.50000000000E+03  0.00000000000E+00 0. -1.
        -11    1    1    2    0    0 -0.53182541008E+01 -0.10379698972E+02  0.49406130199E+03  0.49419893980E+03  0.00000000000E+00 0. -1.
         11    1    1    2    0    0  0.66187343460E+01  0.71414145651E+01 -0.49342491628E+03  0.49352097772E+03  0.00000000000E+00 0. -1.
        -15    1    1    2    0    0 -0.33230109690E+01 -0.19715021393E+01 -0.37237401823E+01  0.56527155006E+01  0.17770000000E+01 0.  1.
         15    1    1    2    0    0  0.20225307238E+01  0.52097865459E+01  0.30873544728E+01  0.66273669751E+01  0.17770000000E+01 0.  1.
</event>
<event>
 6    1  0.3836009E-003  0.5012735E+03  0.7546771E-02  0.9396965E-01
        -11   -1    0    0    0    0  0.00000000000E+00  0.00000000000E+00  0.50000000000E+03  0.50000000000E+03  0.00000000000E+00 0. -1.
         11   -1    0    0    0    0 -0.00000000000E+00 -0.00000000000E+00 -0.50000000000E+03  0.50000000000E+03  0.00000000000E+00 0. -1.
        -11    1    1    2    0    0 -0.10273582106E+01 -0.96186886800E+01  0.49863271011E+03  0.49872653251E+03  0.00000000000E+00 0. -1.
         11    1    1    2    0    0  0.58585294414E+01  0.11775147622E+01 -0.43800142634E+03  0.43804218791E+03  0.00000000000E+00 0. -1.
        -15    1    1    2    0    0 -0.36646316634E+01  0.62101645600E+01 -0.97474990076E+01  0.12254270072E+02  0.17770000000E+01 0. -1.
         15    1    1    2    0    0 -0.11665395673E+01  0.22310093577E+01 -0.50883784767E+02  0.50977009509E+02  0.17770000000E+01 0.  1.
</event>
<event>
 6    1  0.3836009E-003  0.5021454E+03  0.7546771E-02  0.9395022E-01
        -11   -1    0    0    0    0  0.00000000000E+00  0.00000000000E+00  0.50000000000E+03  0.50000000000E+03  0.00000000000E+00 0. -1.
         11   -1    0    0    0    0 -0.00000000000E+00 -0.00000000000E+00 -0.50000000000E+03  0.50000000000E+03  0.00000000000E+00 0.  1.
        -11    1    1    2    0    0 -0.14228921529E+02  0.11848742476E+02  0.38135217096E+03  0.38180143164E+03  0.00000000000E+00 0. -1.
         11    1    1    2    0    0 -0.50790321316E+01 -0.74465552802E+01 -0.49777299181E+03  0.49785459638E+03  0.00000000000E+00 0.  1.
        -15    1    1    2    0    0  0.12691088091E+02  0.68901161905E+01  0.35723047244E+02  0.38572415680E+02  0.17770000000E+01 0. -1.
         15    1    1    2    0    0  0.66168655694E+01 -0.11292303387E+02  0.80697773607E+02  0.81771556301E+02  0.17770000000E+01 0.  1.
</event>
<event>
 6    1  0.3836009E-003  0.5216007E+03  0.7546771E-02  0.9352733E-01
        -11   -1    0    0    0    0  0.00000000000E+00  0.00000000000E+00  0.50000000000E+03  0.50000000000E+03  0.00000000000E+00 0.  1.
         11   -1    0    0    0    0 -0.00000000000E+00 -0.00000000000E+00 -0.50000000000E+03  0.50000000000E+03  0.00000000000E+00 0.  1.
        -11    1    1    2    0    0 -0.19610249371E+02  0.27485147864E+02  0.47720629709E+03  0.47839925295E+03  0.00000000000E+00 0.  1.
         11    1    1    2    0    0  0.44897644521E+00  0.44700701036E+01 -0.30458962419E+03  0.30462275402E+03  0.00000000000E+00 0.  1.
        -15    1    1    2    0    0 -0.10542459584E+01 -0.29448720858E+02 -0.18867990537E+03  0.19097539898E+03  0.17770000000E+01 0.  1.
         15    1    1    2    0    0  0.20215518884E+02 -0.25064971096E+01  0.16063232463E+02  0.26002594056E+02  0.17770000000E+01 0. -1.
</event>
<event>
 6    1  0.3836009E-003  0.5010579E+03  0.7546771E-02  0.9397446E-01
        -11   -1    0    0    0    0  0.00000000000E+00  0.00000000000E+00  0.50000000000E+03  0.50000000000E+03  0.00000000000E+00 0.  1.
         11   -1    0    0    0    0 -0.00000000000E+00 -0.00000000000E+00 -0.50000000000E+03  0.50000000000E+03  0.00000000000E+00 0. -1.
        -11    1    1    2    0    0 -0.16500958171E+01 -0.30288091977E+00  0.36621462383E+02  0.36659869887E+02  0.00000000000E+00 0.  1.
         11    1    1    2    0    0  0.13462690471E+02  0.12445793076E+02 -0.49860510095E+03  0.49894206927E+03  0.00000000000E+00 0. -1.
        -15    1    1    2    0    0  0.37308727618E+01 -0.69855860047E+01  0.40499689749E+03  0.40507821779E+03  0.17770000000E+01 0.  1.
         15    1    1    2    0    0 -0.15543467416E+02 -0.51573261514E+01  0.56986741077E+02  0.59319843054E+02  0.17770000000E+01 0. -1.
</event>
<event>
 6    1  0.3836009E-003  0.5056518E+03  0.7546771E-02  0.9387252E-01
        -11   -1    0    0    0    0  0.00000000000E+00  0.00000000000E+00  0.50000000000E+03  0.50000000000E+03  0.00000000000E+00 0.  1.
         11   -1    0    0    0    0 -0.00000000000E+00 -0.00000000000E+00 -0.50000000000E+03  0.50000000000E+03  0.00000000000E+00 0.  1.
        -11    1    1    2    0    0 -0.67755820090E+01 -0.11791890629E+02  0.46793283667E+03  0.46813042715E+03  0.00000000000E+00 0.  1.
         11    1    1    2    0    0  0.31146311856E+01  0.22499514955E+02 -0.49382613431E+03  0.49434823761E+03  0.00000000000E+00 0.  1.
        -15    1    1    2    0    0  0.80572811557E+01  0.40410732191E+01  0.17826487754E+02  0.20054711343E+02  0.17770000000E+01 0. -1.
         15    1    1    2    0    0 -0.43963303323E+01 -0.14748697546E+02  0.80668098845E+01  0.17466623898E+02  0.17770000000E+01 0.  1.
</event>
<event>
 6    1  0.3836009E-003  0.5032874E+03  0.7546771E-02  0.9392484E-01
        -11   -1    0    0    0    0  0.00000000000E+00  0.00000000000E+00  0.50000000000E+03  0.50000000000E+03  0.00000000000E+00 0. -1.
         11   -1    0    0    0    0 -0.00000000000E+00 -0.00000000000E+00 -0.50000000000E+03  0.50000000000E+03  0.00000000000E+00 0.  1.
        -11    1    1    2    0    0  0.68009568955E+01 -0.53618454210E+01  0.49663712141E+03  0.49671262594E+03  0.00000000000E+00 0. -1.
         11    1    1    2    0    0  0.62621324669E+01  0.14152252575E+02 -0.43264575182E+03  0.43292244932E+03  0.00000000000E+00 0.  1.
        -15    1    1    2    0    0 -0.10461951801E+02 -0.13459902489E+02 -0.62101784959E+02  0.64423682249E+02  0.17770000000E+01 0.  1.
         15    1    1    2    0    0 -0.26011375618E+01  0.46694953353E+01 -0.18895846359E+01  0.59412424962E+01  0.17770000000E+01 0. -1.
</event>
<event>
 6    1  0.3836009E-003  0.5087932E+03  0.7546771E-02  0.9380346E-01
        -11   -1    0    0    0    0  0.00000000000E+00  0.00000000000E+00  0.50000000000E+03  0.50000000000E+03  0.00000000000E+00 0. -1.
         11   -1    0    0    0    0 -0.00000000000E+00 -0.00000000000E+00 -0.50000000000E+03  0.50000000000E+03  0.00000000000E+00 0. -1.
        -11    1    1    2    0    0  0.86595319755E+01 -0.16135835914E+02  0.49086530110E+03  0.49120677573E+03  0.00000000000E+00 0. -1.
         11    1    1    2    0    0 -0.11632945879E+02  0.14802033259E+01 -0.44055930687E+03  0.44071534952E+03  0.00000000000E+00 0. -1.
        -15    1    1    2    0    0 -0.16628708309E+01  0.75238879100E+01  0.67298911658E+01  0.10383794720E+02  0.17770000000E+01 0. -1.
         15    1    1    2    0    0  0.46362847342E+01  0.71317446783E+01 -0.57035885397E+02  0.57694080028E+02  0.17770000000E+01 0.  1.
</event>
<event>
 6    1  0.3836009E-003  0.5123384E+03  0.7546771E-02  0.9372617E-01
        -11   -1    0    0    0    0  0.00000000000E+00  0.00000000000E+00  0.50000000000E+03  0.50000000000E+03  0.00000000000E+00 0. -1.
         11   -1    0    0    0    0 -0.00000000000E+00 -0.00000000000E+00 -0.50000000000E+03  0.50000000000E+03  0.00000000000E+00 0.  1.
        -11    1    1    2    0    0 -0.13945838611E+02  0.57360723449E+00  0.48746178195E+03  0.48766156738E+03  0.00000000000E+00 0. -1.
         11    1    1    2    0    0 -0.69910646980E+01  0.16834466115E+02 -0.46987501373E+03  0.47022845805E+03  0.00000000000E+00 0.  1.
        -15    1    1    2    0    0  0.26409047522E+02 -0.10143284821E+02 -0.97569785320E+01  0.29977998217E+02  0.17770000000E+01 0. -1.
         15    1    1    2    0    0 -0.54721442136E+01 -0.72647885282E+01 -0.78297896843E+01  0.12131976350E+02  0.17770000000E+01 0.  1.
</event>
<event>
 6    1  0.3836009E-003  0.5018573E+03  0.7546771E-02  0.9395663E-01
        -11   -1    0    0    0    0  0.00000000000E+00  0.00000000000E+00  0.50000000000E+03  0.50000000000E+03  0.00000000000E+00 0.  1.
         11   -1    0    0    0    0 -0.00000000000E+00 -0.00000000000E+00 -0.50000000000E+03  0.50000000000E+03  0.00000000000E+00 0. -1.
        -11    1    1    2    0    0 -0.29921352770E+01 -0.60465214122E+01  0.28375064699E+03  0.28383083512E+03  0.00000000000E+00 0.  1.
         11    1    1    2    0    0 -0.16157231304E+01 -0.80158803374E+01 -0.49807559991E+03  0.49814271863E+03  0.00000000000E+00 0. -1.
        -15    1    1    2    0    0  0.70417240506E+01  0.16635363544E+02  0.21311031560E+03  0.21388194300E+03  0.17770000000E+01 0.  1.
         15    1    1    2    0    0 -0.24338656431E+01 -0.25729617939E+01  0.12146373221E+01  0.41445032496E+01  0.17770000000E+01 0. -1.
</event>
<event>
 6    1  0.3836009E-003  0.5018841E+03  0.7546771E-02  0.9395604E-01
        -11   -1    0    0    0    0  0.00000000000E+00  0.00000000000E+00  0.50000000000E+03  0.50000000000E+03  0.00000000000E+00 0.  1.
         11   -1    0    0    0    0 -0.00000000000E+00 -0.00000000000E+00 -0.50000000000E+03  0.50000000000E+03  0.00000000000E+00 0. -1.
        -11    1    1    2    0    0 -0.39528788490E+01  0.61547718884E+01  0.49806222809E+03  0.49811593984E+03  0.00000000000E+00 0.  1.
         11    1    1    2    0    0  0.71989549991E+01 -0.35921274671E+00 -0.45367601336E+03  0.45373326865E+03  0.00000000000E+00 0. -1.
        -15    1    1    2    0    0 -0.51417373169E+00 -0.82935325771E+01 -0.84600033471E+01  0.11990681501E+02  0.17770000000E+01 0. -1.
         15    1    1    2    0    0 -0.27319024185E+01  0.24979734355E+01 -0.35926211386E+02  0.36160110006E+02  0.17770000000E+01 0.  1.
</event>
<event>
 6    1  0.3836009E-003  0.3750629E+03  0.7546771E-02  0.9733094E-01
        -11   -1    0    0    0    0  0.00000000000E+00  0.00000000000E+00  0.50000000000E+03  0.50000000000E+03  0.00000000000E+00 0. -1.
         11   -1    0    0    0    0 -0.00000000000E+00 -0.00000000000E+00 -0.50000000000E+03  0.50000000000E+03  0.00000000000E+00 0. -1.
        -11    1    1    2    0    0 -0.33919864141E+01  0.41278013661E+01  0.35944149913E+03  0.35948120342E+03  0.00000000000E+00 0. -1.
         11    1    1    2    0    0  0.10249830310E+02 -0.91184858139E+02 -0.38538280076E+03  0.39615608098E+03  0.00000000000E+00 0. -1.
        -15    1    1    2    0    0  0.10008532722E+03  0.24868361194E+02 -0.31652244775E+02  0.10789128993E+03  0.17770000000E+01 0.  1.
         15    1    1    2    0    0 -0.10694317112E+03  0.62188695579E+02  0.57593546403E+02  0.13647142567E+03  0.17770000000E+01 0. -1.
</event>
<event>
 6    1  0.3836009E-003  0.5006163E+03  0.7546771E-02  0.9398432E-01
        -11   -1    0    0    0    0  0.00000000000E+00  0.00000000000E+00  0.50000000000E+03  0.50000000000E+03  0.00000000000E+00 0.  1.
         11   -1    0    0    0    0 -0.00000000000E+00 -0.00000000000E+00 -0.50000000000E+03  0.50000000000E+03  0.00000000000E+00 0.  1.
        -11    1    1    2    0    0  0.88310870178E+01  0.28569644476E+00  0.26605096978E+03  0.26619764883E+03  0.00000000000E+00 0.  1.
         11    1    1    2    0    0 -0.59191777622E+01  0.73659181638E+01 -0.49929433358E+03  0.49938374519E+03  0.00000000000E+00 0.  1.
        -15    1    1    2    0    0  0.60736072779E+01 -0.42249438432E+01  0.30335812722E+02  0.31275519474E+02  0.17770000000E+01 0. -1.
         15    1    1    2    0    0 -0.89855165335E+01 -0.34266707653E+01  0.20290755108E+03  0.20314308650E+03  0.17770000000E+01 0.  1.
</event>
<event>
 6    1  0.3836009E-003  0.5122981E+03  0.7546771E-02  0.9372705E-01
        -11   -1    0    0    0    0  0.00000000000E+00  0.00000000000E+00  0.50000000000E+03  0.50000000000E+03  0.00000000000E+00 0. -1.
         11   -1    0    0    0    0 -0.00000000000E+00 -0.00000000000E+00 -0.50000000000E+03  0.50000000000E+03  0.00000000000E+00 0.  1.
        -11    1    1    2    0    0  0.65693314355E+01  0.36044396311E+00  0.40668606457E+03  0.40673927908E+03  0.00000000000E+00 0. -1.
         11    1    1    2    0    0  0.57056234786E+00 -0.91015961646E+01 -0.48761661322E+03  0.48770188239E+03  0.00000000000E+00 0.  1.
        -15    1    1    2    0    0 -0.18427263067E+02  0.58843990389E+01  0.89120596777E+02  0.91213094866E+02  0.17770000000E+01 0. -1.
         15    1    1    2    0    0  0.11287369283E+02  0.28567531626E+01 -0.81900481225E+01  0.14345743662E+02  0.17770000000E+01 0.  1.
</event>
<event>
 6    1  0.3836009E-003  0.5020878E+03  0.7546771E-02  0.9395150E-01
        -11   -1    0    0    0    0  0.00000000000E+00  0.00000000000E+00  0.50000000000E+03  0.50000000000E+03  0.00000000000E+00 0. -1.
         11   -1    0    0    0    0 -0.00000000000E+00 -0.00000000000E+00 -0.50000000000E+03  0.50000000000E+03  0.00000000000E+00 0.  1.
        -11    1    1    2    0    0  0.36357245925E+01 -0.59889000487E+01  0.43391049401E+03  0.43396705201E+03  0.00000000000E+00 0. -1.
         11    1    1    2    0    0  0.30965861419E+01 -0.69342283365E+01 -0.49785423489E+03  0.49791215245E+03  0.00000000000E+00 0.  1.
        -15    1    1    2    0    0  0.57624689965E+01  0.33618838673E+01  0.28100347724E+02  0.28936060259E+02  0.17770000000E+01 0.  1.
         15    1    1    2    0    0 -0.12494779731E+02  0.95612445179E+01  0.35843393154E+02  0.39184735281E+02  0.17770000000E+01 0. -1.
</event>
<event>
 6    1  0.3836009E-003  0.5008327E+03  0.7546771E-02  0.9397948E-01
        -11   -1    0    0    0    0  0.00000000000E+00  0.00000000000E+00  0.50000000000E+03  0.50000000000E+03  0.00000000000E+00 0.  1.
         11   -1    0    0    0    0 -0.00000000000E+00 -0.00000000000E+00 -0.50000000000E+03  0.50000000000E+03  0.00000000000E+00 0. -1.
        -11    1    1    2    0    0 -0.20536515568E+02 -0.60282538255E+01  0.49870820165E+03  0.49916726527E+03  0.00000000000E+00 0.  1.
         11    1    1    2    0    0  0.85233618277E+00 -0.19366955405E+01 -0.37056121559E+02  0.37116484365E+02  0.00000000000E+00 0. -1.
        -15    1    1    2    0    0  0.22492942902E+00  0.55923013098E+01 -0.36662161549E+03  0.36666863938E+03  0.17770000000E+01 0. -1.
         15    1    1    2    0    0  0.19459249957E+02  0.23726480562E+01 -0.95030464604E+02  0.97047610994E+02  0.17770000000E+01 0.  1.
</event>
<event>
 6    1  0.3836009E-003  0.5101697E+03  0.7546771E-02  0.9377337E-01
        -11   -1    0    0    0    0  0.00000000000E+00  0.00000000000E+00  0.50000000000E+03  0.50000000000E+03  0.00000000000E+00 0. -1.
         11   -1    0    0    0    0 -0.00000000000E+00 -0.00000000000E+00 -0.50000000000E+03  0.50000000000E+03  0.00000000000E+00 0.  1.
        -11    1    1    2    0    0  0.84747547690E+00  0.36494562673E+01  0.24293317146E+03  0.24296205988E+03  0.00000000000E+00 0. -1.
         11    1    1    2    0    0 -0.14018190847E+02 -0.60774534492E+00 -0.48962925611E+03  0.48983026394E+03  0.00000000000E+00 0.  1.
        -15    1    1    2    0    0 -0.25942394469E+02 -0.21849169724E+02  0.20217376428E+03  0.20500678706E+03  0.17770000000E+01 0. -1.
         15    1    1    2    0    0  0.39113109839E+02  0.18807458801E+02  0.44522320372E+02  0.62200889127E+02  0.17770000000E+01 0.  1.
</event>
<event>
 6    1  0.3836009E-003  0.5013657E+03  0.7546771E-02  0.9396759E-01
        -11   -1    0    0    0    0  0.00000000000E+00  0.00000000000E+00  0.50000000000E+03  0.50000000000E+03  0.00000000000E+00 0.  1.
         11   -1    0    0    0    0 -0.00000000000E+00 -0.00000000000E+00 -0.50000000000E+03  0.50000000000E+03  0.00000000000E+00 0. -1.
        -11    1    1    2    0    0 -0.10277370725E+01  0.48330477499E+00  0.64472848814E+02  0.64482850907E+02  0.00000000000E+00 0.  1.
         11    1    1    2    0    0 -0.48250222621E+01 -0.11082347746E+02 -0.49848773479E+03  0.49863425575E+03  0.00000000000E+00 0. -1.
        -15    1    1    2    0    0 -0.37875570382E+01 -0.17801205554E+02  0.22168545308E+03  0.22243836527E+03  0.17770000000E+01 0. -1.
         15    1    1    2    0    0  0.96403163727E+01  0.28400248524E+02  0.21232943290E+03  0.21444452807E+03  0.17770000000E+01 0.  1.
</event>
<event>
 6    1  0.3836009E-003  0.5044497E+03  0.7546771E-02  0.9389908E-01
        -11   -1    0    0    0    0  0.00000000000E+00  0.00000000000E+00  0.50000000000E+03  0.50000000000E+03  0.00000000000E+00 0. -1.
         11   -1    0    0    0    0 -0.00000000000E+00 -0.00000000000E+00 -0.50000000000E+03  0.50000000000E+03  0.00000000000E+00 0.  1.
        -11    1    1    2    0    0 -0.44862728597E+01  0.35052298851E+01  0.40419845220E+03  0.40423854596E+03  0.00000000000E+00 0. -1.
         11    1    1    2    0    0  0.33771230722E+01 -0.97193143534E+01 -0.49544343131E+03  0.49555026351E+03  0.00000000000E+00 0.  1.
        -15    1    1    2    0    0 -0.13174907426E+02  0.83083434789E+01  0.12269629785E+02  0.19907493592E+02  0.17770000000E+01 0. -1.
         15    1    1    2    0    0  0.14284057214E+02 -0.20942590106E+01  0.78975349331E+02  0.80303696940E+02  0.17770000000E+01 0.  1.
</event>
<event>
 6    1  0.3836009E-003  0.5111326E+03  0.7546771E-02  0.9375239E-01
        -11   -1    0    0    0    0  0.00000000000E+00  0.00000000000E+00  0.50000000000E+03  0.50000000000E+03  0.00000000000E+00 0. -1.
         11   -1    0    0    0    0 -0.00000000000E+00 -0.00000000000E+00 -0.50000000000E+03  0.50000000000E+03  0.00000000000E+00 0. -1.
        -11    1    1    2    0    0 -0.26241094134E+01  0.68255453634E+01  0.48881274635E+03  0.48886744114E+03  0.00000000000E+00 0. -1.
         11    1    1    2    0    0 -0.13537586776E+02 -0.22875596258E+02 -0.45615573526E+03  0.45692955033E+03  0.00000000000E+00 0. -1.
        -15    1    1    2    0    0  0.91952185157E+01  0.24272964523E+02 -0.34412050098E+02  0.43140187427E+02  0.17770000000E+01 0.  1.
         15    1    1    2    0    0  0.69664776740E+01 -0.82229136284E+01  0.17550390073E+01  0.11062821098E+02  0.17770000000E+01 0. -1.
</event>
<event>
 6    1  0.3836009E-003  0.5012158E+03  0.7546771E-02  0.9397093E-01
        -11   -1    0    0    0    0  0.00000000000E+00  0.00000000000E+00  0.50000000000E+03  0.50000000000E+03  0.00000000000E+00 0. -1.
         11   -1    0    0    0    0 -0.00000000000E+00 -0.00000000000E+00 -0.50000000000E+03  0.50000000000E+03  0.00000000000E+00 0. -1.
        -11    1    1    2    0    0 -0.27622466021E+01 -0.21529653008E+02  0.49831164799E+03  0.49878417626E+03  0.00000000000E+00 0. -1.
         11    1    1    2    0    0 -0.38199057220E+00  0.10132499834E+02 -0.39515221231E+03  0.39528228440E+03  0.00000000000E+00 0. -1.
        -15    1    1    2    0    0 -0.10801786183E+01 -0.29692746640E+01 -0.61877824160E+02  0.61983919121E+02  0.17770000000E+01 0. -1.
         15    1    1    2    0    0  0.42244157926E+01  0.14366427838E+02 -0.41281611528E+02  0.43949620214E+02  0.17770000000E+01 0. -1.
</event>
<event>
 6    1  0.3836009E-003  0.5066096E+03  0.7546771E-02  0.9385140E-01
        -11   -1    0    0    0    0  0.00000000000E+00  0.00000000000E+00  0.50000000000E+03  0.50000000000E+03  0.00000000000E+00 0.  1.
         11   -1    0    0    0    0 -0.00000000000E+00 -0.00000000000E+00 -0.50000000000E+03  0.50000000000E+03  0.00000000000E+00 0.  1.
        -11    1    1    2    0    0 -0.36721552882E+01 -0.69900781904E+01  0.49332719708E+03  0.49339038225E+03  0.00000000000E+00 0.  1.
         11    1    1    2    0    0 -0.95591062151E+00  0.66656798264E+01 -0.48847312816E+03  0.48851954105E+03  0.00000000000E+00 0.  1.
        -15    1    1    2    0    0  0.58645173067E+01  0.69395743687E+01  0.55580801385E+00  0.92745300262E+01  0.17770000000E+01 0. -1.
         15    1    1    2    0    0 -0.12364513969E+01 -0.66151760047E+01 -0.54098769325E+01  0.88155466680E+01  0.17770000000E+01 0.  1.
</event>
<event>
 6    1  0.3836009E-003  0.5077258E+03  0.7546771E-02  0.9382687E-01
        -11   -1    0    0    0    0  0.00000000000E+00  0.00000000000E+00  0.50000000000E+03  0.50000000000E+03  0.00000000000E+00 0. -1.
         11   -1    0    0    0    0 -0.00000000000E+00 -0.00000000000E+00 -0.50000000000E+03  0.50000000000E+03  0.00000000000E+00 0.  1.
        -11    1    1    2    0    0 -0.48314371541E+01  0.26550787044E+02  0.49153388830E+03  0.49227416185E+03  0.00000000000E+00 0. -1.
         11    1    1    2    0    0  0.12372204110E+02 -0.39845933712E+01 -0.24853404413E+03  0.24887370193E+03  0.00000000000E+00 0.  1.
        -15    1    1    2    0    0 -0.16321685588E+02 -0.86340516563E+01 -0.24150988713E+03  0.24222123685E+03  0.17770000000E+01 0.  1.
         15    1    1    2    0    0  0.87809186325E+01 -0.13932142016E+02 -0.14899570371E+01  0.16630899379E+02  0.17770000000E+01 0. -1.
</event>
<event>
 6    1  0.3836009E-003  0.5020040E+03  0.7546771E-02  0.9395337E-01
        -11   -1    0    0    0    0  0.00000000000E+00  0.00000000000E+00  0.50000000000E+03  0.50000000000E+03  0.00000000000E+00 0. -1.
         11   -1    0    0    0    0 -0.00000000000E+00 -0.00000000000E+00 -0.50000000000E+03  0.50000000000E+03  0.00000000000E+00 0. -1.
        -11    1    1    2    0    0  0.17104138224E+01 -0.73333456225E+01  0.43169318007E+03  0.43175885074E+03  0.00000000000E+00 0. -1.
         11    1    1    2    0    0  0.80595726094E+01 -0.47633990799E+01 -0.49790802111E+03  0.49799602827E+03  0.00000000000E+00 0. -1.
        -15    1    1    2    0    0 -0.12779077568E+02  0.11914944113E+02  0.63299168469E+02  0.65690282192E+02  0.17770000000E+01 0. -1.
         15    1    1    2    0    0  0.30090911364E+01  0.18180058949E+00  0.29156725763E+01  0.45548388000E+01  0.17770000000E+01 0.  1.
</event>
<event>
 6    1  0.3836009E-003  0.5377824E+03  0.7546771E-02  0.9319024E-01
        -11   -1    0    0    0    0  0.00000000000E+00  0.00000000000E+00  0.50000000000E+03  0.50000000000E+03  0.00000000000E+00 0. -1.
         11   -1    0    0    0    0 -0.00000000000E+00 -0.00000000000E+00 -0.50000000000E+03  0.50000000000E+03  0.00000000000E+00 0.  1.
        -11    1    1    2    0    0 -0.10883318922E+02  0.23287561956E+01  0.46208358109E+03  0.46221759557E+03  0.00000000000E+00 0. -1.
         11    1    1    2    0    0 -0.17452304381E+02  0.15051587161E+02 -0.36173546942E+03  0.36246887182E+03  0.00000000000E+00 0.  1.
        -15    1    1    2    0    0  0.18858570966E+02 -0.98666811185E+01  0.34140409617E+02  0.40270614510E+02  0.17770000000E+01 0. -1.
         15    1    1    2    0    0  0.94770523379E+01 -0.75136622382E+01 -0.13448852129E+03  0.13504291810E+03  0.17770000000E+01 0.  1.
</event>
<event>
 6    1  0.3836009E-003  0.5071839E+03  0.7546771E-02  0.9383877E-01
        -11   -1    0    0    0    0  0.00000000000E+00  0.00000000000E+00  0.50000000000E+03  0.50000000000E+03  0.00000000000E+00 0.  1.
         11   -1    0    0    0    0 -0.00000000000E+00 -0.00000000000E+00 -0.50000000000E+03  0.50000000000E+03  0.00000000000E+00 0. -1.
        -11    1    1    2    0    0 -0.15654843099E+02  0.65746020033E+01  0.49252350472E+03  0.49281609369E+03  0.00000000000E+00 0.  1.
         11    1    1    2    0    0 -0.11635392197E+02 -0.22159546722E+02 -0.24033929668E+03  0.24163899807E+03  0.00000000000E+00 0. -1.
        -15    1    1    2    0    0  0.59680432385E+01 -0.19165573877E+02 -0.15647108571E+02  0.25513261214E+02  0.17770000000E+01 0.  1.
         15    1    1    2    0    0  0.21322192058E+02  0.34750518595E+02 -0.23653709947E+03  0.24003164702E+03  0.17770000000E+01 0. -1.
</event>
<event>
 6    1  0.3836009E-003  0.5099610E+03  0.7546771E-02  0.9377793E-01
        -11   -1    0    0    0    0  0.00000000000E+00  0.00000000000E+00  0.50000000000E+03  0.50000000000E+03  0.00000000000E+00 0.  1.
         11   -1    0    0    0    0 -0.00000000000E+00 -0.00000000000E+00 -0.50000000000E+03  0.50000000000E+03  0.00000000000E+00 0. -1.
        -11    1    1    2    0    0 -0.11481639361E+02  0.82258189700E+01  0.48983542461E+03  0.49003901411E+03  0.00000000000E+00 0.  1.
         11    1    1    2    0    0  0.28804216634E+02 -0.25306978344E+01 -0.47081642638E+03  0.47170350293E+03  0.00000000000E+00 0. -1.
        -15    1    1    2    0    0  0.30772808037E+01 -0.91938041728E+01 -0.13586070831E+02  0.16784955822E+02  0.17770000000E+01 0.  1.
         15    1    1    2    0    0 -0.20399858076E+02  0.34986830372E+01 -0.54329273999E+01  0.21472527137E+02  0.17770000000E+01 0. -1.
</event>
<event>
 6    1  0.3836009E-003  0.5052323E+03  0.7546771E-02  0.9388178E-01
        -11   -1    0    0    0    0  0.00000000000E+00  0.00000000000E+00  0.50000000000E+03  0.50000000000E+03  0.00000000000E+00 0.  1.
         11   -1    0    0    0    0 -0.00000000000E+00 -0.00000000000E+00 -0.50000000000E+03  0.50000000000E+03  0.00000000000E+00 0. -1.
        -11    1    1    2    0    0  0.11809507838E+02 -0.86239765611E+01  0.49455158418E+03  0.49476773022E+03  0.00000000000E+00 0.  1.
         11    1    1    2    0    0 -0.19467886137E+02  0.31041227831E+01 -0.40916416740E+03  0.40963880438E+03  0.00000000000E+00 0. -1.
        -15    1    1    2    0    0  0.21077443989E+02 -0.35496288942E+00 -0.73970916667E+02  0.76936590029E+02  0.17770000000E+01 0.  1.
         15    1    1    2    0    0 -0.13419065690E+02  0.58748166674E+01 -0.11416500109E+02  0.18656875371E+02  0.17770000000E+01 0. -1.
</event>
<event>
 6    1  0.3836009E-003  0.5016752E+03  0.7546771E-02  0.9396069E-01
        -11   -1    0    0    0    0  0.00000000000E+00  0.00000000000E+00  0.50000000000E+03  0.50000000000E+03  0.00000000000E+00 0.  1.
         11   -1    0    0    0    0 -0.00000000000E+00 -0.00000000000E+00 -0.50000000000E+03  0.50000000000E+03  0.00000000000E+00 0.  1.
        -11    1    1    2    0    0  0.15257554219E+01  0.93805014732E+01  0.41211577611E+03  0.41222534451E+03  0.00000000000E+00 0.  1.
         11    1    1    2    0    0  0.31183564866E+01  0.74912512667E+01 -0.49825874994E+03  0.49832481865E+03  0.00000000000E+00 0.  1.
        -15    1    1    2    0    0 -0.74392478829E+01 -0.13185803877E+02  0.36432057119E+02  0.39492535344E+02  0.17770000000E+01 0.  1.
         15    1    1    2    0    0  0.27951359743E+01 -0.36859488629E+01  0.49710916703E+02  0.49957301495E+02  0.17770000000E+01 0.  1.
</event>
<event>
 6    1  0.3836009E-003  0.5056380E+03  0.7546771E-02  0.9387282E-01
        -11   -1    0    0    0    0  0.00000000000E+00  0.00000000000E+00  0.50000000000E+03  0.50000000000E+03  0.00000000000E+00 0. -1.
         11   -1    0    0    0    0 -0.00000000000E+00 -0.00000000000E+00 -0.50000000000E+03  0.50000000000E+03  0.00000000000E+00 0. -1.
        -11    1    1    2    0    0 -0.58565994908E+01  0.33261647646E+00  0.39307306543E+03  0.39311683397E+03  0.00000000000E+00 0. -1.
         11    1    1    2    0    0 -0.18840204703E+01 -0.85225722440E+01 -0.49428494331E+03  0.49436200193E+03  0.00000000000E+00 0. -1.
        -15    1    1    2    0    0 -0.23818209482E+01  0.77500808422E+01 -0.22096209201E+01  0.85893525775E+01  0.17770000000E+01 0. -1.
         15    1    1    2    0    0  0.10122440909E+02  0.43987492530E+00  0.10342149881E+03  0.10393181151E+03  0.17770000000E+01 0.  1.
</event>
<event>
 6    1  0.3836009E-003  0.5088524E+03  0.7546771E-02  0.9380217E-01
        -11   -1    0    0    0    0  0.00000000000E+00  0.00000000000E+00  0.50000000000E+03  0.50000000000E+03  0.00000000000E+00 0.  1.
         11   -1    0    0    0    0 -0.00000000000E+00 -0.00000000000E+00 -0.50000000000E+03  0.50000000000E+03  0.00000000000E+00 0.  1.
        -11    1    1    2    0    0  0.19242594581E+02 -0.98412809980E+01  0.49067180032E+03  0.49114757852E+03  0.00000000000E+00 0.  1.
         11    1    1    2    0    0  0.89165734820E+01  0.12498961744E+01 -0.41016231896E+03  0.41026113076E+03  0.00000000000E+00 0.  1.
        -15    1    1    2    0    0 -0.35184681687E+01  0.64098046146E+01 -0.71968734825E+02  0.72361051228E+02  0.17770000000E+01 0.  1.
         15    1    1    2    0    0 -0.24640699894E+02  0.21815802090E+01 -0.85407465349E+01  0.26230239493E+02  0.17770000000E+01 0. -1.
</event>
<event>
 6    1  0.3836009E-003  0.5164706E+03  0.7546771E-02  0.9363691E-01
        -11   -1    0    0    0    0  0.00000000000E+00  0.00000000000E+00  0.50000000000E+03  0.50000000000E+03  0.00000000000E+00 0. -1.
         11   -1    0    0    0    0 -0.00000000000E+00 -0.00000000000E+00 -0.50000000000E+03  0.50000000000E+03  0.00000000000E+00 0. -1.
        -11    1    1    2    0    0  0.32451917502E+01 -0.15532129936E+02  0.48326899523E+03  0.48352942008E+03  0.00000000000E+00 0. -1.
         11    1    1    2    0    0 -0.76147804415E+01 -0.27766428045E+01 -0.43986258314E+03  0.43993725310E+03  0.00000000000E+00 0. -1.
        -15    1    1    2    0    0 -0.94630452593E+00  0.25509746777E+02 -0.55656968066E+02  0.61257640309E+02  0.17770000000E+01 0. -1.
         15    1    1    2    0    0  0.53158932173E+01 -0.72009740364E+01  0.12250555972E+02  0.15275686512E+02  0.17770000000E+01 0.  1.
</event>
<event>
 6    1  0.3836009E-003  0.5156083E+03  0.7546771E-02  0.9365547E-01
        -11   -1    0    0    0    0  0.00000000000E+00  0.00000000000E+00  0.50000000000E+03  0.50000000000E+03  0.00000000000E+00 0.  1.
         11   -1    0    0    0    0 -0.00000000000E+00 -0.00000000000E+00 -0.50000000000E+03  0.50000000000E+03  0.00000000000E+00 0. -1.
        -11    1    1    2    0    0  0.11412425880E+02  0.46906859792E+01  0.48423451886E+03  0.48439169611E+03  0.00000000000E+00 0.  1.
         11    1    1    2    0    0  0.40617376535E+01 -0.10077531344E+02 -0.31260652129E+03  0.31279528690E+03  0.00000000000E+00 0. -1.
        -15    1    1    2    0    0 -0.14047663444E+02 -0.20522077753E+02 -0.17483790713E+03  0.17660674965E+03  0.17770000000E+01 0.  1.
         15    1    1    2    0    0 -0.14265000894E+01  0.25908923118E+02  0.32099095627E+01  0.26206267343E+02  0.17770000000E+01 0. -1.
</event>
<event>
 6    1  0.3836009E-003  0.5432707E+03  0.7546771E-02  0.9307875E-01
        -11   -1    0    0    0    0  0.00000000000E+00  0.00000000000E+00  0.50000000000E+03  0.50000000000E+03  0.00000000000E+00 0.  1.
         11   -1    0    0    0    0 -0.00000000000E+00 -0.00000000000E+00 -0.50000000000E+03  0.50000000000E+03  0.00000000000E+00 0. -1.
        -11    1    1    2    0    0 -0.59921536189E+01  0.60216866673E+00  0.30207437586E+03  0.30213440231E+03  0.00000000000E+00 0.  1.
         11    1    1    2    0    0 -0.13285663935E+01 -0.61028069794E+01 -0.45668656865E+03  0.45672927575E+03  0.00000000000E+00 0. -1.
        -15    1    1    2    0    0  0.33700539192E+02  0.15057507808E+02 -0.34134808403E+02  0.50307034865E+02  0.17770000000E+01 0. -1.
         15    1    1    2    0    0 -0.26379819179E+02 -0.95568694957E+01  0.18874700120E+03  0.19082928707E+03  0.17770000000E+01 0.  1.
</event>
<event>
 6    1  0.3836009E-003  0.5022494E+03  0.7546771E-02  0.9394791E-01
        -11   -1    0    0    0    0  0.00000000000E+00  0.00000000000E+00  0.50000000000E+03  0.50000000000E+03  0.00000000000E+00 0. -1.
         11   -1    0    0    0    0 -0.00000000000E+00 -0.00000000000E+00 -0.50000000000E+03  0.50000000000E+03  0.00000000000E+00 0.  1.
        -11    1    1    2    0    0 -0.10991260964E+02 -0.25032290564E+01  0.49762296807E+03  0.49775063267E+03  0.00000000000E+00 0. -1.
         11    1    1    2    0    0 -0.29718097147E+01  0.79485278818E+01 -0.16181251207E+03  0.16203487220E+03  0.00000000000E+00 0.  1.
        -15    1    1    2    0    0  0.49428672772E+01 -0.83012219953E+00 -0.32585708132E+03  0.32590046980E+03  0.17770000000E+01 0.  1.
         15    1    1    2    0    0  0.90202034012E+01 -0.46151766259E+01 -0.99533746777E+01  0.14314025330E+02  0.17770000000E+01 0. -1.
</event>
<event>
 6    1  0.3836009E-003  0.5059134E+03  0.7546771E-02  0.9386674E-01
        -11   -1    0    0    0    0  0.00000000000E+00  0.00000000000E+00  0.50000000000E+03  0.50000000000E+03  0.00000000000E+00 0.  1.
         11   -1    0    0    0    0 -0.00000000000E+00 -0.00000000000E+00 -0.50000000000E+03  0.50000000000E+03  0.00000000000E+00 0. -1.
        -11    1    1    2    0    0 -0.16710108443E+01 -0.10559235831E+02  0.49397094315E+03  0.49408661428E+03  0.00000000000E+00 0.  1.
         11    1    1    2    0    0  0.53833555138E+01 -0.40686406335E+01 -0.33948353784E+03  0.33955059538E+03  0.00000000000E+00 0. -1.
        -15    1    1    2    0    0  0.18223354435E+01 -0.60029969958E+01  0.31734698614E+01  0.72515873684E+01  0.17770000000E+01 0.  1.
         15    1    1    2    0    0 -0.55346801131E+01  0.20630873460E+02 -0.15766087517E+03  0.15911120297E+03  0.17770000000E+01 0. -1.
</event>
<event>
 6    1  0.3836009E-003  0.5673430E+03  0.7546771E-02  0.9260576E-01
        -11   -1    0    0    0    0  0.00000000000E+00  0.00000000000E+00  0.50000000000E+03  0.50000000000E+03  0.00000000000E+00 0. -1.
         11   -1    0    0    0    0 -0.00000000000E+00 -0.00000000000E+00 -0.50000000000E+03  0.50000000000E+03  0.00000000000E+00 0.  1.
        -11    1    1    2    0    0  0.34531083757E+02 -0.36476834876E+02  0.28848344055E+03  0.29282358289E+03  0.00000000000E+00 0. -1.
         11    1    1    2    0    0  0.76695395295E+01  0.16174318102E+02 -0.43228650150E+03  0.43265696548E+03  0.00000000000E+00 0.  1.
        -15    1    1    2    0    0 -0.11145172418E+03  0.83683561640E+02  0.76505974818E+02  0.15899920511E+03  0.17770000000E+01 0. -1.
         15    1    1    2    0    0  0.69251100897E+02 -0.63381044867E+02  0.67297086134E+02  0.11552024652E+03  0.17770000000E+01 0.  1.
</event>
<event>
 6    1  0.3836009E-003  0.5086032E+03  0.7546771E-02  0.9380763E-01
        -11   -1    0    0    0    0  0.00000000000E+00  0.00000000000E+00  0.50000000000E+03  0.50000000000E+03  0.00000000000E+00 0. -1.
         11   -1    0    0    0    0 -0.00000000000E+00 -0.00000000000E+00 -0.50000000000E+03  0.50000000000E+03  0.00000000000E+00 0. -1.
        -11    1    1    2    0    0 -0.97446306703E+01  0.24481603285E+01  0.45310755594E+03  0.45321894109E+03  0.00000000000E+00 0. -1.
         11    1    1    2    0    0 -0.66029549284E+01  0.11906856914E+02 -0.49120814122E+03  0.49139679512E+03  0.00000000000E+00 0. -1.
        -15    1    1    2    0    0  0.84313528859E+01 -0.12461558807E+02 -0.12117532511E+01  0.15198823452E+02  0.17770000000E+01 0. -1.
         15    1    1    2    0    0  0.79162327127E+01 -0.18934584360E+01  0.39312338528E+02  0.40185440333E+02  0.17770000000E+01 0.  1.
</event>
<event>
 6    1  0.3836009E-003  0.5027627E+03  0.7546771E-02  0.9393649E-01
        -11   -1    0    0    0    0  0.00000000000E+00  0.00000000000E+00  0.50000000000E+03  0.50000000000E+03  0.00000000000E+00 0.  1.
         11   -1    0    0    0    0 -0.00000000000E+00 -0.00000000000E+00 -0.50000000000E+03  0.50000000000E+03  0.00000000000E+00 0.  1.
        -11    1    1    2    0    0  0.15729585078E+02  0.18077585424E+02  0.49665957448E+03  0.49723731946E+03  0.00000000000E+00 0.  1.
         11    1    1    2    0    0 -0.17164089950E+02  0.14533736986E+02 -0.22408974071E+03  0.22521555761E+03  0.00000000000E+00 0.  1.
        -15    1    1    2    0    0  0.49552694793E+00 -0.26565443258E+02 -0.26885796142E+03  0.27017351734E+03  0.17770000000E+01 0.  1.
         15    1    1    2    0    0  0.93897792365E+00 -0.60458791513E+01 -0.37118723386E+01  0.73736055977E+01  0.17770000000E+01 0. -1.
</event>
<event>
 6    1  0.3836009E-003  0.4806318E+03  0.7546771E-02  0.9444222E-01
        -11   -1    0    0    0    0  0.00000000000E+00  0.00000000000E+00  0.50000000000E+03  0.50000000000E+03  0.00000000000E+00 0. -1.
         11   -1    0    0    0    0 -0.00000000000E+00 -0.00000000000E+00 -0.50000000000E+03  0.50000000000E+03  0.00000000000E+00 0. -1.
        -11    1    1    2    0    0 -0.70157645559E+01  0.92630743461E+01  0.48150788914E+03  0.48164807983E+03  0.00000000000E+00 0. -1.
         11    1    1    2    0    0 -0.14617668815E+01  0.80668738300E+01 -0.47974058966E+03  0.47981063408E+03  0.00000000000E+00 0. -1.
        -15    1    1    2    0    0  0.20664582429E+02 -0.87195297275E+01 -0.52765504658E+01  0.23109627419E+02  0.17770000000E+01 0. -1.
         15    1    1    2    0    0 -0.12187050991E+02 -0.86104184486E+01  0.35092509799E+01  0.15431658665E+02  0.17770000000E+01 0.  1.
</event>
<event>
 6    1  0.3836009E-003  0.5008933E+03  0.7546771E-02  0.9397813E-01
        -11   -1    0    0    0    0  0.00000000000E+00  0.00000000000E+00  0.50000000000E+03  0.50000000000E+03  0.00000000000E+00 0. -1.
         11   -1    0    0    0    0 -0.00000000000E+00 -0.00000000000E+00 -0.50000000000E+03  0.50000000000E+03  0.00000000000E+00 0.  1.
        -11    1    1    2    0    0  0.19066632095E+01  0.64845444768E+01  0.49906090816E+03  0.49910667671E+03  0.00000000000E+00 0. -1.
         11    1    1    2    0    0  0.74076016642E+01  0.13878186480E+01 -0.27200386820E+03  0.27210825588E+03  0.00000000000E+00 0.  1.
        -15    1    1    2    0    0 -0.36836093457E+01  0.29521202981E+01 -0.18204276839E+03  0.18211263340E+03  0.17770000000E+01 0. -1.
         15    1    1    2    0    0 -0.56306555280E+01 -0.10824483423E+02 -0.45014271571E+02  0.46672434018E+02  0.17770000000E+01 0.  1.
</event>
<event>
 6    1  0.3836009E-003  0.2859807E+03  0.7546771E-02  0.1007029E+00
        -11   -1    0    0    0    0  0.00000000000E+00  0.00000000000E+00  0.50000000000E+03  0.50000000000E+03  0.00000000000E+00 0. -1.
         11   -1    0    0    0    0 -0.00000000000E+00 -0.00000000000E+00 -0.50000000000E+03  0.50000000000E+03  0.00000000000E+00 0.  1.
        -11    1    1    2    0    0 -0.30839355835E+02 -0.53369008996E+01  0.19259948083E+03  0.19512587834E+03  0.00000000000E+00 0. -1.
         11    1    1    2    0    0  0.48758800022E+02 -0.30505632580E+02 -0.27590355819E+03  0.28183468136E+03  0.00000000000E+00 0.  1.
        -15    1    1    2    0    0 -0.67333683727E+02  0.27400674943E+02 -0.21167947692E+03  0.22382131407E+03  0.17770000000E+01 0.  1.
         15    1    1    2    0    0  0.49414239540E+02  0.84418585362E+01  0.29498355428E+03  0.29921812624E+03  0.17770000000E+01 0. -1.
</event>
<event>
 6    1  0.3836009E-003  0.5010338E+03  0.7546771E-02  0.9397500E-01
        -11   -1    0    0    0    0  0.00000000000E+00  0.00000000000E+00  0.50000000000E+03  0.50000000000E+03  0.00000000000E+00 0. -1.
         11   -1    0    0    0    0 -0.00000000000E+00 -0.00000000000E+00 -0.50000000000E+03  0.50000000000E+03  0.00000000000E+00 0.  1.
        -11    1    1    2    0    0 -0.31921311011E+01 -0.34895162910E+01  0.27801745354E+03  0.27805767549E+03  0.00000000000E+00 0. -1.
         11    1    1    2    0    0  0.89046201114E+00  0.88084365300E+01 -0.49888769777E+03  0.49896624782E+03  0.00000000000E+00 0.  1.
        -15    1    1    2    0    0  0.20358455836E+01  0.85782283557E+01  0.24366708111E+02  0.25973541578E+02  0.17770000000E+01 0. -1.
         15    1    1    2    0    0  0.26582350642E+00 -0.13897148595E+02  0.19650353612E+03  0.19700253511E+03  0.17770000000E+01 0.  1.
</event>
<event>
 6    1  0.3836009E-003  0.5025213E+03  0.7546771E-02  0.9394186E-01
        -11   -1    0    0    0    0  0.00000000000E+00  0.00000000000E+00  0.50000000000E+03  0.50000000000E+03  0.00000000000E+00 0. -1.
         11   -1    0    0    0    0 -0.00000000000E+00 -0.00000000000E+00 -0.50000000000E+03  0.50000000000E+03  0.00000000000E+00 0.  1.
        -11    1    1    2    0    0  0.14873573831E+01 -0.79913791783E+01  0.49741232960E+03  0.49747874328E+03  0.00000000000E+00 0. -1.
         11    1    1    2    0    0  0.34766440291E+01  0.68678786931E+01 -0.47766415193E+03  0.47772617350E+03  0.00000000000E+00 0.  1.
        -15    1    1    2    0    0 -0.60178414192E+01 -0.49586187582E+01 -0.74964898011E+01  0.10961633258E+02  0.17770000000E+01 0.  1.
         15    1    1    2    0    0  0.10538400070E+01  0.60821192434E+01 -0.12251687868E+02  0.13833449962E+02  0.17770000000E+01 0. -1.
</event>
<event>
 6    1  0.3836009E-003  0.5080676E+03  0.7546771E-02  0.9381937E-01
        -11   -1    0    0    0    0  0.00000000000E+00  0.00000000000E+00  0.50000000000E+03  0.50000000000E+03  0.00000000000E+00 0.  1.
         11   -1    0    0    0    0 -0.00000000000E+00 -0.00000000000E+00 -0.50000000000E+03  0.50000000000E+03  0.00000000000E+00 0.  1.
        -11    1    1    2    0    0  0.15446729839E+02 -0.53888651643E+01  0.41662105389E+03  0.41694213492E+03  0.00000000000E+00 0.  1.
         11    1    1    2    0    0 -0.22145809871E+02 -0.53349574909E+01 -0.49140467191E+03  0.49193236348E+03  0.00000000000E+00 0.  1.
        -15    1    1    2    0    0  0.16154367066E+02  0.86842871415E+01  0.29974116656E+01  0.18668760649E+02  0.17770000000E+01 0.  1.
         15    1    1    2    0    0 -0.94552870342E+01  0.20395355137E+01  0.71786206349E+02  0.72456740949E+02  0.17770000000E+01 0. -1.
</event>
<event>
 6    1  0.3836009E-003  0.5006863E+03  0.7546771E-02  0.9398275E-01
        -11   -1    0    0    0    0  0.00000000000E+00  0.00000000000E+00  0.50000000000E+03  0.50000000000E+03  0.00000000000E+00 0.  1.
         11   -1    0    0    0    0 -0.00000000000E+00 -0.00000000000E+00 -0.50000000000E+03  0.50000000000E+03  0.00000000000E+00 0. -1.
        -11    1    1    2    0    0  0.51012705808E+01  0.16766389359E+02  0.49900604335E+03  0.49931369506E+03  0.00000000000E+00 0.  1.
         11    1    1    2    0    0 -0.41513039459E+01  0.30043918674E+01 -0.27222980161E+03  0.27227802809E+03  0.00000000000E+00 0. -1.
        -15    1    1    2    0    0  0.99993970493E+00 -0.75692058246E+01 -0.17397017345E+03  0.17414669602E+03  0.17770000000E+01 0.  1.
         15    1    1    2    0    0 -0.19499063398E+01 -0.12201575402E+02 -0.52806068288E+02  0.54261580829E+02  0.17770000000E+01 0. -1.
</event>
<event>
 6    1  0.3836009E-003  0.5147682E+03  0.7546771E-02  0.9367358E-01
        -11   -1    0    0    0    0  0.00000000000E+00  0.00000000000E+00  0.50000000000E+03  0.50000000000E+03  0.00000000000E+00 0.  1.
         11   -1    0    0    0    0 -0.00000000000E+00 -0.00000000000E+00 -0.50000000000E+03  0.50000000000E+03  0.00000000000E+00 0. -1.
        -11    1    1    2    0    0  0.80490777535E+01  0.89206389183E+01  0.29666496539E+03  0.29690817965E+03  0.00000000000E+00 0.  1.
         11    1    1    2    0    0  0.87827114581E+01  0.10386986091E+02 -0.48504105770E+03  0.48523175201E+03  0.00000000000E+00 0. -1.
        -15    1    1    2    0    0 -0.62148495418E+02 -0.13434714204E+02  0.10491008531E+03  0.12268745150E+03  0.17770000000E+01 0. -1.
         15    1    1    2    0    0  0.45316706206E+02 -0.58729108046E+01  0.83466007006E+02  0.95172616845E+02  0.17770000000E+01 0.  1.
</event>
<event>
 6    1  0.3836009E-003  0.5132366E+03  0.7546771E-02  0.9370669E-01
        -11   -1    0    0    0    0  0.00000000000E+00  0.00000000000E+00  0.50000000000E+03  0.50000000000E+03  0.00000000000E+00 0. -1.
         11   -1    0    0    0    0 -0.00000000000E+00 -0.00000000000E+00 -0.50000000000E+03  0.50000000000E+03  0.00000000000E+00 0. -1.
        -11    1    1    2    0    0 -0.46922964900E+00  0.78193939198E+01  0.45965757232E+03  0.45972431618E+03  0.00000000000E+00 0. -1.
         11    1    1    2    0    0  0.50721410289E+01  0.85879556140E+01 -0.48666123856E+03  0.48676343403E+03  0.00000000000E+00 0. -1.
        -15    1    1    2    0    0  0.32886090086E+00 -0.13650548308E+02  0.38331373381E+02  0.40729565832E+02  0.17770000000E+01 0.  1.
         15    1    1    2    0    0 -0.49317722807E+01 -0.27568012255E+01 -0.11327707148E+02  0.12782683954E+02  0.17770000000E+01 0. -1.
</event>
<event>
 6    1  0.3836009E-003  0.5099253E+03  0.7546771E-02  0.9377871E-01
        -11   -1    0    0    0    0  0.00000000000E+00  0.00000000000E+00  0.50000000000E+03  0.50000000000E+03  0.00000000000E+00 0.  1.
         11   -1    0    0    0    0 -0.00000000000E+00 -0.00000000000E+00 -0.50000000000E+03  0.50000000000E+03  0.00000000000E+00 0. -1.
        -11    1    1    2    0    0  0.20188210056E+02 -0.22788606631E+01  0.29374302269E+03  0.29444476631E+03  0.00000000000E+00 0.  1.
         11    1    1    2    0    0 -0.40004744970E+02 -0.41362857481E+02 -0.48668464836E+03  0.49007470098E+03  0.00000000000E+00 0. -1.
        -15    1    1    2    0    0  0.31316027100E+02 -0.20535933747E+01  0.22552185430E+02  0.38686814236E+02  0.17770000000E+01 0.  1.
         15    1    1    2    0    0 -0.11499492186E+02  0.45695311519E+02  0.17038944024E+03  0.17679371847E+03  0.17770000000E+01 0. -1.
</event>
<event>
 6    1  0.3836009E-003  0.5010118E+03  0.7546771E-02  0.9397549E-01
        -11   -1    0    0    0    0  0.00000000000E+00  0.00000000000E+00  0.50000000000E+03  0.50000000000E+03  0.00000000000E+00 0.  1.
         11   -1    0    0    0    0 -0.00000000000E+00 -0.00000000000E+00 -0.50000000000E+03  0.50000000000E+03  0.00000000000E+00 0.  1.
        -11    1    1    2    0    0  0.77859942780E+01  0.71144413903E+00  0.49892696864E+03  0.49898822420E+03  0.00000000000E+00 0.  1.
         11    1    1    2    0    0  0.59331896547E+01 -0.55321913687E+01 -0.38854487889E+03  0.38862955471E+03  0.00000000000E+00 0.  1.
        -15    1    1    2    0    0 -0.11081998261E+02  0.20347768996E+01 -0.33590967458E+02  0.35474805514E+02  0.17770000000E+01 0.  1.
         15    1    1    2    0    0 -0.26371856715E+01  0.27859703301E+01 -0.76791122292E+02  0.76907415577E+02  0.17770000000E+01 0. -1.
</event>
<event>
 6    1  0.3836009E-003  0.5014571E+03  0.7546771E-02  0.9396555E-01
        -11   -1    0    0    0    0  0.00000000000E+00  0.00000000000E+00  0.50000000000E+03  0.50000000000E+03  0.00000000000E+00 0.  1.
         11   -1    0    0    0    0 -0.00000000000E+00 -0.00000000000E+00 -0.50000000000E+03  0.50000000000E+03  0.00000000000E+00 0. -1.
        -11    1    1    2    0    0  0.78561023005E+01 -0.63084263512E+01  0.49844108403E+03  0.49854290571E+03  0.00000000000E+00 0.  1.
         11    1    1    2    0    0 -0.10607596768E+02  0.22765848909E+00 -0.42153179481E+03  0.42166530207E+03  0.00000000000E+00 0. -1.
        -15    1    1    2    0    0 -0.24727289348E+01  0.12444642586E+02 -0.48000928150E+02  0.49681287722E+02  0.17770000000E+01 0. -1.
         15    1    1    2    0    0  0.52242234019E+01 -0.63638747235E+01 -0.28908361076E+02  0.30110504492E+02  0.17770000000E+01 0.  1.
</event>
<event>
 6    1  0.3836009E-003  0.5019456E+03  0.7546771E-02  0.9395467E-01
        -11   -1    0    0    0    0  0.00000000000E+00  0.00000000000E+00  0.50000000000E+03  0.50000000000E+03  0.00000000000E+00 0.  1.
         11   -1    0    0    0    0 -0.00000000000E+00 -0.00000000000E+00 -0.50000000000E+03  0.50000000000E+03  0.00000000000E+00 0. -1.
        -11    1    1    2    0    0 -0.27043589167E+01 -0.11430784500E+02  0.49791584876E+03  0.49805438342E+03  0.00000000000E+00 0.  1.
         11    1    1    2    0    0  0.87640890596E+00 -0.17352867359E+01 -0.11132895433E+03  0.11134592667E+03  0.00000000000E+00 0. -1.
        -15    1    1    2    0    0  0.15190571686E+02 -0.70699514349E+01 -0.43452495673E+02  0.46604879472E+02  0.17770000000E+01 0.  1.
         15    1    1    2    0    0 -0.13362621675E+02  0.20236022671E+02 -0.34313439876E+03  0.34399481044E+03  0.17770000000E+01 0. -1.
</event>
<event>
 6    1  0.3836009E-003  0.5288557E+03  0.7546771E-02  0.9337461E-01
        -11   -1    0    0    0    0  0.00000000000E+00  0.00000000000E+00  0.50000000000E+03  0.50000000000E+03  0.00000000000E+00 0. -1.
         11   -1    0    0    0    0 -0.00000000000E+00 -0.00000000000E+00 -0.50000000000E+03  0.50000000000E+03  0.00000000000E+00 0. -1.
        -11    1    1    2    0    0  0.28173377831E+02  0.29321481689E+02  0.31141369206E+03  0.31405728158E+03  0.00000000000E+00 0. -1.
         11    1    1    2    0    0 -0.32045018137E+02  0.62031011376E+02 -0.46594232807E+03  0.47114433314E+03  0.00000000000E+00 0. -1.
        -15    1    1    2    0    0  0.11327174818E+02 -0.20745126845E+02  0.14039725477E+03  0.14238403019E+03  0.17770000000E+01 0. -1.
         15    1    1    2    0    0 -0.74555345117E+01 -0.70607366220E+02  0.14131381235E+02  0.72414355096E+02  0.17770000000E+01 0.  1.
</event>
<event>
 6    1  0.3836009E-003  0.5008692E+03  0.7546771E-02  0.9397867E-01
        -11   -1    0    0    0    0  0.00000000000E+00  0.00000000000E+00  0.50000000000E+03  0.50000000000E+03  0.00000000000E+00 0. -1.
         11   -1    0    0    0    0 -0.00000000000E+00 -0.00000000000E+00 -0.50000000000E+03  0.50000000000E+03  0.00000000000E+00 0. -1.
        -11    1    1    2    0    0  0.97744201147E+01  0.11226395512E+02  0.49890874467E+03  0.49913075116E+03  0.00000000000E+00 0. -1.
         11    1    1    2    0    0 -0.48991895680E+01  0.17005314941E+00 -0.34261301417E+03  0.34264808252E+03  0.00000000000E+00 0. -1.
        -15    1    1    2    0    0 -0.21885268695E+01 -0.11633490897E+02 -0.37133176709E+02  0.39014847197E+02  0.17770000000E+01 0. -1.
         15    1    1    2    0    0 -0.26867036772E+01  0.23704223478E+00 -0.11916255379E+03  0.11920631913E+03  0.17770000000E+01 0. -1.
</event>
<event>
 6    1  0.3836009E-003  0.5033161E+03  0.7546771E-02  0.9392420E-01
        -11   -1    0    0    0    0  0.00000000000E+00  0.00000000000E+00  0.50000000000E+03  0.50000000000E+03  0.00000000000E+00 0. -1.
         11   -1    0    0    0    0 -0.00000000000E+00 -0.00000000000E+00 -0.50000000000E+03  0.50000000000E+03  0.00000000000E+00 0. -1.
        -11    1    1    2    0    0 -0.91130934176E+00  0.96079765486E+01  0.49659014437E+03  0.49668391879E+03  0.00000000000E+00 0. -1.
         11    1    1    2    0    0  0.82983225598E+01 -0.71747347635E+01 -0.21954367660E+03  0.21981757189E+03  0.00000000000E+00 0. -1.
        -15    1    1    2    0    0 -0.15988456821E+02 -0.11797656525E+02 -0.26544780767E+03  0.26619637822E+03  0.17770000000E+01 0. -1.
         15    1    1    2    0    0  0.86014436028E+01  0.93644147401E+01 -0.11598660102E+02  0.17302131101E+02  0.17770000000E+01 0.  1.
</event>
<event>
 6    1  0.3836009E-003  0.5019196E+03  0.7546771E-02  0.9395525E-01
        -11   -1    0    0    0    0  0.00000000000E+00  0.00000000000E+00  0.50000000000E+03  0.50000000000E+03  0.00000000000E+00 0. -1.
         11   -1    0    0    0    0 -0.00000000000E+00 -0.00000000000E+00 -0.50000000000E+03  0.50000000000E+03  0.00000000000E+00 0.  1.
        -11    1    1    2    0    0 -0.96837078362E+01  0.16500856726E+02  0.49771276550E+03  0.49808036442E+03  0.00000000000E+00 0. -1.
         11    1    1    2    0    0  0.11700356361E+01 -0.38371230015E+01 -0.26721482350E+03  0.26724493333E+03  0.00000000000E+00 0.  1.
        -15    1    1    2    0    0  0.10291397460E+02 -0.13902449832E+02 -0.34290019369E+02  0.38446770090E+02  0.17770000000E+01 0. -1.
         15    1    1    2    0    0 -0.17777252601E+01  0.12387161074E+01 -0.19620792264E+03  0.19622793216E+03  0.17770000000E+01 0.  1.
</event>
<event>
 6    1  0.3836009E-003  0.5011296E+03  0.7546771E-02  0.9397286E-01
        -11   -1    0    0    0    0  0.00000000000E+00  0.00000000000E+00  0.50000000000E+03  0.50000000000E+03  0.00000000000E+00 0.  1.
         11   -1    0    0    0    0 -0.00000000000E+00 -0.00000000000E+00 -0.50000000000E+03  0.50000000000E+03  0.00000000000E+00 0. -1.
        -11    1    1    2    0    0  0.50607495119E+00  0.67904574513E+01  0.49882397295E+03  0.49887044652E+03  0.00000000000E+00 0.  1.
         11    1    1    2    0    0 -0.26338152652E+01  0.69971059561E+01 -0.34571299522E+03  0.34579382808E+03  0.00000000000E+00 0. -1.
        -15    1    1    2    0    0 -0.29758342713E+01 -0.84318632178E+01 -0.19690780649E+02  0.21698766751E+02  0.17770000000E+01 0. -1.
         15    1    1    2    0    0  0.51035745853E+01 -0.53557001897E+01 -0.13342019708E+03  0.13363695865E+03  0.17770000000E+01 0. -1.
</event>
<event>
 6    1  0.3836009E-003  0.5023133E+03  0.7546771E-02  0.9394648E-01
        -11   -1    0    0    0    0  0.00000000000E+00  0.00000000000E+00  0.50000000000E+03  0.50000000000E+03  0.00000000000E+00 0. -1.
         11   -1    0    0    0    0 -0.00000000000E+00 -0.00000000000E+00 -0.50000000000E+03  0.50000000000E+03  0.00000000000E+00 0.  1.
        -11    1    1    2    0    0  0.13800382407E+01 -0.13697079685E+02  0.32198153889E+03  0.32227569856E+03  0.00000000000E+00 0. -1.
         11    1    1    2    0    0 -0.80185356863E+01  0.97984912097E+01 -0.49752563652E+03  0.49768671506E+03  0.00000000000E+00 0.  1.
        -15    1    1    2    0    0  0.60710714759E+01  0.86305271097E+01  0.17452177928E+03  0.17484951552E+03  0.17770000000E+01 0. -1.
         15    1    1    2    0    0  0.56742596972E+00 -0.47319386343E+01  0.10223183615E+01  0.51880708651E+01  0.17770000000E+01 0.  1.
</event>
<event>
 6    1  0.3836009E-003  0.5319104E+03  0.7546771E-02  0.9331109E-01
        -11   -1    0    0    0    0  0.00000000000E+00  0.00000000000E+00  0.50000000000E+03  0.50000000000E+03  0.00000000000E+00 0. -1.
         11   -1    0    0    0    0 -0.00000000000E+00 -0.00000000000E+00 -0.50000000000E+03  0.50000000000E+03  0.00000000000E+00 0.  1.
        -11    1    1    2    0    0 -0.32527223994E+01  0.54064762505E+01  0.45673575812E+03  0.45677933725E+03  0.00000000000E+00 0. -1.
         11    1    1    2    0    0 -0.38848657025E+01 -0.10530913562E+02 -0.46795498519E+03  0.46808958596E+03  0.00000000000E+00 0.  1.
        -15    1    1    2    0    0  0.29877293050E+02  0.71642818636E+01 -0.19784973609E+02  0.36586643524E+02  0.17770000000E+01 0.  1.
         15    1    1    2    0    0 -0.22739704949E+02 -0.20398445523E+01  0.31004200678E+02  0.38544433264E+02  0.17770000000E+01 0. -1.
</event>
<event>
 6    1  0.3836009E-003  0.5047494E+03  0.7546771E-02  0.9389245E-01
        -11   -1    0    0    0    0  0.00000000000E+00  0.00000000000E+00  0.50000000000E+03  0.50000000000E+03  0.00000000000E+00 0.  1.
         11   -1    0    0    0    0 -0.00000000000E+00 -0.00000000000E+00 -0.50000000000E+03  0.50000000000E+03  0.00000000000E+00 0.  1.
        -11    1    1    2    0    0 -0.10240869484E+02 -0.22835371301E+01  0.45564846489E+03  0.45576925468E+03  0.00000000000E+00 0.  1.
         11    1    1    2    0    0  0.50767782387E+01  0.14231674046E+02 -0.49502006555E+03  0.49525062294E+03  0.00000000000E+00 0.  1.
        -15    1    1    2    0    0 -0.37686205279E+00 -0.11509909500E+02  0.28507643292E+01  0.11996025507E+02  0.17770000000E+01 0. -1.
         15    1    1    2    0    0  0.55409532983E+01 -0.43822741542E+00  0.36520836327E+02  0.36984096876E+02  0.17770000000E+01 0.  1.
</event>
<event>
 6    1  0.3836009E-003  0.5218616E+03  0.7546771E-02  0.9352179E-01
        -11   -1    0    0    0    0  0.00000000000E+00  0.00000000000E+00  0.50000000000E+03  0.50000000000E+03  0.00000000000E+00 0.  1.
         11   -1    0    0    0    0 -0.00000000000E+00 -0.00000000000E+00 -0.50000000000E+03  0.50000000000E+03  0.00000000000E+00 0.  1.
        -11    1    1    2    0    0 -0.83808642875E+01  0.10310222268E+02  0.44146860084E+03  0.44166850137E+03  0.00000000000E+00 0.  1.
         11    1    1    2    0    0  0.90875660282E+01  0.23262078579E+01 -0.47804637818E+03  0.47813840548E+03  0.00000000000E+00 0.  1.
        -15    1    1    2    0    0 -0.10955288892E+02 -0.11747408716E+02  0.55922732923E+02  0.58211079296E+02  0.17770000000E+01 0. -1.
         15    1    1    2    0    0  0.10248587151E+02 -0.88902140975E+00 -0.19344955586E+02  0.21982013859E+02  0.17770000000E+01 0.  1.
</event>
<event>
 6    1  0.3836009E-003  0.5133979E+03  0.7546771E-02  0.9370320E-01
        -11   -1    0    0    0    0  0.00000000000E+00  0.00000000000E+00  0.50000000000E+03  0.50000000000E+03  0.00000000000E+00 0.  1.
         11   -1    0    0    0    0 -0.00000000000E+00 -0.00000000000E+00 -0.50000000000E+03  0.50000000000E+03  0.00000000000E+00 0.  1.
        -11    1    1    2    0    0  0.18381031842E+02  0.21197351647E+01  0.48625018611E+03  0.48660209525E+03  0.00000000000E+00 0.  1.
         11    1    1    2    0    0  0.76616776237E+01  0.15687248132E+01 -0.46690174481E+03  0.46696723815E+03  0.00000000000E+00 0.  1.
        -15    1    1    2    0    0 -0.29913358745E+02  0.60736598812E+01 -0.97482117667E+01  0.32091801717E+02  0.17770000000E+01 0.  1.
         15    1    1    2    0    0  0.38706492801E+01 -0.97621198591E+01 -0.96002295388E+01  0.14338864885E+02  0.17770000000E+01 0. -1.
</event>
<event>
 6    1  0.3836009E-003  0.5033925E+03  0.7546771E-02  0.9392251E-01
        -11   -1    0    0    0    0  0.00000000000E+00  0.00000000000E+00  0.50000000000E+03  0.50000000000E+03  0.00000000000E+00 0.  1.
         11   -1    0    0    0    0 -0.00000000000E+00 -0.00000000000E+00 -0.50000000000E+03  0.50000000000E+03  0.00000000000E+00 0. -1.
        -11    1    1    2    0    0  0.13196989476E+01 -0.81798497622E+01  0.49653835551E+03  0.49660748085E+03  0.00000000000E+00 0.  1.
         11    1    1    2    0    0  0.61363733001E+00 -0.12888080718E+02 -0.93323307489E+02  0.94211033834E+02  0.00000000000E+00 0. -1.
        -15    1    1    2    0    0 -0.12030371417E+02 -0.97559880183E+01 -0.24266573485E+02  0.28843256687E+02  0.17770000000E+01 0.  1.
         15    1    1    2    0    0  0.10097035139E+02  0.30823918499E+02 -0.37894847454E+03  0.38033822862E+03  0.17770000000E+01 0. -1.
</event>
<event>
 6    1  0.3836009E-003  0.5241186E+03  0.7546771E-02  0.9347403E-01
        -11   -1    0    0    0    0  0.00000000000E+00  0.00000000000E+00  0.50000000000E+03  0.50000000000E+03  0.00000000000E+00 0.  1.
         11   -1    0    0    0    0 -0.00000000000E+00 -0.00000000000E+00 -0.50000000000E+03  0.50000000000E+03  0.00000000000E+00 0. -1.
        -11    1    1    2    0    0  0.18173717017E+02  0.72391028225E+01  0.37518357087E+03  0.37569322652E+03  0.00000000000E+00 0.  1.
         11    1    1    2    0    0 -0.32885426234E+02 -0.14930433382E+02 -0.47450889888E+03  0.47588135519E+03  0.00000000000E+00 0. -1.
        -15    1    1    2    0    0 -0.17480504250E+02 -0.36118215516E+01  0.11090877932E+03  0.11235002600E+03  0.17770000000E+01 0.  1.
         15    1    1    2    0    0  0.32192213468E+02  0.11303152111E+02 -0.11583451310E+02  0.36075392289E+02  0.17770000000E+01 0. -1.
</event>
<event>
 6    1  0.3836009E-003  0.5006206E+03  0.7546771E-02  0.9398422E-01
        -11   -1    0    0    0    0  0.00000000000E+00  0.00000000000E+00  0.50000000000E+03  0.50000000000E+03  0.00000000000E+00 0.  1.
         11   -1    0    0    0    0 -0.00000000000E+00 -0.00000000000E+00 -0.50000000000E+03  0.50000000000E+03  0.00000000000E+00 0. -1.
        -11    1    1    2    0    0 -0.70765079735E+01  0.40227644215E+01  0.49931302639E+03  0.49937937274E+03  0.00000000000E+00 0.  1.
         11    1    1    2    0    0  0.11138655343E+01 -0.68166684598E+01 -0.44353615102E+03  0.44358992879E+03  0.00000000000E+00 0. -1.
        -15    1    1    2    0    0  0.36150023439E-01 -0.16341502303E+01 -0.31431833232E+02  0.31524428989E+02  0.17770000000E+01 0. -1.
         15    1    1    2    0    0  0.59264924157E+01  0.44280542685E+01 -0.24345042138E+02  0.25506269478E+02  0.17770000000E+01 0.  1.
</event>
<event>
 6    1  0.3836009E-003  0.5029369E+03  0.7546771E-02  0.9393262E-01
        -11   -1    0    0    0    0  0.00000000000E+00  0.00000000000E+00  0.50000000000E+03  0.50000000000E+03  0.00000000000E+00 0.  1.
         11   -1    0    0    0    0 -0.00000000000E+00 -0.00000000000E+00 -0.50000000000E+03  0.50000000000E+03  0.00000000000E+00 0.  1.
        -11    1    1    2    0    0  0.41245743849E+01 -0.28525198834E+01  0.18054628065E+02  0.18738158343E+02  0.00000000000E+00 0.  1.
         11    1    1    2    0    0  0.96180834769E+01 -0.19789855278E+02 -0.49657585495E+03  0.49706310024E+03  0.00000000000E+00 0.  1.
        -15    1    1    2    0    0  0.48034256787E+01 -0.79317370283E+01  0.81667446672E+01  0.12483541084E+02  0.17770000000E+01 0. -1.
         15    1    1    2    0    0 -0.18546083541E+02  0.30574112189E+02  0.47035448222E+03  0.47171520033E+03  0.17770000000E+01 0.  1.
</event>
<event>
 6    1  0.3836009E-003  0.5141232E+03  0.7546771E-02  0.9368751E-01
        -11   -1    0    0    0    0  0.00000000000E+00  0.00000000000E+00  0.50000000000E+03  0.50000000000E+03  0.00000000000E+00 0.  1.
         11   -1    0    0    0    0 -0.00000000000E+00 -0.00000000000E+00 -0.50000000000E+03  0.50000000000E+03  0.00000000000E+00 0.  1.
        -11    1    1    2    0    0 -0.55117457020E+01  0.86941387038E+01  0.46070329706E+03  0.46081828882E+03  0.00000000000E+00 0.  1.
         11    1    1    2    0    0  0.62371222463E+01 -0.45286576076E+01 -0.48581570051E+03  0.48587684169E+03  0.00000000000E+00 0.  1.
        -15    1    1    2    0    0 -0.40253468331E+01  0.54136695113E+01 -0.12497977067E+02  0.14313224461E+02  0.17770000000E+01 0.  1.
         15    1    1    2    0    0  0.32999702888E+01 -0.95791506075E+01  0.37610380511E+02  0.38991645021E+02  0.17770000000E+01 0.  1.
</event>
<event>
 6    1  0.4621869E-003  0.5226775E+03  0.7546771E-02  0.9350449E-01
        -11   -1    0    0    0    0  0.00000000000E+00  0.00000000000E+00  0.50000000000E+03  0.50000000000E+03  0.00000000000E+00 0.  1.
         11   -1    0    0    0    0 -0.00000000000E+00 -0.00000000000E+00 -0.50000000000E+03  0.50000000000E+03  0.00000000000E+00 0. -1.
        -11    1    1    2    0    0  0.99152115415E+01 -0.99406145129E+00  0.46531060089E+03  0.46541729113E+03  0.00000000000E+00 0.  1.
         11    1    1    2    0    0 -0.13991324441E+02 -0.70266817134E+01 -0.47706562342E+03  0.47732247010E+03  0.00000000000E+00 0. -1.
        -15    1    1    2    0    0 -0.57522567873E+01  0.28747297754E+01  0.32763596263E+02  0.33435961157E+02  0.17770000000E+01 0. -1.
         15    1    1    2    0    0  0.98283696872E+01  0.51460133893E+01 -0.21008573738E+02  0.23824277618E+02  0.17770000000E+01 0.  1.
</event>
<event>
 6    1  0.3836009E-003  0.4635437E+03  0.7546771E-02  0.9485295E-01
        -11   -1    0    0    0    0  0.00000000000E+00  0.00000000000E+00  0.50000000000E+03  0.50000000000E+03  0.00000000000E+00 0.  1.
         11   -1    0    0    0    0 -0.00000000000E+00 -0.00000000000E+00 -0.50000000000E+03  0.50000000000E+03  0.00000000000E+00 0. -1.
        -11    1    1    2    0    0  0.40364575732E+00  0.86182163678E+01  0.93755316292E+02  0.94151452014E+02  0.00000000000E+00 0.  1.
         11    1    1    2    0    0 -0.40881432362E+02 -0.41129700903E+02 -0.48183148819E+03  0.48530869230E+03  0.00000000000E+00 0. -1.
        -15    1    1    2    0    0 -0.10846532367E+02  0.81318237692E+02  0.13734204798E+03  0.15998843370E+03  0.17770000000E+01 0.  1.
         15    1    1    2    0    0  0.51324318972E+02 -0.48806753157E+02  0.25073412392E+03  0.26055142198E+03  0.17770000000E+01 0. -1.
</event>
<event>
 6    1  0.3836009E-003  0.4886128E+03  0.7546771E-02  0.9425656E-01
        -11   -1    0    0    0    0  0.00000000000E+00  0.00000000000E+00  0.50000000000E+03  0.50000000000E+03  0.00000000000E+00 0. -1.
         11   -1    0    0    0    0 -0.00000000000E+00 -0.00000000000E+00 -0.50000000000E+03  0.50000000000E+03  0.00000000000E+00 0. -1.
        -11    1    1    2    0    0 -0.94946772106E+01  0.30495439711E+01  0.48612002561E+03  0.48622230298E+03  0.00000000000E+00 0. -1.
         11    1    1    2    0    0 -0.69113265715E+01 -0.53165532544E+01 -0.49107870914E+03  0.49115611647E+03  0.00000000000E+00 0. -1.
        -15    1    1    2    0    0  0.56156793062E+01 -0.17844461503E+01 -0.44850453669E+01  0.76153439237E+01  0.17770000000E+01 0. -1.
         15    1    1    2    0    0  0.10790324476E+02  0.40514554336E+01  0.94437288968E+01  0.15006236634E+02  0.17770000000E+01 0.  1.
</event>
<event>
 6    1  0.3836009E-003  0.5031650E+03  0.7546771E-02  0.9392755E-01
        -11   -1    0    0    0    0  0.00000000000E+00  0.00000000000E+00  0.50000000000E+03  0.50000000000E+03  0.00000000000E+00 0.  1.
         11   -1    0    0    0    0 -0.00000000000E+00 -0.00000000000E+00 -0.50000000000E+03  0.50000000000E+03  0.00000000000E+00 0. -1.
        -11    1    1    2    0    0 -0.83326822814E+01  0.46319014312E+01  0.49674351006E+03  0.49683498557E+03  0.00000000000E+00 0.  1.
         11    1    1    2    0    0 -0.58675329660E+01  0.31441413127E+01 -0.46117888209E+03  0.46122692338E+03  0.00000000000E+00 0. -1.
        -15    1    1    2    0    0  0.11890393080E+02 -0.11936366905E+02 -0.24787757754E+02  0.30024139720E+02  0.17770000000E+01 0.  1.
         15    1    1    2    0    0  0.23098221677E+01  0.41603241608E+01 -0.10776870216E+02  0.11913951327E+02  0.17770000000E+01 0. -1.
</event>
<event>
 6    1  0.3836009E-003  0.5138517E+03  0.7546771E-02  0.9369338E-01
        -11   -1    0    0    0    0  0.00000000000E+00  0.00000000000E+00  0.50000000000E+03  0.50000000000E+03  0.00000000000E+00 0. -1.
         11   -1    0    0    0    0 -0.00000000000E+00 -0.00000000000E+00 -0.50000000000E+03  0.50000000000E+03  0.00000000000E+00 0.  1.
        -11    1    1    2    0    0 -0.10222540770E+02  0.93799305783E+00  0.45805958220E+03  0.45817459665E+03  0.00000000000E+00 0. -1.
         11    1    1    2    0    0 -0.12660910988E+02  0.18393049133E+02 -0.48563520290E+03  0.48614828316E+03  0.00000000000E+00 0.  1.
        -15    1    1    2    0    0  0.16145440663E+02 -0.13737918904E+02 -0.50377024221E+01  0.21861881088E+02  0.17770000000E+01 0.  1.
         15    1    1    2    0    0  0.67380110951E+01 -0.55931232872E+01  0.32613323119E+02  0.33815239102E+02  0.17770000000E+01 0. -1.
</event>
<event>
 6    1  0.3836009E-003  0.5013552E+03  0.7546771E-02  0.9396782E-01
        -11   -1    0    0    0    0  0.00000000000E+00  0.00000000000E+00  0.50000000000E+03  0.50000000000E+03  0.00000000000E+00 0.  1.
         11   -1    0    0    0    0 -0.00000000000E+00 -0.00000000000E+00 -0.50000000000E+03  0.50000000000E+03  0.00000000000E+00 0.  1.
        -11    1    1    2    0    0  0.59781462195E+01  0.55099885751E+01  0.49857852253E+03  0.49864480478E+03  0.00000000000E+00 0.  1.
         11    1    1    2    0    0 -0.66035717283E+00  0.64703186895E+01 -0.45359426958E+03  0.45364089596E+03  0.00000000000E+00 0.  1.
        -15    1    1    2    0    0 -0.34803481638E+01 -0.64525749441E+01 -0.12011834293E+02  0.14184161549E+02  0.17770000000E+01 0.  1.
         15    1    1    2    0    0 -0.18374408829E+01 -0.55277323205E+01 -0.32972418658E+02  0.33530137709E+02  0.17770000000E+01 0. -1.
</event>
<event>
 6    1  0.3836009E-003  0.5004066E+03  0.7546771E-02  0.9398900E-01
        -11   -1    0    0    0    0  0.00000000000E+00  0.00000000000E+00  0.50000000000E+03  0.50000000000E+03  0.00000000000E+00 0. -1.
         11   -1    0    0    0    0 -0.00000000000E+00 -0.00000000000E+00 -0.50000000000E+03  0.50000000000E+03  0.00000000000E+00 0.  1.
        -11    1    1    2    0    0 -0.55178008197E+01  0.17972676725E+01  0.14079541208E+03  0.14091495435E+03  0.00000000000E+00 0. -1.
         11    1    1    2    0    0  0.38971764355E+01 -0.56168991740E+01 -0.49954658381E+03  0.49959336159E+03  0.00000000000E+00 0.  1.
        -15    1    1    2    0    0 -0.41697810375E+01 -0.32885145929E+01  0.25411053851E+02  0.26020776102E+02  0.17770000000E+01 0.  1.
         15    1    1    2    0    0  0.57904054217E+01  0.71081460944E+01  0.33334011788E+03  0.33347090796E+03  0.17770000000E+01 0. -1.
</event>
<event>
 6    1  0.3836009E-003  0.5113141E+03  0.7546771E-02  0.9374843E-01
        -11   -1    0    0    0    0  0.00000000000E+00  0.00000000000E+00  0.50000000000E+03  0.50000000000E+03  0.00000000000E+00 0. -1.
         11   -1    0    0    0    0 -0.00000000000E+00 -0.00000000000E+00 -0.50000000000E+03  0.50000000000E+03  0.00000000000E+00 0. -1.
        -11    1    1    2    0    0  0.47656899592E+01  0.16825366799E+02  0.48837289873E+03  0.48868588376E+03  0.00000000000E+00 0. -1.
         11    1    1    2    0    0 -0.11423638841E+02  0.68511147491E+01 -0.47234890766E+03  0.47253669473E+03  0.00000000000E+00 0. -1.
        -15    1    1    2    0    0  0.30779053710E+00 -0.27542798790E+02 -0.11554470023E+02  0.29922633686E+02  0.17770000000E+01 0.  1.
         15    1    1    2    0    0  0.63501583450E+01  0.38663172425E+01 -0.44695210482E+01  0.88547878250E+01  0.17770000000E+01 0. -1.
</event>
<event>
 6    1  0.3836009E-003  0.5041915E+03  0.7546771E-02  0.9390479E-01
        -11   -1    0    0    0    0  0.00000000000E+00  0.00000000000E+00  0.50000000000E+03  0.50000000000E+03  0.00000000000E+00 0. -1.
         11   -1    0    0    0    0 -0.00000000000E+00 -0.00000000000E+00 -0.50000000000E+03  0.50000000000E+03  0.00000000000E+00 0.  1.
        -11    1    1    2    0    0  0.26754167267E+01  0.50555441267E+01  0.39571816316E+03  0.39575949898E+03  0.00000000000E+00 0. -1.
         11    1    1    2    0    0 -0.96991504777E+01  0.64448253034E+01 -0.49567170701E+03  0.49580848159E+03  0.00000000000E+00 0.  1.
        -15    1    1    2    0    0  0.19696930576E+02 -0.11479609457E+02  0.87992648479E+02  0.90915424559E+02  0.17770000000E+01 0.  1.
         15    1    1    2    0    0 -0.12673196825E+02 -0.20759973499E-01  0.11960895371E+02  0.17516594870E+02  0.17770000000E+01 0. -1.
</event>
<event>
 6    1  0.3836009E-003  0.5008837E+03  0.7546771E-02  0.9397834E-01
        -11   -1    0    0    0    0  0.00000000000E+00  0.00000000000E+00  0.50000000000E+03  0.50000000000E+03  0.00000000000E+00 0.  1.
         11   -1    0    0    0    0 -0.00000000000E+00 -0.00000000000E+00 -0.50000000000E+03  0.50000000000E+03  0.00000000000E+00 0.  1.
        -11    1    1    2    0    0  0.66107661879E+01 -0.48846598803E+01  0.49904856972E+03  0.49911625607E+03  0.00000000000E+00 0.  1.
         11    1    1    2    0    0  0.95462092660E+00  0.85135084174E+01 -0.42377552720E+03  0.42386211034E+03  0.00000000000E+00 0.  1.
        -15    1    1    2    0    0 -0.51905639231E+00 -0.53823367749E+01 -0.56929599644E+02  0.57213425114E+02  0.17770000000E+01 0. -1.
         15    1    1    2    0    0 -0.70463307222E+01  0.17534882378E+01 -0.18343442874E+02  0.19808208478E+02  0.17770000000E+01 0.  1.
</event>
<event>
 6    1  0.3836009E-003  0.4780215E+03  0.7546771E-02  0.9450377E-01
        -11   -1    0    0    0    0  0.00000000000E+00  0.00000000000E+00  0.50000000000E+03  0.50000000000E+03  0.00000000000E+00 0.  1.
         11   -1    0    0    0    0 -0.00000000000E+00 -0.00000000000E+00 -0.50000000000E+03  0.50000000000E+03  0.00000000000E+00 0. -1.
        -11    1    1    2    0    0  0.16285554531E+02  0.81467677664E+01  0.47393270182E+03  0.47428240002E+03  0.00000000000E+00 0.  1.
         11    1    1    2    0    0 -0.51241140010E+01  0.13686402348E+02 -0.48188653761E+03  0.48210808880E+03  0.00000000000E+00 0. -1.
        -15    1    1    2    0    0  0.52432745383E+01 -0.16703431089E+02 -0.86829657376E+01  0.19622644089E+02  0.17770000000E+01 0. -1.
         15    1    1    2    0    0 -0.16404715068E+02 -0.51297390250E+01  0.16636801526E+02  0.23986867094E+02  0.17770000000E+01 0.  1.
</event>
<event>
 6    1  0.3836009E-003  0.5153756E+03  0.7546771E-02  0.9366048E-01
        -11   -1    0    0    0    0  0.00000000000E+00  0.00000000000E+00  0.50000000000E+03  0.50000000000E+03  0.00000000000E+00 0. -1.
         11   -1    0    0    0    0 -0.00000000000E+00 -0.00000000000E+00 -0.50000000000E+03  0.50000000000E+03  0.00000000000E+00 0. -1.
        -11    1    1    2    0    0  0.27226104296E+01 -0.49338206094E+01  0.41396317056E+03  0.41400152388E+03  0.00000000000E+00 0. -1.
         11    1    1    2    0    0  0.14949948334E+02  0.29979524736E+01 -0.48438445148E+03  0.48462437569E+03  0.00000000000E+00 0. -1.
        -15    1    1    2    0    0 -0.84963394036E+01  0.18835800166E+02  0.77938145035E+02  0.80650401931E+02  0.17770000000E+01 0.  1.
         15    1    1    2    0    0 -0.91762193599E+01 -0.16899932030E+02 -0.75168641205E+01  0.20723698501E+02  0.17770000000E+01 0. -1.
</event>
<event>
 6    1  0.3836009E-003  0.4692747E+03  0.7546771E-02  0.9471313E-01
        -11   -1    0    0    0    0  0.00000000000E+00  0.00000000000E+00  0.50000000000E+03  0.50000000000E+03  0.00000000000E+00 0.  1.
         11   -1    0    0    0    0 -0.00000000000E+00 -0.00000000000E+00 -0.50000000000E+03  0.50000000000E+03  0.00000000000E+00 0.  1.
        -11    1    1    2    0    0 -0.35850704900E+01  0.14674337003E+02  0.47503342898E+03  0.47527355023E+03  0.00000000000E+00 0.  1.
         11    1    1    2    0    0  0.13576297459E+01  0.97937251814E+01 -0.46356206288E+03  0.46366749547E+03  0.00000000000E+00 0.  1.
        -15    1    1    2    0    0 -0.16075934904E+02  0.16613167601E+01 -0.22054681574E+02  0.27400043153E+02  0.17770000000E+01 0.  1.
         15    1    1    2    0    0  0.18303375649E+02 -0.26129378945E+02  0.10583315472E+02  0.33658911146E+02  0.17770000000E+01 0. -1.
</event>
<event>
 6    1  0.3836009E-003  0.5081096E+03  0.7546771E-02  0.9381845E-01
        -11   -1    0    0    0    0  0.00000000000E+00  0.00000000000E+00  0.50000000000E+03  0.50000000000E+03  0.00000000000E+00 0. -1.
         11   -1    0    0    0    0 -0.00000000000E+00 -0.00000000000E+00 -0.50000000000E+03  0.50000000000E+03  0.00000000000E+00 0. -1.
        -11    1    1    2    0    0 -0.19958102559E+01 -0.13856286654E+01  0.13352606862E+03  0.13354817193E+03  0.00000000000E+00 0. -1.
         11    1    1    2    0    0  0.86786851852E+01 -0.51101613132E+01 -0.49178731447E+03  0.49189043089E+03  0.00000000000E+00 0. -1.
        -15    1    1    2    0    0  0.18658400001E+02  0.30526459971E+02  0.32271904395E+03  0.32470100047E+03  0.17770000000E+01 0. -1.
         15    1    1    2    0    0 -0.25341274931E+02 -0.24030669993E+02  0.35542201896E+02  0.49860396710E+02  0.17770000000E+01 0.  1.
</event>
<event>
 6    1  0.3836009E-003  0.4885342E+03  0.7546771E-02  0.9425837E-01
        -11   -1    0    0    0    0  0.00000000000E+00  0.00000000000E+00  0.50000000000E+03  0.50000000000E+03  0.00000000000E+00 0.  1.
         11   -1    0    0    0    0 -0.00000000000E+00 -0.00000000000E+00 -0.50000000000E+03  0.50000000000E+03  0.00000000000E+00 0.  1.
        -11    1    1    2    0    0  0.32151848741E+01  0.74939501267E+01  0.48462524925E+03  0.48469385071E+03  0.00000000000E+00 0.  1.
         11    1    1    2    0    0 -0.19308945524E+02 -0.39505267368E+01 -0.49214800651E+03  0.49254248786E+03  0.00000000000E+00 0.  1.
        -15    1    1    2    0    0  0.48884169826E+01  0.14836244820E+01 -0.32675679385E+01  0.63192160457E+01  0.17770000000E+01 0.  1.
         15    1    1    2    0    0  0.11205343667E+02 -0.50270478719E+01  0.10790325198E+02  0.16444445381E+02  0.17770000000E+01 0. -1.
</event>
<event>
 6    1  0.3836009E-003  0.5069353E+03  0.7546771E-02  0.9384424E-01
        -11   -1    0    0    0    0  0.00000000000E+00  0.00000000000E+00  0.50000000000E+03  0.50000000000E+03  0.00000000000E+00 0. -1.
         11   -1    0    0    0    0 -0.00000000000E+00 -0.00000000000E+00 -0.50000000000E+03  0.50000000000E+03  0.00000000000E+00 0.  1.
        -11    1    1    2    0    0  0.64091068381E+01 -0.23797921425E+02  0.49244830399E+03  0.49306465075E+03  0.00000000000E+00 0. -1.
         11    1    1    2    0    0  0.97297282732E+01  0.51838534710E+01 -0.35939351720E+03  0.35956256779E+03  0.00000000000E+00 0.  1.
        -15    1    1    2    0    0  0.64228265996E+01 -0.15947848968E+02 -0.17248715671E+02  0.24418487044E+02  0.17770000000E+01 0.  1.
         15    1    1    2    0    0 -0.22561661711E+02  0.34561916922E+02 -0.11580607111E+03  0.12295429442E+03  0.17770000000E+01 0. -1.
</event>
<event>
 6    1  0.3836009E-003  0.5202706E+03  0.7546771E-02  0.9355561E-01
        -11   -1    0    0    0    0  0.00000000000E+00  0.00000000000E+00  0.50000000000E+03  0.50000000000E+03  0.00000000000E+00 0. -1.
         11   -1    0    0    0    0 -0.00000000000E+00 -0.00000000000E+00 -0.50000000000E+03  0.50000000000E+03  0.00000000000E+00 0.  1.
        -11    1    1    2    0    0  0.21052755141E+01  0.69778862168E+01  0.46254510818E+03  0.46260252938E+03  0.00000000000E+00 0. -1.
         11    1    1    2    0    0  0.84214758204E+01  0.46150743241E+01 -0.47963328144E+03  0.47972940793E+03  0.00000000000E+00 0.  1.
        -15    1    1    2    0    0 -0.35366649119E+01 -0.31226971471E+01  0.35662431843E+02  0.36017023893E+02  0.17770000000E+01 0.  1.
         15    1    1    2    0    0 -0.69900864226E+01 -0.84702633937E+01 -0.18574258590E+02  0.21651038804E+02  0.17770000000E+01 0.  1.
</event>
<event>
 6    1  0.3836009E-003  0.5003210E+03  0.7546771E-02  0.9399092E-01
        -11   -1    0    0    0    0  0.00000000000E+00  0.00000000000E+00  0.50000000000E+03  0.50000000000E+03  0.00000000000E+00 0. -1.
         11   -1    0    0    0    0 -0.00000000000E+00 -0.00000000000E+00 -0.50000000000E+03  0.50000000000E+03  0.00000000000E+00 0.  1.
        -11    1    1    2    0    0  0.13084604595E+01 -0.72110360248E+01  0.42726331166E+03  0.42732616185E+03  0.00000000000E+00 0. -1.
         11    1    1    2    0    0  0.11172705378E+00  0.83214537911E+01 -0.49960972640E+03  0.49967903477E+03  0.00000000000E+00 0.  1.
        -15    1    1    2    0    0  0.46784158575E+00 -0.47102050519E+01  0.46060132315E+02  0.46336793429E+02  0.17770000000E+01 0.  1.
         15    1    1    2    0    0 -0.18880290990E+01  0.35997872856E+01  0.26286282419E+02  0.26658009956E+02  0.17770000000E+01 0.  1.
</event>
<event>
 6    1  0.3836009E-003  0.5128386E+03  0.7546771E-02  0.9371532E-01
        -11   -1    0    0    0    0  0.00000000000E+00  0.00000000000E+00  0.50000000000E+03  0.50000000000E+03  0.00000000000E+00 0.  1.
         11   -1    0    0    0    0 -0.00000000000E+00 -0.00000000000E+00 -0.50000000000E+03  0.50000000000E+03  0.00000000000E+00 0. -1.
        -11    1    1    2    0    0  0.31647626159E+02  0.68626921718E+01  0.48608388729E+03  0.48716138421E+03  0.00000000000E+00 0.  1.
         11    1    1    2    0    0 -0.40248201390E-01 -0.71334361850E+01 -0.44847626768E+03  0.44853299790E+03  0.00000000000E+00 0. -1.
        -15    1    1    2    0    0 -0.19566983173E+02  0.14513529905E+02 -0.38449035426E+02  0.45552117788E+02  0.17770000000E+01 0. -1.
         15    1    1    2    0    0 -0.12040394784E+02 -0.14242785892E+02  0.84141582186E+00  0.18753500103E+02  0.17770000000E+01 0.  1.
</event>
<event>
 6    1  0.3836009E-003  0.4854519E+03  0.7546771E-02  0.9432964E-01
        -11   -1    0    0    0    0  0.00000000000E+00  0.00000000000E+00  0.50000000000E+03  0.50000000000E+03  0.00000000000E+00 0. -1.
         11   -1    0    0    0    0 -0.00000000000E+00 -0.00000000000E+00 -0.50000000000E+03  0.50000000000E+03  0.00000000000E+00 0. -1.
        -11    1    1    2    0    0  0.17008680513E+02 -0.98963453654E+00  0.48699220933E+03  0.48729014616E+03  0.00000000000E+00 0. -1.
         11    1    1    2    0    0 -0.13869182570E+01 -0.77635560860E+01 -0.48371995952E+03  0.48378424487E+03  0.00000000000E+00 0. -1.
        -15    1    1    2    0    0 -0.15956965899E+02  0.59442173548E+01  0.67180605209E+01  0.18391534651E+02  0.17770000000E+01 0. -1.
         15    1    1    2    0    0  0.33520364305E+00  0.28089732678E+01 -0.99903103356E+01  0.10534074326E+02  0.17770000000E+01 0.  1.
</event>
<event>
 6    1  0.3836009E-003  0.5113451E+03  0.7546771E-02  0.9374776E-01
        -11   -1    0    0    0    0  0.00000000000E+00  0.00000000000E+00  0.50000000000E+03  0.50000000000E+03  0.00000000000E+00 0.  1.
         11   -1    0    0    0    0 -0.00000000000E+00 -0.00000000000E+00 -0.50000000000E+03  0.50000000000E+03  0.00000000000E+00 0. -1.
        -11    1    1    2    0    0 -0.25028330730E+00 -0.82107076606E+01  0.43697168395E+03  0.43704888850E+03  0.00000000000E+00 0.  1.
         11    1    1    2    0    0  0.87468651902E+01  0.15995715086E+02 -0.48831468923E+03  0.48865489486E+03  0.00000000000E+00 0. -1.
        -15    1    1    2    0    0 -0.24208009724E+02 -0.75723538706E+01  0.57915732900E+01  0.26078119720E+02  0.17770000000E+01 0. -1.
         15    1    1    2    0    0  0.15711427841E+02 -0.21265355530E+00  0.45551431983E+02  0.48218096924E+02  0.17770000000E+01 0.  1.
</event>
<event>
 6    1  0.3836009E-003  0.5057937E+03  0.7546771E-02  0.9386938E-01
        -11   -1    0    0    0    0  0.00000000000E+00  0.00000000000E+00  0.50000000000E+03  0.50000000000E+03  0.00000000000E+00 0.  1.
         11   -1    0    0    0    0 -0.00000000000E+00 -0.00000000000E+00 -0.50000000000E+03  0.50000000000E+03  0.00000000000E+00 0.  1.
        -11    1    1    2    0    0  0.78112485137E+01 -0.65775690198E+01  0.49410080518E+03  0.49420631896E+03  0.00000000000E+00 0.  1.
         11    1    1    2    0    0 -0.14717751317E+02  0.89823567204E+01 -0.46032456587E+03  0.46064737151E+03  0.00000000000E+00 0.  1.
        -15    1    1    2    0    0 -0.11341330623E+01  0.12196703603E+02 -0.19655700771E+02  0.23228218580E+02  0.17770000000E+01 0.  1.
         15    1    1    2    0    0  0.80406358657E+01 -0.14601491304E+02 -0.14120538533E+02  0.21918090950E+02  0.17770000000E+01 0. -1.
</event>
<event>
 6    1  0.3836009E-003  0.5176481E+03  0.7546771E-02  0.9361164E-01
        -11   -1    0    0    0    0  0.00000000000E+00  0.00000000000E+00  0.50000000000E+03  0.50000000000E+03  0.00000000000E+00 0. -1.
         11   -1    0    0    0    0 -0.00000000000E+00 -0.00000000000E+00 -0.50000000000E+03  0.50000000000E+03  0.00000000000E+00 0. -1.
        -11    1    1    2    0    0  0.16743285181E+02 -0.23063128252E+02  0.48150924108E+03  0.48235194073E+03  0.00000000000E+00 0. -1.
         11    1    1    2    0    0  0.27869031161E+00  0.45146769335E+01 -0.21457844513E+03  0.21462611465E+03  0.00000000000E+00 0. -1.
        -15    1    1    2    0    0 -0.41778097834E+02  0.65294858959E+02 -0.21630078552E+03  0.22977818785E+03  0.17770000000E+01 0. -1.
         15    1    1    2    0    0  0.24756122341E+02 -0.46746407640E+02 -0.50630010429E+02  0.73243756769E+02  0.17770000000E+01 0.  1.
</event>
<event>
 6    1  0.3836009E-003  0.4946621E+03  0.7546771E-02  0.9411833E-01
        -11   -1    0    0    0    0  0.00000000000E+00  0.00000000000E+00  0.50000000000E+03  0.50000000000E+03  0.00000000000E+00 0.  1.
         11   -1    0    0    0    0 -0.00000000000E+00 -0.00000000000E+00 -0.50000000000E+03  0.50000000000E+03  0.00000000000E+00 0.  1.
        -11    1    1    2    0    0 -0.29114096794E+01  0.89169648481E+01  0.49588551760E+03  0.49597422830E+03  0.00000000000E+00 0.  1.
         11    1    1    2    0    0 -0.12218315015E+01 -0.68988542728E+01 -0.49331428618E+03  0.49336403600E+03  0.00000000000E+00 0.  1.
        -15    1    1    2    0    0  0.11664407883E+01 -0.18446383648E+01  0.29927895316E+01  0.41082591192E+01  0.17770000000E+01 0.  1.
         15    1    1    2    0    0  0.29668003927E+01 -0.17347221040E+00 -0.55640209524E+01  0.65534765840E+01  0.17770000000E+01 0. -1.
</event>
<event>
 6    1  0.3836009E-003  0.5041608E+03  0.7546771E-02  0.9390547E-01
        -11   -1    0    0    0    0  0.00000000000E+00  0.00000000000E+00  0.50000000000E+03  0.50000000000E+03  0.00000000000E+00 0. -1.
         11   -1    0    0    0    0 -0.00000000000E+00 -0.00000000000E+00 -0.50000000000E+03  0.50000000000E+03  0.00000000000E+00 0. -1.
        -11    1    1    2    0    0  0.75885696783E+01 -0.26174902888E+01  0.49577420833E+03  0.49583919096E+03  0.00000000000E+00 0. -1.
         11    1    1    2    0    0  0.42498638072E+01 -0.82996699637E+01 -0.46147839994E+03  0.46157259394E+03  0.00000000000E+00 0. -1.
        -15    1    1    2    0    0 -0.67684468128E+01 -0.61124666708E+00 -0.11916598159E+01  0.71248352165E+01  0.17770000000E+01 0. -1.
         15    1    1    2    0    0 -0.50699866727E+01  0.11528406920E+02 -0.33104148573E+02  0.35463379883E+02  0.17770000000E+01 0.  1.
</event>
<event>
 6    1  0.3836009E-003  0.5116740E+03  0.7546771E-02  0.9374061E-01
        -11   -1    0    0    0    0  0.00000000000E+00  0.00000000000E+00  0.50000000000E+03  0.50000000000E+03  0.00000000000E+00 0.  1.
         11   -1    0    0    0    0 -0.00000000000E+00 -0.00000000000E+00 -0.50000000000E+03  0.50000000000E+03  0.00000000000E+00 0.  1.
        -11    1    1    2    0    0  0.11364938319E+00  0.22329935068E+02  0.44808557174E+03  0.44864163708E+03  0.00000000000E+00 0.  1.
         11    1    1    2    0    0 -0.21284352573E+01 -0.65610200887E+01 -0.48827728421E+03  0.48832600125E+03  0.00000000000E+00 0.  1.
        -15    1    1    2    0    0  0.20419436926E+02  0.24418146188E+01  0.91707157737E+01  0.22587067535E+02  0.17770000000E+01 0.  1.
         15    1    1    2    0    0 -0.18404651052E+02 -0.18210729598E+02  0.31020996697E+02  0.40445294139E+02  0.17770000000E+01 0. -1.
</event>
<event>
 6    1  0.3836009E-003  0.4842112E+03  0.7546771E-02  0.9435848E-01
        -11   -1    0    0    0    0  0.00000000000E+00  0.00000000000E+00  0.50000000000E+03  0.50000000000E+03  0.00000000000E+00 0.  1.
         11   -1    0    0    0    0 -0.00000000000E+00 -0.00000000000E+00 -0.50000000000E+03  0.50000000000E+03  0.00000000000E+00 0.  1.
        -11    1    1    2    0    0 -0.99811478424E+01 -0.72674974769E+00  0.48448093490E+03  0.48458428345E+03  0.00000000000E+00 0.  1.
         11    1    1    2    0    0  0.94309920377E+01  0.79046480278E+01 -0.48370871583E+03  0.48386521763E+03  0.00000000000E+00 0.  1.
        -15    1    1    2    0    0 -0.92567553947E+01 -0.15363316558E+02 -0.35178323181E+01  0.18364419112E+02  0.17770000000E+01 0.  1.
         15    1    1    2    0    0  0.98069111994E+01  0.81854182775E+01  0.27456132402E+01  0.13186079808E+02  0.17770000000E+01 0. -1.
</event>
<event>
 6    1  0.3836009E-003  0.5119764E+03  0.7546771E-02  0.9373403E-01
        -11   -1    0    0    0    0  0.00000000000E+00  0.00000000000E+00  0.50000000000E+03  0.50000000000E+03  0.00000000000E+00 0. -1.
         11   -1    0    0    0    0 -0.00000000000E+00 -0.00000000000E+00 -0.50000000000E+03  0.50000000000E+03  0.00000000000E+00 0.  1.
        -11    1    1    2    0    0 -0.50797535863E+01  0.41953002352E+01  0.45044456747E+03  0.45049274445E+03  0.00000000000E+00 0. -1.
         11    1    1    2    0    0  0.19622315051E+02 -0.20109679322E+02 -0.48721413714E+03  0.48802361611E+03  0.00000000000E+00 0.  1.
        -15    1    1    2    0    0 -0.14656731034E+02  0.24513025073E+02  0.56752161054E+01  0.29173172088E+02  0.17770000000E+01 0.  1.
         15    1    1    2    0    0  0.11416956865E+00 -0.85986459860E+01  0.31094353567E+02  0.32310467348E+02  0.17770000000E+01 0. -1.
</event>
<event>
 6    1  0.3836009E-003  0.5005654E+03  0.7546771E-02  0.9398545E-01
        -11   -1    0    0    0    0  0.00000000000E+00  0.00000000000E+00  0.50000000000E+03  0.50000000000E+03  0.00000000000E+00 0.  1.
         11   -1    0    0    0    0 -0.00000000000E+00 -0.00000000000E+00 -0.50000000000E+03  0.50000000000E+03  0.00000000000E+00 0.  1.
        -11    1    1    2    0    0  0.67758170298E+00  0.22789493095E+01  0.12499455462E+03  0.12501716447E+03  0.00000000000E+00 0.  1.
         11    1    1    2    0    0 -0.93227177857E+01  0.55193041050E+01 -0.49931707430E+03  0.49943459679E+03  0.00000000000E+00 0.  1.
        -15    1    1    2    0    0  0.58214835107E+01 -0.23977363727E+01  0.17716649888E+02  0.18885873616E+02  0.17770000000E+01 0. -1.
         15    1    1    2    0    0  0.28236525720E+01 -0.54005170418E+01  0.35660586979E+03  0.35666236513E+03  0.17770000000E+01 0.  1.
</event>
<event>
 6    1  0.3836009E-003  0.5171051E+03  0.7546771E-02  0.9362329E-01
        -11   -1    0    0    0    0  0.00000000000E+00  0.00000000000E+00  0.50000000000E+03  0.50000000000E+03  0.00000000000E+00 0. -1.
         11   -1    0    0    0    0 -0.00000000000E+00 -0.00000000000E+00 -0.50000000000E+03  0.50000000000E+03  0.00000000000E+00 0. -1.
        -11    1    1    2    0    0 -0.21002959753E+01 -0.27986135951E+01  0.17861634837E+03  0.17865061821E+03  0.00000000000E+00 0. -1.
         11    1    1    2    0    0  0.23746663612E+02 -0.21168218170E+02 -0.48184592084E+03  0.48289490464E+03  0.00000000000E+00 0. -1.
        -15    1    1    2    0    0 -0.97892161093E+01 -0.70350377270E+01 -0.14528870259E+02  0.18962233725E+02  0.17770000000E+01 0.  1.
         15    1    1    2    0    0 -0.11857151528E+02  0.31001869492E+02  0.31775844273E+03  0.31949224343E+03  0.17770000000E+01 0. -1.
</event>
<event>
 6    1  0.3836009E-003  0.5038344E+03  0.7546771E-02  0.9391271E-01
        -11   -1    0    0    0    0  0.00000000000E+00  0.00000000000E+00  0.50000000000E+03  0.50000000000E+03  0.00000000000E+00 0.  1.
         11   -1    0    0    0    0 -0.00000000000E+00 -0.00000000000E+00 -0.50000000000E+03  0.50000000000E+03  0.00000000000E+00 0. -1.
        -11    1    1    2    0    0  0.79462732091E+01  0.13459343466E+01  0.49610016866E+03  0.49616562974E+03  0.00000000000E+00 0.  1.
         11    1    1    2    0    0 -0.58662221820E+01  0.40064362404E+01 -0.20907272154E+03  0.20919337223E+03  0.00000000000E+00 0. -1.
        -15    1    1    2    0    0 -0.83483378104E+01  0.32027398274E+01 -0.19019117077E+01  0.93127484527E+01  0.17770000000E+01 0.  1.
         15    1    1    2    0    0  0.62682867833E+01 -0.85551104144E+01 -0.28512553541E+03  0.28532824957E+03  0.17770000000E+01 0. -1.
</event>
<event>
 6    1  0.3836009E-003  0.5040355E+03  0.7546771E-02  0.9390825E-01
        -11   -1    0    0    0    0  0.00000000000E+00  0.00000000000E+00  0.50000000000E+03  0.50000000000E+03  0.00000000000E+00 0. -1.
         11   -1    0    0    0    0 -0.00000000000E+00 -0.00000000000E+00 -0.50000000000E+03  0.50000000000E+03  0.00000000000E+00 0.  1.
        -11    1    1    2    0    0 -0.13337082548E+02 -0.21544327397E+01  0.49578051074E+03  0.49596454932E+03  0.00000000000E+00 0. -1.
         11    1    1    2    0    0 -0.44207953110E+00  0.78167991819E+01 -0.30655419077E+03  0.30665415318E+03  0.00000000000E+00 0.  1.
        -15    1    1    2    0    0  0.16209852366E+02 -0.86370236893E+01 -0.16960211296E+02  0.25063199878E+02  0.17770000000E+01 0.  1.
         15    1    1    2    0    0 -0.24306902874E+01  0.29746572471E+01 -0.17226610867E+03  0.17231809762E+03  0.17770000000E+01 0. -1.
</event>
<event>
 6    1  0.3836009E-003  0.5004262E+03  0.7546771E-02  0.9398857E-01
        -11   -1    0    0    0    0  0.00000000000E+00  0.00000000000E+00  0.50000000000E+03  0.50000000000E+03  0.00000000000E+00 0.  1.
         11   -1    0    0    0    0 -0.00000000000E+00 -0.00000000000E+00 -0.50000000000E+03  0.50000000000E+03  0.00000000000E+00 0. -1.
        -11    1    1    2    0    0  0.36676394121E+01  0.55469175947E+01  0.26248681460E+03  0.26257103365E+03  0.00000000000E+00 0.  1.
         11    1    1    2    0    0 -0.87147008223E+01  0.83897180771E+01 -0.49942736160E+03  0.49957384128E+03  0.00000000000E+00 0. -1.
        -15    1    1    2    0    0 -0.71608159641E+00 -0.44861773851E+01  0.16267958598E+03  0.16275270807E+03  0.17770000000E+01 0.  1.
         15    1    1    2    0    0  0.57631430066E+01 -0.94504582868E+01  0.74260961011E+02  0.75102416994E+02  0.17770000000E+01 0. -1.
</event>
<event>
 6    1  0.3836009E-003  0.5003370E+03  0.7546771E-02  0.9399056E-01
        -11   -1    0    0    0    0  0.00000000000E+00  0.00000000000E+00  0.50000000000E+03  0.50000000000E+03  0.00000000000E+00 0. -1.
         11   -1    0    0    0    0 -0.00000000000E+00 -0.00000000000E+00 -0.50000000000E+03  0.50000000000E+03  0.00000000000E+00 0. -1.
        -11    1    1    2    0    0 -0.40958414728E+01  0.26409328437E+01  0.20188809510E+03  0.20194690735E+03  0.00000000000E+00 0. -1.
         11    1    1    2    0    0  0.67459587226E+01  0.13086465246E+02 -0.49944608727E+03  0.49966304408E+03  0.00000000000E+00 0. -1.
        -15    1    1    2    0    0 -0.49898784530E+01 -0.49287711497E+01  0.20934618100E+03  0.20947117439E+03  0.17770000000E+01 0.  1.
         15    1    1    2    0    0  0.23397612032E+01 -0.10798626940E+02  0.88211811167E+02  0.88918874175E+02  0.17770000000E+01 0. -1.
</event>
<event>
 6    1  0.3836009E-003  0.5024088E+03  0.7546771E-02  0.9394436E-01
        -11   -1    0    0    0    0  0.00000000000E+00  0.00000000000E+00  0.50000000000E+03  0.50000000000E+03  0.00000000000E+00 0.  1.
         11   -1    0    0    0    0 -0.00000000000E+00 -0.00000000000E+00 -0.50000000000E+03  0.50000000000E+03  0.00000000000E+00 0.  1.
        -11    1    1    2    0    0  0.13466140997E+02  0.59409770120E+01  0.49737349628E+03  0.49759122477E+03  0.00000000000E+00 0.  1.
         11    1    1    2    0    0 -0.39842523960E+01 -0.14577992416E+02 -0.35748862137E+03  0.35780791850E+03  0.00000000000E+00 0.  1.
        -15    1    1    2    0    0 -0.15484091177E+02 -0.14632424276E+01 -0.27935573612E+02  0.32022681962E+02  0.17770000000E+01 0.  1.
         15    1    1    2    0    0  0.60022025769E+01  0.10100257831E+02 -0.11194930130E+03  0.11257817477E+03  0.17770000000E+01 0. -1.
</event>
<event>
 6    1  0.3836009E-003  0.5021614E+03  0.7546771E-02  0.9394986E-01
        -11   -1    0    0    0    0  0.00000000000E+00  0.00000000000E+00  0.50000000000E+03  0.50000000000E+03  0.00000000000E+00 0. -1.
         11   -1    0    0    0    0 -0.00000000000E+00 -0.00000000000E+00 -0.50000000000E+03  0.50000000000E+03  0.00000000000E+00 0.  1.
        -11    1    1    2    0    0  0.88554440755E+01  0.15132210987E+01  0.49775757892E+03  0.49783864464E+03  0.00000000000E+00 0. -1.
         11    1    1    2    0    0  0.45506568735E+00  0.66191803716E+01 -0.44601861277E+03  0.44606795846E+03  0.00000000000E+00 0.  1.
        -15    1    1    2    0    0  0.35716282675E-01  0.58166148479E+00 -0.34554241637E+02  0.34604811080E+02  0.17770000000E+01 0.  1.
         15    1    1    2    0    0 -0.93462260455E+01 -0.87140629551E+01 -0.17184724516E+02  0.21488585811E+02  0.17770000000E+01 0. -1.
</event>
<event>
 6    1  0.3836009E-003  0.5214824E+03  0.7546771E-02  0.9352984E-01
        -11   -1    0    0    0    0  0.00000000000E+00  0.00000000000E+00  0.50000000000E+03  0.50000000000E+03  0.00000000000E+00 0.  1.
         11   -1    0    0    0    0 -0.00000000000E+00 -0.00000000000E+00 -0.50000000000E+03  0.50000000000E+03  0.00000000000E+00 0. -1.
        -11    1    1    2    0    0  0.74920856312E+01 -0.14969652678E+01  0.47845660941E+03  0.47851760610E+03  0.00000000000E+00 0.  1.
         11    1    1    2    0    0  0.53310287634E+01 -0.42983641687E+01 -0.46664076749E+03  0.46669101307E+03  0.00000000000E+00 0. -1.
        -15    1    1    2    0    0 -0.63857981488E+01 -0.96389665462E+01  0.17467383607E+02  0.21022733246E+02  0.17770000000E+01 0. -1.
         15    1    1    2    0    0 -0.64373162458E+01  0.15434295983E+02 -0.29283225534E+02  0.33768647583E+02  0.17770000000E+01 0.  1.
</event>
<event>
 6    1  0.3836009E-003  0.5083306E+03  0.7546771E-02  0.9381360E-01
        -11   -1    0    0    0    0  0.00000000000E+00  0.00000000000E+00  0.50000000000E+03  0.50000000000E+03  0.00000000000E+00 0. -1.
         11   -1    0    0    0    0 -0.00000000000E+00 -0.00000000000E+00 -0.50000000000E+03  0.50000000000E+03  0.00000000000E+00 0.  1.
        -11    1    1    2    0    0 -0.16499280598E+02  0.11469897173E+02  0.43040823465E+03  0.43087705121E+03  0.00000000000E+00 0. -1.
         11    1    1    2    0    0  0.12434544052E+02  0.88426941988E+01 -0.49143261766E+03  0.49166943044E+03  0.00000000000E+00 0.  1.
        -15    1    1    2    0    0  0.15907999473E+02 -0.28845520451E+02  0.42654589914E+02  0.53923095860E+02  0.17770000000E+01 0.  1.
         15    1    1    2    0    0 -0.11843262927E+02  0.85329290795E+01  0.18369793093E+02  0.23530422493E+02  0.17770000000E+01 0. -1.
</event>
<event>
 6    1  0.3836009E-003  0.5030693E+03  0.7546771E-02  0.9392968E-01
        -11   -1    0    0    0    0  0.00000000000E+00  0.00000000000E+00  0.50000000000E+03  0.50000000000E+03  0.00000000000E+00 0.  1.
         11   -1    0    0    0    0 -0.00000000000E+00 -0.00000000000E+00 -0.50000000000E+03  0.50000000000E+03  0.00000000000E+00 0. -1.
        -11    1    1    2    0    0  0.38143376364E+01 -0.81727544551E+01  0.44215921865E+03  0.44225119301E+03  0.00000000000E+00 0.  1.
         11    1    1    2    0    0  0.67724045854E+01  0.67456136751E+01 -0.49683879749E+03  0.49693073909E+03  0.00000000000E+00 0. -1.
        -15    1    1    2    0    0  0.62084186345E+01  0.57658441052E+01  0.12793680913E+02  0.15447505316E+02  0.17770000000E+01 0.  1.
         15    1    1    2    0    0 -0.16795160856E+02 -0.43387033251E+01  0.41885897927E+02  0.45370562580E+02  0.17770000000E+01 0. -1.
</event>
<event>
 6    1  0.3836009E-003  0.5067480E+03  0.7546771E-02  0.9384836E-01
        -11   -1    0    0    0    0  0.00000000000E+00  0.00000000000E+00  0.50000000000E+03  0.50000000000E+03  0.00000000000E+00 0.  1.
         11   -1    0    0    0    0 -0.00000000000E+00 -0.00000000000E+00 -0.50000000000E+03  0.50000000000E+03  0.00000000000E+00 0. -1.
        -11    1    1    2    0    0  0.16780151854E+02 -0.13692931242E+02  0.36014267010E+03  0.36079331020E+03  0.00000000000E+00 0.  1.
         11    1    1    2    0    0  0.21138009201E+01 -0.11817536781E+02 -0.49310593412E+03  0.49325204976E+03  0.00000000000E+00 0. -1.
        -15    1    1    2    0    0  0.25064798290E+01  0.27591087431E+01 -0.38283369112E+01  0.56310758027E+01  0.17770000000E+01 0. -1.
         15    1    1    2    0    0 -0.21400432603E+02  0.22751359280E+02  0.13679160093E+03  0.14032356423E+03  0.17770000000E+01 0.  1.
</event>
<event>
 6    1  0.3836009E-003  0.5074752E+03  0.7546771E-02  0.9383237E-01
        -11   -1    0    0    0    0  0.00000000000E+00  0.00000000000E+00  0.50000000000E+03  0.50000000000E+03  0.00000000000E+00 0.  1.
         11   -1    0    0    0    0 -0.00000000000E+00 -0.00000000000E+00 -0.50000000000E+03  0.50000000000E+03  0.00000000000E+00 0.  1.
        -11    1    1    2    0    0  0.28685567159E+02 -0.24409806307E+02  0.27038228261E+03  0.27299318518E+03  0.00000000000E+00 0.  1.
         11    1    1    2    0    0  0.70281925652E+01 -0.40946594426E+01 -0.49245762464E+03  0.49252479510E+03  0.00000000000E+00 0.  1.
        -15    1    1    2    0    0 -0.41966548143E+02  0.22480114339E+02  0.22036462529E+03  0.22545569966E+03  0.17770000000E+01 0.  1.
         15    1    1    2    0    0  0.62527884186E+01  0.60243514111E+01  0.17107167433E+01  0.90263200535E+01  0.17770000000E+01 0. -1.
</event>
<event>
 6    1  0.3836009E-003  0.4689573E+03  0.7546771E-02  0.9472081E-01
        -11   -1    0    0    0    0  0.00000000000E+00  0.00000000000E+00  0.50000000000E+03  0.50000000000E+03  0.00000000000E+00 0. -1.
         11   -1    0    0    0    0 -0.00000000000E+00 -0.00000000000E+00 -0.50000000000E+03  0.50000000000E+03  0.00000000000E+00 0.  1.
        -11    1    1    2    0    0 -0.18372317072E+02 -0.12327832551E+02  0.46048319096E+03  0.46101441045E+03  0.00000000000E+00 0. -1.
         11    1    1    2    0    0 -0.25230299138E+02 -0.91695430041E-01 -0.47748305177E+03  0.47814918292E+03  0.00000000000E+00 0.  1.
        -15    1    1    2    0    0  0.42649898567E+02 -0.14003553468E+00  0.43687836677E+01  0.42910109035E+02  0.17770000000E+01 0.  1.
         15    1    1    2    0    0  0.95271764312E+00  0.12559563516E+02  0.12631077144E+02  0.17926297594E+02  0.17770000000E+01 0. -1.
</event>
<event>
 6    1  0.3836009E-003  0.5270460E+03  0.7546771E-02  0.9341246E-01
        -11   -1    0    0    0    0  0.00000000000E+00  0.00000000000E+00  0.50000000000E+03  0.50000000000E+03  0.00000000000E+00 0.  1.
         11   -1    0    0    0    0 -0.00000000000E+00 -0.00000000000E+00 -0.50000000000E+03  0.50000000000E+03  0.00000000000E+00 0.  1.
        -11    1    1    2    0    0  0.18080934893E+01 -0.17872313776E+02  0.47261274755E+03  0.47295401251E+03  0.00000000000E+00 0.  1.
         11    1    1    2    0    0 -0.59730743102E+01 -0.64235344558E+01 -0.35737367365E+03  0.35748130305E+03  0.00000000000E+00 0.  1.
        -15    1    1    2    0    0  0.21341344532E+01 -0.25325516780E+02 -0.11709573527E+03  0.11983532567E+03  0.17770000000E+01 0.  1.
         15    1    1    2    0    0  0.20308463676E+01  0.49621365011E+02  0.18566613728E+01  0.49729358763E+02  0.17770000000E+01 0. -1.
</event>
<event>
 6    1  0.3836009E-003  0.5000433E+03  0.7546771E-02  0.9399713E-01
        -11   -1    0    0    0    0  0.00000000000E+00  0.00000000000E+00  0.50000000000E+03  0.50000000000E+03  0.00000000000E+00 0.  1.
         11   -1    0    0    0    0 -0.00000000000E+00 -0.00000000000E+00 -0.50000000000E+03  0.50000000000E+03  0.00000000000E+00 0. -1.
        -11    1    1    2    0    0 -0.12756142139E+00 -0.80742369356E+00  0.41530829317E+02  0.41538873224E+02  0.00000000000E+00 0.  1.
         11    1    1    2    0    0  0.87129260825E+01 -0.86681396814E+01 -0.49980566225E+03  0.49995674987E+03  0.00000000000E+00 0. -1.
        -15    1    1    2    0    0 -0.87229606938E+01  0.88806883744E+01  0.38419514428E+03  0.38440086276E+03  0.17770000000E+01 0.  1.
         15    1    1    2    0    0  0.13759603266E+00  0.59487500055E+00  0.74079688650E+02  0.74103514143E+02  0.17770000000E+01 0.  1.
</event>
<event>
 6    1  0.4401893E-003  0.5220980E+03  0.7546771E-02  0.9351677E-01
        -11   -1    0    0    0    0  0.00000000000E+00  0.00000000000E+00  0.50000000000E+03  0.50000000000E+03  0.00000000000E+00 0.  1.
         11   -1    0    0    0    0 -0.00000000000E+00 -0.00000000000E+00 -0.50000000000E+03  0.50000000000E+03  0.00000000000E+00 0. -1.
        -11    1    1    2    0    0 -0.19486725441E+01  0.17420630502E+02  0.47758039030E+03  0.47790198251E+03  0.00000000000E+00 0.  1.
         11    1    1    2    0    0 -0.32703880052E+01  0.62410030718E+01 -0.39689314964E+03  0.39695568744E+03  0.00000000000E+00 0. -1.
        -15    1    1    2    0    0 -0.28509612542E+01  0.14402502941E+00 -0.95733818569E+02  0.95792851874E+02  0.17770000000E+01 0. -1.
         15    1    1    2    0    0  0.80700218036E+01 -0.23805658604E+02  0.15046577910E+02  0.29349478177E+02  0.17770000000E+01 0.  1.
</event>
<event>
 6    1  0.3836009E-003  0.5069318E+03  0.7546771E-02  0.9384431E-01
        -11   -1    0    0    0    0  0.00000000000E+00  0.00000000000E+00  0.50000000000E+03  0.50000000000E+03  0.00000000000E+00 0.  1.
         11   -1    0    0    0    0 -0.00000000000E+00 -0.00000000000E+00 -0.50000000000E+03  0.50000000000E+03  0.00000000000E+00 0.  1.
        -11    1    1    2    0    0  0.85487699167E+01 -0.68739316938E+01  0.47114369226E+03  0.47127137741E+03  0.00000000000E+00 0.  1.
         11    1    1    2    0    0 -0.76346550041E+01  0.69271417260E+00 -0.49300857187E+03  0.49306816948E+03  0.00000000000E+00 0.  1.
        -15    1    1    2    0    0  0.35537410095E+01 -0.77736479330E+01 -0.63284243656E+00  0.87531077851E+01  0.17770000000E+01 0.  1.
         15    1    1    2    0    0 -0.44678559220E+01  0.13954865454E+02  0.22497722046E+02  0.26907345329E+02  0.17770000000E+01 0. -1.
</event>
<event>
 6    1  0.3836009E-003  0.5035042E+03  0.7546771E-02  0.9392003E-01
        -11   -1    0    0    0    0  0.00000000000E+00  0.00000000000E+00  0.50000000000E+03  0.50000000000E+03  0.00000000000E+00 0.  1.
         11   -1    0    0    0    0 -0.00000000000E+00 -0.00000000000E+00 -0.50000000000E+03  0.50000000000E+03  0.00000000000E+00 0.  1.
        -11    1    1    2    0    0  0.35175637443E+01 -0.95960969306E+01  0.49639062042E+03  0.49649582714E+03  0.00000000000E+00 0.  1.
         11    1    1    2    0    0  0.15404330416E+02 -0.18938767419E+02 -0.30396308886E+03  0.30494184642E+03  0.00000000000E+00 0.  1.
        -15    1    1    2    0    0  0.37206324067E+01  0.10462141869E+01 -0.17840451626E+01  0.46128316437E+01  0.17770000000E+01 0. -1.
         15    1    1    2    0    0 -0.22642526567E+02  0.27488650163E+02 -0.19064348639E+03  0.19394949479E+03  0.17770000000E+01 0.  1.
</event>
<event>
 6    1  0.3836009E-003  0.5097990E+03  0.7546771E-02  0.9378147E-01
        -11   -1    0    0    0    0  0.00000000000E+00  0.00000000000E+00  0.50000000000E+03  0.50000000000E+03  0.00000000000E+00 0. -1.
         11   -1    0    0    0    0 -0.00000000000E+00 -0.00000000000E+00 -0.50000000000E+03  0.50000000000E+03  0.00000000000E+00 0.  1.
        -11    1    1    2    0    0 -0.38749914260E+01  0.11005727439E+02  0.49006213314E+03  0.49020101585E+03  0.00000000000E+00 0. -1.
         11    1    1    2    0    0  0.91591160820E+01 -0.90143827079E-01 -0.40475418802E+03  0.40485781486E+03  0.00000000000E+00 0.  1.
        -15    1    1    2    0    0  0.13079435957E+02  0.56975899776E+01 -0.77635938331E+02  0.78955878983E+02  0.17770000000E+01 0. -1.
         15    1    1    2    0    0 -0.18363560613E+02 -0.16613173589E+02 -0.76720067890E+01  0.25985290306E+02  0.17770000000E+01 0.  1.
</event>
<event>
 6    1  0.3836009E-003  0.5160473E+03  0.7546771E-02  0.9364602E-01
        -11   -1    0    0    0    0  0.00000000000E+00  0.00000000000E+00  0.50000000000E+03  0.50000000000E+03  0.00000000000E+00 0.  1.
         11   -1    0    0    0    0 -0.00000000000E+00 -0.00000000000E+00 -0.50000000000E+03  0.50000000000E+03  0.00000000000E+00 0.  1.
        -11    1    1    2    0    0 -0.20428749960E+01  0.14313957753E+02  0.40697492945E+03  0.40723169809E+03  0.00000000000E+00 0.  1.
         11    1    1    2    0    0  0.92604903854E+01  0.14698344619E+02 -0.48364075090E+03  0.48395265672E+03  0.00000000000E+00 0.  1.
        -15    1    1    2    0    0  0.12521597224E+02 -0.41979180360E+02  0.21605086638E+02  0.48877187709E+02  0.17770000000E+01 0. -1.
         15    1    1    2    0    0 -0.19739212613E+02  0.12966877987E+02  0.55060734809E+02  0.59938457488E+02  0.17770000000E+01 0.  1.
</event>
<event>
 6    1  0.3836009E-003  0.5276182E+03  0.7546771E-02  0.9340048E-01
        -11   -1    0    0    0    0  0.00000000000E+00  0.00000000000E+00  0.50000000000E+03  0.50000000000E+03  0.00000000000E+00 0. -1.
         11   -1    0    0    0    0 -0.00000000000E+00 -0.00000000000E+00 -0.50000000000E+03  0.50000000000E+03  0.00000000000E+00 0.  1.
        -11    1    1    2    0    0 -0.35048517924E+02  0.14973351349E+02  0.47084177876E+03  0.47238181642E+03  0.00000000000E+00 0. -1.
         11    1    1    2    0    0 -0.16634547519E+02 -0.22010359536E+02 -0.28615694507E+03  0.28748384531E+03  0.00000000000E+00 0.  1.
        -15    1    1    2    0    0 -0.68488835475E+01 -0.13307510376E+02  0.20695538681E+02  0.25601954780E+02  0.17770000000E+01 0.  1.
         15    1    1    2    0    0  0.58531948991E+02  0.20344518563E+02 -0.20538037236E+03  0.21453238350E+03  0.17770000000E+01 0. -1.
</event>
<event>
 6    1  0.3836009E-003  0.5011363E+03  0.7546771E-02  0.9397271E-01
        -11   -1    0    0    0    0  0.00000000000E+00  0.00000000000E+00  0.50000000000E+03  0.50000000000E+03  0.00000000000E+00 0.  1.
         11   -1    0    0    0    0 -0.00000000000E+00 -0.00000000000E+00 -0.50000000000E+03  0.50000000000E+03  0.00000000000E+00 0. -1.
        -11    1    1    2    0    0  0.55818712648E+01 -0.63791788759E+00  0.10430139552E+03  0.10445259850E+03  0.00000000000E+00 0.  1.
         11    1    1    2    0    0  0.58471274157E+01  0.61539071990E+01 -0.49879146704E+03  0.49886369588E+03  0.00000000000E+00 0. -1.
        -15    1    1    2    0    0 -0.65607909583E+01 -0.51553183530E+01  0.15783566488E+02  0.17941571431E+02  0.17770000000E+01 0.  1.
         15    1    1    2    0    0 -0.48682077222E+01 -0.36067095838E+00  0.37870650503E+03  0.37874213419E+03  0.17770000000E+01 0.  1.
</event>
<event>
 6    1  0.3836009E-003  0.4300481E+03  0.7546771E-02  0.9571561E-01
        -11   -1    0    0    0    0  0.00000000000E+00  0.00000000000E+00  0.50000000000E+03  0.50000000000E+03  0.00000000000E+00 0.  1.
         11   -1    0    0    0    0 -0.00000000000E+00 -0.00000000000E+00 -0.50000000000E+03  0.50000000000E+03  0.00000000000E+00 0.  1.
        -11    1    1    2    0    0 -0.13219322435E+01 -0.10098364149E+02  0.45543637104E+03  0.45555023052E+03  0.00000000000E+00 0.  1.
         11    1    1    2    0    0  0.46893566392E+02 -0.36538672589E+02 -0.40418685784E+03  0.40853530718E+03  0.00000000000E+00 0.  1.
        -15    1    1    2    0    0 -0.41891519183E+02  0.19163019464E+02 -0.82251183013E+02  0.94289636390E+02  0.17770000000E+01 0. -1.
         15    1    1    2    0    0 -0.36801149662E+01  0.27474017274E+02  0.31001669812E+02  0.41624825903E+02  0.17770000000E+01 0.  1.
</event>
<event>
 6    1  0.3836009E-003  0.5086899E+03  0.7546771E-02  0.9380573E-01
        -11   -1    0    0    0    0  0.00000000000E+00  0.00000000000E+00  0.50000000000E+03  0.50000000000E+03  0.00000000000E+00 0. -1.
         11   -1    0    0    0    0 -0.00000000000E+00 -0.00000000000E+00 -0.50000000000E+03  0.50000000000E+03  0.00000000000E+00 0.  1.
        -11    1    1    2    0    0  0.42922963498E+01  0.88903014377E+01  0.34567173931E+03  0.34581268430E+03  0.00000000000E+00 0. -1.
         11    1    1    2    0    0 -0.67567507876E+01  0.60400828407E+01 -0.49122651438E+03  0.49131011053E+03  0.00000000000E+00 0.  1.
        -15    1    1    2    0    0 -0.42551831698E+01 -0.70928849561E+01  0.15088605695E+03  0.15112304758E+03  0.17770000000E+01 0.  1.
         15    1    1    2    0    0  0.67196376076E+01 -0.78374993222E+01 -0.53312818739E+01  0.11754157589E+02  0.17770000000E+01 0.  1.
</event>
<event>
 6    1  0.3836009E-003  0.5011187E+03  0.7546771E-02  0.9397310E-01
        -11   -1    0    0    0    0  0.00000000000E+00  0.00000000000E+00  0.50000000000E+03  0.50000000000E+03  0.00000000000E+00 0. -1.
         11   -1    0    0    0    0 -0.00000000000E+00 -0.00000000000E+00 -0.50000000000E+03  0.50000000000E+03  0.00000000000E+00 0. -1.
        -11    1    1    2    0    0 -0.10694117355E+02  0.46071031321E+01  0.49874537810E+03  0.49888129021E+03  0.00000000000E+00 0. -1.
         11    1    1    2    0    0  0.66394905525E+01  0.45192458185E+01 -0.35705009813E+03  0.35714041915E+03  0.00000000000E+00 0. -1.
        -15    1    1    2    0    0 -0.56526735389E+01 -0.63445260411E+01 -0.19398035845E+02  0.21251994082E+02  0.17770000000E+01 0.  1.
         15    1    1    2    0    0  0.97073003417E+01 -0.27818229095E+01 -0.12229724412E+03  0.12272629656E+03  0.17770000000E+01 0. -1.
</event>
<event>
 6    1  0.3836009E-003  0.5028758E+03  0.7546771E-02  0.9393398E-01
        -11   -1    0    0    0    0  0.00000000000E+00  0.00000000000E+00  0.50000000000E+03  0.50000000000E+03  0.00000000000E+00 0. -1.
         11   -1    0    0    0    0 -0.00000000000E+00 -0.00000000000E+00 -0.50000000000E+03  0.50000000000E+03  0.00000000000E+00 0. -1.
        -11    1    1    2    0    0  0.95924510325E+01  0.30420528801E+01  0.49702234970E+03  0.49712421517E+03  0.00000000000E+00 0. -1.
         11    1    1    2    0    0 -0.59686036311E+01  0.52861320586E+01 -0.48634790980E+03  0.48641325721E+03  0.00000000000E+00 0. -1.
        -15    1    1    2    0    0 -0.41526837410E+01 -0.62173096635E+01 -0.29304566177E+01  0.82246596703E+01  0.17770000000E+01 0. -1.
         15    1    1    2    0    0  0.52883633958E+00 -0.21108752752E+01 -0.77439832862E+01  0.82378679547E+01  0.17770000000E+01 0.  1.
</event>
<event>
 6    1  0.3836009E-003  0.5015894E+03  0.7546771E-02  0.9396260E-01
        -11   -1    0    0    0    0  0.00000000000E+00  0.00000000000E+00  0.50000000000E+03  0.50000000000E+03  0.00000000000E+00 0.  1.
         11   -1    0    0    0    0 -0.00000000000E+00 -0.00000000000E+00 -0.50000000000E+03  0.50000000000E+03  0.00000000000E+00 0. -1.
        -11    1    1    2    0    0 -0.23387018439E+02  0.10477174811E+02  0.49775135042E+03  0.49841060449E+03  0.00000000000E+00 0.  1.
         11    1    1    2    0    0  0.15315266768E+01  0.27720537060E+01 -0.19468063289E+03  0.19470639095E+03  0.00000000000E+00 0. -1.
        -15    1    1    2    0    0 -0.99682460869E+01  0.10172344494E+01 -0.32178745430E+02  0.33749519736E+02  0.17770000000E+01 0.  1.
         15    1    1    2    0    0  0.31823737850E+02 -0.14266462967E+02 -0.27089197210E+03  0.27313348482E+03  0.17770000000E+01 0. -1.
</event>
<event>
 6    1  0.3836009E-003  0.5046128E+03  0.7546771E-02  0.9389547E-01
        -11   -1    0    0    0    0  0.00000000000E+00  0.00000000000E+00  0.50000000000E+03  0.50000000000E+03  0.00000000000E+00 0.  1.
         11   -1    0    0    0    0 -0.00000000000E+00 -0.00000000000E+00 -0.50000000000E+03  0.50000000000E+03  0.00000000000E+00 0. -1.
        -11    1    1    2    0    0  0.42890145708E+01  0.12354431630E+02  0.49521455389E+03  0.49538720413E+03  0.00000000000E+00 0.  1.
         11    1    1    2    0    0  0.15208065008E+01 -0.67832126276E+01 -0.48056276671E+03  0.48061304349E+03  0.00000000000E+00 0. -1.
        -15    1    1    2    0    0  0.12530815567E+01  0.39917320426E+01 -0.10225349398E+02  0.11190158059E+02  0.17770000000E+01 0. -1.
         15    1    1    2    0    0 -0.70629026283E+01 -0.95629510451E+01 -0.44264377874E+01  0.12809594323E+02  0.17770000000E+01 0.  1.
</event>
<event>
 6    1  0.3836009E-003  0.5089451E+03  0.7546771E-02  0.9380014E-01
        -11   -1    0    0    0    0  0.00000000000E+00  0.00000000000E+00  0.50000000000E+03  0.50000000000E+03  0.00000000000E+00 0.  1.
         11   -1    0    0    0    0 -0.00000000000E+00 -0.00000000000E+00 -0.50000000000E+03  0.50000000000E+03  0.00000000000E+00 0.  1.
        -11    1    1    2    0    0  0.75979153308E+01 -0.75603601455E+01  0.49093794869E+03  0.49105494278E+03  0.00000000000E+00 0.  1.
         11    1    1    2    0    0  0.10977563331E+01 -0.72691554329E+00 -0.90032487146E+02  0.90042113574E+02  0.00000000000E+00 0.  1.
        -15    1    1    2    0    0 -0.27015095069E+02 -0.24393950382E+01 -0.39614232868E+03  0.39707388269E+03  0.17770000000E+01 0.  1.
         15    1    1    2    0    0  0.18319423405E+02  0.10726670727E+02 -0.47631328596E+01  0.21829060961E+02  0.17770000000E+01 0. -1.
</event>
<event>
 6    1  0.3836009E-003  0.5006758E+03  0.7546771E-02  0.9398299E-01
        -11   -1    0    0    0    0  0.00000000000E+00  0.00000000000E+00  0.50000000000E+03  0.50000000000E+03  0.00000000000E+00 0.  1.
         11   -1    0    0    0    0 -0.00000000000E+00 -0.00000000000E+00 -0.50000000000E+03  0.50000000000E+03  0.00000000000E+00 0.  1.
        -11    1    1    2    0    0 -0.43031209087E+01  0.81189012627E+01  0.49923965428E+03  0.49932420912E+03  0.00000000000E+00 0.  1.
         11    1    1    2    0    0 -0.70205697804E+01 -0.48781712139E+00 -0.37148198513E+03  0.37154863967E+03  0.00000000000E+00 0.  1.
        -15    1    1    2    0    0  0.42527007996E+01 -0.97140359031E+01 -0.87848835140E+02  0.88504370073E+02  0.17770000000E+01 0. -1.
         15    1    1    2    0    0  0.70709898895E+01  0.20829517617E+01 -0.39908834015E+02  0.40622781139E+02  0.17770000000E+01 0.  1.
</event>
<event>
 6    1  0.3836009E-003  0.5067574E+03  0.7546771E-02  0.9384815E-01
        -11   -1    0    0    0    0  0.00000000000E+00  0.00000000000E+00  0.50000000000E+03  0.50000000000E+03  0.00000000000E+00 0. -1.
         11   -1    0    0    0    0 -0.00000000000E+00 -0.00000000000E+00 -0.50000000000E+03  0.50000000000E+03  0.00000000000E+00 0.  1.
        -11    1    1    2    0    0 -0.67603067324E+01 -0.69726678786E+01  0.49314694837E+03  0.49324256967E+03  0.00000000000E+00 0. -1.
         11    1    1    2    0    0 -0.11717697245E+02  0.69074141510E+01 -0.47073304692E+03  0.47092952579E+03  0.00000000000E+00 0.  1.
        -15    1    1    2    0    0  0.16188428283E+02  0.17713795567E+01 -0.26114499211E+02  0.30827387075E+02  0.17770000000E+01 0. -1.
         15    1    1    2    0    0  0.22895756943E+01 -0.17061258290E+01  0.37005977533E+01  0.50005174668E+01  0.17770000000E+01 0.  1.
</event>
<event>
 6    1  0.3836009E-003  0.5097375E+03  0.7546771E-02  0.9378281E-01
        -11   -1    0    0    0    0  0.00000000000E+00  0.00000000000E+00  0.50000000000E+03  0.50000000000E+03  0.00000000000E+00 0. -1.
         11   -1    0    0    0    0 -0.00000000000E+00 -0.00000000000E+00 -0.50000000000E+03  0.50000000000E+03  0.00000000000E+00 0. -1.
        -11    1    1    2    0    0  0.48898649884E+00 -0.86394642739E+01  0.47546992136E+03  0.47554865741E+03  0.00000000000E+00 0. -1.
         11    1    1    2    0    0  0.78217166108E+01 -0.55153022591E+01 -0.49016911028E+03  0.49026253629E+03  0.00000000000E+00 0. -1.
        -15    1    1    2    0    0  0.20640167442E+01  0.17085204322E+02  0.19688627627E+01  0.17412596631E+02  0.17770000000E+01 0.  1.
         15    1    1    2    0    0 -0.10374719854E+02 -0.29304377893E+01  0.12730326165E+02  0.16776209672E+02  0.17770000000E+01 0. -1.
</event>
<event>
 6    1  0.3836009E-003  0.5077697E+03  0.7546771E-02  0.9382590E-01
        -11   -1    0    0    0    0  0.00000000000E+00  0.00000000000E+00  0.50000000000E+03  0.50000000000E+03  0.00000000000E+00 0.  1.
         11   -1    0    0    0    0 -0.00000000000E+00 -0.00000000000E+00 -0.50000000000E+03  0.50000000000E+03  0.00000000000E+00 0.  1.
        -11    1    1    2    0    0  0.17981863750E+02 -0.36577475885E+01  0.49188814111E+03  0.49223030170E+03  0.00000000000E+00 0.  1.
         11    1    1    2    0    0  0.24201064276E+01 -0.24209202224E+02 -0.40051588557E+03  0.40125418002E+03  0.00000000000E+00 0.  1.
        -15    1    1    2    0    0  0.71426947278E+01  0.18064948469E+02 -0.62154773069E+02  0.65143948264E+02  0.17770000000E+01 0. -1.
         15    1    1    2    0    0 -0.27544664906E+02  0.98020013441E+01 -0.29217482472E+02  0.41371570022E+02  0.17770000000E+01 0.  1.
</event>
<event>
 6    1  0.3836009E-003  0.5014882E+03  0.7546771E-02  0.9396486E-01
        -11   -1    0    0    0    0  0.00000000000E+00  0.00000000000E+00  0.50000000000E+03  0.50000000000E+03  0.00000000000E+00 0.  1.
         11   -1    0    0    0    0 -0.00000000000E+00 -0.00000000000E+00 -0.50000000000E+03  0.50000000000E+03  0.00000000000E+00 0. -1.
        -11    1    1    2    0    0 -0.41213160800E+00  0.15698476776E+01  0.11246420592E+03  0.11247591692E+03  0.00000000000E+00 0.  1.
         11    1    1    2    0    0 -0.27106873081E+01  0.22829205771E+02 -0.49798138953E+03  0.49851176996E+03  0.00000000000E+00 0. -1.
        -15    1    1    2    0    0  0.43781382171E+01 -0.19116460433E+02  0.54542983268E+02  0.57988808459E+02  0.17770000000E+01 0.  1.
         15    1    1    2    0    0 -0.12553193009E+01 -0.52825930156E+01  0.33097420035E+03  0.33102350466E+03  0.17770000000E+01 0.  1.
</event>
<event>
 6    1  0.3836009E-003  0.5008666E+03  0.7546771E-02  0.9397873E-01
        -11   -1    0    0    0    0  0.00000000000E+00  0.00000000000E+00  0.50000000000E+03  0.50000000000E+03  0.00000000000E+00 0.  1.
         11   -1    0    0    0    0 -0.00000000000E+00 -0.00000000000E+00 -0.50000000000E+03  0.50000000000E+03  0.00000000000E+00 0. -1.
        -11    1    1    2    0    0 -0.31868267072E+01 -0.14246379811E+02  0.49891990152E+03  0.49913343239E+03  0.00000000000E+00 0.  1.
         11    1    1    2    0    0 -0.31143579431E+01  0.54943513821E+01 -0.43124614905E+03  0.43129239292E+03  0.00000000000E+00 0. -1.
        -15    1    1    2    0    0  0.56843879373E+01 -0.66551116921E+00 -0.35335052055E+02  0.35839626171E+02  0.17770000000E+01 0.  1.
         15    1    1    2    0    0  0.61679671300E+00  0.94175395984E+01 -0.32338700409E+02  0.33734548513E+02  0.17770000000E+01 0. -1.
</event>
<event>
 6    1  0.3836009E-003  0.5032411E+03  0.7546771E-02  0.9392586E-01
        -11   -1    0    0    0    0  0.00000000000E+00  0.00000000000E+00  0.50000000000E+03  0.50000000000E+03  0.00000000000E+00 0.  1.
         11   -1    0    0    0    0 -0.00000000000E+00 -0.00000000000E+00 -0.50000000000E+03  0.50000000000E+03  0.00000000000E+00 0. -1.
        -11    1    1    2    0    0  0.63279420930E+00  0.82227418809E+01  0.49669039274E+03  0.49675885513E+03  0.00000000000E+00 0.  1.
         11    1    1    2    0    0 -0.51308326719E+01 -0.61477558675E+01 -0.43094354112E+03  0.43101793000E+03  0.00000000000E+00 0. -1.
        -15    1    1    2    0    0  0.94907278192E+00 -0.40110290527E+01  0.15748885382E+01  0.47567947312E+01  0.17770000000E+01 0.  1.
         15    1    1    2    0    0  0.35489656807E+01  0.19360430393E+01 -0.67321740157E+02  0.67466420142E+02  0.17770000000E+01 0. -1.
</event>
<event>
 6    1  0.3836009E-003  0.5031142E+03  0.7546771E-02  0.9392868E-01
        -11   -1    0    0    0    0  0.00000000000E+00  0.00000000000E+00  0.50000000000E+03  0.50000000000E+03  0.00000000000E+00 0.  1.
         11   -1    0    0    0    0 -0.00000000000E+00 -0.00000000000E+00 -0.50000000000E+03  0.50000000000E+03  0.00000000000E+00 0. -1.
        -11    1    1    2    0    0  0.11690082929E+02 -0.13255404038E+02  0.40809311339E+03  0.40847564551E+03  0.00000000000E+00 0.  1.
         11    1    1    2    0    0  0.36980600591E+01 -0.96532196912E+01 -0.49677821784E+03  0.49688575953E+03  0.00000000000E+00 0. -1.
        -15    1    1    2    0    0  0.37633576688E+01  0.39794666642E+01  0.11289664806E+02  0.12673329330E+02  0.17770000000E+01 0.  1.
         15    1    1    2    0    0 -0.19151500657E+02  0.18929157065E+02  0.77395439641E+02  0.81965265636E+02  0.17770000000E+01 0. -1.
</event>
<event>
 6    1  0.3836009E-003  0.4820060E+03  0.7546771E-02  0.9440998E-01
        -11   -1    0    0    0    0  0.00000000000E+00  0.00000000000E+00  0.50000000000E+03  0.50000000000E+03  0.00000000000E+00 0.  1.
         11   -1    0    0    0    0 -0.00000000000E+00 -0.00000000000E+00 -0.50000000000E+03  0.50000000000E+03  0.00000000000E+00 0. -1.
        -11    1    1    2    0    0  0.43679193972E+01 -0.17966247490E+02  0.48400722867E+03  0.48436026073E+03  0.00000000000E+00 0.  1.
         11    1    1    2    0    0  0.56150758593E+01  0.42435082917E+01 -0.47975887351E+03  0.47981049712E+03  0.00000000000E+00 0. -1.
        -15    1    1    2    0    0 -0.86716194203E+00 -0.43569321647E+01 -0.12885107467E+02  0.13744764499E+02  0.17770000000E+01 0. -1.
         15    1    1    2    0    0 -0.91158333145E+01  0.18079671363E+02  0.86367523037E+01  0.22084477648E+02  0.17770000000E+01 0.  1.
</event>
<event>
 6    1  0.3836009E-003  0.5099832E+03  0.7546771E-02  0.9377744E-01
        -11   -1    0    0    0    0  0.00000000000E+00  0.00000000000E+00  0.50000000000E+03  0.50000000000E+03  0.00000000000E+00 0. -1.
         11   -1    0    0    0    0 -0.00000000000E+00 -0.00000000000E+00 -0.50000000000E+03  0.50000000000E+03  0.00000000000E+00 0. -1.
        -11    1    1    2    0    0  0.14763147670E+02 -0.13973646879E+02  0.20978039066E+03  0.21076296079E+03  0.00000000000E+00 0. -1.
         11    1    1    2    0    0  0.89672622496E+01 -0.83744458756E+01 -0.48986311855E+03  0.49001675283E+03  0.00000000000E+00 0. -1.
        -15    1    1    2    0    0  0.33161431699E+01 -0.26536531822E+01  0.25402705675E+03  0.25406877410E+03  0.17770000000E+01 0. -1.
         15    1    1    2    0    0 -0.27046553090E+02  0.25001745937E+02  0.26055671143E+02  0.45151512285E+02  0.17770000000E+01 0.  1.
</event>
<event>
 6    1  0.3836009E-003  0.5008217E+03  0.7546771E-02  0.9397973E-01
        -11   -1    0    0    0    0  0.00000000000E+00  0.00000000000E+00  0.50000000000E+03  0.50000000000E+03  0.00000000000E+00 0. -1.
         11   -1    0    0    0    0 -0.00000000000E+00 -0.00000000000E+00 -0.50000000000E+03  0.50000000000E+03  0.00000000000E+00 0. -1.
        -11    1    1    2    0    0  0.19885216777E+01 -0.80936709215E+01  0.49910871119E+03  0.49917829211E+03  0.00000000000E+00 0. -1.
         11    1    1    2    0    0  0.43380217432E+01 -0.34860262590E+01 -0.24927071529E+03  0.24933283039E+03  0.00000000000E+00 0. -1.
        -15    1    1    2    0    0  0.35140156151E+01  0.71335941384E+01 -0.21048267103E+03  0.21064033091E+03  0.17770000000E+01 0.  1.
         15    1    1    2    0    0 -0.98405590360E+01  0.44461030421E+01 -0.39355324866E+02  0.40848546592E+02  0.17770000000E+01 0. -1.
</event>
<event>
 6    1  0.3836009E-003  0.5047706E+03  0.7546771E-02  0.9389198E-01
        -11   -1    0    0    0    0  0.00000000000E+00  0.00000000000E+00  0.50000000000E+03  0.50000000000E+03  0.00000000000E+00 0. -1.
         11   -1    0    0    0    0 -0.00000000000E+00 -0.00000000000E+00 -0.50000000000E+03  0.50000000000E+03  0.00000000000E+00 0. -1.
        -11    1    1    2    0    0  0.85184929880E+01 -0.27850485031E+01  0.35467082359E+03  0.35478403899E+03  0.00000000000E+00 0. -1.
         11    1    1    2    0    0  0.32132753571E+01 -0.18293616242E+02 -0.49488094254E+03  0.49522936992E+03  0.00000000000E+00 0. -1.
        -15    1    1    2    0    0 -0.30041293831E+02  0.13057063376E+02  0.95558732346E+02  0.10103264470E+03  0.17770000000E+01 0.  1.
         15    1    1    2    0    0  0.18309525486E+02  0.80216013686E+01  0.44651386610E+02  0.48953946391E+02  0.17770000000E+01 0. -1.
</event>
<event>
 6    1  0.3836009E-003  0.5028031E+03  0.7546771E-02  0.9393559E-01
        -11   -1    0    0    0    0  0.00000000000E+00  0.00000000000E+00  0.50000000000E+03  0.50000000000E+03  0.00000000000E+00 0. -1.
         11   -1    0    0    0    0 -0.00000000000E+00 -0.00000000000E+00 -0.50000000000E+03  0.50000000000E+03  0.00000000000E+00 0. -1.
        -11    1    1    2    0    0 -0.11272169291E+02 -0.89830030281E+01  0.49698791942E+03  0.49719689077E+03  0.00000000000E+00 0. -1.
         11    1    1    2    0    0  0.54304469464E+01  0.39093530818E+01 -0.45423555854E+03  0.45428483954E+03  0.00000000000E+00 0. -1.
        -15    1    1    2    0    0  0.30200821458E+01 -0.50417327927E+01 -0.34506555034E+02  0.35048538272E+02  0.17770000000E+01 0.  1.
         15    1    1    2    0    0  0.28216401985E+01  0.10115382739E+02 -0.82458058462E+01  0.13469731416E+02  0.17770000000E+01 0. -1.
</event>
<event>
 6    1  0.3836009E-003  0.5047559E+03  0.7546771E-02  0.9389230E-01
        -11   -1    0    0    0    0  0.00000000000E+00  0.00000000000E+00  0.50000000000E+03  0.50000000000E+03  0.00000000000E+00 0.  1.
         11   -1    0    0    0    0 -0.00000000000E+00 -0.00000000000E+00 -0.50000000000E+03  0.50000000000E+03  0.00000000000E+00 0. -1.
        -11    1    1    2    0    0 -0.75067731967E+01 -0.74065555411E+00  0.49518661481E+03  0.49524406478E+03  0.00000000000E+00 0.  1.
         11    1    1    2    0    0  0.63301062487E+01  0.39070705457E+01 -0.45854016785E+03  0.45860050260E+03  0.00000000000E+00 0. -1.
        -15    1    1    2    0    0  0.21890202093E+01 -0.90514585284E+00  0.42310659308E+01  0.51643727986E+01  0.17770000000E+01 0. -1.
         15    1    1    2    0    0 -0.10123532614E+01 -0.22612691388E+01 -0.40877512883E+02  0.40991059827E+02  0.17770000000E+01 0.  1.
</event>
<event>
 6    1  0.3836009E-003  0.5021918E+03  0.7546771E-02  0.9394919E-01
        -11   -1    0    0    0    0  0.00000000000E+00  0.00000000000E+00  0.50000000000E+03  0.50000000000E+03  0.00000000000E+00 0.  1.
         11   -1    0    0    0    0 -0.00000000000E+00 -0.00000000000E+00 -0.50000000000E+03  0.50000000000E+03  0.00000000000E+00 0. -1.
        -11    1    1    2    0    0 -0.10139063376E+02 -0.12899094089E+02  0.44598482623E+03  0.44628651387E+03  0.00000000000E+00 0.  1.
         11    1    1    2    0    0  0.76850820386E+01  0.45110287813E+01 -0.49772842024E+03  0.49780818613E+03  0.00000000000E+00 0. -1.
        -15    1    1    2    0    0 -0.55476856230E+01  0.44638372299E+01  0.41780741195E+02  0.42420404552E+02  0.17770000000E+01 0. -1.
         15    1    1    2    0    0  0.80016669608E+01  0.39242280779E+01  0.99628528124E+01  0.13484895451E+02  0.17770000000E+01 0.  1.
</event>
<event>
 6    1  0.3836009E-003  0.5014898E+03  0.7546771E-02  0.9396482E-01
        -11   -1    0    0    0    0  0.00000000000E+00  0.00000000000E+00  0.50000000000E+03  0.50000000000E+03  0.00000000000E+00 0.  1.
         11   -1    0    0    0    0 -0.00000000000E+00 -0.00000000000E+00 -0.50000000000E+03  0.50000000000E+03  0.00000000000E+00 0. -1.
        -11    1    1    2    0    0  0.67341186980E+01 -0.37145320178E+01  0.43343488853E+03  0.43350311268E+03  0.00000000000E+00 0.  1.
         11    1    1    2    0    0  0.31056653115E+01 -0.95922906933E+01 -0.49840819727E+03  0.49851016870E+03  0.00000000000E+00 0. -1.
        -15    1    1    2    0    0  0.17097434686E+01  0.42647671057E+01  0.11524539294E+02  0.12533323427E+02  0.17770000000E+01 0.  1.
         15    1    1    2    0    0 -0.11549527478E+02  0.90420556054E+01  0.53448769441E+02  0.55453395192E+02  0.17770000000E+01 0. -1.
</event>
<event>
 6    1  0.3836009E-003  0.5021522E+03  0.7546771E-02  0.9395007E-01
        -11   -1    0    0    0    0  0.00000000000E+00  0.00000000000E+00  0.50000000000E+03  0.50000000000E+03  0.00000000000E+00 0. -1.
         11   -1    0    0    0    0 -0.00000000000E+00 -0.00000000000E+00 -0.50000000000E+03  0.50000000000E+03  0.00000000000E+00 0.  1.
        -11    1    1    2    0    0 -0.29066765519E+01  0.39952215881E+01  0.31385257972E+03  0.31389146590E+03  0.00000000000E+00 0. -1.
         11    1    1    2    0    0 -0.15323677873E+02  0.20111813442E+01 -0.49760780475E+03  0.49784775515E+03  0.00000000000E+00 0.  1.
        -15    1    1    2    0    0  0.20299740230E+02 -0.12391641347E+02  0.63915824371E+02  0.68220396970E+02  0.17770000000E+01 0. -1.
         15    1    1    2    0    0 -0.20693858054E+01  0.63852384145E+01  0.11983940066E+03  0.12004038198E+03  0.17770000000E+01 0.  1.
</event>
<event>
 6    1  0.3836009E-003  0.5122899E+03  0.7546771E-02  0.9372722E-01
        -11   -1    0    0    0    0  0.00000000000E+00  0.00000000000E+00  0.50000000000E+03  0.50000000000E+03  0.00000000000E+00 0. -1.
         11   -1    0    0    0    0 -0.00000000000E+00 -0.00000000000E+00 -0.50000000000E+03  0.50000000000E+03  0.00000000000E+00 0. -1.
        -11    1    1    2    0    0 -0.46163483277E+01  0.24296580443E+02  0.46212600734E+03  0.46278729580E+03  0.00000000000E+00 0. -1.
         11    1    1    2    0    0  0.11720886815E+01 -0.85145533538E+01 -0.48763435330E+03  0.48771009209E+03  0.00000000000E+00 0. -1.
        -15    1    1    2    0    0 -0.10091485660E+01  0.71859578812E+01 -0.64404084050E+01  0.98637194264E+01  0.17770000000E+01 0. -1.
         15    1    1    2    0    0  0.44534082122E+01 -0.22967984970E+02  0.31948754364E+02  0.39638892678E+02  0.17770000000E+01 0.  1.
</event>
<event>
 6    1  0.3836009E-003  0.5000946E+03  0.7546771E-02  0.9399598E-01
        -11   -1    0    0    0    0  0.00000000000E+00  0.00000000000E+00  0.50000000000E+03  0.50000000000E+03  0.00000000000E+00 0.  1.
         11   -1    0    0    0    0 -0.00000000000E+00 -0.00000000000E+00 -0.50000000000E+03  0.50000000000E+03  0.00000000000E+00 0. -1.
        -11    1    1    2    0    0 -0.17712194821E+01 -0.37509403970E+00  0.38381627918E+02  0.38424305793E+02  0.00000000000E+00 0.  1.
         11    1    1    2    0    0  0.10056454352E+02  0.78488410459E+00 -0.49980365727E+03  0.49990543520E+03  0.00000000000E+00 0. -1.
        -15    1    1    2    0    0 -0.68123764429E+01 -0.37322960792E+01  0.41379681601E+03  0.41387353283E+03  0.17770000000E+01 0.  1.
         15    1    1    2    0    0 -0.14728584270E+01  0.33225060143E+01  0.47625213344E+02  0.47796726177E+02  0.17770000000E+01 0. -1.
</event>
<event>
 6    1  0.3836009E-003  0.5251528E+03  0.7546771E-02  0.9345223E-01
        -11   -1    0    0    0    0  0.00000000000E+00  0.00000000000E+00  0.50000000000E+03  0.50000000000E+03  0.00000000000E+00 0.  1.
         11   -1    0    0    0    0 -0.00000000000E+00 -0.00000000000E+00 -0.50000000000E+03  0.50000000000E+03  0.00000000000E+00 0. -1.
        -11    1    1    2    0    0 -0.60575462860E+01 -0.18098671437E+01  0.40394922596E+03  0.40399869633E+03  0.00000000000E+00 0.  1.
         11    1    1    2    0    0  0.18770884050E+02  0.23566897650E+02 -0.47389044426E+03  0.47484723640E+03  0.00000000000E+00 0. -1.
        -15    1    1    2    0    0 -0.25029206353E+02 -0.56596288427E+02  0.45036464170E+02  0.76557441626E+02  0.17770000000E+01 0.  1.
         15    1    1    2    0    0  0.12315868589E+02  0.34839257920E+02  0.24904754129E+02  0.44596625643E+02  0.17770000000E+01 0. -1.
</event>
<event>
 6    1  0.3836009E-003  0.5013314E+03  0.7546771E-02  0.9396835E-01
        -11   -1    0    0    0    0  0.00000000000E+00  0.00000000000E+00  0.50000000000E+03  0.50000000000E+03  0.00000000000E+00 0.  1.
         11   -1    0    0    0    0 -0.00000000000E+00 -0.00000000000E+00 -0.50000000000E+03  0.50000000000E+03  0.00000000000E+00 0. -1.
        -11    1    1    2    0    0  0.20340728389E+02  0.14290804772E+02  0.49804858063E+03  0.49866858835E+03  0.00000000000E+00 0.  1.
         11    1    1    2    0    0  0.32908365121E+01 -0.31975550049E+01 -0.27635901070E+03  0.27639709976E+03  0.00000000000E+00 0. -1.
        -15    1    1    2    0    0 -0.26305264453E+02 -0.14649215948E+02 -0.21189502696E+03  0.21403090115E+03  0.17770000000E+01 0. -1.
         15    1    1    2    0    0  0.26736995511E+01  0.35559661804E+01 -0.97945429698E+01  0.10903410739E+02  0.17770000000E+01 0.  1.
</event>
<event>
 6    1  0.3836009E-003  0.5010434E+03  0.7546771E-02  0.9397478E-01
        -11   -1    0    0    0    0  0.00000000000E+00  0.00000000000E+00  0.50000000000E+03  0.50000000000E+03  0.00000000000E+00 0.  1.
         11   -1    0    0    0    0 -0.00000000000E+00 -0.00000000000E+00 -0.50000000000E+03  0.50000000000E+03  0.00000000000E+00 0.  1.
        -11    1    1    2    0    0  0.16321508610E+01 -0.49856137399E+01  0.21777725859E+03  0.21784043384E+03  0.00000000000E+00 0.  1.
         11    1    1    2    0    0  0.87103367138E+01  0.58603688908E+01 -0.49884611018E+03  0.49895656678E+03  0.00000000000E+00 0.  1.
        -15    1    1    2    0    0  0.20819776206E+01  0.76357436563E+01  0.22421162523E+03  0.22435830680E+03  0.17770000000E+01 0.  1.
         15    1    1    2    0    0 -0.12424465195E+02 -0.85104988072E+01  0.56857226367E+02  0.58844692577E+02  0.17770000000E+01 0. -1.
</event>
<event>
 6    1  0.3836009E-003  0.5057726E+03  0.7546771E-02  0.9386985E-01
        -11   -1    0    0    0    0  0.00000000000E+00  0.00000000000E+00  0.50000000000E+03  0.50000000000E+03  0.00000000000E+00 0.  1.
         11   -1    0    0    0    0 -0.00000000000E+00 -0.00000000000E+00 -0.50000000000E+03  0.50000000000E+03  0.00000000000E+00 0. -1.
        -11    1    1    2    0    0  0.65083241380E+01  0.77256365998E+01  0.13311438580E+03  0.13349712900E+03  0.00000000000E+00 0.  1.
         11    1    1    2    0    0 -0.88807546670E+01  0.64445014454E+00 -0.49414716619E+03  0.49422738186E+03  0.00000000000E+00 0. -1.
        -15    1    1    2    0    0 -0.83600968055E+01 -0.13258968174E+02  0.35995466427E+03  0.36030016585E+03  0.17770000000E+01 0.  1.
         15    1    1    2    0    0  0.10732527335E+02  0.48888814297E+01  0.10781161265E+01  0.11975323294E+02  0.17770000000E+01 0. -1.
</event>
<event>
 6    1  0.3836009E-003  0.5033377E+03  0.7546771E-02  0.9392372E-01
        -11   -1    0    0    0    0  0.00000000000E+00  0.00000000000E+00  0.50000000000E+03  0.50000000000E+03  0.00000000000E+00 0. -1.
         11   -1    0    0    0    0 -0.00000000000E+00 -0.00000000000E+00 -0.50000000000E+03  0.50000000000E+03  0.00000000000E+00 0.  1.
        -11    1    1    2    0    0 -0.78869037741E+01  0.27722198580E+01  0.47783397762E+03  0.47790710251E+03  0.00000000000E+00 0. -1.
         11    1    1    2    0    0 -0.65356905854E+01  0.42721753117E+01 -0.49660095227E+03  0.49666233251E+03  0.00000000000E+00 0.  1.
        -15    1    1    2    0    0  0.25945196374E+01 -0.27627259381E+01  0.28441957766E+01  0.50607672712E+01  0.17770000000E+01 0. -1.
         15    1    1    2    0    0  0.11828074722E+02 -0.42816692316E+01  0.15922778870E+02  0.20369797716E+02  0.17770000000E+01 0.  1.
</event>
<event>
 6    1  0.3836009E-003  0.5170020E+03  0.7546771E-02  0.9362550E-01
        -11   -1    0    0    0    0  0.00000000000E+00  0.00000000000E+00  0.50000000000E+03  0.50000000000E+03  0.00000000000E+00 0.  1.
         11   -1    0    0    0    0 -0.00000000000E+00 -0.00000000000E+00 -0.50000000000E+03  0.50000000000E+03  0.00000000000E+00 0.  1.
        -11    1    1    2    0    0  0.16444376027E+02  0.14623011183E+02  0.48249640908E+03  0.48299796556E+03  0.00000000000E+00 0.  1.
         11    1    1    2    0    0 -0.21675184456E+01  0.88074885298E+01 -0.46438041949E+03  0.46446899142E+03  0.00000000000E+00 0.  1.
        -15    1    1    2    0    0 -0.11464781967E+00 -0.97277675876E+01  0.12586724520E+02  0.16007059989E+02  0.17770000000E+01 0.  1.
         15    1    1    2    0    0 -0.14162209762E+02 -0.13702732125E+02 -0.30702714117E+02  0.36525983028E+02  0.17770000000E+01 0. -1.
</event>
<event>
 6    1  0.3836009E-003  0.5041480E+03  0.7546771E-02  0.9390576E-01
        -11   -1    0    0    0    0  0.00000000000E+00  0.00000000000E+00  0.50000000000E+03  0.50000000000E+03  0.00000000000E+00 0. -1.
         11   -1    0    0    0    0 -0.00000000000E+00 -0.00000000000E+00 -0.50000000000E+03  0.50000000000E+03  0.00000000000E+00 0.  1.
        -11    1    1    2    0    0 -0.53225960100E+01  0.13177126558E+02  0.49564827891E+03  0.49585197699E+03  0.00000000000E+00 0. -1.
         11    1    1    2    0    0  0.68739599598E+01  0.15947870107E+01 -0.46821969694E+03  0.46827286839E+03  0.00000000000E+00 0.  1.
        -15    1    1    2    0    0 -0.49673608161E+01 -0.48944584572E+01 -0.23486864593E+02  0.24564627709E+02  0.17770000000E+01 0. -1.
         15    1    1    2    0    0  0.34159968663E+01 -0.98774551111E+01 -0.39417173842E+01  0.11310526911E+02  0.17770000000E+01 0.  1.
</event>
<event>
 6    1  0.3836009E-003  0.5037080E+03  0.7546771E-02  0.9391551E-01
        -11   -1    0    0    0    0  0.00000000000E+00  0.00000000000E+00  0.50000000000E+03  0.50000000000E+03  0.00000000000E+00 0. -1.
         11   -1    0    0    0    0 -0.00000000000E+00 -0.00000000000E+00 -0.50000000000E+03  0.50000000000E+03  0.00000000000E+00 0.  1.
        -11    1    1    2    0    0 -0.39243161039E+01 -0.83044807629E+01  0.36593811644E+03  0.36605337005E+03  0.00000000000E+00 0. -1.
         11    1    1    2    0    0 -0.19616513402E+01  0.70932530567E+01 -0.49623742691E+03  0.49629199689E+03  0.00000000000E+00 0.  1.
        -15    1    1    2    0    0  0.12988821343E+02 -0.13530099565E+02  0.26246447711E+02  0.32307999328E+02  0.17770000000E+01 0.  1.
         15    1    1    2    0    0 -0.71028538992E+01  0.14741327271E+02  0.10405286275E+03  0.10534663373E+03  0.17770000000E+01 0. -1.
</event>
<event>
 6    1  0.3836009E-003  0.5009834E+03  0.7546771E-02  0.9397612E-01
        -11   -1    0    0    0    0  0.00000000000E+00  0.00000000000E+00  0.50000000000E+03  0.50000000000E+03  0.00000000000E+00 0. -1.
         11   -1    0    0    0    0 -0.00000000000E+00 -0.00000000000E+00 -0.50000000000E+03  0.50000000000E+03  0.00000000000E+00 0.  1.
        -11    1    1    2    0    0 -0.91948385257E+01  0.47917260959E+01  0.33718663184E+03  0.33734600988E+03  0.00000000000E+00 0. -1.
         11    1    1    2    0    0  0.78788864347E+01 -0.10096871817E+02 -0.49885223735E+03  0.49901661133E+03  0.00000000000E+00 0.  1.
        -15    1    1    2    0    0 -0.85271275994E+01  0.55853025296E+01  0.13039452379E+03  0.13080442299E+03  0.17770000000E+01 0. -1.
         15    1    1    2    0    0  0.98430796904E+01 -0.28015680815E+00  0.31271081716E+02  0.32832955797E+02  0.17770000000E+01 0.  1.
</event>
<event>
 6    1  0.3836009E-003  0.5317284E+03  0.7546771E-02  0.9331486E-01
        -11   -1    0    0    0    0  0.00000000000E+00  0.00000000000E+00  0.50000000000E+03  0.50000000000E+03  0.00000000000E+00 0. -1.
         11   -1    0    0    0    0 -0.00000000000E+00 -0.00000000000E+00 -0.50000000000E+03  0.50000000000E+03  0.00000000000E+00 0.  1.
        -11    1    1    2    0    0  0.98060901862E+01  0.84697249903E+01  0.46809233716E+03  0.46827164313E+03  0.00000000000E+00 0. -1.
         11    1    1    2    0    0  0.64857142574E+01  0.16464665908E+01 -0.35833783140E+03  0.35840030239E+03  0.00000000000E+00 0.  1.
        -15    1    1    2    0    0 -0.12482681276E+02 -0.94864042109E+01  0.29794324250E+02  0.33714517395E+02  0.17770000000E+01 0.  1.
         15    1    1    2    0    0 -0.38091231678E+01 -0.62978737023E+00 -0.13954883001E+03  0.13961353709E+03  0.17770000000E+01 0. -1.
</event>
<event>
 6    1  0.3836009E-003  0.5015126E+03  0.7546771E-02  0.9396432E-01
        -11   -1    0    0    0    0  0.00000000000E+00  0.00000000000E+00  0.50000000000E+03  0.50000000000E+03  0.00000000000E+00 0. -1.
         11   -1    0    0    0    0 -0.00000000000E+00 -0.00000000000E+00 -0.50000000000E+03  0.50000000000E+03  0.00000000000E+00 0. -1.
        -11    1    1    2    0    0  0.38502460023E+01 -0.29698480064E+01  0.26551740552E+03  0.26556192691E+03  0.00000000000E+00 0. -1.
         11    1    1    2    0    0  0.11249372934E+02 -0.27253102309E+01 -0.49835302948E+03  0.49848742983E+03  0.00000000000E+00 0. -1.
        -15    1    1    2    0    0  0.49791413965E+01  0.98559998569E+01  0.29056262819E+02  0.31134494057E+02  0.17770000000E+01 0.  1.
         15    1    1    2    0    0 -0.20078760333E+02 -0.41608416196E+01  0.20377936114E+03  0.20481614921E+03  0.17770000000E+01 0. -1.
</event>
<event>
 6    1  0.3836009E-003  0.5005293E+03  0.7546771E-02  0.9398626E-01
        -11   -1    0    0    0    0  0.00000000000E+00  0.00000000000E+00  0.50000000000E+03  0.50000000000E+03  0.00000000000E+00 0. -1.
         11   -1    0    0    0    0 -0.00000000000E+00 -0.00000000000E+00 -0.50000000000E+03  0.50000000000E+03  0.00000000000E+00 0.  1.
        -11    1    1    2    0    0  0.18645481356E+02  0.37837761761E+01  0.49910816543E+03  0.49947065152E+03  0.00000000000E+00 0. -1.
         11    1    1    2    0    0  0.25297281001E+01 -0.21802842534E+01 -0.40719945064E+02  0.40856665181E+02  0.00000000000E+00 0.  1.
        -15    1    1    2    0    0 -0.16051214986E+02  0.22290257319E+01 -0.10817627580E+03  0.10939778075E+03  0.17770000000E+01 0. -1.
         15    1    1    2    0    0 -0.51239944706E+01 -0.38325176547E+01 -0.35021194456E+03  0.35027490254E+03  0.17770000000E+01 0.  1.
</event>
<event>
 6    1  0.3836009E-003  0.5004337E+03  0.7546771E-02  0.9398840E-01
        -11   -1    0    0    0    0  0.00000000000E+00  0.00000000000E+00  0.50000000000E+03  0.50000000000E+03  0.00000000000E+00 0. -1.
         11   -1    0    0    0    0 -0.00000000000E+00 -0.00000000000E+00 -0.50000000000E+03  0.50000000000E+03  0.00000000000E+00 0. -1.
        -11    1    1    2    0    0 -0.37679974509E+01  0.58976782841E+01  0.24750364334E+03  0.24760257245E+03  0.00000000000E+00 0. -1.
         11    1    1    2    0    0  0.21382640362E+01 -0.76513272635E+01 -0.49950307638E+03  0.49956625015E+03  0.00000000000E+00 0. -1.
        -15    1    1    2    0    0 -0.50555896440E+00  0.59090386410E+01  0.24280370549E+02  0.25057263429E+02  0.17770000000E+01 0. -1.
         15    1    1    2    0    0  0.21352923790E+01 -0.41553896616E+01  0.22771906249E+03  0.22777391397E+03  0.17770000000E+01 0.  1.
</event>
<event>
 6    1  0.3836009E-003  0.5027329E+03  0.7546771E-02  0.9393715E-01
        -11   -1    0    0    0    0  0.00000000000E+00  0.00000000000E+00  0.50000000000E+03  0.50000000000E+03  0.00000000000E+00 0. -1.
         11   -1    0    0    0    0 -0.00000000000E+00 -0.00000000000E+00 -0.50000000000E+03  0.50000000000E+03  0.00000000000E+00 0.  1.
        -11    1    1    2    0    0 -0.63205524939E+01 -0.43373255953E+01  0.49720801017E+03  0.49726709840E+03  0.00000000000E+00 0. -1.
         11    1    1    2    0    0 -0.74836596276E+01  0.54114687852E+01 -0.44948074270E+03  0.44957560789E+03  0.00000000000E+00 0.  1.
        -15    1    1    2    0    0  0.11539236810E+02 -0.40533340312E+01 -0.47418860235E+02  0.49002954379E+02  0.17770000000E+01 0.  1.
         15    1    1    2    0    0  0.22649753118E+01  0.29791908413E+01 -0.30840723311E+00  0.41543393282E+01  0.17770000000E+01 0. -1.
</event>
<event>
 6    1  0.6979767E-003  0.5005061E+03  0.7546771E-02  0.9398678E-01
        -11   -1    0    0    0    0  0.00000000000E+00  0.00000000000E+00  0.50000000000E+03  0.50000000000E+03  0.00000000000E+00 0. -1.
         11   -1    0    0    0    0 -0.00000000000E+00 -0.00000000000E+00 -0.50000000000E+03  0.50000000000E+03  0.00000000000E+00 0. -1.
        -11    1    1    2    0    0  0.86946227614E+01 -0.18011766447E+01  0.49941499098E+03  0.49949391780E+03  0.00000000000E+00 0. -1.
         11    1    1    2    0    0 -0.30188867236E+01 -0.33090830798E+01 -0.23524597326E+03  0.23528861350E+03  0.00000000000E+00 0. -1.
        -15    1    1    2    0    0 -0.22085742302E+01  0.23393832396E+01 -0.25349548865E+03  0.25352213120E+03  0.17770000000E+01 0.  1.
         15    1    1    2    0    0 -0.34671618076E+01  0.27708764849E+01 -0.10673529072E+02  0.11695337505E+02  0.17770000000E+01 0. -1.
</event>
<event>
 6    1  0.3836009E-003  0.4839875E+03  0.7546771E-02  0.9436369E-01
        -11   -1    0    0    0    0  0.00000000000E+00  0.00000000000E+00  0.50000000000E+03  0.50000000000E+03  0.00000000000E+00 0.  1.
         11   -1    0    0    0    0 -0.00000000000E+00 -0.00000000000E+00 -0.50000000000E+03  0.50000000000E+03  0.00000000000E+00 0. -1.
        -11    1    1    2    0    0  0.65461010128E+00 -0.24218984669E+02  0.49516750029E+03  0.49575986230E+03  0.00000000000E+00 0.  1.
         11    1    1    2    0    0  0.16057121518E+01  0.19465841575E+01 -0.39242694186E+02  0.39323740264E+02  0.00000000000E+00 0. -1.
        -15    1    1    2    0    0 -0.23392174333E+02 -0.27915692650E+02 -0.18999581727E+03  0.19346329891E+03  0.17770000000E+01 0. -1.
         15    1    1    2    0    0  0.21131852080E+02  0.50188093161E+02 -0.26592898883E+03  0.27145309852E+03  0.17770000000E+01 0.  1.
</event>
<event>
 6    1  0.3836009E-003  0.5239988E+03  0.7546771E-02  0.9347656E-01
        -11   -1    0    0    0    0  0.00000000000E+00  0.00000000000E+00  0.50000000000E+03  0.50000000000E+03  0.00000000000E+00 0. -1.
         11   -1    0    0    0    0 -0.00000000000E+00 -0.00000000000E+00 -0.50000000000E+03  0.50000000000E+03  0.00000000000E+00 0. -1.
        -11    1    1    2    0    0 -0.25082573272E+02  0.18280101461E+02  0.47498826529E+03  0.47600120772E+03  0.00000000000E+00 0. -1.
         11    1    1    2    0    0  0.50219039958E+02  0.10731281274E+02 -0.42681804772E+03  0.42989621798E+03  0.00000000000E+00 0. -1.
        -15    1    1    2    0    0 -0.48417136560E+02 -0.28843539733E+02 -0.40867523848E+02  0.69638216027E+02  0.17770000000E+01 0. -1.
         15    1    1    2    0    0  0.23280669874E+02 -0.16784300164E+00 -0.73026937225E+01  0.24464358272E+02  0.17770000000E+01 0.  1.
</event>
<event>
 6    1  0.3836009E-003  0.5047274E+03  0.7546771E-02  0.9389294E-01
        -11   -1    0    0    0    0  0.00000000000E+00  0.00000000000E+00  0.50000000000E+03  0.50000000000E+03  0.00000000000E+00 0.  1.
         11   -1    0    0    0    0 -0.00000000000E+00 -0.00000000000E+00 -0.50000000000E+03  0.50000000000E+03  0.00000000000E+00 0. -1.
        -11    1    1    2    0    0  0.21945887650E+02  0.10530946966E+02  0.49467410230E+03  0.49527264240E+03  0.00000000000E+00 0.  1.
         11    1    1    2    0    0  0.37143968055E+01 -0.11920278011E+02 -0.40071294299E+03  0.40090741132E+03  0.00000000000E+00 0. -1.
        -15    1    1    2    0    0 -0.51612227790E+01 -0.11167863755E+02 -0.64820192929E+02  0.66001322273E+02  0.17770000000E+01 0.  1.
         15    1    1    2    0    0 -0.20499061676E+02  0.12557194800E+02 -0.29140966383E+02  0.37818624004E+02  0.17770000000E+01 0. -1.
</event>
<event>
 6    1  0.3836009E-003  0.5054716E+03  0.7546771E-02  0.9387649E-01
        -11   -1    0    0    0    0  0.00000000000E+00  0.00000000000E+00  0.50000000000E+03  0.50000000000E+03  0.00000000000E+00 0.  1.
         11   -1    0    0    0    0 -0.00000000000E+00 -0.00000000000E+00 -0.50000000000E+03  0.50000000000E+03  0.00000000000E+00 0.  1.
        -11    1    1    2    0    0 -0.10927294489E+01 -0.88434084375E+01  0.46825513254E+03  0.46833990763E+03  0.00000000000E+00 0.  1.
         11    1    1    2    0    0  0.58547190081E+01  0.33308227128E+01 -0.49448254564E+03  0.49452842189E+03  0.00000000000E+00 0.  1.
        -15    1    1    2    0    0 -0.94046005336E+00  0.11855631203E+01  0.29947114090E+02  0.30037932625E+02  0.17770000000E+01 0. -1.
         15    1    1    2    0    0 -0.38215295058E+01  0.43270226044E+01 -0.37197009877E+01  0.70937378596E+01  0.17770000000E+01 0.  1.
</event>
<event>
 6    1  0.3836009E-003  0.5025328E+03  0.7546771E-02  0.9394160E-01
        -11   -1    0    0    0    0  0.00000000000E+00  0.00000000000E+00  0.50000000000E+03  0.50000000000E+03  0.00000000000E+00 0. -1.
         11   -1    0    0    0    0 -0.00000000000E+00 -0.00000000000E+00 -0.50000000000E+03  0.50000000000E+03  0.00000000000E+00 0. -1.
        -11    1    1    2    0    0  0.11603244104E+01  0.10154783766E+02  0.49736222203E+03  0.49746723097E+03  0.00000000000E+00 0. -1.
         11    1    1    2    0    0  0.43565306928E+01 -0.44400533176E+00 -0.30184249564E+03  0.30187425971E+03  0.00000000000E+00 0. -1.
        -15    1    1    2    0    0 -0.58574525026E+01 -0.18328508563E+02 -0.18825163033E+03  0.18924079377E+03  0.17770000000E+01 0.  1.
         15    1    1    2    0    0  0.34059739939E+00  0.86177301281E+01 -0.72680960587E+01  0.11417715554E+02  0.17770000000E+01 0. -1.
</event>
<event>
 6    1  0.3836009E-003  0.5054769E+03  0.7546771E-02  0.9387637E-01
        -11   -1    0    0    0    0  0.00000000000E+00  0.00000000000E+00  0.50000000000E+03  0.50000000000E+03  0.00000000000E+00 0. -1.
         11   -1    0    0    0    0 -0.00000000000E+00 -0.00000000000E+00 -0.50000000000E+03  0.50000000000E+03  0.00000000000E+00 0.  1.
        -11    1    1    2    0    0 -0.11553106421E+02  0.32307846194E+01  0.49437759278E+03  0.49452312027E+03  0.00000000000E+00 0. -1.
         11    1    1    2    0    0 -0.16279670024E+01  0.98978285984E+01 -0.45651311882E+03  0.45662330749E+03  0.00000000000E+00 0.  1.
        -15    1    1    2    0    0  0.75789244831E+01  0.62345074988E+01 -0.80308031700E+01  0.12804714313E+02  0.17770000000E+01 0. -1.
         15    1    1    2    0    0  0.56021489400E+01 -0.19363120717E+02 -0.29833670785E+02  0.36048857931E+02  0.17770000000E+01 0.  1.
</event>
<event>
 6    1  0.3836009E-003  0.5044125E+03  0.7546771E-02  0.9389990E-01
        -11   -1    0    0    0    0  0.00000000000E+00  0.00000000000E+00  0.50000000000E+03  0.50000000000E+03  0.00000000000E+00 0.  1.
         11   -1    0    0    0    0 -0.00000000000E+00 -0.00000000000E+00 -0.50000000000E+03  0.50000000000E+03  0.00000000000E+00 0.  1.
        -11    1    1    2    0    0 -0.63554387832E+01  0.26585225327E+02  0.49483313636E+03  0.49558752874E+03  0.00000000000E+00 0.  1.
         11    1    1    2    0    0  0.30514475773E+02 -0.19130976349E+02 -0.35533218770E+03  0.35715275598E+03  0.00000000000E+00 0.  1.
        -15    1    1    2    0    0 -0.21234982023E+02 -0.42895141311E+01 -0.27000643224E+02  0.34662903175E+02  0.17770000000E+01 0. -1.
         15    1    1    2    0    0 -0.29240549664E+01 -0.31647348473E+01 -0.11250030543E+03  0.11259681210E+03  0.17770000000E+01 0.  1.
</event>
<event>
 6    1  0.4276039E-003  0.5023039E+03  0.7546771E-02  0.9394669E-01
        -11   -1    0    0    0    0  0.00000000000E+00  0.00000000000E+00  0.50000000000E+03  0.50000000000E+03  0.00000000000E+00 0. -1.
         11   -1    0    0    0    0 -0.00000000000E+00 -0.00000000000E+00 -0.50000000000E+03  0.50000000000E+03  0.00000000000E+00 0. -1.
        -11    1    1    2    0    0  0.35364499878E+01 -0.78192817446E+01  0.49762212657E+03  0.49769612063E+03  0.00000000000E+00 0. -1.
         11    1    1    2    0    0 -0.63268792691E+01 -0.42441544504E+00 -0.40266264534E+03  0.40271257180E+03  0.00000000000E+00 0. -1.
        -15    1    1    2    0    0 -0.68044513114E+00  0.52816935882E+01 -0.12468079912E+01  0.57507870681E+01  0.17770000000E+01 0.  1.
         15    1    1    2    0    0  0.34708744125E+01  0.29620036015E+01 -0.93712673233E+02  0.93840520501E+02  0.17770000000E+01 0. -1.
</event>
<event>
 6    1  0.3836009E-003  0.5480024E+03  0.7546771E-02  0.9298375E-01
        -11   -1    0    0    0    0  0.00000000000E+00  0.00000000000E+00  0.50000000000E+03  0.50000000000E+03  0.00000000000E+00 0. -1.
         11   -1    0    0    0    0 -0.00000000000E+00 -0.00000000000E+00 -0.50000000000E+03  0.50000000000E+03  0.00000000000E+00 0.  1.
        -11    1    1    2    0    0  0.73791900095E+02  0.20870278317E+02  0.38805238460E+03  0.39555715925E+03  0.00000000000E+00 0. -1.
         11    1    1    2    0    0 -0.13860755139E+02  0.57784141878E+01 -0.45174804296E+03  0.45199757181E+03  0.00000000000E+00 0.  1.
        -15    1    1    2    0    0 -0.36974995154E+02 -0.63899160553E+01  0.98877441104E+02  0.10577281022E+03  0.17770000000E+01 0. -1.
         15    1    1    2    0    0 -0.22956149802E+02 -0.20258776450E+02 -0.35181782745E+02  0.46672458721E+02  0.17770000000E+01 0.  1.
</event>
<event>
 6    1  0.3836009E-003  0.5033812E+03  0.7546771E-02  0.9392276E-01
        -11   -1    0    0    0    0  0.00000000000E+00  0.00000000000E+00  0.50000000000E+03  0.50000000000E+03  0.00000000000E+00 0. -1.
         11   -1    0    0    0    0 -0.00000000000E+00 -0.00000000000E+00 -0.50000000000E+03  0.50000000000E+03  0.00000000000E+00 0. -1.
        -11    1    1    2    0    0  0.75293178118E+01  0.18444950168E+00  0.49656164150E+03  0.49661875564E+03  0.00000000000E+00 0. -1.
         11    1    1    2    0    0 -0.50622264414E+01  0.74031315540E+01 -0.30495093300E+03  0.30508278226E+03  0.00000000000E+00 0. -1.
        -15    1    1    2    0    0 -0.12869608377E+02 -0.10759225679E+02 -0.19287542150E+02  0.25623324690E+02  0.17770000000E+01 0.  1.
         15    1    1    2    0    0  0.10402517007E+02  0.31716446233E+01 -0.17232316635E+03  0.17267513741E+03  0.17770000000E+01 0. -1.
</event>
<event>
 6    1  0.3836009E-003  0.5008402E+03  0.7546771E-02  0.9397932E-01
        -11   -1    0    0    0    0  0.00000000000E+00  0.00000000000E+00  0.50000000000E+03  0.50000000000E+03  0.00000000000E+00 0. -1.
         11   -1    0    0    0    0 -0.00000000000E+00 -0.00000000000E+00 -0.50000000000E+03  0.50000000000E+03  0.00000000000E+00 0. -1.
        -11    1    1    2    0    0  0.17725486393E+01  0.45567253256E+01  0.32780482612E+03  0.32784128736E+03  0.00000000000E+00 0. -1.
         11    1    1    2    0    0  0.27460378041E+01  0.72336087247E+01 -0.49909984759E+03  0.49915981777E+03  0.00000000000E+00 0. -1.
        -15    1    1    2    0    0 -0.36470800942E+01 -0.28449769949E+01  0.77577046581E+01  0.92051506168E+01  0.17770000000E+01 0. -1.
         15    1    1    2    0    0 -0.87150634912E+00 -0.89453570554E+01  0.16353731681E+03  0.16379374425E+03  0.17770000000E+01 0.  1.
</event>
<event>
 6    1  0.3836009E-003  0.5078173E+03  0.7546771E-02  0.9382486E-01
        -11   -1    0    0    0    0  0.00000000000E+00  0.00000000000E+00  0.50000000000E+03  0.50000000000E+03  0.00000000000E+00 0. -1.
         11   -1    0    0    0    0 -0.00000000000E+00 -0.00000000000E+00 -0.50000000000E+03  0.50000000000E+03  0.00000000000E+00 0. -1.
        -11    1    1    2    0    0  0.72214279905E+01  0.38103046929E+02  0.49065241521E+03  0.49218267316E+03  0.00000000000E+00 0. -1.
         11    1    1    2    0    0  0.15911045899E+02  0.65697273018E+01 -0.13159493292E+03  0.13271604676E+03  0.00000000000E+00 0. -1.
        -15    1    1    2    0    0 -0.19324078902E+02  0.23993509909E+02 -0.52308144724E+02  0.60732267178E+02  0.17770000000E+01 0. -1.
         15    1    1    2    0    0 -0.38083949871E+01 -0.68666284139E+02 -0.30674933757E+03  0.31436901291E+03  0.17770000000E+01 0.  1.
</event>
<event>
 6    1  0.3836009E-003  0.5026501E+03  0.7546771E-02  0.9393899E-01
        -11   -1    0    0    0    0  0.00000000000E+00  0.00000000000E+00  0.50000000000E+03  0.50000000000E+03  0.00000000000E+00 0.  1.
         11   -1    0    0    0    0 -0.00000000000E+00 -0.00000000000E+00 -0.50000000000E+03  0.50000000000E+03  0.00000000000E+00 0. -1.
        -11    1    1    2    0    0 -0.58291928001E+01  0.37752892608E+01  0.49730142755E+03  0.49734991921E+03  0.00000000000E+00 0.  1.
         11    1    1    2    0    0  0.81803980091E+01 -0.15624083957E+01 -0.45017192025E+03  0.45024895093E+03  0.00000000000E+00 0. -1.
        -15    1    1    2    0    0  0.42209881546E+00 -0.53952363203E+00  0.22134884160E+01  0.29200193710E+01  0.17770000000E+01 0.  1.
         15    1    1    2    0    0 -0.27733040244E+01 -0.16733572331E+01 -0.49342995714E+02  0.49481110484E+02  0.17770000000E+01 0. -1.
</event>
<event>
 6    1  0.3836009E-003  0.5115522E+03  0.7546771E-02  0.9374325E-01
        -11   -1    0    0    0    0  0.00000000000E+00  0.00000000000E+00  0.50000000000E+03  0.50000000000E+03  0.00000000000E+00 0.  1.
         11   -1    0    0    0    0 -0.00000000000E+00 -0.00000000000E+00 -0.50000000000E+03  0.50000000000E+03  0.00000000000E+00 0. -1.
        -11    1    1    2    0    0  0.20168670200E+02  0.68258299435E+01  0.36257352374E+03  0.36319819290E+03  0.00000000000E+00 0.  1.
         11    1    1    2    0    0 -0.12149935073E+02  0.32591992970E+01 -0.48828580121E+03  0.48844781396E+03  0.00000000000E+00 0. -1.
        -15    1    1    2    0    0  0.92903439617E+01 -0.10916526542E+02 -0.58934604077E+01  0.15600373305E+02  0.17770000000E+01 0.  1.
         15    1    1    2    0    0 -0.17309079088E+02  0.83149730149E+00  0.13160573788E+03  0.13275361983E+03  0.17770000000E+01 0. -1.
</event>
<event>
 6    1  0.3836009E-003  0.5663074E+03  0.7546771E-02  0.9262559E-01
        -11   -1    0    0    0    0  0.00000000000E+00  0.00000000000E+00  0.50000000000E+03  0.50000000000E+03  0.00000000000E+00 0.  1.
         11   -1    0    0    0    0 -0.00000000000E+00 -0.00000000000E+00 -0.50000000000E+03  0.50000000000E+03  0.00000000000E+00 0.  1.
        -11    1    1    2    0    0  0.22738963969E+02  0.65141506720E+01  0.23713325202E+03  0.23831003725E+03  0.00000000000E+00 0.  1.
         11    1    1    2    0    0 -0.55269136445E+02 -0.26955053763E+02 -0.42931105099E+03  0.43369255339E+03  0.00000000000E+00 0.  1.
        -15    1    1    2    0    0 -0.15631784091E+02 -0.10468067110E+02  0.24759541718E+03  0.24831548771E+03  0.17770000000E+01 0. -1.
         15    1    1    2    0    0  0.48161956567E+02  0.30908970201E+02 -0.55417618209E+02  0.79681921640E+02  0.17770000000E+01 0.  1.
</event>
<event>
 6    1  0.3836009E-003  0.5002112E+03  0.7546771E-02  0.9399337E-01
        -11   -1    0    0    0    0  0.00000000000E+00  0.00000000000E+00  0.50000000000E+03  0.50000000000E+03  0.00000000000E+00 0. -1.
         11   -1    0    0    0    0 -0.00000000000E+00 -0.00000000000E+00 -0.50000000000E+03  0.50000000000E+03  0.00000000000E+00 0.  1.
        -11    1    1    2    0    0 -0.99098819284E+01  0.34448859093E+01  0.49967863467E+03  0.49978876633E+03  0.00000000000E+00 0. -1.
         11    1    1    2    0    0 -0.26275578571E+01 -0.45505117944E+01 -0.30025547819E+03  0.30030145421E+03  0.00000000000E+00 0.  1.
        -15    1    1    2    0    0  0.10336586580E+02  0.33812751350E+00 -0.12918574023E+03  0.12961123624E+03  0.17770000000E+01 0.  1.
         15    1    1    2    0    0  0.22008532057E+01  0.76749837166E+00 -0.70237416248E+02  0.70298543220E+02  0.17770000000E+01 0. -1.
</event>
<event>
 6    1  0.3836009E-003  0.5039760E+03  0.7546771E-02  0.9390957E-01
        -11   -1    0    0    0    0  0.00000000000E+00  0.00000000000E+00  0.50000000000E+03  0.50000000000E+03  0.00000000000E+00 0. -1.
         11   -1    0    0    0    0 -0.00000000000E+00 -0.00000000000E+00 -0.50000000000E+03  0.50000000000E+03  0.00000000000E+00 0.  1.
        -11    1    1    2    0    0  0.17933883937E+01  0.61300547902E+01  0.41510673202E+03  0.41515586565E+03  0.00000000000E+00 0. -1.
         11    1    1    2    0    0  0.26894452897E+01 -0.85352385804E+01 -0.49594327841E+03  0.49602401032E+03  0.00000000000E+00 0.  1.
        -15    1    1    2    0    0 -0.41194292650E+01  0.66733682784E+01  0.83218840049E+02  0.83606438806E+02  0.17770000000E+01 0. -1.
         15    1    1    2    0    0 -0.36340441833E+00 -0.42681844882E+01 -0.23822936629E+01  0.52136852315E+01  0.17770000000E+01 0.  1.
</event>
<event>
 6    1  0.3836009E-003  0.5230123E+03  0.7546771E-02  0.9349741E-01
        -11   -1    0    0    0    0  0.00000000000E+00  0.00000000000E+00  0.50000000000E+03  0.50000000000E+03  0.00000000000E+00 0. -1.
         11   -1    0    0    0    0 -0.00000000000E+00 -0.00000000000E+00 -0.50000000000E+03  0.50000000000E+03  0.00000000000E+00 0.  1.
        -11    1    1    2    0    0 -0.36426542907E+01  0.31180634315E+02  0.47595355478E+03  0.47698772227E+03  0.00000000000E+00 0. -1.
         11    1    1    2    0    0 -0.28822140517E+01 -0.47398099301E+01 -0.26422222149E+03  0.26428044817E+03  0.00000000000E+00 0.  1.
        -15    1    1    2    0    0 -0.17631635964E+02 -0.38380145668E+02  0.29332350047E+01  0.42375367430E+02  0.17770000000E+01 0.  1.
         15    1    1    2    0    0  0.24156504307E+02  0.11939321283E+02 -0.21466456830E+03  0.21635646213E+03  0.17770000000E+01 0. -1.
</event>
<event>
 6    1  0.3836009E-003  0.4767522E+03  0.7546771E-02  0.9453386E-01
        -11   -1    0    0    0    0  0.00000000000E+00  0.00000000000E+00  0.50000000000E+03  0.50000000000E+03  0.00000000000E+00 0. -1.
         11   -1    0    0    0    0 -0.00000000000E+00 -0.00000000000E+00 -0.50000000000E+03  0.50000000000E+03  0.00000000000E+00 0. -1.
        -11    1    1    2    0    0 -0.96428290172E+01  0.23608569737E+02  0.46776948809E+03  0.46846413172E+03  0.00000000000E+00 0. -1.
         11    1    1    2    0    0 -0.61874372842E+01  0.22334015508E+01 -0.48564472302E+03  0.48568927254E+03  0.00000000000E+00 0. -1.
        -15    1    1    2    0    0  0.15566507994E+02 -0.29234379901E+02  0.22316064117E+02  0.39976612989E+02  0.17770000000E+01 0. -1.
         15    1    1    2    0    0  0.26375830725E+00  0.33924086138E+01 -0.44408291852E+01  0.58699827512E+01  0.17770000000E+01 0.  1.
</event>
<event>
 6    1  0.3836009E-003  0.5030635E+03  0.7546771E-02  0.9392981E-01
        -11   -1    0    0    0    0  0.00000000000E+00  0.00000000000E+00  0.50000000000E+03  0.50000000000E+03  0.00000000000E+00 0.  1.
         11   -1    0    0    0    0 -0.00000000000E+00 -0.00000000000E+00 -0.50000000000E+03  0.50000000000E+03  0.00000000000E+00 0. -1.
        -11    1    1    2    0    0  0.12453244877E+02 -0.31793611794E+01  0.46194424317E+03  0.46212300899E+03  0.00000000000E+00 0.  1.
         11    1    1    2    0    0  0.24127891100E+01  0.94036422275E+01 -0.49684162452E+03  0.49693646464E+03  0.00000000000E+00 0. -1.
        -15    1    1    2    0    0 -0.64601127585E+01 -0.95147485276E+01  0.14717647651E+02  0.18762472592E+02  0.17770000000E+01 0. -1.
         15    1    1    2    0    0 -0.84059212288E+01  0.32904674794E+01  0.20179733697E+02  0.22178053770E+02  0.17770000000E+01 0.  1.
</event>
<event>
 6    1  0.3836009E-003  0.5008449E+03  0.7546771E-02  0.9397921E-01
        -11   -1    0    0    0    0  0.00000000000E+00  0.00000000000E+00  0.50000000000E+03  0.50000000000E+03  0.00000000000E+00 0.  1.
         11   -1    0    0    0    0 -0.00000000000E+00 -0.00000000000E+00 -0.50000000000E+03  0.50000000000E+03  0.00000000000E+00 0. -1.
        -11    1    1    2    0    0  0.93963855995E+01 -0.37006956947E+00  0.39997583568E+03  0.40008636335E+03  0.00000000000E+00 0.  1.
         11    1    1    2    0    0  0.31322395552E+01  0.61840601748E+01 -0.49910695660E+03  0.49915509378E+03  0.00000000000E+00 0. -1.
        -15    1    1    2    0    0 -0.10837983550E+01 -0.56716776506E+01  0.44871788754E+02  0.45276679441E+02  0.17770000000E+01 0.  1.
         15    1    1    2    0    0 -0.11444826800E+02 -0.14231295474E+00  0.54259332165E+02  0.55481863428E+02  0.17770000000E+01 0. -1.
</event>
<event>
 6    1  0.3836009E-003  0.5040260E+03  0.7546771E-02  0.9390846E-01
        -11   -1    0    0    0    0  0.00000000000E+00  0.00000000000E+00  0.50000000000E+03  0.50000000000E+03  0.00000000000E+00 0.  1.
         11   -1    0    0    0    0 -0.00000000000E+00 -0.00000000000E+00 -0.50000000000E+03  0.50000000000E+03  0.00000000000E+00 0. -1.
        -11    1    1    2    0    0  0.87971626783E+00  0.83335208090E+01  0.44471816305E+03  0.44479710657E+03  0.00000000000E+00 0.  1.
         11    1    1    2    0    0  0.70525165219E+01 -0.20320656125E+02 -0.49550740673E+03  0.49597404889E+03  0.00000000000E+00 0. -1.
        -15    1    1    2    0    0 -0.23953524483E+01 -0.15285602483E+01 -0.23480493159E+01  0.40920990182E+01  0.17770000000E+01 0. -1.
         15    1    1    2    0    0 -0.55368803415E+01  0.13515695565E+02  0.53137292996E+02  0.55136745519E+02  0.17770000000E+01 0.  1.
</event>
<event>
 6    1  0.3836009E-003  0.5101281E+03  0.7546771E-02  0.9377428E-01
        -11   -1    0    0    0    0  0.00000000000E+00  0.00000000000E+00  0.50000000000E+03  0.50000000000E+03  0.00000000000E+00 0.  1.
         11   -1    0    0    0    0 -0.00000000000E+00 -0.00000000000E+00 -0.50000000000E+03  0.50000000000E+03  0.00000000000E+00 0.  1.
        -11    1    1    2    0    0  0.77025151668E+01 -0.76644762987E+01  0.48975135345E+03  0.48987188237E+03  0.00000000000E+00 0.  1.
         11    1    1    2    0    0 -0.12906903500E+02 -0.81926152004E+01 -0.44843250564E+03  0.44869301222E+03  0.00000000000E+00 0.  1.
        -15    1    1    2    0    0 -0.78659888666E+01  0.27007846255E+02 -0.26109666271E+02  0.38420957067E+02  0.17770000000E+01 0.  1.
         15    1    1    2    0    0  0.13070377200E+02 -0.11150754756E+02 -0.15209181540E+02  0.23014148342E+02  0.17770000000E+01 0. -1.
</event>
<event>
 6    1  0.3836009E-003  0.5018185E+03  0.7546771E-02  0.9395750E-01
        -11   -1    0    0    0    0  0.00000000000E+00  0.00000000000E+00  0.50000000000E+03  0.50000000000E+03  0.00000000000E+00 0. -1.
         11   -1    0    0    0    0 -0.00000000000E+00 -0.00000000000E+00 -0.50000000000E+03  0.50000000000E+03  0.00000000000E+00 0. -1.
        -11    1    1    2    0    0 -0.65581672422E+01 -0.15189018021E+01  0.49813600403E+03  0.49818148815E+03  0.00000000000E+00 0. -1.
         11    1    1    2    0    0  0.25932554079E+01 -0.93138484271E+01 -0.30223679631E+03  0.30239139172E+03  0.00000000000E+00 0. -1.
        -15    1    1    2    0    0 -0.10297510987E+01 -0.45629971955E+01 -0.29842753636E+01  0.58262302716E+01  0.17770000000E+01 0.  1.
         15    1    1    2    0    0  0.49946629330E+01  0.15395747425E+02 -0.19291493236E+03  0.19360088986E+03  0.17770000000E+01 0. -1.
</event>
<event>
 6    1  0.3836009E-003  0.5038774E+03  0.7546771E-02  0.9391175E-01
        -11   -1    0    0    0    0  0.00000000000E+00  0.00000000000E+00  0.50000000000E+03  0.50000000000E+03  0.00000000000E+00 0.  1.
         11   -1    0    0    0    0 -0.00000000000E+00 -0.00000000000E+00 -0.50000000000E+03  0.50000000000E+03  0.00000000000E+00 0. -1.
        -11    1    1    2    0    0  0.70208527103E+01 -0.58013239028E+01  0.42920442351E+03  0.42930104226E+03  0.00000000000E+00 0.  1.
         11    1    1    2    0    0  0.10845755254E+02 -0.22811808219E+01 -0.49599875181E+03  0.49612256146E+03  0.00000000000E+00 0. -1.
        -15    1    1    2    0    0 -0.20705104473E+02 -0.35204202222E+01  0.43527127578E+02  0.48361795603E+02  0.17770000000E+01 0. -1.
         15    1    1    2    0    0  0.28384965085E+01  0.11602924947E+02  0.23267200727E+02  0.26214600672E+02  0.17770000000E+01 0.  1.
</event>
<event>
 6    1  0.3836009E-003  0.5120068E+03  0.7546771E-02  0.9373337E-01
        -11   -1    0    0    0    0  0.00000000000E+00  0.00000000000E+00  0.50000000000E+03  0.50000000000E+03  0.00000000000E+00 0. -1.
         11   -1    0    0    0    0 -0.00000000000E+00 -0.00000000000E+00 -0.50000000000E+03  0.50000000000E+03  0.00000000000E+00 0. -1.
        -11    1    1    2    0    0  0.15957559290E+01 -0.76540498483E+01  0.48793057731E+03  0.48799321634E+03  0.00000000000E+00 0. -1.
         11    1    1    2    0    0  0.13520453350E+02 -0.10717059089E+02 -0.47156965065E+03  0.47188514856E+03  0.00000000000E+00 0. -1.
        -15    1    1    2    0    0 -0.30653015924E+01  0.10878726146E+02 -0.21961558006E+02  0.24763087761E+02  0.17770000000E+01 0.  1.
         15    1    1    2    0    0 -0.12050907686E+02  0.74923827916E+01  0.56006313484E+01  0.15358547342E+02  0.17770000000E+01 0. -1.
</event>
<event>
 6    1  0.3836009E-003  0.5264315E+03  0.7546771E-02  0.9342535E-01
        -11   -1    0    0    0    0  0.00000000000E+00  0.00000000000E+00  0.50000000000E+03  0.50000000000E+03  0.00000000000E+00 0.  1.
         11   -1    0    0    0    0 -0.00000000000E+00 -0.00000000000E+00 -0.50000000000E+03  0.50000000000E+03  0.00000000000E+00 0. -1.
        -11    1    1    2    0    0  0.27829643521E+01  0.22417028576E+02  0.47302948266E+03  0.47356853730E+03  0.00000000000E+00 0.  1.
         11    1    1    2    0    0 -0.72615062835E+01 -0.28860105923E+01 -0.43728245545E+03  0.43735226577E+03  0.00000000000E+00 0. -1.
        -15    1    1    2    0    0 -0.11470952955E+02  0.10568050483E+02  0.18956435502E+02  0.24612408022E+02  0.17770000000E+01 0.  1.
         15    1    1    2    0    0  0.15949494887E+02 -0.30099068467E+02 -0.54703462710E+02  0.64466788901E+02  0.17770000000E+01 0. -1.
</event>
<event>
 6    1  0.3836009E-003  0.5086938E+03  0.7546771E-02  0.9380564E-01
        -11   -1    0    0    0    0  0.00000000000E+00  0.00000000000E+00  0.50000000000E+03  0.50000000000E+03  0.00000000000E+00 0. -1.
         11   -1    0    0    0    0 -0.00000000000E+00 -0.00000000000E+00 -0.50000000000E+03  0.50000000000E+03  0.00000000000E+00 0. -1.
        -11    1    1    2    0    0  0.85240443842E+01  0.36604688659E+01  0.48445573335E+03  0.48454454484E+03  0.00000000000E+00 0. -1.
         11    1    1    2    0    0 -0.13963428980E+02  0.60325592306E+01 -0.49107069491E+03  0.49130621462E+03  0.00000000000E+00 0. -1.
        -15    1    1    2    0    0 -0.25044772320E+01  0.45829617055E+01 -0.16446928531E+01  0.57566212122E+01  0.17770000000E+01 0. -1.
         15    1    1    2    0    0  0.79438618280E+01 -0.14275989802E+02  0.82596544192E+01  0.18392619327E+02  0.17770000000E+01 0.  1.
</event>
<event>
 6    1  0.3836009E-003  0.5084870E+03  0.7546771E-02  0.9381017E-01
        -11   -1    0    0    0    0  0.00000000000E+00  0.00000000000E+00  0.50000000000E+03  0.50000000000E+03  0.00000000000E+00 0.  1.
         11   -1    0    0    0    0 -0.00000000000E+00 -0.00000000000E+00 -0.50000000000E+03  0.50000000000E+03  0.00000000000E+00 0.  1.
        -11    1    1    2    0    0 -0.52944854819E+01 -0.62433795969E+01  0.49144477811E+03  0.49151295131E+03  0.00000000000E+00 0.  1.
         11    1    1    2    0    0  0.37317114515E+01 -0.71719614634E+01 -0.45026595746E+03  0.45033853393E+03  0.00000000000E+00 0.  1.
        -15    1    1    2    0    0 -0.17632143107E+02  0.18092198133E+01 -0.12819030904E+02  0.21946549368E+02  0.17770000000E+01 0. -1.
         15    1    1    2    0    0  0.19194917137E+02  0.11606121247E+02 -0.28359789754E+02  0.36201965391E+02  0.17770000000E+01 0. -1.
</event>
<event>
 6    1  0.3836009E-003  0.5000507E+03  0.7546771E-02  0.9399696E-01
        -11   -1    0    0    0    0  0.00000000000E+00  0.00000000000E+00  0.50000000000E+03  0.50000000000E+03  0.00000000000E+00 0. -1.
         11   -1    0    0    0    0 -0.00000000000E+00 -0.00000000000E+00 -0.50000000000E+03  0.50000000000E+03  0.00000000000E+00 0.  1.
        -11    1    1    2    0    0  0.91635940569E+00 -0.17004992506E+01  0.51545951133E+02  0.51582133443E+02  0.00000000000E+00 0. -1.
         11    1    1    2    0    0  0.92598750919E+01  0.42560600735E+01 -0.49984545689E+03  0.49994933754E+03  0.00000000000E+00 0.  1.
        -15    1    1    2    0    0 -0.65565676974E+01 -0.41356995784E+01  0.30430905391E+03  0.30441296065E+03  0.17770000000E+01 0. -1.
         15    1    1    2    0    0 -0.36196668002E+01  0.15801387555E+01  0.14399045185E+03  0.14405556837E+03  0.17770000000E+01 0.  1.
</event>
<event>
 6    1  0.3836009E-003  0.5006180E+03  0.7546771E-02  0.9398428E-01
        -11   -1    0    0    0    0  0.00000000000E+00  0.00000000000E+00  0.50000000000E+03  0.50000000000E+03  0.00000000000E+00 0. -1.
         11   -1    0    0    0    0 -0.00000000000E+00 -0.00000000000E+00 -0.50000000000E+03  0.50000000000E+03  0.00000000000E+00 0. -1.
        -11    1    1    2    0    0  0.22668813532E+02  0.29617968002E+02  0.49798720383E+03  0.49938197236E+03  0.00000000000E+00 0. -1.
         11    1    1    2    0    0  0.20941149179E+01  0.15805495002E+01 -0.91953095751E+02  0.91990517295E+02  0.00000000000E+00 0. -1.
        -15    1    1    2    0    0 -0.91165546646E+01 -0.27301037677E+02 -0.29643013178E+03  0.29782954686E+03  0.17770000000E+01 0. -1.
         15    1    1    2    0    0 -0.15646373785E+02 -0.38974798247E+01 -0.10960397630E+03  0.11079796348E+03  0.17770000000E+01 0.  1.
</event>
<event>
 6    1  0.3836009E-003  0.5006166E+03  0.7546771E-02  0.9398431E-01
        -11   -1    0    0    0    0  0.00000000000E+00  0.00000000000E+00  0.50000000000E+03  0.50000000000E+03  0.00000000000E+00 0.  1.
         11   -1    0    0    0    0 -0.00000000000E+00 -0.00000000000E+00 -0.50000000000E+03  0.50000000000E+03  0.00000000000E+00 0. -1.
        -11    1    1    2    0    0  0.83641598794E+01  0.16546583994E+01  0.49931063871E+03  0.49938343084E+03  0.00000000000E+00 0.  1.
         11    1    1    2    0    0 -0.58204138187E+01 -0.27348063546E+01 -0.44165651669E+03  0.44170333383E+03  0.00000000000E+00 0. -1.
        -15    1    1    2    0    0 -0.67413655609E+01 -0.27541202709E+00 -0.26729250270E+02  0.27624851320E+02  0.17770000000E+01 0. -1.
         15    1    1    2    0    0  0.41976195002E+01  0.13555599823E+01 -0.30924871750E+02  0.31288384012E+02  0.17770000000E+01 0.  1.
</event>
<event>
 6    1  0.3836009E-003  0.5329643E+03  0.7546771E-02  0.9328928E-01
        -11   -1    0    0    0    0  0.00000000000E+00  0.00000000000E+00  0.50000000000E+03  0.50000000000E+03  0.00000000000E+00 0. -1.
         11   -1    0    0    0    0 -0.00000000000E+00 -0.00000000000E+00 -0.50000000000E+03  0.50000000000E+03  0.00000000000E+00 0. -1.
        -11    1    1    2    0    0 -0.44643190740E+01  0.56098480847E+01  0.46698069453E+03  0.46703572626E+03  0.00000000000E+00 0. -1.
         11    1    1    2    0    0 -0.22134836054E+02 -0.88783685089E+01 -0.41489239823E+03  0.41557728343E+03  0.00000000000E+00 0. -1.
        -15    1    1    2    0    0  0.25061203255E+02  0.88623883481E+01 -0.82334884022E+02  0.86537833875E+02  0.17770000000E+01 0. -1.
         15    1    1    2    0    0  0.15379518731E+01 -0.55938679239E+01  0.30246587728E+02  0.30849156431E+02  0.17770000000E+01 0.  1.
</event>
<event>
 6    1  0.3836009E-003  0.5012907E+03  0.7546771E-02  0.9396926E-01
        -11   -1    0    0    0    0  0.00000000000E+00  0.00000000000E+00  0.50000000000E+03  0.50000000000E+03  0.00000000000E+00 0. -1.
         11   -1    0    0    0    0 -0.00000000000E+00 -0.00000000000E+00 -0.50000000000E+03  0.50000000000E+03  0.00000000000E+00 0.  1.
        -11    1    1    2    0    0 -0.20328457033E+01 -0.55312590697E+01  0.12709252214E+03  0.12722907087E+03  0.00000000000E+00 0. -1.
         11    1    1    2    0    0 -0.82342147266E+01 -0.91994846960E+01 -0.49855645995E+03  0.49870931069E+03  0.00000000000E+00 0.  1.
        -15    1    1    2    0    0 -0.15105050558E+02  0.26334128752E+01  0.10821023345E+03  0.10930557976E+03  0.17770000000E+01 0.  1.
         15    1    1    2    0    0  0.25372110988E+02  0.12097330891E+02  0.26325370436E+03  0.26475603868E+03  0.17770000000E+01 0. -1.
</event>
<event>
 6    1  0.3836009E-003  0.5018889E+03  0.7546771E-02  0.9395593E-01
        -11   -1    0    0    0    0  0.00000000000E+00  0.00000000000E+00  0.50000000000E+03  0.50000000000E+03  0.00000000000E+00 0.  1.
         11   -1    0    0    0    0 -0.00000000000E+00 -0.00000000000E+00 -0.50000000000E+03  0.50000000000E+03  0.00000000000E+00 0. -1.
        -11    1    1    2    0    0 -0.92759658657E+00 -0.72214347543E+01  0.38045449583E+03  0.38052415555E+03  0.00000000000E+00 0.  1.
         11    1    1    2    0    0 -0.16091838467E+02 -0.21643489504E+01 -0.49784643155E+03  0.49811113326E+03  0.00000000000E+00 0. -1.
        -15    1    1    2    0    0  0.90025884382E+01 -0.47643103452E+01  0.19085030059E+02  0.21705790771E+02  0.17770000000E+01 0. -1.
         15    1    1    2    0    0  0.80168466150E+01  0.14150094050E+02  0.98306905658E+02  0.99658920425E+02  0.17770000000E+01 0.  1.
</event>
<event>
 6    1  0.3836009E-003  0.5007247E+03  0.7546771E-02  0.9398190E-01
        -11   -1    0    0    0    0  0.00000000000E+00  0.00000000000E+00  0.50000000000E+03  0.50000000000E+03  0.00000000000E+00 0. -1.
         11   -1    0    0    0    0 -0.00000000000E+00 -0.00000000000E+00 -0.50000000000E+03  0.50000000000E+03  0.00000000000E+00 0.  1.
        -11    1    1    2    0    0 -0.25014666390E+00 -0.11210661429E+02  0.49914932618E+03  0.49927526609E+03  0.00000000000E+00 0. -1.
         11    1    1    2    0    0  0.44300520248E+00 -0.46508425829E+01 -0.21434245446E+03  0.21439336364E+03  0.00000000000E+00 0.  1.
        -15    1    1    2    0    0  0.24380015248E+01  0.13499337635E+02 -0.63499187668E+02  0.64988310730E+02  0.17770000000E+01 0. -1.
         15    1    1    2    0    0 -0.26308600634E+01  0.23621663777E+01 -0.22130768406E+03  0.22134305954E+03  0.17770000000E+01 0.  1.
</event>
<event>
 6    1  0.3836009E-003  0.4909470E+03  0.7546771E-02  0.9420297E-01
        -11   -1    0    0    0    0  0.00000000000E+00  0.00000000000E+00  0.50000000000E+03  0.50000000000E+03  0.00000000000E+00 0. -1.
         11   -1    0    0    0    0 -0.00000000000E+00 -0.00000000000E+00 -0.50000000000E+03  0.50000000000E+03  0.00000000000E+00 0.  1.
        -11    1    1    2    0    0  0.35103236946E+01  0.15003756416E+02  0.49443287557E+03  0.49467292580E+03  0.00000000000E+00 0. -1.
         11    1    1    2    0    0 -0.87324094596E-01 -0.10844891625E+01 -0.28029760325E+02  0.28050868189E+02  0.00000000000E+00 0.  1.
        -15    1    1    2    0    0 -0.40939747502E+02 -0.36027928276E+02 -0.31638306301E+03  0.32105369462E+03  0.17770000000E+01 0.  1.
         15    1    1    2    0    0  0.37516747902E+02  0.22108661022E+02 -0.15002005223E+03  0.15622251139E+03  0.17770000000E+01 0. -1.
</event>
<event>
 6    1  0.3836009E-003  0.5068791E+03  0.7546771E-02  0.9384547E-01
        -11   -1    0    0    0    0  0.00000000000E+00  0.00000000000E+00  0.50000000000E+03  0.50000000000E+03  0.00000000000E+00 0.  1.
         11   -1    0    0    0    0 -0.00000000000E+00 -0.00000000000E+00 -0.50000000000E+03  0.50000000000E+03  0.00000000000E+00 0.  1.
        -11    1    1    2    0    0 -0.96514676384E+01 -0.20246852432E+01  0.49302227517E+03  0.49312089186E+03  0.00000000000E+00 0.  1.
         11    1    1    2    0    0 -0.45778698792E+01  0.24737268403E+01 -0.38336972451E+03  0.38340503634E+03  0.00000000000E+00 0.  1.
        -15    1    1    2    0    0  0.25745449163E+02 -0.19234278474E+02 -0.81873598697E+02  0.87972890788E+02  0.17770000000E+01 0. -1.
         15    1    1    2    0    0 -0.11516111646E+02  0.18785236876E+02 -0.27778951961E+02  0.35501181008E+02  0.17770000000E+01 0.  1.
</event>
<event>
 6    1  0.3836009E-003  0.5111665E+03  0.7546771E-02  0.9375165E-01
        -11   -1    0    0    0    0  0.00000000000E+00  0.00000000000E+00  0.50000000000E+03  0.50000000000E+03  0.00000000000E+00 0. -1.
         11   -1    0    0    0    0 -0.00000000000E+00 -0.00000000000E+00 -0.50000000000E+03  0.50000000000E+03  0.00000000000E+00 0. -1.
        -11    1    1    2    0    0 -0.37666666640E+01 -0.45360616634E+01  0.36287383935E+03  0.36292173663E+03  0.00000000000E+00 0. -1.
         11    1    1    2    0    0 -0.77938783699E+01 -0.11049556593E+02 -0.48864648525E+03  0.48883353485E+03  0.00000000000E+00 0. -1.
        -15    1    1    2    0    0  0.29368485212E+01  0.45574151446E+02  0.60001691592E+02  0.75425387517E+02  0.17770000000E+01 0.  1.
         15    1    1    2    0    0  0.86236965127E+01 -0.29988533189E+02  0.65770954309E+02  0.72819341003E+02  0.17770000000E+01 0. -1.
</event>
<event>
 6    1  0.3836009E-003  0.4774635E+03  0.7546771E-02  0.9451699E-01
        -11   -1    0    0    0    0  0.00000000000E+00  0.00000000000E+00  0.50000000000E+03  0.50000000000E+03  0.00000000000E+00 0.  1.
         11   -1    0    0    0    0 -0.00000000000E+00 -0.00000000000E+00 -0.50000000000E+03  0.50000000000E+03  0.00000000000E+00 0. -1.
        -11    1    1    2    0    0 -0.68119352707E+01  0.93783685298E+00  0.47518426644E+03  0.47523401506E+03  0.00000000000E+00 0.  1.
         11    1    1    2    0    0 -0.15710534652E+02 -0.86438274578E-01 -0.47971252985E+03  0.47996972787E+03  0.00000000000E+00 0. -1.
        -15    1    1    2    0    0  0.22672361619E+02 -0.62880937597E+01 -0.12592164959E+02  0.26745026675E+02  0.17770000000E+01 0.  1.
         15    1    1    2    0    0 -0.14989169592E+00  0.54366951813E+01  0.17120428373E+02  0.18051230392E+02  0.17770000000E+01 0. -1.
</event>
<event>
 6    1  0.3836009E-003  0.5034010E+03  0.7546771E-02  0.9392232E-01
        -11   -1    0    0    0    0  0.00000000000E+00  0.00000000000E+00  0.50000000000E+03  0.50000000000E+03  0.00000000000E+00 0. -1.
         11   -1    0    0    0    0 -0.00000000000E+00 -0.00000000000E+00 -0.50000000000E+03  0.50000000000E+03  0.00000000000E+00 0.  1.
        -11    1    1    2    0    0 -0.45005989506E+01  0.67346335267E+00  0.31633910545E+03  0.31637183595E+03  0.00000000000E+00 0. -1.
         11    1    1    2    0    0 -0.17848631925E+02 -0.17618379663E+02 -0.49596526827E+03  0.49659896123E+03  0.00000000000E+00 0.  1.
        -15    1    1    2    0    0 -0.12533598690E+02  0.98758616723E+01  0.67143467202E+02  0.69036415440E+02  0.17770000000E+01 0. -1.
         15    1    1    2    0    0  0.34882829566E+02  0.70690546380E+01  0.11248269561E+03  0.11799278738E+03  0.17770000000E+01 0.  1.
</event>
<event>
 6    1  0.3836009E-003  0.5163953E+03  0.7546771E-02  0.9363853E-01
        -11   -1    0    0    0    0  0.00000000000E+00  0.00000000000E+00  0.50000000000E+03  0.50000000000E+03  0.00000000000E+00 0. -1.
         11   -1    0    0    0    0 -0.00000000000E+00 -0.00000000000E+00 -0.50000000000E+03  0.50000000000E+03  0.00000000000E+00 0. -1.
        -11    1    1    2    0    0  0.36123154210E+01  0.56544026831E+01  0.42980003045E+03  0.42985240173E+03  0.00000000000E+00 0. -1.
         11    1    1    2    0    0  0.36863813646E+02  0.14597044783E+01 -0.48219543672E+03  0.48360470499E+03  0.00000000000E+00 0. -1.
        -15    1    1    2    0    0 -0.53476513871E+02 -0.49092812071E+01  0.49213145252E+02  0.72862404382E+02  0.17770000000E+01 0. -1.
         15    1    1    2    0    0  0.13000384803E+02 -0.22048259543E+01  0.31822610151E+01  0.13680488906E+02  0.17770000000E+01 0.  1.
</event>
<event>
 6    1  0.3836009E-003  0.5002712E+03  0.7546771E-02  0.9399203E-01
        -11   -1    0    0    0    0  0.00000000000E+00  0.00000000000E+00  0.50000000000E+03  0.50000000000E+03  0.00000000000E+00 0.  1.
         11   -1    0    0    0    0 -0.00000000000E+00 -0.00000000000E+00 -0.50000000000E+03  0.50000000000E+03  0.00000000000E+00 0. -1.
        -11    1    1    2    0    0 -0.40445526998E+01  0.60082567354E+01  0.49967635809E+03  0.49972884686E+03  0.00000000000E+00 0.  1.
         11    1    1    2    0    0 -0.21182129388E+01  0.34043320115E+01 -0.26699081048E+03  0.26702091526E+03  0.00000000000E+00 0. -1.
        -15    1    1    2    0    0  0.21059615611E+01 -0.93665526177E-01 -0.11565244712E+02  0.11889342353E+02  0.17770000000E+01 0.  1.
         15    1    1    2    0    0  0.40568040775E+01 -0.93189232207E+01 -0.22112030289E+03  0.22136089553E+03  0.17770000000E+01 0. -1.
</event>
<event>
 6    1  0.3836009E-003  0.5073806E+03  0.7546771E-02  0.9383445E-01
        -11   -1    0    0    0    0  0.00000000000E+00  0.00000000000E+00  0.50000000000E+03  0.50000000000E+03  0.00000000000E+00 0.  1.
         11   -1    0    0    0    0 -0.00000000000E+00 -0.00000000000E+00 -0.50000000000E+03  0.50000000000E+03  0.00000000000E+00 0. -1.
        -11    1    1    2    0    0  0.63643293272E+01  0.98112850666E+00  0.44143273207E+03  0.44147969857E+03  0.00000000000E+00 0.  1.
         11    1    1    2    0    0  0.11380699104E+02 -0.29808593508E+01 -0.49247892700E+03  0.49261942650E+03  0.00000000000E+00 0. -1.
        -15    1    1    2    0    0 -0.61189401959E+01  0.48487817747E+01 -0.44091109958E+01  0.91405745220E+01  0.17770000000E+01 0. -1.
         15    1    1    2    0    0 -0.11626088235E+02 -0.28490509306E+01  0.55455305920E+02  0.56760300409E+02  0.17770000000E+01 0.  1.
</event>
<event>
 6    1  0.3836009E-003  0.5841284E+03  0.7546771E-02  0.9229042E-01
        -11   -1    0    0    0    0  0.00000000000E+00  0.00000000000E+00  0.50000000000E+03  0.50000000000E+03  0.00000000000E+00 0. -1.
         11   -1    0    0    0    0 -0.00000000000E+00 -0.00000000000E+00 -0.50000000000E+03  0.50000000000E+03  0.00000000000E+00 0. -1.
        -11    1    1    2    0    0  0.31601632690E+01 -0.12905113648E+02  0.28939082445E+03  0.28969566421E+03  0.00000000000E+00 0. -1.
         11    1    1    2    0    0  0.15016425130E+02 -0.30420872621E+02 -0.41448556287E+03  0.41587162002E+03  0.00000000000E+00 0. -1.
        -15    1    1    2    0    0 -0.13267551688E+03  0.64737065771E+02  0.89374488225E+02  0.17258226253E+03  0.17770000000E+01 0. -1.
         15    1    1    2    0    0  0.11449892848E+03 -0.21411079502E+02  0.35720250196E+02  0.12185045323E+03  0.17770000000E+01 0.  1.
</event>
<event>
 6    1  0.3836009E-003  0.5096226E+03  0.7546771E-02  0.9378532E-01
        -11   -1    0    0    0    0  0.00000000000E+00  0.00000000000E+00  0.50000000000E+03  0.50000000000E+03  0.00000000000E+00 0. -1.
         11   -1    0    0    0    0 -0.00000000000E+00 -0.00000000000E+00 -0.50000000000E+03  0.50000000000E+03  0.00000000000E+00 0.  1.
        -11    1    1    2    0    0  0.26118797643E+02 -0.51881073532E+02  0.48692525293E+03  0.49037744577E+03  0.00000000000E+00 0. -1.
         11    1    1    2    0    0 -0.33353879759E+01 -0.16339695402E+01 -0.27052279402E+03  0.27054828914E+03  0.00000000000E+00 0.  1.
        -15    1    1    2    0    0 -0.23436880488E+02  0.55392368912E+02 -0.68612507087E+02  0.91260263852E+02  0.17770000000E+01 0.  1.
         15    1    1    2    0    0  0.65347082089E+00 -0.18773258394E+01 -0.14778995182E+03  0.14781400124E+03  0.17770000000E+01 0. -1.
</event>
<event>
 6    1  0.3836009E-003  0.5011696E+03  0.7546771E-02  0.9397196E-01
        -11   -1    0    0    0    0  0.00000000000E+00  0.00000000000E+00  0.50000000000E+03  0.50000000000E+03  0.00000000000E+00 0. -1.
         11   -1    0    0    0    0 -0.00000000000E+00 -0.00000000000E+00 -0.50000000000E+03  0.50000000000E+03  0.00000000000E+00 0. -1.
        -11    1    1    2    0    0  0.12702113982E+02 -0.88168438699E+01  0.49859069300E+03  0.49883039160E+03  0.00000000000E+00 0. -1.
         11    1    1    2    0    0  0.54693948003E+01  0.78743051671E+01 -0.37157038269E+03  0.37169405195E+03  0.00000000000E+00 0. -1.
        -15    1    1    2    0    0 -0.64369570646E+01  0.22617506547E+00 -0.11163730076E+02  0.13010463851E+02  0.17770000000E+01 0.  1.
         15    1    1    2    0    0 -0.11734551718E+02  0.71636363737E+00 -0.11585658023E+03  0.11646509260E+03  0.17770000000E+01 0. -1.
</event>
<event>
 6    1  0.3836009E-003  0.5011059E+03  0.7546771E-02  0.9397339E-01
        -11   -1    0    0    0    0  0.00000000000E+00  0.00000000000E+00  0.50000000000E+03  0.50000000000E+03  0.00000000000E+00 0. -1.
         11   -1    0    0    0    0 -0.00000000000E+00 -0.00000000000E+00 -0.50000000000E+03  0.50000000000E+03  0.00000000000E+00 0.  1.
        -11    1    1    2    0    0 -0.91995218517E+01 -0.11992099054E+02  0.25084902914E+03  0.25130395354E+03  0.00000000000E+00 0. -1.
         11    1    1    2    0    0 -0.17222521520E+01  0.11440088282E+02 -0.49875996519E+03  0.49889412168E+03  0.00000000000E+00 0.  1.
        -15    1    1    2    0    0 -0.14955497408E+01  0.56591968127E+01  0.19775386694E+03  0.19784845917E+03  0.17770000000E+01 0. -1.
         15    1    1    2    0    0  0.12417323745E+02 -0.51071860401E+01  0.50157069107E+02  0.51953465608E+02  0.17770000000E+01 0.  1.
</event>
<event>
 6    1  0.3836009E-003  0.5011725E+03  0.7546771E-02  0.9397190E-01
        -11   -1    0    0    0    0  0.00000000000E+00  0.00000000000E+00  0.50000000000E+03  0.50000000000E+03  0.00000000000E+00 0. -1.
         11   -1    0    0    0    0 -0.00000000000E+00 -0.00000000000E+00 -0.50000000000E+03  0.50000000000E+03  0.00000000000E+00 0. -1.
        -11    1    1    2    0    0 -0.63672100910E+01  0.45115578265E+01  0.49876650644E+03  0.49882754882E+03  0.00000000000E+00 0. -1.
         11    1    1    2    0    0  0.16297319949E+02 -0.33358196436E+01 -0.99515034664E+02  0.10089584954E+03  0.00000000000E+00 0. -1.
        -15    1    1    2    0    0 -0.41070933759E+01 -0.11493882189E+02 -0.30736804225E+03  0.30761542333E+03  0.17770000000E+01 0. -1.
         15    1    1    2    0    0 -0.58230164824E+01  0.10318144006E+02 -0.91883429519E+02  0.92661178310E+02  0.17770000000E+01 0.  1.
</event>
<event>
 6    1  0.3836009E-003  0.5123630E+03  0.7546771E-02  0.9372564E-01
        -11   -1    0    0    0    0  0.00000000000E+00  0.00000000000E+00  0.50000000000E+03  0.50000000000E+03  0.00000000000E+00 0. -1.
         11   -1    0    0    0    0 -0.00000000000E+00 -0.00000000000E+00 -0.50000000000E+03  0.50000000000E+03  0.00000000000E+00 0. -1.
        -11    1    1    2    0    0 -0.15330538999E+02 -0.51300404149E+01  0.45389499682E+03  0.45418279456E+03  0.00000000000E+00 0. -1.
         11    1    1    2    0    0 -0.65431934042E+01  0.53228311667E+01 -0.48756401428E+03  0.48763696941E+03  0.00000000000E+00 0. -1.
        -15    1    1    2    0    0  0.21089767680E+02 -0.75859602982E+01 -0.11691425275E+01  0.22513323115E+02  0.17770000000E+01 0.  1.
         15    1    1    2    0    0  0.78396472359E+00  0.73931695465E+01  0.34838159988E+02  0.35666912916E+02  0.17770000000E+01 0. -1.
</event>
<event>
 6    1  0.3836009E-003  0.4550868E+03  0.7546771E-02  0.9506325E-01
        -11   -1    0    0    0    0  0.00000000000E+00  0.00000000000E+00  0.50000000000E+03  0.50000000000E+03  0.00000000000E+00 0. -1.
         11   -1    0    0    0    0 -0.00000000000E+00 -0.00000000000E+00 -0.50000000000E+03  0.50000000000E+03  0.00000000000E+00 0.  1.
        -11    1    1    2    0    0 -0.19241552866E+02 -0.43094433039E+01  0.45302642103E+03  0.45345534158E+03  0.00000000000E+00 0. -1.
         11    1    1    2    0    0  0.44978845923E+01 -0.85183395144E+01 -0.45683450759E+03  0.45693605723E+03  0.00000000000E+00 0.  1.
        -15    1    1    2    0    0 -0.74552491229E+01  0.27571354755E+02 -0.33288301587E+02  0.43897939519E+02  0.17770000000E+01 0.  1.
         15    1    1    2    0    0  0.22198917397E+02 -0.14743571937E+02  0.37096388146E+02  0.45710661662E+02  0.17770000000E+01 0. -1.
</event>
<event>
 6    1  0.3836009E-003  0.5015090E+03  0.7546771E-02  0.9396440E-01
        -11   -1    0    0    0    0  0.00000000000E+00  0.00000000000E+00  0.50000000000E+03  0.50000000000E+03  0.00000000000E+00 0.  1.
         11   -1    0    0    0    0 -0.00000000000E+00 -0.00000000000E+00 -0.50000000000E+03  0.50000000000E+03  0.00000000000E+00 0. -1.
        -11    1    1    2    0    0 -0.44823857835E+00  0.16430587912E+01  0.99208824781E+02  0.99223442161E+02  0.00000000000E+00 0.  1.
         11    1    1    2    0    0 -0.10623699354E+01  0.81901425886E+01 -0.49842258508E+03  0.49849100331E+03  0.00000000000E+00 0. -1.
        -15    1    1    2    0    0 -0.88582179489E+01 -0.14464469463E+02  0.48996188089E+02  0.51879409002E+02  0.17770000000E+01 0.  1.
         15    1    1    2    0    0  0.10368826463E+02  0.46312680829E+01  0.35021757221E+03  0.35040614552E+03  0.17770000000E+01 0. -1.
</event>
<event>
 6    1  0.3836009E-003  0.5009423E+03  0.7546771E-02  0.9397704E-01
        -11   -1    0    0    0    0  0.00000000000E+00  0.00000000000E+00  0.50000000000E+03  0.50000000000E+03  0.00000000000E+00 0.  1.
         11   -1    0    0    0    0 -0.00000000000E+00 -0.00000000000E+00 -0.50000000000E+03  0.50000000000E+03  0.00000000000E+00 0.  1.
        -11    1    1    2    0    0 -0.20049067923E+01 -0.60154776716E+00  0.90543444784E+02  0.90567637180E+02  0.00000000000E+00 0.  1.
         11    1    1    2    0    0  0.11717366573E+01  0.73277963321E+01 -0.49900255761E+03  0.49905773420E+03  0.00000000000E+00 0.  1.
        -15    1    1    2    0    0  0.10176140623E+02  0.13647391799E+02  0.17940804800E+03  0.18022266938E+03  0.17770000000E+01 0. -1.
         15    1    1    2    0    0 -0.93429704882E+01 -0.20373640364E+02  0.22905106482E+03  0.23015195924E+03  0.17770000000E+01 0.  1.
</event>
<event>
 6    1  0.3836009E-003  0.5364307E+03  0.7546771E-02  0.9321791E-01
        -11   -1    0    0    0    0  0.00000000000E+00  0.00000000000E+00  0.50000000000E+03  0.50000000000E+03  0.00000000000E+00 0.  1.
         11   -1    0    0    0    0 -0.00000000000E+00 -0.00000000000E+00 -0.50000000000E+03  0.50000000000E+03  0.00000000000E+00 0.  1.
        -11    1    1    2    0    0 -0.23198041714E+02 -0.22135896198E+01  0.42146954133E+03  0.42211328264E+03  0.00000000000E+00 0.  1.
         11    1    1    2    0    0  0.30771726520E+02  0.37864177821E+02 -0.46099445837E+03  0.46356928906E+03  0.00000000000E+00 0.  1.
        -15    1    1    2    0    0  0.26307511158E+02 -0.35693074401E+02  0.60047519222E+02  0.74665540895E+02  0.17770000000E+01 0. -1.
         15    1    1    2    0    0 -0.33881195964E+02  0.42486199906E-01 -0.20522602183E+02  0.39651887400E+02  0.17770000000E+01 0.  1.
</event>
<event>
 6    1  0.3836009E-003  0.5124516E+03  0.7546771E-02  0.9372371E-01
        -11   -1    0    0    0    0  0.00000000000E+00  0.00000000000E+00  0.50000000000E+03  0.50000000000E+03  0.00000000000E+00 0. -1.
         11   -1    0    0    0    0 -0.00000000000E+00 -0.00000000000E+00 -0.50000000000E+03  0.50000000000E+03  0.00000000000E+00 0.  1.
        -11    1    1    2    0    0 -0.34810922879E+01  0.43114969131E+02  0.36967194416E+03  0.37219398822E+03  0.00000000000E+00 0. -1.
         11    1    1    2    0    0 -0.44603987305E+01  0.86275853412E+01 -0.48745163552E+03  0.48754838463E+03  0.00000000000E+00 0.  1.
        -15    1    1    2    0    0  0.17360874817E+02 -0.28274480074E+02  0.10815176757E+03  0.11314065916E+03  0.17770000000E+01 0. -1.
         15    1    1    2    0    0 -0.94193837989E+01 -0.23468074398E+02  0.96279237875E+01  0.27116967982E+02  0.17770000000E+01 0.  1.
</event>
<event>
 6    1  0.3836009E-003  0.4786560E+03  0.7546771E-02  0.9448877E-01
        -11   -1    0    0    0    0  0.00000000000E+00  0.00000000000E+00  0.50000000000E+03  0.50000000000E+03  0.00000000000E+00 0.  1.
         11   -1    0    0    0    0 -0.00000000000E+00 -0.00000000000E+00 -0.50000000000E+03  0.50000000000E+03  0.00000000000E+00 0.  1.
        -11    1    1    2    0    0  0.25435254812E+01  0.71500922354E+01  0.48113843020E+03  0.48119827759E+03  0.00000000000E+00 0.  1.
         11    1    1    2    0    0  0.16562284757E+02 -0.15973084204E+02 -0.47580376586E+03  0.47635981390E+03  0.00000000000E+00 0.  1.
        -15    1    1    2    0    0 -0.15726072671E+02  0.17673436256E+02 -0.15574307440E+02  0.28379155942E+02  0.17770000000E+01 0. -1.
         15    1    1    2    0    0 -0.33797375676E+01 -0.88504442869E+01  0.10239643100E+02  0.14062752573E+02  0.17770000000E+01 0. -1.
</event>
<event>
 6    1  0.3836009E-003  0.5030176E+03  0.7546771E-02  0.9393083E-01
        -11   -1    0    0    0    0  0.00000000000E+00  0.00000000000E+00  0.50000000000E+03  0.50000000000E+03  0.00000000000E+00 0. -1.
         11   -1    0    0    0    0 -0.00000000000E+00 -0.00000000000E+00 -0.50000000000E+03  0.50000000000E+03  0.00000000000E+00 0. -1.
        -11    1    1    2    0    0  0.51568612598E+01  0.82160187665E+01  0.49688777176E+03  0.49698244829E+03  0.00000000000E+00 0. -1.
         11    1    1    2    0    0 -0.12893007770E+02 -0.43711063393E+01 -0.48422100710E+03  0.48441234494E+03  0.00000000000E+00 0. -1.
        -15    1    1    2    0    0  0.54192682019E+01  0.25355921193E+01 -0.38357366925E+01  0.73258651512E+01  0.17770000000E+01 0. -1.
         15    1    1    2    0    0  0.23168783084E+01 -0.63805045464E+01 -0.88310279678E+01  0.11279341618E+02  0.17770000000E+01 0.  1.
</event>
<event>
 6    1  0.3836009E-003  0.5033327E+03  0.7546771E-02  0.9392383E-01
        -11   -1    0    0    0    0  0.00000000000E+00  0.00000000000E+00  0.50000000000E+03  0.50000000000E+03  0.00000000000E+00 0. -1.
         11   -1    0    0    0    0 -0.00000000000E+00 -0.00000000000E+00 -0.50000000000E+03  0.50000000000E+03  0.00000000000E+00 0.  1.
        -11    1    1    2    0    0  0.47182863299E+01 -0.77503980014E+01  0.49658440334E+03  0.49666729360E+03  0.00000000000E+00 0. -1.
         11    1    1    2    0    0  0.10731299095E+01  0.67218701916E+01 -0.46969502227E+03  0.46974434440E+03  0.00000000000E+00 0.  1.
        -15    1    1    2    0    0 -0.57338557089E+01  0.85587452484E+01 -0.79625981617E+01  0.13141153679E+02  0.17770000000E+01 0.  1.
         15    1    1    2    0    0 -0.57560530495E-01 -0.75302174386E+01 -0.18926782904E+02  0.20447208317E+02  0.17770000000E+01 0. -1.
</event>
<event>
 6    1  0.3836009E-003  0.3765557E+03  0.7546771E-02  0.9728326E-01
        -11   -1    0    0    0    0  0.00000000000E+00  0.00000000000E+00  0.50000000000E+03  0.50000000000E+03  0.00000000000E+00 0.  1.
         11   -1    0    0    0    0 -0.00000000000E+00 -0.00000000000E+00 -0.50000000000E+03  0.50000000000E+03  0.00000000000E+00 0. -1.
        -11    1    1    2    0    0  0.42607518983E+01  0.27014695090E+01  0.18775418274E+03  0.18782195048E+03  0.00000000000E+00 0.  1.
         11    1    1    2    0    0  0.42514979563E+01  0.30855059442E+01 -0.45348930312E+02  0.45652174782E+02  0.00000000000E+00 0. -1.
        -15    1    1    2    0    0  0.17399495954E+02 -0.15829024705E+01  0.31143192476E+03  0.31192667332E+03  0.17770000000E+01 0.  1.
         15    1    1    2    0    0 -0.25911745809E+02 -0.42040729827E+01 -0.45383717719E+03  0.45459920142E+03  0.17770000000E+01 0. -1.
</event>
<event>
 6    1  0.3836009E-003  0.5013609E+03  0.7546771E-02  0.9396770E-01
        -11   -1    0    0    0    0  0.00000000000E+00  0.00000000000E+00  0.50000000000E+03  0.50000000000E+03  0.00000000000E+00 0.  1.
         11   -1    0    0    0    0 -0.00000000000E+00 -0.00000000000E+00 -0.50000000000E+03  0.50000000000E+03  0.00000000000E+00 0.  1.
        -11    1    1    2    0    0  0.10420396510E+02 -0.11567594213E+02  0.49839600569E+03  0.49863912040E+03  0.00000000000E+00 0.  1.
         11    1    1    2    0    0 -0.47159091184E+00 -0.31385428647E+01 -0.17355232053E+03  0.17358133774E+03  0.00000000000E+00 0.  1.
        -15    1    1    2    0    0 -0.15564654358E+01  0.60373741287E+01 -0.30032718555E+03  0.30039715142E+03  0.17770000000E+01 0.  1.
         15    1    1    2    0    0 -0.83923401627E+01  0.86687629494E+01 -0.24516499609E+02  0.27382390447E+02  0.17770000000E+01 0. -1.
</event>
<event>
 6    1  0.3836009E-003  0.5043860E+03  0.7546771E-02  0.9390049E-01
        -11   -1    0    0    0    0  0.00000000000E+00  0.00000000000E+00  0.50000000000E+03  0.50000000000E+03  0.00000000000E+00 0.  1.
         11   -1    0    0    0    0 -0.00000000000E+00 -0.00000000000E+00 -0.50000000000E+03  0.50000000000E+03  0.00000000000E+00 0.  1.
        -11    1    1    2    0    0 -0.47551461489E+01 -0.19272487255E+01  0.36160979286E+03  0.36164619173E+03  0.00000000000E+00 0.  1.
         11    1    1    2    0    0  0.64565164626E+01 -0.25623169769E+01 -0.49556534783E+03  0.49561402931E+03  0.00000000000E+00 0.  1.
        -15    1    1    2    0    0 -0.46148973837E+01 -0.20691276893E+01 -0.26183437706E+01  0.59659048231E+01  0.17770000000E+01 0. -1.
         15    1    1    2    0    0  0.29135270700E+01  0.65586933917E+01  0.13657389875E+03  0.13677387414E+03  0.17770000000E+01 0.  1.
</event>
<event>
 6    1  0.3836009E-003  0.5008899E+03  0.7546771E-02  0.9397821E-01
        -11   -1    0    0    0    0  0.00000000000E+00  0.00000000000E+00  0.50000000000E+03  0.50000000000E+03  0.00000000000E+00 0.  1.
         11   -1    0    0    0    0 -0.00000000000E+00 -0.00000000000E+00 -0.50000000000E+03  0.50000000000E+03  0.00000000000E+00 0.  1.
        -11    1    1    2    0    0  0.11100739807E+01 -0.57622327643E+01  0.72259749525E+02  0.72497634389E+02  0.00000000000E+00 0.  1.
         11    1    1    2    0    0 -0.98451439572E+01  0.11904516238E+01 -0.49901153810E+03  0.49911006721E+03  0.00000000000E+00 0.  1.
        -15    1    1    2    0    0  0.74012270742E+01 -0.11538665088E+02  0.74899975359E+02  0.76164840918E+02  0.17770000000E+01 0. -1.
         15    1    1    2    0    0  0.13338429023E+01  0.16110446228E+02  0.35185181321E+03  0.35222745748E+03  0.17770000000E+01 0.  1.
</event>
<event>
 6    1  0.3836009E-003  0.5027428E+03  0.7546771E-02  0.9393693E-01
        -11   -1    0    0    0    0  0.00000000000E+00  0.00000000000E+00  0.50000000000E+03  0.50000000000E+03  0.00000000000E+00 0. -1.
         11   -1    0    0    0    0 -0.00000000000E+00 -0.00000000000E+00 -0.50000000000E+03  0.50000000000E+03  0.00000000000E+00 0.  1.
        -11    1    1    2    0    0  0.68072012914E+00  0.43494443999E+01  0.31655102285E+03  0.31658163420E+03  0.00000000000E+00 0. -1.
         11    1    1    2    0    0  0.28272616154E+00 -0.67123963016E+01 -0.49721185628E+03  0.49725724351E+03  0.00000000000E+00 0.  1.
        -15    1    1    2    0    0 -0.43866749629E+01  0.27811333975E+01  0.18198047199E+03  0.18206325147E+03  0.17770000000E+01 0. -1.
         15    1    1    2    0    0  0.34232286722E+01 -0.41818149586E+00 -0.13196385611E+01  0.40978708176E+01  0.17770000000E+01 0.  1.
</event>
<event>
 6    1  0.3836009E-003  0.5045166E+03  0.7546771E-02  0.9389760E-01
        -11   -1    0    0    0    0  0.00000000000E+00  0.00000000000E+00  0.50000000000E+03  0.50000000000E+03  0.00000000000E+00 0.  1.
         11   -1    0    0    0    0 -0.00000000000E+00 -0.00000000000E+00 -0.50000000000E+03  0.50000000000E+03  0.00000000000E+00 0.  1.
        -11    1    1    2    0    0 -0.81893594964E+01 -0.39678965591E+01  0.46278115633E+03  0.46287061741E+03  0.00000000000E+00 0.  1.
         11    1    1    2    0    0  0.14605313379E+01  0.96574806209E+01 -0.49538712566E+03  0.49548340472E+03  0.00000000000E+00 0.  1.
        -15    1    1    2    0    0  0.13168554169E+02 -0.59574660038E+01  0.31718421657E+02  0.34901550417E+02  0.17770000000E+01 0. -1.
         15    1    1    2    0    0 -0.64397260100E+01  0.26788194192E+00  0.88754767115E+00  0.67444274544E+01  0.17770000000E+01 0.  1.
</event>
<event>
 6    1  0.3836009E-003  0.5183111E+03  0.7546771E-02  0.9359744E-01
        -11   -1    0    0    0    0  0.00000000000E+00  0.00000000000E+00  0.50000000000E+03  0.50000000000E+03  0.00000000000E+00 0.  1.
         11   -1    0    0    0    0 -0.00000000000E+00 -0.00000000000E+00 -0.50000000000E+03  0.50000000000E+03  0.00000000000E+00 0. -1.
        -11    1    1    2    0    0 -0.34160289431E+02  0.14389577349E+02  0.42503812074E+03  0.42665136750E+03  0.00000000000E+00 0.  1.
         11    1    1    2    0    0 -0.35505771096E+01  0.57483450025E+01 -0.48164153034E+03  0.48168891810E+03  0.00000000000E+00 0. -1.
        -15    1    1    2    0    0 -0.10077391179E+02 -0.16369893851E+02  0.32918346331E+02  0.38161531571E+02  0.17770000000E+01 0. -1.
         15    1    1    2    0    0  0.47788257719E+02 -0.37680285012E+01  0.23685063271E+02  0.53498182827E+02  0.17770000000E+01 0.  1.
</event>
<event>
 6    1  0.3836009E-003  0.5733373E+03  0.7546771E-02  0.9249183E-01
        -11   -1    0    0    0    0  0.00000000000E+00  0.00000000000E+00  0.50000000000E+03  0.50000000000E+03  0.00000000000E+00 0. -1.
         11   -1    0    0    0    0 -0.00000000000E+00 -0.00000000000E+00 -0.50000000000E+03  0.50000000000E+03  0.00000000000E+00 0. -1.
        -11    1    1    2    0    0 -0.91982210654E+01 -0.28252289493E+01  0.38908997368E+03  0.38920893722E+03  0.00000000000E+00 0. -1.
         11    1    1    2    0    0  0.50560038144E+01 -0.14224314578E+02 -0.42639550293E+03  0.42666265271E+03  0.00000000000E+00 0. -1.
        -15    1    1    2    0    0 -0.28242590886E+02 -0.29199268057E+02  0.95029630001E+02  0.10336357919E+03  0.17770000000E+01 0.  1.
         15    1    1    2    0    0  0.32384808137E+02  0.46248811584E+02 -0.57724100759E+02  0.80764830889E+02  0.17770000000E+01 0. -1.
</event>
<event>
 6    1  0.3836009E-003  0.5085096E+03  0.7546771E-02  0.9380968E-01
        -11   -1    0    0    0    0  0.00000000000E+00  0.00000000000E+00  0.50000000000E+03  0.50000000000E+03  0.00000000000E+00 0.  1.
         11   -1    0    0    0    0 -0.00000000000E+00 -0.00000000000E+00 -0.50000000000E+03  0.50000000000E+03  0.00000000000E+00 0.  1.
        -11    1    1    2    0    0 -0.36496365785E+00 -0.79682679447E+01  0.47996934066E+03  0.48003561792E+03  0.00000000000E+00 0.  1.
         11    1    1    2    0    0  0.67933400844E+01 -0.49188708892E+01 -0.49141884128E+03  0.49149040919E+03  0.00000000000E+00 0.  1.
        -15    1    1    2    0    0 -0.90133850384E+01 -0.18398892304E+00 -0.20592790558E+01  0.94166512627E+01  0.17770000000E+01 0.  1.
         15    1    1    2    0    0  0.25850086118E+01  0.13071127757E+02  0.13508779674E+02  0.19057321628E+02  0.17770000000E+01 0. -1.
</event>
<event>
 6    1  0.3836009E-003  0.4854728E+03  0.7546771E-02  0.9432915E-01
        -11   -1    0    0    0    0  0.00000000000E+00  0.00000000000E+00  0.50000000000E+03  0.50000000000E+03  0.00000000000E+00 0. -1.
         11   -1    0    0    0    0 -0.00000000000E+00 -0.00000000000E+00 -0.50000000000E+03  0.50000000000E+03  0.00000000000E+00 0.  1.
        -11    1    1    2    0    0  0.15071253518E+01  0.68582880820E+01  0.48482102226E+03  0.48487187088E+03  0.00000000000E+00 0. -1.
         11    1    1    2    0    0  0.87267279732E+01 -0.30412089484E+01 -0.48604817952E+03  0.48613602782E+03  0.00000000000E+00 0.  1.
        -15    1    1    2    0    0 -0.25731685508E+01 -0.49124761547E+01  0.13313291554E+02  0.14531176118E+02  0.17770000000E+01 0. -1.
         15    1    1    2    0    0 -0.76606847742E+01  0.10953970211E+01 -0.12086134294E+02  0.14460925179E+02  0.17770000000E+01 0.  1.
</event>
<event>
 6    1  0.3836009E-003  0.5038845E+03  0.7546771E-02  0.9391159E-01
        -11   -1    0    0    0    0  0.00000000000E+00  0.00000000000E+00  0.50000000000E+03  0.50000000000E+03  0.00000000000E+00 0. -1.
         11   -1    0    0    0    0 -0.00000000000E+00 -0.00000000000E+00 -0.50000000000E+03  0.50000000000E+03  0.00000000000E+00 0.  1.
        -11    1    1    2    0    0 -0.73874469797E+01 -0.18291461421E+01  0.49140959389E+03  0.49146852302E+03  0.00000000000E+00 0. -1.
         11    1    1    2    0    0  0.55815322404E+01  0.41319963626E+01 -0.49606686140E+03  0.49611546828E+03  0.00000000000E+00 0.  1.
        -15    1    1    2    0    0  0.58988409541E+01  0.45517674476E+00  0.17592598989E+01  0.64231016544E+01  0.17770000000E+01 0.  1.
         15    1    1    2    0    0 -0.40929262148E+01 -0.27580269652E+01  0.28980076020E+01  0.59929070410E+01  0.17770000000E+01 0. -1.
</event>
<event>
 6    1  0.3836009E-003  0.5059934E+03  0.7546771E-02  0.9386498E-01
        -11   -1    0    0    0    0  0.00000000000E+00  0.00000000000E+00  0.50000000000E+03  0.50000000000E+03  0.00000000000E+00 0. -1.
         11   -1    0    0    0    0 -0.00000000000E+00 -0.00000000000E+00 -0.50000000000E+03  0.50000000000E+03  0.00000000000E+00 0.  1.
        -11    1    1    2    0    0 -0.17530996582E+02 -0.25107323277E+01  0.49368908756E+03  0.49400663436E+03  0.00000000000E+00 0. -1.
         11    1    1    2    0    0  0.38820225475E+00  0.66071351159E+01 -0.47010295410E+03  0.47014954258E+03  0.00000000000E+00 0.  1.
        -15    1    1    2    0    0  0.20686152200E+02  0.68661604176E+00 -0.18428651372E+02  0.27769790327E+02  0.17770000000E+01 0. -1.
         15    1    1    2    0    0 -0.35433578721E+01 -0.47830188300E+01 -0.51574820853E+01  0.80740327345E+01  0.17770000000E+01 0.  1.
</event>
<event>
 6    1  0.3836009E-003  0.5053616E+03  0.7546771E-02  0.9387892E-01
        -11   -1    0    0    0    0  0.00000000000E+00  0.00000000000E+00  0.50000000000E+03  0.50000000000E+03  0.00000000000E+00 0. -1.
         11   -1    0    0    0    0 -0.00000000000E+00 -0.00000000000E+00 -0.50000000000E+03  0.50000000000E+03  0.00000000000E+00 0.  1.
        -11    1    1    2    0    0 -0.54183148253E+01  0.16480012018E+02  0.23130531344E+03  0.23195494597E+03  0.00000000000E+00 0. -1.
         11    1    1    2    0    0  0.76482925987E+01  0.80367147271E+01 -0.49451395577E+03  0.49463839076E+03  0.00000000000E+00 0.  1.
        -15    1    1    2    0    0  0.14982396770E+01 -0.20224164988E+02  0.26603542808E+03  0.26681317114E+03  0.17770000000E+01 0. -1.
         15    1    1    2    0    0 -0.37282174504E+01 -0.42925617571E+01 -0.28267857475E+01  0.65934921293E+01  0.17770000000E+01 0. -1.
</event>
<event>
 6    1  0.3836009E-003  0.5014288E+03  0.7546771E-02  0.9396618E-01
        -11   -1    0    0    0    0  0.00000000000E+00  0.00000000000E+00  0.50000000000E+03  0.50000000000E+03  0.00000000000E+00 0.  1.
         11   -1    0    0    0    0 -0.00000000000E+00 -0.00000000000E+00 -0.50000000000E+03  0.50000000000E+03  0.00000000000E+00 0.  1.
        -11    1    1    2    0    0  0.42500849073E+01  0.21429289063E+01  0.22589125333E+03  0.22594139438E+03  0.00000000000E+00 0.  1.
         11    1    1    2    0    0  0.64917748364E+01 -0.26440367714E+02 -0.49782726172E+03  0.49857117717E+03  0.00000000000E+00 0.  1.
        -15    1    1    2    0    0 -0.11310574198E+02  0.32089589983E+02  0.24582132032E+03  0.24817121131E+03  0.17770000000E+01 0.  1.
         15    1    1    2    0    0  0.56871445418E+00 -0.77921511751E+01  0.26114688080E+02  0.27316217135E+02  0.17770000000E+01 0. -1.
</event>
<event>
 6    1  0.3836009E-003  0.5030855E+03  0.7546771E-02  0.9392932E-01
        -11   -1    0    0    0    0  0.00000000000E+00  0.00000000000E+00  0.50000000000E+03  0.50000000000E+03  0.00000000000E+00 0.  1.
         11   -1    0    0    0    0 -0.00000000000E+00 -0.00000000000E+00 -0.50000000000E+03  0.50000000000E+03  0.00000000000E+00 0. -1.
        -11    1    1    2    0    0 -0.28188677476E+01 -0.62289260893E+01  0.47830895880E+03  0.47835782173E+03  0.00000000000E+00 0.  1.
         11    1    1    2    0    0  0.83539563583E+01  0.80904907638E+01 -0.49677839152E+03  0.49691449457E+03  0.00000000000E+00 0. -1.
        -15    1    1    2    0    0  0.32341154165E+01  0.36829142805E+01  0.97616877447E+01  0.11066690415E+02  0.17770000000E+01 0. -1.
         15    1    1    2    0    0 -0.87692040272E+01 -0.55444789549E+01  0.87077449751E+01  0.13660993291E+02  0.17770000000E+01 0.  1.
</event>
<event>
 6    1  0.3836009E-003  0.5004389E+03  0.7546771E-02  0.9398828E-01
        -11   -1    0    0    0    0  0.00000000000E+00  0.00000000000E+00  0.50000000000E+03  0.50000000000E+03  0.00000000000E+00 0.  1.
         11   -1    0    0    0    0 -0.00000000000E+00 -0.00000000000E+00 -0.50000000000E+03  0.50000000000E+03  0.00000000000E+00 0.  1.
        -11    1    1    2    0    0  0.30284745777E+00 -0.34357361335E+01  0.22459410720E+03  0.22462058897E+03  0.00000000000E+00 0.  1.
         11    1    1    2    0    0 -0.83701076543E+01  0.44311461360E+01 -0.49947135913E+03  0.49956113976E+03  0.00000000000E+00 0.  1.
        -15    1    1    2    0    0 -0.31678011434E+01  0.30690928796E+01  0.16841349340E+02  0.17499802050E+02  0.17770000000E+01 0.  1.
         15    1    1    2    0    0  0.11235061340E+02 -0.40645028821E+01  0.25803590259E+03  0.25831846923E+03  0.17770000000E+01 0.  1.
</event>
<event>
 6    1  0.3836009E-003  0.5110484E+03  0.7546771E-02  0.9375422E-01
        -11   -1    0    0    0    0  0.00000000000E+00  0.00000000000E+00  0.50000000000E+03  0.50000000000E+03  0.00000000000E+00 0. -1.
         11   -1    0    0    0    0 -0.00000000000E+00 -0.00000000000E+00 -0.50000000000E+03  0.50000000000E+03  0.00000000000E+00 0. -1.
        -11    1    1    2    0    0 -0.13621567111E+01 -0.12966724069E+02  0.48877775421E+03  0.48895161766E+03  0.00000000000E+00 0. -1.
         11    1    1    2    0    0 -0.43047388926E+01  0.47488286271E+01 -0.41533756544E+03  0.41538701884E+03  0.00000000000E+00 0. -1.
        -15    1    1    2    0    0  0.17329528949E+01  0.27655690386E+01 -0.83417159077E+02  0.83499890151E+02  0.17770000000E+01 0.  1.
         15    1    1    2    0    0  0.39339427089E+01  0.54523264031E+01  0.99769703149E+01  0.12161473353E+02  0.17770000000E+01 0. -1.
</event>
<event>
 6    1  0.3836009E-003  0.5043708E+03  0.7546771E-02  0.9390083E-01
        -11   -1    0    0    0    0  0.00000000000E+00  0.00000000000E+00  0.50000000000E+03  0.50000000000E+03  0.00000000000E+00 0.  1.
         11   -1    0    0    0    0 -0.00000000000E+00 -0.00000000000E+00 -0.50000000000E+03  0.50000000000E+03  0.00000000000E+00 0. -1.
        -11    1    1    2    0    0  0.33471637417E+01  0.50124162099E+01  0.34803206913E+03  0.34808425555E+03  0.00000000000E+00 0.  1.
         11    1    1    2    0    0  0.14444368710E+02 -0.21258657752E+02 -0.49496236668E+03  0.49562921095E+03  0.00000000000E+00 0. -1.
        -15    1    1    2    0    0  0.44970714527E+01 -0.50002140376E+01  0.99288579153E+02  0.99531931918E+02  0.17770000000E+01 0.  1.
         15    1    1    2    0    0 -0.22288603904E+02  0.21246455580E+02  0.47641718405E+02  0.56754601578E+02  0.17770000000E+01 0. -1.
</event>
<event>
 6    1  0.3836009E-003  0.3869760E+03  0.7546771E-02  0.9695685E-01
        -11   -1    0    0    0    0  0.00000000000E+00  0.00000000000E+00  0.50000000000E+03  0.50000000000E+03  0.00000000000E+00 0.  1.
         11   -1    0    0    0    0 -0.00000000000E+00 -0.00000000000E+00 -0.50000000000E+03  0.50000000000E+03  0.00000000000E+00 0.  1.
        -11    1    1    2    0    0  0.12517892086E+02  0.14518258049E+02  0.37997891146E+03  0.38046215395E+03  0.00000000000E+00 0.  1.
         11    1    1    2    0    0 -0.76904039016E+01  0.96347677146E+01 -0.39381243016E+03  0.39400533145E+03  0.00000000000E+00 0.  1.
        -15    1    1    2    0    0 -0.37065532117E+02  0.13169362629E+02  0.11033172781E+03  0.11714748684E+03  0.17770000000E+01 0.  1.
         15    1    1    2    0    0  0.32238043932E+02 -0.37322388393E+02 -0.96498209107E+02  0.10838502776E+03  0.17770000000E+01 0. -1.
</event>
<event>
 6    1  0.3836009E-003  0.3706553E+03  0.7546771E-02  0.9747314E-01
        -11   -1    0    0    0    0  0.00000000000E+00  0.00000000000E+00  0.50000000000E+03  0.50000000000E+03  0.00000000000E+00 0. -1.
         11   -1    0    0    0    0 -0.00000000000E+00 -0.00000000000E+00 -0.50000000000E+03  0.50000000000E+03  0.00000000000E+00 0. -1.
        -11    1    1    2    0    0 -0.14386373789E+01  0.11109288213E+02  0.41562901716E+03  0.41577994885E+03  0.00000000000E+00 0. -1.
         11    1    1    2    0    0  0.25328236338E+01  0.11866322588E+01 -0.15365564639E+03  0.15368110150E+03  0.00000000000E+00 0. -1.
        -15    1    1    2    0    0 -0.71454419381E+02  0.90072091736E+01  0.64006124260E+02  0.96368073229E+02  0.17770000000E+01 0.  1.
         15    1    1    2    0    0  0.70360233126E+02 -0.21303129646E+02 -0.32597949503E+03  0.33417087642E+03  0.17770000000E+01 0. -1.
</event>
<event>
 6    1  0.3836009E-003  0.5026759E+03  0.7546771E-02  0.9393842E-01
        -11   -1    0    0    0    0  0.00000000000E+00  0.00000000000E+00  0.50000000000E+03  0.50000000000E+03  0.00000000000E+00 0. -1.
         11   -1    0    0    0    0 -0.00000000000E+00 -0.00000000000E+00 -0.50000000000E+03  0.50000000000E+03  0.00000000000E+00 0.  1.
        -11    1    1    2    0    0 -0.83841788179E+01 -0.40270556688E+01  0.38098427648E+03  0.38109779658E+03  0.00000000000E+00 0. -1.
         11    1    1    2    0    0 -0.91769304835E+00 -0.81714005087E+01 -0.49725612479E+03  0.49732410718E+03  0.00000000000E+00 0.  1.
        -15    1    1    2    0    0 -0.71138763247E+01  0.60223315462E+01  0.97413077610E+01  0.13598769044E+02  0.17770000000E+01 0.  1.
         15    1    1    2    0    0  0.16415748191E+02  0.61761246313E+01  0.10653054054E+03  0.10797932719E+03  0.17770000000E+01 0. -1.
</event>
<event>
 6    1  0.3836009E-003  0.5017609E+03  0.7546771E-02  0.9395878E-01
        -11   -1    0    0    0    0  0.00000000000E+00  0.00000000000E+00  0.50000000000E+03  0.50000000000E+03  0.00000000000E+00 0. -1.
         11   -1    0    0    0    0 -0.00000000000E+00 -0.00000000000E+00 -0.50000000000E+03  0.50000000000E+03  0.00000000000E+00 0. -1.
        -11    1    1    2    0    0  0.58156600911E+01 -0.72875114378E+01  0.41511130272E+03  0.41521599605E+03  0.00000000000E+00 0. -1.
         11    1    1    2    0    0  0.66522150608E+01 -0.55282321672E+01 -0.49816400209E+03  0.49823908548E+03  0.00000000000E+00 0. -1.
        -15    1    1    2    0    0  0.23565632311E+01  0.62018018065E+01  0.14085830419E+02  0.15671122599E+02  0.17770000000E+01 0.  1.
         15    1    1    2    0    0 -0.14824438383E+02  0.66139417984E+01  0.68966868953E+02  0.70873795875E+02  0.17770000000E+01 0. -1.
</event>
<event>
 6    1  0.3836009E-003  0.5095903E+03  0.7546771E-02  0.9378603E-01
        -11   -1    0    0    0    0  0.00000000000E+00  0.00000000000E+00  0.50000000000E+03  0.50000000000E+03  0.00000000000E+00 0.  1.
         11   -1    0    0    0    0 -0.00000000000E+00 -0.00000000000E+00 -0.50000000000E+03  0.50000000000E+03  0.00000000000E+00 0. -1.
        -11    1    1    2    0    0  0.43160208723E+01 -0.13597067416E+02  0.45481118798E+03  0.45503486129E+03  0.00000000000E+00 0.  1.
         11    1    1    2    0    0 -0.51514249745E+01  0.11855229349E+02 -0.49023927720E+03  0.49040965789E+03  0.00000000000E+00 0. -1.
        -15    1    1    2    0    0 -0.34915064203E+01 -0.76421484176E+01  0.41540380588E+02  0.42418792981E+02  0.17770000000E+01 0.  1.
         15    1    1    2    0    0  0.43269105225E+01  0.93839864849E+01 -0.61122913658E+01  0.12136687841E+02  0.17770000000E+01 0. -1.
</event>
<event>
 6    1  0.3836009E-003  0.5006643E+03  0.7546771E-02  0.9398325E-01
        -11   -1    0    0    0    0  0.00000000000E+00  0.00000000000E+00  0.50000000000E+03  0.50000000000E+03  0.00000000000E+00 0. -1.
         11   -1    0    0    0    0 -0.00000000000E+00 -0.00000000000E+00 -0.50000000000E+03  0.50000000000E+03  0.00000000000E+00 0. -1.
        -11    1    1    2    0    0  0.34160358570E+01 -0.79023642657E+00  0.14187731787E+03  0.14192063662E+03  0.00000000000E+00 0. -1.
         11    1    1    2    0    0  0.89288243028E+01  0.12578887969E+02 -0.49909739309E+03  0.49933571884E+03  0.00000000000E+00 0. -1.
        -15    1    1    2    0    0 -0.10985298784E+02 -0.97618672179E+01  0.35407432663E+03  0.35438363019E+03  0.17770000000E+01 0. -1.
         15    1    1    2    0    0 -0.13595613760E+01 -0.20267843249E+01  0.31457485938E+01  0.43600143406E+01  0.17770000000E+01 0.  1.
</event>
<event>
 6    1  0.3836009E-003  0.5031365E+03  0.7546771E-02  0.9392819E-01
        -11   -1    0    0    0    0  0.00000000000E+00  0.00000000000E+00  0.50000000000E+03  0.50000000000E+03  0.00000000000E+00 0.  1.
         11   -1    0    0    0    0 -0.00000000000E+00 -0.00000000000E+00 -0.50000000000E+03  0.50000000000E+03  0.00000000000E+00 0.  1.
        -11    1    1    2    0    0  0.41229091648E+01  0.52296897087E+01  0.48959154904E+03  0.48963683779E+03  0.00000000000E+00 0.  1.
         11    1    1    2    0    0 -0.10161652712E+01 -0.67984404409E+01 -0.49681593019E+03  0.49686348213E+03  0.00000000000E+00 0.  1.
        -15    1    1    2    0    0  0.59162558391E+00  0.36699391267E+01 -0.84537124313E+00  0.42060498766E+01  0.17770000000E+01 0. -1.
         15    1    1    2    0    0 -0.36983694775E+01 -0.21011883945E+01  0.80697524000E+01  0.92936301981E+01  0.17770000000E+01 0.  1.
</event>
<event>
 6    1  0.3836009E-003  0.5045863E+03  0.7546771E-02  0.9389606E-01
        -11   -1    0    0    0    0  0.00000000000E+00  0.00000000000E+00  0.50000000000E+03  0.50000000000E+03  0.00000000000E+00 0.  1.
         11   -1    0    0    0    0 -0.00000000000E+00 -0.00000000000E+00 -0.50000000000E+03  0.50000000000E+03  0.00000000000E+00 0. -1.
        -11    1    1    2    0    0 -0.66211226132E+01  0.46496559362E+01  0.42781259155E+03  0.42788908849E+03  0.00000000000E+00 0.  1.
         11    1    1    2    0    0 -0.98835880865E+01 -0.55132350080E+01 -0.49528441689E+03  0.49541370054E+03  0.00000000000E+00 0. -1.
        -15    1    1    2    0    0  0.17669478945E+01 -0.13728821689E+02  0.16326912937E+02  0.21478558259E+02  0.17770000000E+01 0. -1.
         15    1    1    2    0    0  0.14737762805E+02  0.14592400761E+02  0.51144912407E+02  0.55218652705E+02  0.17770000000E+01 0.  1.
</event>
<event>
 6    1  0.3836009E-003  0.5011003E+03  0.7546771E-02  0.9397351E-01
        -11   -1    0    0    0    0  0.00000000000E+00  0.00000000000E+00  0.50000000000E+03  0.50000000000E+03  0.00000000000E+00 0.  1.
         11   -1    0    0    0    0 -0.00000000000E+00 -0.00000000000E+00 -0.50000000000E+03  0.50000000000E+03  0.00000000000E+00 0.  1.
        -11    1    1    2    0    0 -0.49117053968E+01  0.20632045807E+01  0.31323626745E+03  0.31328156810E+03  0.00000000000E+00 0.  1.
         11    1    1    2    0    0  0.81141005987E+01 -0.10721527762E+01 -0.49883254846E+03  0.49889968885E+03  0.00000000000E+00 0.  1.
        -15    1    1    2    0    0 -0.80714393407E+01  0.59141630971E+00  0.14999828144E+02  0.17136232947E+02  0.17770000000E+01 0.  1.
         15    1    1    2    0    0  0.48690441388E+01 -0.15824681142E+01  0.17059645286E+03  0.17068251010E+03  0.17770000000E+01 0.  1.
</event>
<event>
 6    1  0.3836009E-003  0.5009258E+03  0.7546771E-02  0.9397741E-01
        -11   -1    0    0    0    0  0.00000000000E+00  0.00000000000E+00  0.50000000000E+03  0.50000000000E+03  0.00000000000E+00 0.  1.
         11   -1    0    0    0    0 -0.00000000000E+00 -0.00000000000E+00 -0.50000000000E+03  0.50000000000E+03  0.00000000000E+00 0.  1.
        -11    1    1    2    0    0 -0.78990547496E+01  0.10101783055E+00  0.49901167888E+03  0.49907420383E+03  0.00000000000E+00 0.  1.
         11    1    1    2    0    0  0.69984197499E+01  0.19515548926E+01 -0.43428042764E+03  0.43434119800E+03  0.00000000000E+00 0.  1.
        -15    1    1    2    0    0  0.59865558076E+01 -0.30668512393E+01 -0.54807650982E+02  0.55247450277E+02  0.17770000000E+01 0.  1.
         15    1    1    2    0    0 -0.50859208079E+01  0.10142785161E+01 -0.99236002535E+01  0.11337147894E+02  0.17770000000E+01 0. -1.
</event>
<event>
 6    1  0.3836009E-003  0.5059970E+03  0.7546771E-02  0.9386490E-01
        -11   -1    0    0    0    0  0.00000000000E+00  0.00000000000E+00  0.50000000000E+03  0.50000000000E+03  0.00000000000E+00 0.  1.
         11   -1    0    0    0    0 -0.00000000000E+00 -0.00000000000E+00 -0.50000000000E+03  0.50000000000E+03  0.00000000000E+00 0. -1.
        -11    1    1    2    0    0 -0.11415583066E+02 -0.45714207472E+00  0.49387088845E+03  0.49400301515E+03  0.00000000000E+00 0.  1.
         11    1    1    2    0    0 -0.12443311890E+01 -0.76892869666E+01 -0.25369524351E+03  0.25381479483E+03  0.00000000000E+00 0. -1.
        -15    1    1    2    0    0  0.94975106914E+01 -0.10638896063E+02 -0.23011980068E+03  0.23056814440E+03  0.17770000000E+01 0. -1.
         15    1    1    2    0    0  0.31624035633E+01  0.18785325104E+02 -0.10055844260E+02  0.21614045627E+02  0.17770000000E+01 0.  1.
</event>
<event>
 6    1  0.3836009E-003  0.5075603E+03  0.7546771E-02  0.9383050E-01
        -11   -1    0    0    0    0  0.00000000000E+00  0.00000000000E+00  0.50000000000E+03  0.50000000000E+03  0.00000000000E+00 0. -1.
         11   -1    0    0    0    0 -0.00000000000E+00 -0.00000000000E+00 -0.50000000000E+03  0.50000000000E+03  0.00000000000E+00 0. -1.
        -11    1    1    2    0    0 -0.70064155566E+00  0.64525960823E+01  0.46272924969E+03  0.46277476748E+03  0.00000000000E+00 0. -1.
         11    1    1    2    0    0 -0.71527768888E+01 -0.11584761443E+01 -0.49238636108E+03  0.49243967433E+03  0.00000000000E+00 0. -1.
        -15    1    1    2    0    0  0.14834422637E+02  0.34067172336E+01  0.27034097496E+01  0.15560590302E+02  0.17770000000E+01 0.  1.
         15    1    1    2    0    0 -0.69810041920E+01 -0.87008371716E+01  0.26953701634E+02  0.29224967884E+02  0.17770000000E+01 0. -1.
</event>
<event>
 6    1  0.3836009E-003  0.5162559E+03  0.7546771E-02  0.9364153E-01
        -11   -1    0    0    0    0  0.00000000000E+00  0.00000000000E+00  0.50000000000E+03  0.50000000000E+03  0.00000000000E+00 0. -1.
         11   -1    0    0    0    0 -0.00000000000E+00 -0.00000000000E+00 -0.50000000000E+03  0.50000000000E+03  0.00000000000E+00 0.  1.
        -11    1    1    2    0    0 -0.22641660695E+02 -0.24688227897E+01  0.48320766404E+03  0.48374413327E+03  0.00000000000E+00 0. -1.
         11    1    1    2    0    0  0.17466301594E+02  0.11679124342E+02 -0.45954611285E+03  0.46002619868E+03  0.00000000000E+00 0.  1.
        -15    1    1    2    0    0  0.14192052148E+02  0.34919633014E+01  0.10873134572E+02  0.18302757614E+02  0.17770000000E+01 0. -1.
         15    1    1    2    0    0 -0.90166930466E+01 -0.12702264853E+02 -0.34534685762E+02  0.37926910441E+02  0.17770000000E+01 0.  1.
</event>
<event>
 6    1  0.3836009E-003  0.5710353E+03  0.7546771E-02  0.9253541E-01
        -11   -1    0    0    0    0  0.00000000000E+00  0.00000000000E+00  0.50000000000E+03  0.50000000000E+03  0.00000000000E+00 0.  1.
         11   -1    0    0    0    0 -0.00000000000E+00 -0.00000000000E+00 -0.50000000000E+03  0.50000000000E+03  0.00000000000E+00 0.  1.
        -11    1    1    2    0    0  0.21156123777E+02  0.36755893258E+02  0.38745863539E+03  0.38977271762E+03  0.00000000000E+00 0.  1.
         11    1    1    2    0    0  0.11293819114E+02 -0.54245971402E+01 -0.42878171295E+03  0.42896472345E+03  0.00000000000E+00 0.  1.
        -15    1    1    2    0    0 -0.34834790305E+02  0.78138137054E+01 -0.61537149756E+02  0.71165278256E+02  0.17770000000E+01 0.  1.
         15    1    1    2    0    0  0.23848474139E+01 -0.39145109824E+02  0.10286022731E+03  0.11009728067E+03  0.17770000000E+01 0. -1.
</event>
<event>
 6    1  0.3836009E-003  0.5019676E+03  0.7546771E-02  0.9395418E-01
        -11   -1    0    0    0    0  0.00000000000E+00  0.00000000000E+00  0.50000000000E+03  0.50000000000E+03  0.00000000000E+00 0. -1.
         11   -1    0    0    0    0 -0.00000000000E+00 -0.00000000000E+00 -0.50000000000E+03  0.50000000000E+03  0.00000000000E+00 0. -1.
        -11    1    1    2    0    0 -0.77699847333E+01 -0.17581863908E+02  0.49766126032E+03  0.49803235299E+03  0.00000000000E+00 0. -1.
         11    1    1    2    0    0  0.16714785369E+01  0.10993098583E+02 -0.43872351109E+03  0.43886439961E+03  0.00000000000E+00 0. -1.
        -15    1    1    2    0    0 -0.67143891575E+01 -0.16531617005E+01 -0.16485482824E+02  0.17965100565E+02  0.17770000000E+01 0. -1.
         15    1    1    2    0    0  0.12812895354E+02  0.82419270256E+01 -0.42452266401E+02  0.45138146838E+02  0.17770000000E+01 0.  1.
</event>
<event>
 6    1  0.3836009E-003  0.5006129E+03  0.7546771E-02  0.9398439E-01
        -11   -1    0    0    0    0  0.00000000000E+00  0.00000000000E+00  0.50000000000E+03  0.50000000000E+03  0.00000000000E+00 0. -1.
         11   -1    0    0    0    0 -0.00000000000E+00 -0.00000000000E+00 -0.50000000000E+03  0.50000000000E+03  0.00000000000E+00 0. -1.
        -11    1    1    2    0    0  0.99714829927E+01 -0.16419209187E+00  0.31558614051E+03  0.31574367691E+03  0.00000000000E+00 0. -1.
         11    1    1    2    0    0 -0.63577235263E+01  0.46653904088E+01 -0.49932481984E+03  0.49938708656E+03  0.00000000000E+00 0. -1.
        -15    1    1    2    0    0 -0.90868933524E+01 -0.67741724762E+00  0.15625143759E+03  0.15652699449E+03  0.17770000000E+01 0.  1.
         15    1    1    2    0    0  0.54731338860E+01 -0.38237810694E+01  0.27487241741E+02  0.28342242037E+02  0.17770000000E+01 0. -1.
</event>
<event>
 6    1  0.3836009E-003  0.4905653E+03  0.7546771E-02  0.9421172E-01
        -11   -1    0    0    0    0  0.00000000000E+00  0.00000000000E+00  0.50000000000E+03  0.50000000000E+03  0.00000000000E+00 0. -1.
         11   -1    0    0    0    0 -0.00000000000E+00 -0.00000000000E+00 -0.50000000000E+03  0.50000000000E+03  0.00000000000E+00 0. -1.
        -11    1    1    2    0    0 -0.25101262660E-01 -0.10652757773E+02  0.48886741996E+03  0.48898347229E+03  0.00000000000E+00 0. -1.
         11    1    1    2    0    0 -0.69030867136E+01  0.19238760520E+01 -0.49216384287E+03  0.49221601166E+03  0.00000000000E+00 0. -1.
        -15    1    1    2    0    0  0.20870171478E+01 -0.37118256040E+01 -0.88658415293E+00  0.46986221757E+01  0.17770000000E+01 0.  1.
         15    1    1    2    0    0  0.48411708285E+01  0.12440707325E+02  0.41830070674E+01  0.14101893875E+02  0.17770000000E+01 0. -1.
</event>
<event>
 6    1  0.3836009E-003  0.5751037E+03  0.7546771E-02  0.9245854E-01
        -11   -1    0    0    0    0  0.00000000000E+00  0.00000000000E+00  0.50000000000E+03  0.50000000000E+03  0.00000000000E+00 0. -1.
         11   -1    0    0    0    0 -0.00000000000E+00 -0.00000000000E+00 -0.50000000000E+03  0.50000000000E+03  0.00000000000E+00 0. -1.
        -11    1    1    2    0    0  0.54320064714E+01 -0.47296980984E+01  0.42483520445E+03  0.42489625520E+03  0.00000000000E+00 0. -1.
         11    1    1    2    0    0 -0.81634620540E+01 -0.52864838525E+01 -0.40939221638E+03  0.40950772381E+03  0.00000000000E+00 0. -1.
        -15    1    1    2    0    0  0.40361533736E+02 -0.49749706080E+01 -0.79770978574E+02  0.89556521201E+02  0.17770000000E+01 0.  1.
         15    1    1    2    0    0 -0.37630078154E+02  0.14991152559E+02  0.64327990503E+02  0.76039499789E+02  0.17770000000E+01 0. -1.
</event>
<event>
 6    1  0.3836009E-003  0.5016949E+03  0.7546771E-02  0.9396025E-01
        -11   -1    0    0    0    0  0.00000000000E+00  0.00000000000E+00  0.50000000000E+03  0.50000000000E+03  0.00000000000E+00 0.  1.
         11   -1    0    0    0    0 -0.00000000000E+00 -0.00000000000E+00 -0.50000000000E+03  0.50000000000E+03  0.00000000000E+00 0. -1.
        -11    1    1    2    0    0 -0.79822778649E+01 -0.84364884218E+01  0.49816976634E+03  0.49830513463E+03  0.00000000000E+00 0.  1.
         11    1    1    2    0    0 -0.37223286415E+01  0.29400767272E+01 -0.27768865824E+03  0.27772916789E+03  0.00000000000E+00 0. -1.
        -15    1    1    2    0    0  0.80360651277E+01  0.80255308355E+01 -0.17561037283E+02  0.20988931545E+02  0.17770000000E+01 0.  1.
         15    1    1    2    0    0  0.36685413787E+01 -0.25291191409E+01 -0.20292007083E+03  0.20297676594E+03  0.17770000000E+01 0. -1.
</event>
<event>
 6    1  0.3836009E-003  0.5006846E+03  0.7546771E-02  0.9398279E-01
        -11   -1    0    0    0    0  0.00000000000E+00  0.00000000000E+00  0.50000000000E+03  0.50000000000E+03  0.00000000000E+00 0. -1.
         11   -1    0    0    0    0 -0.00000000000E+00 -0.00000000000E+00 -0.50000000000E+03  0.50000000000E+03  0.00000000000E+00 0.  1.
        -11    1    1    2    0    0  0.80842865842E+01  0.14168677282E+02  0.49904884790E+03  0.49931539101E+03  0.00000000000E+00 0. -1.
         11    1    1    2    0    0 -0.24759749902E+01 -0.13258077086E+02 -0.91142390232E+02  0.92134913889E+02  0.00000000000E+00 0.  1.
        -15    1    1    2    0    0 -0.93074150181E+00  0.93582333588E+01 -0.10721357171E+03  0.10763991128E+03  0.17770000000E+01 0.  1.
         15    1    1    2    0    0 -0.46775700921E+01 -0.10268833555E+02 -0.30069288596E+03  0.30090978382E+03  0.17770000000E+01 0. -1.
</event>
<event>
 6    1  0.3836009E-003  0.5000484E+03  0.7546771E-02  0.9399702E-01
        -11   -1    0    0    0    0  0.00000000000E+00  0.00000000000E+00  0.50000000000E+03  0.50000000000E+03  0.00000000000E+00 0. -1.
         11   -1    0    0    0    0 -0.00000000000E+00 -0.00000000000E+00 -0.50000000000E+03  0.50000000000E+03  0.00000000000E+00 0.  1.
        -11    1    1    2    0    0  0.12567368132E+01 -0.67895203504E+00  0.73436427667E+02  0.73450318392E+02  0.00000000000E+00 0. -1.
         11    1    1    2    0    0 -0.45684026970E+01 -0.65919142986E+01 -0.49988731539E+03  0.49995164938E+03  0.00000000000E+00 0.  1.
        -15    1    1    2    0    0  0.51273958576E+01  0.29687193217E+01  0.24902926372E+03  0.24910607259E+03  0.17770000000E+01 0. -1.
         15    1    1    2    0    0 -0.18157299738E+01  0.43021470120E+01  0.17742162400E+03  0.17749195964E+03  0.17770000000E+01 0. -1.
</event>
<event>
 6    1  0.3836009E-003  0.5026130E+03  0.7546771E-02  0.9393982E-01
        -11   -1    0    0    0    0  0.00000000000E+00  0.00000000000E+00  0.50000000000E+03  0.50000000000E+03  0.00000000000E+00 0. -1.
         11   -1    0    0    0    0 -0.00000000000E+00 -0.00000000000E+00 -0.50000000000E+03  0.50000000000E+03  0.00000000000E+00 0.  1.
        -11    1    1    2    0    0  0.10431609967E+02  0.23205067758E+02  0.49673589706E+03  0.49738701740E+03  0.00000000000E+00 0. -1.
         11    1    1    2    0    0  0.58658835114E+01  0.14985558061E+00 -0.30987106729E+03  0.30992661937E+03  0.00000000000E+00 0.  1.
        -15    1    1    2    0    0  0.68812943659E+01 -0.64095832337E+01 -0.11319802266E+03  0.11360187073E+03  0.17770000000E+01 0.  1.
         15    1    1    2    0    0 -0.23178787844E+02 -0.16945340105E+02 -0.73666807100E+02  0.79084492503E+02  0.17770000000E+01 0. -1.
</event>
<event>
 6    1  0.3836009E-003  0.5034427E+03  0.7546771E-02  0.9392139E-01
        -11   -1    0    0    0    0  0.00000000000E+00  0.00000000000E+00  0.50000000000E+03  0.50000000000E+03  0.00000000000E+00 0. -1.
         11   -1    0    0    0    0 -0.00000000000E+00 -0.00000000000E+00 -0.50000000000E+03  0.50000000000E+03  0.00000000000E+00 0. -1.
        -11    1    1    2    0    0 -0.37737752922E+01 -0.55929998899E+01  0.49651150317E+03  0.49655734392E+03  0.00000000000E+00 0. -1.
         11    1    1    2    0    0  0.53812466214E+01  0.50066857439E+01 -0.49291790006E+03  0.49297269794E+03  0.00000000000E+00 0. -1.
        -15    1    1    2    0    0  0.27249615074E+01 -0.10133245490E+01 -0.42838122836E+01  0.54736659141E+01  0.17770000000E+01 0. -1.
         15    1    1    2    0    0 -0.43324328366E+01  0.15996386950E+01  0.69020917743E+00  0.49962922200E+01  0.17770000000E+01 0.  1.
</event>
<event>
 6    1  0.3836009E-003  0.4764037E+03  0.7546771E-02  0.9454214E-01
        -11   -1    0    0    0    0  0.00000000000E+00  0.00000000000E+00  0.50000000000E+03  0.50000000000E+03  0.00000000000E+00 0. -1.
         11   -1    0    0    0    0 -0.00000000000E+00 -0.00000000000E+00 -0.50000000000E+03  0.50000000000E+03  0.00000000000E+00 0. -1.
        -11    1    1    2    0    0  0.54648898384E+01  0.12074520236E+02  0.47299379921E+03  0.47317945132E+03  0.00000000000E+00 0. -1.
         11    1    1    2    0    0 -0.10301451647E+02  0.18724451572E+02 -0.47968543226E+03  0.48016126345E+03  0.00000000000E+00 0. -1.
        -15    1    1    2    0    0  0.53072203206E+01 -0.20362571821E+02 -0.12641517321E+02  0.24612326340E+02  0.17770000000E+01 0.  1.
         15    1    1    2    0    0 -0.47065851183E+00 -0.10436399987E+02  0.19333150375E+02  0.22046958896E+02  0.17770000000E+01 0. -1.
</event>
<event>
 6    1  0.3836009E-003  0.5356880E+03  0.7546771E-02  0.9323315E-01
        -11   -1    0    0    0    0  0.00000000000E+00  0.00000000000E+00  0.50000000000E+03  0.50000000000E+03  0.00000000000E+00 0. -1.
         11   -1    0    0    0    0 -0.00000000000E+00 -0.00000000000E+00 -0.50000000000E+03  0.50000000000E+03  0.00000000000E+00 0.  1.
        -11    1    1    2    0    0  0.29640296810E+02  0.17503334260E+02  0.34685373787E+03  0.34855764140E+03  0.00000000000E+00 0. -1.
         11    1    1    2    0    0 -0.58461897242E+01  0.24950958933E+01 -0.46426846443E+03  0.46431197541E+03  0.00000000000E+00 0.  1.
        -15    1    1    2    0    0 -0.20996771659E+02 -0.56324984280E+02  0.13413831878E+03  0.14700209035E+03  0.17770000000E+01 0. -1.
         15    1    1    2    0    0 -0.27973354263E+01  0.36326554126E+02 -0.16723592219E+02  0.40128292836E+02  0.17770000000E+01 0.  1.
</event>
<event>
 6    1  0.3836009E-003  0.5000427E+03  0.7546771E-02  0.9399714E-01
        -11   -1    0    0    0    0  0.00000000000E+00  0.00000000000E+00  0.50000000000E+03  0.50000000000E+03  0.00000000000E+00 0.  1.
         11   -1    0    0    0    0 -0.00000000000E+00 -0.00000000000E+00 -0.50000000000E+03  0.50000000000E+03  0.00000000000E+00 0. -1.
        -11    1    1    2    0    0  0.88768305883E+00  0.18804072333E+00  0.49239619235E+02  0.49247979074E+02  0.00000000000E+00 0.  1.
         11    1    1    2    0    0 -0.13114883780E+02 -0.42382026314E+01 -0.49976728177E+03  0.49995729664E+03  0.00000000000E+00 0. -1.
        -15    1    1    2    0    0  0.50335990013E+01  0.35992522514E+01  0.31351713852E+03  0.31358323554E+03  0.17770000000E+01 0.  1.
         15    1    1    2    0    0  0.71936017196E+01  0.45090965670E+00  0.13701052401E+03  0.13721148875E+03  0.17770000000E+01 0. -1.
</event>
<event>
 6    1  0.3836009E-003  0.4896482E+03  0.7546771E-02  0.9423275E-01
        -11   -1    0    0    0    0  0.00000000000E+00  0.00000000000E+00  0.50000000000E+03  0.50000000000E+03  0.00000000000E+00 0. -1.
         11   -1    0    0    0    0 -0.00000000000E+00 -0.00000000000E+00 -0.50000000000E+03  0.50000000000E+03  0.00000000000E+00 0. -1.
        -11    1    1    2    0    0 -0.72425985123E+01  0.19002780975E+01  0.48624377558E+03  0.48630142461E+03  0.00000000000E+00 0. -1.
         11    1    1    2    0    0 -0.24358050162E+01  0.70166361846E+01 -0.49305117631E+03  0.49310711695E+03  0.00000000000E+00 0. -1.
        -15    1    1    2    0    0  0.14228156674E+01 -0.45356204906E+01 -0.38021551220E+01  0.63411647377E+01  0.17770000000E+01 0.  1.
         15    1    1    2    0    0  0.82555878611E+01 -0.43812937914E+01  0.10609555852E+02  0.14250293702E+02  0.17770000000E+01 0.  1.
</event>
<event>
 6    1  0.3836009E-003  0.5006735E+03  0.7546771E-02  0.9398304E-01
        -11   -1    0    0    0    0  0.00000000000E+00  0.00000000000E+00  0.50000000000E+03  0.50000000000E+03  0.00000000000E+00 0. -1.
         11   -1    0    0    0    0 -0.00000000000E+00 -0.00000000000E+00 -0.50000000000E+03  0.50000000000E+03  0.00000000000E+00 0. -1.
        -11    1    1    2    0    0 -0.74165453796E+01 -0.14879491562E+02  0.49904961218E+03  0.49932646619E+03  0.00000000000E+00 0. -1.
         11    1    1    2    0    0 -0.13232433448E+01 -0.10516348430E+01 -0.86234215435E+02  0.86250778666E+02  0.00000000000E+00 0. -1.
        -15    1    1    2    0    0 -0.75361469055E+01 -0.41619619772E+01 -0.58050062762E+02  0.58711863821E+02  0.17770000000E+01 0.  1.
         15    1    1    2    0    0  0.16275935630E+02  0.20093088383E+02 -0.35476533399E+03  0.35571089133E+03  0.17770000000E+01 0. -1.
</event>
<event>
 6    1  0.3836009E-003  0.5008510E+03  0.7546771E-02  0.9397908E-01
        -11   -1    0    0    0    0  0.00000000000E+00  0.00000000000E+00  0.50000000000E+03  0.50000000000E+03  0.00000000000E+00 0. -1.
         11   -1    0    0    0    0 -0.00000000000E+00 -0.00000000000E+00 -0.50000000000E+03  0.50000000000E+03  0.00000000000E+00 0.  1.
        -11    1    1    2    0    0  0.71965126951E-01 -0.41818519251E+01  0.11389827870E+03  0.11397504532E+03  0.00000000000E+00 0. -1.
         11    1    1    2    0    0 -0.11068041037E+02  0.76700970431E+01 -0.49896734762E+03  0.49914902175E+03  0.00000000000E+00 0.  1.
        -15    1    1    2    0    0 -0.10402075721E+02 -0.13411566139E+00  0.23549187552E+03  0.23572823830E+03  0.17770000000E+01 0. -1.
         15    1    1    2    0    0  0.21398151631E+02 -0.33541294566E+01  0.14957719340E+03  0.15114769463E+03  0.17770000000E+01 0.  1.
</event>
<event>
 6    1  0.3836009E-003  0.5045811E+03  0.7546771E-02  0.9389617E-01
        -11   -1    0    0    0    0  0.00000000000E+00  0.00000000000E+00  0.50000000000E+03  0.50000000000E+03  0.00000000000E+00 0. -1.
         11   -1    0    0    0    0 -0.00000000000E+00 -0.00000000000E+00 -0.50000000000E+03  0.50000000000E+03  0.00000000000E+00 0.  1.
        -11    1    1    2    0    0  0.48060443462E+01  0.31068848360E+01  0.26283460628E+03  0.26289690195E+03  0.00000000000E+00 0. -1.
         11    1    1    2    0    0 -0.15243239615E+01  0.65152823738E+01 -0.49537372251E+03  0.49541891105E+03  0.00000000000E+00 0.  1.
        -15    1    1    2    0    0  0.30285044760E+02  0.12598954334E+01  0.11590842814E+03  0.11981941711E+03  0.17770000000E+01 0. -1.
         15    1    1    2    0    0 -0.33566765144E+02 -0.10882062643E+02  0.11663068808E+03  0.12186476989E+03  0.17770000000E+01 0.  1.
</event>
<event>
 6    1  0.3836009E-003  0.5122948E+03  0.7546771E-02  0.9372712E-01
        -11   -1    0    0    0    0  0.00000000000E+00  0.00000000000E+00  0.50000000000E+03  0.50000000000E+03  0.00000000000E+00 0.  1.
         11   -1    0    0    0    0 -0.00000000000E+00 -0.00000000000E+00 -0.50000000000E+03  0.50000000000E+03  0.00000000000E+00 0.  1.
        -11    1    1    2    0    0  0.57829559479E+01 -0.64636425254E+01  0.48762812545E+03  0.48770524909E+03  0.00000000000E+00 0.  1.
         11    1    1    2    0    0 -0.69692790999E+01  0.18040032918E+01 -0.46068298504E+03  0.46073922992E+03  0.00000000000E+00 0.  1.
        -15    1    1    2    0    0 -0.40687471442E+01  0.11367169736E+02  0.86199076244E+01  0.14940809469E+02  0.17770000000E+01 0.  1.
         15    1    1    2    0    0  0.52550702963E+01 -0.67075305024E+01 -0.35565048035E+02  0.36614711524E+02  0.17770000000E+01 0. -1.
</event>
<event>
 6    1  0.3836009E-003  0.5014771E+03  0.7546771E-02  0.9396511E-01
        -11   -1    0    0    0    0  0.00000000000E+00  0.00000000000E+00  0.50000000000E+03  0.50000000000E+03  0.00000000000E+00 0.  1.
         11   -1    0    0    0    0 -0.00000000000E+00 -0.00000000000E+00 -0.50000000000E+03  0.50000000000E+03  0.00000000000E+00 0. -1.
        -11    1    1    2    0    0  0.23646248303E+02 -0.47875208456E+01  0.49793873056E+03  0.49852286287E+03  0.00000000000E+00 0.  1.
         11    1    1    2    0    0  0.66555461220E+01 -0.26216477985E+01 -0.10591892130E+03  0.10616019603E+03  0.00000000000E+00 0. -1.
        -15    1    1    2    0    0 -0.28038344937E+02  0.10740857537E+02 -0.13716173277E+03  0.14042084416E+03  0.17770000000E+01 0.  1.
         15    1    1    2    0    0 -0.22634494884E+01 -0.33316888929E+01 -0.25485807649E+03  0.25489609694E+03  0.17770000000E+01 0. -1.
</event>
<event>
 6    1  0.3836009E-003  0.4919400E+03  0.7546771E-02  0.9418027E-01
        -11   -1    0    0    0    0  0.00000000000E+00  0.00000000000E+00  0.50000000000E+03  0.50000000000E+03  0.00000000000E+00 0. -1.
         11   -1    0    0    0    0 -0.00000000000E+00 -0.00000000000E+00 -0.50000000000E+03  0.50000000000E+03  0.00000000000E+00 0.  1.
        -11    1    1    2    0    0  0.69933695871E+01 -0.15458097902E+01  0.49337146838E+03  0.49342345157E+03  0.00000000000E+00 0. -1.
         11    1    1    2    0    0  0.45575433540E+01 -0.49717281129E+01 -0.49050373750E+03  0.49055010527E+03  0.00000000000E+00 0.  1.
        -15    1    1    2    0    0 -0.83780365336E+01  0.36700716588E+01  0.17664500202E+01  0.94836172852E+01  0.17770000000E+01 0.  1.
         15    1    1    2    0    0 -0.31728764074E+01  0.28474662443E+01 -0.46341809043E+01  0.65428258698E+01  0.17770000000E+01 0. -1.
</event>
<event>
 6    1  0.3836009E-003  0.5054824E+03  0.7546771E-02  0.9387625E-01
        -11   -1    0    0    0    0  0.00000000000E+00  0.00000000000E+00  0.50000000000E+03  0.50000000000E+03  0.00000000000E+00 0.  1.
         11   -1    0    0    0    0 -0.00000000000E+00 -0.00000000000E+00 -0.50000000000E+03  0.50000000000E+03  0.00000000000E+00 0.  1.
        -11    1    1    2    0    0 -0.31661193609E+01 -0.96666598531E+01  0.37636606525E+03  0.37650349759E+03  0.00000000000E+00 0.  1.
         11    1    1    2    0    0  0.34175357474E+02 -0.92280843528E+01 -0.49324898236E+03  0.49451761465E+03  0.00000000000E+00 0.  1.
        -15    1    1    2    0    0  0.73110085838E+01 -0.34293583875E+01  0.33654058572E+02  0.34654938072E+02  0.17770000000E+01 0.  1.
         15    1    1    2    0    0 -0.38320246697E+02  0.22324102593E+02  0.83228858533E+02  0.94323949690E+02  0.17770000000E+01 0.  1.
</event>
<event>
 6    1  0.3836009E-003  0.5286288E+03  0.7546771E-02  0.9337935E-01
        -11   -1    0    0    0    0  0.00000000000E+00  0.00000000000E+00  0.50000000000E+03  0.50000000000E+03  0.00000000000E+00 0. -1.
         11   -1    0    0    0    0 -0.00000000000E+00 -0.00000000000E+00 -0.50000000000E+03  0.50000000000E+03  0.00000000000E+00 0. -1.
        -11    1    1    2    0    0 -0.79467333291E+01 -0.62962907112E+00  0.45767668438E+03  0.45774610258E+03  0.00000000000E+00 0. -1.
         11    1    1    2    0    0  0.15993441959E+02 -0.16984472558E+02 -0.47079353816E+03  0.47137121047E+03  0.00000000000E+00 0. -1.
        -15    1    1    2    0    0 -0.34350293661E+01 -0.12562916475E+02  0.32239847340E+02  0.34816544668E+02  0.17770000000E+01 0. -1.
         15    1    1    2    0    0 -0.46116792639E+01  0.30177018104E+02 -0.19122993561E+02  0.36066142281E+02  0.17770000000E+01 0.  1.
</event>
<event>
 6    1  0.3836009E-003  0.5011957E+03  0.7546771E-02  0.9397138E-01
        -11   -1    0    0    0    0  0.00000000000E+00  0.00000000000E+00  0.50000000000E+03  0.50000000000E+03  0.00000000000E+00 0.  1.
         11   -1    0    0    0    0 -0.00000000000E+00 -0.00000000000E+00 -0.50000000000E+03  0.50000000000E+03  0.00000000000E+00 0. -1.
        -11    1    1    2    0    0 -0.37537468620E+01  0.49008490517E+01  0.45664399739E+03  0.45668572267E+03  0.00000000000E+00 0.  1.
         11    1    1    2    0    0 -0.78995501844E+01 -0.35417608863E+01 -0.49872915585E+03  0.49880428813E+03  0.00000000000E+00 0. -1.
        -15    1    1    2    0    0  0.11737209686E+02 -0.27747640685E+01  0.36392894462E+02  0.38380488574E+02  0.17770000000E+01 0.  1.
         15    1    1    2    0    0 -0.83912640047E-01  0.14156759031E+01  0.56922639916E+01  0.61295006276E+01  0.17770000000E+01 0. -1.
</event>
<event>
 6    1  0.3836009E-003  0.5008107E+03  0.7546771E-02  0.9397998E-01
        -11   -1    0    0    0    0  0.00000000000E+00  0.00000000000E+00  0.50000000000E+03  0.50000000000E+03  0.00000000000E+00 0.  1.
         11   -1    0    0    0    0 -0.00000000000E+00 -0.00000000000E+00 -0.50000000000E+03  0.50000000000E+03  0.00000000000E+00 0.  1.
        -11    1    1    2    0    0  0.62164788275E+01  0.61601290441E+01  0.49911258636E+03  0.49918930844E+03  0.00000000000E+00 0.  1.
         11    1    1    2    0    0  0.59313414938E+01 -0.42451131696E+01 -0.41486160995E+03  0.41492572492E+03  0.00000000000E+00 0.  1.
        -15    1    1    2    0    0 -0.63897103112E+01 -0.62506199836E+01 -0.40911872306E+02  0.41914647471E+02  0.17770000000E+01 0.  1.
         15    1    1    2    0    0 -0.57581100102E+01  0.43356041090E+01 -0.43339104106E+02  0.43970319166E+02  0.17770000000E+01 0. -1.
</event>
<event>
 6    1  0.3836009E-003  0.5070449E+03  0.7546771E-02  0.9384183E-01
        -11   -1    0    0    0    0  0.00000000000E+00  0.00000000000E+00  0.50000000000E+03  0.50000000000E+03  0.00000000000E+00 0. -1.
         11   -1    0    0    0    0 -0.00000000000E+00 -0.00000000000E+00 -0.50000000000E+03  0.50000000000E+03  0.00000000000E+00 0.  1.
        -11    1    1    2    0    0  0.44109850029E+01  0.45562921587E+01  0.46790542394E+03  0.46794839709E+03  0.00000000000E+00 0. -1.
         11    1    1    2    0    0 -0.29609617265E+01  0.80955663721E+01 -0.49287975174E+03  0.49295512490E+03  0.00000000000E+00 0.  1.
        -15    1    1    2    0    0 -0.70581456562E+01 -0.72687362911E+01  0.28558015749E+02  0.30354076166E+02  0.17770000000E+01 0.  1.
         15    1    1    2    0    0  0.56081223798E+01 -0.53831222397E+01 -0.35836879525E+01  0.87424018448E+01  0.17770000000E+01 0. -1.
</event>
<event>
 6    1  0.3836009E-003  0.5017132E+03  0.7546771E-02  0.9395985E-01
        -11   -1    0    0    0    0  0.00000000000E+00  0.00000000000E+00  0.50000000000E+03  0.50000000000E+03  0.00000000000E+00 0. -1.
         11   -1    0    0    0    0 -0.00000000000E+00 -0.00000000000E+00 -0.50000000000E+03  0.50000000000E+03  0.00000000000E+00 0. -1.
        -11    1    1    2    0    0 -0.51184983269E+01  0.88660425220E+01  0.49818166131E+03  0.49828683848E+03  0.00000000000E+00 0. -1.
         11    1    1    2    0    0  0.11254269805E+02  0.65644643135E+00 -0.45439374619E+03  0.45453356981E+03  0.00000000000E+00 0. -1.
        -15    1    1    2    0    0 -0.23394477007E+00 -0.35629786984E+01 -0.18901178734E+01  0.44135951260E+01  0.17770000000E+01 0.  1.
         15    1    1    2    0    0 -0.59018267083E+01 -0.59595102549E+01 -0.41897797247E+02  0.42765996588E+02  0.17770000000E+01 0. -1.
</event>
<event>
 6    1  0.3836009E-003  0.5050997E+03  0.7546771E-02  0.9388471E-01
        -11   -1    0    0    0    0  0.00000000000E+00  0.00000000000E+00  0.50000000000E+03  0.50000000000E+03  0.00000000000E+00 0.  1.
         11   -1    0    0    0    0 -0.00000000000E+00 -0.00000000000E+00 -0.50000000000E+03  0.50000000000E+03  0.00000000000E+00 0.  1.
        -11    1    1    2    0    0  0.76824945442E+01 -0.96423419063E+01  0.39837056775E+03  0.39856129357E+03  0.00000000000E+00 0.  1.
         11    1    1    2    0    0  0.11191761077E+02 -0.61650802643E+01 -0.49473537515E+03  0.49490034871E+03  0.00000000000E+00 0.  1.
        -15    1    1    2    0    0 -0.28243351393E+02  0.37595760691E+01  0.48614808680E+02  0.56377111154E+02  0.17770000000E+01 0. -1.
         15    1    1    2    0    0  0.93690957718E+01  0.12047846101E+02  0.47749998712E+02  0.50161246568E+02  0.17770000000E+01 0.  1.
</event>
<event>
 6    1  0.3836009E-003  0.4707514E+03  0.7546771E-02  0.9467744E-01
        -11   -1    0    0    0    0  0.00000000000E+00  0.00000000000E+00  0.50000000000E+03  0.50000000000E+03  0.00000000000E+00 0.  1.
         11   -1    0    0    0    0 -0.00000000000E+00 -0.00000000000E+00 -0.50000000000E+03  0.50000000000E+03  0.00000000000E+00 0. -1.
        -11    1    1    2    0    0  0.33442360113E+01 -0.10677793347E+02  0.47687029258E+03  0.47700154625E+03  0.00000000000E+00 0.  1.
         11    1    1    2    0    0 -0.64650864219E+00 -0.31234273092E+01 -0.34521832489E+02  0.34668872061E+02  0.00000000000E+00 0. -1.
        -15    1    1    2    0    0  0.27061937945E+01  0.75922643422E+01 -0.46453003886E+03  0.46460335846E+03  0.17770000000E+01 0. -1.
         15    1    1    2    0    0 -0.54039211635E+01  0.62089563138E+01  0.22181578772E+02  0.23726223220E+02  0.17770000000E+01 0.  1.
</event>
<event>
 6    1  0.3836009E-003  0.5004052E+03  0.7546771E-02  0.9398903E-01
        -11   -1    0    0    0    0  0.00000000000E+00  0.00000000000E+00  0.50000000000E+03  0.50000000000E+03  0.00000000000E+00 0. -1.
         11   -1    0    0    0    0 -0.00000000000E+00 -0.00000000000E+00 -0.50000000000E+03  0.50000000000E+03  0.00000000000E+00 0.  1.
        -11    1    1    2    0    0 -0.35908190347E+01 -0.49301094136E+01  0.34406567893E+03  0.34411973407E+03  0.00000000000E+00 0. -1.
         11    1    1    2    0    0  0.10373089605E+01  0.68238740175E+01 -0.49954709250E+03  0.49959477468E+03  0.00000000000E+00 0.  1.
        -15    1    1    2    0    0 -0.54289220124E+00 -0.82450150397E+01  0.74890015873E+02  0.75365424509E+02  0.17770000000E+01 0. -1.
         15    1    1    2    0    0  0.30964022754E+01  0.63512504357E+01  0.80591397695E+02  0.80920066736E+02  0.17770000000E+01 0.  1.
</event>
<event>
 6    1  0.3836009E-003  0.4894916E+03  0.7546771E-02  0.9423635E-01
        -11   -1    0    0    0    0  0.00000000000E+00  0.00000000000E+00  0.50000000000E+03  0.50000000000E+03  0.00000000000E+00 0. -1.
         11   -1    0    0    0    0 -0.00000000000E+00 -0.00000000000E+00 -0.50000000000E+03  0.50000000000E+03  0.00000000000E+00 0. -1.
        -11    1    1    2    0    0  0.98223038142E+01 -0.23592272257E+00  0.49049105289E+03  0.49058944779E+03  0.00000000000E+00 0. -1.
         11    1    1    2    0    0 -0.29716547222E+01  0.89056289665E+01 -0.48836824893E+03  0.48845848086E+03  0.00000000000E+00 0. -1.
        -15    1    1    2    0    0 -0.35359206900E+01 -0.55750436207E+00 -0.88843023300E+01  0.97417710469E+01  0.17770000000E+01 0.  1.
         15    1    1    2    0    0 -0.33147284020E+01 -0.81122018818E+01  0.67614983691E+01  0.11210300306E+02  0.17770000000E+01 0. -1.
</event>
<event>
 6    1  0.3836009E-003  0.5064138E+03  0.7546771E-02  0.9385572E-01
        -11   -1    0    0    0    0  0.00000000000E+00  0.00000000000E+00  0.50000000000E+03  0.50000000000E+03  0.00000000000E+00 0. -1.
         11   -1    0    0    0    0 -0.00000000000E+00 -0.00000000000E+00 -0.50000000000E+03  0.50000000000E+03  0.00000000000E+00 0. -1.
        -11    1    1    2    0    0 -0.74041731844E+01  0.18845597734E+01  0.49352707120E+03  0.49358620661E+03  0.00000000000E+00 0. -1.
         11    1    1    2    0    0 -0.13198590215E+02  0.10320688292E+02 -0.45910785589E+03  0.45941347687E+03  0.00000000000E+00 0. -1.
        -15    1    1    2    0    0  0.22885810632E+02 -0.52705827898E+01 -0.30471440716E+02  0.38512410980E+02  0.17770000000E+01 0. -1.
         15    1    1    2    0    0 -0.22830472323E+01 -0.69346652751E+01 -0.39477745938E+01  0.84879055359E+01  0.17770000000E+01 0.  1.
</event>
<event>
 6    1  0.3836009E-003  0.5039844E+03  0.7546771E-02  0.9390938E-01
        -11   -1    0    0    0    0  0.00000000000E+00  0.00000000000E+00  0.50000000000E+03  0.50000000000E+03  0.00000000000E+00 0.  1.
         11   -1    0    0    0    0 -0.00000000000E+00 -0.00000000000E+00 -0.50000000000E+03  0.50000000000E+03  0.00000000000E+00 0. -1.
        -11    1    1    2    0    0 -0.79697619825E+01 -0.78464019227E+01  0.49588953998E+03  0.49601564389E+03  0.00000000000E+00 0.  1.
         11    1    1    2    0    0  0.72282610075E+01 -0.14806176024E+01 -0.47415538338E+03  0.47421278723E+03  0.00000000000E+00 0. -1.
        -15    1    1    2    0    0  0.61884191414E+01  0.10017030344E+02 -0.66896120652E+01  0.13658186811E+02  0.17770000000E+01 0.  1.
         15    1    1    2    0    0 -0.54469181663E+01 -0.69001081857E+00 -0.15044544529E+02  0.16113382063E+02  0.17770000000E+01 0. -1.
</event>
<event>
 6    1  0.3836009E-003  0.5036734E+03  0.7546771E-02  0.9391627E-01
        -11   -1    0    0    0    0  0.00000000000E+00  0.00000000000E+00  0.50000000000E+03  0.50000000000E+03  0.00000000000E+00 0. -1.
         11   -1    0    0    0    0 -0.00000000000E+00 -0.00000000000E+00 -0.50000000000E+03  0.50000000000E+03  0.00000000000E+00 0. -1.
        -11    1    1    2    0    0  0.23885573558E+01  0.85182194094E+01  0.42140921994E+03  0.42150207107E+03  0.00000000000E+00 0. -1.
         11    1    1    2    0    0  0.11858728877E+02  0.14824584158E+02 -0.49596338019E+03  0.49632657820E+03  0.00000000000E+00 0. -1.
        -15    1    1    2    0    0  0.12615052759E+01 -0.10812990388E+02  0.45973315309E+02  0.47278066862E+02  0.17770000000E+01 0.  1.
         15    1    1    2    0    0 -0.15508791509E+02 -0.12529813179E+02  0.28580844936E+02  0.34893283862E+02  0.17770000000E+01 0.  1.
</event>
<event>
 6    1  0.3836009E-003  0.5217309E+03  0.7546771E-02  0.9352456E-01
        -11   -1    0    0    0    0  0.00000000000E+00  0.00000000000E+00  0.50000000000E+03  0.50000000000E+03  0.00000000000E+00 0.  1.
         11   -1    0    0    0    0 -0.00000000000E+00 -0.00000000000E+00 -0.50000000000E+03  0.50000000000E+03  0.00000000000E+00 0. -1.
        -11    1    1    2    0    0 -0.10597023561E+02 -0.27034556115E+02  0.38004551441E+03  0.38115319381E+03  0.00000000000E+00 0.  1.
         11    1    1    2    0    0 -0.53472907731E+02  0.81675925207E+02 -0.46819973578E+03  0.47826906779E+03  0.00000000000E+00 0. -1.
        -15    1    1    2    0    0  0.47672549769E+02 -0.41514419830E+01  0.69258985655E+02  0.84201373475E+02  0.17770000000E+01 0. -1.
         15    1    1    2    0    0  0.16397381522E+02 -0.50489927109E+02  0.18895235716E+02  0.56376364924E+02  0.17770000000E+01 0.  1.
</event>
<event>
 6    1  0.3836009E-003  0.5060725E+03  0.7546771E-02  0.9386324E-01
        -11   -1    0    0    0    0  0.00000000000E+00  0.00000000000E+00  0.50000000000E+03  0.50000000000E+03  0.00000000000E+00 0.  1.
         11   -1    0    0    0    0 -0.00000000000E+00 -0.00000000000E+00 -0.50000000000E+03  0.50000000000E+03  0.00000000000E+00 0. -1.
        -11    1    1    2    0    0 -0.93327536205E+01  0.74301681451E+01  0.45474395930E+03  0.45490040252E+03  0.00000000000E+00 0.  1.
         11    1    1    2    0    0  0.10725607944E+02 -0.10210009103E+01 -0.49380998698E+03  0.49392750921E+03  0.00000000000E+00 0. -1.
        -15    1    1    2    0    0 -0.49527168219E+01 -0.70427957210E+01 -0.27120632946E+01  0.92001843350E+01  0.17770000000E+01 0.  1.
         15    1    1    2    0    0  0.35598624986E+01  0.63362848622E+00  0.41778090975E+02  0.41971903943E+02  0.17770000000E+01 0. -1.
</event>
<event>
 6    1  0.3836009E-003  0.5008643E+03  0.7546771E-02  0.9397878E-01
        -11   -1    0    0    0    0  0.00000000000E+00  0.00000000000E+00  0.50000000000E+03  0.50000000000E+03  0.00000000000E+00 0.  1.
         11   -1    0    0    0    0 -0.00000000000E+00 -0.00000000000E+00 -0.50000000000E+03  0.50000000000E+03  0.00000000000E+00 0. -1.
        -11    1    1    2    0    0  0.58807732534E+01  0.22224685567E+01  0.16302081810E+03  0.16314199335E+03  0.00000000000E+00 0.  1.
         11    1    1    2    0    0  0.21802009170E+01 -0.11182154851E+02 -0.49900562613E+03  0.49913566169E+03  0.00000000000E+00 0. -1.
        -15    1    1    2    0    0  0.15433473219E+00  0.12050273665E+02  0.45587358145E+02  0.47186839969E+02  0.17770000000E+01 0.  1.
         15    1    1    2    0    0 -0.82153089026E+01 -0.30905873705E+01  0.29039744989E+03  0.29053550499E+03  0.17770000000E+01 0. -1.
</event>
<event>
 6    1  0.3836009E-003  0.5092505E+03  0.7546771E-02  0.9379346E-01
        -11   -1    0    0    0    0  0.00000000000E+00  0.00000000000E+00  0.50000000000E+03  0.50000000000E+03  0.00000000000E+00 0. -1.
         11   -1    0    0    0    0 -0.00000000000E+00 -0.00000000000E+00 -0.50000000000E+03  0.50000000000E+03  0.00000000000E+00 0.  1.
        -11    1    1    2    0    0 -0.15309110782E+02  0.19146240703E+02  0.49013686677E+03  0.49074952427E+03  0.00000000000E+00 0. -1.
         11    1    1    2    0    0 -0.14297278119E+02 -0.24032523107E+02 -0.41699438148E+03  0.41793096142E+03  0.00000000000E+00 0.  1.
        -15    1    1    2    0    0  0.73864623613E+01  0.10282645001E+02 -0.66104082299E+02  0.67329043065E+02  0.17770000000E+01 0. -1.
         15    1    1    2    0    0  0.22219926539E+02 -0.53963625970E+01 -0.70384029867E+01  0.23990471239E+02  0.17770000000E+01 0.  1.
</event>
<event>
 6    1  0.3836009E-003  0.5022455E+03  0.7546771E-02  0.9394799E-01
        -11   -1    0    0    0    0  0.00000000000E+00  0.00000000000E+00  0.50000000000E+03  0.50000000000E+03  0.00000000000E+00 0. -1.
         11   -1    0    0    0    0 -0.00000000000E+00 -0.00000000000E+00 -0.50000000000E+03  0.50000000000E+03  0.00000000000E+00 0.  1.
        -11    1    1    2    0    0 -0.80307525699E+00 -0.95707068217E+01  0.40778006649E+03  0.40789315511E+03  0.00000000000E+00 0. -1.
         11    1    1    2    0    0 -0.66520097841E+01 -0.78401833197E+01 -0.49764827694E+03  0.49775448290E+03  0.00000000000E+00 0.  1.
        -15    1    1    2    0    0 -0.14669845960E+01  0.19093069583E+02  0.54478267084E+02  0.57773148290E+02  0.17770000000E+01 0. -1.
         15    1    1    2    0    0  0.89220696371E+01 -0.16821794417E+01  0.35389943370E+02  0.36579213702E+02  0.17770000000E+01 0.  1.
</event>
<event>
 6    1  0.3836009E-003  0.5088413E+03  0.7546771E-02  0.9380241E-01
        -11   -1    0    0    0    0  0.00000000000E+00  0.00000000000E+00  0.50000000000E+03  0.50000000000E+03  0.00000000000E+00 0. -1.
         11   -1    0    0    0    0 -0.00000000000E+00 -0.00000000000E+00 -0.50000000000E+03  0.50000000000E+03  0.00000000000E+00 0. -1.
        -11    1    1    2    0    0  0.97929609993E+01 -0.20739613776E+02  0.49062289897E+03  0.49115869397E+03  0.00000000000E+00 0. -1.
         11    1    1    2    0    0  0.84174578548E+01 -0.64756909437E+01 -0.23810509023E+03  0.23834181791E+03  0.00000000000E+00 0. -1.
        -15    1    1    2    0    0 -0.12822362030E+02  0.24890651443E+02 -0.13030918801E+02  0.30934124702E+02  0.17770000000E+01 0. -1.
         15    1    1    2    0    0 -0.53880568241E+01  0.23246532761E+01 -0.23948688994E+03  0.23956536342E+03  0.17770000000E+01 0.  1.
</event>
<event>
 6    1  0.3836009E-003  0.5134382E+03  0.7546771E-02  0.9370233E-01
        -11   -1    0    0    0    0  0.00000000000E+00  0.00000000000E+00  0.50000000000E+03  0.50000000000E+03  0.00000000000E+00 0. -1.
         11   -1    0    0    0    0 -0.00000000000E+00 -0.00000000000E+00 -0.50000000000E+03  0.50000000000E+03  0.00000000000E+00 0.  1.
        -11    1    1    2    0    0  0.57804502341E+01 -0.70576309621E+01  0.45568916495E+03  0.45578047217E+03  0.00000000000E+00 0. -1.
         11    1    1    2    0    0  0.42883636934E+01 -0.32327762754E+02 -0.48546776633E+03  0.48656184238E+03  0.00000000000E+00 0.  1.
        -15    1    1    2    0    0 -0.63397233935E+01  0.37756052534E+02  0.13263490300E+02  0.40556004483E+02  0.17770000000E+01 0. -1.
         15    1    1    2    0    0 -0.37290905339E+01  0.16293411822E+01  0.16515111080E+02  0.17101680966E+02  0.17770000000E+01 0.  1.
</event>
<event>
 6    1  0.3836009E-003  0.5026643E+03  0.7546771E-02  0.9393868E-01
        -11   -1    0    0    0    0  0.00000000000E+00  0.00000000000E+00  0.50000000000E+03  0.50000000000E+03  0.00000000000E+00 0.  1.
         11   -1    0    0    0    0 -0.00000000000E+00 -0.00000000000E+00 -0.50000000000E+03  0.50000000000E+03  0.00000000000E+00 0. -1.
        -11    1    1    2    0    0  0.44407201276E+01 -0.55000349865E+01  0.49728548092E+03  0.49733572153E+03  0.00000000000E+00 0.  1.
         11    1    1    2    0    0  0.34697120257E+01 -0.17929023418E+02 -0.24847754916E+03  0.24914770964E+03  0.00000000000E+00 0. -1.
        -15    1    1    2    0    0 -0.27637169766E+01 -0.10355082512E+02 -0.27321234963E+02  0.29401929771E+02  0.17770000000E+01 0.  1.
         15    1    1    2    0    0 -0.51467151768E+01  0.33784140916E+02 -0.22148669679E+03  0.22411463905E+03  0.17770000000E+01 0. -1.
</event>
<event>
 6    1  0.3836009E-003  0.5045356E+03  0.7546771E-02  0.9389718E-01
        -11   -1    0    0    0    0  0.00000000000E+00  0.00000000000E+00  0.50000000000E+03  0.50000000000E+03  0.00000000000E+00 0.  1.
         11   -1    0    0    0    0 -0.00000000000E+00 -0.00000000000E+00 -0.50000000000E+03  0.50000000000E+03  0.00000000000E+00 0. -1.
        -11    1    1    2    0    0  0.53897283936E+01 -0.33014075977E+01  0.32215073323E+03  0.32221273002E+03  0.00000000000E+00 0.  1.
         11    1    1    2    0    0  0.15625552695E+02 -0.27048334583E+01 -0.49521057427E+03  0.49546441537E+03  0.00000000000E+00 0. -1.
        -15    1    1    2    0    0 -0.84190037297E+01  0.70752179994E+01  0.26698438764E+01  0.11455310073E+02  0.17770000000E+01 0.  1.
         15    1    1    2    0    0 -0.12596277359E+02 -0.10689769434E+01  0.17038999717E+03  0.17086754454E+03  0.17770000000E+01 0. -1.
</event>
<event>
 6    1  0.3836009E-003  0.5087523E+03  0.7546771E-02  0.9380436E-01
        -11   -1    0    0    0    0  0.00000000000E+00  0.00000000000E+00  0.50000000000E+03  0.50000000000E+03  0.00000000000E+00 0.  1.
         11   -1    0    0    0    0 -0.00000000000E+00 -0.00000000000E+00 -0.50000000000E+03  0.50000000000E+03  0.00000000000E+00 0. -1.
        -11    1    1    2    0    0 -0.22444981037E+01  0.72600970454E+01  0.48380357012E+03  0.48386324643E+03  0.00000000000E+00 0.  1.
         11    1    1    2    0    0 -0.17122504862E+01 -0.79317814472E+01 -0.49118066803E+03  0.49124769068E+03  0.00000000000E+00 0. -1.
        -15    1    1    2    0    0 -0.20008313339E+01  0.84075807849E+01 -0.40888347316E+01  0.97245585578E+01  0.17770000000E+01 0.  1.
         15    1    1    2    0    0  0.59575799238E+01 -0.77358963831E+01  0.11465932634E+02  0.15164504329E+02  0.17770000000E+01 0. -1.
</event>
<event>
 6    1  0.3836009E-003  0.5058888E+03  0.7546771E-02  0.9386729E-01
        -11   -1    0    0    0    0  0.00000000000E+00  0.00000000000E+00  0.50000000000E+03  0.50000000000E+03  0.00000000000E+00 0.  1.
         11   -1    0    0    0    0 -0.00000000000E+00 -0.00000000000E+00 -0.50000000000E+03  0.50000000000E+03  0.00000000000E+00 0.  1.
        -11    1    1    2    0    0 -0.61355684601E+01  0.55770033097E+01  0.40895538385E+03  0.40903942860E+03  0.00000000000E+00 0.  1.
         11    1    1    2    0    0 -0.38092171295E+01  0.56247224832E+01 -0.49406446524E+03  0.49411116507E+03  0.00000000000E+00 0.  1.
        -15    1    1    2    0    0 -0.92656552724E+01 -0.68505601620E+01  0.25241661538E+01  0.11929446170E+02  0.17770000000E+01 0.  1.
         15    1    1    2    0    0  0.19210440862E+02 -0.43511656309E+01  0.82584915232E+02  0.84919960159E+02  0.17770000000E+01 0. -1.
</event>
<event>
 6    1  0.3836009E-003  0.5066935E+03  0.7546771E-02  0.9384956E-01
        -11   -1    0    0    0    0  0.00000000000E+00  0.00000000000E+00  0.50000000000E+03  0.50000000000E+03  0.00000000000E+00 0. -1.
         11   -1    0    0    0    0 -0.00000000000E+00 -0.00000000000E+00 -0.50000000000E+03  0.50000000000E+03  0.00000000000E+00 0.  1.
        -11    1    1    2    0    0  0.10691034880E+02  0.47997257483E+01  0.49316723597E+03  0.49330645468E+03  0.00000000000E+00 0. -1.
         11    1    1    2    0    0 -0.74258863880E+01 -0.44505482738E+01 -0.46206254651E+03  0.46214364439E+03  0.00000000000E+00 0.  1.
        -15    1    1    2    0    0 -0.10979348661E+02 -0.47718870871E+01  0.49586829851E-01  0.12102776179E+02  0.17770000000E+01 0.  1.
         15    1    1    2    0    0  0.77142001687E+01  0.44227096126E+01 -0.31154276288E+02  0.32447124751E+02  0.17770000000E+01 0. -1.
</event>
<event>
 6    1  0.3836009E-003  0.5118755E+03  0.7546771E-02  0.9373622E-01
        -11   -1    0    0    0    0  0.00000000000E+00  0.00000000000E+00  0.50000000000E+03  0.50000000000E+03  0.00000000000E+00 0. -1.
         11   -1    0    0    0    0 -0.00000000000E+00 -0.00000000000E+00 -0.50000000000E+03  0.50000000000E+03  0.00000000000E+00 0. -1.
        -11    1    1    2    0    0 -0.33370077041E+01 -0.61222280705E+01  0.48807466633E+03  0.48812446897E+03  0.00000000000E+00 0. -1.
         11    1    1    2    0    0 -0.28665579713E+02 -0.15777268222E+01 -0.46535500363E+03  0.46623972813E+03  0.00000000000E+00 0. -1.
        -15    1    1    2    0    0  0.23961273607E+02  0.80564410937E+01 -0.46364340152E+01  0.25762436324E+02  0.17770000000E+01 0. -1.
         15    1    1    2    0    0  0.80413138103E+01 -0.35648620091E+00 -0.18083228688E+02  0.19873366574E+02  0.17770000000E+01 0.  1.
</event>
<event>
 6    1  0.3836009E-003  0.5015831E+03  0.7546771E-02  0.9396274E-01
        -11   -1    0    0    0    0  0.00000000000E+00  0.00000000000E+00  0.50000000000E+03  0.50000000000E+03  0.00000000000E+00 0. -1.
         11   -1    0    0    0    0 -0.00000000000E+00 -0.00000000000E+00 -0.50000000000E+03  0.50000000000E+03  0.00000000000E+00 0. -1.
        -11    1    1    2    0    0 -0.13144672604E+01  0.90171351319E+01  0.43508791263E+03  0.43518332719E+03  0.00000000000E+00 0. -1.
         11    1    1    2    0    0  0.81972600143E+01 -0.36441684011E+01 -0.49833619928E+03  0.49841693646E+03  0.00000000000E+00 0. -1.
        -15    1    1    2    0    0 -0.76197513757E+01 -0.56522913597E+00  0.91424782668E+01  0.12046689706E+02  0.17770000000E+01 0. -1.
         15    1    1    2    0    0  0.73695862175E+00 -0.48077375949E+01  0.54105808387E+02  0.54353046640E+02  0.17770000000E+01 0.  1.
</event>
<event>
 6    1  0.3836009E-003  0.4892445E+03  0.7546771E-02  0.9424203E-01
        -11   -1    0    0    0    0  0.00000000000E+00  0.00000000000E+00  0.50000000000E+03  0.50000000000E+03  0.00000000000E+00 0.  1.
         11   -1    0    0    0    0 -0.00000000000E+00 -0.00000000000E+00 -0.50000000000E+03  0.50000000000E+03  0.00000000000E+00 0. -1.
        -11    1    1    2    0    0 -0.64761610189E+01  0.21113772175E+01  0.48717174665E+03  0.48721936467E+03  0.00000000000E+00 0.  1.
         11    1    1    2    0    0 -0.98262701054E+01 -0.23255905112E+01 -0.49131053452E+03  0.49141429089E+03  0.00000000000E+00 0. -1.
        -15    1    1    2    0    0  0.76739653199E+01  0.40226150937E+01 -0.30707589724E+01  0.93626099775E+01  0.17770000000E+01 0.  1.
         15    1    1    2    0    0  0.86284658044E+01 -0.38084018000E+01  0.72095468441E+01  0.12003734465E+02  0.17770000000E+01 0.  1.
</event>
<event>
 6    1  0.3836009E-003  0.5116667E+03  0.7546771E-02  0.9374076E-01
        -11   -1    0    0    0    0  0.00000000000E+00  0.00000000000E+00  0.50000000000E+03  0.50000000000E+03  0.00000000000E+00 0. -1.
         11   -1    0    0    0    0 -0.00000000000E+00 -0.00000000000E+00 -0.50000000000E+03  0.50000000000E+03  0.00000000000E+00 0.  1.
        -11    1    1    2    0    0  0.84707359569E+01 -0.79985292988E+01  0.31720118348E+03  0.31741506051E+03  0.00000000000E+00 0. -1.
         11    1    1    2    0    0  0.23281237052E+02 -0.35176769479E+02 -0.48650797707E+03  0.48833332147E+03  0.00000000000E+00 0.  1.
        -15    1    1    2    0    0 -0.24484680981E+02  0.37604996516E+02  0.28613870211E+02  0.53249851297E+02  0.17770000000E+01 0. -1.
         15    1    1    2    0    0 -0.72672920283E+01  0.55703022617E+01  0.14069292338E+03  0.14100176672E+03  0.17770000000E+01 0. -1.
</event>
<event>
 6    1  0.3836009E-003  0.5004974E+03  0.7546771E-02  0.9398697E-01
        -11   -1    0    0    0    0  0.00000000000E+00  0.00000000000E+00  0.50000000000E+03  0.50000000000E+03  0.00000000000E+00 0. -1.
         11   -1    0    0    0    0 -0.00000000000E+00 -0.00000000000E+00 -0.50000000000E+03  0.50000000000E+03  0.00000000000E+00 0. -1.
        -11    1    1    2    0    0 -0.32573951485E+01 -0.81539171907E+01  0.49942541328E+03  0.49950259300E+03  0.00000000000E+00 0. -1.
         11    1    1    2    0    0 -0.61860137611E+00  0.83750675348E+01 -0.29497503411E+03  0.29509455294E+03  0.00000000000E+00 0. -1.
        -15    1    1    2    0    0 -0.63033477931E+01 -0.38113956785E+01 -0.50618034544E+02  0.51182048420E+02  0.17770000000E+01 0.  1.
         15    1    1    2    0    0  0.10179344318E+02  0.35902453344E+01 -0.15383234462E+03  0.15422080564E+03  0.17770000000E+01 0. -1.
</event>
<event>
 6    1  0.3836009E-003  0.4573455E+03  0.7546771E-02  0.9500661E-01
        -11   -1    0    0    0    0  0.00000000000E+00  0.00000000000E+00  0.50000000000E+03  0.50000000000E+03  0.00000000000E+00 0.  1.
         11   -1    0    0    0    0 -0.00000000000E+00 -0.00000000000E+00 -0.50000000000E+03  0.50000000000E+03  0.00000000000E+00 0. -1.
        -11    1    1    2    0    0  0.20452780686E+02 -0.12357485377E+02  0.46418409802E+03  0.46479877424E+03  0.00000000000E+00 0.  1.
         11    1    1    2    0    0 -0.72127715887E+02 -0.11751689375E+02 -0.44590148014E+03  0.45185024023E+03  0.00000000000E+00 0. -1.
        -15    1    1    2    0    0  0.46061688947E+02  0.30193495940E+01  0.10315965927E+02  0.47332573801E+02  0.17770000000E+01 0. -1.
         15    1    1    2    0    0  0.56132462534E+01  0.21089825158E+02 -0.28598583808E+02  0.36018411729E+02  0.17770000000E+01 0.  1.
</event>
<event>
 6    1  0.3836009E-003  0.4884711E+03  0.7546771E-02  0.9425983E-01
        -11   -1    0    0    0    0  0.00000000000E+00  0.00000000000E+00  0.50000000000E+03  0.50000000000E+03  0.00000000000E+00 0. -1.
         11   -1    0    0    0    0 -0.00000000000E+00 -0.00000000000E+00 -0.50000000000E+03  0.50000000000E+03  0.00000000000E+00 0. -1.
        -11    1    1    2    0    0 -0.61022732179E+01  0.55330288072E+01  0.48594357275E+03  0.48601338258E+03  0.00000000000E+00 0. -1.
         11    1    1    2    0    0  0.75677653796E+01  0.51894101318E+01 -0.49091566880E+03  0.49100142049E+03  0.00000000000E+00 0. -1.
        -15    1    1    2    0    0 -0.68787287428E+01  0.27651396760E+01  0.30780736475E+01  0.82216283621E+01  0.17770000000E+01 0.  1.
         15    1    1    2    0    0  0.54132365810E+01 -0.13487578615E+02  0.18940223948E+01  0.14763568573E+02  0.17770000000E+01 0. -1.
</event>
<event>
 6    1  0.3836009E-003  0.5044135E+03  0.7546771E-02  0.9389988E-01
        -11   -1    0    0    0    0  0.00000000000E+00  0.00000000000E+00  0.50000000000E+03  0.50000000000E+03  0.00000000000E+00 0.  1.
         11   -1    0    0    0    0 -0.00000000000E+00 -0.00000000000E+00 -0.50000000000E+03  0.50000000000E+03  0.00000000000E+00 0. -1.
        -11    1    1    2    0    0 -0.48331191438E+01  0.49943259327E+01  0.47235607345E+03  0.47240719984E+03  0.00000000000E+00 0.  1.
         11    1    1    2    0    0  0.98285366328E+01  0.17666669093E+01 -0.49548584716E+03  0.49558646670E+03  0.00000000000E+00 0. -1.
        -15    1    1    2    0    0 -0.86992684741E+01 -0.43219822124E+01  0.16625634660E+01  0.10013922733E+02  0.17770000000E+01 0. -1.
         15    1    1    2    0    0  0.37038509851E+01 -0.24390106296E+01  0.21467210243E+02  0.21992410727E+02  0.17770000000E+01 0.  1.
</event>
<event>
 6    1  0.3836009E-003  0.5208743E+03  0.7546771E-02  0.9354276E-01
        -11   -1    0    0    0    0  0.00000000000E+00  0.00000000000E+00  0.50000000000E+03  0.50000000000E+03  0.00000000000E+00 0.  1.
         11   -1    0    0    0    0 -0.00000000000E+00 -0.00000000000E+00 -0.50000000000E+03  0.50000000000E+03  0.00000000000E+00 0. -1.
        -11    1    1    2    0    0  0.94813846876E+01 -0.15935868560E+02  0.47876675133E+03  0.47912571497E+03  0.00000000000E+00 0.  1.
         11    1    1    2    0    0  0.15778918965E+02 -0.15110259890E+02 -0.16180102323E+03  0.16326930316E+03  0.00000000000E+00 0. -1.
        -15    1    1    2    0    0 -0.18157304418E+02  0.13884319483E+02  0.13504723148E+02  0.26608218797E+02  0.17770000000E+01 0.  1.
         15    1    1    2    0    0 -0.71029992340E+01  0.17161808967E+02 -0.33047045125E+03  0.33099676307E+03  0.17770000000E+01 0. -1.
</event>
<event>
 6    1  0.3836009E-003  0.5119461E+03  0.7546771E-02  0.9373469E-01
        -11   -1    0    0    0    0  0.00000000000E+00  0.00000000000E+00  0.50000000000E+03  0.50000000000E+03  0.00000000000E+00 0.  1.
         11   -1    0    0    0    0 -0.00000000000E+00 -0.00000000000E+00 -0.50000000000E+03  0.50000000000E+03  0.00000000000E+00 0.  1.
        -11    1    1    2    0    0 -0.55386161812E+01  0.13378470072E+02  0.48783904420E+03  0.48805388307E+03  0.00000000000E+00 0.  1.
         11    1    1    2    0    0 -0.93695367638E+01 -0.24355041396E+01 -0.45932815668E+03  0.45943016381E+03  0.00000000000E+00 0.  1.
        -15    1    1    2    0    0  0.91184445329E+01 -0.97624037790E+01  0.78764390546E+01  0.15609182535E+02  0.17770000000E+01 0.  1.
         15    1    1    2    0    0  0.57897084121E+01 -0.11805621535E+01 -0.36387326576E+02  0.36906770582E+02  0.17770000000E+01 0. -1.
</event>
<event>
 6    1  0.3836009E-003  0.5013937E+03  0.7546771E-02  0.9396697E-01
        -11   -1    0    0    0    0  0.00000000000E+00  0.00000000000E+00  0.50000000000E+03  0.50000000000E+03  0.00000000000E+00 0.  1.
         11   -1    0    0    0    0 -0.00000000000E+00 -0.00000000000E+00 -0.50000000000E+03  0.50000000000E+03  0.00000000000E+00 0. -1.
        -11    1    1    2    0    0 -0.12344097626E+02  0.18524014330E+02  0.49810919553E+03  0.49860634424E+03  0.00000000000E+00 0.  1.
         11    1    1    2    0    0  0.49106264377E+01  0.23093100902E+01 -0.34804555282E+03  0.34808785386E+03  0.00000000000E+00 0. -1.
        -15    1    1    2    0    0  0.70254657747E+00 -0.85053196145E+01 -0.11718110916E+03  0.11750491098E+03  0.17770000000E+01 0. -1.
         15    1    1    2    0    0  0.67309246106E+01 -0.12328004806E+02 -0.32882533552E+02  0.35800890916E+02  0.17770000000E+01 0.  1.
</event>
<event>
 6    1  0.3836009E-003  0.5052152E+03  0.7546771E-02  0.9388215E-01
        -11   -1    0    0    0    0  0.00000000000E+00  0.00000000000E+00  0.50000000000E+03  0.50000000000E+03  0.00000000000E+00 0.  1.
         11   -1    0    0    0    0 -0.00000000000E+00 -0.00000000000E+00 -0.50000000000E+03  0.50000000000E+03  0.00000000000E+00 0.  1.
        -11    1    1    2    0    0  0.31439025339E+01 -0.10737368545E+02  0.49465833202E+03  0.49478484277E+03  0.00000000000E+00 0.  1.
         11    1    1    2    0    0  0.10368322968E+02 -0.62960824624E+01 -0.45214955941E+03  0.45231224486E+03  0.00000000000E+00 0.  1.
        -15    1    1    2    0    0 -0.16490520569E+02  0.45338899406E+01 -0.16460049495E+02  0.23803033105E+02  0.17770000000E+01 0. -1.
         15    1    1    2    0    0  0.29782950670E+01  0.12499561067E+02 -0.26048723109E+02  0.29099879261E+02  0.17770000000E+01 0.  1.
</event>
<event>
 6    1  0.3836009E-003  0.5041285E+03  0.7546771E-02  0.9390619E-01
        -11   -1    0    0    0    0  0.00000000000E+00  0.00000000000E+00  0.50000000000E+03  0.50000000000E+03  0.00000000000E+00 0. -1.
         11   -1    0    0    0    0 -0.00000000000E+00 -0.00000000000E+00 -0.50000000000E+03  0.50000000000E+03  0.00000000000E+00 0.  1.
        -11    1    1    2    0    0  0.49217520092E+01  0.73722156608E+01  0.44773891784E+03  0.44782665369E+03  0.00000000000E+00 0. -1.
         11    1    1    2    0    0 -0.96408346393E+01 -0.10471228910E+02 -0.49566722169E+03  0.49587154282E+03  0.00000000000E+00 0.  1.
        -15    1    1    2    0    0  0.87312950594E+01  0.13901815603E+02  0.19358068259E+02  0.25443830808E+02  0.17770000000E+01 0. -1.
         15    1    1    2    0    0 -0.40122124293E+01 -0.10802802354E+02  0.28570235589E+02  0.30857972679E+02  0.17770000000E+01 0.  1.
</event>
<event>
 6    1  0.3836009E-003  0.5244244E+03  0.7546771E-02  0.9346758E-01
        -11   -1    0    0    0    0  0.00000000000E+00  0.00000000000E+00  0.50000000000E+03  0.50000000000E+03  0.00000000000E+00 0. -1.
         11   -1    0    0    0    0 -0.00000000000E+00 -0.00000000000E+00 -0.50000000000E+03  0.50000000000E+03  0.00000000000E+00 0.  1.
        -11    1    1    2    0    0  0.18812488269E+02  0.91618495794E-01  0.47520334989E+03  0.47557559005E+03  0.00000000000E+00 0. -1.
         11    1    1    2    0    0  0.36845923983E+01  0.54082544731E+01 -0.44998422810E+03  0.45003181107E+03  0.00000000000E+00 0.  1.
        -15    1    1    2    0    0  0.35132847309E+01 -0.14898644251E+02 -0.40084094967E+02  0.42944209952E+02  0.17770000000E+01 0. -1.
         15    1    1    2    0    0 -0.26010365398E+02  0.93987712823E+01  0.14864973176E+02  0.31448388930E+02  0.17770000000E+01 0.  1.
</event>
<event>
 6    1  0.3836009E-003  0.5069686E+03  0.7546771E-02  0.9384350E-01
        -11   -1    0    0    0    0  0.00000000000E+00  0.00000000000E+00  0.50000000000E+03  0.50000000000E+03  0.00000000000E+00 0. -1.
         11   -1    0    0    0    0 -0.00000000000E+00 -0.00000000000E+00 -0.50000000000E+03  0.50000000000E+03  0.00000000000E+00 0.  1.
        -11    1    1    2    0    0 -0.74209419951E+01 -0.22329204520E+01  0.49028209816E+03  0.49034334102E+03  0.00000000000E+00 0. -1.
         11    1    1    2    0    0  0.73354687323E+01  0.41807477796E+01 -0.49295907298E+03  0.49303137363E+03  0.00000000000E+00 0.  1.
        -15    1    1    2    0    0 -0.54407241050E+01  0.10022242256E+01 -0.41886018659E+01  0.71629635471E+01  0.17770000000E+01 0. -1.
         15    1    1    2    0    0  0.55261973678E+01 -0.29500515533E+01  0.68655766884E+01  0.94623217964E+01  0.17770000000E+01 0.  1.
</event>
<event>
 6    1  0.3836009E-003  0.5005882E+03  0.7546771E-02  0.9398495E-01
        -11   -1    0    0    0    0  0.00000000000E+00  0.00000000000E+00  0.50000000000E+03  0.50000000000E+03  0.00000000000E+00 0. -1.
         11   -1    0    0    0    0 -0.00000000000E+00 -0.00000000000E+00 -0.50000000000E+03  0.50000000000E+03  0.00000000000E+00 0.  1.
        -11    1    1    2    0    0  0.64722308947E+01 -0.49418200664E+01  0.49934543944E+03  0.49941183330E+03  0.00000000000E+00 0. -1.
         11    1    1    2    0    0  0.54280798694E+01  0.81021324620E+00 -0.40565058808E+03  0.40568771254E+03  0.00000000000E+00 0.  1.
        -15    1    1    2    0    0 -0.10732013765E+02  0.42998370411E+01 -0.59484924652E+02  0.60624076966E+02  0.17770000000E+01 0. -1.
         15    1    1    2    0    0 -0.11682969990E+01 -0.16823022090E+00 -0.34209926703E+02  0.34276377190E+02  0.17770000000E+01 0.  1.
</event>
<event>
 6    1  0.3836009E-003  0.5014388E+03  0.7546771E-02  0.9396596E-01
        -11   -1    0    0    0    0  0.00000000000E+00  0.00000000000E+00  0.50000000000E+03  0.50000000000E+03  0.00000000000E+00 0.  1.
         11   -1    0    0    0    0 -0.00000000000E+00 -0.00000000000E+00 -0.50000000000E+03  0.50000000000E+03  0.00000000000E+00 0.  1.
        -11    1    1    2    0    0  0.28520714878E+01 -0.30687773828E+00  0.16777983436E+03  0.16780435424E+03  0.00000000000E+00 0.  1.
         11    1    1    2    0    0 -0.74792564874E+01 -0.59057347664E+01 -0.49847009407E+03  0.49856118146E+03  0.00000000000E+00 0.  1.
        -15    1    1    2    0    0  0.93691370589E+01 -0.15712491618E+01  0.15231199056E+02  0.18038755690E+02  0.17770000000E+01 0.  1.
         15    1    1    2    0    0 -0.47419520592E+01  0.77838616665E+01  0.31545906065E+03  0.31559570860E+03  0.17770000000E+01 0. -1.
</event>
<event>
 6    1  0.3836009E-003  0.5095617E+03  0.7546771E-02  0.9378665E-01
        -11   -1    0    0    0    0  0.00000000000E+00  0.00000000000E+00  0.50000000000E+03  0.50000000000E+03  0.00000000000E+00 0.  1.
         11   -1    0    0    0    0 -0.00000000000E+00 -0.00000000000E+00 -0.50000000000E+03  0.50000000000E+03  0.00000000000E+00 0.  1.
        -11    1    1    2    0    0  0.59189674264E+01 -0.45093862460E+01  0.27702040654E+03  0.27712032474E+03  0.00000000000E+00 0.  1.
         11    1    1    2    0    0 -0.16855714067E+02 -0.20713669379E+02 -0.48971071011E+03  0.49043832517E+03  0.00000000000E+00 0.  1.
        -15    1    1    2    0    0  0.33815991059E+02 -0.21955706883E+02  0.10905914564E+03  0.11628684059E+03  0.17770000000E+01 0. -1.
         15    1    1    2    0    0 -0.22879244418E+02  0.47178762508E+02  0.10363115793E+03  0.11615450951E+03  0.17770000000E+01 0.  1.
</event>
<event>
 6    1  0.3836009E-003  0.5013088E+03  0.7546771E-02  0.9396886E-01
        -11   -1    0    0    0    0  0.00000000000E+00  0.00000000000E+00  0.50000000000E+03  0.50000000000E+03  0.00000000000E+00 0.  1.
         11   -1    0    0    0    0 -0.00000000000E+00 -0.00000000000E+00 -0.50000000000E+03  0.50000000000E+03  0.00000000000E+00 0.  1.
        -11    1    1    2    0    0  0.33664657376E+01 -0.70028140101E+01  0.49863067364E+03  0.49869120825E+03  0.00000000000E+00 0.  1.
         11    1    1    2    0    0 -0.97930986048E+00  0.61294981511E+01 -0.40287639808E+03  0.40292421363E+03  0.00000000000E+00 0.  1.
        -15    1    1    2    0    0  0.63611432026E+00 -0.70386261527E+01 -0.80635123493E+02  0.80963743548E+02  0.17770000000E+01 0.  1.
         15    1    1    2    0    0 -0.30232701973E+01  0.79119420117E+01 -0.15119152061E+02  0.17420834570E+02  0.17770000000E+01 0. -1.
</event>
<event>
 6    1  0.3836009E-003  0.5088408E+03  0.7546771E-02  0.9380242E-01
        -11   -1    0    0    0    0  0.00000000000E+00  0.00000000000E+00  0.50000000000E+03  0.50000000000E+03  0.00000000000E+00 0. -1.
         11   -1    0    0    0    0 -0.00000000000E+00 -0.00000000000E+00 -0.50000000000E+03  0.50000000000E+03  0.00000000000E+00 0.  1.
        -11    1    1    2    0    0  0.69738956290E+01 -0.55273039367E+01  0.46415995609E+03  0.46424524892E+03  0.00000000000E+00 0. -1.
         11    1    1    2    0    0 -0.46291930713E+01 -0.17630708905E+02 -0.49082078586E+03  0.49115915461E+03  0.00000000000E+00 0.  1.
        -15    1    1    2    0    0 -0.37249162544E+01  0.30834019169E+01  0.23610824219E+02  0.24166321975E+02  0.17770000000E+01 0. -1.
         15    1    1    2    0    0  0.13802136967E+01  0.20074610924E+02  0.30500055560E+01  0.20429274498E+02  0.17770000000E+01 0.  1.
</event>
<event>
 6    1  0.3836009E-003  0.5058677E+03  0.7546771E-02  0.9386775E-01
        -11   -1    0    0    0    0  0.00000000000E+00  0.00000000000E+00  0.50000000000E+03  0.50000000000E+03  0.00000000000E+00 0. -1.
         11   -1    0    0    0    0 -0.00000000000E+00 -0.00000000000E+00 -0.50000000000E+03  0.50000000000E+03  0.00000000000E+00 0. -1.
        -11    1    1    2    0    0 -0.76495582516E+01  0.29907196824E+01  0.44171018419E+03  0.44178654004E+03  0.00000000000E+00 0. -1.
         11    1    1    2    0    0  0.62605122279E+01  0.75483129238E+01 -0.49403501568E+03  0.49413233830E+03  0.00000000000E+00 0. -1.
        -15    1    1    2    0    0 -0.47751116085E+01 -0.22559125120E+02  0.29309655171E+02  0.37335364365E+02  0.17770000000E+01 0.  1.
         15    1    1    2    0    0  0.61641576322E+01  0.12020092514E+02  0.23015176318E+02  0.26745757295E+02  0.17770000000E+01 0. -1.
</event>
<event>
 6    1  0.3836009E-003  0.5097534E+03  0.7546771E-02  0.9378246E-01
        -11   -1    0    0    0    0  0.00000000000E+00  0.00000000000E+00  0.50000000000E+03  0.50000000000E+03  0.00000000000E+00 0. -1.
         11   -1    0    0    0    0 -0.00000000000E+00 -0.00000000000E+00 -0.50000000000E+03  0.50000000000E+03  0.00000000000E+00 0. -1.
        -11    1    1    2    0    0 -0.14448733335E+02 -0.77569559691E+01  0.42610729438E+03  0.42642275102E+03  0.00000000000E+00 0. -1.
         11    1    1    2    0    0  0.30284318660E+01  0.59534487247E+01 -0.49020109025E+03  0.49024659492E+03  0.00000000000E+00 0. -1.
        -15    1    1    2    0    0  0.17716268446E+02  0.20493587241E+02  0.16468042054E+02  0.31752282182E+02  0.17770000000E+01 0.  1.
         15    1    1    2    0    0 -0.62959669780E+01 -0.18690079997E+02  0.47625753811E+02  0.51578371877E+02  0.17770000000E+01 0. -1.
</event>
<event>
 6    1  0.3836009E-003  0.5009252E+03  0.7546771E-02  0.9397742E-01
        -11   -1    0    0    0    0  0.00000000000E+00  0.00000000000E+00  0.50000000000E+03  0.50000000000E+03  0.00000000000E+00 0. -1.
         11   -1    0    0    0    0 -0.00000000000E+00 -0.00000000000E+00 -0.50000000000E+03  0.50000000000E+03  0.00000000000E+00 0.  1.
        -11    1    1    2    0    0 -0.92887571666E+01 -0.15335716432E+02  0.49875264760E+03  0.49907481272E+03  0.00000000000E+00 0. -1.
         11    1    1    2    0    0  0.22228857767E+01 -0.20823920250E+01 -0.11003273298E+03  0.11007488317E+03  0.00000000000E+00 0.  1.
        -15    1    1    2    0    0  0.15633268142E+02  0.14875026377E+02 -0.11756031248E+03  0.11953765215E+03  0.17770000000E+01 0.  1.
         15    1    1    2    0    0 -0.85673967519E+01  0.25430820799E+01 -0.27115960214E+03  0.27131265196E+03  0.17770000000E+01 0. -1.
</event>
<event>
 6    1  0.3836009E-003  0.5047702E+03  0.7546771E-02  0.9389199E-01
        -11   -1    0    0    0    0  0.00000000000E+00  0.00000000000E+00  0.50000000000E+03  0.50000000000E+03  0.00000000000E+00 0. -1.
         11   -1    0    0    0    0 -0.00000000000E+00 -0.00000000000E+00 -0.50000000000E+03  0.50000000000E+03  0.00000000000E+00 0.  1.
        -11    1    1    2    0    0 -0.11315544792E+02 -0.32772023617E+01  0.49508970565E+03  0.49522984386E+03  0.00000000000E+00 0. -1.
         11    1    1    2    0    0  0.83279079361E+01  0.30296666791E+01 -0.42465686925E+03  0.42474932553E+03  0.00000000000E+00 0.  1.
        -15    1    1    2    0    0 -0.61710433053E+01 -0.15866835202E+02 -0.47442136809E+02  0.50435625393E+02  0.17770000000E+01 0. -1.
         15    1    1    2    0    0  0.91586801610E+01  0.16114370884E+02 -0.22990699589E+02  0.29585205219E+02  0.17770000000E+01 0.  1.
</event>
<event>
 6    1  0.3836009E-003  0.5051964E+03  0.7546771E-02  0.9388257E-01
        -11   -1    0    0    0    0  0.00000000000E+00  0.00000000000E+00  0.50000000000E+03  0.50000000000E+03  0.00000000000E+00 0.  1.
         11   -1    0    0    0    0 -0.00000000000E+00 -0.00000000000E+00 -0.50000000000E+03  0.50000000000E+03  0.00000000000E+00 0.  1.
        -11    1    1    2    0    0  0.78856809454E+01 -0.82341931437E+01  0.49467224728E+03  0.49480361572E+03  0.00000000000E+00 0.  1.
         11    1    1    2    0    0 -0.67684829117E+01  0.24221257855E+01 -0.46367559562E+03  0.46373131987E+03  0.00000000000E+00 0.  1.
        -15    1    1    2    0    0 -0.69209646188E+01  0.10180748330E+02 -0.34304272824E+01  0.12902439620E+02  0.17770000000E+01 0.  1.
         15    1    1    2    0    0  0.58037665851E+01 -0.43686809716E+01 -0.27566224373E+02  0.28562624795E+02  0.17770000000E+01 0.  1.
</event>
<event>
 6    1  0.3836009E-003  0.5020698E+03  0.7546771E-02  0.9395190E-01
        -11   -1    0    0    0    0  0.00000000000E+00  0.00000000000E+00  0.50000000000E+03  0.50000000000E+03  0.00000000000E+00 0. -1.
         11   -1    0    0    0    0 -0.00000000000E+00 -0.00000000000E+00 -0.50000000000E+03  0.50000000000E+03  0.00000000000E+00 0. -1.
        -11    1    1    2    0    0  0.33888602552E+01  0.65241028775E+01  0.43321417926E+03  0.43327655534E+03  0.00000000000E+00 0. -1.
         11    1    1    2    0    0  0.77916667403E+01  0.17259491781E+01 -0.49786623312E+03  0.49793019095E+03  0.00000000000E+00 0. -1.
        -15    1    1    2    0    0 -0.85104637895E+01  0.31983268335E+01  0.14164963918E+02  0.16925165295E+02  0.17770000000E+01 0. -1.
         15    1    1    2    0    0 -0.26700632061E+01 -0.11448378889E+02  0.50487089940E+02  0.51868088420E+02  0.17770000000E+01 0.  1.
</event>
<event>
 6    1  0.3836009E-003  0.4575526E+03  0.7546771E-02  0.9500143E-01
        -11   -1    0    0    0    0  0.00000000000E+00  0.00000000000E+00  0.50000000000E+03  0.50000000000E+03  0.00000000000E+00 0. -1.
         11   -1    0    0    0    0 -0.00000000000E+00 -0.00000000000E+00 -0.50000000000E+03  0.50000000000E+03  0.00000000000E+00 0.  1.
        -11    1    1    2    0    0 -0.50872107427E+02 -0.22069393563E+02  0.47073507304E+03  0.47399001934E+03  0.00000000000E+00 0. -1.
         11    1    1    2    0    0 -0.80119679496E+01  0.16624416659E+02 -0.44305733931E+03  0.44344150547E+03  0.00000000000E+00 0.  1.
        -15    1    1    2    0    0  0.11342888759E+02  0.57182479179E+01 -0.32315364385E+02  0.34767801038E+02  0.17770000000E+01 0. -1.
         15    1    1    2    0    0  0.47541186618E+02 -0.27327101314E+00  0.46376306498E+01  0.47800674149E+02  0.17770000000E+01 0.  1.
</event>
