<event>
 6    1  0.4009626E-006  0.3893900E+03  0.7546771E-02  0.9688280E-01
        -11   -1    0    0    0    0  0.00000000000E+00  0.00000000000E+00  0.50000000000E+03  0.50000000000E+03  0.00000000000E+00 0.  1.
         11   -1    0    0    0    0 -0.00000000000E+00 -0.00000000000E+00 -0.50000000000E+03  0.50000000000E+03  0.00000000000E+00 0. -1.
        -11    1    1    2    0    0  0.28913683391E+02 -0.70848107972E+02  0.38979854905E+03  0.39723842253E+03  0.00000000000E+00 0.  1.
         11    1    1    2    0    0 -0.67349462438E+02 -0.77019181740E+02 -0.38298499755E+03  0.39641570705E+03  0.00000000000E+00 0. -1.
        -15    1    1    2    0    0  0.87770736929E+01  0.15152515904E+03  0.34175016158E+02  0.15558920368E+03  0.17770000000E+01 0.  1.
         15    1    1    2    0    0  0.29658705354E+02 -0.36578693260E+01 -0.40988567658E+02  0.50756666744E+02  0.17770000000E+01 0. -1.
</event>
<event>
 7    1  0.4009626E-006  0.5253966E+03  0.7546771E-02  0.9344710E-01
        -11   -1    0    0    0    0  0.00000000000E+00  0.00000000000E+00  0.50000000000E+03  0.50000000000E+03  0.00000000000E+00 0.  1.
         11   -1    0    0    0    0 -0.00000000000E+00 -0.00000000000E+00 -0.50000000000E+03  0.50000000000E+03  0.00000000000E+00 0. -1.
         23    2    1    2    0    0  0.51710183067E+02  0.80699924369E+02 -0.95716291127E+02  0.16368806043E+03  0.91900772110E+02 0.  0.
        -11    1    1    2    0    0 -0.65729573458E+02 -0.11642132434E+03  0.45538347835E+03  0.47460342808E+03  0.00000000000E+00 0.  1.
         11    1    1    2    0    0  0.14019390390E+02  0.35721399971E+02 -0.35966718722E+03  0.36170851149E+03  0.00000000000E+00 0. -1.
        -15    1    3    3    0    0 -0.24858486881E+01  0.35387824572E+02 -0.85119048649E+02  0.92232791043E+02  0.17770000000E+01 0. -1.
         15    1    3    3    0    0  0.54196031756E+02  0.45312099797E+02 -0.10597242477E+02  0.71455269387E+02  0.17770000000E+01 0.  1.
</event>
<event>
 7    1  0.4009626E-006  0.4748922E+03  0.7546771E-02  0.9457812E-01
        -11   -1    0    0    0    0  0.00000000000E+00  0.00000000000E+00  0.50000000000E+03  0.50000000000E+03  0.00000000000E+00 0. -1.
         11   -1    0    0    0    0 -0.00000000000E+00 -0.00000000000E+00 -0.50000000000E+03  0.50000000000E+03  0.00000000000E+00 0.  1.
         23    2    1    2    0    0 -0.10534896107E+02 -0.29031712093E+02  0.47063936929E+03  0.48189541663E+03  0.98832951505E+02 0.  0.
        -11    1    1    2    0    0  0.30853475960E+02 -0.46659312560E+02 -0.18046835473E+02  0.58776838109E+02  0.00000000000E+00 0. -1.
         11    1    1    2    0    0 -0.20318579853E+02  0.75691024654E+02 -0.45259253382E+03  0.45932774526E+03  0.00000000000E+00 0.  1.
        -15    1    3    3    0    0 -0.33744196601E+01  0.32130054215E+02  0.27212405928E+03  0.27404085181E+03  0.17770000000E+01 0. -1.
         15    1    3    3    0    0 -0.71604764471E+01 -0.61161766308E+02  0.19851531000E+03  0.20785456482E+03  0.17770000000E+01 0.  1.
</event>
<event>
 7    1  0.4009626E-006  0.3083331E+03  0.7546771E-02  0.9974345E-01
        -11   -1    0    0    0    0  0.00000000000E+00  0.00000000000E+00  0.50000000000E+03  0.50000000000E+03  0.00000000000E+00 0. -1.
         11   -1    0    0    0    0 -0.00000000000E+00 -0.00000000000E+00 -0.50000000000E+03  0.50000000000E+03  0.00000000000E+00 0.  1.
         23    2    1    2    0    0  0.13687681289E+03  0.23678801531E+03  0.12440819076E+03  0.31402746994E+03  0.91279942210E+02 0.  0.
        -11    1    1    2    0    0 -0.16928752036E+03 -0.24559258188E+03  0.20045165818E+03  0.35938120164E+03  0.00000000000E+00 0. -1.
         11    1    1    2    0    0  0.32410707468E+02  0.88045665688E+01 -0.32485984893E+03  0.32659132842E+03  0.00000000000E+00 0.  1.
        -15    1    3    3    0    0  0.37103248352E+02  0.15364026399E+03  0.60299622614E+02  0.16917796539E+03  0.17770000000E+01 0. -1.
         15    1    3    3    0    0  0.99773564541E+02  0.83147751316E+02  0.64108568144E+02  0.14484950455E+03  0.17770000000E+01 0.  1.
</event>
<event>
 7    1  0.4009626E-006  0.5169887E+03  0.7546771E-02  0.9362579E-01
        -11   -1    0    0    0    0  0.00000000000E+00  0.00000000000E+00  0.50000000000E+03  0.50000000000E+03  0.00000000000E+00 0.  1.
         11   -1    0    0    0    0 -0.00000000000E+00 -0.00000000000E+00 -0.50000000000E+03  0.50000000000E+03  0.00000000000E+00 0. -1.
         23    2    1    2    0    0 -0.40014608528E+02  0.79021293225E+02  0.33139004330E+03  0.35497996901E+03  0.91355809441E+02 0.  0.
        -11    1    1    2    0    0  0.71035274864E+02 -0.81070469526E+01  0.14537911252E+03  0.16200870607E+03  0.00000000000E+00 0.  1.
         11    1    1    2    0    0 -0.31020666336E+02 -0.70914246272E+02 -0.47676915582E+03  0.48301132492E+03  0.00000000000E+00 0. -1.
        -15    1    3    3    0    0 -0.44480057028E+02  0.60286490916E+02  0.32655457228E+03  0.33504325521E+03  0.17770000000E+01 0.  1.
         15    1    3    3    0    0  0.44654485001E+01  0.18734802309E+02  0.48354710242E+01  0.19936713794E+02  0.17770000000E+01 0. -1.
</event>
<event>
 7    1  0.4009626E-006  0.4654752E+03  0.7546771E-02  0.9480558E-01
        -11   -1    0    0    0    0  0.00000000000E+00  0.00000000000E+00  0.50000000000E+03  0.50000000000E+03  0.00000000000E+00 0.  1.
         11   -1    0    0    0    0 -0.00000000000E+00 -0.00000000000E+00 -0.50000000000E+03  0.50000000000E+03  0.00000000000E+00 0. -1.
         23    2    1    2    0    0  0.14310193862E+02  0.76655473243E+02  0.41622493444E+03  0.43302587526E+03  0.90484083525E+02 0.  0.
        -11    1    1    2    0    0 -0.87741198104E+01  0.42179033144E+02  0.61260259609E+02  0.74892425670E+02  0.00000000000E+00 0.  1.
         11    1    1    2    0    0 -0.55360740518E+01 -0.11883450639E+03 -0.47748519405E+03  0.49208169907E+03  0.00000000000E+00 0. -1.
        -15    1    3    3    0    0  0.52523519767E+02  0.40436892911E+02  0.25061494491E+03  0.25923902248E+03  0.17770000000E+01 0.  1.
         15    1    3    3    0    0 -0.38213325904E+02  0.36218580331E+02  0.16560998953E+03  0.17378685278E+03  0.17770000000E+01 0. -1.
</event>
<event>
 7    1  0.4009626E-006  0.5167786E+03  0.7546771E-02  0.9363030E-01
        -11   -1    0    0    0    0  0.00000000000E+00  0.00000000000E+00  0.50000000000E+03  0.50000000000E+03  0.00000000000E+00 0.  1.
         11   -1    0    0    0    0 -0.00000000000E+00 -0.00000000000E+00 -0.50000000000E+03  0.50000000000E+03  0.00000000000E+00 0. -1.
         23    2    1    2    0    0  0.10834878339E+02 -0.62531204252E+02  0.17120484425E+03  0.20404418557E+03  0.91079003497E+02 0.  0.
        -11    1    1    2    0    0 -0.45532323626E+02  0.19123475773E+02  0.30881051592E+03  0.31273444736E+03  0.00000000000E+00 0.  1.
         11    1    1    2    0    0  0.34697445287E+02  0.43407728479E+02 -0.48001536017E+03  0.48322136707E+03  0.00000000000E+00 0. -1.
        -15    1    3    3    0    0 -0.26697951033E+02 -0.67316983671E+02  0.10129078570E+03  0.12452846211E+03  0.17770000000E+01 0. -1.
         15    1    3    3    0    0  0.37532829372E+02  0.47857794188E+01  0.69914058546E+02  0.79515723455E+02  0.17770000000E+01 0.  1.
</event>
<event>
 7    1  0.4009626E-006  0.5123631E+03  0.7546771E-02  0.9372563E-01
        -11   -1    0    0    0    0  0.00000000000E+00  0.00000000000E+00  0.50000000000E+03  0.50000000000E+03  0.00000000000E+00 0.  1.
         11   -1    0    0    0    0 -0.00000000000E+00 -0.00000000000E+00 -0.50000000000E+03  0.50000000000E+03  0.00000000000E+00 0. -1.
         23    2    1    2    0    0 -0.11945198101E+01 -0.85125904586E+02  0.31715674899E+03  0.34090565294E+03  0.91544602614E+02 0.  0.
        -11    1    1    2    0    0  0.73744046372E+02 -0.19610052062E+02  0.15354130057E+03  0.17145748598E+03  0.00000000000E+00 0.  1.
         11    1    1    2    0    0 -0.72549526562E+02  0.10473595665E+03 -0.47069804956E+03  0.48763686108E+03  0.00000000000E+00 0. -1.
        -15    1    3    3    0    0 -0.19424552498E+02 -0.63341037272E+02  0.30093268462E+03  0.30814450935E+03  0.17770000000E+01 0.  1.
         15    1    3    3    0    0  0.18230032688E+02 -0.21784867314E+02  0.16224064375E+02  0.32761143593E+02  0.17770000000E+01 0. -1.
</event>
<event>
 7    1  0.4009626E-006  0.5282620E+03  0.7546771E-02  0.9338701E-01
        -11   -1    0    0    0    0  0.00000000000E+00  0.00000000000E+00  0.50000000000E+03  0.50000000000E+03  0.00000000000E+00 0.  1.
         11   -1    0    0    0    0 -0.00000000000E+00 -0.00000000000E+00 -0.50000000000E+03  0.50000000000E+03  0.00000000000E+00 0. -1.
         23    2    1    2    0    0 -0.38278754741E+02  0.40146937487E+02  0.36548439151E+03  0.38395147987E+03  0.10374419888E+03 0.  0.
        -11    1    1    2    0    0 -0.11937440011E+03  0.36301127094E+02  0.72508665657E+02  0.14431051876E+03  0.00000000000E+00 0.  1.
         11    1    1    2    0    0  0.15765315485E+03 -0.76448064581E+02 -0.43799305716E+03  0.47173800137E+03  0.00000000000E+00 0. -1.
        -15    1    3    3    0    0  0.27867931106E+02  0.26591284770E+02  0.61775813867E+02  0.72822571486E+02  0.17770000000E+01 0. -1.
         15    1    3    3    0    0 -0.66146685847E+02  0.13555652718E+02  0.30370857764E+03  0.31112890838E+03  0.17770000000E+01 0.  1.
</event>
<event>
 7    1  0.4009626E-006  0.5153466E+03  0.7546771E-02  0.9366110E-01
        -11   -1    0    0    0    0  0.00000000000E+00  0.00000000000E+00  0.50000000000E+03  0.50000000000E+03  0.00000000000E+00 0. -1.
         11   -1    0    0    0    0 -0.00000000000E+00 -0.00000000000E+00 -0.50000000000E+03  0.50000000000E+03  0.00000000000E+00 0.  1.
         23    2    1    2    0    0 -0.28090655923E+02  0.29491324971E+02 -0.20644785403E+03  0.23019085509E+03  0.93318219753E+02 0.  0.
        -11    1    1    2    0    0  0.30127347472E+02  0.45428366609E+02  0.48157816494E+03  0.48465340451E+03  0.00000000000E+00 0. -1.
         11    1    1    2    0    0 -0.20366915488E+01 -0.74919691580E+02 -0.27513031091E+03  0.28515574040E+03  0.00000000000E+00 0.  1.
        -15    1    3    3    0    0  0.16596461738E+02 -0.11242709964E+02 -0.13536187493E+03  0.13684968390E+03  0.17770000000E+01 0. -1.
         15    1    3    3    0    0 -0.44687117661E+02  0.40734034935E+02 -0.71085979097E+02  0.93341171196E+02  0.17770000000E+01 0.  1.
</event>
<event>
 7    1  0.4009626E-006  0.5303930E+03  0.7546771E-02  0.9334259E-01
        -11   -1    0    0    0    0  0.00000000000E+00  0.00000000000E+00  0.50000000000E+03  0.50000000000E+03  0.00000000000E+00 0.  1.
         11   -1    0    0    0    0 -0.00000000000E+00 -0.00000000000E+00 -0.50000000000E+03  0.50000000000E+03  0.00000000000E+00 0. -1.
         23    2    1    2    0    0  0.31245553471E+02 -0.85614722865E+01  0.10915599915E+03  0.15636414666E+03  0.10716870247E+03 0.  0.
        -11    1    1    2    0    0 -0.13453308782E+03  0.60187943646E+01  0.34894439604E+03  0.37402883462E+03  0.00000000000E+00 0.  1.
         11    1    1    2    0    0  0.10328753435E+03  0.25426779219E+01 -0.45810039519E+03  0.46960701872E+03  0.00000000000E+00 0. -1.
        -15    1    3    3    0    0 -0.14322357909E+01 -0.40266665220E+02  0.25304373162E+01  0.40410598477E+02  0.17770000000E+01 0.  1.
         15    1    3    3    0    0  0.32677789262E+02  0.31705192933E+02  0.10662556183E+03  0.11595354818E+03  0.17770000000E+01 0. -1.
</event>
<event>
 7    1  0.4009626E-006  0.5240716E+03  0.7546771E-02  0.9347502E-01
        -11   -1    0    0    0    0  0.00000000000E+00  0.00000000000E+00  0.50000000000E+03  0.50000000000E+03  0.00000000000E+00 0.  1.
         11   -1    0    0    0    0 -0.00000000000E+00 -0.00000000000E+00 -0.50000000000E+03  0.50000000000E+03  0.00000000000E+00 0.  1.
         23    2    1    2    0    0 -0.16130693886E+03 -0.21156101048E+03  0.38458684774E+03  0.47592836049E+03  0.88446431165E+02 0.  0.
        -11    1    1    2    0    0  0.98877911192E+01  0.16531880439E+03 -0.87203825301E+02  0.18716992987E+03  0.00000000000E+00 0.  1.
         11    1    1    2    0    0  0.15141914774E+03  0.46242206083E+02 -0.29738302244E+03  0.33690170964E+03  0.00000000000E+00 0.  1.
        -15    1    3    3    0    0 -0.13216174178E+02  0.21591748620E+01  0.24680538928E+01  0.13732381985E+02  0.17770000000E+01 0. -1.
         15    1    3    3    0    0 -0.14809076468E+03 -0.21372018534E+03  0.38211879385E+03  0.46219597850E+03  0.17770000000E+01 0.  1.
</event>
<event>
 7    1  0.4009626E-006  0.4076176E+03  0.7546771E-02  0.9634157E-01
        -11   -1    0    0    0    0  0.00000000000E+00  0.00000000000E+00  0.50000000000E+03  0.50000000000E+03  0.00000000000E+00 0.  1.
         11   -1    0    0    0    0 -0.00000000000E+00 -0.00000000000E+00 -0.50000000000E+03  0.50000000000E+03  0.00000000000E+00 0. -1.
         23    2    1    2    0    0 -0.66139334190E+02  0.16178026111E+03  0.32202576575E+03  0.37753797233E+03  0.91033303404E+02 0.  0.
        -11    1    1    2    0    0 -0.67735352527E+02 -0.27348329499E+03 -0.34628759990E+03  0.44642613327E+03  0.00000000000E+00 0. -1.
         11    1    1    2    0    0  0.13387468672E+03  0.11170303388E+03  0.24261834151E+02  0.17603589440E+03  0.00000000000E+00 0.  1.
        -15    1    3    3    0    0 -0.13213319805E+02 -0.96389078972E+01  0.40371350937E+02  0.43594771145E+02  0.17770000000E+01 0. -1.
         15    1    3    3    0    0 -0.52926014385E+02  0.17141916901E+03  0.28165441482E+03  0.33394320118E+03  0.17770000000E+01 0.  1.
</event>
<event>
 7    1  0.4009626E-006  0.4923531E+03  0.7546771E-02  0.9417085E-01
        -11   -1    0    0    0    0  0.00000000000E+00  0.00000000000E+00  0.50000000000E+03  0.50000000000E+03  0.00000000000E+00 0. -1.
         11   -1    0    0    0    0 -0.00000000000E+00 -0.00000000000E+00 -0.50000000000E+03  0.50000000000E+03  0.00000000000E+00 0. -1.
         23    2    1    2    0    0  0.33858970952E+02  0.54590877766E+02  0.46933468257E+03  0.48239216464E+03  0.91107422258E+02 0.  0.
        -11    1    1    2    0    0  0.84291621212E+00 -0.95374993656E+01  0.21475938386E+02  0.23513620127E+02  0.00000000000E+00 0. -1.
         11    1    1    2    0    0 -0.34701887164E+02 -0.45053378400E+02 -0.49081062096E+03  0.49409421523E+03  0.00000000000E+00 0. -1.
        -15    1    3    3    0    0  0.59207660589E+02  0.14189191792E+02  0.31541240534E+03  0.32123982227E+03  0.17770000000E+01 0.  1.
         15    1    3    3    0    0 -0.25348689637E+02  0.40401685974E+02  0.15392227723E+03  0.16115234237E+03  0.17770000000E+01 0. -1.
</event>
<event>
 7    1  0.4009626E-006  0.5414647E+03  0.7546771E-02  0.9311528E-01
        -11   -1    0    0    0    0  0.00000000000E+00  0.00000000000E+00  0.50000000000E+03  0.50000000000E+03  0.00000000000E+00 0.  1.
         11   -1    0    0    0    0 -0.00000000000E+00 -0.00000000000E+00 -0.50000000000E+03  0.50000000000E+03  0.00000000000E+00 0. -1.
         23    2    1    2    0    0 -0.11676885139E+03  0.88663041645E+02 -0.10883778664E+03  0.21504024712E+03  0.11358056380E+03 0.  0.
        -11    1    1    2    0    0  0.17199440866E+03 -0.25480848443E+02  0.42429151803E+03  0.45853532309E+03  0.00000000000E+00 0.  1.
         11    1    1    2    0    0 -0.55225557272E+02 -0.63182193202E+02 -0.31545373139E+03  0.32642442979E+03  0.00000000000E+00 0. -1.
        -15    1    3    3    0    0 -0.15941962814E+02  0.11103438865E+02  0.24120416647E+02  0.31022326818E+02  0.17770000000E+01 0.  1.
         15    1    3    3    0    0 -0.10082688858E+03  0.77559602780E+02 -0.13295820328E+03  0.18401792031E+03  0.17770000000E+01 0. -1.
</event>
<event>
 7    1  0.4009626E-006  0.5167496E+03  0.7546771E-02  0.9363092E-01
        -11   -1    0    0    0    0  0.00000000000E+00  0.00000000000E+00  0.50000000000E+03  0.50000000000E+03  0.00000000000E+00 0. -1.
         11   -1    0    0    0    0 -0.00000000000E+00 -0.00000000000E+00 -0.50000000000E+03  0.50000000000E+03  0.00000000000E+00 0.  1.
         23    2    1    2    0    0  0.10795591787E+03  0.17055851679E+03 -0.47397073739E+02  0.22523221600E+03  0.87968066209E+02 0.  0.
        -11    1    1    2    0    0 -0.28206598726E+03 -0.31977923336E+03  0.22740050409E+03  0.48325042010E+03  0.00000000000E+00 0. -1.
         11    1    1    2    0    0  0.17411006940E+03  0.14922071658E+03 -0.18000343035E+03  0.29151736391E+03  0.00000000000E+00 0.  1.
        -15    1    3    3    0    0  0.26933319053E+02  0.56266338957E+01 -0.29840286555E+02  0.40628353583E+02  0.17770000000E+01 0.  1.
         15    1    3    3    0    0  0.81022598814E+02  0.16493188289E+03 -0.17556787184E+02  0.18460386241E+03  0.17770000000E+01 0. -1.
</event>
<event>
 7    1  0.4009626E-006  0.5122116E+03  0.7546771E-02  0.9372892E-01
        -11   -1    0    0    0    0  0.00000000000E+00  0.00000000000E+00  0.50000000000E+03  0.50000000000E+03  0.00000000000E+00 0.  1.
         11   -1    0    0    0    0 -0.00000000000E+00 -0.00000000000E+00 -0.50000000000E+03  0.50000000000E+03  0.00000000000E+00 0. -1.
         23    2    1    2    0    0  0.47991783381E+02 -0.14241765202E+03  0.14912857056E+03  0.22926613308E+03  0.87963801296E+02 0.  0.
        -11    1    1    2    0    0  0.50800111683E+02 -0.11379959629E+03  0.25402197448E+03  0.28294551238E+03  0.00000000000E+00 0.  1.
         11    1    1    2    0    0 -0.98791895065E+02  0.25621724831E+03 -0.40315054504E+03  0.48778835454E+03  0.00000000000E+00 0. -1.
        -15    1    3    3    0    0  0.38680958125E+01 -0.19818400309E+02 -0.10802216882E+02  0.22969039479E+02  0.17770000000E+01 0. -1.
         15    1    3    3    0    0  0.44123687569E+02 -0.12259925171E+03  0.15993078744E+03  0.20629709360E+03  0.17770000000E+01 0.  1.
</event>
<event>
 7    1  0.4009626E-006  0.3957683E+03  0.7546771E-02  0.9668987E-01
        -11   -1    0    0    0    0  0.00000000000E+00  0.00000000000E+00  0.50000000000E+03  0.50000000000E+03  0.00000000000E+00 0.  1.
         11   -1    0    0    0    0 -0.00000000000E+00 -0.00000000000E+00 -0.50000000000E+03  0.50000000000E+03  0.00000000000E+00 0. -1.
         23    2    1    2    0    0 -0.19322848226E+02  0.16154292211E+03  0.36178563081E+01  0.19190785413E+03  0.10171552216E+03 0.  0.
        -11    1    1    2    0    0 -0.73001922570E+02  0.11225775634E+03  0.33628816383E+03  0.36196797330E+03  0.00000000000E+00 0.  1.
         11    1    1    2    0    0  0.92324770796E+02 -0.27380067845E+03 -0.33990602014E+03  0.44612417257E+03  0.00000000000E+00 0. -1.
        -15    1    3    3    0    0 -0.33444069038E+02  0.12177242721E+03  0.43735551760E+02  0.13365248220E+03  0.17770000000E+01 0.  1.
         15    1    3    3    0    0  0.14121220812E+02  0.39770494901E+02 -0.40117695451E+02  0.58255371935E+02  0.17770000000E+01 0. -1.
</event>
<event>
 7    1  0.4009626E-006  0.3357348E+03  0.7546771E-02  0.9868020E-01
        -11   -1    0    0    0    0  0.00000000000E+00  0.00000000000E+00  0.50000000000E+03  0.50000000000E+03  0.00000000000E+00 0.  1.
         11   -1    0    0    0    0 -0.00000000000E+00 -0.00000000000E+00 -0.50000000000E+03  0.50000000000E+03  0.00000000000E+00 0. -1.
         23    2    1    2    0    0 -0.12925667204E+03  0.17577234754E+02  0.24117502835E+03  0.28946828268E+03  0.92791410882E+02 0.  0.
        -11    1    1    2    0    0  0.21869416506E+03 -0.37016195703E+02  0.17617868695E+03  0.28326006833E+03  0.00000000000E+00 0.  1.
         11    1    1    2    0    0 -0.89437493017E+02  0.19438960949E+02 -0.41735371529E+03  0.42727164899E+03  0.00000000000E+00 0. -1.
        -15    1    3    3    0    0 -0.18875195227E+02  0.41941325510E+02  0.85106641902E+02  0.96755599349E+02  0.17770000000E+01 0. -1.
         15    1    3    3    0    0 -0.11038147682E+03 -0.24364090756E+02  0.15606838644E+03  0.19271268334E+03  0.17770000000E+01 0.  1.
</event>
<event>
 7    1  0.4009626E-006  0.3095341E+03  0.7546771E-02  0.9969439E-01
        -11   -1    0    0    0    0  0.00000000000E+00  0.00000000000E+00  0.50000000000E+03  0.50000000000E+03  0.00000000000E+00 0. -1.
         11   -1    0    0    0    0 -0.00000000000E+00 -0.00000000000E+00 -0.50000000000E+03  0.50000000000E+03  0.00000000000E+00 0.  1.
         23    2    1    2    0    0  0.12672157474E+03  0.55090451408E+02  0.28485302531E+03  0.32899041374E+03  0.89443451198E+02 0.  0.
        -11    1    1    2    0    0 -0.31632282774E+03  0.12850493712E+01  0.93838178666E+01  0.31646459319E+03  0.00000000000E+00 0. -1.
         11    1    1    2    0    0  0.18960125301E+03 -0.56375500779E+02 -0.29423684318E+03  0.35454499307E+03  0.00000000000E+00 0.  1.
        -15    1    3    3    0    0  0.13004127410E+03  0.65621624975E+02  0.22456857140E+03  0.26767729008E+03  0.17770000000E+01 0.  1.
         15    1    3    3    0    0 -0.33196993631E+01 -0.10531173567E+02  0.60284453907E+02  0.61313123656E+02  0.17770000000E+01 0. -1.
</event>
<event>
 7    1  0.4009626E-006  0.5136762E+03  0.7546771E-02  0.9369718E-01
        -11   -1    0    0    0    0  0.00000000000E+00  0.00000000000E+00  0.50000000000E+03  0.50000000000E+03  0.00000000000E+00 0. -1.
         11   -1    0    0    0    0 -0.00000000000E+00 -0.00000000000E+00 -0.50000000000E+03  0.50000000000E+03  0.00000000000E+00 0. -1.
         23    2    1    2    0    0  0.94942450911E+00 -0.10233842614E+03  0.38447735527E+03  0.41057968792E+03  0.10138436044E+03 0.  0.
        -11    1    1    2    0    0 -0.57367110766E+02 -0.12185392748E+02  0.84790398589E+02  0.10309646399E+03  0.00000000000E+00 0. -1.
         11    1    1    2    0    0  0.56417686257E+02  0.11452381889E+03 -0.46926775386E+03  0.48632384810E+03  0.00000000000E+00 0. -1.
        -15    1    3    3    0    0  0.36669733063E+02 -0.72850646666E+02  0.32549743230E+03  0.33556463193E+03  0.17770000000E+01 0. -1.
         15    1    3    3    0    0 -0.35720308554E+02 -0.29487779472E+02  0.58979922972E+02  0.75015055984E+02  0.17770000000E+01 0.  1.
</event>
<event>
 7    1  0.4009626E-006  0.4207351E+03  0.7546771E-02  0.9597044E-01
        -11   -1    0    0    0    0  0.00000000000E+00  0.00000000000E+00  0.50000000000E+03  0.50000000000E+03  0.00000000000E+00 0.  1.
         11   -1    0    0    0    0 -0.00000000000E+00 -0.00000000000E+00 -0.50000000000E+03  0.50000000000E+03  0.00000000000E+00 0. -1.
         23    2    1    2    0    0  0.75689250979E+02  0.32978438173E+02  0.85815235081E+02  0.15014533586E+03  0.91449041597E+02 0.  0.
        -11    1    1    2    0    0 -0.20018163617E+03 -0.11488918586E+03  0.33308426954E+03  0.40523739105E+03  0.00000000000E+00 0.  1.
         11    1    1    2    0    0  0.12449238519E+03  0.81910747691E+02 -0.41889950462E+03  0.44461727309E+03  0.00000000000E+00 0. -1.
        -15    1    3    3    0    0  0.56920222708E+01  0.18168957864E+02  0.75443126016E+02  0.77828870860E+02  0.17770000000E+01 0.  1.
         15    1    3    3    0    0  0.69997228709E+02  0.14809480309E+02  0.10372109065E+02  0.72316464995E+02  0.17770000000E+01 0. -1.
</event>
<event>
 7    1  0.4009626E-006  0.4286406E+03  0.7546771E-02  0.9575368E-01
        -11   -1    0    0    0    0  0.00000000000E+00  0.00000000000E+00  0.50000000000E+03  0.50000000000E+03  0.00000000000E+00 0. -1.
         11   -1    0    0    0    0 -0.00000000000E+00 -0.00000000000E+00 -0.50000000000E+03  0.50000000000E+03  0.00000000000E+00 0. -1.
         23    2    1    2    0    0  0.26533071356E+02 -0.16357913712E+03  0.36492988519E+03  0.41122751637E+03  0.92044071700E+02 0.  0.
        -11    1    1    2    0    0  0.11575536558E+03  0.64813961126E+02  0.47924833122E+02  0.14105652713E+03  0.00000000000E+00 0. -1.
         11    1    1    2    0    0 -0.14228843693E+03  0.98765175997E+02 -0.41285471831E+03  0.44771595650E+03  0.00000000000E+00 0. -1.
        -15    1    3    3    0    0  0.80163620090E+01 -0.59027444515E+01  0.11293245693E+03  0.11338431112E+03  0.17770000000E+01 0.  1.
         15    1    3    3    0    0  0.18516709347E+02 -0.15767639267E+03  0.25199742826E+03  0.29784320525E+03  0.17770000000E+01 0. -1.
</event>
<event>
 7    1  0.4009626E-006  0.4488872E+03  0.7546771E-02  0.9522054E-01
        -11   -1    0    0    0    0  0.00000000000E+00  0.00000000000E+00  0.50000000000E+03  0.50000000000E+03  0.00000000000E+00 0. -1.
         11   -1    0    0    0    0 -0.00000000000E+00 -0.00000000000E+00 -0.50000000000E+03  0.50000000000E+03  0.00000000000E+00 0.  1.
         23    2    1    2    0    0  0.13217923522E+02  0.34540659289E+02  0.19752350601E+02  0.10124714799E+03  0.92157793898E+02 0.  0.
        -11    1    1    2    0    0 -0.49741047475E+02  0.14114451440E+02  0.43595097324E+03  0.43900642435E+03  0.00000000000E+00 0. -1.
         11    1    1    2    0    0  0.36523123953E+02 -0.48655110729E+02 -0.45570332385E+03  0.45974642766E+03  0.00000000000E+00 0.  1.
        -15    1    3    3    0    0  0.40181806744E+02 -0.77439464102E+01  0.29044537745E+02  0.50212440700E+02  0.17770000000E+01 0. -1.
         15    1    3    3    0    0 -0.26963883223E+02  0.42284605699E+02 -0.92921871435E+01  0.51034707293E+02  0.17770000000E+01 0.  1.
</event>
<event>
 7    1  0.4009626E-006  0.5210112E+03  0.7546771E-02  0.9353985E-01
        -11   -1    0    0    0    0  0.00000000000E+00  0.00000000000E+00  0.50000000000E+03  0.50000000000E+03  0.00000000000E+00 0.  1.
         11   -1    0    0    0    0 -0.00000000000E+00 -0.00000000000E+00 -0.50000000000E+03  0.50000000000E+03  0.00000000000E+00 0. -1.
         23    2    1    2    0    0 -0.83940168260E+02 -0.18627544274E+02 -0.36956013174E+03  0.38972066584E+03  0.88963864349E+02 0.  0.
        -11    1    1    2    0    0  0.10267275086E+03  0.11860383591E+03  0.45257235134E+03  0.47898882749E+03  0.00000000000E+00 0.  1.
         11    1    1    2    0    0 -0.18732582595E+02 -0.99976291635E+02 -0.83012219601E+02  0.13129050667E+03  0.00000000000E+00 0. -1.
        -15    1    3    3    0    0  0.17447573349E+02 -0.63170049776E+01 -0.31890558793E+02  0.36938974496E+02  0.17770000000E+01 0.  1.
         15    1    3    3    0    0 -0.10138774161E+03 -0.12310539297E+02 -0.33766957294E+03  0.35278169134E+03  0.17770000000E+01 0. -1.
</event>
<event>
 7    1  0.4009626E-006  0.3889487E+03  0.7546771E-02  0.9689629E-01
        -11   -1    0    0    0    0  0.00000000000E+00  0.00000000000E+00  0.50000000000E+03  0.50000000000E+03  0.00000000000E+00 0. -1.
         11   -1    0    0    0    0 -0.00000000000E+00 -0.00000000000E+00 -0.50000000000E+03  0.50000000000E+03  0.00000000000E+00 0.  1.
         23    2    1    2    0    0 -0.15686721156E+03  0.56224449332E+02  0.21703177126E+02  0.20415830385E+03  0.11593564753E+03 0.  0.
        -11    1    1    2    0    0  0.14945322314E+03 -0.11510234632E+03  0.36166654183E+03  0.40790624354E+03  0.00000000000E+00 0. -1.
         11    1    1    2    0    0  0.74139884212E+01  0.58877896990E+02 -0.38336971896E+03  0.38793545261E+03  0.00000000000E+00 0.  1.
        -15    1    3    3    0    0 -0.64400406365E+02 -0.34806216723E+02  0.86446757933E+01  0.73734477764E+02  0.17770000000E+01 0.  1.
         15    1    3    3    0    0 -0.92466805196E+02  0.91030666056E+02  0.13058501333E+02  0.13042382609E+03  0.17770000000E+01 0. -1.
</event>
<event>
 7    1  0.4009626E-006  0.3714846E+03  0.7546771E-02  0.9744622E-01
        -11   -1    0    0    0    0  0.00000000000E+00  0.00000000000E+00  0.50000000000E+03  0.50000000000E+03  0.00000000000E+00 0. -1.
         11   -1    0    0    0    0 -0.00000000000E+00 -0.00000000000E+00 -0.50000000000E+03  0.50000000000E+03  0.00000000000E+00 0. -1.
         23    2    1    2    0    0  0.64892392169E+02  0.76924707802E+02  0.18316866986E+03  0.22819527218E+03  0.91618160852E+02 0.  0.
        -11    1    1    2    0    0 -0.21129850063E+03 -0.23000433227E+02  0.24012027579E+03  0.32067713224E+03  0.00000000000E+00 0. -1.
         11    1    1    2    0    0  0.14640610846E+03 -0.53924274575E+02 -0.42328894565E+03  0.45112759558E+03  0.00000000000E+00 0. -1.
        -15    1    3    3    0    0 -0.16146697247E+02  0.17028038334E+02  0.58743554337E+01  0.24255632382E+02  0.17770000000E+01 0.  1.
         15    1    3    3    0    0  0.81039089416E+02  0.59896669468E+02  0.17729431442E+03  0.20393963980E+03  0.17770000000E+01 0. -1.
</event>
<event>
 7    1  0.4009626E-006  0.5305937E+03  0.7546771E-02  0.9333841E-01
        -11   -1    0    0    0    0  0.00000000000E+00  0.00000000000E+00  0.50000000000E+03  0.50000000000E+03  0.00000000000E+00 0.  1.
         11   -1    0    0    0    0 -0.00000000000E+00 -0.00000000000E+00 -0.50000000000E+03  0.50000000000E+03  0.00000000000E+00 0. -1.
         23    2    1    2    0    0 -0.35355038754E+02 -0.88480270687E+02 -0.34054554114E+03  0.36524723664E+03  0.91408649555E+02 0.  0.
        -11    1    1    2    0    0  0.14478073768E+03  0.23195251286E+02  0.44591791595E+03  0.46940629465E+03  0.00000000000E+00 0.  1.
         11    1    1    2    0    0 -0.10942569893E+03  0.65285019401E+02 -0.10537237481E+03  0.16534646872E+03  0.00000000000E+00 0. -1.
        -15    1    3    3    0    0 -0.37830783918E+02 -0.47633938856E+02 -0.75103705846E+02  0.96663771412E+02  0.17770000000E+01 0.  1.
         15    1    3    3    0    0  0.24757451641E+01 -0.40846331831E+02 -0.26544183530E+03  0.26858346523E+03  0.17770000000E+01 0. -1.
</event>
<event>
 7    1  0.4009626E-006  0.5474544E+03  0.7546771E-02  0.9299470E-01
        -11   -1    0    0    0    0  0.00000000000E+00  0.00000000000E+00  0.50000000000E+03  0.50000000000E+03  0.00000000000E+00 0.  1.
         11   -1    0    0    0    0 -0.00000000000E+00 -0.00000000000E+00 -0.50000000000E+03  0.50000000000E+03  0.00000000000E+00 0.  1.
         23    2    1    2    0    0  0.38622213293E+01  0.10068466312E+02 -0.96854691854E+01  0.10445566805E+03  0.10344509416E+03 0.  0.
        -11    1    1    2    0    0  0.49675330217E+02 -0.21871027940E+02  0.44927886123E+03  0.45254555068E+03  0.00000000000E+00 0.  1.
         11    1    1    2    0    0 -0.53537551546E+02  0.11802561628E+02 -0.43959339204E+03  0.44299878128E+03  0.00000000000E+00 0.  1.
        -15    1    3    3    0    0 -0.43168833387E+02 -0.11321589647E+02 -0.24147157265E+02  0.50773708759E+02  0.17770000000E+01 0. -1.
         15    1    3    3    0    0  0.47031054717E+02  0.21390055959E+02  0.14461688079E+02  0.53681959286E+02  0.17770000000E+01 0.  1.
</event>
<event>
 7    1  0.4009626E-006  0.4771360E+03  0.7546771E-02  0.9452475E-01
        -11   -1    0    0    0    0  0.00000000000E+00  0.00000000000E+00  0.50000000000E+03  0.50000000000E+03  0.00000000000E+00 0.  1.
         11   -1    0    0    0    0 -0.00000000000E+00 -0.00000000000E+00 -0.50000000000E+03  0.50000000000E+03  0.00000000000E+00 0. -1.
         23    2    1    2    0    0  0.45846901426E+02 -0.31353531071E+02  0.45217931969E+03  0.46478732992E+03  0.92065968848E+02 0.  0.
        -11    1    1    2    0    0 -0.35182883060E+02 -0.30499670889E+02  0.25730451598E+02  0.53198884614E+02  0.00000000000E+00 0.  1.
         11    1    1    2    0    0 -0.10664018366E+02  0.61853201961E+02 -0.47790977129E+03  0.48201378546E+03  0.00000000000E+00 0. -1.
        -15    1    3    3    0    0  0.47387883200E+02 -0.24366169210E+02  0.45405940331E+03  0.45717876278E+03  0.17770000000E+01 0.  1.
         15    1    3    3    0    0 -0.15409817743E+01 -0.69873618618E+01 -0.18800836138E+01  0.76085671457E+01  0.17770000000E+01 0. -1.
</event>
<event>
 7    1  0.4009626E-006  0.4787608E+03  0.7546771E-02  0.9448630E-01
        -11   -1    0    0    0    0  0.00000000000E+00  0.00000000000E+00  0.50000000000E+03  0.50000000000E+03  0.00000000000E+00 0. -1.
         11   -1    0    0    0    0 -0.00000000000E+00 -0.00000000000E+00 -0.50000000000E+03  0.50000000000E+03  0.00000000000E+00 0. -1.
         23    2    1    2    0    0 -0.38869799759E+02  0.26790066750E+02  0.44848500498E+03  0.46016240763E+03  0.91553660147E+02 0.  0.
        -11    1    1    2    0    0 -0.28176642662E+02 -0.18979070728E+02  0.36682338206E+02  0.49997222460E+02  0.00000000000E+00 0. -1.
         11    1    1    2    0    0  0.67046442422E+02 -0.78109960222E+01 -0.48516734319E+03  0.48984036991E+03  0.00000000000E+00 0. -1.
        -15    1    3    3    0    0 -0.34632483292E+02  0.48512719170E+01  0.42910472890E+03  0.43053103237E+03  0.17770000000E+01 0. -1.
         15    1    3    3    0    0 -0.42373164676E+01  0.21938794833E+02  0.19380276084E+02  0.29631375257E+02  0.17770000000E+01 0.  1.
</event>
<event>
 7    1  0.4009626E-006  0.5324753E+03  0.7546771E-02  0.9329939E-01
        -11   -1    0    0    0    0  0.00000000000E+00  0.00000000000E+00  0.50000000000E+03  0.50000000000E+03  0.00000000000E+00 0.  1.
         11   -1    0    0    0    0 -0.00000000000E+00 -0.00000000000E+00 -0.50000000000E+03  0.50000000000E+03  0.00000000000E+00 0.  1.
         23    2    1    2    0    0  0.23259107928E+02 -0.16713086608E+02  0.28167640443E+03  0.29760297343E+03  0.91682166314E+02 0.  0.
        -11    1    1    2    0    0 -0.53501419360E+02  0.16163854913E+03  0.16178874373E+03  0.23487234838E+03  0.00000000000E+00 0.  1.
         11    1    1    2    0    0  0.30242311432E+02 -0.14492546252E+03 -0.44346514815E+03  0.46752467819E+03  0.00000000000E+00 0.  1.
        -15    1    3    3    0    0  0.23216564368E+01  0.19862537906E+02  0.95598455390E+01  0.22236431287E+02  0.17770000000E+01 0.  1.
         15    1    3    3    0    0  0.20937451491E+02 -0.36575624514E+02  0.27211655889E+03  0.27536654214E+03  0.17770000000E+01 0. -1.
</event>
<event>
 7    1  0.4009626E-006  0.4616609E+03  0.7546771E-02  0.9489935E-01
        -11   -1    0    0    0    0  0.00000000000E+00  0.00000000000E+00  0.50000000000E+03  0.50000000000E+03  0.00000000000E+00 0.  1.
         11   -1    0    0    0    0 -0.00000000000E+00 -0.00000000000E+00 -0.50000000000E+03  0.50000000000E+03  0.00000000000E+00 0.  1.
         23    2    1    2    0    0  0.26776261074E+02 -0.19251778388E+02  0.41478740435E+03  0.42652739197E+03  0.93751939541E+02 0.  0.
        -11    1    1    2    0    0 -0.33161038347E+02 -0.36281155525E+01  0.75535953544E+02  0.82574196723E+02  0.00000000000E+00 0.  1.
         11    1    1    2    0    0  0.63847772731E+01  0.22879893940E+02 -0.49032335789E+03  0.49089841131E+03  0.00000000000E+00 0.  1.
        -15    1    3    3    0    0  0.29985451604E+02 -0.93238415884E+01  0.41475252606E+03  0.41594335784E+03  0.17770000000E+01 0.  1.
         15    1    3    3    0    0 -0.32091905298E+01 -0.99279367992E+01  0.34878286702E-01  0.10584034129E+02  0.17770000000E+01 0. -1.
</event>
<event>
 7    1  0.4009626E-006  0.4317835E+03  0.7546771E-02  0.9566888E-01
        -11   -1    0    0    0    0  0.00000000000E+00  0.00000000000E+00  0.50000000000E+03  0.50000000000E+03  0.00000000000E+00 0. -1.
         11   -1    0    0    0    0 -0.00000000000E+00 -0.00000000000E+00 -0.50000000000E+03  0.50000000000E+03  0.00000000000E+00 0.  1.
         23    2    1    2    0    0  0.89870059130E+02  0.40156478592E+01  0.15639001025E+02  0.13161914865E+03  0.94795933362E+02 0.  0.
        -11    1    1    2    0    0 -0.33670994040E+03  0.29511470357E+02  0.30983261354E+03  0.45852018414E+03  0.00000000000E+00 0. -1.
         11    1    1    2    0    0  0.24683988127E+03 -0.33527118217E+02 -0.32547161456E+03  0.40986066721E+03  0.00000000000E+00 0.  1.
        -15    1    3    3    0    0  0.63900351072E+02 -0.32447046841E+02 -0.19939273142E+02  0.74409663742E+02  0.17770000000E+01 0. -1.
         15    1    3    3    0    0  0.25969708058E+02  0.36462694700E+02  0.35578274167E+02  0.57209484905E+02  0.17770000000E+01 0.  1.
</event>
<event>
 7    1  0.4009626E-006  0.4056277E+03  0.7546771E-02  0.9639917E-01
        -11   -1    0    0    0    0  0.00000000000E+00  0.00000000000E+00  0.50000000000E+03  0.50000000000E+03  0.00000000000E+00 0.  1.
         11   -1    0    0    0    0 -0.00000000000E+00 -0.00000000000E+00 -0.50000000000E+03  0.50000000000E+03  0.00000000000E+00 0. -1.
         23    2    1    2    0    0  0.15331946551E+02 -0.10079292135E+03  0.10833628832E+03  0.17521743240E+03  0.92574919226E+02 0.  0.
        -11    1    1    2    0    0  0.63995296631E+02  0.12577052688E+03  0.34035451803E+03  0.36844921138E+03  0.00000000000E+00 0.  1.
         11    1    1    2    0    0 -0.79327243182E+02 -0.24977605537E+02 -0.44869080636E+03  0.45633335622E+03  0.00000000000E+00 0. -1.
        -15    1    3    3    0    0  0.49606995459E+01 -0.86141914101E+02  0.12416962044E+03  0.15121603842E+03  0.17770000000E+01 0.  1.
         15    1    3    3    0    0  0.10371247005E+02 -0.14651007245E+02 -0.15833332122E+02  0.24001393977E+02  0.17770000000E+01 0. -1.
</event>
<event>
 7    1  0.4009626E-006  0.5092490E+03  0.7546771E-02  0.9379349E-01
        -11   -1    0    0    0    0  0.00000000000E+00  0.00000000000E+00  0.50000000000E+03  0.50000000000E+03  0.00000000000E+00 0.  1.
         11   -1    0    0    0    0 -0.00000000000E+00 -0.00000000000E+00 -0.50000000000E+03  0.50000000000E+03  0.00000000000E+00 0. -1.
         23    2    1    2    0    0 -0.26817424657E+02  0.11566622240E+01  0.29388461380E+03  0.30912113488E+03  0.92017376986E+02 0.  0.
        -11    1    1    2    0    0  0.17954705792E+02  0.41690664754E+02  0.19491197553E+03  0.20012786211E+03  0.00000000000E+00 0.  1.
         11    1    1    2    0    0  0.88627188650E+01 -0.42847326978E+02 -0.48879658933E+03  0.49075100301E+03  0.00000000000E+00 0. -1.
        -15    1    3    3    0    0 -0.49465641710E+02  0.13204047004E+02  0.26718642813E+03  0.27205319641E+03  0.17770000000E+01 0.  1.
         15    1    3    3    0    0  0.22648217054E+02 -0.12047384780E+02  0.26698185669E+02  0.37067938474E+02  0.17770000000E+01 0. -1.
</event>
<event>
 7    1  0.4009626E-006  0.4776356E+03  0.7546771E-02  0.9451291E-01
        -11   -1    0    0    0    0  0.00000000000E+00  0.00000000000E+00  0.50000000000E+03  0.50000000000E+03  0.00000000000E+00 0.  1.
         11   -1    0    0    0    0 -0.00000000000E+00 -0.00000000000E+00 -0.50000000000E+03  0.50000000000E+03  0.00000000000E+00 0. -1.
         23    2    1    2    0    0 -0.14789684165E+03  0.36693221098E+01  0.45171282484E+03  0.49110181203E+03  0.12348916535E+03 0.  0.
        -11    1    1    2    0    0  0.58003038848E+02 -0.29374139188E+01 -0.10999616698E+02  0.59109834069E+02  0.00000000000E+00 0.  1.
         11    1    1    2    0    0  0.89893802800E+02 -0.73190819098E+00 -0.44071320814E+03  0.44978835390E+03  0.00000000000E+00 0. -1.
        -15    1    3    3    0    0 -0.12751968217E+03  0.51415946826E+02  0.36473054187E+03  0.38979019335E+03  0.17770000000E+01 0.  1.
         15    1    3    3    0    0 -0.20377159478E+02 -0.47746624717E+02  0.86982282972E+02  0.10131161868E+03  0.17770000000E+01 0. -1.
</event>
<event>
 7    1  0.4009626E-006  0.5295059E+03  0.7546771E-02  0.9336105E-01
        -11   -1    0    0    0    0  0.00000000000E+00  0.00000000000E+00  0.50000000000E+03  0.50000000000E+03  0.00000000000E+00 0.  1.
         11   -1    0    0    0    0 -0.00000000000E+00 -0.00000000000E+00 -0.50000000000E+03  0.50000000000E+03  0.00000000000E+00 0. -1.
         23    2    1    2    0    0 -0.11937538778E+03 -0.89666060125E+02  0.20882980774E+03  0.27256659102E+03  0.91608800828E+02 0.  0.
        -11    1    1    2    0    0 -0.18996744866E+03  0.93355963060E+02  0.14565309108E+03  0.25693927363E+03  0.00000000000E+00 0.  1.
         11    1    1    2    0    0  0.30934283645E+03 -0.36899029351E+01 -0.35448289883E+03  0.47049413536E+03  0.00000000000E+00 0. -1.
        -15    1    3    3    0    0 -0.63323265722E+02 -0.49492053912E+01  0.12738975064E+03  0.14235742662E+03  0.17770000000E+01 0. -1.
         15    1    3    3    0    0 -0.56052122062E+02 -0.84716854733E+02  0.81440057102E+02  0.13020916440E+03  0.17770000000E+01 0.  1.
</event>
<event>
 7    1  0.4009626E-006  0.5088524E+03  0.7546771E-02  0.9380217E-01
        -11   -1    0    0    0    0  0.00000000000E+00  0.00000000000E+00  0.50000000000E+03  0.50000000000E+03  0.00000000000E+00 0.  1.
         11   -1    0    0    0    0 -0.00000000000E+00 -0.00000000000E+00 -0.50000000000E+03  0.50000000000E+03  0.00000000000E+00 0.  1.
         23    2    1    2    0    0  0.82545518038E+01  0.22761219421E+02  0.35051344989E+03  0.36287683407E+03  0.90739778568E+02 0.  0.
        -11    1    1    2    0    0  0.52224191803E+02  0.11559025495E+01  0.13630912035E+03  0.14597560965E+03  0.00000000000E+00 0.  1.
         11    1    1    2    0    0 -0.60478743607E+02 -0.23917121971E+02 -0.48682257024E+03  0.49114755629E+03  0.00000000000E+00 0.  1.
        -15    1    3    3    0    0 -0.83410308134E+01  0.17798139849E+01 -0.23285058770E+01  0.90177714248E+01  0.17770000000E+01 0. -1.
         15    1    3    3    0    0  0.16595582617E+02  0.20981405436E+02  0.35284195576E+03  0.35385906264E+03  0.17770000000E+01 0.  1.
</event>
<event>
 7    1  0.4009626E-006  0.3786372E+03  0.7546771E-02  0.9721716E-01
        -11   -1    0    0    0    0  0.00000000000E+00  0.00000000000E+00  0.50000000000E+03  0.50000000000E+03  0.00000000000E+00 0.  1.
         11   -1    0    0    0    0 -0.00000000000E+00 -0.00000000000E+00 -0.50000000000E+03  0.50000000000E+03  0.00000000000E+00 0.  1.
         23    2    1    2    0    0 -0.53071369222E+02 -0.18363128254E+03  0.24998991019E+03  0.32776105674E+03  0.91626071388E+02 0.  0.
        -11    1    1    2    0    0  0.12180936877E+03  0.56067652208E+02  0.17658273438E+03  0.22172633138E+03  0.00000000000E+00 0.  1.
         11    1    1    2    0    0 -0.68737999546E+02  0.12756363033E+03 -0.42657264457E+03  0.45051261188E+03  0.00000000000E+00 0.  1.
        -15    1    3    3    0    0 -0.52667031482E+02 -0.19183607258E+03  0.21997859812E+03  0.29659507128E+03  0.17770000000E+01 0.  1.
         15    1    3    3    0    0 -0.40433774077E+00  0.82047900336E+01  0.30011312073E+02  0.31165985462E+02  0.17770000000E+01 0. -1.
</event>
<event>
 7    1  0.4009626E-006  0.4982890E+03  0.7546771E-02  0.9403646E-01
        -11   -1    0    0    0    0  0.00000000000E+00  0.00000000000E+00  0.50000000000E+03  0.50000000000E+03  0.00000000000E+00 0. -1.
         11   -1    0    0    0    0 -0.00000000000E+00 -0.00000000000E+00 -0.50000000000E+03  0.50000000000E+03  0.00000000000E+00 0.  1.
         23    2    1    2    0    0 -0.80891455446E+00  0.28842945096E+02  0.48672172589E+03  0.49597895253E+03  0.90909367364E+02 0.  0.
        -11    1    1    2    0    0 -0.59453471589E+01  0.92418652624E+01  0.40618155986E+01  0.11715697688E+02  0.00000000000E+00 0. -1.
         11    1    1    2    0    0  0.67542617134E+01 -0.38084810359E+02 -0.49078354149E+03  0.49230534978E+03  0.00000000000E+00 0.  1.
        -15    1    3    3    0    0 -0.30167408736E+02  0.56844948353E+01  0.40414403575E+03  0.40531215796E+03  0.17770000000E+01 0. -1.
         15    1    3    3    0    0  0.29358494181E+02  0.23158450261E+02  0.82577690137E+02  0.90666794564E+02  0.17770000000E+01 0.  1.
</event>
<event>
 7    1  0.4009626E-006  0.5149392E+03  0.7546771E-02  0.9366989E-01
        -11   -1    0    0    0    0  0.00000000000E+00  0.00000000000E+00  0.50000000000E+03  0.50000000000E+03  0.00000000000E+00 0. -1.
         11   -1    0    0    0    0 -0.00000000000E+00 -0.00000000000E+00 -0.50000000000E+03  0.50000000000E+03  0.00000000000E+00 0.  1.
         23    2    1    2    0    0  0.14219037857E+01 -0.80123987904E+02 -0.15053499645E+03  0.19353990554E+03  0.91515215300E+02 0.  0.
        -11    1    1    2    0    0  0.56167379935E+02  0.13997327880E+03  0.46101698110E+03  0.48506076961E+03  0.00000000000E+00 0. -1.
         11    1    1    2    0    0 -0.57589283721E+02 -0.59849290899E+02 -0.31048198465E+03  0.32139932485E+03  0.00000000000E+00 0.  1.
        -15    1    3    3    0    0 -0.24804898935E+01 -0.27908341285E+02 -0.13642214113E+03  0.13928096303E+03  0.17770000000E+01 0. -1.
         15    1    3    3    0    0  0.39023936793E+01 -0.52215646619E+02 -0.14112855329E+02  0.54258942515E+02  0.17770000000E+01 0.  1.
</event>
<event>
 7    1  0.4009626E-006  0.5083805E+03  0.7546771E-02  0.9381251E-01
        -11   -1    0    0    0    0  0.00000000000E+00  0.00000000000E+00  0.50000000000E+03  0.50000000000E+03  0.00000000000E+00 0.  1.
         11   -1    0    0    0    0 -0.00000000000E+00 -0.00000000000E+00 -0.50000000000E+03  0.50000000000E+03  0.00000000000E+00 0. -1.
         23    2    1    2    0    0  0.98109484378E+01  0.11147151905E+03 -0.25227296358E+03  0.29054130366E+03  0.90831969637E+02 0.  0.
        -11    1    1    2    0    0  0.23660301792E+02 -0.19650330521E+03  0.45001820611E+03  0.49161951210E+03  0.00000000000E+00 0.  1.
         11    1    1    2    0    0 -0.33471250229E+02  0.85031786154E+02 -0.19774524254E+03  0.21783918425E+03  0.00000000000E+00 0. -1.
        -15    1    3    3    0    0  0.31981692989E+02  0.92745246849E+02 -0.11949883747E+03  0.15462095390E+03  0.17770000000E+01 0.  1.
         15    1    3    3    0    0 -0.22170744551E+02  0.18726272205E+02 -0.13277412611E+03  0.13592034976E+03  0.17770000000E+01 0. -1.
</event>
<event>
 7    1  0.4009626E-006  0.4104218E+03  0.7546771E-02  0.9626099E-01
        -11   -1    0    0    0    0  0.00000000000E+00  0.00000000000E+00  0.50000000000E+03  0.50000000000E+03  0.00000000000E+00 0.  1.
         11   -1    0    0    0    0 -0.00000000000E+00 -0.00000000000E+00 -0.50000000000E+03  0.50000000000E+03  0.00000000000E+00 0. -1.
         23    2    1    2    0    0  0.12639780515E+02  0.11906739377E+03 -0.70159181825E+02  0.16750785243E+03  0.93807044084E+02 0.  0.
        -11    1    1    2    0    0 -0.98169112920E+02  0.17223760827E+01  0.43122909921E+03  0.44226539241E+03  0.00000000000E+00 0.  1.
         11    1    1    2    0    0  0.85529332404E+02 -0.12078976986E+03 -0.36106991739E+03  0.39022675517E+03  0.00000000000E+00 0. -1.
        -15    1    3    3    0    0  0.40990680472E+02  0.11633062316E+03 -0.53434334636E+02  0.13443003986E+03  0.17770000000E+01 0.  1.
         15    1    3    3    0    0 -0.28350899956E+02  0.27367706124E+01 -0.16724847189E+02  0.33077812567E+02  0.17770000000E+01 0. -1.
</event>
<event>
 7    1  0.4009626E-006  0.5289837E+03  0.7546771E-02  0.9337194E-01
        -11   -1    0    0    0    0  0.00000000000E+00  0.00000000000E+00  0.50000000000E+03  0.50000000000E+03  0.00000000000E+00 0. -1.
         11   -1    0    0    0    0 -0.00000000000E+00 -0.00000000000E+00 -0.50000000000E+03  0.50000000000E+03  0.00000000000E+00 0. -1.
         23    2    1    2    0    0  0.69021752780E+02  0.39076070734E+02  0.11544513945E+03  0.18767551627E+03  0.12491428070E+03 0.  0.
        -11    1    1    2    0    0  0.27858014481E+02  0.57386729369E+02  0.33529383014E+03  0.34130815725E+03  0.00000000000E+00 0. -1.
         11    1    1    2    0    0 -0.96879767261E+02 -0.96462800103E+02 -0.45073896958E+03  0.47101632648E+03  0.00000000000E+00 0. -1.
        -15    1    3    3    0    0  0.93934540509E+02 -0.59520884320E+01  0.90004231550E+02  0.13024225383E+03  0.17770000000E+01 0.  1.
         15    1    3    3    0    0 -0.24912787729E+02  0.45028159166E+02  0.25440907895E+02  0.57433262434E+02  0.17770000000E+01 0.  1.
</event>
<event>
 7    1  0.4009626E-006  0.3441855E+03  0.7546771E-02  0.9837409E-01
        -11   -1    0    0    0    0  0.00000000000E+00  0.00000000000E+00  0.50000000000E+03  0.50000000000E+03  0.00000000000E+00 0.  1.
         11   -1    0    0    0    0 -0.00000000000E+00 -0.00000000000E+00 -0.50000000000E+03  0.50000000000E+03  0.00000000000E+00 0. -1.
         23    2    1    2    0    0 -0.75718152342E+02 -0.63569722267E+02  0.28977524749E+03  0.31954282504E+03  0.91452582196E+02 0.  0.
        -11    1    1    2    0    0  0.18131666900E+03  0.18241213470E+03  0.87001742298E+02  0.27151284409E+03  0.00000000000E+00 0.  1.
         11    1    1    2    0    0 -0.10559851666E+03 -0.11884241244E+03 -0.37677698979E+03  0.40894433087E+03  0.00000000000E+00 0. -1.
        -15    1    3    3    0    0 -0.81228927414E+02 -0.81206993245E+02  0.23242221468E+03  0.25926040578E+03  0.17770000000E+01 0.  1.
         15    1    3    3    0    0  0.55107750712E+01  0.17637270978E+02  0.57353032811E+02  0.60282419254E+02  0.17770000000E+01 0. -1.
</event>
<event>
 7    1  0.4009626E-006  0.5390436E+03  0.7546771E-02  0.9316449E-01
        -11   -1    0    0    0    0  0.00000000000E+00  0.00000000000E+00  0.50000000000E+03  0.50000000000E+03  0.00000000000E+00 0.  1.
         11   -1    0    0    0    0 -0.00000000000E+00 -0.00000000000E+00 -0.50000000000E+03  0.50000000000E+03  0.00000000000E+00 0. -1.
         23    2    1    2    0    0  0.87150928403E+02  0.77789180497E+02  0.27654577108E+03  0.31451476932E+03  0.93784517340E+02 0.  0.
        -11    1    1    2    0    0 -0.12727677941E+03 -0.38304487101E+02  0.18096016542E+03  0.22452882617E+03  0.00000000000E+00 0.  1.
         11    1    1    2    0    0  0.40125851008E+02 -0.39484693396E+02 -0.45750593650E+03  0.46095640452E+03  0.00000000000E+00 0. -1.
        -15    1    3    3    0    0  0.66808727011E+02  0.99362199056E+02  0.21254326749E+03  0.24395501817E+03  0.17770000000E+01 0. -1.
         15    1    3    3    0    0  0.20342201392E+02 -0.21573018559E+02  0.64002503589E+02  0.70559751146E+02  0.17770000000E+01 0.  1.
</event>
<event>
 7    1  0.4009626E-006  0.4346757E+03  0.7546771E-02  0.9559153E-01
        -11   -1    0    0    0    0  0.00000000000E+00  0.00000000000E+00  0.50000000000E+03  0.50000000000E+03  0.00000000000E+00 0. -1.
         11   -1    0    0    0    0 -0.00000000000E+00 -0.00000000000E+00 -0.50000000000E+03  0.50000000000E+03  0.00000000000E+00 0.  1.
         23    2    1    2    0    0  0.28928415078E+02  0.84065579813E+02  0.33622651370E+01  0.12610803436E+03  0.89375928495E+02 0.  0.
        -11    1    1    2    0    0  0.12488131495E+03 -0.33487467072E+02  0.41002515039E+03  0.42992717666E+03  0.00000000000E+00 0. -1.
         11    1    1    2    0    0 -0.15380973003E+03 -0.50578112741E+02 -0.41338741553E+03  0.44396478898E+03  0.00000000000E+00 0.  1.
        -15    1    3    3    0    0  0.41929648249E+02  0.97818356724E+02 -0.16347756795E+01  0.10645354167E+03  0.17770000000E+01 0.  1.
         15    1    3    3    0    0 -0.13001233170E+02 -0.13752776911E+02  0.49970408165E+01  0.19654492683E+02  0.17770000000E+01 0. -1.
</event>
<event>
 7    1  0.4009626E-006  0.5125392E+03  0.7546771E-02  0.9372181E-01
        -11   -1    0    0    0    0  0.00000000000E+00  0.00000000000E+00  0.50000000000E+03  0.50000000000E+03  0.00000000000E+00 0.  1.
         11   -1    0    0    0    0 -0.00000000000E+00 -0.00000000000E+00 -0.50000000000E+03  0.50000000000E+03  0.00000000000E+00 0. -1.
         23    2    1    2    0    0 -0.38617203211E+02 -0.42845171453E+02  0.25448210259E+03  0.27833052590E+03  0.96849078507E+02 0.  0.
        -11    1    1    2    0    0  0.23924435778E+02  0.19260189303E+02  0.23218606443E+03  0.23420867199E+03  0.00000000000E+00 0.  1.
         11    1    1    2    0    0  0.14692767433E+02  0.23584982150E+02 -0.48666816702E+03  0.48746080211E+03  0.00000000000E+00 0. -1.
        -15    1    3    3    0    0 -0.35737188277E+02 -0.38841555931E+02  0.26304305793E+03  0.26829204451E+03  0.17770000000E+01 0.  1.
         15    1    3    3    0    0 -0.28800149345E+01 -0.40036155222E+01 -0.85609553395E+01  0.10038481389E+02  0.17770000000E+01 0. -1.
</event>
<event>
 7    1  0.4009626E-006  0.5084387E+03  0.7546771E-02  0.9381123E-01
        -11   -1    0    0    0    0  0.00000000000E+00  0.00000000000E+00  0.50000000000E+03  0.50000000000E+03  0.00000000000E+00 0.  1.
         11   -1    0    0    0    0 -0.00000000000E+00 -0.00000000000E+00 -0.50000000000E+03  0.50000000000E+03  0.00000000000E+00 0.  1.
         23    2    1    2    0    0 -0.50600816682E+02  0.25382929263E+02  0.48004410196E+03  0.49156127458E+03  0.89361127410E+02 0.  0.
        -11    1    1    2    0    0 -0.29205056790E+02  0.34989293950E+02 -0.29095583353E+03  0.29450379131E+03  0.00000000000E+00 0.  1.
         11    1    1    2    0    0  0.79805873472E+02 -0.60372223213E+02 -0.18908826843E+03  0.21393493411E+03  0.00000000000E+00 0.  1.
        -15    1    3    3    0    0 -0.39041252303E+02 -0.23515818804E+02  0.12673588613E+03  0.13469356213E+03  0.17770000000E+01 0. -1.
         15    1    3    3    0    0 -0.11559564379E+02  0.48898748066E+02  0.35330821582E+03  0.35686771245E+03  0.17770000000E+01 0.  1.
</event>
<event>
 7    1  0.4009626E-006  0.5180664E+03  0.7546771E-02  0.9360268E-01
        -11   -1    0    0    0    0  0.00000000000E+00  0.00000000000E+00  0.50000000000E+03  0.50000000000E+03  0.00000000000E+00 0.  1.
         11   -1    0    0    0    0 -0.00000000000E+00 -0.00000000000E+00 -0.50000000000E+03  0.50000000000E+03  0.00000000000E+00 0.  1.
         23    2    1    2    0    0  0.91176112737E+02 -0.29558015830E+02 -0.32593506337E+03  0.35079679891E+03  0.87395473331E+02 0.  0.
        -11    1    1    2    0    0 -0.13383298275E+03  0.14431340260E+03  0.43991181467E+03  0.48193363664E+03  0.00000000000E+00 0.  1.
         11    1    1    2    0    0  0.42656870009E+02 -0.11475538677E+03 -0.11397675130E+03  0.16726956445E+03  0.00000000000E+00 0.  1.
        -15    1    3    3    0    0  0.47598064645E+02 -0.55659386842E+02 -0.24024619905E+03  0.25116714950E+03  0.17770000000E+01 0.  1.
         15    1    3    3    0    0  0.43578048091E+02  0.26101371012E+02 -0.85688864324E+02  0.99629649414E+02  0.17770000000E+01 0. -1.
</event>
<event>
 7    1  0.4009626E-006  0.4777420E+03  0.7546771E-02  0.9451039E-01
        -11   -1    0    0    0    0  0.00000000000E+00  0.00000000000E+00  0.50000000000E+03  0.50000000000E+03  0.00000000000E+00 0.  1.
         11   -1    0    0    0    0 -0.00000000000E+00 -0.00000000000E+00 -0.50000000000E+03  0.50000000000E+03  0.00000000000E+00 0. -1.
         23    2    1    2    0    0  0.10731400492E+02 -0.54351124021E+02  0.44401220691E+03  0.45672732236E+03  0.91563090103E+02 0.  0.
        -11    1    1    2    0    0  0.26048049020E+02 -0.19974713742E+02  0.40263209281E+02  0.51948205633E+02  0.00000000000E+00 0.  1.
         11    1    1    2    0    0 -0.36779449512E+02  0.74325837763E+02 -0.48427541619E+03  0.49132447201E+03  0.00000000000E+00 0. -1.
        -15    1    3    3    0    0  0.25391708664E+02  0.15831058589E+02  0.20521796277E+03  0.20739559122E+03  0.17770000000E+01 0. -1.
         15    1    3    3    0    0 -0.14660308172E+02 -0.70182182610E+02  0.23879424414E+03  0.24933173115E+03  0.17770000000E+01 0.  1.
</event>
<event>
 7    1  0.4009626E-006  0.4153084E+03  0.7546771E-02  0.9612220E-01
        -11   -1    0    0    0    0  0.00000000000E+00  0.00000000000E+00  0.50000000000E+03  0.50000000000E+03  0.00000000000E+00 0.  1.
         11   -1    0    0    0    0 -0.00000000000E+00 -0.00000000000E+00 -0.50000000000E+03  0.50000000000E+03  0.00000000000E+00 0. -1.
         23    2    1    2    0    0  0.51002047346E+02 -0.96222284739E+02 -0.71104649521E+02  0.15926218052E+03  0.91916451446E+02 0.  0.
        -11    1    1    2    0    0 -0.18295635439E+03  0.17020654565E+02  0.42053099949E+03  0.45892161839E+03  0.00000000000E+00 0.  1.
         11    1    1    2    0    0  0.13195430704E+03  0.79201630174E+02 -0.34942634997E+03  0.38181620110E+03  0.00000000000E+00 0. -1.
        -15    1    3    3    0    0  0.20862090656E+02 -0.90187226686E+02 -0.12986604405E+02  0.93492097564E+02  0.17770000000E+01 0.  1.
         15    1    3    3    0    0  0.30139956690E+02 -0.60350580533E+01 -0.58118045116E+02  0.65770082956E+02  0.17770000000E+01 0. -1.
</event>
<event>
 7    1  0.4009626E-006  0.3783064E+03  0.7546771E-02  0.9722764E-01
        -11   -1    0    0    0    0  0.00000000000E+00  0.00000000000E+00  0.50000000000E+03  0.50000000000E+03  0.00000000000E+00 0. -1.
         11   -1    0    0    0    0 -0.00000000000E+00 -0.00000000000E+00 -0.50000000000E+03  0.50000000000E+03  0.00000000000E+00 0.  1.
         23    2    1    2    0    0  0.19479372953E+03 -0.22694768324E+03 -0.32961169249E+03  0.45438739838E+03  0.91510611315E+02 0.  0.
        -11    1    1    2    0    0 -0.20459845845E+03  0.19850234232E+02  0.24967453187E+03  0.32340676070E+03  0.00000000000E+00 0. -1.
         11    1    1    2    0    0  0.98047289166E+01  0.20709744901E+03  0.79937160618E+02  0.22220584093E+03  0.00000000000E+00 0.  1.
        -15    1    3    3    0    0  0.18134123856E+03 -0.15929456102E+03 -0.27833892231E+03  0.36842246860E+03  0.17770000000E+01 0.  1.
         15    1    3    3    0    0  0.13452490979E+02 -0.67653122221E+02 -0.51272770181E+02  0.85964929773E+02  0.17770000000E+01 0. -1.
</event>
<event>
 7    1  0.4009626E-006  0.4976489E+03  0.7546771E-02  0.9405086E-01
        -11   -1    0    0    0    0  0.00000000000E+00  0.00000000000E+00  0.50000000000E+03  0.50000000000E+03  0.00000000000E+00 0.  1.
         11   -1    0    0    0    0 -0.00000000000E+00 -0.00000000000E+00 -0.50000000000E+03  0.50000000000E+03  0.00000000000E+00 0. -1.
         23    2    1    2    0    0  0.11414726585E+03 -0.50537669239E+02  0.46747128452E+03  0.49258556715E+03  0.92344381516E+02 0.  0.
        -11    1    1    2    0    0  0.22443139023E+01  0.73007269682E+01  0.10834279116E+02  0.13255910497E+02  0.00000000000E+00 0.  1.
         11    1    1    2    0    0 -0.11639157975E+03  0.43236942271E+02 -0.47830556363E+03  0.49415852236E+03  0.00000000000E+00 0. -1.
        -15    1    3    3    0    0  0.85557303158E+02 -0.69370286226E+02  0.41884759769E+03  0.43309208785E+03  0.17770000000E+01 0.  1.
         15    1    3    3    0    0  0.28589962694E+02  0.18832616987E+02  0.48623686826E+02  0.59493479298E+02  0.17770000000E+01 0. -1.
</event>
<event>
 7    1  0.4009626E-006  0.5074495E+03  0.7546771E-02  0.9383293E-01
        -11   -1    0    0    0    0  0.00000000000E+00  0.00000000000E+00  0.50000000000E+03  0.50000000000E+03  0.00000000000E+00 0. -1.
         11   -1    0    0    0    0 -0.00000000000E+00 -0.00000000000E+00 -0.50000000000E+03  0.50000000000E+03  0.00000000000E+00 0.  1.
         23    2    1    2    0    0  0.12164694136E+02  0.40522504162E+01  0.29855498147E+03  0.31249201434E+03  0.91388082086E+02 0.  0.
        -11    1    1    2    0    0  0.20554149765E+02 -0.22495677553E+02  0.19256140604E+03  0.19495749198E+03  0.00000000000E+00 0. -1.
         11    1    1    2    0    0 -0.32718843901E+02  0.18443427137E+02 -0.49111638751E+03  0.49255049369E+03  0.00000000000E+00 0.  1.
        -15    1    3    3    0    0 -0.12074583550E+02 -0.37332680782E+02  0.85377218670E+02  0.93978464657E+02  0.17770000000E+01 0. -1.
         15    1    3    3    0    0  0.24239277685E+02  0.41384931199E+02  0.21317776280E+03  0.21851354968E+03  0.17770000000E+01 0.  1.
</event>
<event>
 7    1  0.4009626E-006  0.5044036E+03  0.7546771E-02  0.9390010E-01
        -11   -1    0    0    0    0  0.00000000000E+00  0.00000000000E+00  0.50000000000E+03  0.50000000000E+03  0.00000000000E+00 0. -1.
         11   -1    0    0    0    0 -0.00000000000E+00 -0.00000000000E+00 -0.50000000000E+03  0.50000000000E+03  0.00000000000E+00 0. -1.
         23    2    1    2    0    0 -0.44256009648E+02  0.10952728840E+03  0.47417062513E+03  0.49559636888E+03  0.82602408081E+02 0.  0.
        -11    1    1    2    0    0  0.96556931007E+01 -0.35688580010E+02 -0.18217693910E+02  0.41216398724E+02  0.00000000000E+00 0. -1.
         11    1    1    2    0    0  0.34600316547E+02 -0.73838708390E+02 -0.45595293122E+03  0.46318723239E+03  0.00000000000E+00 0. -1.
        -15    1    3    3    0    0 -0.67127138944E+02  0.76775364449E+02  0.29896502373E+03  0.31588566367E+03  0.17770000000E+01 0. -1.
         15    1    3    3    0    0  0.22871129297E+02  0.32751923951E+02  0.17520560140E+03  0.17971070521E+03  0.17770000000E+01 0.  1.
</event>
<event>
 7    1  0.4009626E-006  0.5333388E+03  0.7546771E-02  0.9328154E-01
        -11   -1    0    0    0    0  0.00000000000E+00  0.00000000000E+00  0.50000000000E+03  0.50000000000E+03  0.00000000000E+00 0.  1.
         11   -1    0    0    0    0 -0.00000000000E+00 -0.00000000000E+00 -0.50000000000E+03  0.50000000000E+03  0.00000000000E+00 0. -1.
         23    2    1    2    0    0 -0.71358628818E+02  0.55549712493E+02  0.10082144871E+03  0.16190526274E+03  0.88715980056E+02 0.  0.
        -11    1    1    2    0    0 -0.10422063731E+03 -0.15940102393E+03  0.31889218007E+03  0.37143350707E+03  0.00000000000E+00 0.  1.
         11    1    1    2    0    0  0.17557926613E+03  0.10385131143E+03 -0.41971362877E+03  0.46666123019E+03  0.00000000000E+00 0. -1.
        -15    1    3    3    0    0  0.97118679028E+01 -0.16060839653E+01 -0.93191285980E+01  0.13671275386E+02  0.17770000000E+01 0. -1.
         15    1    3    3    0    0 -0.81070496721E+02  0.57155796459E+02  0.11014057731E+03  0.14823398735E+03  0.17770000000E+01 0.  1.
</event>
<event>
 7    1  0.4009626E-006  0.5113797E+03  0.7546771E-02  0.9374701E-01
        -11   -1    0    0    0    0  0.00000000000E+00  0.00000000000E+00  0.50000000000E+03  0.50000000000E+03  0.00000000000E+00 0.  1.
         11   -1    0    0    0    0 -0.00000000000E+00 -0.00000000000E+00 -0.50000000000E+03  0.50000000000E+03  0.00000000000E+00 0. -1.
         23    2    1    2    0    0 -0.77167920830E+02  0.80085481172E+00  0.34191109992E+03  0.36223078707E+03  0.91391539420E+02 0.  0.
        -11    1    1    2    0    0  0.14952243984E+02 -0.47967277783E+02  0.14043140968E+03  0.14914895294E+03  0.00000000000E+00 0.  1.
         11    1    1    2    0    0  0.62215676846E+02  0.47166422971E+02 -0.48234250960E+03  0.48862025999E+03  0.00000000000E+00 0. -1.
        -15    1    3    3    0    0 -0.53516370689E+02  0.14297296076E+02  0.71589518552E+02  0.90535250054E+02  0.17770000000E+01 0. -1.
         15    1    3    3    0    0 -0.23651550141E+02 -0.13496441265E+02  0.27032158137E+03  0.27169553702E+03  0.17770000000E+01 0.  1.
</event>
<event>
 7    1  0.8331206E-006  0.5229097E+03  0.7546771E-02  0.9349958E-01
        -11   -1    0    0    0    0  0.00000000000E+00  0.00000000000E+00  0.50000000000E+03  0.50000000000E+03  0.00000000000E+00 0.  1.
         11   -1    0    0    0    0 -0.00000000000E+00 -0.00000000000E+00 -0.50000000000E+03  0.50000000000E+03  0.00000000000E+00 0. -1.
         23    2    1    2    0    0  0.75054561857E+01 -0.68764503039E+02 -0.10527773247E+03  0.14701994661E+03  0.75806167272E+02 0.  0.
        -11    1    1    2    0    0 -0.32032208753E+02  0.10971466300E+02  0.47588733741E+03  0.47709034090E+03  0.00000000000E+00 0.  1.
         11    1    1    2    0    0  0.24526752568E+02  0.57793036739E+02 -0.37060960494E+03  0.37588971249E+03  0.00000000000E+00 0. -1.
        -15    1    3    3    0    0 -0.53500935510E+00 -0.69767294114E+02 -0.38456470250E+02  0.79685754035E+02  0.17770000000E+01 0.  1.
         15    1    3    3    0    0  0.80404655408E+01  0.10027910750E+01 -0.66821262222E+02  0.67334192577E+02  0.17770000000E+01 0. -1.
</event>
<event>
 7    1  0.4009626E-006  0.5388027E+03  0.7546771E-02  0.9316941E-01
        -11   -1    0    0    0    0  0.00000000000E+00  0.00000000000E+00  0.50000000000E+03  0.50000000000E+03  0.00000000000E+00 0. -1.
         11   -1    0    0    0    0 -0.00000000000E+00 -0.00000000000E+00 -0.50000000000E+03  0.50000000000E+03  0.00000000000E+00 0.  1.
         23    2    1    2    0    0  0.51063265417E+02 -0.61022961627E+01 -0.39924372591E+02  0.11770978753E+03  0.98066015829E+02 0.  0.
        -11    1    1    2    0    0 -0.33473071105E+02 -0.34530182874E+02  0.45868306454E+03  0.46119728286E+03  0.00000000000E+00 0. -1.
         11    1    1    2    0    0 -0.17590194312E+02  0.40632479037E+02 -0.41875869195E+03  0.42109292961E+03  0.00000000000E+00 0.  1.
        -15    1    3    3    0    0  0.27800573747E+02 -0.44710460185E+02 -0.48715425972E+02  0.71751289934E+02  0.17770000000E+01 0. -1.
         15    1    3    3    0    0  0.23262691670E+02  0.38608164022E+02  0.87910533805E+01  0.45958497598E+02  0.17770000000E+01 0.  1.
</event>
<event>
 7    1  0.4009626E-006  0.4215813E+03  0.7546771E-02  0.9594700E-01
        -11   -1    0    0    0    0  0.00000000000E+00  0.00000000000E+00  0.50000000000E+03  0.50000000000E+03  0.00000000000E+00 0.  1.
         11   -1    0    0    0    0 -0.00000000000E+00 -0.00000000000E+00 -0.50000000000E+03  0.50000000000E+03  0.00000000000E+00 0.  1.
         23    2    1    2    0    0  0.72590449155E+02  0.72366195407E+02 -0.12368026337E+02  0.15053993688E+03  0.10955850024E+03 0.  0.
        -11    1    1    2    0    0 -0.72651956732E+02 -0.10913573653E+03  0.42009519559E+03  0.44007827617E+03  0.00000000000E+00 0.  1.
         11    1    1    2    0    0  0.61507577027E-01  0.36769541123E+02 -0.40772716925E+03  0.40938178694E+03  0.00000000000E+00 0.  1.
        -15    1    3    3    0    0  0.62946699396E+02 -0.90909436543E+01  0.12433245706E+02  0.64828046007E+02  0.17770000000E+01 0.  1.
         15    1    3    3    0    0  0.96437497592E+01  0.81457139061E+02 -0.24801272044E+02  0.85711890875E+02  0.17770000000E+01 0. -1.
</event>
<event>
 7    1  0.4009626E-006  0.4387541E+03  0.7546771E-02  0.9548353E-01
        -11   -1    0    0    0    0  0.00000000000E+00  0.00000000000E+00  0.50000000000E+03  0.50000000000E+03  0.00000000000E+00 0.  1.
         11   -1    0    0    0    0 -0.00000000000E+00 -0.00000000000E+00 -0.50000000000E+03  0.50000000000E+03  0.00000000000E+00 0. -1.
         23    2    1    2    0    0 -0.20302968564E+02  0.15835523028E+03  0.37931350350E+03  0.42147687224E+03  0.90969392732E+02 0.  0.
        -11    1    1    2    0    0  0.58583181219E+00 -0.10028560789E+03  0.71749251274E+02  0.12331058919E+03  0.00000000000E+00 0.  1.
         11    1    1    2    0    0  0.19717136752E+02 -0.58069622386E+02 -0.45106275477E+03  0.45521253856E+03  0.00000000000E+00 0. -1.
        -15    1    3    3    0    0  0.51157936692E+01 -0.10145761045E+02  0.12363636485E+02  0.16885646217E+02  0.17770000000E+01 0. -1.
         15    1    3    3    0    0 -0.25418762233E+02  0.16850099132E+03  0.36694986701E+03  0.40459122603E+03  0.17770000000E+01 0.  1.
</event>
<event>
 7    1  0.4009626E-006  0.4706887E+03  0.7546771E-02  0.9467895E-01
        -11   -1    0    0    0    0  0.00000000000E+00  0.00000000000E+00  0.50000000000E+03  0.50000000000E+03  0.00000000000E+00 0.  1.
         11   -1    0    0    0    0 -0.00000000000E+00 -0.00000000000E+00 -0.50000000000E+03  0.50000000000E+03  0.00000000000E+00 0. -1.
         23    2    1    2    0    0 -0.33558132479E+02  0.59263600928E+02  0.43621393040E+03  0.45050824227E+03  0.89647981767E+02 0.  0.
        -11    1    1    2    0    0  0.47348738806E+02  0.12149227717E+02  0.42809509670E+02  0.64978157244E+02  0.00000000000E+00 0.  1.
         11    1    1    2    0    0 -0.13790606327E+02 -0.71412828645E+02 -0.47902344007E+03  0.48451360048E+03  0.00000000000E+00 0. -1.
        -15    1    3    3    0    0 -0.42292920592E+02  0.10753929881E+02  0.82268898037E+02  0.93143263059E+02  0.17770000000E+01 0. -1.
         15    1    3    3    0    0  0.87347881136E+01  0.48509671047E+02  0.35394503236E+03  0.35736497922E+03  0.17770000000E+01 0.  1.
</event>
<event>
 7    1  0.4009626E-006  0.4784201E+03  0.7546771E-02  0.9449435E-01
        -11   -1    0    0    0    0  0.00000000000E+00  0.00000000000E+00  0.50000000000E+03  0.50000000000E+03  0.00000000000E+00 0.  1.
         11   -1    0    0    0    0 -0.00000000000E+00 -0.00000000000E+00 -0.50000000000E+03  0.50000000000E+03  0.00000000000E+00 0. -1.
         23    2    1    2    0    0  0.14674940057E+01  0.13239841339E+03  0.44311767636E+03  0.47242600331E+03  0.96444595989E+02 0.  0.
        -11    1    1    2    0    0 -0.47607537689E+02  0.18978433783E+02  0.58011709549E+01  0.51578214181E+02  0.00000000000E+00 0.  1.
         11    1    1    2    0    0  0.46140043683E+02 -0.15137684717E+03 -0.44891884731E+03  0.47599578251E+03  0.00000000000E+00 0. -1.
        -15    1    3    3    0    0 -0.23310969381E+02  0.12295857950E+03  0.41615038124E+03  0.43456473753E+03  0.17770000000E+01 0.  1.
         15    1    3    3    0    0  0.24778463387E+02  0.94398338895E+01  0.26967295116E+02  0.37861265781E+02  0.17770000000E+01 0. -1.
</event>
<event>
 7    1  0.4009626E-006  0.4757109E+03  0.7546771E-02  0.9455861E-01
        -11   -1    0    0    0    0  0.00000000000E+00  0.00000000000E+00  0.50000000000E+03  0.50000000000E+03  0.00000000000E+00 0. -1.
         11   -1    0    0    0    0 -0.00000000000E+00 -0.00000000000E+00 -0.50000000000E+03  0.50000000000E+03  0.00000000000E+00 0.  1.
         23    2    1    2    0    0 -0.64328976201E+02  0.64385415344E+02  0.45730027096E+03  0.47540205520E+03  0.92735523849E+02 0.  0.
        -11    1    1    2    0    0  0.50401401047E+02  0.24363662968E+02  0.25652215463E+01  0.56039893489E+02  0.00000000000E+00 0. -1.
         11    1    1    2    0    0  0.13927575155E+02 -0.88749078312E+02 -0.45986549250E+03  0.46855805131E+03  0.00000000000E+00 0.  1.
        -15    1    3    3    0    0 -0.74455970338E+02  0.33036389771E+02  0.40816915866E+03  0.41622147275E+03  0.17770000000E+01 0. -1.
         15    1    3    3    0    0  0.10126994136E+02  0.31349025573E+02  0.49131112296E+02  0.59180582449E+02  0.17770000000E+01 0.  1.
</event>
<event>
 7    1  0.4009626E-006  0.5295875E+03  0.7546771E-02  0.9335935E-01
        -11   -1    0    0    0    0  0.00000000000E+00  0.00000000000E+00  0.50000000000E+03  0.50000000000E+03  0.00000000000E+00 0. -1.
         11   -1    0    0    0    0 -0.00000000000E+00 -0.00000000000E+00 -0.50000000000E+03  0.50000000000E+03  0.00000000000E+00 0.  1.
         23    2    1    2    0    0  0.21465122549E+02  0.93296152785E+02  0.31915229083E+03  0.34579230514E+03  0.92461937814E+02 0.  0.
        -11    1    1    2    0    0  0.70411169308E+02 -0.92746942183E+02  0.14220042382E+03  0.18379523547E+03  0.00000000000E+00 0. -1.
         11    1    1    2    0    0 -0.91876291857E+02 -0.54921060196E+00 -0.46135271465E+03  0.47041245939E+03  0.00000000000E+00 0.  1.
        -15    1    3    3    0    0 -0.24304699212E+02  0.71464742373E+02  0.24152903053E+03  0.25305603752E+03  0.17770000000E+01 0. -1.
         15    1    3    3    0    0  0.45769821761E+02  0.21831410412E+02  0.77623260292E+02  0.92736267620E+02  0.17770000000E+01 0.  1.
</event>
<event>
 7    1  0.4212035E-006  0.5060457E+03  0.7546771E-02  0.9386383E-01
        -11   -1    0    0    0    0  0.00000000000E+00  0.00000000000E+00  0.50000000000E+03  0.50000000000E+03  0.00000000000E+00 0.  1.
         11   -1    0    0    0    0 -0.00000000000E+00 -0.00000000000E+00 -0.50000000000E+03  0.50000000000E+03  0.00000000000E+00 0. -1.
         23    2    1    2    0    0 -0.47177407656E+02  0.71654429034E+02 -0.33024337560E+03  0.35171731308E+03  0.85348205600E+02 0.  0.
        -11    1    1    2    0    0  0.81674171873E+02 -0.12538985529E+03  0.47074151161E+03  0.49395430651E+03  0.00000000000E+00 0.  1.
         11    1    1    2    0    0 -0.34496764217E+02  0.53735426259E+02 -0.14049813602E+03  0.15432838042E+03  0.00000000000E+00 0. -1.
        -15    1    3    3    0    0  0.13571958812E+01  0.56138132076E+02 -0.25300879063E+03  0.25917163756E+03  0.17770000000E+01 0. -1.
         15    1    3    3    0    0 -0.48534603538E+02  0.15516296958E+02 -0.77234584970E+02  0.92545675513E+02  0.17770000000E+01 0.  1.
</event>
<event>
 7    1  0.4009626E-006  0.5193218E+03  0.7546771E-02  0.9357584E-01
        -11   -1    0    0    0    0  0.00000000000E+00  0.00000000000E+00  0.50000000000E+03  0.50000000000E+03  0.00000000000E+00 0.  1.
         11   -1    0    0    0    0 -0.00000000000E+00 -0.00000000000E+00 -0.50000000000E+03  0.50000000000E+03  0.00000000000E+00 0. -1.
         23    2    1    2    0    0 -0.10394964881E+03  0.82689187505E+02  0.45286954693E+03  0.48067818808E+03  0.91201221142E+02 0.  0.
        -11    1    1    2    0    0 -0.51488650618E+02 -0.83299747380E+02 -0.15523453957E+03  0.18354206965E+03  0.00000000000E+00 0.  1.
         11    1    1    2    0    0  0.15543829943E+03  0.61055987522E+00 -0.29763500736E+03  0.33577974227E+03  0.00000000000E+00 0. -1.
        -15    1    3    3    0    0 -0.29039272654E+02  0.79847419097E+02  0.26905763453E+03  0.28215963234E+03  0.17770000000E+01 0.  1.
         15    1    3    3    0    0 -0.74910376158E+02  0.28417684075E+01  0.18381191240E+03  0.19851855574E+03  0.17770000000E+01 0. -1.
</event>
<event>
 7    1  0.4009626E-006  0.5375920E+03  0.7546771E-02  0.9319413E-01
        -11   -1    0    0    0    0  0.00000000000E+00  0.00000000000E+00  0.50000000000E+03  0.50000000000E+03  0.00000000000E+00 0. -1.
         11   -1    0    0    0    0 -0.00000000000E+00 -0.00000000000E+00 -0.50000000000E+03  0.50000000000E+03  0.00000000000E+00 0.  1.
         23    2    1    2    0    0  0.61705374396E+02 -0.49718439845E+02  0.33491147167E+03  0.35660106442E+03  0.93376382474E+02 0.  0.
        -11    1    1    2    0    0 -0.78086083900E+02  0.10658336033E+03  0.12369425581E+03  0.18099093380E+03  0.00000000000E+00 0. -1.
         11    1    1    2    0    0  0.16380709504E+02 -0.56864920485E+02 -0.45860572748E+03  0.46240800177E+03  0.00000000000E+00 0.  1.
        -15    1    3    3    0    0  0.57164254653E+02  0.10191379731E+02  0.21145124900E+03  0.21928612510E+03  0.17770000000E+01 0. -1.
         15    1    3    3    0    0  0.45411197428E+01 -0.59909819577E+02  0.12346022267E+03  0.13731493932E+03  0.17770000000E+01 0.  1.
</event>
<event>
 7    1  0.4009626E-006  0.4810567E+03  0.7546771E-02  0.9443224E-01
        -11   -1    0    0    0    0  0.00000000000E+00  0.00000000000E+00  0.50000000000E+03  0.50000000000E+03  0.00000000000E+00 0.  1.
         11   -1    0    0    0    0 -0.00000000000E+00 -0.00000000000E+00 -0.50000000000E+03  0.50000000000E+03  0.00000000000E+00 0.  1.
         23    2    1    2    0    0 -0.11702140113E+03  0.12741818045E+02  0.46502675991E+03  0.48841314400E+03  0.91875728841E+02 0.  0.
        -11    1    1    2    0    0  0.29809572255E+02 -0.33680111007E+02 -0.78029474784E+01  0.45649167187E+02  0.00000000000E+00 0.  1.
         11    1    1    2    0    0  0.87211828870E+02  0.20938292962E+02 -0.45722381243E+03  0.46593768882E+03  0.00000000000E+00 0.  1.
        -15    1    3    3    0    0 -0.18047092300E+02  0.41596877617E+02  0.11932941945E+03  0.12766622828E+03  0.17770000000E+01 0. -1.
         15    1    3    3    0    0 -0.98974308826E+02 -0.28855059572E+02  0.34569734046E+03  0.36074691572E+03  0.17770000000E+01 0.  1.
</event>
<event>
 7    1  0.4009626E-006  0.4923746E+03  0.7546771E-02  0.9417036E-01
        -11   -1    0    0    0    0  0.00000000000E+00  0.00000000000E+00  0.50000000000E+03  0.50000000000E+03  0.00000000000E+00 0. -1.
         11   -1    0    0    0    0 -0.00000000000E+00 -0.00000000000E+00 -0.50000000000E+03  0.50000000000E+03  0.00000000000E+00 0.  1.
         23    2    1    2    0    0 -0.18378937489E+01 -0.97972865271E+02  0.46782777372E+03  0.48657579912E+03  0.91055599693E+02 0.  0.
        -11    1    1    2    0    0  0.16929031689E+02  0.87250952021E+01  0.13701449172E+02  0.23461651895E+02  0.00000000000E+00 0. -1.
         11    1    1    2    0    0 -0.15091137941E+02  0.89247770069E+02 -0.48152922290E+03  0.48996254899E+03  0.00000000000E+00 0.  1.
        -15    1    3    3    0    0  0.35302806094E+02 -0.78840793193E+01  0.11901336830E+03  0.12440171377E+03  0.17770000000E+01 0.  1.
         15    1    3    3    0    0 -0.37140699843E+02 -0.90088785952E+02  0.34881440542E+03  0.36217408535E+03  0.17770000000E+01 0. -1.
</event>
<event>
 7    1  0.4009626E-006  0.4091418E+03  0.7546771E-02  0.9629769E-01
        -11   -1    0    0    0    0  0.00000000000E+00  0.00000000000E+00  0.50000000000E+03  0.50000000000E+03  0.00000000000E+00 0.  1.
         11   -1    0    0    0    0 -0.00000000000E+00 -0.00000000000E+00 -0.50000000000E+03  0.50000000000E+03  0.00000000000E+00 0.  1.
         23    2    1    2    0    0 -0.19955214074E+02 -0.62312125483E+02  0.12763379092E+03  0.16924161363E+03  0.89840567946E+02 0.  0.
        -11    1    1    2    0    0  0.25767159608E+03  0.17520854565E+03  0.22960415834E+03  0.38705394381E+03  0.00000000000E+00 0.  1.
         11    1    1    2    0    0 -0.23771638201E+03 -0.11289642016E+03 -0.35723794926E+03  0.44370444256E+03  0.00000000000E+00 0.  1.
        -15    1    3    3    0    0  0.44165406279E+01  0.22372434187E+02  0.23097994902E+02  0.32507026010E+02  0.17770000000E+01 0. -1.
         15    1    3    3    0    0 -0.24371754702E+02 -0.84684559669E+02  0.10453579601E+03  0.13673458762E+03  0.17770000000E+01 0.  1.
</event>
<event>
 7    1  0.4009626E-006  0.5376927E+03  0.7546771E-02  0.9319207E-01
        -11   -1    0    0    0    0  0.00000000000E+00  0.00000000000E+00  0.50000000000E+03  0.50000000000E+03  0.00000000000E+00 0.  1.
         11   -1    0    0    0    0 -0.00000000000E+00 -0.00000000000E+00 -0.50000000000E+03  0.50000000000E+03  0.00000000000E+00 0. -1.
         23    2    1    2    0    0 -0.10146557048E+02 -0.19592622082E+03 -0.49310478083E+02  0.22341678416E+03  0.94834063362E+02 0.  0.
        -11    1    1    2    0    0 -0.82003871251E+02  0.32086793391E+03  0.32256347815E+03  0.46230732565E+03  0.00000000000E+00 0.  1.
         11    1    1    2    0    0  0.92150428299E+02 -0.12494171309E+03 -0.27325300007E+03  0.31427589019E+03  0.00000000000E+00 0. -1.
        -15    1    3    3    0    0  0.40875511071E+02 -0.71721015464E+02 -0.29464285183E+02  0.87669911001E+02  0.17770000000E+01 0.  1.
         15    1    3    3    0    0 -0.51022068119E+02 -0.12420520535E+03 -0.19846192900E+02  0.13574687316E+03  0.17770000000E+01 0. -1.
</event>
<event>
 7    1  0.4009626E-006  0.5391936E+03  0.7546771E-02  0.9316144E-01
        -11   -1    0    0    0    0  0.00000000000E+00  0.00000000000E+00  0.50000000000E+03  0.50000000000E+03  0.00000000000E+00 0. -1.
         11   -1    0    0    0    0 -0.00000000000E+00 -0.00000000000E+00 -0.50000000000E+03  0.50000000000E+03  0.00000000000E+00 0. -1.
         23    2    1    2    0    0 -0.15800968015E+03 -0.75342234132E+02 -0.70979569810E+02  0.21017820046E+03  0.92158913586E+02 0.  0.
        -11    1    1    2    0    0  0.17199386458E+03  0.22361991926E+03  0.36435528358E+03  0.46080639147E+03  0.00000000000E+00 0. -1.
         11    1    1    2    0    0 -0.13984184433E+02 -0.14827768513E+03 -0.29337571377E+03  0.32901540807E+03  0.00000000000E+00 0. -1.
        -15    1    3    3    0    0 -0.12720468581E+03 -0.30322295378E+02 -0.14411402670E+02  0.13157248932E+03  0.17770000000E+01 0.  1.
         15    1    3    3    0    0 -0.30804994339E+02 -0.45019938754E+02 -0.56568167140E+02  0.78605711143E+02  0.17770000000E+01 0. -1.
</event>
<event>
 7    1  0.4009626E-006  0.5176795E+03  0.7546771E-02  0.9361097E-01
        -11   -1    0    0    0    0  0.00000000000E+00  0.00000000000E+00  0.50000000000E+03  0.50000000000E+03  0.00000000000E+00 0.  1.
         11   -1    0    0    0    0 -0.00000000000E+00 -0.00000000000E+00 -0.50000000000E+03  0.50000000000E+03  0.00000000000E+00 0.  1.
         23    2    1    2    0    0 -0.14813308127E+03  0.52178219862E+02 -0.18407411423E+03  0.26202952037E+03  0.10054955804E+03 0.  0.
        -11    1    1    2    0    0  0.19052145725E+03 -0.10152265071E+03  0.43130937267E+03  0.48232048395E+03  0.00000000000E+00 0.  1.
         11    1    1    2    0    0 -0.42388375986E+02  0.49344430843E+02 -0.24723525845E+03  0.25564999568E+03  0.00000000000E+00 0.  1.
        -15    1    3    3    0    0 -0.12192764960E+03 -0.65840333928E+01 -0.12032054168E+03  0.17143480309E+03  0.17770000000E+01 0.  1.
         15    1    3    3    0    0 -0.26205431669E+02  0.58762253255E+02 -0.63753572548E+02  0.90594717275E+02  0.17770000000E+01 0. -1.
</event>
<event>
 7    1  0.4009626E-006  0.5263723E+03  0.7546771E-02  0.9342659E-01
        -11   -1    0    0    0    0  0.00000000000E+00  0.00000000000E+00  0.50000000000E+03  0.50000000000E+03  0.00000000000E+00 0. -1.
         11   -1    0    0    0    0 -0.00000000000E+00 -0.00000000000E+00 -0.50000000000E+03  0.50000000000E+03  0.00000000000E+00 0.  1.
         23    2    1    2    0    0  0.21970377546E+02 -0.21778040812E+02  0.85254046802E+02  0.12993742789E+03  0.93051072641E+02 0.  0.
        -11    1    1    2    0    0  0.77237273556E+02  0.14193063749E+03  0.36200921994E+03  0.39643483400E+03  0.00000000000E+00 0. -1.
         11    1    1    2    0    0 -0.99207651103E+02 -0.12015259668E+03 -0.44726326675E+03  0.47362773811E+03  0.00000000000E+00 0.  1.
        -15    1    3    3    0    0 -0.27282387372E+02  0.29024250767E+01 -0.10725945469E+01  0.27514740052E+02  0.17770000000E+01 0. -1.
         15    1    3    3    0    0  0.49252764918E+02 -0.24680465888E+02  0.86326641349E+02  0.10242268784E+03  0.17770000000E+01 0.  1.
</event>
<event>
 6    1  0.4009626E-006  0.3918461E+03  0.7546771E-02  0.9680804E-01
        -11   -1    0    0    0    0  0.00000000000E+00  0.00000000000E+00  0.50000000000E+03  0.50000000000E+03  0.00000000000E+00 0. -1.
         11   -1    0    0    0    0 -0.00000000000E+00 -0.00000000000E+00 -0.50000000000E+03  0.50000000000E+03  0.00000000000E+00 0.  1.
        -11    1    1    2    0    0  0.63737700158E+02  0.12422089141E+02  0.38299620513E+03  0.38846221935E+03  0.00000000000E+00 0. -1.
         11    1    1    2    0    0  0.53573492657E+02  0.80811804132E+02 -0.39792537173E+03  0.40956717186E+03  0.00000000000E+00 0.  1.
        -15    1    1    2    0    0  0.12550590998E+02 -0.39009219149E+02 -0.33680383217E+02  0.53073180192E+02  0.17770000000E+01 0. -1.
         15    1    1    2    0    0 -0.12986178381E+03 -0.54224674124E+02  0.48609549813E+02  0.14889742859E+03  0.17770000000E+01 0.  1.
</event>
<event>
 7    1  0.4009626E-006  0.5008334E+03  0.7546771E-02  0.9397947E-01
        -11   -1    0    0    0    0  0.00000000000E+00  0.00000000000E+00  0.50000000000E+03  0.50000000000E+03  0.00000000000E+00 0.  1.
         11   -1    0    0    0    0 -0.00000000000E+00 -0.00000000000E+00 -0.50000000000E+03  0.50000000000E+03  0.00000000000E+00 0. -1.
         23    2    1    2    0    0 -0.36372784107E+02  0.60375857622E+02  0.48730554527E+03  0.50083339887E+03  0.91647015024E+02 0.  0.
        -11    1    1    2    0    0 -0.49378429671E+01  0.16757926984E+02 -0.44654926352E+02  0.47950733649E+02  0.00000000000E+00 0.  1.
         11    1    1    2    0    0  0.41310627074E+02 -0.77133784606E+02 -0.44265061892E+03  0.45121586748E+03  0.00000000000E+00 0. -1.
        -15    1    3    3    0    0 -0.46715159252E+02  0.44592497459E+02  0.47219338159E+03  0.47659263977E+03  0.17770000000E+01 0.  1.
         15    1    3    3    0    0  0.10342375145E+02  0.15783360163E+02  0.15112163680E+02  0.24240759100E+02  0.17770000000E+01 0. -1.
</event>
<event>
 7    1  0.4009626E-006  0.4916848E+03  0.7546771E-02  0.9418610E-01
        -11   -1    0    0    0    0  0.00000000000E+00  0.00000000000E+00  0.50000000000E+03  0.50000000000E+03  0.00000000000E+00 0.  1.
         11   -1    0    0    0    0 -0.00000000000E+00 -0.00000000000E+00 -0.50000000000E+03  0.50000000000E+03  0.00000000000E+00 0. -1.
         23    2    1    2    0    0  0.16220554219E+03  0.91187162298E+02  0.43960560092E+03  0.48601014529E+03  0.91252619029E+02 0.  0.
        -11    1    1    2    0    0  0.24427236235E+02 -0.26327002843E+01  0.37661923937E+01  0.24855687196E+02  0.00000000000E+00 0.  1.
         11    1    1    2    0    0 -0.18663277842E+03 -0.88554462014E+02 -0.44337179331E+03  0.48913416751E+03  0.00000000000E+00 0. -1.
        -15    1    3    3    0    0  0.35727961340E+02 -0.73457541759E+01  0.34133125883E+02  0.49986751619E+02  0.17770000000E+01 0. -1.
         15    1    3    3    0    0  0.12647758085E+03  0.98532916474E+02  0.40547247504E+03  0.43602339367E+03  0.17770000000E+01 0.  1.
</event>
<event>
 7    1  0.4009626E-006  0.4453735E+03  0.7546771E-02  0.9531089E-01
        -11   -1    0    0    0    0  0.00000000000E+00  0.00000000000E+00  0.50000000000E+03  0.50000000000E+03  0.00000000000E+00 0. -1.
         11   -1    0    0    0    0 -0.00000000000E+00 -0.00000000000E+00 -0.50000000000E+03  0.50000000000E+03  0.00000000000E+00 0. -1.
         23    2    1    2    0    0  0.42877501903E+02  0.68173921842E+02  0.33956212542E+01  0.10561314871E+03  0.68238135576E+02 0.  0.
        -11    1    1    2    0    0 -0.15166478752E+02  0.26547469339E+02  0.43953363695E+03  0.44059574239E+03  0.00000000000E+00 0. -1.
         11    1    1    2    0    0 -0.27711023151E+02 -0.94721391181E+02 -0.44292925820E+03  0.45379110890E+03  0.00000000000E+00 0. -1.
        -15    1    3    3    0    0  0.55527455177E+02  0.26404595240E+02  0.63263929299E+01  0.61835927297E+02  0.17770000000E+01 0.  1.
         15    1    3    3    0    0 -0.12649953273E+02  0.41769326602E+02 -0.29307716756E+01  0.43777221408E+02  0.17770000000E+01 0. -1.
</event>
<event>
 7    1  0.4009626E-006  0.5146814E+03  0.7546771E-02  0.9367545E-01
        -11   -1    0    0    0    0  0.00000000000E+00  0.00000000000E+00  0.50000000000E+03  0.50000000000E+03  0.00000000000E+00 0. -1.
         11   -1    0    0    0    0 -0.00000000000E+00 -0.00000000000E+00 -0.50000000000E+03  0.50000000000E+03  0.00000000000E+00 0. -1.
         23    2    1    2    0    0  0.17587839564E+03  0.20236960591E+03 -0.43656499073E+02  0.28631770303E+03  0.90472480412E+02 0.  0.
        -11    1    1    2    0    0 -0.36450298331E+03 -0.28858656943E+03  0.13924616991E+03  0.48531858478E+03  0.00000000000E+00 0. -1.
         11    1    1    2    0    0  0.18862458767E+03  0.86216963527E+02 -0.95589670833E+02  0.22836371219E+03  0.00000000000E+00 0. -1.
        -15    1    3    3    0    0  0.86765332656E+02  0.90791685306E+02  0.24685908417E+02  0.12799962842E+03  0.17770000000E+01 0.  1.
         15    1    3    3    0    0  0.89113062982E+02  0.11157792060E+03 -0.68342407490E+02  0.15831807462E+03  0.17770000000E+01 0. -1.
</event>
<event>
 7    1  0.4009626E-006  0.3520050E+03  0.7546771E-02  0.9809914E-01
        -11   -1    0    0    0    0  0.00000000000E+00  0.00000000000E+00  0.50000000000E+03  0.50000000000E+03  0.00000000000E+00 0.  1.
         11   -1    0    0    0    0 -0.00000000000E+00 -0.00000000000E+00 -0.50000000000E+03  0.50000000000E+03  0.00000000000E+00 0. -1.
         23    2    1    2    0    0 -0.20893589383E+03  0.19286586070E+03  0.35139242130E+03  0.46084098467E+03  0.89701345874E+02 0.  0.
        -11    1    1    2    0    0  0.10506403583E+03 -0.21885672878E+03 -0.93908190538E+02  0.26029880447E+03  0.00000000000E+00 0.  1.
         11    1    1    2    0    0  0.10387185800E+03  0.25990868078E+02 -0.25748423076E+03  0.27886021086E+03  0.00000000000E+00 0. -1.
        -15    1    3    3    0    0 -0.23123690702E+02  0.48904318611E+02  0.27697198880E+02  0.60799917806E+02  0.17770000000E+01 0. -1.
         15    1    3    3    0    0 -0.18581220313E+03  0.14396154209E+03  0.32369522242E+03  0.40004106687E+03  0.17770000000E+01 0.  1.
</event>
<event>
 7    1  0.4009626E-006  0.4629905E+03  0.7546771E-02  0.9486656E-01
        -11   -1    0    0    0    0  0.00000000000E+00  0.00000000000E+00  0.50000000000E+03  0.50000000000E+03  0.00000000000E+00 0.  1.
         11   -1    0    0    0    0 -0.00000000000E+00 -0.00000000000E+00 -0.50000000000E+03  0.50000000000E+03  0.00000000000E+00 0. -1.
         23    2    1    2    0    0  0.15621228498E+03 -0.13836044244E+03  0.40465088500E+03  0.46280365389E+03  0.83060178886E+02 0.  0.
        -11    1    1    2    0    0 -0.44887375333E+02  0.55025518889E+02  0.32765982321E+02  0.78206737502E+02  0.00000000000E+00 0.  1.
         11    1    1    2    0    0 -0.11132490964E+03  0.83334923547E+02 -0.43741686732E+03  0.45898960860E+03  0.00000000000E+00 0. -1.
        -15    1    3    3    0    0 -0.60326146827E+01 -0.14975709045E+02  0.62124933478E+02  0.64213155895E+02  0.17770000000E+01 0. -1.
         15    1    3    3    0    0  0.16224489966E+03 -0.12338473339E+03  0.34252595152E+03  0.39859049800E+03  0.17770000000E+01 0.  1.
</event>
<event>
 7    1  0.4009626E-006  0.5174466E+03  0.7546771E-02  0.9361596E-01
        -11   -1    0    0    0    0  0.00000000000E+00  0.00000000000E+00  0.50000000000E+03  0.50000000000E+03  0.00000000000E+00 0. -1.
         11   -1    0    0    0    0 -0.00000000000E+00 -0.00000000000E+00 -0.50000000000E+03  0.50000000000E+03  0.00000000000E+00 0.  1.
         23    2    1    2    0    0 -0.44912909900E+02  0.39998325707E+02  0.20805388914E+03  0.23524596864E+03  0.91854283725E+02 0.  0.
        -11    1    1    2    0    0  0.85031827995E+02  0.59597686694E+02  0.26240216431E+03  0.28220062343E+03  0.00000000000E+00 0. -1.
         11    1    1    2    0    0 -0.40118918095E+02 -0.99596012402E+02 -0.47045605345E+03  0.48255340793E+03  0.00000000000E+00 0.  1.
        -15    1    3    3    0    0  0.12368675522E+02  0.26853280567E+02  0.14536126906E+02  0.32993022381E+02  0.17770000000E+01 0.  1.
         15    1    3    3    0    0 -0.57281585421E+02  0.13145045140E+02  0.19351776224E+03  0.20225294626E+03  0.17770000000E+01 0. -1.
</event>
<event>
 7    1  0.4009626E-006  0.3444209E+03  0.7546771E-02  0.9836570E-01
        -11   -1    0    0    0    0  0.00000000000E+00  0.00000000000E+00  0.50000000000E+03  0.50000000000E+03  0.00000000000E+00 0.  1.
         11   -1    0    0    0    0 -0.00000000000E+00 -0.00000000000E+00 -0.50000000000E+03  0.50000000000E+03  0.00000000000E+00 0.  1.
         23    2    1    2    0    0  0.33705725453E+02 -0.18350382454E+03  0.16812046397E+03  0.26680345861E+03  0.90054792055E+02 0.  0.
        -11    1    1    2    0    0 -0.24194278286E+02  0.28592546358E+03  0.20078490978E+03  0.35021895125E+03  0.00000000000E+00 0.  1.
         11    1    1    2    0    0 -0.95114471668E+01 -0.10242163904E+03 -0.36890537375E+03  0.38297759014E+03  0.00000000000E+00 0.  1.
        -15    1    3    3    0    0 -0.27475253448E+02 -0.25452466613E+02  0.26189481260E+02  0.45735809454E+02  0.17770000000E+01 0.  1.
         15    1    3    3    0    0  0.61180978901E+02 -0.15805135792E+03  0.14193098271E+03  0.22106764915E+03  0.17770000000E+01 0. -1.
</event>
<event>
 7    1  0.4009626E-006  0.5127012E+03  0.7546771E-02  0.9371830E-01
        -11   -1    0    0    0    0  0.00000000000E+00  0.00000000000E+00  0.50000000000E+03  0.50000000000E+03  0.00000000000E+00 0.  1.
         11   -1    0    0    0    0 -0.00000000000E+00 -0.00000000000E+00 -0.50000000000E+03  0.50000000000E+03  0.00000000000E+00 0. -1.
         23    2    1    2    0    0 -0.20245819671E+03 -0.94486036462E+02  0.11730914189E+03  0.26761324907E+03  0.89098169500E+02 0.  0.
        -11    1    1    2    0    0 -0.12417651099E+03 -0.11829700456E+03  0.17508317142E+03  0.24508795173E+03  0.00000000000E+00 0.  1.
         11    1    1    2    0    0  0.32663470769E+03  0.21278304102E+03 -0.29239231331E+03  0.48729879920E+03  0.00000000000E+00 0. -1.
        -15    1    3    3    0    0  0.42452988467E+01 -0.46115342729E+01  0.21899753467E+02  0.22848320323E+02  0.17770000000E+01 0. -1.
         15    1    3    3    0    0 -0.20670349555E+03 -0.89874502189E+02  0.95409388422E+02  0.24476492875E+03  0.17770000000E+01 0.  1.
</event>
<event>
 7    1  0.4009626E-006  0.3330477E+03  0.7546771E-02  0.9877956E-01
        -11   -1    0    0    0    0  0.00000000000E+00  0.00000000000E+00  0.50000000000E+03  0.50000000000E+03  0.00000000000E+00 0.  1.
         11   -1    0    0    0    0 -0.00000000000E+00 -0.00000000000E+00 -0.50000000000E+03  0.50000000000E+03  0.00000000000E+00 0. -1.
         23    2    1    2    0    0  0.16011105912E+03  0.62020776039E+01  0.21096349197E+03  0.28315792370E+03  0.99993988786E+02 0.  0.
        -11    1    1    2    0    0 -0.20011671787E+03 -0.10504508033E+03  0.19413640659E+03  0.29794313893E+03  0.00000000000E+00 0.  1.
         11    1    1    2    0    0  0.40005658748E+02  0.98843002723E+02 -0.40509989855E+03  0.41889893737E+03  0.00000000000E+00 0. -1.
        -15    1    3    3    0    0  0.14171357192E+03 -0.26568329340E+02  0.19442577374E+03  0.24206022353E+03  0.17770000000E+01 0.  1.
         15    1    3    3    0    0  0.18397487205E+02  0.32770406944E+02  0.16537718223E+02  0.41097700176E+02  0.17770000000E+01 0. -1.
</event>
<event>
 7    1  0.4009626E-006  0.4303342E+03  0.7546771E-02  0.9570789E-01
        -11   -1    0    0    0    0  0.00000000000E+00  0.00000000000E+00  0.50000000000E+03  0.50000000000E+03  0.00000000000E+00 0.  1.
         11   -1    0    0    0    0 -0.00000000000E+00 -0.00000000000E+00 -0.50000000000E+03  0.50000000000E+03  0.00000000000E+00 0. -1.
         23    2    1    2    0    0  0.35132916588E+02  0.28516175586E+02  0.45516355504E+03  0.46617650071E+03  0.89995410292E+02 0.  0.
        -11    1    1    2    0    0  0.10479345532E+03  0.18068952069E+02 -0.87591427596E+02  0.13776942148E+03  0.00000000000E+00 0.  1.
         11    1    1    2    0    0 -0.13992637191E+03 -0.46585127655E+02 -0.36757212745E+03  0.39605407781E+03  0.00000000000E+00 0. -1.
        -15    1    3    3    0    0  0.42327163834E+02  0.56060811055E+02  0.27865856375E+03  0.28738155163E+03  0.17770000000E+01 0.  1.
         15    1    3    3    0    0 -0.71942472464E+01 -0.27544635470E+02  0.17650499129E+03  0.17879494908E+03  0.17770000000E+01 0. -1.
</event>
<event>
 7    1  0.4009626E-006  0.4603198E+03  0.7546771E-02  0.9493255E-01
        -11   -1    0    0    0    0  0.00000000000E+00  0.00000000000E+00  0.50000000000E+03  0.50000000000E+03  0.00000000000E+00 0.  1.
         11   -1    0    0    0    0 -0.00000000000E+00 -0.00000000000E+00 -0.50000000000E+03  0.50000000000E+03  0.00000000000E+00 0. -1.
         23    2    1    2    0    0  0.27258677117E+02 -0.12834269110E+03  0.40751632432E+03  0.43782462576E+03  0.91684058060E+02 0.  0.
        -11    1    1    2    0    0  0.61623943677E+01  0.55894153717E+02  0.63286434491E+02  0.84659933349E+02  0.00000000000E+00 0.  1.
         11    1    1    2    0    0 -0.33421071485E+02  0.72448537380E+02 -0.47080275881E+03  0.47751544089E+03  0.00000000000E+00 0. -1.
        -15    1    3    3    0    0  0.30442006180E+02 -0.14225388042E+03  0.36418860856E+03  0.39217264383E+03  0.17770000000E+01 0.  1.
         15    1    3    3    0    0 -0.31833290624E+01  0.13911189328E+02  0.43327715755E+02  0.45651981928E+02  0.17770000000E+01 0. -1.
</event>
<event>
 7    1  0.4009626E-006  0.3726891E+03  0.7546771E-02  0.9740726E-01
        -11   -1    0    0    0    0  0.00000000000E+00  0.00000000000E+00  0.50000000000E+03  0.50000000000E+03  0.00000000000E+00 0.  1.
         11   -1    0    0    0    0 -0.00000000000E+00 -0.00000000000E+00 -0.50000000000E+03  0.50000000000E+03  0.00000000000E+00 0. -1.
         23    2    1    2    0    0  0.18723884731E+03 -0.40340778174E+02  0.48244546783E+02  0.22889555093E+03  0.11567139929E+03 0.  0.
        -11    1    1    2    0    0 -0.17027100383E+03 -0.47676396095E+02  0.33430867753E+03  0.37818982716E+03  0.00000000000E+00 0.  1.
         11    1    1    2    0    0 -0.16967843475E+02  0.88017174269E+02 -0.38255322432E+03  0.39291462191E+03  0.00000000000E+00 0. -1.
        -15    1    3    3    0    0  0.11503156880E+03 -0.33704976675E+02  0.85602844206E+02  0.14730679529E+03  0.17770000000E+01 0.  1.
         15    1    3    3    0    0  0.72207278506E+02 -0.66358014993E+01 -0.37358297423E+02  0.81588755636E+02  0.17770000000E+01 0. -1.
</event>
<event>
 7    1  0.4009626E-006  0.3956692E+03  0.7546771E-02  0.9669284E-01
        -11   -1    0    0    0    0  0.00000000000E+00  0.00000000000E+00  0.50000000000E+03  0.50000000000E+03  0.00000000000E+00 0.  1.
         11   -1    0    0    0    0 -0.00000000000E+00 -0.00000000000E+00 -0.50000000000E+03  0.50000000000E+03  0.00000000000E+00 0.  1.
         23    2    1    2    0    0 -0.55089780970E+02  0.31307211108E+02  0.36164294264E+03  0.37839161102E+03  0.91539979778E+02 0.  0.
        -11    1    1    2    0    0  0.17857242329E+03  0.71905472475E+02  0.33089056950E+02  0.19532893545E+03  0.00000000000E+00 0.  1.
         11    1    1    2    0    0 -0.12348264232E+03 -0.10321268358E+03 -0.39473199959E+03  0.42627945353E+03  0.00000000000E+00 0.  1.
        -15    1    3    3    0    0 -0.70442313889E+02  0.31847032189E+02  0.17764999900E+03  0.19374992366E+03  0.17770000000E+01 0.  1.
         15    1    3    3    0    0  0.15352532919E+02 -0.53982108104E+00  0.18399294364E+03  0.18464168736E+03  0.17770000000E+01 0. -1.
</event>
<event>
 7    1  0.4009626E-006  0.4882597E+03  0.7546771E-02  0.9426470E-01
        -11   -1    0    0    0    0  0.00000000000E+00  0.00000000000E+00  0.50000000000E+03  0.50000000000E+03  0.00000000000E+00 0.  1.
         11   -1    0    0    0    0 -0.00000000000E+00 -0.00000000000E+00 -0.50000000000E+03  0.50000000000E+03  0.00000000000E+00 0.  1.
         23    2    1    2    0    0  0.64206357371E+02  0.35378888823E+02  0.46794738698E+03  0.48264419148E+03  0.92717509044E+02 0.  0.
        -11    1    1    2    0    0 -0.24004117545E+02  0.16283031685E+02  0.13134253589E+02  0.31840907608E+02  0.00000000000E+00 0.  1.
         11    1    1    2    0    0 -0.40202239826E+02 -0.51661920508E+02 -0.48108164057E+03  0.48551490092E+03  0.00000000000E+00 0.  1.
        -15    1    3    3    0    0  0.56181921356E+02  0.56870392224E+02  0.43600906151E+03  0.44328062133E+03  0.17770000000E+01 0.  1.
         15    1    3    3    0    0  0.80244360144E+01 -0.21491503401E+02  0.31938325466E+02  0.39363570142E+02  0.17770000000E+01 0. -1.
</event>
<event>
 7    1  0.4009626E-006  0.4850457E+03  0.7546771E-02  0.9433907E-01
        -11   -1    0    0    0    0  0.00000000000E+00  0.00000000000E+00  0.50000000000E+03  0.50000000000E+03  0.00000000000E+00 0.  1.
         11   -1    0    0    0    0 -0.00000000000E+00 -0.00000000000E+00 -0.50000000000E+03  0.50000000000E+03  0.00000000000E+00 0.  1.
         23    2    1    2    0    0  0.22009099879E+02  0.26996097886E+02  0.47093072843E+03  0.48091413677E+03  0.91046505651E+02 0.  0.
        -11    1    1    2    0    0 -0.21450523274E+01  0.37303256665E+02  0.56389498560E+01  0.37787987017E+02  0.00000000000E+00 0.  1.
         11    1    1    2    0    0 -0.19864047551E+02 -0.64299354551E+02 -0.47656967829E+03  0.48129787621E+03  0.00000000000E+00 0.  1.
        -15    1    3    3    0    0  0.11324333789E+02 -0.13464066656E+02  0.38412373599E+03  0.38453052403E+03  0.17770000000E+01 0.  1.
         15    1    3    3    0    0  0.10684766090E+02  0.40460164542E+02  0.86806992438E+02  0.96383612748E+02  0.17770000000E+01 0. -1.
</event>
<event>
 7    1  0.4009626E-006  0.3811089E+03  0.7546771E-02  0.9713926E-01
        -11   -1    0    0    0    0  0.00000000000E+00  0.00000000000E+00  0.50000000000E+03  0.50000000000E+03  0.00000000000E+00 0. -1.
         11   -1    0    0    0    0 -0.00000000000E+00 -0.00000000000E+00 -0.50000000000E+03  0.50000000000E+03  0.00000000000E+00 0. -1.
         23    2    1    2    0    0 -0.19269907064E+03  0.95837010236E+02  0.32876207119E+03  0.40331164165E+03  0.90874179404E+02 0.  0.
        -11    1    1    2    0    0 -0.76953885105E+02 -0.18782946133E+03 -0.79046359277E+02  0.21783051644E+03  0.00000000000E+00 0. -1.
         11    1    1    2    0    0  0.26965295575E+03  0.91992451092E+02 -0.24971571191E+03  0.37885784191E+03  0.00000000000E+00 0. -1.
        -15    1    3    3    0    0 -0.17742652041E+03  0.76603090004E+02  0.22472210082E+03  0.29639734120E+03  0.17770000000E+01 0. -1.
         15    1    3    3    0    0 -0.15272550229E+02  0.19233920232E+02  0.10403997037E+03  0.10691430045E+03  0.17770000000E+01 0.  1.
</event>
<event>
 7    1  0.4009626E-006  0.5131986E+03  0.7546771E-02  0.9370752E-01
        -11   -1    0    0    0    0  0.00000000000E+00  0.00000000000E+00  0.50000000000E+03  0.50000000000E+03  0.00000000000E+00 0.  1.
         11   -1    0    0    0    0 -0.00000000000E+00 -0.00000000000E+00 -0.50000000000E+03  0.50000000000E+03  0.00000000000E+00 0.  1.
         23    2    1    2    0    0 -0.30378803890E+02 -0.28674801525E+02 -0.16838514244E+03  0.19590065379E+03  0.90985680144E+02 0.  0.
        -11    1    1    2    0    0  0.20843175913E+01  0.72716077303E+02  0.48133525802E+03  0.48680139985E+03  0.00000000000E+00 0.  1.
         11    1    1    2    0    0  0.28294486299E+02 -0.44041275779E+02 -0.31295011558E+03  0.31729794637E+03  0.00000000000E+00 0.  1.
        -15    1    3    3    0    0 -0.59629986625E+02 -0.27807438274E+02 -0.14177015388E+03  0.15630394489E+03  0.17770000000E+01 0. -1.
         15    1    3    3    0    0  0.29251182735E+02 -0.86736325054E+00 -0.26614988564E+02  0.39596708900E+02  0.17770000000E+01 0.  1.
</event>
<event>
 7    1  0.4009626E-006  0.5070717E+03  0.7546771E-02  0.9384124E-01
        -11   -1    0    0    0    0  0.00000000000E+00  0.00000000000E+00  0.50000000000E+03  0.50000000000E+03  0.00000000000E+00 0.  1.
         11   -1    0    0    0    0 -0.00000000000E+00 -0.00000000000E+00 -0.50000000000E+03  0.50000000000E+03  0.00000000000E+00 0. -1.
         23    2    1    2    0    0  0.92597573246E+00 -0.62243044954E+01  0.22229553290E+03  0.23569853098E+03  0.78095417037E+02 0.  0.
        -11    1    1    2    0    0 -0.19499403137E+02  0.16320209602E+02  0.27017924304E+03  0.27137317357E+03  0.00000000000E+00 0.  1.
         11    1    1    2    0    0  0.18573427405E+02 -0.10095905107E+02 -0.49247477595E+03  0.49292829544E+03  0.00000000000E+00 0. -1.
        -15    1    3    3    0    0 -0.56459873529E+01 -0.26215573502E+02  0.20904845380E+03  0.21076894276E+03  0.17770000000E+01 0.  1.
         15    1    3    3    0    0  0.65719630854E+01  0.19991269007E+02  0.13247079105E+02  0.24929588226E+02  0.17770000000E+01 0. -1.
</event>
<event>
 7    1  0.4009626E-006  0.5332163E+03  0.7546771E-02  0.9328407E-01
        -11   -1    0    0    0    0  0.00000000000E+00  0.00000000000E+00  0.50000000000E+03  0.50000000000E+03  0.00000000000E+00 0.  1.
         11   -1    0    0    0    0 -0.00000000000E+00 -0.00000000000E+00 -0.50000000000E+03  0.50000000000E+03  0.00000000000E+00 0. -1.
         23    2    1    2    0    0  0.18604314823E+02  0.81051959211E+02  0.14121752875E+03  0.19103907210E+03  0.98173295875E+02 0.  0.
        -11    1    1    2    0    0  0.69276416607E+02 -0.11076477072E+03  0.31625499907E+03  0.34217726512E+03  0.00000000000E+00 0.  1.
         11    1    1    2    0    0 -0.87880731430E+02  0.29712811508E+02 -0.45747252782E+03  0.46678366277E+03  0.00000000000E+00 0. -1.
        -15    1    3    3    0    0 -0.31935280264E+02  0.63856269837E+02  0.57298289977E+02  0.91562749447E+02  0.17770000000E+01 0. -1.
         15    1    3    3    0    0  0.50539595087E+02  0.17195689374E+02  0.83919238769E+02  0.99476322656E+02  0.17770000000E+01 0.  1.
</event>
<event>
 7    1  0.4009626E-006  0.5198456E+03  0.7546771E-02  0.9356467E-01
        -11   -1    0    0    0    0  0.00000000000E+00  0.00000000000E+00  0.50000000000E+03  0.50000000000E+03  0.00000000000E+00 0. -1.
         11   -1    0    0    0    0 -0.00000000000E+00 -0.00000000000E+00 -0.50000000000E+03  0.50000000000E+03  0.00000000000E+00 0. -1.
         23    2    1    2    0    0  0.12595973603E+03  0.25978153624E+03  0.27225147019E+03  0.40699514746E+03  0.90398481007E+02 0.  0.
        -11    1    1    2    0    0 -0.43485999756E+02  0.96686025680E+02  0.38678153302E+02  0.11285042880E+03  0.00000000000E+00 0. -1.
         11    1    1    2    0    0 -0.82473736278E+02 -0.35646756192E+03 -0.31092962349E+03  0.48015442374E+03  0.00000000000E+00 0. -1.
        -15    1    3    3    0    0  0.12582679765E+03  0.25623383693E+03  0.27900058845E+03  0.39916493870E+03  0.17770000000E+01 0. -1.
         15    1    3    3    0    0  0.13293838358E+00  0.35476993041E+01 -0.67491182676E+01  0.78302087684E+01  0.17770000000E+01 0.  1.
</event>
<event>
 7    1  0.4009626E-006  0.5195332E+03  0.7546771E-02  0.9357133E-01
        -11   -1    0    0    0    0  0.00000000000E+00  0.00000000000E+00  0.50000000000E+03  0.50000000000E+03  0.00000000000E+00 0.  1.
         11   -1    0    0    0    0 -0.00000000000E+00 -0.00000000000E+00 -0.50000000000E+03  0.50000000000E+03  0.00000000000E+00 0. -1.
         23    2    1    2    0    0  0.14596047979E+00 -0.73885712829E+02 -0.25435377634E+03  0.28036694754E+03  0.91927481588E+02 0.  0.
        -11    1    1    2    0    0 -0.10182629712E+03  0.38718465404E+02  0.46795361709E+03  0.48046675441E+03  0.00000000000E+00 0.  1.
         11    1    1    2    0    0  0.10168033664E+03  0.35167247424E+02 -0.21359984075E+03  0.23916629804E+03  0.00000000000E+00 0. -1.
        -15    1    3    3    0    0  0.36763503593E+02 -0.22481524778E+02 -0.16766089052E+03  0.17311934061E+03  0.17770000000E+01 0.  1.
         15    1    3    3    0    0 -0.36617543113E+02 -0.51404188051E+02 -0.86692885820E+02  0.10724760694E+03  0.17770000000E+01 0. -1.
</event>
<event>
 7    1  0.4009626E-006  0.5360390E+03  0.7546771E-02  0.9322595E-01
        -11   -1    0    0    0    0  0.00000000000E+00  0.00000000000E+00  0.50000000000E+03  0.50000000000E+03  0.00000000000E+00 0. -1.
         11   -1    0    0    0    0 -0.00000000000E+00 -0.00000000000E+00 -0.50000000000E+03  0.50000000000E+03  0.00000000000E+00 0. -1.
         23    2    1    2    0    0 -0.13255936797E+03 -0.10527127159E+03 -0.21521566023E+03  0.28822430716E+03  0.90008022826E+02 0.  0.
        -11    1    1    2    0    0  0.39367188551E+02  0.26981734512E+03  0.37537793024E+03  0.46396095286E+03  0.00000000000E+00 0. -1.
         11    1    1    2    0    0  0.93192179415E+02 -0.16454607352E+03 -0.16016227001E+03  0.24781473998E+03  0.00000000000E+00 0. -1.
        -15    1    3    3    0    0 -0.42033392838E+02 -0.25032695670E+02 -0.13360247346E+03  0.14228921466E+03  0.17770000000E+01 0.  1.
         15    1    3    3    0    0 -0.90525975128E+02 -0.80238575924E+02 -0.81613186771E+02  0.14593509250E+03  0.17770000000E+01 0. -1.
</event>
<event>
 7    1  0.4009626E-006  0.4849338E+03  0.7546771E-02  0.9434167E-01
        -11   -1    0    0    0    0  0.00000000000E+00  0.00000000000E+00  0.50000000000E+03  0.50000000000E+03  0.00000000000E+00 0. -1.
         11   -1    0    0    0    0 -0.00000000000E+00 -0.00000000000E+00 -0.50000000000E+03  0.50000000000E+03  0.00000000000E+00 0.  1.
         23    2    1    2    0    0  0.56991169359E+02 -0.47382955009E+02  0.47454097107E+03  0.48899984900E+03  0.91861750936E+02 0.  0.
        -11    1    1    2    0    0  0.35775064064E+02  0.58543547472E+00 -0.13253138970E+02  0.38155519077E+02  0.00000000000E+00 0. -1.
         11    1    1    2    0    0 -0.92766233424E+02  0.46797519534E+02 -0.46128783210E+03  0.47284463193E+03  0.00000000000E+00 0.  1.
        -15    1    3    3    0    0 -0.52024002379E+01  0.12781657707E+02  0.11828017428E+02  0.18261858264E+02  0.17770000000E+01 0.  1.
         15    1    3    3    0    0  0.62193569597E+02 -0.60164612716E+02  0.46271295364E+03  0.47073799073E+03  0.17770000000E+01 0. -1.
</event>
<event>
 7    1  0.4009626E-006  0.5403777E+03  0.7546771E-02  0.9313734E-01
        -11   -1    0    0    0    0  0.00000000000E+00  0.00000000000E+00  0.50000000000E+03  0.50000000000E+03  0.00000000000E+00 0.  1.
         11   -1    0    0    0    0 -0.00000000000E+00 -0.00000000000E+00 -0.50000000000E+03  0.50000000000E+03  0.00000000000E+00 0. -1.
         23    2    1    2    0    0 -0.69729796716E+02  0.65942274162E+02 -0.76671971945E+02  0.15864762732E+03  0.10039845766E+03 0.  0.
        -11    1    1    2    0    0  0.55407575044E+01 -0.79059508167E+02  0.45273785168E+03  0.45962231035E+03  0.00000000000E+00 0.  1.
         11    1    1    2    0    0  0.64189039212E+02  0.13117234006E+02 -0.37606587974E+03  0.38173006233E+03  0.00000000000E+00 0. -1.
        -15    1    3    3    0    0 -0.39184942793E+02 -0.95184052944E+01 -0.64822793610E+02  0.76362373467E+02  0.17770000000E+01 0. -1.
         15    1    3    3    0    0 -0.30544853923E+02  0.75460679456E+02 -0.11849178335E+02  0.82285253851E+02  0.17770000000E+01 0.  1.
</event>
<event>
 7    1  0.4009626E-006  0.5242822E+03  0.7546771E-02  0.9347058E-01
        -11   -1    0    0    0    0  0.00000000000E+00  0.00000000000E+00  0.50000000000E+03  0.50000000000E+03  0.00000000000E+00 0.  1.
         11   -1    0    0    0    0 -0.00000000000E+00 -0.00000000000E+00 -0.50000000000E+03  0.50000000000E+03  0.00000000000E+00 0.  1.
         23    2    1    2    0    0  0.97798169558E+02 -0.69031608526E+02  0.35219338764E+03  0.38319763141E+03  0.92034762319E+02 0.  0.
        -11    1    1    2    0    0 -0.79612807207E+02 -0.21910135891E+02  0.11439669900E+03  0.14108457700E+03  0.00000000000E+00 0.  1.
         11    1    1    2    0    0 -0.18185362350E+02  0.90941744416E+02 -0.46659008664E+03  0.47571779159E+03  0.00000000000E+00 0.  1.
        -15    1    3    3    0    0  0.68158440324E+02 -0.45741826553E+02  0.32857785959E+03  0.33868046183E+03  0.17770000000E+01 0.  1.
         15    1    3    3    0    0  0.29639729234E+02 -0.23289781973E+02  0.23615528056E+02  0.44517169584E+02  0.17770000000E+01 0. -1.
</event>
<event>
 7    1  0.4009626E-006  0.3787731E+03  0.7546771E-02  0.9721286E-01
        -11   -1    0    0    0    0  0.00000000000E+00  0.00000000000E+00  0.50000000000E+03  0.50000000000E+03  0.00000000000E+00 0. -1.
         11   -1    0    0    0    0 -0.00000000000E+00 -0.00000000000E+00 -0.50000000000E+03  0.50000000000E+03  0.00000000000E+00 0.  1.
         23    2    1    2    0    0  0.15625565241E+03  0.10393967503E+03  0.60288679957E+02  0.21722910342E+03  0.91293337576E+02 0.  0.
        -11    1    1    2    0    0 -0.64445333927E+02  0.25644163466E+03  0.19770118429E+03  0.33015340574E+03  0.00000000000E+00 0. -1.
         11    1    1    2    0    0 -0.91810318484E+02 -0.36038130970E+03 -0.25798986425E+03  0.45261749084E+03  0.00000000000E+00 0.  1.
        -15    1    3    3    0    0  0.18060323361E+01 -0.13800378175E+02  0.59077073468E+00  0.14043465727E+02  0.17770000000E+01 0.  1.
         15    1    3    3    0    0  0.15444962008E+03  0.11774005321E+03  0.59697909223E+02  0.20318563770E+03  0.17770000000E+01 0. -1.
</event>
<event>
 7    1  0.4009626E-006  0.4620325E+03  0.7546771E-02  0.9489017E-01
        -11   -1    0    0    0    0  0.00000000000E+00  0.00000000000E+00  0.50000000000E+03  0.50000000000E+03  0.00000000000E+00 0.  1.
         11   -1    0    0    0    0 -0.00000000000E+00 -0.00000000000E+00 -0.50000000000E+03  0.50000000000E+03  0.00000000000E+00 0. -1.
         23    2    1    2    0    0 -0.16115443895E+03 -0.17830716612E+03  0.38646237463E+03  0.46169126589E+03  0.77726824890E+02 0.  0.
        -11    1    1    2    0    0  0.43080755251E+02  0.53425648998E+02  0.39356782724E+02  0.79115155250E+02  0.00000000000E+00 0.  1.
         11    1    1    2    0    0  0.11807368370E+03  0.12488151712E+03 -0.42581915735E+03  0.45919357886E+03  0.00000000000E+00 0. -1.
        -15    1    3    3    0    0 -0.58276507701E+02 -0.21837394350E+02  0.67586995803E+02  0.91892235105E+02  0.17770000000E+01 0. -1.
         15    1    3    3    0    0 -0.10287793125E+03 -0.15646977177E+03  0.31887537883E+03  0.36979903078E+03  0.17770000000E+01 0.  1.
</event>
<event>
 7    1  0.4009626E-006  0.4421031E+03  0.7546771E-02  0.9539578E-01
        -11   -1    0    0    0    0  0.00000000000E+00  0.00000000000E+00  0.50000000000E+03  0.50000000000E+03  0.00000000000E+00 0. -1.
         11   -1    0    0    0    0 -0.00000000000E+00 -0.00000000000E+00 -0.50000000000E+03  0.50000000000E+03  0.00000000000E+00 0. -1.
         23    2    1    2    0    0 -0.32216868159E+02  0.10555617447E+03  0.39634898164E+03  0.42252626667E+03  0.96207578771E+02 0.  0.
        -11    1    1    2    0    0 -0.96871508695E+02  0.67511016813E+02  0.87820068787E+01  0.11840164793E+03  0.00000000000E+00 0. -1.
         11    1    1    2    0    0  0.12908837685E+03 -0.17306719128E+03 -0.40513098852E+03  0.45907208540E+03  0.00000000000E+00 0. -1.
        -15    1    3    3    0    0 -0.42372888386E+02  0.11879808494E+03  0.37314491778E+03  0.39388924084E+03  0.17770000000E+01 0. -1.
         15    1    3    3    0    0  0.10156020227E+02 -0.13241910465E+02  0.23204063858E+02  0.28637025825E+02  0.17770000000E+01 0.  1.
</event>
<event>
 7    1  0.4009626E-006  0.4630919E+03  0.7546771E-02  0.9486406E-01
        -11   -1    0    0    0    0  0.00000000000E+00  0.00000000000E+00  0.50000000000E+03  0.50000000000E+03  0.00000000000E+00 0.  1.
         11   -1    0    0    0    0 -0.00000000000E+00 -0.00000000000E+00 -0.50000000000E+03  0.50000000000E+03  0.00000000000E+00 0.  1.
         23    2    1    2    0    0 -0.93262616481E+01 -0.26390972446E+03  0.36704090146E+03  0.46124217757E+03  0.91049443731E+02 0.  0.
        -11    1    1    2    0    0 -0.72171661793E+02  0.27622286828E+02  0.18335828523E+02  0.79422554121E+02  0.00000000000E+00 0.  1.
         11    1    1    2    0    0  0.81497923441E+02  0.23628743763E+03 -0.38537672998E+03  0.45933526831E+03  0.00000000000E+00 0.  1.
        -15    1    3    3    0    0 -0.79414821575E+01 -0.26065575006E+03  0.37236857630E+03  0.45460532501E+03  0.17770000000E+01 0.  1.
         15    1    3    3    0    0 -0.13847794906E+01 -0.32539743980E+01 -0.53276748460E+01  0.66368525587E+01  0.17770000000E+01 0. -1.
</event>
<event>
 7    1  0.4009626E-006  0.4537973E+03  0.7546771E-02  0.9509574E-01
        -11   -1    0    0    0    0  0.00000000000E+00  0.00000000000E+00  0.50000000000E+03  0.50000000000E+03  0.00000000000E+00 0.  1.
         11   -1    0    0    0    0 -0.00000000000E+00 -0.00000000000E+00 -0.50000000000E+03  0.50000000000E+03  0.00000000000E+00 0. -1.
         23    2    1    2    0    0 -0.18847270541E+03 -0.67028426473E+02  0.41039598820E+03  0.46580311161E+03  0.92373703041E+02 0.  0.
        -11    1    1    2    0    0  0.95980366623E+02 -0.36543906850E+01  0.11315159434E+02  0.96714105390E+02  0.00000000000E+00 0.  1.
         11    1    1    2    0    0  0.92492338788E+02  0.70682817158E+02 -0.42171114764E+03  0.43748278300E+03  0.00000000000E+00 0. -1.
        -15    1    3    3    0    0 -0.16444640123E+03 -0.17702659302E+02  0.30454085302E+03  0.34656066123E+03  0.17770000000E+01 0.  1.
         15    1    3    3    0    0 -0.24026304178E+02 -0.49325767171E+02  0.10585513519E+03  0.11924245038E+03  0.17770000000E+01 0. -1.
</event>
<event>
 7    1  0.4009626E-006  0.4333989E+03  0.7546771E-02  0.9562560E-01
        -11   -1    0    0    0    0  0.00000000000E+00  0.00000000000E+00  0.50000000000E+03  0.50000000000E+03  0.00000000000E+00 0. -1.
         11   -1    0    0    0    0 -0.00000000000E+00 -0.00000000000E+00 -0.50000000000E+03  0.50000000000E+03  0.00000000000E+00 0.  1.
         23    2    1    2    0    0 -0.91473325576E+02 -0.20581548808E+03  0.39709080492E+03  0.46500931052E+03  0.88459974530E+02 0.  0.
        -11    1    1    2    0    0  0.32150536929E+02  0.12807113323E+03 -0.63492580661E+01  0.13219752369E+03  0.00000000000E+00 0. -1.
         11    1    1    2    0    0  0.59322788647E+02  0.77744354842E+02 -0.39074154686E+03  0.40279316579E+03  0.00000000000E+00 0.  1.
        -15    1    3    3    0    0  0.13340624823E+02 -0.51759535221E+02  0.64619473062E+02  0.83880008255E+02  0.17770000000E+01 0.  1.
         15    1    3    3    0    0 -0.10481395040E+03 -0.15405595285E+03  0.33247133186E+03  0.38112930227E+03  0.17770000000E+01 0. -1.
</event>
<event>
 7    1  0.4009626E-006  0.5253440E+03  0.7546771E-02  0.9344821E-01
        -11   -1    0    0    0    0  0.00000000000E+00  0.00000000000E+00  0.50000000000E+03  0.50000000000E+03  0.00000000000E+00 0.  1.
         11   -1    0    0    0    0 -0.00000000000E+00 -0.00000000000E+00 -0.50000000000E+03  0.50000000000E+03  0.00000000000E+00 0. -1.
         23    2    1    2    0    0  0.73119944489E+01  0.63373717778E+02  0.34123682695E+03  0.35958461685E+03  0.93748766614E+02 0.  0.
        -11    1    1    2    0    0  0.44853866226E+02  0.13342107905E+03  0.87539193107E+02  0.16575935564E+03  0.00000000000E+00 0.  1.
         11    1    1    2    0    0 -0.52165860674E+02 -0.19679479683E+03 -0.42877602006E+03  0.47465602751E+03  0.00000000000E+00 0. -1.
        -15    1    3    3    0    0  0.41102393461E+02  0.11605008604E+02  0.21257439209E+03  0.21682968633E+03  0.17770000000E+01 0.  1.
         15    1    3    3    0    0 -0.33790399012E+02  0.51768709173E+02  0.12866243486E+03  0.14275493052E+03  0.17770000000E+01 0. -1.
</event>
<event>
 6    1  0.4009626E-006  0.5131738E+03  0.7546771E-02  0.9370805E-01
        -11   -1    0    0    0    0  0.00000000000E+00  0.00000000000E+00  0.50000000000E+03  0.50000000000E+03  0.00000000000E+00 0.  1.
         11   -1    0    0    0    0 -0.00000000000E+00 -0.00000000000E+00 -0.50000000000E+03  0.50000000000E+03  0.00000000000E+00 0.  1.
        -11    1    1    2    0    0 -0.37979217335E+02 -0.39585275361E+02  0.74348113028E+02  0.92396195190E+02  0.00000000000E+00 0.  1.
         11    1    1    2    0    0  0.20107123718E+03  0.62386834114E+02 -0.43895101428E+03  0.48682620351E+03  0.00000000000E+00 0.  1.
        -15    1    1    2    0    0 -0.17384463175E+03 -0.27245337963E+00  0.35236232300E+03  0.39291779626E+03  0.17770000000E+01 0.  1.
         15    1    1    2    0    0  0.10752611903E+02 -0.22529105373E+02  0.12240578246E+02  0.27859805033E+02  0.17770000000E+01 0. -1.
</event>
<event>
 7    1  0.4009626E-006  0.5138327E+03  0.7546771E-02  0.9369379E-01
        -11   -1    0    0    0    0  0.00000000000E+00  0.00000000000E+00  0.50000000000E+03  0.50000000000E+03  0.00000000000E+00 0.  1.
         11   -1    0    0    0    0 -0.00000000000E+00 -0.00000000000E+00 -0.50000000000E+03  0.50000000000E+03  0.00000000000E+00 0.  1.
         23    2    1    2    0    0 -0.14216881084E+02  0.78776910272E+02  0.24968747671E+03  0.27749497098E+03  0.90838877092E+02 0.  0.
        -11    1    1    2    0    0 -0.83402712036E+02  0.13206054713E+03  0.17736830308E+03  0.23633771476E+03  0.00000000000E+00 0.  1.
         11    1    1    2    0    0  0.97619593120E+02 -0.21083745740E+03 -0.42705577979E+03  0.48616731426E+03  0.00000000000E+00 0.  1.
        -15    1    3    3    0    0 -0.31222891259E+02 -0.92330119513E+00  0.30720638589E+02  0.43847882367E+02  0.17770000000E+01 0. -1.
         15    1    3    3    0    0  0.17006010176E+02  0.79700211467E+02  0.21896683812E+03  0.23364708861E+03  0.17770000000E+01 0.  1.
</event>
<event>
 7    1  0.4009626E-006  0.5267028E+03  0.7546771E-02  0.9341966E-01
        -11   -1    0    0    0    0  0.00000000000E+00  0.00000000000E+00  0.50000000000E+03  0.50000000000E+03  0.00000000000E+00 0.  1.
         11   -1    0    0    0    0 -0.00000000000E+00 -0.00000000000E+00 -0.50000000000E+03  0.50000000000E+03  0.00000000000E+00 0. -1.
         23    2    1    2    0    0 -0.29853962254E+02 -0.54701528606E+02  0.22120613834E+03  0.24703516991E+03  0.90612930856E+02 0.  0.
        -11    1    1    2    0    0  0.16091229701E+03 -0.93465050012E+02  0.20877136102E+03  0.27966759570E+03  0.00000000000E+00 0.  1.
         11    1    1    2    0    0 -0.13105833475E+03  0.14816657862E+03 -0.42997749936E+03  0.47329723439E+03  0.00000000000E+00 0. -1.
        -15    1    3    3    0    0 -0.16797001381E+02 -0.34582875789E+02  0.21958306533E+03  0.22293047092E+03  0.17770000000E+01 0.  1.
         15    1    3    3    0    0 -0.13056960873E+02 -0.20118652817E+02  0.16230730054E+01  0.24104698990E+02  0.17770000000E+01 0. -1.
</event>
<event>
 7    1  0.4009626E-006  0.5166886E+03  0.7546771E-02  0.9363223E-01
        -11   -1    0    0    0    0  0.00000000000E+00  0.00000000000E+00  0.50000000000E+03  0.50000000000E+03  0.00000000000E+00 0.  1.
         11   -1    0    0    0    0 -0.00000000000E+00 -0.00000000000E+00 -0.50000000000E+03  0.50000000000E+03  0.00000000000E+00 0. -1.
         23    2    1    2    0    0  0.59178710963E+02  0.90286285531E+01 -0.11326234306E+03  0.16055912653E+03  0.96784496659E+02 0.  0.
        -11    1    1    2    0    0 -0.21480330520E+03  0.14805595312E+02  0.43270109940E+03  0.48331139755E+03  0.00000000000E+00 0.  1.
         11    1    1    2    0    0  0.15562459424E+03 -0.23834223865E+02 -0.31943875634E+03  0.35612947591E+03  0.00000000000E+00 0. -1.
        -15    1    3    3    0    0  0.41021534350E+02 -0.54366288618E+01  0.34362029816E+01  0.41560659689E+02  0.17770000000E+01 0.  1.
         15    1    3    3    0    0  0.18157176613E+02  0.14465257415E+02 -0.11669854604E+03  0.11899846685E+03  0.17770000000E+01 0. -1.
</event>
<event>
 7    1  0.4009626E-006  0.3914920E+03  0.7546771E-02  0.9681879E-01
        -11   -1    0    0    0    0  0.00000000000E+00  0.00000000000E+00  0.50000000000E+03  0.50000000000E+03  0.00000000000E+00 0.  1.
         11   -1    0    0    0    0 -0.00000000000E+00 -0.00000000000E+00 -0.50000000000E+03  0.50000000000E+03  0.00000000000E+00 0. -1.
         23    2    1    2    0    0 -0.12833575606E+03 -0.59415078659E+02  0.10283958210E+03  0.19772806793E+03  0.92304882554E+02 0.  0.
        -11    1    1    2    0    0  0.29075474418E+03 -0.69712921684E+02  0.25212678052E+03  0.39110884185E+03  0.00000000000E+00 0.  1.
         11    1    1    2    0    0 -0.16241898812E+03  0.12912800034E+03 -0.35496636262E+03  0.41116309023E+03  0.00000000000E+00 0. -1.
        -15    1    3    3    0    0 -0.39117532857E+02  0.24535797338E+02  0.24471367439E+02  0.52289504503E+02  0.17770000000E+01 0. -1.
         15    1    3    3    0    0 -0.89218223207E+02 -0.83950875997E+02  0.78368214660E+02  0.14543856342E+03  0.17770000000E+01 0.  1.
</event>
<event>
 7    1  0.4009626E-006  0.4396345E+03  0.7546771E-02  0.9546038E-01
        -11   -1    0    0    0    0  0.00000000000E+00  0.00000000000E+00  0.50000000000E+03  0.50000000000E+03  0.00000000000E+00 0. -1.
         11   -1    0    0    0    0 -0.00000000000E+00 -0.00000000000E+00 -0.50000000000E+03  0.50000000000E+03  0.00000000000E+00 0.  1.
         23    2    1    2    0    0  0.73766868163E+02  0.25275535728E+02 -0.27547596199E+02  0.11685047258E+03  0.82551555660E+02 0.  0.
        -11    1    1    2    0    0 -0.36190722418E+02 -0.19968893419E+02  0.45356534964E+03  0.45544489402E+03  0.00000000000E+00 0. -1.
         11    1    1    2    0    0 -0.37576145745E+02 -0.53066423090E+01 -0.42601775344E+03  0.42770463340E+03  0.00000000000E+00 0.  1.
        -15    1    3    3    0    0  0.54126372758E+02  0.49137890034E+02  0.32308359458E+01  0.73196943207E+02  0.17770000000E+01 0. -1.
         15    1    3    3    0    0  0.19640495405E+02 -0.23862354306E+02 -0.30778432145E+02  0.43653529377E+02  0.17770000000E+01 0.  1.
</event>
