<event>
 7    1  0.2809211E-007  0.1506331E+03  0.7546771E-02  0.1097095E+00
        -11   -1    0    0    0    0  0.00000000000E+00  0.00000000000E+00  0.18250000000E+03  0.18250000000E+03  0.00000000000E+00 0. -1.
         11   -1    0    0    0    0 -0.00000000000E+00 -0.00000000000E+00 -0.18250000000E+03  0.18250000000E+03  0.00000000000E+00 0.  1.
         23    2    1    2    0    0 -0.13742853584E+02 -0.53880442984E+02  0.81236212498E+02  0.13480960585E+03  0.92099616975E+02 0.  0.
        -11    1    1    2    0    0 -0.70677730499E+02  0.23866341271E+02  0.35842175730E+02  0.82762342858E+02  0.00000000000E+00 0. -1.
         11    1    1    2    0    0  0.84420584083E+02  0.30014101713E+02 -0.11707838823E+03  0.14742805129E+03  0.00000000000E+00 0.  1.
        -15    1    3    3    0    0 -0.40125730507E+02 -0.30446413830E+02  0.48323191445E+01  0.50631683768E+02  0.17770000000E+01 0.  1.
         15    1    3    3    0    0  0.26382876923E+02 -0.23434029153E+02  0.76403893353E+02  0.84177922080E+02  0.17770000000E+01 0. -1.
</event>
<event>
 7    1  0.2809211E-007  0.1846532E+03  0.7546771E-02  0.1066754E+00
        -11   -1    0    0    0    0  0.00000000000E+00  0.00000000000E+00  0.18250000000E+03  0.18250000000E+03  0.00000000000E+00 0. -1.
         11   -1    0    0    0    0 -0.00000000000E+00 -0.00000000000E+00 -0.18250000000E+03  0.18250000000E+03  0.00000000000E+00 0. -1.
         23    2    1    2    0    0  0.46070217754E+02 -0.87976250486E+00  0.16197865984E+03  0.18874596708E+03  0.85233296896E+02 0.  0.
        -11    1    1    2    0    0 -0.12682877689E+02  0.83232649683E+01 -0.55888004091E+01  0.16166843113E+02  0.00000000000E+00 0. -1.
         11    1    1    2    0    0 -0.33387340065E+02 -0.74435024635E+01 -0.15638985943E+03  0.16008718980E+03  0.00000000000E+00 0. -1.
        -15    1    3    3    0    0 -0.63536775154E+01 -0.29134874747E+02  0.92581442857E+02  0.97281506130E+02  0.17770000000E+01 0.  1.
         15    1    3    3    0    0  0.52423895270E+02  0.28255112242E+02  0.69397216986E+02  0.91464460953E+02  0.17770000000E+01 0. -1.
</event>
<event>
 7    1  0.2809211E-007  0.1831731E+03  0.7546771E-02  0.1067920E+00
        -11   -1    0    0    0    0  0.00000000000E+00  0.00000000000E+00  0.18250000000E+03  0.18250000000E+03  0.00000000000E+00 0. -1.
         11   -1    0    0    0    0 -0.00000000000E+00 -0.00000000000E+00 -0.18250000000E+03  0.18250000000E+03  0.00000000000E+00 0. -1.
         23    2    1    2    0    0  0.39289892537E+02 -0.74033989250E+02  0.14273082855E+03  0.18859504893E+03  0.90395109616E+02 0.  0.
        -11    1    1    2    0    0  0.81710381295E+01 -0.60374917374E+01 -0.19308494189E+02  0.21818229040E+02  0.00000000000E+00 0. -1.
         11    1    1    2    0    0 -0.47460930667E+02  0.80071480988E+02 -0.12342233436E+03  0.15458672203E+03  0.00000000000E+00 0. -1.
        -15    1    3    3    0    0  0.41021643901E+02 -0.76653500514E+01  0.14552090917E+02  0.44231820433E+02  0.17770000000E+01 0.  1.
         15    1    3    3    0    0 -0.17317513635E+01 -0.66368639199E+02  0.12817873764E+03  0.14436322850E+03  0.17770000000E+01 0. -1.
</event>
<event>
 7    1  0.2809211E-007  0.2152111E+03  0.7546771E-02  0.1045040E+00
        -11   -1    0    0    0    0  0.00000000000E+00  0.00000000000E+00  0.18250000000E+03  0.18250000000E+03  0.00000000000E+00 0.  1.
         11   -1    0    0    0    0 -0.00000000000E+00 -0.00000000000E+00 -0.18250000000E+03  0.18250000000E+03  0.00000000000E+00 0.  1.
         23    2    1    2    0    0  0.11853161860E+02 -0.57763978733E+02 -0.23236476683E+02  0.10856524827E+03  0.88143658869E+02 0.  0.
        -11    1    1    2    0    0  0.11761596035E+02  0.83018770934E+02  0.12412195247E+03  0.14978888662E+03  0.00000000000E+00 0.  1.
         11    1    1    2    0    0 -0.23614757895E+02 -0.25254792202E+02 -0.10088547579E+03  0.10664586511E+03  0.00000000000E+00 0.  1.
        -15    1    3    3    0    0  0.97428691723E+01  0.19701160731E+02 -0.21844251496E+02  0.31038496843E+02  0.17770000000E+01 0. -1.
         15    1    3    3    0    0  0.21102926878E+01 -0.77465139463E+02 -0.13922251873E+01  0.77526751430E+02  0.17770000000E+01 0.  1.
</event>
<event>
 7    1  0.2809211E-007  0.1289919E+03  0.7546771E-02  0.1121415E+00
        -11   -1    0    0    0    0  0.00000000000E+00  0.00000000000E+00  0.18250000000E+03  0.18250000000E+03  0.00000000000E+00 0.  1.
         11   -1    0    0    0    0 -0.00000000000E+00 -0.00000000000E+00 -0.18250000000E+03  0.18250000000E+03  0.00000000000E+00 0. -1.
         23    2    1    2    0    0 -0.21813845525E+02  0.15287945853E+02 -0.40161907395E+02  0.10255338072E+03  0.90524316884E+02 0.  0.
        -11    1    1    2    0    0  0.15463619246E+02  0.11534633460E+03  0.58711327773E+02  0.13034922491E+03  0.00000000000E+00 0.  1.
         11    1    1    2    0    0  0.63502262787E+01 -0.13063428045E+03 -0.18549420377E+02  0.13209739437E+03  0.00000000000E+00 0. -1.
        -15    1    3    3    0    0  0.30858674341E+02 -0.39780744448E+01 -0.33968916684E+02  0.46099109406E+02  0.17770000000E+01 0.  1.
         15    1    3    3    0    0 -0.52672519866E+02  0.19266020298E+02 -0.61929907117E+01  0.56454271318E+02  0.17770000000E+01 0. -1.
</event>
<event>
 7    1  0.2809211E-007  0.1710218E+03  0.7546771E-02  0.1077977E+00
        -11   -1    0    0    0    0  0.00000000000E+00  0.00000000000E+00  0.18250000000E+03  0.18250000000E+03  0.00000000000E+00 0. -1.
         11   -1    0    0    0    0 -0.00000000000E+00 -0.00000000000E+00 -0.18250000000E+03  0.18250000000E+03  0.00000000000E+00 0.  1.
         23    2    1    2    0    0  0.63084961541E+00 -0.15986890438E+02  0.12092511587E+03  0.15249518894E+03  0.91520054431E+02 0.  0.
        -11    1    1    2    0    0  0.98576795231E+01 -0.16820058385E+02  0.41827348988E+02  0.46147755450E+02  0.00000000000E+00 0. -1.
         11    1    1    2    0    0 -0.10488529139E+02  0.32806948824E+02 -0.16275246486E+03  0.16635705561E+03  0.00000000000E+00 0.  1.
        -15    1    3    3    0    0 -0.81306131347E+01  0.17379665668E+02  0.11601515398E+03  0.11760456340E+03  0.17770000000E+01 0. -1.
         15    1    3    3    0    0  0.87614627501E+01 -0.33366556106E+02  0.49099618882E+01  0.34890625541E+02  0.17770000000E+01 0.  1.
</event>
<event>
 7    1  0.2809211E-007  0.1848281E+03  0.7546771E-02  0.1066617E+00
        -11   -1    0    0    0    0  0.00000000000E+00  0.00000000000E+00  0.18250000000E+03  0.18250000000E+03  0.00000000000E+00 0.  1.
         11   -1    0    0    0    0 -0.00000000000E+00 -0.00000000000E+00 -0.18250000000E+03  0.18250000000E+03  0.00000000000E+00 0. -1.
         23    2    1    2    0    0  0.32006793180E+02 -0.12596344466E+02  0.15648187736E+03  0.18482807846E+03  0.92150626372E+02 0.  0.
        -11    1    1    2    0    0  0.16772651647E+02 -0.21952977739E+02 -0.67930677845E+02  0.73333703489E+02  0.00000000000E+00 0.  1.
         11    1    1    2    0    0 -0.48779444827E+02  0.34549322205E+02 -0.88551199511E+02  0.10683821806E+03  0.00000000000E+00 0. -1.
        -15    1    3    3    0    0  0.43862107200E+02 -0.45042934589E+02  0.88781061748E+02  0.10880250483E+03  0.17770000000E+01 0. -1.
         15    1    3    3    0    0 -0.11855314020E+02  0.32446590123E+02  0.67700815609E+02  0.76025573620E+02  0.17770000000E+01 0.  1.
</event>
<event>
 7    1  0.2809211E-007  0.1845468E+03  0.7546771E-02  0.1066837E+00
        -11   -1    0    0    0    0  0.00000000000E+00  0.00000000000E+00  0.18250000000E+03  0.18250000000E+03  0.00000000000E+00 0. -1.
         11   -1    0    0    0    0 -0.00000000000E+00 -0.00000000000E+00 -0.18250000000E+03  0.18250000000E+03  0.00000000000E+00 0.  1.
         23    2    1    2    0    0 -0.26740724328E+02 -0.60321170406E+02 -0.13596290344E+03  0.18055971587E+03  0.98803795192E+02 0.  0.
        -11    1    1    2    0    0  0.26980749568E+02  0.43176960827E+02  0.15240519545E+03  0.16068464268E+03  0.00000000000E+00 0. -1.
         11    1    1    2    0    0 -0.24002523974E+00  0.17144209579E+02 -0.16442292010E+02  0.23755641451E+02  0.00000000000E+00 0.  1.
        -15    1    3    3    0    0 -0.40117071260E+02  0.14434707848E+02 -0.44266384048E+02  0.61485044383E+02  0.17770000000E+01 0. -1.
         15    1    3    3    0    0  0.13376346932E+02 -0.74755878254E+02 -0.91696519394E+02  0.11907467148E+03  0.17770000000E+01 0.  1.
</event>
<event>
 7    1  0.2809211E-007  0.1514809E+03  0.7546771E-02  0.1096236E+00
        -11   -1    0    0    0    0  0.00000000000E+00  0.00000000000E+00  0.18250000000E+03  0.18250000000E+03  0.00000000000E+00 0. -1.
         11   -1    0    0    0    0 -0.00000000000E+00 -0.00000000000E+00 -0.18250000000E+03  0.18250000000E+03  0.00000000000E+00 0. -1.
         23    2    1    2    0    0 -0.62565952476E+02 -0.15631349259E+02  0.14016514112E+03  0.17839028398E+03  0.89543225003E+02 0.  0.
        -11    1    1    2    0    0  0.48074934083E+02 -0.41196563007E+02 -0.85887636466E+02  0.10670071316E+03  0.00000000000E+00 0. -1.
         11    1    1    2    0    0  0.14491018393E+02  0.56827912266E+02 -0.54277504656E+02  0.79909002861E+02  0.00000000000E+00 0. -1.
        -15    1    3    3    0    0 -0.27825784897E+02  0.36998971851E+02  0.70967675744E+02  0.84751206202E+02  0.17770000000E+01 0.  1.
         15    1    3    3    0    0 -0.34740167579E+02 -0.52630321110E+02  0.69197465379E+02  0.93639077779E+02  0.17770000000E+01 0. -1.
</event>
<event>
 7    1  0.2809211E-007  0.1779580E+03  0.7546771E-02  0.1072129E+00
        -11   -1    0    0    0    0  0.00000000000E+00  0.00000000000E+00  0.18250000000E+03  0.18250000000E+03  0.00000000000E+00 0. -1.
         11   -1    0    0    0    0 -0.00000000000E+00 -0.00000000000E+00 -0.18250000000E+03  0.18250000000E+03  0.00000000000E+00 0. -1.
         23    2    1    2    0    0  0.10443817099E+03 -0.35737155409E+02 -0.10353800826E+03  0.17690872186E+03  0.91608410533E+02 0.  0.
        -11    1    1    2    0    0 -0.10132142282E+03  0.61516838072E+01  0.11746131627E+03  0.15524507965E+03  0.00000000000E+00 0. -1.
         11    1    1    2    0    0 -0.31167481716E+01  0.29585471601E+02 -0.13923308012E+02  0.32846198487E+02  0.00000000000E+00 0. -1.
        -15    1    3    3    0    0  0.13967368922E+02 -0.35887710180E+02 -0.70920666144E+02  0.80721210049E+02  0.17770000000E+01 0. -1.
         15    1    3    3    0    0  0.90470802064E+02  0.15055477176E+00 -0.32617342118E+02  0.96187511813E+02  0.17770000000E+01 0.  1.
</event>
<event>
 7    1  0.2809211E-007  0.1527796E+03  0.7546771E-02  0.1094930E+00
        -11   -1    0    0    0    0  0.00000000000E+00  0.00000000000E+00  0.18250000000E+03  0.18250000000E+03  0.00000000000E+00 0. -1.
         11   -1    0    0    0    0 -0.00000000000E+00 -0.00000000000E+00 -0.18250000000E+03  0.18250000000E+03  0.00000000000E+00 0.  1.
         23    2    1    2    0    0  0.92639834509E+01  0.82930068709E+02  0.89856490818E+02  0.15348080285E+03  0.92298159338E+02 0.  0.
        -11    1    1    2    0    0  0.75519918921E+02 -0.63720586437E+01 -0.23199181585E+02  0.79259468276E+02  0.00000000000E+00 0. -1.
         11    1    1    2    0    0 -0.84783902372E+02 -0.76558010066E+02 -0.66657309233E+02  0.13225972887E+03  0.00000000000E+00 0.  1.
        -15    1    3    3    0    0  0.28525002677E+02  0.76979160724E+02  0.25445970891E+02  0.85965819527E+02  0.17770000000E+01 0. -1.
         15    1    3    3    0    0 -0.19261019226E+02  0.59509079857E+01  0.64410519927E+02  0.67514983327E+02  0.17770000000E+01 0.  1.
</event>
<event>
 7    1  0.2809211E-007  0.1652137E+03  0.7546771E-02  0.1083113E+00
        -11   -1    0    0    0    0  0.00000000000E+00  0.00000000000E+00  0.18250000000E+03  0.18250000000E+03  0.00000000000E+00 0. -1.
         11   -1    0    0    0    0 -0.00000000000E+00 -0.00000000000E+00 -0.18250000000E+03  0.18250000000E+03  0.00000000000E+00 0. -1.
         23    2    1    2    0    0  0.39867254388E+02  0.39333351018E+02 -0.96347224881E+02  0.14456209726E+03  0.92080952136E+02 0.  0.
        -11    1    1    2    0    0 -0.74843573602E+02 -0.75256344075E+02  0.12396695056E+03  0.16319584144E+03  0.00000000000E+00 0. -1.
         11    1    1    2    0    0  0.34976319214E+02  0.35922993057E+02 -0.27619725675E+02  0.57242061304E+02  0.00000000000E+00 0. -1.
        -15    1    3    3    0    0  0.55421516015E+02  0.14223695058E+02 -0.16754185465E+02  0.59646612629E+02  0.17770000000E+01 0.  1.
         15    1    3    3    0    0 -0.15554261627E+02  0.25109655960E+02 -0.79593039415E+02  0.84915484628E+02  0.17770000000E+01 0. -1.
</event>
<event>
 7    1  0.2809211E-007  0.1720340E+03  0.7546771E-02  0.1077105E+00
        -11   -1    0    0    0    0  0.00000000000E+00  0.00000000000E+00  0.18250000000E+03  0.18250000000E+03  0.00000000000E+00 0.  1.
         11   -1    0    0    0    0 -0.00000000000E+00 -0.00000000000E+00 -0.18250000000E+03  0.18250000000E+03  0.00000000000E+00 0. -1.
         23    2    1    2    0    0 -0.12628355219E+02 -0.31873318113E+02  0.12669771065E+03  0.16033841516E+03  0.92090790677E+02 0.  0.
        -11    1    1    2    0    0 -0.38954624713E+02 -0.10658216277E+02  0.18793257804E+02  0.44544886347E+02  0.00000000000E+00 0.  1.
         11    1    1    2    0    0  0.51582979932E+02  0.42531534391E+02 -0.14549096845E+03  0.16011669850E+03  0.00000000000E+00 0. -1.
        -15    1    3    3    0    0 -0.12252963398E+02  0.31043127359E+02  0.29714768174E+02  0.44720644505E+02  0.17770000000E+01 0. -1.
         15    1    3    3    0    0 -0.37539182100E+00 -0.62916445473E+02  0.96982942476E+02  0.11561777065E+03  0.17770000000E+01 0.  1.
</event>
<event>
 7    1  0.2809211E-007  0.1821691E+03  0.7546771E-02  0.1068718E+00
        -11   -1    0    0    0    0  0.00000000000E+00  0.00000000000E+00  0.18250000000E+03  0.18250000000E+03  0.00000000000E+00 0.  1.
         11   -1    0    0    0    0 -0.00000000000E+00 -0.00000000000E+00 -0.18250000000E+03  0.18250000000E+03  0.00000000000E+00 0.  1.
         23    2    1    2    0    0  0.67707683875E+02 -0.36239557781E+02  0.14243501200E+03  0.18549497542E+03  0.90680853867E+02 0.  0.
        -11    1    1    2    0    0 -0.49223065718E+01  0.23468625500E+02 -0.73221371654E+00  0.23990448553E+02  0.00000000000E+00 0.  1.
         11    1    1    2    0    0 -0.62785377303E+02  0.12770932281E+02 -0.14170279829E+03  0.15551457603E+03  0.00000000000E+00 0.  1.
        -15    1    3    3    0    0  0.37018339395E+02 -0.62151047470E+02  0.11808040705E+03  0.13848917074E+03  0.17770000000E+01 0.  1.
         15    1    3    3    0    0  0.30689344480E+02  0.25911489689E+02  0.24354604950E+02  0.47005804682E+02  0.17770000000E+01 0. -1.
</event>
<event>
 7    1  0.2809211E-007  0.1379545E+03  0.7546771E-02  0.1110748E+00
        -11   -1    0    0    0    0  0.00000000000E+00  0.00000000000E+00  0.18250000000E+03  0.18250000000E+03  0.00000000000E+00 0.  1.
         11   -1    0    0    0    0 -0.00000000000E+00 -0.00000000000E+00 -0.18250000000E+03  0.18250000000E+03  0.00000000000E+00 0. -1.
         23    2    1    2    0    0  0.14920155891E+02 -0.23693181553E+02  0.73341471348E+01  0.87577014921E+02  0.82655707149E+02 0.  0.
        -11    1    1    2    0    0  0.22558509704E+02  0.21594895973E+02  0.13069838082E+03  0.13437742608E+03  0.00000000000E+00 0.  1.
         11    1    1    2    0    0 -0.37478665595E+02  0.20982855802E+01 -0.13803252795E+03  0.14304555900E+03  0.00000000000E+00 0. -1.
        -15    1    3    3    0    0  0.26339776296E+02  0.24164839202E+02  0.12869925173E+02  0.38033090487E+02  0.17770000000E+01 0. -1.
         15    1    3    3    0    0 -0.11419620405E+02 -0.47858020755E+02 -0.55357780383E+01  0.49543924434E+02  0.17770000000E+01 0.  1.
</event>
<event>
 7    1  0.2809211E-007  0.1759063E+03  0.7546771E-02  0.1073828E+00
        -11   -1    0    0    0    0  0.00000000000E+00  0.00000000000E+00  0.18250000000E+03  0.18250000000E+03  0.00000000000E+00 0.  1.
         11   -1    0    0    0    0 -0.00000000000E+00 -0.00000000000E+00 -0.18250000000E+03  0.18250000000E+03  0.00000000000E+00 0.  1.
         23    2    1    2    0    0 -0.94413142057E+00  0.34252252309E+02  0.15364594855E+03  0.18134392946E+03  0.90024635937E+02 0.  0.
        -11    1    1    2    0    0 -0.25334394274E+02 -0.51457441074E+02 -0.13606725283E+03  0.14766176576E+03  0.00000000000E+00 0.  1.
         11    1    1    2    0    0  0.26278525695E+02  0.17205188765E+02 -0.17578695714E+02  0.35994304773E+02  0.00000000000E+00 0.  1.
        -15    1    3    3    0    0 -0.29804503548E+02 -0.52507043965E+00  0.11204976044E+02  0.31895036414E+02  0.17770000000E+01 0. -1.
         15    1    3    3    0    0  0.28860372127E+02  0.34777322748E+02  0.14244097250E+03  0.14944889305E+03  0.17770000000E+01 0.  1.
</event>
<event>
 7    1  0.2809211E-007  0.1450855E+03  0.7546771E-02  0.1102880E+00
        -11   -1    0    0    0    0  0.00000000000E+00  0.00000000000E+00  0.18250000000E+03  0.18250000000E+03  0.00000000000E+00 0.  1.
         11   -1    0    0    0    0 -0.00000000000E+00 -0.00000000000E+00 -0.18250000000E+03  0.18250000000E+03  0.00000000000E+00 0. -1.
         23    2    1    2    0    0 -0.98484968540E+02  0.31476108562E+02 -0.32761819465E+02  0.14243135735E+03  0.92321830049E+02 0.  0.
        -11    1    1    2    0    0  0.47391122819E+02 -0.75754901419E+02  0.95179027616E+02  0.13055179397E+03  0.00000000000E+00 0.  1.
         11    1    1    2    0    0  0.51093845720E+02  0.44278792857E+02 -0.62417208151E+02  0.92016848679E+02  0.00000000000E+00 0. -1.
        -15    1    3    3    0    0 -0.16370373093E+02  0.50823418973E+02 -0.52683071729E+01  0.53683533982E+02  0.17770000000E+01 0.  1.
         15    1    3    3    0    0 -0.82114595447E+02 -0.19347310411E+02 -0.27493512292E+02  0.88747823369E+02  0.17770000000E+01 0. -1.
</event>
<event>
 7    1  0.2809211E-007  0.1411467E+03  0.7546771E-02  0.1107163E+00
        -11   -1    0    0    0    0  0.00000000000E+00  0.00000000000E+00  0.18250000000E+03  0.18250000000E+03  0.00000000000E+00 0. -1.
         11   -1    0    0    0    0 -0.00000000000E+00 -0.00000000000E+00 -0.18250000000E+03  0.18250000000E+03  0.00000000000E+00 0.  1.
         23    2    1    2    0    0 -0.25145326692E+01 -0.10720320043E+03 -0.53159870214E+02  0.14409166135E+03  0.80234568685E+02 0.  0.
        -11    1    1    2    0    0 -0.13163624288E+02  0.46060491678E+02  0.11985858250E+03  0.12907722378E+03  0.00000000000E+00 0. -1.
         11    1    1    2    0    0  0.15678156957E+02  0.61142708750E+02 -0.66698712289E+02  0.91831114878E+02  0.00000000000E+00 0.  1.
        -15    1    3    3    0    0 -0.22267082226E+02  0.17364475284E+01 -0.15033479063E+02  0.26981501489E+02  0.17770000000E+01 0. -1.
         15    1    3    3    0    0  0.19752549556E+02 -0.10893964796E+03 -0.38126391151E+02  0.11711015986E+03  0.17770000000E+01 0.  1.
</event>
<event>
 7    1  0.2809211E-007  0.1523762E+03  0.7546771E-02  0.1095334E+00
        -11   -1    0    0    0    0  0.00000000000E+00  0.00000000000E+00  0.18250000000E+03  0.18250000000E+03  0.00000000000E+00 0.  1.
         11   -1    0    0    0    0 -0.00000000000E+00 -0.00000000000E+00 -0.18250000000E+03  0.18250000000E+03  0.00000000000E+00 0. -1.
         23    2    1    2    0    0  0.42103812232E+01  0.10021262286E+03 -0.47053337431E+01  0.13645538790E+03  0.92399327007E+02 0.  0.
        -11    1    1    2    0    0  0.65746993948E+02 -0.12982934714E+03  0.29783069536E+02  0.14854412753E+03  0.00000000000E+00 0.  1.
         11    1    1    2    0    0 -0.69957375171E+02  0.29616724283E+02 -0.25077735793E+02  0.80000484565E+02  0.00000000000E+00 0. -1.
        -15    1    3    3    0    0 -0.42741404383E+02  0.49019134180E+02  0.88477264112E+01  0.65659296036E+02  0.17770000000E+01 0.  1.
         15    1    3    3    0    0  0.46951785606E+02  0.51193488682E+02 -0.13553060154E+02  0.70796091867E+02  0.17770000000E+01 0. -1.
</event>
<event>
 7    1  0.2809211E-007  0.1515994E+03  0.7546771E-02  0.1096116E+00
        -11   -1    0    0    0    0  0.00000000000E+00  0.00000000000E+00  0.18250000000E+03  0.18250000000E+03  0.00000000000E+00 0.  1.
         11   -1    0    0    0    0 -0.00000000000E+00 -0.00000000000E+00 -0.18250000000E+03  0.18250000000E+03  0.00000000000E+00 0.  1.
         23    2    1    2    0    0  0.41639900555E+02  0.12263887734E+03  0.57611330286E+01  0.15770955614E+03  0.89804999252E+02 0.  0.
        -11    1    1    2    0    0 -0.18394263082E+01 -0.11104796291E+03  0.62490119219E+02  0.12743644909E+03  0.00000000000E+00 0.  1.
         11    1    1    2    0    0 -0.39800474247E+02 -0.11590914424E+02 -0.68251252248E+02  0.79853994771E+02  0.00000000000E+00 0.  1.
        -15    1    3    3    0    0  0.50041568116E+02  0.13417320804E+03  0.57934433869E+01  0.14332944572E+03  0.17770000000E+01 0.  1.
         15    1    3    3    0    0 -0.84016675604E+01 -0.11534330705E+02 -0.32310358354E-01  0.14380110416E+02  0.17770000000E+01 0. -1.
</event>
<event>
 7    1  0.2809211E-007  0.1522057E+03  0.7546771E-02  0.1095505E+00
        -11   -1    0    0    0    0  0.00000000000E+00  0.00000000000E+00  0.18250000000E+03  0.18250000000E+03  0.00000000000E+00 0.  1.
         11   -1    0    0    0    0 -0.00000000000E+00 -0.00000000000E+00 -0.18250000000E+03  0.18250000000E+03  0.00000000000E+00 0.  1.
         23    2    1    2    0    0 -0.17939285661E+02  0.26436066128E+02  0.87738938288E+02  0.13126740909E+03  0.92262277417E+02 0.  0.
        -11    1    1    2    0    0 -0.67173414819E+02  0.37326806501E+02  0.22982060540E+02  0.80210555718E+02  0.00000000000E+00 0.  1.
         11    1    1    2    0    0  0.85112700480E+02 -0.63762872629E+02 -0.11072099883E+03  0.15352203519E+03  0.00000000000E+00 0.  1.
        -15    1    3    3    0    0  0.90083610883E+01  0.20388579911E+02  0.98922427475E+02  0.10141818943E+03  0.17770000000E+01 0. -1.
         15    1    3    3    0    0 -0.26947646749E+02  0.60474862165E+01 -0.11183489187E+02  0.29849219659E+02  0.17770000000E+01 0.  1.
</event>
<event>
 7    1  0.2809211E-007  0.1420110E+03  0.7546771E-02  0.1106210E+00
        -11   -1    0    0    0    0  0.00000000000E+00  0.00000000000E+00  0.18250000000E+03  0.18250000000E+03  0.00000000000E+00 0.  1.
         11   -1    0    0    0    0 -0.00000000000E+00 -0.00000000000E+00 -0.18250000000E+03  0.18250000000E+03  0.00000000000E+00 0. -1.
         23    2    1    2    0    0  0.89100401187E+02  0.89244567937E+02  0.69826527426E+02  0.16476737743E+03  0.79806455479E+02 0.  0.
        -11    1    1    2    0    0 -0.83785923975E+02  0.13421122027E+02 -0.30797293214E+02  0.90270043991E+02  0.00000000000E+00 0. -1.
         11    1    1    2    0    0 -0.53144772122E+01 -0.10266568996E+03 -0.39029234212E+02  0.10996257858E+03  0.00000000000E+00 0.  1.
        -15    1    3    3    0    0  0.61476850794E+02  0.28907366002E+02 -0.63493450630E+00  0.67960281514E+02  0.17770000000E+01 0. -1.
         15    1    3    3    0    0  0.27623550393E+02  0.60337201935E+02  0.70461461933E+02  0.96807095920E+02  0.17770000000E+01 0.  1.
</event>
<event>
 7    1  0.2809211E-007  0.1641005E+03  0.7546771E-02  0.1084124E+00
        -11   -1    0    0    0    0  0.00000000000E+00  0.00000000000E+00  0.18250000000E+03  0.18250000000E+03  0.00000000000E+00 0.  1.
         11   -1    0    0    0    0 -0.00000000000E+00 -0.00000000000E+00 -0.18250000000E+03  0.18250000000E+03  0.00000000000E+00 0.  1.
         23    2    1    2    0    0  0.22238432009E+02  0.48485600336E+02  0.10233017046E+03  0.14764206894E+03  0.92094057555E+02 0.  0.
        -11    1    1    2    0    0 -0.34230722126E+02 -0.21870031939E+01  0.48343559272E+02  0.59275838614E+02  0.00000000000E+00 0.  1.
         11    1    1    2    0    0  0.11992290117E+02 -0.46298597142E+02 -0.15067372973E+03  0.15808209244E+03  0.00000000000E+00 0.  1.
        -15    1    3    3    0    0 -0.15036475779E+02  0.18570744526E+02 -0.96844795835E+01  0.25844052118E+02  0.17770000000E+01 0. -1.
         15    1    3    3    0    0  0.37274907788E+02  0.29914855811E+02  0.11201465004E+03  0.12179801682E+03  0.17770000000E+01 0.  1.
</event>
<event>
 7    1  0.2809211E-007  0.1772597E+03  0.7546771E-02  0.1072704E+00
        -11   -1    0    0    0    0  0.00000000000E+00  0.00000000000E+00  0.18250000000E+03  0.18250000000E+03  0.00000000000E+00 0.  1.
         11   -1    0    0    0    0 -0.00000000000E+00 -0.00000000000E+00 -0.18250000000E+03  0.18250000000E+03  0.00000000000E+00 0.  1.
         23    2    1    2    0    0 -0.18761543492E+02  0.22215886015E+02  0.13334455133E+03  0.16744142834E+03  0.97006811362E+02 0.  0.
        -11    1    1    2    0    0 -0.15545517880E+01  0.33867120327E+02  0.15446876450E+02  0.37255931911E+02  0.00000000000E+00 0.  1.
         11    1    1    2    0    0  0.20316095280E+02 -0.56083006342E+02 -0.14879142778E+03  0.16030263974E+03  0.00000000000E+00 0.  1.
        -15    1    3    3    0    0  0.24168954079E+00  0.10666338904E+01  0.13847867629E+03  0.13849439569E+03  0.17770000000E+01 0.  1.
         15    1    3    3    0    0 -0.19003233033E+02  0.21149252124E+02 -0.51341249621E+01  0.28947032650E+02  0.17770000000E+01 0. -1.
</event>
<event>
 7    1  0.2809211E-007  0.1514983E+03  0.7546771E-02  0.1096218E+00
        -11   -1    0    0    0    0  0.00000000000E+00  0.00000000000E+00  0.18250000000E+03  0.18250000000E+03  0.00000000000E+00 0. -1.
         11   -1    0    0    0    0 -0.00000000000E+00 -0.00000000000E+00 -0.18250000000E+03  0.18250000000E+03  0.00000000000E+00 0.  1.
         23    2    1    2    0    0 -0.43913870913E+02 -0.33785256227E+02  0.70656715914E+02  0.12421268094E+03  0.85828590841E+02 0.  0.
        -11    1    1    2    0    0 -0.23901254733E+01 -0.33552219202E+02  0.70255418097E+02  0.77892797389E+02  0.00000000000E+00 0. -1.
         11    1    1    2    0    0  0.46303996386E+02  0.67337475430E+02 -0.14091213401E+03  0.16289452167E+03  0.00000000000E+00 0.  1.
        -15    1    3    3    0    0  0.23406061337E+01  0.13162747800E+02 -0.12296169908E+02  0.18250750399E+02  0.17770000000E+01 0. -1.
         15    1    3    3    0    0 -0.46254477047E+02 -0.46948004027E+02  0.82952885822E+02  0.10596193054E+03  0.17770000000E+01 0.  1.
</event>
<event>
 7    1  0.2809211E-007  0.1798298E+03  0.7546771E-02  0.1070600E+00
        -11   -1    0    0    0    0  0.00000000000E+00  0.00000000000E+00  0.18250000000E+03  0.18250000000E+03  0.00000000000E+00 0.  1.
         11   -1    0    0    0    0 -0.00000000000E+00 -0.00000000000E+00 -0.18250000000E+03  0.18250000000E+03  0.00000000000E+00 0. -1.
         23    2    1    2    0    0 -0.40503044393E+02  0.74605471646E+02  0.13265790219E+03  0.18172782213E+03  0.90666472957E+02 0.  0.
        -11    1    1    2    0    0  0.28505319974E+02 -0.85665436396E+00  0.27158257335E+01  0.28647213354E+02  0.00000000000E+00 0.  1.
         11    1    1    2    0    0  0.11997724419E+02 -0.73748817282E+02 -0.13537372792E+03  0.15462496452E+03  0.00000000000E+00 0. -1.
        -15    1    3    3    0    0 -0.41601993734E+02 -0.61133746423E+01  0.33108830348E+02  0.53548591094E+02  0.17770000000E+01 0. -1.
         15    1    3    3    0    0  0.10989493407E+01  0.80718846288E+02  0.99549071837E+02  0.12817923103E+03  0.17770000000E+01 0.  1.
</event>
<event>
 7    1  0.2809211E-007  0.1620445E+03  0.7546771E-02  0.1086014E+00
        -11   -1    0    0    0    0  0.00000000000E+00  0.00000000000E+00  0.18250000000E+03  0.18250000000E+03  0.00000000000E+00 0. -1.
         11   -1    0    0    0    0 -0.00000000000E+00 -0.00000000000E+00 -0.18250000000E+03  0.18250000000E+03  0.00000000000E+00 0.  1.
         23    2    1    2    0    0  0.78108826702E+01 -0.15946072750E+02  0.13373665637E+03  0.16198590249E+03  0.89658531249E+02 0.  0.
        -11    1    1    2    0    0  0.60444231106E+02 -0.37511096959E+01 -0.11513958399E+02  0.61645333448E+02  0.00000000000E+00 0. -1.
         11    1    1    2    0    0 -0.68255113776E+02  0.19697182446E+02 -0.12222269797E+03  0.14136876406E+03  0.00000000000E+00 0.  1.
        -15    1    3    3    0    0  0.42944915980E+02  0.13876097110E+02  0.70239463133E+02  0.83507794785E+02  0.17770000000E+01 0. -1.
         15    1    3    3    0    0 -0.35134033310E+02 -0.29822169860E+02  0.63497193234E+02  0.78478107708E+02  0.17770000000E+01 0.  1.
</event>
<event>
 7    1  0.2809211E-007  0.1707198E+03  0.7546771E-02  0.1078239E+00
        -11   -1    0    0    0    0  0.00000000000E+00  0.00000000000E+00  0.18250000000E+03  0.18250000000E+03  0.00000000000E+00 0. -1.
         11   -1    0    0    0    0 -0.00000000000E+00 -0.00000000000E+00 -0.18250000000E+03  0.18250000000E+03  0.00000000000E+00 0. -1.
         23    2    1    2    0    0 -0.15037537568E+01  0.39672744964E+02  0.12644431653E+03  0.15908144898E+03  0.87991785180E+02 0.  0.
        -11    1    1    2    0    0 -0.35636025379E+02  0.19896220958E+02  0.18544734808E+02  0.44829600738E+02  0.00000000000E+00 0. -1.
         11    1    1    2    0    0  0.37139779135E+02 -0.59568965922E+02 -0.14498905134E+03  0.16108895028E+03  0.00000000000E+00 0. -1.
        -15    1    3    3    0    0  0.22647527283E+02  0.57627189907E+02  0.60563249658E+02  0.86630643809E+02  0.17770000000E+01 0.  1.
         15    1    3    3    0    0 -0.24151281040E+02 -0.17954444943E+02  0.65881066871E+02  0.72450805172E+02  0.17770000000E+01 0. -1.
</event>
<event>
 7    1  0.2809211E-007  0.1458148E+03  0.7546771E-02  0.1102103E+00
        -11   -1    0    0    0    0  0.00000000000E+00  0.00000000000E+00  0.18250000000E+03  0.18250000000E+03  0.00000000000E+00 0.  1.
         11   -1    0    0    0    0 -0.00000000000E+00 -0.00000000000E+00 -0.18250000000E+03  0.18250000000E+03  0.00000000000E+00 0. -1.
         23    2    1    2    0    0 -0.78849454046E+02  0.81974596645E+01 -0.60843825837E+02  0.13304827223E+03  0.87837559459E+02 0.  0.
        -11    1    1    2    0    0  0.48294636882E+02  0.37513134537E+02  0.12996286223E+03  0.14363130847E+03  0.00000000000E+00 0.  1.
         11    1    1    2    0    0  0.30554817164E+02 -0.45710594201E+02 -0.69119036392E+02  0.88320419303E+02  0.00000000000E+00 0. -1.
        -15    1    3    3    0    0 -0.95506371052E+02 -0.39203190438E+01 -0.58880234216E+02  0.11228034344E+03  0.17770000000E+01 0. -1.
         15    1    3    3    0    0  0.16656917006E+02  0.12117778708E+02 -0.19635916204E+01  0.20767928785E+02  0.17770000000E+01 0.  1.
</event>
<event>
 7    1  0.2809211E-007  0.1521895E+03  0.7546771E-02  0.1095522E+00
        -11   -1    0    0    0    0  0.00000000000E+00  0.00000000000E+00  0.18250000000E+03  0.18250000000E+03  0.00000000000E+00 0.  1.
         11   -1    0    0    0    0 -0.00000000000E+00 -0.00000000000E+00 -0.18250000000E+03  0.18250000000E+03  0.00000000000E+00 0. -1.
         23    2    1    2    0    0  0.89669666206E+02 -0.48626501377E+02 -0.11144844634E+03  0.17611299767E+03  0.90497768391E+02 0.  0.
        -11    1    1    2    0    0 -0.11651220464E+02  0.48647471073E+02  0.97566965491E+02  0.10964324026E+03  0.00000000000E+00 0.  1.
         11    1    1    2    0    0 -0.78018445742E+02 -0.20969695533E-01  0.13881480851E+02  0.79243762065E+02  0.00000000000E+00 0. -1.
        -15    1    3    3    0    0  0.10217453252E+03 -0.39380270717E+02 -0.11627813910E+03  0.15973166305E+03  0.17770000000E+01 0. -1.
         15    1    3    3    0    0 -0.12504866315E+02 -0.92462306598E+01  0.48296927606E+01  0.16381334626E+02  0.17770000000E+01 0.  1.
</event>
<event>
 7    1  0.2809211E-007  0.1670444E+03  0.7546771E-02  0.1081470E+00
        -11   -1    0    0    0    0  0.00000000000E+00  0.00000000000E+00  0.18250000000E+03  0.18250000000E+03  0.00000000000E+00 0.  1.
         11   -1    0    0    0    0 -0.00000000000E+00 -0.00000000000E+00 -0.18250000000E+03  0.18250000000E+03  0.00000000000E+00 0.  1.
         23    2    1    2    0    0  0.84016620020E+02 -0.35852310767E+02 -0.10022055772E+03  0.16395400091E+03  0.92155160447E+02 0.  0.
        -11    1    1    2    0    0 -0.11662333414E+03 -0.57365035922E+01  0.89506907815E+02  0.14712374413E+03  0.00000000000E+00 0.  1.
         11    1    1    2    0    0  0.32606714123E+02  0.41588814359E+02  0.10713649908E+02  0.53922254961E+02  0.00000000000E+00 0.  1.
        -15    1    3    3    0    0 -0.68457486759E+01  0.19457755448E+02 -0.30113918530E+02  0.36544142352E+02  0.17770000000E+01 0. -1.
         15    1    3    3    0    0  0.90862368696E+02 -0.55310066215E+02 -0.70106639193E+02  0.12740985856E+03  0.17770000000E+01 0.  1.
</event>
<event>
 7    1  0.2809211E-007  0.1556596E+03  0.7546771E-02  0.1092086E+00
        -11   -1    0    0    0    0  0.00000000000E+00  0.00000000000E+00  0.18250000000E+03  0.18250000000E+03  0.00000000000E+00 0. -1.
         11   -1    0    0    0    0 -0.00000000000E+00 -0.00000000000E+00 -0.18250000000E+03  0.18250000000E+03  0.00000000000E+00 0. -1.
         23    2    1    2    0    0 -0.69872800626E+02  0.40087660341E+02  0.67613483461E+02  0.13896371592E+03  0.90830074412E+02 0.  0.
        -11    1    1    2    0    0  0.10752356605E+03 -0.98729767935E+02 -0.44225806506E+02  0.15252805084E+03  0.00000000000E+00 0. -1.
         11    1    1    2    0    0 -0.37650765426E+02  0.58642107594E+02 -0.23387676955E+02  0.73508233236E+02  0.00000000000E+00 0. -1.
        -15    1    3    3    0    0 -0.51459127961E+02  0.29045763502E+02 -0.86218273002E+01  0.59742713890E+02  0.17770000000E+01 0. -1.
         15    1    3    3    0    0 -0.18413672664E+02  0.11041896839E+02  0.76235310761E+02  0.79221002030E+02  0.17770000000E+01 0.  1.
</event>
<event>
 7    1  0.2809211E-007  0.1715400E+03  0.7546771E-02  0.1077530E+00
        -11   -1    0    0    0    0  0.00000000000E+00  0.00000000000E+00  0.18250000000E+03  0.18250000000E+03  0.00000000000E+00 0. -1.
         11   -1    0    0    0    0 -0.00000000000E+00 -0.00000000000E+00 -0.18250000000E+03  0.18250000000E+03  0.00000000000E+00 0.  1.
         23    2    1    2    0    0  0.43149779486E+02  0.31487124311E+02  0.12441027427E+03  0.16004689556E+03  0.85344888355E+02 0.  0.
        -11    1    1    2    0    0  0.40243823094E+02  0.25866068600E+01  0.11466591597E+02  0.41925392725E+02  0.00000000000E+00 0. -1.
         11    1    1    2    0    0 -0.83393602580E+02 -0.34073731171E+02 -0.13587686587E+03  0.16302771171E+03  0.00000000000E+00 0.  1.
        -15    1    3    3    0    0 -0.11484873025E+02 -0.10440665499E+02 -0.23277640446E+01  0.15795126429E+02  0.17770000000E+01 0.  1.
         15    1    3    3    0    0  0.54634652511E+02  0.41927789809E+02  0.12673803832E+03  0.14425176914E+03  0.17770000000E+01 0. -1.
</event>
<event>
 7    1  0.2809211E-007  0.1799735E+03  0.7546771E-02  0.1070484E+00
        -11   -1    0    0    0    0  0.00000000000E+00  0.00000000000E+00  0.18250000000E+03  0.18250000000E+03  0.00000000000E+00 0.  1.
         11   -1    0    0    0    0 -0.00000000000E+00 -0.00000000000E+00 -0.18250000000E+03  0.18250000000E+03  0.00000000000E+00 0. -1.
         23    2    1    2    0    0  0.38062438764E+02  0.10232423267E+03  0.10217303439E+03  0.17772471039E+03  0.96061157037E+02 0.  0.
        -11    1    1    2    0    0 -0.19171333882E+01 -0.19218292270E+02  0.24702859374E+02  0.31356808183E+02  0.00000000000E+00 0.  1.
         11    1    1    2    0    0 -0.36145305376E+02 -0.83105940405E+02 -0.12687589376E+03  0.15591848142E+03  0.00000000000E+00 0. -1.
        -15    1    3    3    0    0  0.30405463905E+02  0.12112954880E+03  0.85086904252E+02  0.15112841835E+03  0.17770000000E+01 0.  1.
         15    1    3    3    0    0  0.76569748597E+01 -0.18805316126E+02  0.17086130136E+02  0.26596292047E+02  0.17770000000E+01 0. -1.
</event>
<event>
 7    1  0.2809211E-007  0.1646064E+03  0.7546771E-02  0.1083663E+00
        -11   -1    0    0    0    0  0.00000000000E+00  0.00000000000E+00  0.18250000000E+03  0.18250000000E+03  0.00000000000E+00 0.  1.
         11   -1    0    0    0    0 -0.00000000000E+00 -0.00000000000E+00 -0.18250000000E+03  0.18250000000E+03  0.00000000000E+00 0. -1.
         23    2    1    2    0    0  0.39171783752E+02 -0.93107133913E+02  0.12119874535E+03  0.18445353482E+03  0.95554191981E+02 0.  0.
        -11    1    1    2    0    0  0.27315941912E+02  0.25338502917E+02 -0.47448268878E+02  0.60328588846E+02  0.00000000000E+00 0.  1.
         11    1    1    2    0    0 -0.66487725664E+02  0.67768630996E+02 -0.73750476471E+02  0.12021787634E+03  0.00000000000E+00 0. -1.
        -15    1    3    3    0    0  0.41017423058E+02 -0.43935053200E+02  0.12110793185E+03  0.13521466925E+03  0.17770000000E+01 0.  1.
         15    1    3    3    0    0 -0.18456393060E+01 -0.49172080713E+02  0.90813493612E-01  0.49238865565E+02  0.17770000000E+01 0. -1.
</event>
<event>
 7    1  0.2809211E-007  0.1519277E+03  0.7546771E-02  0.1095785E+00
        -11   -1    0    0    0    0  0.00000000000E+00  0.00000000000E+00  0.18250000000E+03  0.18250000000E+03  0.00000000000E+00 0. -1.
         11   -1    0    0    0    0 -0.00000000000E+00 -0.00000000000E+00 -0.18250000000E+03  0.18250000000E+03  0.00000000000E+00 0. -1.
         23    2    1    2    0    0 -0.21408494335E+02  0.39016965166E+02  0.14763819517E+03  0.17891239892E+03  0.90730163758E+02 0.  0.
        -11    1    1    2    0    0 -0.16695631102E+02 -0.64920187245E+02 -0.82465214402E+02  0.10627269826E+03  0.00000000000E+00 0. -1.
         11    1    1    2    0    0  0.38104125437E+02  0.25903222079E+02 -0.65172980765E+02  0.79814902814E+02  0.00000000000E+00 0. -1.
        -15    1    3    3    0    0  0.22000801097E+02  0.41094707866E+02  0.35453956206E+02  0.58591390179E+02  0.17770000000E+01 0.  1.
         15    1    3    3    0    0 -0.43409295433E+02 -0.20777427002E+01  0.11218423896E+03  0.12032100874E+03  0.17770000000E+01 0. -1.
</event>
<event>
 7    1  0.2809211E-007  0.1429219E+03  0.7546771E-02  0.1105214E+00
        -11   -1    0    0    0    0  0.00000000000E+00  0.00000000000E+00  0.18250000000E+03  0.18250000000E+03  0.00000000000E+00 0.  1.
         11   -1    0    0    0    0 -0.00000000000E+00 -0.00000000000E+00 -0.18250000000E+03  0.18250000000E+03  0.00000000000E+00 0. -1.
         23    2    1    2    0    0  0.68228381118E+02  0.32699917275E+02 -0.19900385203E+02  0.12819159389E+03  0.10155128179E+03 0.  0.
        -11    1    1    2    0    0  0.10353796726E+02  0.58649619883E+02  0.81923833140E+02  0.10128422116E+03  0.00000000000E+00 0.  1.
         11    1    1    2    0    0 -0.78582177844E+02 -0.91349537158E+02 -0.62023447937E+02  0.13552418496E+03  0.00000000000E+00 0. -1.
        -15    1    3    3    0    0  0.77899225739E+02  0.33638769295E+02  0.19909566680E+02  0.87174564781E+02  0.17770000000E+01 0.  1.
         15    1    3    3    0    0 -0.96708446209E+01 -0.93885201980E+00 -0.39809951883E+02  0.41017029106E+02  0.17770000000E+01 0. -1.
</event>
<event>
 7    1  0.2809211E-007  0.1623268E+03  0.7546771E-02  0.1085753E+00
        -11   -1    0    0    0    0  0.00000000000E+00  0.00000000000E+00  0.18250000000E+03  0.18250000000E+03  0.00000000000E+00 0. -1.
         11   -1    0    0    0    0 -0.00000000000E+00 -0.00000000000E+00 -0.18250000000E+03  0.18250000000E+03  0.00000000000E+00 0. -1.
         23    2    1    2    0    0 -0.56887901651E+01  0.24332357213E+02  0.10858431521E+03  0.14465396421E+03  0.92248522535E+02 0.  0.
        -11    1    1    2    0    0  0.90873782186E+01  0.55460409025E+02  0.27491970804E+02  0.62563934266E+02  0.00000000000E+00 0. -1.
         11    1    1    2    0    0 -0.33985880535E+01 -0.79792766238E+02 -0.13607628602E+03  0.15778210152E+03  0.00000000000E+00 0. -1.
        -15    1    3    3    0    0 -0.19878405757E+02  0.36822293420E+01  0.11654930081E+03  0.11830303071E+03  0.17770000000E+01 0.  1.
         15    1    3    3    0    0  0.14189615592E+02  0.20650127871E+02 -0.79649855916E+01  0.26350933497E+02  0.17770000000E+01 0. -1.
</event>
<event>
 7    1  0.2809211E-007  0.1760750E+03  0.7546771E-02  0.1073687E+00
        -11   -1    0    0    0    0  0.00000000000E+00  0.00000000000E+00  0.18250000000E+03  0.18250000000E+03  0.00000000000E+00 0. -1.
         11   -1    0    0    0    0 -0.00000000000E+00 -0.00000000000E+00 -0.18250000000E+03  0.18250000000E+03  0.00000000000E+00 0.  1.
         23    2    1    2    0    0 -0.51420623673E+02 -0.47034867562E+02  0.11643955951E+03  0.16255738308E+03  0.89500684180E+02 0.  0.
        -11    1    1    2    0    0  0.52929364088E+01 -0.14036045016E+02  0.32051775247E+02  0.35388444894E+02  0.00000000000E+00 0. -1.
         11    1    1    2    0    0  0.46127687264E+02  0.61070912578E+02 -0.14849133475E+03  0.16705417203E+03  0.00000000000E+00 0.  1.
        -15    1    3    3    0    0  0.22462154645E+01 -0.52334142792E+02  0.29248162660E+02  0.60021002438E+02  0.17770000000E+01 0.  1.
         15    1    3    3    0    0 -0.53666839138E+02  0.52992752304E+01  0.87191396848E+02  0.10253638064E+03  0.17770000000E+01 0. -1.
</event>
<event>
 7    1  0.2809211E-007  0.1556977E+03  0.7546771E-02  0.1092049E+00
        -11   -1    0    0    0    0  0.00000000000E+00  0.00000000000E+00  0.18250000000E+03  0.18250000000E+03  0.00000000000E+00 0. -1.
         11   -1    0    0    0    0 -0.00000000000E+00 -0.00000000000E+00 -0.18250000000E+03  0.18250000000E+03  0.00000000000E+00 0. -1.
         23    2    1    2    0    0 -0.42288082658E+01 -0.33731110107E+01  0.10395736995E+03  0.13833420920E+03  0.91104105133E+02 0.  0.
        -11    1    1    2    0    0  0.57042463577E+02  0.27185811583E+02  0.37726662325E+02  0.73594918660E+02  0.00000000000E+00 0. -1.
         11    1    1    2    0    0 -0.52813655311E+02 -0.23812700572E+02 -0.14168403227E+03  0.15307087214E+03  0.00000000000E+00 0. -1.
        -15    1    3    3    0    0  0.22299791214E+02 -0.21078892630E+02  0.12373560574E+01  0.30761813693E+02  0.17770000000E+01 0. -1.
         15    1    3    3    0    0 -0.26528599480E+02  0.17705781619E+02  0.10272001389E+03  0.10757239551E+03  0.17770000000E+01 0.  1.
</event>
<event>
 7    1  0.2809211E-007  0.1597517E+03  0.7546771E-02  0.1088158E+00
        -11   -1    0    0    0    0  0.00000000000E+00  0.00000000000E+00  0.18250000000E+03  0.18250000000E+03  0.00000000000E+00 0.  1.
         11   -1    0    0    0    0 -0.00000000000E+00 -0.00000000000E+00 -0.18250000000E+03  0.18250000000E+03  0.00000000000E+00 0.  1.
         23    2    1    2    0    0  0.30095202042E+01 -0.35079053302E+02  0.13251038504E+03  0.16586837607E+03  0.93347302278E+02 0.  0.
        -11    1    1    2    0    0 -0.63806490505E+02 -0.33741097438E+01 -0.22604343360E+02  0.67776169749E+02  0.00000000000E+00 0.  1.
         11    1    1    2    0    0  0.60796970301E+02  0.38453163046E+02 -0.10990604168E+03  0.13135545418E+03  0.00000000000E+00 0.  1.
        -15    1    3    3    0    0 -0.17158455883E+02  0.20658975213E+02  0.81961151213E+01  0.28134318851E+02  0.17770000000E+01 0. -1.
         15    1    3    3    0    0  0.20167976087E+02 -0.55738028514E+02  0.12431426992E+03  0.13773405721E+03  0.17770000000E+01 0.  1.
</event>
<event>
 7    1  0.2809211E-007  0.1747767E+03  0.7546771E-02  0.1074774E+00
        -11   -1    0    0    0    0  0.00000000000E+00  0.00000000000E+00  0.18250000000E+03  0.18250000000E+03  0.00000000000E+00 0.  1.
         11   -1    0    0    0    0 -0.00000000000E+00 -0.00000000000E+00 -0.18250000000E+03  0.18250000000E+03  0.00000000000E+00 0. -1.
         23    2    1    2    0    0 -0.45858991762E+02 -0.33996324847E+02 -0.14710456502E+03  0.18264909158E+03  0.91989892791E+02 0.  0.
        -11    1    1    2    0    0  0.39725184205E+02 -0.35386017147E+01  0.13743964282E+03  0.14310928475E+03  0.00000000000E+00 0.  1.
         11    1    1    2    0    0  0.61338075568E+01  0.37534926562E+02  0.96649221983E+01  0.39241623670E+02  0.00000000000E+00 0. -1.
        -15    1    3    3    0    0  0.26445865279E+02 -0.19881315527E+02 -0.60123535926E+02  0.68648727582E+02  0.17770000000E+01 0.  1.
         15    1    3    3    0    0 -0.72304857040E+02 -0.14115009320E+02 -0.86981029097E+02  0.11400036400E+03  0.17770000000E+01 0. -1.
</event>
<event>
 7    1  0.2809211E-007  0.1360101E+03  0.7546771E-02  0.1112985E+00
        -11   -1    0    0    0    0  0.00000000000E+00  0.00000000000E+00  0.18250000000E+03  0.18250000000E+03  0.00000000000E+00 0. -1.
         11   -1    0    0    0    0 -0.00000000000E+00 -0.00000000000E+00 -0.18250000000E+03  0.18250000000E+03  0.00000000000E+00 0.  1.
         23    2    1    2    0    0  0.57340552965E+02 -0.35057233461E+02 -0.22193950261E+02  0.11697080807E+03  0.93127063092E+02 0.  0.
        -11    1    1    2    0    0 -0.30383795206E+02  0.67725649905E+02  0.12019435590E+03  0.14126790809E+03  0.00000000000E+00 0. -1.
         11    1    1    2    0    0 -0.26956757759E+02 -0.32668416443E+02 -0.98000405638E+02  0.10676128384E+03  0.00000000000E+00 0.  1.
        -15    1    3    3    0    0  0.24634063964E+02  0.30807339031E+02  0.19965222513E+01  0.39535718985E+02  0.17770000000E+01 0. -1.
         15    1    3    3    0    0  0.32706489001E+02 -0.65864572492E+02 -0.24190472513E+02  0.77435089086E+02  0.17770000000E+01 0.  1.
</event>
<event>
 7    1  0.2809211E-007  0.1528122E+03  0.7546771E-02  0.1094898E+00
        -11   -1    0    0    0    0  0.00000000000E+00  0.00000000000E+00  0.18250000000E+03  0.18250000000E+03  0.00000000000E+00 0.  1.
         11   -1    0    0    0    0 -0.00000000000E+00 -0.00000000000E+00 -0.18250000000E+03  0.18250000000E+03  0.00000000000E+00 0. -1.
         23    2    1    2    0    0 -0.18883811058E+02  0.71753176318E+02  0.72055622975E+02  0.13638256083E+03  0.88899232077E+02 0.  0.
        -11    1    1    2    0    0 -0.72636364397E+02 -0.22752755807E+01  0.26382289451E+02  0.77312634857E+02  0.00000000000E+00 0.  1.
         11    1    1    2    0    0  0.91520175455E+02 -0.69477900738E+02 -0.98437912426E+02  0.15130480432E+03  0.00000000000E+00 0. -1.
        -15    1    3    3    0    0 -0.38271273486E+02 -0.45504361836E-01  0.39970575184E+02  0.55366931055E+02  0.17770000000E+01 0.  1.
         15    1    3    3    0    0  0.19387462428E+02  0.71798680680E+02  0.32085047791E+02  0.81015629773E+02  0.17770000000E+01 0. -1.
</event>
<event>
 7    1  0.2809211E-007  0.1220784E+03  0.7546771E-02  0.1130320E+00
        -11   -1    0    0    0    0  0.00000000000E+00  0.00000000000E+00  0.18250000000E+03  0.18250000000E+03  0.00000000000E+00 0.  1.
         11   -1    0    0    0    0 -0.00000000000E+00 -0.00000000000E+00 -0.18250000000E+03  0.18250000000E+03  0.00000000000E+00 0. -1.
         23    2    1    2    0    0 -0.48738792992E+02 -0.67459557387E+01  0.44060065926E+02  0.11206765884E+03  0.90536693597E+02 0.  0.
        -11    1    1    2    0    0  0.59274817124E+02 -0.27782865845E+02  0.91579517750E+02  0.11257086502E+03  0.00000000000E+00 0.  1.
         11    1    1    2    0    0 -0.10536024132E+02  0.34528821584E+02 -0.13563958368E+03  0.14036147614E+03  0.00000000000E+00 0. -1.
        -15    1    3    3    0    0 -0.34398273397E+02  0.84670795090E+01  0.70138060819E+02  0.78596679017E+02  0.17770000000E+01 0. -1.
         15    1    3    3    0    0 -0.14340519596E+02 -0.15213035248E+02 -0.26077994893E+02  0.33470979824E+02  0.17770000000E+01 0.  1.
</event>
<event>
 7    1  0.2809211E-007  0.1550754E+03  0.7546771E-02  0.1092657E+00
        -11   -1    0    0    0    0  0.00000000000E+00  0.00000000000E+00  0.18250000000E+03  0.18250000000E+03  0.00000000000E+00 0.  1.
         11   -1    0    0    0    0 -0.00000000000E+00 -0.00000000000E+00 -0.18250000000E+03  0.18250000000E+03  0.00000000000E+00 0. -1.
         23    2    1    2    0    0  0.37308747443E+02 -0.43354063155E+02 -0.79353615941E+02  0.13395830256E+03  0.91522199673E+02 0.  0.
        -11    1    1    2    0    0 -0.10395644937E+03  0.32685774619E+02  0.11182463207E+03  0.15614112708E+03  0.00000000000E+00 0.  1.
         11    1    1    2    0    0  0.66647701927E+02  0.10668288536E+02 -0.32471016128E+02  0.74900570364E+02  0.00000000000E+00 0. -1.
        -15    1    3    3    0    0  0.26808795553E+02  0.19918867287E+02 -0.56859136055E+02  0.65966596660E+02  0.17770000000E+01 0.  1.
         15    1    3    3    0    0  0.10499951891E+02 -0.63272930442E+02 -0.22494479886E+02  0.67991705897E+02  0.17770000000E+01 0. -1.
</event>
<event>
 7    1  0.2809211E-007  0.1515095E+03  0.7546771E-02  0.1096207E+00
        -11   -1    0    0    0    0  0.00000000000E+00  0.00000000000E+00  0.18250000000E+03  0.18250000000E+03  0.00000000000E+00 0.  1.
         11   -1    0    0    0    0 -0.00000000000E+00 -0.00000000000E+00 -0.18250000000E+03  0.18250000000E+03  0.00000000000E+00 0. -1.
         23    2    1    2    0    0  0.29090627403E+01 -0.55401741081E+02  0.70515973715E+02  0.12872867949E+03  0.92307934727E+02 0.  0.
        -11    1    1    2    0    0 -0.37196386140E+02  0.59422793490E+01  0.72172246726E+02  0.81410779527E+02  0.00000000000E+00 0.  1.
         11    1    1    2    0    0  0.34287323400E+02  0.49459461732E+02 -0.14268822044E+03  0.15486054098E+03  0.00000000000E+00 0. -1.
        -15    1    3    3    0    0 -0.17141761706E+02 -0.73836729418E+02  0.33890326372E+02  0.83050674628E+02  0.17770000000E+01 0. -1.
         15    1    3    3    0    0  0.20050824446E+02  0.18434988337E+02  0.36625647343E+02  0.45678004863E+02  0.17770000000E+01 0.  1.
</event>
<event>
 7    1  0.2809211E-007  0.1945956E+03  0.7546771E-02  0.1059215E+00
        -11   -1    0    0    0    0  0.00000000000E+00  0.00000000000E+00  0.18250000000E+03  0.18250000000E+03  0.00000000000E+00 0. -1.
         11   -1    0    0    0    0 -0.00000000000E+00 -0.00000000000E+00 -0.18250000000E+03  0.18250000000E+03  0.00000000000E+00 0.  1.
         23    2    1    2    0    0 -0.90492608086E+02  0.44033421938E+02 -0.12388459632E+03  0.19459563509E+03  0.11132031992E+03 0.  0.
        -11    1    1    2    0    0  0.65198050247E+02 -0.39306282335E+02  0.12300333339E+03  0.14465679940E+03  0.00000000000E+00 0. -1.
         11    1    1    2    0    0  0.25294557840E+02 -0.47271396026E+01  0.88126292639E+00  0.25747565506E+02  0.00000000000E+00 0.  1.
        -15    1    3    3    0    0  0.15404165483E+02 -0.19292523943E+02 -0.33421522919E+02  0.41589009576E+02  0.17770000000E+01 0. -1.
         15    1    3    3    0    0 -0.10589677357E+03  0.63325945880E+02 -0.90463073401E+02  0.15300662552E+03  0.17770000000E+01 0.  1.
</event>
<event>
 7    1  0.2809211E-007  0.1752064E+03  0.7546771E-02  0.1074413E+00
        -11   -1    0    0    0    0  0.00000000000E+00  0.00000000000E+00  0.18250000000E+03  0.18250000000E+03  0.00000000000E+00 0. -1.
         11   -1    0    0    0    0 -0.00000000000E+00 -0.00000000000E+00 -0.18250000000E+03  0.18250000000E+03  0.00000000000E+00 0.  1.
         23    2    1    2    0    0  0.11287750248E+02 -0.82217872322E+00  0.13647477260E+03  0.16472423075E+03  0.91545722762E+02 0.  0.
        -11    1    1    2    0    0  0.31440113140E+02 -0.92316027373E+01  0.19575577843E+02  0.38169443948E+02  0.00000000000E+00 0. -1.
         11    1    1    2    0    0 -0.42727863388E+02  0.10053781461E+02 -0.15605035044E+03  0.16210632531E+03  0.00000000000E+00 0.  1.
        -15    1    3    3    0    0 -0.17583716496E+02  0.35474288825E+02  0.33960499280E+02  0.52192772429E+02  0.17770000000E+01 0.  1.
         15    1    3    3    0    0  0.28871466744E+02 -0.36296467548E+02  0.10251427332E+03  0.11253145832E+03  0.17770000000E+01 0. -1.
</event>
<event>
 7    1  0.2809211E-007  0.1869640E+03  0.7546771E-02  0.1064956E+00
        -11   -1    0    0    0    0  0.00000000000E+00  0.00000000000E+00  0.18250000000E+03  0.18250000000E+03  0.00000000000E+00 0. -1.
         11   -1    0    0    0    0 -0.00000000000E+00 -0.00000000000E+00 -0.18250000000E+03  0.18250000000E+03  0.00000000000E+00 0.  1.
         23    2    1    2    0    0  0.45756682881E+01  0.42743774001E+02  0.15128004317E+03  0.18165114809E+03  0.90903911826E+02 0.  0.
        -11    1    1    2    0    0 -0.12433745679E+02 -0.41776211135E+02 -0.16326593197E+03  0.16898406550E+03  0.00000000000E+00 0.  1.
         11    1    1    2    0    0  0.78580773914E+01 -0.96756286617E+00  0.11985888801E+02  0.14364786408E+02  0.00000000000E+00 0. -1.
        -15    1    3    3    0    0 -0.43223038841E+01 -0.28422879283E+02  0.44418958292E+02  0.52940947879E+02  0.17770000000E+01 0.  1.
         15    1    3    3    0    0  0.88979721722E+01  0.71166653284E+02  0.10686108488E+03  0.12871020022E+03  0.17770000000E+01 0. -1.
</event>
<event>
 7    1  0.2809211E-007  0.1378015E+03  0.7546771E-02  0.1110923E+00
        -11   -1    0    0    0    0  0.00000000000E+00  0.00000000000E+00  0.18250000000E+03  0.18250000000E+03  0.00000000000E+00 0.  1.
         11   -1    0    0    0    0 -0.00000000000E+00 -0.00000000000E+00 -0.18250000000E+03  0.18250000000E+03  0.00000000000E+00 0. -1.
         23    2    1    2    0    0 -0.49561606102E+02  0.36948184722E+02  0.49538172898E+02  0.11967473303E+03  0.89702229615E+02 0.  0.
        -11    1    1    2    0    0  0.14199094280E+03 -0.15068671089E+02 -0.12351068176E+02  0.14332146235E+03  0.00000000000E+00 0.  1.
         11    1    1    2    0    0 -0.92429336698E+02 -0.21879513633E+02 -0.37187104722E+02  0.10200380462E+03  0.00000000000E+00 0. -1.
        -15    1    3    3    0    0  0.15849758692E+01 -0.26959692087E+02  0.12011423045E+02  0.29610288052E+02  0.17770000000E+01 0. -1.
         15    1    3    3    0    0 -0.51146581971E+02  0.63907876809E+02  0.37526749853E+02  0.90064444977E+02  0.17770000000E+01 0.  1.
</event>
<event>
 7    1  0.2809211E-007  0.2136444E+03  0.7546771E-02  0.1046055E+00
        -11   -1    0    0    0    0  0.00000000000E+00  0.00000000000E+00  0.18250000000E+03  0.18250000000E+03  0.00000000000E+00 0. -1.
         11   -1    0    0    0    0 -0.00000000000E+00 -0.00000000000E+00 -0.18250000000E+03  0.18250000000E+03  0.00000000000E+00 0.  1.
         23    2    1    2    0    0 -0.34896713116E+02 -0.11837427921E+02 -0.40580563923E+02  0.11241557830E+03  0.98145681469E+02 0.  0.
        -11    1    1    2    0    0  0.78951868006E+02  0.79130456443E+02  0.10204652551E+03  0.15135560765E+03  0.00000000000E+00 0. -1.
         11    1    1    2    0    0 -0.44055154890E+02 -0.67293028522E+02 -0.61465961584E+02  0.10122881405E+03  0.00000000000E+00 0.  1.
        -15    1    3    3    0    0 -0.65668840280E+02 -0.24445574546E+02 -0.18621625367E+02  0.72525204991E+02  0.17770000000E+01 0. -1.
         15    1    3    3    0    0  0.30772127165E+02  0.12608146625E+02 -0.21958938557E+02  0.39890373313E+02  0.17770000000E+01 0.  1.
</event>
<event>
 7    1  0.2809211E-007  0.1537274E+03  0.7546771E-02  0.1093987E+00
        -11   -1    0    0    0    0  0.00000000000E+00  0.00000000000E+00  0.18250000000E+03  0.18250000000E+03  0.00000000000E+00 0. -1.
         11   -1    0    0    0    0 -0.00000000000E+00 -0.00000000000E+00 -0.18250000000E+03  0.18250000000E+03  0.00000000000E+00 0.  1.
         23    2    1    2    0    0 -0.10627661679E+02  0.79580146433E+02  0.63739650637E+02  0.13833921226E+03  0.92892667555E+02 0.  0.
        -11    1    1    2    0    0 -0.14025701452E+02 -0.25254440420E+02  0.72439559870E+02  0.77987158535E+02  0.00000000000E+00 0. -1.
         11    1    1    2    0    0  0.24653363131E+02 -0.54325706013E+02 -0.13617921051E+03  0.14867362921E+03  0.00000000000E+00 0.  1.
        -15    1    3    3    0    0  0.81727709181E+01  0.49926389994E+02  0.83769764461E+02  0.97877319994E+02  0.17770000000E+01 0. -1.
         15    1    3    3    0    0 -0.18800432597E+02  0.29653756439E+02 -0.20030113824E+02  0.40461892264E+02  0.17770000000E+01 0.  1.
</event>
<event>
 7    1  0.2809211E-007  0.1415830E+03  0.7546771E-02  0.1106681E+00
        -11   -1    0    0    0    0  0.00000000000E+00  0.00000000000E+00  0.18250000000E+03  0.18250000000E+03  0.00000000000E+00 0. -1.
         11   -1    0    0    0    0 -0.00000000000E+00 -0.00000000000E+00 -0.18250000000E+03  0.18250000000E+03  0.00000000000E+00 0. -1.
         23    2    1    2    0    0  0.86871624165E+01  0.88702327219E+02 -0.24389868505E+02  0.12966742278E+03  0.90968154862E+02 0.  0.
        -11    1    1    2    0    0 -0.70373890022E+02  0.30315327326E+02  0.59202631706E+02  0.96832097305E+02  0.00000000000E+00 0. -1.
         11    1    1    2    0    0  0.61686727605E+02 -0.11901765454E+03 -0.34812763201E+02  0.13850047992E+03  0.00000000000E+00 0. -1.
        -15    1    3    3    0    0 -0.38378683738E+02  0.60601758214E+02 -0.68239251841E+01  0.72077875579E+02  0.17770000000E+01 0. -1.
         15    1    3    3    0    0  0.47065846155E+02  0.28100569005E+02 -0.17565943321E+02  0.57589547197E+02  0.17770000000E+01 0.  1.
</event>
<event>
 7    1  0.2809211E-007  0.1601964E+03  0.7546771E-02  0.1087740E+00
        -11   -1    0    0    0    0  0.00000000000E+00  0.00000000000E+00  0.18250000000E+03  0.18250000000E+03  0.00000000000E+00 0. -1.
         11   -1    0    0    0    0 -0.00000000000E+00 -0.00000000000E+00 -0.18250000000E+03  0.18250000000E+03  0.00000000000E+00 0.  1.
         23    2    1    2    0    0 -0.63468390462E+02  0.77886649068E+02 -0.98427253723E+01  0.13550227647E+03  0.90384849372E+02 0.  0.
        -11    1    1    2    0    0  0.10021587376E+03 -0.12472513119E+03  0.36751738323E+02  0.16416537385E+03  0.00000000000E+00 0.  1.
         11    1    1    2    0    0 -0.36747483295E+02  0.46838482119E+02 -0.26909012951E+02  0.65332349672E+02  0.00000000000E+00 0. -1.
        -15    1    3    3    0    0  0.18973394575E+02 -0.31027904582E+01 -0.43438562629E+01  0.19789993092E+02  0.17770000000E+01 0.  1.
         15    1    3    3    0    0 -0.82441785038E+02  0.80989439527E+02 -0.54988691093E+01  0.11571228338E+03  0.17770000000E+01 0. -1.
</event>
<event>
 7    1  0.2809211E-007  0.1757992E+03  0.7546771E-02  0.1073917E+00
        -11   -1    0    0    0    0  0.00000000000E+00  0.00000000000E+00  0.18250000000E+03  0.18250000000E+03  0.00000000000E+00 0.  1.
         11   -1    0    0    0    0 -0.00000000000E+00 -0.00000000000E+00 -0.18250000000E+03  0.18250000000E+03  0.00000000000E+00 0. -1.
         23    2    1    2    0    0  0.78178768127E+01  0.15923099735E+02  0.15804437943E+03  0.18422267143E+03  0.92980118813E+02 0.  0.
        -11    1    1    2    0    0  0.26173624058E+02 -0.19369491968E+02 -0.19220249190E+02  0.37810762943E+02  0.00000000000E+00 0.  1.
         11    1    1    2    0    0 -0.33991500871E+02  0.34463922329E+01 -0.13882413024E+03  0.14296656563E+03  0.00000000000E+00 0. -1.
        -15    1    3    3    0    0  0.10472618700E+02  0.51218212910E+02  0.12607018155E+03  0.13649113335E+03  0.17770000000E+01 0.  1.
         15    1    3    3    0    0 -0.26547418873E+01 -0.35295113175E+02  0.31974197878E+02  0.47731538080E+02  0.17770000000E+01 0. -1.
</event>
<event>
 7    1  0.4852984E-007  0.1675233E+03  0.7546771E-02  0.1081043E+00
        -11   -1    0    0    0    0  0.00000000000E+00  0.00000000000E+00  0.18250000000E+03  0.18250000000E+03  0.00000000000E+00 0. -1.
         11   -1    0    0    0    0 -0.00000000000E+00 -0.00000000000E+00 -0.18250000000E+03  0.18250000000E+03  0.00000000000E+00 0.  1.
         23    2    1    2    0    0 -0.92898249687E+01 -0.25597192012E+02 -0.12038203715E+03  0.15337866536E+03  0.91058569249E+02 0.  0.
        -11    1    1    2    0    0  0.27810038037E+02  0.70578232235E+02  0.13995076555E+03  0.15918825917E+03  0.00000000000E+00 0. -1.
         11    1    1    2    0    0 -0.18520213068E+02 -0.44981040223E+02 -0.19568728401E+02  0.52433075466E+02  0.00000000000E+00 0.  1.
        -15    1    3    3    0    0  0.30350775524E+02 -0.41788558822E+02 -0.57860250888E+02  0.77578473723E+02  0.17770000000E+01 0. -1.
         15    1    3    3    0    0 -0.39640600492E+02  0.16191366810E+02 -0.62521786258E+02  0.75800191638E+02  0.17770000000E+01 0.  1.
</event>
<event>
 7    1  0.2809211E-007  0.1329208E+03  0.7546771E-02  0.1116625E+00
        -11   -1    0    0    0    0  0.00000000000E+00  0.00000000000E+00  0.18250000000E+03  0.18250000000E+03  0.00000000000E+00 0. -1.
         11   -1    0    0    0    0 -0.00000000000E+00 -0.00000000000E+00 -0.18250000000E+03  0.18250000000E+03  0.00000000000E+00 0.  1.
         23    2    1    2    0    0  0.10872742569E+02 -0.26041369081E+01 -0.29257387271E+02  0.97319685121E+02  0.92141892438E+02 0.  0.
        -11    1    1    2    0    0  0.11958378474E+03  0.66464987290E+01  0.59454503727E+02  0.13371348298E+03  0.00000000000E+00 0. -1.
         11    1    1    2    0    0 -0.13045652731E+03 -0.40423618209E+01 -0.30197116456E+02  0.13396683190E+03  0.00000000000E+00 0.  1.
        -15    1    3    3    0    0 -0.28069495939E+02 -0.30476846091E+02 -0.26712257674E+02  0.49329881299E+02  0.17770000000E+01 0.  1.
         15    1    3    3    0    0  0.38942238508E+02  0.27872709183E+02 -0.25451295976E+01  0.47989803822E+02  0.17770000000E+01 0. -1.
</event>
<event>
 7    1  0.2809211E-007  0.1709765E+03  0.7546771E-02  0.1078016E+00
        -11   -1    0    0    0    0  0.00000000000E+00  0.00000000000E+00  0.18250000000E+03  0.18250000000E+03  0.00000000000E+00 0. -1.
         11   -1    0    0    0    0 -0.00000000000E+00 -0.00000000000E+00 -0.18250000000E+03  0.18250000000E+03  0.00000000000E+00 0.  1.
         23    2    1    2    0    0 -0.54647700564E+02  0.11383312335E+02  0.14191130209E+03  0.17757411979E+03  0.90982412479E+02 0.  0.
        -11    1    1    2    0    0  0.33618931969E+02 -0.31123982303E+02 -0.33963464668E+01  0.45939852312E+02  0.00000000000E+00 0. -1.
         11    1    1    2    0    0  0.21028768595E+02  0.19740669968E+02 -0.13851495562E+03  0.14148602790E+03  0.00000000000E+00 0.  1.
        -15    1    3    3    0    0 -0.67881908518E+02 -0.34394423343E+01  0.52330710474E+02  0.85798859289E+02  0.17770000000E+01 0.  1.
         15    1    3    3    0    0  0.13234207954E+02  0.14822754669E+02  0.89580591617E+02  0.91775260498E+02  0.17770000000E+01 0. -1.
</event>
<event>
 7    1  0.2809211E-007  0.2165595E+03  0.7546771E-02  0.1044173E+00
        -11   -1    0    0    0    0  0.00000000000E+00  0.00000000000E+00  0.18250000000E+03  0.18250000000E+03  0.00000000000E+00 0. -1.
         11   -1    0    0    0    0 -0.00000000000E+00 -0.00000000000E+00 -0.18250000000E+03  0.18250000000E+03  0.00000000000E+00 0. -1.
         23    2    1    2    0    0  0.15177874402E+02  0.36044549275E+02 -0.42755923881E+02  0.10634650923E+03  0.89173614907E+02 0.  0.
        -11    1    1    2    0    0  0.36592381450E+01 -0.96207780696E+01  0.14808323402E+03  0.14844053891E+03  0.00000000000E+00 0. -1.
         11    1    1    2    0    0 -0.18837112547E+02 -0.26423771206E+02 -0.10532731014E+03  0.11021295185E+03  0.00000000000E+00 0. -1.
        -15    1    3    3    0    0  0.34711277538E+02 -0.13361064844E+01 -0.52543211479E+02  0.63012734986E+02  0.17770000000E+01 0.  1.
         15    1    3    3    0    0 -0.19533403136E+02  0.37380655760E+02  0.97872875979E+01  0.43333774248E+02  0.17770000000E+01 0. -1.
</event>
<event>
 7    1  0.2809211E-007  0.1684981E+03  0.7546771E-02  0.1080181E+00
        -11   -1    0    0    0    0  0.00000000000E+00  0.00000000000E+00  0.18250000000E+03  0.18250000000E+03  0.00000000000E+00 0.  1.
         11   -1    0    0    0    0 -0.00000000000E+00 -0.00000000000E+00 -0.18250000000E+03  0.18250000000E+03  0.00000000000E+00 0. -1.
         23    2    1    2    0    0  0.51059853275E+02  0.44216988242E+02  0.13963269382E+03  0.17995112281E+03  0.91229747081E+02 0.  0.
        -11    1    1    2    0    0 -0.47965699754E+02  0.63348723279E+01 -0.15215561333E+02  0.50718362227E+02  0.00000000000E+00 0.  1.
         11    1    1    2    0    0 -0.30941535208E+01 -0.50551860570E+02 -0.12441713249E+03  0.13433051496E+03  0.00000000000E+00 0. -1.
        -15    1    3    3    0    0  0.70571179654E+01 -0.15551851732E+02  0.87661052399E+02  0.89326820401E+02  0.17770000000E+01 0.  1.
         15    1    3    3    0    0  0.44002735310E+02  0.59768839974E+02  0.51971641422E+02  0.90624302412E+02  0.17770000000E+01 0. -1.
</event>
<event>
 7    1  0.2809211E-007  0.1658963E+03  0.7546771E-02  0.1082498E+00
        -11   -1    0    0    0    0  0.00000000000E+00  0.00000000000E+00  0.18250000000E+03  0.18250000000E+03  0.00000000000E+00 0.  1.
         11   -1    0    0    0    0 -0.00000000000E+00 -0.00000000000E+00 -0.18250000000E+03  0.18250000000E+03  0.00000000000E+00 0. -1.
         23    2    1    2    0    0  0.47089129511E+02  0.16075425606E+02  0.13314614340E+03  0.16923080954E+03  0.91844248419E+02 0.  0.
        -11    1    1    2    0    0 -0.25763211257E+02  0.48372606866E+02 -0.10811661164E+02  0.55861831033E+02  0.00000000000E+00 0.  1.
         11    1    1    2    0    0 -0.21325918254E+02 -0.64448032471E+02 -0.12233448224E+03  0.13990735943E+03  0.00000000000E+00 0. -1.
        -15    1    3    3    0    0 -0.21168641090E+02 -0.85202802704E+01  0.74197071640E+01  0.24060680059E+02  0.17770000000E+01 0. -1.
         15    1    3    3    0    0  0.68257770601E+02  0.24595705876E+02  0.12572643624E+03  0.14517012948E+03  0.17770000000E+01 0.  1.
</event>
<event>
 7    1  0.2809211E-007  0.1854642E+03  0.7546771E-02  0.1066119E+00
        -11   -1    0    0    0    0  0.00000000000E+00  0.00000000000E+00  0.18250000000E+03  0.18250000000E+03  0.00000000000E+00 0.  1.
         11   -1    0    0    0    0 -0.00000000000E+00 -0.00000000000E+00 -0.18250000000E+03  0.18250000000E+03  0.00000000000E+00 0. -1.
         23    2    1    2    0    0  0.38652115979E+02  0.75434677114E+01  0.15776202989E+03  0.18546419716E+03  0.89203253180E+02 0.  0.
        -11    1    1    2    0    0  0.17953701778E+01 -0.35659588214E+02 -0.78088631742E+02  0.85864218351E+02  0.00000000000E+00 0. -1.
         11    1    1    2    0    0 -0.40447486156E+02  0.28116120503E+02 -0.79673398147E+02  0.93671584490E+02  0.00000000000E+00 0.  1.
        -15    1    3    3    0    0  0.46008350565E+02 -0.14697419187E+02  0.15433079457E+03  0.16172178064E+03  0.17770000000E+01 0.  1.
         15    1    3    3    0    0 -0.73562345865E+01  0.22240886899E+02  0.34312353231E+01  0.23742416519E+02  0.17770000000E+01 0. -1.
</event>
<event>
 7    1  0.2809211E-007  0.1587817E+03  0.7546771E-02  0.1089078E+00
        -11   -1    0    0    0    0  0.00000000000E+00  0.00000000000E+00  0.18250000000E+03  0.18250000000E+03  0.00000000000E+00 0.  1.
         11   -1    0    0    0    0 -0.00000000000E+00 -0.00000000000E+00 -0.18250000000E+03  0.18250000000E+03  0.00000000000E+00 0. -1.
         23    2    1    2    0    0 -0.28067053682E+02  0.95659307228E+02 -0.51988120545E+02  0.14548206712E+03  0.92324452963E+02 0.  0.
        -11    1    1    2    0    0  0.87286402215E+02 -0.87348892537E+02  0.86225600730E+02  0.15061075413E+03  0.00000000000E+00 0.  1.
         11    1    1    2    0    0 -0.59219348533E+02 -0.83104146908E+01 -0.34237480185E+02  0.68907178744E+02  0.00000000000E+00 0. -1.
        -15    1    3    3    0    0  0.26114291937E+02  0.33462194651E+02 -0.46214351870E+02  0.62774188661E+02  0.17770000000E+01 0.  1.
         15    1    3    3    0    0 -0.54181345619E+02  0.62197112577E+02 -0.57737686744E+01  0.82707878462E+02  0.17770000000E+01 0. -1.
</event>
<event>
 7    1  0.2809211E-007  0.1632486E+03  0.7546771E-02  0.1084903E+00
        -11   -1    0    0    0    0  0.00000000000E+00  0.00000000000E+00  0.18250000000E+03  0.18250000000E+03  0.00000000000E+00 0. -1.
         11   -1    0    0    0    0 -0.00000000000E+00 -0.00000000000E+00 -0.18250000000E+03  0.18250000000E+03  0.00000000000E+00 0.  1.
         23    2    1    2    0    0 -0.55986450880E+02 -0.11615515870E+02  0.10190335737E+03  0.14828621233E+03  0.91296788727E+02 0.  0.
        -11    1    1    2    0    0 -0.18157402687E+02 -0.54400398951E+02  0.18870355155E+02  0.60375367345E+02  0.00000000000E+00 0. -1.
         11    1    1    2    0    0  0.74143853568E+02  0.66015914821E+02 -0.12077371253E+03  0.15633842032E+03  0.00000000000E+00 0.  1.
        -15    1    3    3    0    0  0.21368926257E+02 -0.19861731160E+02  0.20681198952E+02  0.35804875271E+02  0.17770000000E+01 0. -1.
         15    1    3    3    0    0 -0.77355377138E+02  0.82462152904E+01  0.81222158423E+02  0.11248133706E+03  0.17770000000E+01 0.  1.
</event>
<event>
 7    1  0.2809211E-007  0.2188060E+03  0.7546771E-02  0.1042745E+00
        -11   -1    0    0    0    0  0.00000000000E+00  0.00000000000E+00  0.18250000000E+03  0.18250000000E+03  0.00000000000E+00 0.  1.
         11   -1    0    0    0    0 -0.00000000000E+00 -0.00000000000E+00 -0.18250000000E+03  0.18250000000E+03  0.00000000000E+00 0. -1.
         23    2    1    2    0    0 -0.14159644345E+01  0.20931510571E+02 -0.28607839726E+02  0.98433418617E+02  0.91818278773E+02 0.  0.
        -11    1    1    2    0    0  0.92874938200E+02 -0.81699920914E+02  0.77923350468E+02  0.14619397994E+03  0.00000000000E+00 0.  1.
         11    1    1    2    0    0 -0.91458973765E+02  0.60768410343E+02 -0.49315510742E+02  0.12037260144E+03  0.00000000000E+00 0. -1.
        -15    1    3    3    0    0  0.20008050496E+02  0.36396533567E+02  0.17624802547E+02  0.45153307013E+02  0.17770000000E+01 0.  1.
         15    1    3    3    0    0 -0.21424014930E+02 -0.15465022997E+02 -0.46232642274E+02  0.53280111605E+02  0.17770000000E+01 0. -1.
</event>
<event>
 7    1  0.2809211E-007  0.1849782E+03  0.7546771E-02  0.1066499E+00
        -11   -1    0    0    0    0  0.00000000000E+00  0.00000000000E+00  0.18250000000E+03  0.18250000000E+03  0.00000000000E+00 0. -1.
         11   -1    0    0    0    0 -0.00000000000E+00 -0.00000000000E+00 -0.18250000000E+03  0.18250000000E+03  0.00000000000E+00 0. -1.
         23    2    1    2    0    0  0.37309910421E+02 -0.83353438894E+01  0.15603169674E+03  0.18497817116E+03  0.91703468014E+02 0.  0.
        -11    1    1    2    0    0 -0.11070398378E+02  0.41701561934E+02 -0.51404419502E+02  0.67111760015E+02  0.00000000000E+00 0. -1.
         11    1    1    2    0    0 -0.26239512043E+02 -0.33366218045E+02 -0.10462727724E+03  0.11291006882E+03  0.00000000000E+00 0. -1.
        -15    1    3    3    0    0  0.11147584404E+02  0.20437168816E+02  0.14151872597E+03  0.14343170513E+03  0.17770000000E+01 0. -1.
         15    1    3    3    0    0  0.26162326018E+02 -0.28772512706E+02  0.14512970766E+02  0.41546466029E+02  0.17770000000E+01 0.  1.
</event>
<event>
 7    1  0.2809211E-007  0.1569235E+03  0.7546771E-02  0.1090859E+00
        -11   -1    0    0    0    0  0.00000000000E+00  0.00000000000E+00  0.18250000000E+03  0.18250000000E+03  0.00000000000E+00 0. -1.
         11   -1    0    0    0    0 -0.00000000000E+00 -0.00000000000E+00 -0.18250000000E+03  0.18250000000E+03  0.00000000000E+00 0. -1.
         23    2    1    2    0    0  0.76671765861E+02 -0.85253795474E+02  0.64693740620E+02  0.15914950880E+03  0.89423245042E+02 0.  0.
        -11    1    1    2    0    0 -0.10867530844E+03  0.80574635542E+02 -0.19960884096E+01  0.13530180681E+03  0.00000000000E+00 0. -1.
         11    1    1    2    0    0  0.32003542582E+02  0.46791599323E+01 -0.62697652211E+02  0.70548684384E+02  0.00000000000E+00 0. -1.
        -15    1    3    3    0    0  0.10729707660E+02 -0.31507015508E+02 -0.20182473404E+02  0.38965479779E+02  0.17770000000E+01 0.  1.
         15    1    3    3    0    0  0.65942058201E+02 -0.53746779965E+02  0.84876214024E+02  0.12018402902E+03  0.17770000000E+01 0. -1.
</event>
<event>
 7    1  0.2809211E-007  0.1636959E+03  0.7546771E-02  0.1084493E+00
        -11   -1    0    0    0    0  0.00000000000E+00  0.00000000000E+00  0.18250000000E+03  0.18250000000E+03  0.00000000000E+00 0.  1.
         11   -1    0    0    0    0 -0.00000000000E+00 -0.00000000000E+00 -0.18250000000E+03  0.18250000000E+03  0.00000000000E+00 0. -1.
         23    2    1    2    0    0 -0.97893829847E+02 -0.56691426472E+02  0.11015638140E+03  0.18310892785E+03  0.92721795370E+02 0.  0.
        -11    1    1    2    0    0  0.17897326269E+02 -0.16482128346E+02 -0.55239784897E+02  0.60360655048E+02  0.00000000000E+00 0.  1.
         11    1    1    2    0    0  0.79996503579E+02  0.73173554817E+02 -0.54916596506E+02  0.12153041710E+03  0.00000000000E+00 0. -1.
        -15    1    3    3    0    0 -0.20012841674E+02 -0.50375484528E+02  0.85248033550E+01  0.54900211971E+02  0.17770000000E+01 0. -1.
         15    1    3    3    0    0 -0.77880988174E+02 -0.63159419439E+01  0.10163157805E+03  0.12820871588E+03  0.17770000000E+01 0.  1.
</event>
<event>
 7    1  0.2809211E-007  0.1523034E+03  0.7546771E-02  0.1095407E+00
        -11   -1    0    0    0    0  0.00000000000E+00  0.00000000000E+00  0.18250000000E+03  0.18250000000E+03  0.00000000000E+00 0.  1.
         11   -1    0    0    0    0 -0.00000000000E+00 -0.00000000000E+00 -0.18250000000E+03  0.18250000000E+03  0.00000000000E+00 0. -1.
         23    2    1    2    0    0 -0.79765692042E+01  0.20363266493E+02  0.10945901880E+03  0.14343908098E+03  0.90084431929E+02 0.  0.
        -11    1    1    2    0    0  0.76733846872E+02 -0.97258881177E+01  0.15174850114E+02  0.78822282582E+02  0.00000000000E+00 0.  1.
         11    1    1    2    0    0 -0.68757277668E+02 -0.10637378376E+02 -0.12463386892E+03  0.14273863644E+03  0.00000000000E+00 0. -1.
        -15    1    3    3    0    0 -0.21611907031E+02 -0.18727217479E+01 -0.79366750259E+01  0.23167437315E+02  0.17770000000E+01 0. -1.
         15    1    3    3    0    0  0.13635337827E+02  0.22235988241E+02  0.11739569383E+03  0.12027164366E+03  0.17770000000E+01 0.  1.
</event>
<event>
 7    1  0.2809211E-007  0.1624974E+03  0.7546771E-02  0.1085595E+00
        -11   -1    0    0    0    0  0.00000000000E+00  0.00000000000E+00  0.18250000000E+03  0.18250000000E+03  0.00000000000E+00 0. -1.
         11   -1    0    0    0    0 -0.00000000000E+00 -0.00000000000E+00 -0.18250000000E+03  0.18250000000E+03  0.00000000000E+00 0.  1.
         23    2    1    2    0    0  0.81428233786E+02  0.11879885245E+03 -0.61490040066E+02  0.17506710761E+03  0.78254345159E+02 0.  0.
        -11    1    1    2    0    0 -0.51810348780E+02 -0.83732290155E+02  0.92048792631E+02  0.13479016611E+03  0.00000000000E+00 0. -1.
         11    1    1    2    0    0 -0.29617885006E+02 -0.35066562298E+02 -0.30558752565E+02  0.55142726284E+02  0.00000000000E+00 0.  1.
        -15    1    3    3    0    0  0.35832308228E+02  0.11091846168E+03 -0.52697414363E+02  0.12793371199E+03  0.17770000000E+01 0.  1.
         15    1    3    3    0    0  0.45595925558E+02  0.78803907718E+01 -0.87926257025E+01  0.47133395612E+02  0.17770000000E+01 0. -1.
</event>
<event>
 7    1  0.2809211E-007  0.2243907E+03  0.7546771E-02  0.1039273E+00
        -11   -1    0    0    0    0  0.00000000000E+00  0.00000000000E+00  0.18250000000E+03  0.18250000000E+03  0.00000000000E+00 0. -1.
         11   -1    0    0    0    0 -0.00000000000E+00 -0.00000000000E+00 -0.18250000000E+03  0.18250000000E+03  0.00000000000E+00 0.  1.
         23    2    1    2    0    0  0.19328979048E+01  0.83037444270E+01  0.23877348510E+01  0.89011966358E+02  0.88570540313E+02 0.  0.
        -11    1    1    2    0    0  0.42846987302E+02 -0.11918089243E+03  0.61082117492E+02  0.14060929741E+03  0.00000000000E+00 0. -1.
         11    1    1    2    0    0 -0.44779885207E+02  0.11087714800E+03 -0.63469852343E+02  0.13537873623E+03  0.00000000000E+00 0.  1.
        -15    1    3    3    0    0 -0.17301696860E+02  0.14686348939E+02 -0.37710328081E+02  0.44048429397E+02  0.17770000000E+01 0.  1.
         15    1    3    3    0    0  0.19234594765E+02 -0.63826045125E+01  0.40098062932E+02  0.44963536961E+02  0.17770000000E+01 0. -1.
</event>
<event>
 7    1  0.2809211E-007  0.1696533E+03  0.7546771E-02  0.1079167E+00
        -11   -1    0    0    0    0  0.00000000000E+00  0.00000000000E+00  0.18250000000E+03  0.18250000000E+03  0.00000000000E+00 0.  1.
         11   -1    0    0    0    0 -0.00000000000E+00 -0.00000000000E+00 -0.18250000000E+03  0.18250000000E+03  0.00000000000E+00 0.  1.
         23    2    1    2    0    0 -0.14217294328E+02 -0.18575979831E+02  0.15308280318E+03  0.18439632592E+03  0.10010225722E+03 0.  0.
        -11    1    1    2    0    0 -0.23527743188E+02  0.35172148102E+02 -0.33069965090E+02  0.53705281795E+02  0.00000000000E+00 0.  1.
         11    1    1    2    0    0  0.37745037516E+02 -0.16596168271E+02 -0.12001283809E+03  0.12689839228E+03  0.00000000000E+00 0.  1.
        -15    1    3    3    0    0  0.17822854320E+02 -0.15967984907E+02  0.15016397853E+03  0.15206909237E+03  0.17770000000E+01 0.  1.
         15    1    3    3    0    0 -0.32040148648E+02 -0.26079949246E+01  0.29188246512E+01  0.32327233554E+02  0.17770000000E+01 0. -1.
</event>
<event>
 7    1  0.2809211E-007  0.1751771E+03  0.7546771E-02  0.1074438E+00
        -11   -1    0    0    0    0  0.00000000000E+00  0.00000000000E+00  0.18250000000E+03  0.18250000000E+03  0.00000000000E+00 0.  1.
         11   -1    0    0    0    0 -0.00000000000E+00 -0.00000000000E+00 -0.18250000000E+03  0.18250000000E+03  0.00000000000E+00 0.  1.
         23    2    1    2    0    0 -0.14206853537E+02 -0.14188071239E+02 -0.13980230187E+03  0.16271525828E+03  0.80798735233E+02 0.  0.
        -11    1    1    2    0    0  0.25255062701E+02  0.83837871263E+00  0.16761852248E+03  0.16951250736E+03  0.00000000000E+00 0.  1.
         11    1    1    2    0    0 -0.11048209164E+02  0.13349692526E+02 -0.27816220608E+02  0.32772234364E+02  0.00000000000E+00 0.  1.
        -15    1    3    3    0    0 -0.33681552941E+02 -0.19268298921E+02 -0.25102308119E+02  0.46249302197E+02  0.17770000000E+01 0. -1.
         15    1    3    3    0    0  0.19474699404E+02  0.50802276820E+01 -0.11469999375E+03  0.11646595608E+03  0.17770000000E+01 0.  1.
</event>
<event>
 7    1  0.2809211E-007  0.1179277E+03  0.7546771E-02  0.1135986E+00
        -11   -1    0    0    0    0  0.00000000000E+00  0.00000000000E+00  0.18250000000E+03  0.18250000000E+03  0.00000000000E+00 0.  1.
         11   -1    0    0    0    0 -0.00000000000E+00 -0.00000000000E+00 -0.18250000000E+03  0.18250000000E+03  0.00000000000E+00 0.  1.
         23    2    1    2    0    0 -0.38848435283E+02 -0.91302094848E+01  0.63455612657E+02  0.11751882651E+03  0.90506895637E+02 0.  0.
        -11    1    1    2    0    0  0.88449509854E+02  0.70803222424E+02  0.37371100434E+02  0.11930218458E+03  0.00000000000E+00 0.  1.
         11    1    1    2    0    0 -0.49601074572E+02 -0.61673012939E+02 -0.10082671309E+03  0.12817898890E+03  0.00000000000E+00 0.  1.
        -15    1    3    3    0    0  0.14833716970E+02 -0.35752921178E+02  0.28752766970E+02  0.48251319871E+02  0.17770000000E+01 0. -1.
         15    1    3    3    0    0 -0.53682152253E+02  0.26622711693E+02  0.34702845687E+02  0.69267506640E+02  0.17770000000E+01 0.  1.
</event>
<event>
 7    1  0.2809211E-007  0.1551221E+03  0.7546771E-02  0.1092612E+00
        -11   -1    0    0    0    0  0.00000000000E+00  0.00000000000E+00  0.18250000000E+03  0.18250000000E+03  0.00000000000E+00 0.  1.
         11   -1    0    0    0    0 -0.00000000000E+00 -0.00000000000E+00 -0.18250000000E+03  0.18250000000E+03  0.00000000000E+00 0. -1.
         23    2    1    2    0    0 -0.33070313809E+02  0.11297736006E+02  0.11720049251E+03  0.15347951230E+03  0.92729287473E+02 0.  0.
        -11    1    1    2    0    0 -0.34820277664E+02 -0.65782578767E+02 -0.12687889074E+02  0.75503522666E+02  0.00000000000E+00 0.  1.
         11    1    1    2    0    0  0.67890591473E+02  0.54484842760E+02 -0.10451260344E+03  0.13601696504E+03  0.00000000000E+00 0. -1.
        -15    1    3    3    0    0 -0.17602232584E+02  0.11880793761E+02 -0.11242839335E+02  0.24094626323E+02  0.17770000000E+01 0. -1.
         15    1    3    3    0    0 -0.15468081225E+02 -0.58305775443E+00  0.12844333185E+03  0.12938488597E+03  0.17770000000E+01 0.  1.
</event>
<event>
 7    1  0.2809211E-007  0.1714172E+03  0.7546771E-02  0.1077636E+00
        -11   -1    0    0    0    0  0.00000000000E+00  0.00000000000E+00  0.18250000000E+03  0.18250000000E+03  0.00000000000E+00 0. -1.
         11   -1    0    0    0    0 -0.00000000000E+00 -0.00000000000E+00 -0.18250000000E+03  0.18250000000E+03  0.00000000000E+00 0. -1.
         23    2    1    2    0    0  0.42044756732E+01 -0.84261210601E+02  0.11997921473E+03  0.17208501367E+03  0.90003392906E+02 0.  0.
        -11    1    1    2    0    0  0.79021618786E-01 -0.33306811165E+02 -0.29629852441E+02  0.44578897139E+02  0.00000000000E+00 0. -1.
         11    1    1    2    0    0 -0.42834972920E+01  0.11756802177E+03 -0.90349362288E+02  0.14833608919E+03  0.00000000000E+00 0. -1.
        -15    1    3    3    0    0  0.30491343075E+02 -0.76230856211E+01  0.57068059690E+01  0.31993105511E+02  0.17770000000E+01 0.  1.
         15    1    3    3    0    0 -0.26286867402E+02 -0.76638124980E+02  0.11427240876E+03  0.14009190816E+03  0.17770000000E+01 0. -1.
</event>
<event>
 7    1  0.2809211E-007  0.1382436E+03  0.7546771E-02  0.1110419E+00
        -11   -1    0    0    0    0  0.00000000000E+00  0.00000000000E+00  0.18250000000E+03  0.18250000000E+03  0.00000000000E+00 0.  1.
         11   -1    0    0    0    0 -0.00000000000E+00 -0.00000000000E+00 -0.18250000000E+03  0.18250000000E+03  0.00000000000E+00 0. -1.
         23    2    1    2    0    0  0.61843123002E+02 -0.87519397482E+01  0.43513373440E+02  0.11454506843E+03  0.85592001498E+02 0.  0.
        -11    1    1    2    0    0  0.11344722763E+02  0.57911924439E+02  0.79562281636E+02  0.99058822857E+02  0.00000000000E+00 0.  1.
         11    1    1    2    0    0 -0.73187845765E+02 -0.49159984691E+02 -0.12307565508E+03  0.15139610872E+03  0.00000000000E+00 0. -1.
        -15    1    3    3    0    0 -0.21384350033E+02 -0.73100882344E+01  0.81952722532E+01  0.24104937930E+02  0.17770000000E+01 0.  1.
         15    1    3    3    0    0  0.83227473035E+02 -0.14418515138E+01  0.35318101186E+02  0.90440130495E+02  0.17770000000E+01 0. -1.
</event>
<event>
 7    1  0.2809211E-007  0.1569296E+03  0.7546771E-02  0.1090853E+00
        -11   -1    0    0    0    0  0.00000000000E+00  0.00000000000E+00  0.18250000000E+03  0.18250000000E+03  0.00000000000E+00 0.  1.
         11   -1    0    0    0    0 -0.00000000000E+00 -0.00000000000E+00 -0.18250000000E+03  0.18250000000E+03  0.00000000000E+00 0. -1.
         23    2    1    2    0    0  0.61713029314E+02  0.26876337043E+02 -0.68105800161E+02  0.13292064832E+03  0.92188194770E+02 0.  0.
        -11    1    1    2    0    0 -0.13072999050E+03 -0.42288076237E+02  0.82003393640E+02  0.16000990087E+03  0.00000000000E+00 0.  1.
         11    1    1    2    0    0  0.69016961182E+02  0.15411739194E+02 -0.13897593479E+02  0.72069450811E+02  0.00000000000E+00 0. -1.
        -15    1    3    3    0    0  0.43875793664E+02 -0.21526525415E+02 -0.64822336231E+02  0.81200797838E+02  0.17770000000E+01 0.  1.
         15    1    3    3    0    0  0.17837235650E+02  0.48402862458E+02 -0.32834639295E+01  0.51719850485E+02  0.17770000000E+01 0. -1.
</event>
<event>
 7    1  0.2809211E-007  0.1606255E+03  0.7546771E-02  0.1087337E+00
        -11   -1    0    0    0    0  0.00000000000E+00  0.00000000000E+00  0.18250000000E+03  0.18250000000E+03  0.00000000000E+00 0.  1.
         11   -1    0    0    0    0 -0.00000000000E+00 -0.00000000000E+00 -0.18250000000E+03  0.18250000000E+03  0.00000000000E+00 0. -1.
         23    2    1    2    0    0 -0.61870307977E+01  0.76240877225E+02 -0.40901698103E+02  0.14101750001E+03  0.11118469180E+03 0.  0.
        -11    1    1    2    0    0 -0.34932886570E+02 -0.97351114133E+02  0.10339911028E+03  0.14624951963E+03  0.00000000000E+00 0.  1.
         11    1    1    2    0    0  0.41119917368E+02  0.21110236907E+02 -0.62497412174E+02  0.77732980356E+02  0.00000000000E+00 0. -1.
        -15    1    3    3    0    0 -0.96609476893E+01  0.10276264656E+03 -0.47153999789E+02  0.11349076114E+03  0.17770000000E+01 0.  1.
         15    1    3    3    0    0  0.34739168916E+01 -0.26521769339E+02  0.62523016859E+01  0.27526738869E+02  0.17770000000E+01 0. -1.
</event>
<event>
 7    1  0.2809211E-007  0.1523865E+03  0.7546771E-02  0.1095324E+00
        -11   -1    0    0    0    0  0.00000000000E+00  0.00000000000E+00  0.18250000000E+03  0.18250000000E+03  0.00000000000E+00 0. -1.
         11   -1    0    0    0    0 -0.00000000000E+00 -0.00000000000E+00 -0.18250000000E+03  0.18250000000E+03  0.00000000000E+00 0. -1.
         23    2    1    2    0    0  0.34538564678E+01 -0.59252680235E+02  0.11074366781E+03  0.15546344373E+03  0.91552788786E+02 0.  0.
        -11    1    1    2    0    0  0.75916961774E+02  0.53022823633E+01 -0.23002246875E+02  0.79502217859E+02  0.00000000000E+00 0. -1.
         11    1    1    2    0    0 -0.79370818242E+02  0.53950397871E+02 -0.87741420939E+02  0.13003433842E+03  0.00000000000E+00 0. -1.
        -15    1    3    3    0    0  0.46392060720E+02 -0.23045565845E+02  0.64096662689E+02  0.82430948677E+02  0.17770000000E+01 0.  1.
         15    1    3    3    0    0 -0.42938204252E+02 -0.36207114390E+02  0.46647005125E+02  0.73032495048E+02  0.17770000000E+01 0. -1.
</event>
<event>
 7    1  0.2834201E-007  0.1764094E+03  0.7546771E-02  0.1073409E+00
        -11   -1    0    0    0    0  0.00000000000E+00  0.00000000000E+00  0.18250000000E+03  0.18250000000E+03  0.00000000000E+00 0.  1.
         11   -1    0    0    0    0 -0.00000000000E+00 -0.00000000000E+00 -0.18250000000E+03  0.18250000000E+03  0.00000000000E+00 0. -1.
         23    2    1    2    0    0  0.26551166447E+02  0.19338742666E+02 -0.13235363497E+03  0.16371131156E+03  0.90581220105E+02 0.  0.
        -11    1    1    2    0    0 -0.47663752175E+02 -0.36750644584E+02  0.15467581056E+03  0.16597303854E+03  0.00000000000E+00 0.  1.
         11    1    1    2    0    0  0.21112585727E+02  0.17411901918E+02 -0.22322175599E+02  0.35315649902E+02  0.00000000000E+00 0. -1.
        -15    1    3    3    0    0  0.15398956223E+02  0.23627406429E+02  0.24528289700E+01  0.28364701414E+02  0.17770000000E+01 0.  1.
         15    1    3    3    0    0  0.11152210224E+02 -0.42886637635E+01 -0.13480646394E+03  0.13534661014E+03  0.17770000000E+01 0. -1.
</event>
<event>
 7    1  0.2809211E-007  0.1574070E+03  0.7546771E-02  0.1090393E+00
        -11   -1    0    0    0    0  0.00000000000E+00  0.00000000000E+00  0.18250000000E+03  0.18250000000E+03  0.00000000000E+00 0. -1.
         11   -1    0    0    0    0 -0.00000000000E+00 -0.00000000000E+00 -0.18250000000E+03  0.18250000000E+03  0.00000000000E+00 0. -1.
         23    2    1    2    0    0 -0.28076612467E+01  0.41800742136E+02  0.13089818054E+03  0.16460910033E+03  0.90590491974E+02 0.  0.
        -11    1    1    2    0    0 -0.30605355460E+02 -0.62950745829E+02 -0.70121503012E+01  0.70346673234E+02  0.00000000000E+00 0. -1.
         11    1    1    2    0    0  0.33413016707E+02  0.21150003693E+02 -0.12388603024E+03  0.13004422644E+03  0.00000000000E+00 0. -1.
        -15    1    3    3    0    0  0.40351412633E+02  0.29439579050E+02  0.43163563470E+02  0.66039202422E+02  0.17770000000E+01 0.  1.
         15    1    3    3    0    0 -0.43159073880E+02  0.12361163086E+02  0.87734617071E+02  0.98569897903E+02  0.17770000000E+01 0. -1.
</event>
<event>
 7    1  0.2809211E-007  0.1300303E+03  0.7546771E-02  0.1120131E+00
        -11   -1    0    0    0    0  0.00000000000E+00  0.00000000000E+00  0.18250000000E+03  0.18250000000E+03  0.00000000000E+00 0.  1.
         11   -1    0    0    0    0 -0.00000000000E+00 -0.00000000000E+00 -0.18250000000E+03  0.18250000000E+03  0.00000000000E+00 0. -1.
         23    2    1    2    0    0 -0.33730190061E+02  0.13509473321E+02  0.26368075780E+02  0.10109278784E+03  0.90577286014E+02 0.  0.
        -11    1    1    2    0    0  0.27531022413E+02  0.84313156795E+02  0.79871955766E+02  0.11935742508E+03  0.00000000000E+00 0.  1.
         11    1    1    2    0    0  0.61991676478E+01 -0.97822630117E+02 -0.10624003155E+03  0.14454978708E+03  0.00000000000E+00 0. -1.
        -15    1    3    3    0    0 -0.61385046692E+02  0.22070792489E+02  0.57546625258E+01  0.65509676448E+02  0.17770000000E+01 0.  1.
         15    1    3    3    0    0  0.27654856632E+02 -0.85613191677E+01  0.20613413255E+02  0.35583111390E+02  0.17770000000E+01 0. -1.
</event>
<event>
 7    1  0.2809211E-007  0.1597959E+03  0.7546771E-02  0.1088117E+00
        -11   -1    0    0    0    0  0.00000000000E+00  0.00000000000E+00  0.18250000000E+03  0.18250000000E+03  0.00000000000E+00 0.  1.
         11   -1    0    0    0    0 -0.00000000000E+00 -0.00000000000E+00 -0.18250000000E+03  0.18250000000E+03  0.00000000000E+00 0.  1.
         23    2    1    2    0    0 -0.80416817424E+01 -0.11034959025E+02  0.11557554397E+03  0.14770716584E+03  0.90957470897E+02 0.  0.
        -11    1    1    2    0    0  0.23217635986E+01 -0.64617995763E+02  0.14907612767E+02  0.66355955882E+02  0.00000000000E+00 0.  1.
         11    1    1    2    0    0  0.57199181438E+01  0.75652954787E+02 -0.13048315674E+03  0.15093687827E+03  0.00000000000E+00 0.  1.
        -15    1    3    3    0    0  0.14021519301E+02  0.13173304182E+02 -0.72048606309E+01  0.20620540543E+02  0.17770000000E+01 0. -1.
         15    1    3    3    0    0 -0.22063201043E+02 -0.24208263206E+02  0.12278040460E+03  0.12708662530E+03  0.17770000000E+01 0.  1.
</event>
<event>
 7    1  0.2809211E-007  0.1603221E+03  0.7546771E-02  0.1087621E+00
        -11   -1    0    0    0    0  0.00000000000E+00  0.00000000000E+00  0.18250000000E+03  0.18250000000E+03  0.00000000000E+00 0. -1.
         11   -1    0    0    0    0 -0.00000000000E+00 -0.00000000000E+00 -0.18250000000E+03  0.18250000000E+03  0.00000000000E+00 0.  1.
         23    2    1    2    0    0 -0.17035457694E+02  0.10628638568E+03 -0.84881325245E+02  0.16446815287E+03  0.90873160685E+02 0.  0.
        -11    1    1    2    0    0 -0.36550783889E+02 -0.75390183431E+02  0.10605182455E+03  0.13515409372E+03  0.00000000000E+00 0. -1.
         11    1    1    2    0    0  0.53586241584E+02 -0.30896202246E+02 -0.21170499302E+02  0.65377753410E+02  0.00000000000E+00 0.  1.
        -15    1    3    3    0    0  0.35021105938E+02  0.27472673905E+02 -0.15159203750E+02  0.47055125756E+02  0.17770000000E+01 0. -1.
         15    1    3    3    0    0 -0.52056563632E+02  0.78813711771E+02 -0.69722121495E+02  0.11741302711E+03  0.17770000000E+01 0.  1.
</event>
<event>
 7    1  0.2809211E-007  0.1352564E+03  0.7546771E-02  0.1113863E+00
        -11   -1    0    0    0    0  0.00000000000E+00  0.00000000000E+00  0.18250000000E+03  0.18250000000E+03  0.00000000000E+00 0.  1.
         11   -1    0    0    0    0 -0.00000000000E+00 -0.00000000000E+00 -0.18250000000E+03  0.18250000000E+03  0.00000000000E+00 0. -1.
         23    2    1    2    0    0 -0.43573656606E+01 -0.32560216276E+02  0.60422618052E+02  0.11551781296E+03  0.92813350441E+02 0.  0.
        -11    1    1    2    0    0  0.99486176498E+02 -0.36992542690E+02  0.18376891676E+02  0.10772027514E+03  0.00000000000E+00 0.  1.
         11    1    1    2    0    0 -0.95128810837E+02  0.69552758965E+02 -0.78799509728E+02  0.14176191190E+03  0.00000000000E+00 0. -1.
        -15    1    3    3    0    0 -0.15047791452E+02 -0.44642474943E+02 -0.56497465073E+01  0.47481195869E+02  0.17770000000E+01 0. -1.
         15    1    3    3    0    0  0.10690425792E+02  0.12082258667E+02  0.66072364559E+02  0.68036617094E+02  0.17770000000E+01 0.  1.
</event>
<event>
 7    1  0.2809211E-007  0.1609195E+03  0.7546771E-02  0.1087061E+00
        -11   -1    0    0    0    0  0.00000000000E+00  0.00000000000E+00  0.18250000000E+03  0.18250000000E+03  0.00000000000E+00 0. -1.
         11   -1    0    0    0    0 -0.00000000000E+00 -0.00000000000E+00 -0.18250000000E+03  0.18250000000E+03  0.00000000000E+00 0.  1.
         23    2    1    2    0    0 -0.72648012389E+02 -0.48793787141E+01  0.80169750804E+02  0.14161965838E+03  0.91254570601E+02 0.  0.
        -11    1    1    2    0    0 -0.28444076487E+02 -0.49871732920E+02  0.29452835937E+02  0.64526930629E+02  0.00000000000E+00 0. -1.
         11    1    1    2    0    0  0.10109208888E+03  0.54751111634E+02 -0.10962258674E+03  0.15885341099E+03  0.00000000000E+00 0.  1.
        -15    1    3    3    0    0 -0.69151862367E+02  0.18223367392E+02  0.15996089714E+02  0.73301458396E+02  0.17770000000E+01 0.  1.
         15    1    3    3    0    0 -0.34961500224E+01 -0.23102746106E+02  0.64173661090E+02  0.68318199986E+02  0.17770000000E+01 0. -1.
</event>
<event>
 7    1  0.2809211E-007  0.1630819E+03  0.7546771E-02  0.1085056E+00
        -11   -1    0    0    0    0  0.00000000000E+00  0.00000000000E+00  0.18250000000E+03  0.18250000000E+03  0.00000000000E+00 0. -1.
         11   -1    0    0    0    0 -0.00000000000E+00 -0.00000000000E+00 -0.18250000000E+03  0.18250000000E+03  0.00000000000E+00 0. -1.
         23    2    1    2    0    0  0.66423368022E+02  0.37376494335E+01 -0.12700513673E+03  0.16934928815E+03  0.90126815087E+02 0.  0.
        -11    1    1    2    0    0 -0.10120179839E+03  0.24346942338E+02  0.86930631772E+02  0.13561531012E+03  0.00000000000E+00 0. -1.
         11    1    1    2    0    0  0.34778430365E+02 -0.28084591772E+02  0.40074504959E+02  0.60035401734E+02  0.00000000000E+00 0. -1.
        -15    1    3    3    0    0  0.38103945160E+02 -0.18199779046E+02 -0.54517295687E+01  0.42614805859E+02  0.17770000000E+01 0.  1.
         15    1    3    3    0    0  0.28319422861E+02  0.21937428480E+02 -0.12155340716E+03  0.12673448229E+03  0.17770000000E+01 0. -1.
</event>
<event>
 7    1  0.2809211E-007  0.1584975E+03  0.7546771E-02  0.1089348E+00
        -11   -1    0    0    0    0  0.00000000000E+00  0.00000000000E+00  0.18250000000E+03  0.18250000000E+03  0.00000000000E+00 0.  1.
         11   -1    0    0    0    0 -0.00000000000E+00 -0.00000000000E+00 -0.18250000000E+03  0.18250000000E+03  0.00000000000E+00 0.  1.
         23    2    1    2    0    0 -0.27420680985E+02 -0.57515322813E+02  0.14107994827E+03  0.18191406931E+03  0.95547217150E+02 0.  0.
        -11    1    1    2    0    0  0.46967132316E+02 -0.84481361509E+01 -0.52929692242E+02  0.71265944485E+02  0.00000000000E+00 0.  1.
         11    1    1    2    0    0 -0.19546451331E+02  0.65963458964E+02 -0.88150256025E+02  0.11181998621E+03  0.00000000000E+00 0.  1.
        -15    1    3    3    0    0 -0.27345487189E+02 -0.63402076938E+01 -0.36777913447E+01  0.28366490466E+02  0.17770000000E+01 0. -1.
         15    1    3    3    0    0 -0.75193796206E-01 -0.51175115119E+02  0.14475773961E+03  0.15354757884E+03  0.17770000000E+01 0.  1.
</event>
<event>
 7    1  0.2809211E-007  0.2092065E+03  0.7546771E-02  0.1048984E+00
        -11   -1    0    0    0    0  0.00000000000E+00  0.00000000000E+00  0.18250000000E+03  0.18250000000E+03  0.00000000000E+00 0.  1.
         11   -1    0    0    0    0 -0.00000000000E+00 -0.00000000000E+00 -0.18250000000E+03  0.18250000000E+03  0.00000000000E+00 0. -1.
         23    2    1    2    0    0  0.98786637188E+01 -0.36868036415E+01  0.54749756688E+02  0.10694219328E+03  0.91257417932E+02 0.  0.
        -11    1    1    2    0    0  0.48678487012E+02 -0.20316472454E+02  0.87610731041E+02  0.10226433564E+03  0.00000000000E+00 0.  1.
         11    1    1    2    0    0 -0.58557150731E+02  0.24003276095E+02 -0.14236048773E+03  0.15579347108E+03  0.00000000000E+00 0. -1.
        -15    1    3    3    0    0  0.30231140567E+02  0.30775369474E+02  0.50823449895E+02  0.66687525179E+02  0.17770000000E+01 0. -1.
         15    1    3    3    0    0 -0.20352476848E+02 -0.34462173115E+02  0.39263067930E+01  0.40254668098E+02  0.17770000000E+01 0.  1.
</event>
<event>
 7    1  0.2809211E-007  0.1784872E+03  0.7546771E-02  0.1071695E+00
        -11   -1    0    0    0    0  0.00000000000E+00  0.00000000000E+00  0.18250000000E+03  0.18250000000E+03  0.00000000000E+00 0.  1.
         11   -1    0    0    0    0 -0.00000000000E+00 -0.00000000000E+00 -0.18250000000E+03  0.18250000000E+03  0.00000000000E+00 0. -1.
         23    2    1    2    0    0 -0.98007662269E+02  0.28494207303E+02  0.12679526410E+03  0.18657120944E+03  0.91183087702E+02 0.  0.
        -11    1    1    2    0    0 -0.91881060342E+01 -0.12761727318E+01 -0.30182624240E+02  0.31575951535E+02  0.00000000000E+00 0.  1.
         11    1    1    2    0    0  0.10719576830E+03 -0.27218034571E+02 -0.96612639858E+02  0.14685283902E+03  0.00000000000E+00 0. -1.
        -15    1    3    3    0    0 -0.67440522285E+02  0.29094694667E+02  0.13601429810E+03  0.15458904334E+03  0.17770000000E+01 0.  1.
         15    1    3    3    0    0 -0.30567139983E+02 -0.60048736418E+00 -0.92190340027E+01  0.31982166105E+02  0.17770000000E+01 0. -1.
</event>
<event>
 7    1  0.2809211E-007  0.2106997E+03  0.7546771E-02  0.1047990E+00
        -11   -1    0    0    0    0  0.00000000000E+00  0.00000000000E+00  0.18250000000E+03  0.18250000000E+03  0.00000000000E+00 0. -1.
         11   -1    0    0    0    0 -0.00000000000E+00 -0.00000000000E+00 -0.18250000000E+03  0.18250000000E+03  0.00000000000E+00 0. -1.
         23    2    1    2    0    0  0.46174924935E+02  0.36791379819E+02 -0.27466356784E+02  0.11539390554E+03  0.95266066150E+02 0.  0.
        -11    1    1    2    0    0 -0.76441093929E+02 -0.83582448303E+02  0.10478224882E+03  0.15430031165E+03  0.00000000000E+00 0. -1.
         11    1    1    2    0    0  0.30266168995E+02  0.46791068484E+02 -0.77315892040E+02  0.95305782812E+02  0.00000000000E+00 0. -1.
        -15    1    3    3    0    0  0.64637384382E+02 -0.64922939856E+01 -0.16039923283E+02  0.66937121307E+02  0.17770000000E+01 0.  1.
         15    1    3    3    0    0 -0.18462459448E+02  0.43283673805E+02 -0.11426433501E+02  0.48456784235E+02  0.17770000000E+01 0. -1.
</event>
<event>
 7    1  0.2809211E-007  0.1921288E+03  0.7546771E-02  0.1061039E+00
        -11   -1    0    0    0    0  0.00000000000E+00  0.00000000000E+00  0.18250000000E+03  0.18250000000E+03  0.00000000000E+00 0. -1.
         11   -1    0    0    0    0 -0.00000000000E+00 -0.00000000000E+00 -0.18250000000E+03  0.18250000000E+03  0.00000000000E+00 0. -1.
         23    2    1    2    0    0  0.36423862691E+02 -0.27457134962E+01  0.16526613193E+03  0.19212881222E+03  0.90919466603E+02 0.  0.
        -11    1    1    2    0    0  0.55338657394E+01  0.34167726117E+01 -0.92316521308E+01  0.11292537632E+02  0.00000000000E+00 0. -1.
         11    1    1    2    0    0 -0.41957728431E+02 -0.67105911550E+00 -0.15603447980E+03  0.16157865014E+03  0.00000000000E+00 0. -1.
        -15    1    3    3    0    0 -0.25865205483E+02  0.19763835155E+01  0.16565119417E+02  0.30829788465E+02  0.17770000000E+01 0.  1.
         15    1    3    3    0    0  0.62289068174E+02 -0.47220970117E+01  0.14870101251E+03  0.16129902376E+03  0.17770000000E+01 0. -1.
</event>
<event>
 7    1  0.2809211E-007  0.1869828E+03  0.7546771E-02  0.1064941E+00
        -11   -1    0    0    0    0  0.00000000000E+00  0.00000000000E+00  0.18250000000E+03  0.18250000000E+03  0.00000000000E+00 0. -1.
         11   -1    0    0    0    0 -0.00000000000E+00 -0.00000000000E+00 -0.18250000000E+03  0.18250000000E+03  0.00000000000E+00 0. -1.
         23    2    1    2    0    0 -0.40137634973E+01  0.13950108817E+02  0.16309037911E+03  0.18698279794E+03  0.90296063778E+02 0.  0.
        -11    1    1    2    0    0 -0.20347505300E+02 -0.30107903176E+02 -0.54076601291E+02  0.65152019253E+02  0.00000000000E+00 0. -1.
         11    1    1    2    0    0  0.24361268798E+02  0.16157794359E+02 -0.10901377782E+03  0.11286518281E+03  0.00000000000E+00 0. -1.
        -15    1    3    3    0    0  0.34210853553E+01  0.11232534600E+02 -0.88753737179E+01  0.14825776411E+02  0.17770000000E+01 0.  1.
         15    1    3    3    0    0 -0.74348488525E+01  0.27175742169E+01  0.17196575283E+03  0.17215702153E+03  0.17770000000E+01 0. -1.
</event>
<event>
 7    1  0.2809211E-007  0.1709750E+03  0.7546771E-02  0.1078018E+00
        -11   -1    0    0    0    0  0.00000000000E+00  0.00000000000E+00  0.18250000000E+03  0.18250000000E+03  0.00000000000E+00 0.  1.
         11   -1    0    0    0    0 -0.00000000000E+00 -0.00000000000E+00 -0.18250000000E+03  0.18250000000E+03  0.00000000000E+00 0.  1.
         23    2    1    2    0    0 -0.97438670434E+02 -0.48037546122E+02  0.98927764128E+02  0.17277787208E+03  0.90904291607E+02 0.  0.
        -11    1    1    2    0    0  0.34033257193E+01 -0.37416735197E+02 -0.26367416595E+02  0.45900276215E+02  0.00000000000E+00 0.  1.
         11    1    1    2    0    0  0.94035344715E+02  0.85454281319E+02 -0.72560347533E+02  0.14632185170E+03  0.00000000000E+00 0.  1.
        -15    1    3    3    0    0 -0.11456292753E+03 -0.43794426166E+02  0.78054875207E+02  0.14539029335E+03  0.17770000000E+01 0.  1.
         15    1    3    3    0    0  0.17124257095E+02 -0.42431199561E+01  0.20872888921E+02  0.27387578734E+02  0.17770000000E+01 0. -1.
</event>
<event>
 7    1  0.2809211E-007  0.1360572E+03  0.7546771E-02  0.1112930E+00
        -11   -1    0    0    0    0  0.00000000000E+00  0.00000000000E+00  0.18250000000E+03  0.18250000000E+03  0.00000000000E+00 0. -1.
         11   -1    0    0    0    0 -0.00000000000E+00 -0.00000000000E+00 -0.18250000000E+03  0.18250000000E+03  0.00000000000E+00 0.  1.
         23    2    1    2    0    0 -0.13037842367E+02 -0.42201669040E+01  0.21958680099E+01  0.92531935646E+02  0.91485201731E+02 0.  0.
        -11    1    1    2    0    0  0.67067080281E+02  0.30292491130E+02  0.11746380447E+03  0.13861231416E+03  0.00000000000E+00 0. -1.
         11    1    1    2    0    0 -0.54029237914E+02 -0.26072324226E+02 -0.11965967248E+03  0.13385575019E+03  0.00000000000E+00 0.  1.
        -15    1    3    3    0    0 -0.14155309398E+02  0.45812100160E+01  0.45701591476E+02  0.48095254047E+02  0.17770000000E+01 0. -1.
         15    1    3    3    0    0  0.11174670306E+01 -0.88013769200E+01 -0.43505723466E+02  0.44436681600E+02  0.17770000000E+01 0.  1.
</event>
<event>
 7    1  0.2809211E-007  0.1647739E+03  0.7546771E-02  0.1083511E+00
        -11   -1    0    0    0    0  0.00000000000E+00  0.00000000000E+00  0.18250000000E+03  0.18250000000E+03  0.00000000000E+00 0.  1.
         11   -1    0    0    0    0 -0.00000000000E+00 -0.00000000000E+00 -0.18250000000E+03  0.18250000000E+03  0.00000000000E+00 0. -1.
         23    2    1    2    0    0  0.21242944333E+02 -0.39067729674E+02  0.11075276364E+03  0.15108185244E+03  0.92639091624E+02 0.  0.
        -11    1    1    2    0    0 -0.45721764715E+02 -0.94406565634E+01  0.35011743784E+02  0.58356044826E+02  0.00000000000E+00 0.  1.
         11    1    1    2    0    0  0.24478820381E+02  0.48508386238E+02 -0.14576450742E+03  0.15556210273E+03  0.00000000000E+00 0. -1.
        -15    1    3    3    0    0  0.43133235236E+02 -0.49797316277E+02  0.10795115888E+03  0.12647869039E+03  0.17770000000E+01 0.  1.
         15    1    3    3    0    0 -0.21890290903E+02  0.10729586602E+02  0.28016047559E+01  0.24603162046E+02  0.17770000000E+01 0. -1.
</event>
<event>
 7    1  0.2809211E-007  0.1540793E+03  0.7546771E-02  0.1093638E+00
        -11   -1    0    0    0    0  0.00000000000E+00  0.00000000000E+00  0.18250000000E+03  0.18250000000E+03  0.00000000000E+00 0.  1.
         11   -1    0    0    0    0 -0.00000000000E+00 -0.00000000000E+00 -0.18250000000E+03  0.18250000000E+03  0.00000000000E+00 0. -1.
         23    2    1    2    0    0  0.51146118403E+02 -0.23847833889E+02  0.11107728274E+03  0.15524006377E+03  0.92610312874E+02 0.  0.
        -11    1    1    2    0    0 -0.37605650944E+02  0.66014235388E+02  0.13839959305E+02  0.77224405018E+02  0.00000000000E+00 0.  1.
         11    1    1    2    0    0 -0.13540467460E+02 -0.42166401499E+02 -0.12491724204E+03  0.13253553121E+03  0.00000000000E+00 0. -1.
        -15    1    3    3    0    0  0.75051339837E+02 -0.25246207888E+02  0.10294574489E+03  0.12988863978E+03  0.17770000000E+01 0. -1.
         15    1    3    3    0    0 -0.23905221433E+02  0.13983739991E+01  0.81315378468E+01  0.25351423991E+02  0.17770000000E+01 0.  1.
</event>
<event>
 7    1  0.2809211E-007  0.1342520E+03  0.7546771E-02  0.1115043E+00
        -11   -1    0    0    0    0  0.00000000000E+00  0.00000000000E+00  0.18250000000E+03  0.18250000000E+03  0.00000000000E+00 0.  1.
         11   -1    0    0    0    0 -0.00000000000E+00 -0.00000000000E+00 -0.18250000000E+03  0.18250000000E+03  0.00000000000E+00 0. -1.
         23    2    1    2    0    0 -0.25978986367E+02  0.10632166123E+03 -0.77686925145E+00  0.14272329691E+03  0.91597666867E+02 0.  0.
        -11    1    1    2    0    0 -0.23952863565E+02 -0.67031169634E+02  0.88743127463E+02  0.11376405429E+03  0.00000000000E+00 0.  1.
         11    1    1    2    0    0  0.49931849931E+02 -0.39290491594E+02 -0.87966258211E+02  0.10851264881E+03  0.00000000000E+00 0. -1.
        -15    1    3    3    0    0 -0.96308060741E+01  0.10803760353E+03  0.25722976126E+02  0.11148858880E+03  0.17770000000E+01 0. -1.
         15    1    3    3    0    0 -0.16348180293E+02 -0.17159423006E+01 -0.26499845377E+02  0.31234708113E+02  0.17770000000E+01 0.  1.
</event>
<event>
 7    1  0.2809211E-007  0.1784491E+03  0.7546771E-02  0.1071726E+00
        -11   -1    0    0    0    0  0.00000000000E+00  0.00000000000E+00  0.18250000000E+03  0.18250000000E+03  0.00000000000E+00 0.  1.
         11   -1    0    0    0    0 -0.00000000000E+00 -0.00000000000E+00 -0.18250000000E+03  0.18250000000E+03  0.00000000000E+00 0. -1.
         23    2    1    2    0    0  0.29678299273E+02  0.41117306854E+01  0.13520523470E+03  0.16737476613E+03  0.94000792921E+02 0.  0.
        -11    1    1    2    0    0  0.19650899763E+02 -0.16380603766E+02  0.21163325436E+02  0.33201933449E+02  0.00000000000E+00 0.  1.
         11    1    1    2    0    0 -0.49329199037E+02  0.12268873081E+02 -0.15636856013E+03  0.16442330042E+03  0.00000000000E+00 0. -1.
        -15    1    3    3    0    0  0.94717007631E+01 -0.43176532708E+02  0.83118168333E+02  0.94157919094E+02  0.17770000000E+01 0.  1.
         15    1    3    3    0    0  0.20206598510E+02  0.47288263394E+02  0.52087066364E+02  0.73216847034E+02  0.17770000000E+01 0. -1.
</event>
<event>
 7    1  0.2809211E-007  0.1586439E+03  0.7546771E-02  0.1089209E+00
        -11   -1    0    0    0    0  0.00000000000E+00  0.00000000000E+00  0.18250000000E+03  0.18250000000E+03  0.00000000000E+00 0. -1.
         11   -1    0    0    0    0 -0.00000000000E+00 -0.00000000000E+00 -0.18250000000E+03  0.18250000000E+03  0.00000000000E+00 0. -1.
         23    2    1    2    0    0  0.55847603670E+01 -0.59052875364E+01 -0.94247662809E+02  0.13474489656E+03  0.95955735808E+02 0.  0.
        -11    1    1    2    0    0 -0.46919774436E+02 -0.52610528226E+00  0.15192418716E+03  0.15900534791E+03  0.00000000000E+00 0. -1.
         11    1    1    2    0    0  0.41335014069E+02  0.64313928187E+01 -0.57676524353E+02  0.71249755530E+02  0.00000000000E+00 0. -1.
        -15    1    3    3    0    0  0.77009544939E+01 -0.47884462365E+02 -0.72876732203E+02  0.87557993706E+02  0.17770000000E+01 0.  1.
         15    1    3    3    0    0 -0.21161941269E+01  0.41979174829E+02 -0.21370930605E+02  0.47186902853E+02  0.17770000000E+01 0. -1.
</event>
<event>
 7    1  0.2809211E-007  0.1352062E+03  0.7546771E-02  0.1113922E+00
        -11   -1    0    0    0    0  0.00000000000E+00  0.00000000000E+00  0.18250000000E+03  0.18250000000E+03  0.00000000000E+00 0. -1.
         11   -1    0    0    0    0 -0.00000000000E+00 -0.00000000000E+00 -0.18250000000E+03  0.18250000000E+03  0.00000000000E+00 0. -1.
         23    2    1    2    0    0 -0.24874020377E+02  0.65798839647E+02  0.16381056327E+02  0.11516254274E+03  0.89698762837E+02 0.  0.
        -11    1    1    2    0    0  0.86332687072E+02 -0.95114824916E+02  0.64806525395E+02  0.14387511428E+03  0.00000000000E+00 0. -1.
         11    1    1    2    0    0 -0.61458666696E+02  0.29315985269E+02 -0.81187581721E+02  0.10596234298E+03  0.00000000000E+00 0. -1.
        -15    1    3    3    0    0 -0.21361890360E+02  0.67664378017E+02 -0.23711224566E+02  0.74834339121E+02  0.17770000000E+01 0. -1.
         15    1    3    3    0    0 -0.35121300166E+01 -0.18655383700E+01  0.40092280893E+02  0.40328203615E+02  0.17770000000E+01 0.  1.
</event>
<event>
 7    1  0.4439287E-007  0.2132660E+03  0.7546771E-02  0.1046302E+00
        -11   -1    0    0    0    0  0.00000000000E+00  0.00000000000E+00  0.18250000000E+03  0.18250000000E+03  0.00000000000E+00 0. -1.
         11   -1    0    0    0    0 -0.00000000000E+00 -0.00000000000E+00 -0.18250000000E+03  0.18250000000E+03  0.00000000000E+00 0.  1.
         23    2    1    2    0    0 -0.19540587321E+02  0.20105159895E+02 -0.41103351144E+02  0.10400167551E+03  0.91328040748E+02 0.  0.
        -11    1    1    2    0    0  0.29108863550E+02 -0.11465012434E+03  0.95032810569E+02  0.15173401739E+03  0.00000000000E+00 0. -1.
         11    1    1    2    0    0 -0.95682762293E+01  0.94544964445E+02 -0.53929459425E+02  0.10926430710E+03  0.00000000000E+00 0.  1.
        -15    1    3    3    0    0 -0.29660678916E+02  0.85384298884E+01  0.22696352343E+02  0.38352872088E+02  0.17770000000E+01 0. -1.
         15    1    3    3    0    0  0.10120091595E+02  0.11566730006E+02 -0.63799703487E+02  0.65648803424E+02  0.17770000000E+01 0.  1.
</event>
<event>
 7    1  0.2809211E-007  0.1276484E+03  0.7546771E-02  0.1123097E+00
        -11   -1    0    0    0    0  0.00000000000E+00  0.00000000000E+00  0.18250000000E+03  0.18250000000E+03  0.00000000000E+00 0.  1.
         11   -1    0    0    0    0 -0.00000000000E+00 -0.00000000000E+00 -0.18250000000E+03  0.18250000000E+03  0.00000000000E+00 0. -1.
         23    2    1    2    0    0 -0.20039083250E+02  0.91933349496E+01  0.44853904861E+02  0.10485700142E+03  0.92179366995E+02 0.  0.
        -11    1    1    2    0    0  0.12367826027E+03 -0.23416421174E+02  0.32542330066E+02  0.13001401497E+03  0.00000000000E+00 0.  1.
         11    1    1    2    0    0 -0.10363917702E+03  0.14223086224E+02 -0.77396234928E+02  0.13012898361E+03  0.00000000000E+00 0. -1.
        -15    1    3    3    0    0 -0.42480665156E+02  0.14966378857E+02 -0.92129373622E+01  0.46006905482E+02  0.17770000000E+01 0. -1.
         15    1    3    3    0    0  0.22441581906E+02 -0.57730439078E+01  0.54066842224E+02  0.58850095934E+02  0.17770000000E+01 0.  1.
</event>
<event>
 7    1  0.2809211E-007  0.1515024E+03  0.7546771E-02  0.1096214E+00
        -11   -1    0    0    0    0  0.00000000000E+00  0.00000000000E+00  0.18250000000E+03  0.18250000000E+03  0.00000000000E+00 0.  1.
         11   -1    0    0    0    0 -0.00000000000E+00 -0.00000000000E+00 -0.18250000000E+03  0.18250000000E+03  0.00000000000E+00 0.  1.
         23    2    1    2    0    0  0.33018003418E+02 -0.44819052854E+02  0.10849312677E+03  0.15269789880E+03  0.91907310337E+02 0.  0.
        -11    1    1    2    0    0 -0.47120317956E+02 -0.59053295610E+02 -0.29747227556E+02  0.81194295575E+02  0.00000000000E+00 0.  1.
         11    1    1    2    0    0  0.14102314538E+02  0.10387234846E+03 -0.78745899219E+02  0.13110780562E+03  0.00000000000E+00 0.  1.
        -15    1    3    3    0    0  0.30260925793E+02  0.17490822051E+02  0.10522619616E+02  0.36544982398E+02  0.17770000000E+01 0. -1.
         15    1    3    3    0    0  0.27570776253E+01 -0.62309874905E+02  0.97970507159E+02  0.11615291641E+03  0.17770000000E+01 0.  1.
</event>
<event>
 7    1  0.2809211E-007  0.2073049E+03  0.7546771E-02  0.1050263E+00
        -11   -1    0    0    0    0  0.00000000000E+00  0.00000000000E+00  0.18250000000E+03  0.18250000000E+03  0.00000000000E+00 0. -1.
         11   -1    0    0    0    0 -0.00000000000E+00 -0.00000000000E+00 -0.18250000000E+03  0.18250000000E+03  0.00000000000E+00 0.  1.
         23    2    1    2    0    0  0.14656986895E+01  0.26396073682E+02  0.52723394347E+02  0.10467973132E+03  0.86482303736E+02 0.  0.
        -11    1    1    2    0    0 -0.18006613185E+02  0.51140627098E+01  0.10090359354E+03  0.10262517695E+03  0.00000000000E+00 0. -1.
         11    1    1    2    0    0  0.16540914496E+02 -0.31510136392E+02 -0.15362698788E+03  0.15769509173E+03  0.00000000000E+00 0.  1.
        -15    1    3    3    0    0 -0.99048979433E+01  0.28947716277E+02 -0.16262150317E+02  0.34694272479E+02  0.17770000000E+01 0. -1.
         15    1    3    3    0    0  0.11370596633E+02 -0.25516425948E+01  0.68985544664E+02  0.69985458842E+02  0.17770000000E+01 0.  1.
</event>
<event>
 7    1  0.2809211E-007  0.1678075E+03  0.7546771E-02  0.1080791E+00
        -11   -1    0    0    0    0  0.00000000000E+00  0.00000000000E+00  0.18250000000E+03  0.18250000000E+03  0.00000000000E+00 0.  1.
         11   -1    0    0    0    0 -0.00000000000E+00 -0.00000000000E+00 -0.18250000000E+03  0.18250000000E+03  0.00000000000E+00 0.  1.
         23    2    1    2    0    0  0.28759574785E+02  0.52359095060E+02  0.14848924194E+03  0.18441277507E+03  0.91599283071E+02 0.  0.
        -11    1    1    2    0    0 -0.39881581858E+02  0.36210080853E+01 -0.33489725918E+02  0.52203582378E+02  0.00000000000E+00 0.  1.
         11    1    1    2    0    0  0.11122007073E+02 -0.55980103145E+02 -0.11499951602E+03  0.12838364255E+03  0.00000000000E+00 0.  1.
        -15    1    3    3    0    0  0.36357588070E+01  0.44366751200E+02  0.15140933008E+03  0.15782766018E+03  0.17770000000E+01 0.  1.
         15    1    3    3    0    0  0.25123815978E+02  0.79923438597E+01 -0.29200881417E+01  0.26585114885E+02  0.17770000000E+01 0. -1.
</event>
<event>
 7    1  0.2809211E-007  0.1645080E+03  0.7546771E-02  0.1083753E+00
        -11   -1    0    0    0    0  0.00000000000E+00  0.00000000000E+00  0.18250000000E+03  0.18250000000E+03  0.00000000000E+00 0. -1.
         11   -1    0    0    0    0 -0.00000000000E+00 -0.00000000000E+00 -0.18250000000E+03  0.18250000000E+03  0.00000000000E+00 0.  1.
         23    2    1    2    0    0 -0.75549299543E+02 -0.51937340494E+01 -0.98536996101E+02  0.15462344755E+03  0.92001083665E+02 0.  0.
        -11    1    1    2    0    0  0.55195808314E+02  0.47631850617E+02  0.13325166756E+03  0.15189265076E+03  0.00000000000E+00 0. -1.
         11    1    1    2    0    0  0.20353491230E+02 -0.42438116568E+02 -0.34714671454E+02  0.58483901693E+02  0.00000000000E+00 0.  1.
        -15    1    3    3    0    0 -0.31366760971E+02  0.22922697908E+02 -0.94356128626E+02  0.10205665344E+03  0.17770000000E+01 0.  1.
         15    1    3    3    0    0 -0.44182538572E+02 -0.28116431958E+02 -0.41808674753E+01  0.52566794106E+02  0.17770000000E+01 0. -1.
</event>
<event>
 7    1  0.2809211E-007  0.1625353E+03  0.7546771E-02  0.1085560E+00
        -11   -1    0    0    0    0  0.00000000000E+00  0.00000000000E+00  0.18250000000E+03  0.18250000000E+03  0.00000000000E+00 0.  1.
         11   -1    0    0    0    0 -0.00000000000E+00 -0.00000000000E+00 -0.18250000000E+03  0.18250000000E+03  0.00000000000E+00 0. -1.
         23    2    1    2    0    0  0.61095071996E+02 -0.21391514418E+02  0.11692948263E+03  0.15927926445E+03  0.86643958042E+02 0.  0.
        -11    1    1    2    0    0 -0.48411894044E+02 -0.26873524609E+02  0.20862446703E+02  0.59170427515E+02  0.00000000000E+00 0.  1.
         11    1    1    2    0    0 -0.12683177952E+02  0.48265039027E+02 -0.13779192933E+03  0.14655030803E+03  0.00000000000E+00 0. -1.
        -15    1    3    3    0    0 -0.10183390638E+02 -0.11816438698E+02  0.73690427912E+02  0.75344320047E+02  0.17770000000E+01 0.  1.
         15    1    3    3    0    0  0.71278462634E+02 -0.95750757196E+01  0.43239054718E+02  0.83934944406E+02  0.17770000000E+01 0. -1.
</event>
<event>
 7    1  0.2809211E-007  0.1435736E+03  0.7546771E-02  0.1104506E+00
        -11   -1    0    0    0    0  0.00000000000E+00  0.00000000000E+00  0.18250000000E+03  0.18250000000E+03  0.00000000000E+00 0.  1.
         11   -1    0    0    0    0 -0.00000000000E+00 -0.00000000000E+00 -0.18250000000E+03  0.18250000000E+03  0.00000000000E+00 0.  1.
         23    2    1    2    0    0  0.17875456229E+02 -0.78546361714E+02  0.40607924415E+02  0.12913011143E+03  0.92393285892E+02 0.  0.
        -11    1    1    2    0    0 -0.29777295500E+02 -0.59882720925E+02 -0.66753390150E+02  0.94491495327E+02  0.00000000000E+00 0.  1.
         11    1    1    2    0    0  0.11901839270E+02  0.13842908264E+03  0.26145465735E+02  0.14137839325E+03  0.00000000000E+00 0.  1.
        -15    1    3    3    0    0 -0.17738086811E+02 -0.30386487172E+02  0.56996689272E+02  0.67005661278E+02  0.17770000000E+01 0. -1.
         15    1    3    3    0    0  0.35613543040E+02 -0.48159874543E+02 -0.16388764856E+02  0.62124450149E+02  0.17770000000E+01 0.  1.
</event>
<event>
 7    1  0.2809211E-007  0.1690642E+03  0.7546771E-02  0.1079683E+00
        -11   -1    0    0    0    0  0.00000000000E+00  0.00000000000E+00  0.18250000000E+03  0.18250000000E+03  0.00000000000E+00 0. -1.
         11   -1    0    0    0    0 -0.00000000000E+00 -0.00000000000E+00 -0.18250000000E+03  0.18250000000E+03  0.00000000000E+00 0. -1.
         23    2    1    2    0    0  0.13543274808E+02 -0.64188719923E+02  0.10705245390E+03  0.15476859169E+03  0.90495729352E+02 0.  0.
        -11    1    1    2    0    0  0.41955564967E+01 -0.48673880614E+02  0.63400543298E+01  0.49264040001E+02  0.00000000000E+00 0. -1.
         11    1    1    2    0    0 -0.17738831304E+02  0.11286260054E+03 -0.11339250823E+03  0.16096736830E+03  0.00000000000E+00 0. -1.
        -15    1    3    3    0    0 -0.91806981687E+01  0.19223783127E+02  0.69256341236E+01  0.22471341607E+02  0.17770000000E+01 0.  1.
         15    1    3    3    0    0  0.22723972976E+02 -0.83412503051E+02  0.10012681978E+03  0.13229725009E+03  0.17770000000E+01 0. -1.
</event>
<event>
 7    1  0.2809211E-007  0.1615556E+03  0.7546771E-02  0.1086468E+00
        -11   -1    0    0    0    0  0.00000000000E+00  0.00000000000E+00  0.18250000000E+03  0.18250000000E+03  0.00000000000E+00 0.  1.
         11   -1    0    0    0    0 -0.00000000000E+00 -0.00000000000E+00 -0.18250000000E+03  0.18250000000E+03  0.00000000000E+00 0. -1.
         23    2    1    2    0    0 -0.48987844495E+02  0.97381763937E+02  0.70782424265E+02  0.15851890080E+03  0.90747305574E+02 0.  0.
        -11    1    1    2    0    0  0.10774616554E+02 -0.13720359372E+03 -0.40168388504E+02  0.14336812033E+03  0.00000000000E+00 0. -1.
         11    1    1    2    0    0  0.38213227941E+02  0.39821829783E+02 -0.30614035761E+02  0.63112978875E+02  0.00000000000E+00 0.  1.
        -15    1    3    3    0    0 -0.68603680549E+02  0.10070350010E+03  0.60845666021E+02  0.13620944431E+03  0.17770000000E+01 0. -1.
         15    1    3    3    0    0  0.19615836054E+02 -0.33217361629E+01  0.99367582441E+01  0.22309456484E+02  0.17770000000E+01 0.  1.
</event>
<event>
 7    1  0.2809211E-007  0.1357144E+03  0.7546771E-02  0.1113329E+00
        -11   -1    0    0    0    0  0.00000000000E+00  0.00000000000E+00  0.18250000000E+03  0.18250000000E+03  0.00000000000E+00 0.  1.
         11   -1    0    0    0    0 -0.00000000000E+00 -0.00000000000E+00 -0.18250000000E+03  0.18250000000E+03  0.00000000000E+00 0.  1.
         23    2    1    2    0    0  0.19484985440E+02  0.14495404294E+02  0.85594042911E+02  0.12692523838E+03  0.90520133415E+02 0.  0.
        -11    1    1    2    0    0 -0.10160261762E+03 -0.22811034788E+02  0.17941420011E+02  0.10566612403E+03  0.00000000000E+00 0.  1.
         11    1    1    2    0    0  0.82117632180E+02  0.83156304940E+01 -0.10353546292E+03  0.13240863759E+03  0.00000000000E+00 0.  1.
        -15    1    3    3    0    0  0.87535451658E+01  0.49718567264E+02  0.71312471729E+02  0.87390999748E+02  0.17770000000E+01 0.  1.
         15    1    3    3    0    0  0.10731440274E+02 -0.35223162971E+02  0.14281571182E+02  0.39534238635E+02  0.17770000000E+01 0. -1.
</event>
<event>
 7    1  0.2809211E-007  0.1817511E+03  0.7546771E-02  0.1069052E+00
        -11   -1    0    0    0    0  0.00000000000E+00  0.00000000000E+00  0.18250000000E+03  0.18250000000E+03  0.00000000000E+00 0.  1.
         11   -1    0    0    0    0 -0.00000000000E+00 -0.00000000000E+00 -0.18250000000E+03  0.18250000000E+03  0.00000000000E+00 0. -1.
         23    2    1    2    0    0 -0.44296133125E+00 -0.11245187181E+03  0.10196568149E+03  0.17776078684E+03  0.92500148371E+02 0.  0.
        -11    1    1    2    0    0  0.24137045468E+02 -0.89887722889E+01  0.17121197625E+01  0.25813297838E+02  0.00000000000E+00 0.  1.
         11    1    1    2    0    0 -0.23694084137E+02  0.12144064410E+03 -0.10367780126E+03  0.16142591532E+03  0.00000000000E+00 0. -1.
        -15    1    3    3    0    0 -0.46162177598E+02 -0.51206195700E+02  0.52955128333E+02  0.86950701345E+02  0.17770000000E+01 0.  1.
         15    1    3    3    0    0  0.45719216267E+02 -0.61245676111E+02  0.49010553161E+02  0.90810085500E+02  0.17770000000E+01 0. -1.
</event>
<event>
 7    1  0.2809211E-007  0.1899546E+03  0.7546771E-02  0.1062671E+00
        -11   -1    0    0    0    0  0.00000000000E+00  0.00000000000E+00  0.18250000000E+03  0.18250000000E+03  0.00000000000E+00 0. -1.
         11   -1    0    0    0    0 -0.00000000000E+00 -0.00000000000E+00 -0.18250000000E+03  0.18250000000E+03  0.00000000000E+00 0. -1.
         23    2    1    2    0    0 -0.48687186684E+02 -0.49864434658E+02  0.15214662456E+03  0.18995461140E+03  0.89873550257E+02 0.  0.
        -11    1    1    2    0    0  0.17414119337E+02 -0.22518172758E+01 -0.94421835843E+01  0.19936826833E+02  0.00000000000E+00 0. -1.
         11    1    1    2    0    0  0.31273067347E+02  0.52116251934E+02 -0.14270444098E+03  0.15510856176E+03  0.00000000000E+00 0. -1.
        -15    1    3    3    0    0  0.66858358743E+01 -0.36335425944E+01 -0.98743555620E+01  0.12592206315E+02  0.17770000000E+01 0.  1.
         15    1    3    3    0    0 -0.55373022558E+02 -0.46230892064E+02  0.16202098013E+03  0.17736240509E+03  0.17770000000E+01 0. -1.
</event>
<event>
 7    1  0.2809211E-007  0.1458027E+03  0.7546771E-02  0.1102116E+00
        -11   -1    0    0    0    0  0.00000000000E+00  0.00000000000E+00  0.18250000000E+03  0.18250000000E+03  0.00000000000E+00 0. -1.
         11   -1    0    0    0    0 -0.00000000000E+00 -0.00000000000E+00 -0.18250000000E+03  0.18250000000E+03  0.00000000000E+00 0.  1.
         23    2    1    2    0    0  0.88804024747E+02  0.37256448734E+02  0.15792633609E+02  0.14548367541E+03  0.10789761235E+03 0.  0.
        -11    1    1    2    0    0 -0.38731958680E+02 -0.22471888521E+02  0.90567682313E+02  0.10103294253E+03  0.00000000000E+00 0. -1.
         11    1    1    2    0    0 -0.50072066066E+02 -0.14784560213E+02 -0.10636031592E+03  0.11848338206E+03  0.00000000000E+00 0.  1.
        -15    1    3    3    0    0  0.11251369290E+03  0.29632161507E+02  0.81396423629E+00  0.11636673215E+03  0.17770000000E+01 0.  1.
         15    1    3    3    0    0 -0.23709668152E+02  0.76242872264E+01  0.14978669373E+02  0.29116943259E+02  0.17770000000E+01 0. -1.
</event>
<event>
 7    1  0.2809211E-007  0.1414364E+03  0.7546771E-02  0.1106842E+00
        -11   -1    0    0    0    0  0.00000000000E+00  0.00000000000E+00  0.18250000000E+03  0.18250000000E+03  0.00000000000E+00 0.  1.
         11   -1    0    0    0    0 -0.00000000000E+00 -0.00000000000E+00 -0.18250000000E+03  0.18250000000E+03  0.00000000000E+00 0.  1.
         23    2    1    2    0    0  0.39241713047E+02  0.97625729898E+02 -0.69592006902E+01  0.13684269854E+03  0.87216962161E+02 0.  0.
        -11    1    1    2    0    0 -0.49073536632E+01 -0.92837442576E+02  0.95374622014E+02  0.13318855577E+03  0.00000000000E+00 0.  1.
         11    1    1    2    0    0 -0.34334359384E+02 -0.47882873220E+01 -0.88415421324E+02  0.94968745689E+02  0.00000000000E+00 0.  1.
        -15    1    3    3    0    0  0.32181429367E+02  0.11396524510E+03 -0.27550226174E+01  0.11846716576E+03  0.17770000000E+01 0.  1.
         15    1    3    3    0    0  0.70602836799E+01 -0.16339515197E+02 -0.42041780728E+01  0.18375532776E+02  0.17770000000E+01 0. -1.
</event>
<event>
 7    1  0.2809211E-007  0.1706747E+03  0.7546771E-02  0.1078278E+00
        -11   -1    0    0    0    0  0.00000000000E+00  0.00000000000E+00  0.18250000000E+03  0.18250000000E+03  0.00000000000E+00 0.  1.
         11   -1    0    0    0    0 -0.00000000000E+00 -0.00000000000E+00 -0.18250000000E+03  0.18250000000E+03  0.00000000000E+00 0. -1.
         23    2    1    2    0    0 -0.12604822308E+02 -0.61283720305E+02  0.11980646949E+03  0.15947776250E+03  0.84646267965E+02 0.  0.
        -11    1    1    2    0    0 -0.30087477236E+02 -0.30124837800E+02  0.73485069260E+01  0.43206049263E+02  0.00000000000E+00 0.  1.
         11    1    1    2    0    0  0.42692299544E+02  0.91408558105E+02 -0.12715497642E+03  0.16231618824E+03  0.00000000000E+00 0. -1.
        -15    1    3    3    0    0  0.17806132667E+02 -0.65701741688E+02  0.54281392940E+02  0.87082745535E+02  0.17770000000E+01 0. -1.
         15    1    3    3    0    0 -0.30410954975E+02  0.44180213820E+01  0.65525076553E+02  0.72395016967E+02  0.17770000000E+01 0.  1.
</event>
<event>
 7    1  0.2809211E-007  0.1487649E+03  0.7546771E-02  0.1099012E+00
        -11   -1    0    0    0    0  0.00000000000E+00  0.00000000000E+00  0.18250000000E+03  0.18250000000E+03  0.00000000000E+00 0.  1.
         11   -1    0    0    0    0 -0.00000000000E+00 -0.00000000000E+00 -0.18250000000E+03  0.18250000000E+03  0.00000000000E+00 0.  1.
         23    2    1    2    0    0 -0.49527924769E+02 -0.36965077109E+02 -0.49017885402E+02  0.11951499851E+03  0.89786689001E+02 0.  0.
        -11    1    1    2    0    0  0.76661293400E+02  0.84197280710E+02  0.11370445700E+03  0.16091873578E+03  0.00000000000E+00 0.  1.
         11    1    1    2    0    0 -0.27133368631E+02 -0.47232203601E+02 -0.64686571599E+02  0.84566265706E+02  0.00000000000E+00 0.  1.
        -15    1    3    3    0    0  0.22171555184E+02 -0.29329083549E+02 -0.18511678587E+02  0.41202099148E+02  0.17770000000E+01 0. -1.
         15    1    3    3    0    0 -0.71699479952E+02 -0.76359935604E+01 -0.30506206815E+02  0.78312899361E+02  0.17770000000E+01 0.  1.
</event>
<event>
 7    1  0.3693671E-007  0.2131850E+03  0.7546771E-02  0.1046355E+00
        -11   -1    0    0    0    0  0.00000000000E+00  0.00000000000E+00  0.18250000000E+03  0.18250000000E+03  0.00000000000E+00 0.  1.
         11   -1    0    0    0    0 -0.00000000000E+00 -0.00000000000E+00 -0.18250000000E+03  0.18250000000E+03  0.00000000000E+00 0. -1.
         23    2    1    2    0    0 -0.14814969034E+01  0.35626293001E+02 -0.40200398145E+02  0.10818850108E+03  0.93900224536E+02 0.  0.
        -11    1    1    2    0    0 -0.55908294673E+02 -0.81808418578E+02  0.11501936437E+03  0.15181504848E+03  0.00000000000E+00 0.  1.
         11    1    1    2    0    0  0.57389791576E+02  0.46182125577E+02 -0.74818966224E+02  0.10499645045E+03  0.00000000000E+00 0. -1.
        -15    1    3    3    0    0 -0.20077530739E+02  0.30045258944E+02  0.22446888192E+02  0.42577521583E+02  0.17770000000E+01 0.  1.
         15    1    3    3    0    0  0.18596033836E+02  0.55810340565E+01 -0.62647286338E+02  0.65610979493E+02  0.17770000000E+01 0. -1.
</event>
<event>
 7    1  0.2809211E-007  0.1842027E+03  0.7546771E-02  0.1067107E+00
        -11   -1    0    0    0    0  0.00000000000E+00  0.00000000000E+00  0.18250000000E+03  0.18250000000E+03  0.00000000000E+00 0. -1.
         11   -1    0    0    0    0 -0.00000000000E+00 -0.00000000000E+00 -0.18250000000E+03  0.18250000000E+03  0.00000000000E+00 0. -1.
         23    2    1    2    0    0  0.12825611522E+01  0.98759378075E+02  0.12662076437E+03  0.18420272376E+03  0.90237274734E+02 0.  0.
        -11    1    1    2    0    0  0.29252014158E+02 -0.90385971354E+02 -0.78719538512E+02  0.12337775283E+03  0.00000000000E+00 0. -1.
         11    1    1    2    0    0 -0.30534575310E+02 -0.83734067205E+01 -0.47901225858E+02  0.57419523406E+02  0.00000000000E+00 0. -1.
        -15    1    3    3    0    0  0.78732270030E+01 -0.13308106906E+02  0.81978686835E+00  0.15585993468E+02  0.17770000000E+01 0.  1.
         15    1    3    3    0    0 -0.65906658508E+01  0.11206748498E+03  0.12580097750E+03  0.16861673030E+03  0.17770000000E+01 0. -1.
</event>
<event>
 7    1  0.2809211E-007  0.1661363E+03  0.7546771E-02  0.1082282E+00
        -11   -1    0    0    0    0  0.00000000000E+00  0.00000000000E+00  0.18250000000E+03  0.18250000000E+03  0.00000000000E+00 0.  1.
         11   -1    0    0    0    0 -0.00000000000E+00 -0.00000000000E+00 -0.18250000000E+03  0.18250000000E+03  0.00000000000E+00 0. -1.
         23    2    1    2    0    0 -0.18063655739E+02  0.38685811194E+02  0.11128939183E+03  0.17398315233E+03  0.12673563395E+03 0.  0.
        -11    1    1    2    0    0 -0.30156373321E+02 -0.72102560571E+02 -0.17026136997E+02  0.79987970557E+02  0.00000000000E+00 0.  1.
         11    1    1    2    0    0  0.48220029059E+02  0.33416749376E+02 -0.94263254834E+02  0.11102887711E+03  0.00000000000E+00 0. -1.
        -15    1    3    3    0    0  0.17020175786E+02  0.78569221558E+02  0.71326241027E+02  0.10748674034E+03  0.17770000000E+01 0.  1.
         15    1    3    3    0    0 -0.35083831525E+02 -0.39883410364E+02  0.39963150804E+02  0.66496411993E+02  0.17770000000E+01 0. -1.
</event>
<event>
 7    1  0.3631952E-007  0.1292513E+03  0.7546771E-02  0.1121093E+00
        -11   -1    0    0    0    0  0.00000000000E+00  0.00000000000E+00  0.18250000000E+03  0.18250000000E+03  0.00000000000E+00 0.  1.
         11   -1    0    0    0    0 -0.00000000000E+00 -0.00000000000E+00 -0.18250000000E+03  0.18250000000E+03  0.00000000000E+00 0. -1.
         23    2    1    2    0    0 -0.33466607226E+01  0.39675057376E+02 -0.14705357025E+02  0.10303602977E+03  0.93887515627E+02 0.  0.
        -11    1    1    2    0    0 -0.88656250254E+02 -0.80507741171E+02  0.78132424491E+02  0.14298986976E+03  0.00000000000E+00 0.  1.
         11    1    1    2    0    0  0.92002910976E+02  0.40832683795E+02 -0.63427067466E+02  0.11897410046E+03  0.00000000000E+00 0. -1.
        -15    1    3    3    0    0  0.72559215533E+01  0.33319207078E+01 -0.50348624743E+02  0.51008742738E+02  0.17770000000E+01 0. -1.
         15    1    3    3    0    0 -0.10602582276E+02  0.36343136668E+02  0.35643267718E+02  0.52027287037E+02  0.17770000000E+01 0.  1.
</event>
<event>
 7    1  0.2809211E-007  0.1638238E+03  0.7546771E-02  0.1084376E+00
        -11   -1    0    0    0    0  0.00000000000E+00  0.00000000000E+00  0.18250000000E+03  0.18250000000E+03  0.00000000000E+00 0.  1.
         11   -1    0    0    0    0 -0.00000000000E+00 -0.00000000000E+00 -0.18250000000E+03  0.18250000000E+03  0.00000000000E+00 0.  1.
         23    2    1    2    0    0 -0.92002111829E+02  0.48717572633E+02  0.10016277667E+03  0.18476788791E+03  0.11519027783E+03 0.  0.
        -11    1    1    2    0    0  0.72880270628E+02  0.93466019897E+01 -0.14340581593E+02  0.74863509776E+02  0.00000000000E+00 0.  1.
         11    1    1    2    0    0  0.19121841201E+02 -0.58064174623E+02 -0.85822195079E+02  0.10536860231E+03  0.00000000000E+00 0.  1.
        -15    1    3    3    0    0  0.26092193148E+02  0.16342723217E+02  0.90881640633E+01  0.32150265947E+02  0.17770000000E+01 0. -1.
         15    1    3    3    0    0 -0.11809430498E+03  0.32374849417E+02  0.91074612609E+02  0.15261762196E+03  0.17770000000E+01 0.  1.
</event>
<event>
 7    1  0.2809211E-007  0.1326689E+03  0.7546771E-02  0.1116926E+00
        -11   -1    0    0    0    0  0.00000000000E+00  0.00000000000E+00  0.18250000000E+03  0.18250000000E+03  0.00000000000E+00 0. -1.
         11   -1    0    0    0    0 -0.00000000000E+00 -0.00000000000E+00 -0.18250000000E+03  0.18250000000E+03  0.00000000000E+00 0. -1.
         23    2    1    2    0    0 -0.26450549945E+02  0.25021851733E+02 -0.10040059980E+03  0.13994919391E+03  0.90442090752E+02 0.  0.
        -11    1    1    2    0    0 -0.37281586924E+02 -0.96763977524E+02  0.37303060876E+02  0.11020300550E+03  0.00000000000E+00 0. -1.
         11    1    1    2    0    0  0.63732136869E+02  0.71742125791E+02  0.63097538923E+02  0.11484780059E+03  0.00000000000E+00 0. -1.
        -15    1    3    3    0    0 -0.52321130775E+02  0.40900469850E+02 -0.76150816827E+02  0.10105668603E+03  0.17770000000E+01 0. -1.
         15    1    3    3    0    0  0.25870580831E+02 -0.15878618117E+02 -0.24249782972E+02  0.38892507877E+02  0.17770000000E+01 0.  1.
</event>
<event>
 7    1  0.2809211E-007  0.1337382E+03  0.7546771E-02  0.1115651E+00
        -11   -1    0    0    0    0  0.00000000000E+00  0.00000000000E+00  0.18250000000E+03  0.18250000000E+03  0.00000000000E+00 0. -1.
         11   -1    0    0    0    0 -0.00000000000E+00 -0.00000000000E+00 -0.18250000000E+03  0.18250000000E+03  0.00000000000E+00 0. -1.
         23    2    1    2    0    0 -0.27628194371E+02  0.36503492831E+02 -0.56719860970E+01  0.93574885584E+02  0.81414161377E+02 0.  0.
        -11    1    1    2    0    0  0.70447101497E+02 -0.40542934488E+02  0.12245431517E+03  0.14697476978E+03  0.00000000000E+00 0. -1.
         11    1    1    2    0    0 -0.42818907125E+02  0.40394416569E+01 -0.11678232908E+03  0.12445034464E+03  0.00000000000E+00 0. -1.
        -15    1    3    3    0    0 -0.15022929460E+02  0.10265386124E+02  0.37359195451E+02  0.41592472583E+02  0.17770000000E+01 0.  1.
         15    1    3    3    0    0 -0.12605264911E+02  0.26238106707E+02 -0.43031181548E+02  0.51982413001E+02  0.17770000000E+01 0. -1.
</event>
<event>
 7    1  0.2809211E-007  0.1630828E+03  0.7546771E-02  0.1085056E+00
        -11   -1    0    0    0    0  0.00000000000E+00  0.00000000000E+00  0.18250000000E+03  0.18250000000E+03  0.00000000000E+00 0.  1.
         11   -1    0    0    0    0 -0.00000000000E+00 -0.00000000000E+00 -0.18250000000E+03  0.18250000000E+03  0.00000000000E+00 0. -1.
         23    2    1    2    0    0  0.30620157540E+02  0.10979048333E+02  0.11454498571E+03  0.15047811570E+03  0.92005304212E+02 0.  0.
        -11    1    1    2    0    0 -0.27767125793E+02  0.46896924346E+02  0.27548224288E+02  0.61067499125E+02  0.00000000000E+00 0.  1.
         11    1    1    2    0    0 -0.28530317469E+01 -0.57875972679E+02 -0.14209321000E+03  0.15345438518E+03  0.00000000000E+00 0. -1.
        -15    1    3    3    0    0  0.29510778860E+01 -0.18594606703E+02 -0.86422833942E+01  0.20792187244E+02  0.17770000000E+01 0. -1.
         15    1    3    3    0    0  0.27669079654E+02  0.29573655036E+02  0.12318726910E+03  0.12968592845E+03  0.17770000000E+01 0.  1.
</event>
<event>
 7    1  0.2809211E-007  0.1230821E+03  0.7546771E-02  0.1128987E+00
        -11   -1    0    0    0    0  0.00000000000E+00  0.00000000000E+00  0.18250000000E+03  0.18250000000E+03  0.00000000000E+00 0. -1.
         11   -1    0    0    0    0 -0.00000000000E+00 -0.00000000000E+00 -0.18250000000E+03  0.18250000000E+03  0.00000000000E+00 0.  1.
         23    2    1    2    0    0  0.78104861972E+02 -0.16770327380E+02  0.59584025414E+02  0.12538429801E+03  0.76087796388E+02 0.  0.
        -11    1    1    2    0    0 -0.39951525450E+02  0.10837133732E+03  0.13626891718E+02  0.11630203487E+03  0.00000000000E+00 0. -1.
         11    1    1    2    0    0 -0.38153336522E+02 -0.91601009939E+02 -0.73210917132E+02  0.12331366711E+03  0.00000000000E+00 0.  1.
        -15    1    3    3    0    0  0.74693850052E+02  0.89907096086E+01  0.19770601576E+02  0.77807702129E+02  0.17770000000E+01 0.  1.
         15    1    3    3    0    0  0.34110119190E+01 -0.25761036989E+02  0.39813423838E+02  0.47576595882E+02  0.17770000000E+01 0. -1.
</event>
<event>
 7    1  0.2809211E-007  0.1853317E+03  0.7546771E-02  0.1066223E+00
        -11   -1    0    0    0    0  0.00000000000E+00  0.00000000000E+00  0.18250000000E+03  0.18250000000E+03  0.00000000000E+00 0. -1.
         11   -1    0    0    0    0 -0.00000000000E+00 -0.00000000000E+00 -0.18250000000E+03  0.18250000000E+03  0.00000000000E+00 0.  1.
         23    2    1    2    0    0 -0.26011539202E+01 -0.52437365930E+01  0.16068196602E+03  0.18558304927E+03  0.92672062658E+02 0.  0.
        -11    1    1    2    0    0  0.17708778485E+02 -0.58123684904E+01 -0.10252989333E+01  0.18666432460E+02  0.00000000000E+00 0. -1.
         11    1    1    2    0    0 -0.15107624564E+02  0.11056105083E+02 -0.15965666709E+03  0.16075051827E+03  0.00000000000E+00 0.  1.
        -15    1    3    3    0    0  0.36604860109E+02 -0.29002306245E+02  0.87800864464E+02  0.99464561934E+02  0.17770000000E+01 0. -1.
         15    1    3    3    0    0 -0.39206014030E+02  0.23758569652E+02  0.72881101555E+02  0.86118487335E+02  0.17770000000E+01 0.  1.
</event>
<event>
 7    1  0.2809211E-007  0.1486815E+03  0.7546771E-02  0.1099099E+00
        -11   -1    0    0    0    0  0.00000000000E+00  0.00000000000E+00  0.18250000000E+03  0.18250000000E+03  0.00000000000E+00 0.  1.
         11   -1    0    0    0    0 -0.00000000000E+00 -0.00000000000E+00 -0.18250000000E+03  0.18250000000E+03  0.00000000000E+00 0. -1.
         23    2    1    2    0    0 -0.31101479282E+02 -0.11441591107E+03  0.53420364616E+02  0.15849850876E+03  0.90607611181E+02 0.  0.
        -11    1    1    2    0    0  0.19425640461E+02  0.61792763462E+02  0.55289035562E+02  0.85162072409E+02  0.00000000000E+00 0.  1.
         11    1    1    2    0    0  0.11675838820E+02  0.52623147604E+02 -0.10870940018E+03  0.12133941883E+03  0.00000000000E+00 0. -1.
        -15    1    3    3    0    0 -0.51153586385E+02 -0.11302893656E+03  0.30132363749E+02  0.12768456044E+03  0.17770000000E+01 0.  1.
         15    1    3    3    0    0  0.20052107104E+02 -0.13869745041E+01  0.23288000867E+02  0.30813948318E+02  0.17770000000E+01 0. -1.
</event>
<event>
 7    1  0.2809211E-007  0.1449411E+03  0.7546771E-02  0.1103034E+00
        -11   -1    0    0    0    0  0.00000000000E+00  0.00000000000E+00  0.18250000000E+03  0.18250000000E+03  0.00000000000E+00 0. -1.
         11   -1    0    0    0    0 -0.00000000000E+00 -0.00000000000E+00 -0.18250000000E+03  0.18250000000E+03  0.00000000000E+00 0.  1.
         23    2    1    2    0    0 -0.49145900244E+02  0.68949575137E+02  0.50266542804E+02  0.13181993094E+03  0.87637922412E+02 0.  0.
        -11    1    1    2    0    0  0.57910782320E+01 -0.34987317318E+02  0.82307223313E+02  0.89622139953E+02  0.00000000000E+00 0. -1.
         11    1    1    2    0    0  0.43354822012E+02 -0.33962257819E+02 -0.13257376612E+03  0.14355792911E+03  0.00000000000E+00 0.  1.
        -15    1    3    3    0    0 -0.28230668437E+02  0.12094533364E+02 -0.21764352429E+02  0.37684123226E+02  0.17770000000E+01 0. -1.
         15    1    3    3    0    0 -0.20915231808E+02  0.56855041773E+02  0.72030895233E+02  0.94135807712E+02  0.17770000000E+01 0.  1.
</event>
<event>
 7    1  0.2809211E-007  0.1657639E+03  0.7546771E-02  0.1082617E+00
        -11   -1    0    0    0    0  0.00000000000E+00  0.00000000000E+00  0.18250000000E+03  0.18250000000E+03  0.00000000000E+00 0.  1.
         11   -1    0    0    0    0 -0.00000000000E+00 -0.00000000000E+00 -0.18250000000E+03  0.18250000000E+03  0.00000000000E+00 0.  1.
         23    2    1    2    0    0 -0.32905730401E+02 -0.19457764276E+02  0.14097429710E+03  0.17401259640E+03  0.94579276696E+02 0.  0.
        -11    1    1    2    0    0  0.27940609268E+02 -0.44347705297E+02 -0.23996926771E+02  0.57647628796E+02  0.00000000000E+00 0.  1.
         11    1    1    2    0    0  0.49651211336E+01  0.63805469573E+02 -0.11697737033E+03  0.13333977480E+03  0.00000000000E+00 0.  1.
        -15    1    3    3    0    0 -0.17589794261E+02 -0.37875600431E+02  0.14386997194E+03  0.14981885237E+03  0.17770000000E+01 0.  1.
         15    1    3    3    0    0 -0.15315936140E+02  0.18417836156E+02 -0.28956748419E+01  0.24193744032E+02  0.17770000000E+01 0. -1.
</event>
<event>
 7    1  0.2809211E-007  0.1318548E+03  0.7546771E-02  0.1117906E+00
        -11   -1    0    0    0    0  0.00000000000E+00  0.00000000000E+00  0.18250000000E+03  0.18250000000E+03  0.00000000000E+00 0.  1.
         11   -1    0    0    0    0 -0.00000000000E+00 -0.00000000000E+00 -0.18250000000E+03  0.18250000000E+03  0.00000000000E+00 0. -1.
         23    2    1    2    0    0 -0.39451395952E+02  0.35548075716E+02 -0.56375704163E+02  0.11990198302E+03  0.91532437870E+02 0.  0.
        -11    1    1    2    0    0 -0.54018551824E+02 -0.29652452963E+02  0.11790628379E+03  0.13303820378E+03  0.00000000000E+00 0.  1.
         11    1    1    2    0    0  0.93469947776E+02 -0.58956227532E+01 -0.61530579628E+02  0.11205981320E+03  0.00000000000E+00 0. -1.
        -15    1    3    3    0    0 -0.49306457255E+02  0.61007921498E+02 -0.41507189443E+02  0.88764281763E+02  0.17770000000E+01 0.  1.
         15    1    3    3    0    0  0.98550613030E+01 -0.25459845782E+02 -0.14868514720E+02  0.31137701256E+02  0.17770000000E+01 0. -1.
</event>
<event>
 7    1  0.2809211E-007  0.1601213E+03  0.7546771E-02  0.1087810E+00
        -11   -1    0    0    0    0  0.00000000000E+00  0.00000000000E+00  0.18250000000E+03  0.18250000000E+03  0.00000000000E+00 0. -1.
         11   -1    0    0    0    0 -0.00000000000E+00 -0.00000000000E+00 -0.18250000000E+03  0.18250000000E+03  0.00000000000E+00 0.  1.
         23    2    1    2    0    0 -0.23970422188E+02 -0.71661379626E+02 -0.62200700053E+02  0.14692116216E+03  0.10957630371E+03 0.  0.
        -11    1    1    2    0    0 -0.22434013169E+02  0.63036678050E+02  0.12365142930E+03  0.14059368298E+03  0.00000000000E+00 0. -1.
         11    1    1    2    0    0  0.46404435357E+02  0.86247015751E+01 -0.61450729245E+02  0.77485154855E+02  0.00000000000E+00 0.  1.
        -15    1    3    3    0    0 -0.51812306621E+02 -0.11009469948E+01 -0.53891668872E+01  0.52133751548E+02  0.17770000000E+01 0. -1.
         15    1    3    3    0    0  0.27841884433E+02 -0.70560432631E+02 -0.56811533166E+02  0.94787410617E+02  0.17770000000E+01 0.  1.
</event>
<event>
 7    1  0.2809211E-007  0.1469738E+03  0.7546771E-02  0.1100880E+00
        -11   -1    0    0    0    0  0.00000000000E+00  0.00000000000E+00  0.18250000000E+03  0.18250000000E+03  0.00000000000E+00 0. -1.
         11   -1    0    0    0    0 -0.00000000000E+00 -0.00000000000E+00 -0.18250000000E+03  0.18250000000E+03  0.00000000000E+00 0. -1.
         23    2    1    2    0    0 -0.27052226455E+02  0.98562307238E+01  0.88017886555E+02  0.12988002269E+03  0.91064283345E+02 0.  0.
        -11    1    1    2    0    0  0.71438398132E+02  0.12786180982E+02  0.50167555738E+02  0.88225363702E+02  0.00000000000E+00 0. -1.
         11    1    1    2    0    0 -0.44386171676E+02 -0.22642411706E+02 -0.13818544229E+03  0.14689461360E+03  0.00000000000E+00 0. -1.
        -15    1    3    3    0    0 -0.26897274889E+02  0.38886270590E+02  0.12476365710E+02  0.48932840376E+02  0.17770000000E+01 0. -1.
         15    1    3    3    0    0 -0.15495156625E+00 -0.29030039867E+02  0.75541520846E+02  0.80947182319E+02  0.17770000000E+01 0.  1.
</event>
<event>
 7    1  0.2809211E-007  0.1581915E+03  0.7546771E-02  0.1089640E+00
        -11   -1    0    0    0    0  0.00000000000E+00  0.00000000000E+00  0.18250000000E+03  0.18250000000E+03  0.00000000000E+00 0.  1.
         11   -1    0    0    0    0 -0.00000000000E+00 -0.00000000000E+00 -0.18250000000E+03  0.18250000000E+03  0.00000000000E+00 0.  1.
         23    2    1    2    0    0  0.24361473393E+02 -0.66402077966E+02  0.99488758203E+02  0.15363893307E+03  0.93296256091E+02 0.  0.
        -11    1    1    2    0    0  0.37882074475E+02  0.53365593986E+02  0.26204799471E+02  0.70495600596E+02  0.00000000000E+00 0.  1.
         11    1    1    2    0    0 -0.62243547868E+02  0.13036483980E+02 -0.12569355767E+03  0.14086546634E+03  0.00000000000E+00 0.  1.
        -15    1    3    3    0    0  0.35313627394E+02 -0.67542584485E+02  0.11287845126E+03  0.13621217084E+03  0.17770000000E+01 0.  1.
         15    1    3    3    0    0 -0.10952154001E+02  0.11405065188E+01 -0.13389693056E+02  0.17426762221E+02  0.17770000000E+01 0. -1.
</event>
<event>
 7    1  0.2809211E-007  0.1582475E+03  0.7546771E-02  0.1089587E+00
        -11   -1    0    0    0    0  0.00000000000E+00  0.00000000000E+00  0.18250000000E+03  0.18250000000E+03  0.00000000000E+00 0.  1.
         11   -1    0    0    0    0 -0.00000000000E+00 -0.00000000000E+00 -0.18250000000E+03  0.18250000000E+03  0.00000000000E+00 0.  1.
         23    2    1    2    0    0 -0.42558092067E+02 -0.77290470541E+01  0.75460202205E+02  0.14219568312E+03  0.11249195888E+03 0.  0.
        -11    1    1    2    0    0  0.53279467459E+02 -0.35355784195E+01  0.63505727026E+02  0.82970954753E+02  0.00000000000E+00 0.  1.
         11    1    1    2    0    0 -0.10721375393E+02  0.11264625474E+02 -0.13896592923E+03  0.13983336213E+03  0.00000000000E+00 0.  1.
        -15    1    3    3    0    0 -0.59259401428E+02  0.53398057872E+00  0.96984379164E+02  0.11367096957E+03  0.17770000000E+01 0.  1.
         15    1    3    3    0    0  0.16701309361E+02 -0.82630276328E+01 -0.21524176959E+02  0.28524713545E+02  0.17770000000E+01 0. -1.
</event>
<event>
 7    1  0.2809211E-007  0.1607176E+03  0.7546771E-02  0.1087250E+00
        -11   -1    0    0    0    0  0.00000000000E+00  0.00000000000E+00  0.18250000000E+03  0.18250000000E+03  0.00000000000E+00 0.  1.
         11   -1    0    0    0    0 -0.00000000000E+00 -0.00000000000E+00 -0.18250000000E+03  0.18250000000E+03  0.00000000000E+00 0.  1.
         23    2    1    2    0    0 -0.89957916935E+02 -0.47881531141E+02  0.94095873790E+02  0.16698806116E+03  0.92983392391E+02 0.  0.
        -11    1    1    2    0    0 -0.31814010775E+02  0.13340491939E+02 -0.56096134419E+02  0.65854964152E+02  0.00000000000E+00 0.  1.
         11    1    1    2    0    0  0.12177192771E+03  0.34541039202E+02 -0.37999739372E+02  0.13215697469E+03  0.00000000000E+00 0.  1.
        -15    1    3    3    0    0 -0.56816195491E+02 -0.35896067186E+02  0.79143632062E+00  0.67233859104E+02  0.17770000000E+01 0. -1.
         15    1    3    3    0    0 -0.33141721444E+02 -0.11985463955E+02  0.93304437470E+02  0.99754202052E+02  0.17770000000E+01 0.  1.
</event>
<event>
 7    1  0.2809211E-007  0.1689984E+03  0.7546771E-02  0.1079741E+00
        -11   -1    0    0    0    0  0.00000000000E+00  0.00000000000E+00  0.18250000000E+03  0.18250000000E+03  0.00000000000E+00 0. -1.
         11   -1    0    0    0    0 -0.00000000000E+00 -0.00000000000E+00 -0.18250000000E+03  0.18250000000E+03  0.00000000000E+00 0. -1.
         23    2    1    2    0    0 -0.22532832163E+01  0.33514412767E+02  0.13808711463E+03  0.16708529754E+03  0.87870087503E+02 0.  0.
        -11    1    1    2    0    0 -0.46356849767E+02  0.11845041307E+02 -0.37107147920E+01  0.47989914859E+02  0.00000000000E+00 0. -1.
         11    1    1    2    0    0  0.48610132984E+02 -0.45359454074E+02 -0.13437639984E+03  0.14992478760E+03  0.00000000000E+00 0. -1.
        -15    1    3    3    0    0  0.13782894575E+02 -0.20599866987E+02  0.94243231459E+01  0.26576273225E+02  0.17770000000E+01 0.  1.
         15    1    3    3    0    0 -0.16036177792E+02  0.54114279755E+02  0.12866279149E+03  0.14050902432E+03  0.17770000000E+01 0. -1.
</event>
<event>
 7    1  0.2809211E-007  0.1355812E+03  0.7546771E-02  0.1113484E+00
        -11   -1    0    0    0    0  0.00000000000E+00  0.00000000000E+00  0.18250000000E+03  0.18250000000E+03  0.00000000000E+00 0.  1.
         11   -1    0    0    0    0 -0.00000000000E+00 -0.00000000000E+00 -0.18250000000E+03  0.18250000000E+03  0.00000000000E+00 0.  1.
         23    2    1    2    0    0  0.19834207789E+02  0.12956217114E+00  0.93537723284E+02  0.13206835411E+03  0.91100669024E+02 0.  0.
        -11    1    1    2    0    0  0.20122227238E+02  0.10052880180E+03 -0.27731647318E+02  0.10620728922E+03  0.00000000000E+00 0.  1.
         11    1    1    2    0    0 -0.39956435027E+02 -0.10065836397E+03 -0.65806075966E+02  0.12672435666E+03  0.00000000000E+00 0.  1.
        -15    1    3    3    0    0  0.39327209407E+02 -0.19896975462E+02  0.11791605277E+02  0.45658720047E+02  0.17770000000E+01 0.  1.
         15    1    3    3    0    0 -0.19493001618E+02  0.20026537634E+02  0.81746118006E+02  0.86409634068E+02  0.17770000000E+01 0. -1.
</event>
<event>
 7    1  0.2809211E-007  0.1716548E+03  0.7546771E-02  0.1077431E+00
        -11   -1    0    0    0    0  0.00000000000E+00  0.00000000000E+00  0.18250000000E+03  0.18250000000E+03  0.00000000000E+00 0.  1.
         11   -1    0    0    0    0 -0.00000000000E+00 -0.00000000000E+00 -0.18250000000E+03  0.18250000000E+03  0.00000000000E+00 0.  1.
         23    2    1    2    0    0  0.71186498627E+02 -0.75650332529E+02  0.73248146920E+02  0.15871386982E+03  0.95048992876E+02 0.  0.
        -11    1    1    2    0    0 -0.53838807935E+01 -0.69448220430E+01  0.46097183220E+02  0.46927252492E+02  0.00000000000E+00 0.  1.
         11    1    1    2    0    0 -0.65802617833E+02  0.82595154572E+02 -0.11934533014E+03  0.15935887769E+03  0.00000000000E+00 0.  1.
        -15    1    3    3    0    0  0.82770970391E+02 -0.88824104672E+02  0.71700059744E+02  0.14101351498E+03  0.17770000000E+01 0.  1.
         15    1    3    3    0    0 -0.11584471764E+02  0.13173772143E+02  0.15480871752E+01  0.17700354839E+02  0.17770000000E+01 0. -1.
</event>
<event>
 7    1  0.2809211E-007  0.1578174E+03  0.7546771E-02  0.1089999E+00
        -11   -1    0    0    0    0  0.00000000000E+00  0.00000000000E+00  0.18250000000E+03  0.18250000000E+03  0.00000000000E+00 0. -1.
         11   -1    0    0    0    0 -0.00000000000E+00 -0.00000000000E+00 -0.18250000000E+03  0.18250000000E+03  0.00000000000E+00 0. -1.
         23    2    1    2    0    0 -0.14277822559E+02  0.21923602176E+02  0.10603255476E+03  0.14347714816E+03  0.93049926532E+02 0.  0.
        -11    1    1    2    0    0 -0.40026445858E+02 -0.49396214387E+02  0.31627915567E+02  0.71010051450E+02  0.00000000000E+00 0. -1.
         11    1    1    2    0    0  0.54304268417E+02  0.27472612210E+02 -0.13766047032E+03  0.15051280039E+03  0.00000000000E+00 0. -1.
        -15    1    3    3    0    0 -0.48942573558E+02 -0.72934728302E+01  0.41582693355E+02  0.64659480110E+02  0.17770000000E+01 0. -1.
         15    1    3    3    0    0  0.34664750999E+02  0.29217075007E+02  0.64449861402E+02  0.78817668055E+02  0.17770000000E+01 0.  1.
</event>
<event>
 7    1  0.2809211E-007  0.1713242E+03  0.7546771E-02  0.1077716E+00
        -11   -1    0    0    0    0  0.00000000000E+00  0.00000000000E+00  0.18250000000E+03  0.18250000000E+03  0.00000000000E+00 0.  1.
         11   -1    0    0    0    0 -0.00000000000E+00 -0.00000000000E+00 -0.18250000000E+03  0.18250000000E+03  0.00000000000E+00 0. -1.
         23    2    1    2    0    0  0.68783417181E+02 -0.50501134500E+02 -0.90136858217E+02  0.15327473269E+03  0.89927567552E+02 0.  0.
        -11    1    1    2    0    0 -0.90203915710E+02  0.80946510696E+02  0.11490735518E+03  0.16701132979E+03  0.00000000000E+00 0.  1.
         11    1    1    2    0    0  0.21420498529E+02 -0.30445376196E+02 -0.24770496965E+02  0.44713937524E+02  0.00000000000E+00 0. -1.
        -15    1    3    3    0    0  0.47027060621E+02  0.59850966256E+01 -0.34959036688E+01  0.47568318067E+02  0.17770000000E+01 0.  1.
         15    1    3    3    0    0  0.21756356560E+02 -0.56486231125E+02 -0.86640954549E+02  0.10570641462E+03  0.17770000000E+01 0. -1.
</event>
<event>
 7    1  0.2809211E-007  0.1772408E+03  0.7546771E-02  0.1072720E+00
        -11   -1    0    0    0    0  0.00000000000E+00  0.00000000000E+00  0.18250000000E+03  0.18250000000E+03  0.00000000000E+00 0.  1.
         11   -1    0    0    0    0 -0.00000000000E+00 -0.00000000000E+00 -0.18250000000E+03  0.18250000000E+03  0.00000000000E+00 0.  1.
         23    2    1    2    0    0 -0.93139818986E+02  0.16245901940E+02  0.11223683605E+03  0.17259389528E+03  0.90843767589E+02 0.  0.
        -11    1    1    2    0    0 -0.14401648324E+02  0.30149018778E+02 -0.53410092737E+01  0.33836329408E+02  0.00000000000E+00 0.  1.
         11    1    1    2    0    0  0.10754146731E+03 -0.46394920718E+02 -0.10689582678E+03  0.15856977531E+03  0.00000000000E+00 0.  1.
        -15    1    3    3    0    0 -0.95129138646E+02  0.13541354113E+01  0.12190027813E+03  0.15464223951E+03  0.17770000000E+01 0.  1.
         15    1    3    3    0    0  0.19893196596E+01  0.14891766529E+02 -0.96634420804E+01  0.17951655770E+02  0.17770000000E+01 0. -1.
</event>
<event>
 7    1  0.2809211E-007  0.1706436E+03  0.7546771E-02  0.1078305E+00
        -11   -1    0    0    0    0  0.00000000000E+00  0.00000000000E+00  0.18250000000E+03  0.18250000000E+03  0.00000000000E+00 0.  1.
         11   -1    0    0    0    0 -0.00000000000E+00 -0.00000000000E+00 -0.18250000000E+03  0.18250000000E+03  0.00000000000E+00 0. -1.
         23    2    1    2    0    0  0.23570784993E+02 -0.27097766231E+02  0.13777042415E+03  0.16647815512E+03  0.86281026420E+02 0.  0.
        -11    1    1    2    0    0  0.37686813645E+02 -0.22349165126E+02 -0.49102324263E+01  0.44089584791E+02  0.00000000000E+00 0.  1.
         11    1    1    2    0    0 -0.61257598638E+02  0.49446931356E+02 -0.13286019173E+03  0.15443226009E+03  0.00000000000E+00 0. -1.
        -15    1    3    3    0    0  0.35780160024E+02 -0.58163562217E+01  0.11852235703E+02  0.38179615912E+02  0.17770000000E+01 0. -1.
         15    1    3    3    0    0 -0.12209375031E+02 -0.21281410009E+02  0.12591818845E+03  0.12829853920E+03  0.17770000000E+01 0.  1.
</event>
<event>
 7    1  0.2809211E-007  0.1267640E+03  0.7546771E-02  0.1124216E+00
        -11   -1    0    0    0    0  0.00000000000E+00  0.00000000000E+00  0.18250000000E+03  0.18250000000E+03  0.00000000000E+00 0.  1.
         11   -1    0    0    0    0 -0.00000000000E+00 -0.00000000000E+00 -0.18250000000E+03  0.18250000000E+03  0.00000000000E+00 0. -1.
         23    2    1    2    0    0 -0.38904138893E+02 -0.33163802015E+02 -0.11870212512E+02  0.10609717942E+03  0.92208132767E+02 0.  0.
        -11    1    1    2    0    0  0.51126509702E+02 -0.31707974363E+02  0.11884207627E+03  0.13320193214E+03  0.00000000000E+00 0.  1.
         11    1    1    2    0    0 -0.12222370808E+02  0.64871776378E+02 -0.10697186376E+03  0.12570088844E+03  0.00000000000E+00 0. -1.
        -15    1    3    3    0    0 -0.75001216901E+01  0.23629770259E+02  0.21712854592E+02  0.33003388484E+02  0.17770000000E+01 0.  1.
         15    1    3    3    0    0 -0.31404017203E+02 -0.56793572274E+02 -0.33583067103E+02  0.73093790935E+02  0.17770000000E+01 0. -1.
</event>
<event>
 7    1  0.2809211E-007  0.1399839E+03  0.7546771E-02  0.1108456E+00
        -11   -1    0    0    0    0  0.00000000000E+00  0.00000000000E+00  0.18250000000E+03  0.18250000000E+03  0.00000000000E+00 0. -1.
         11   -1    0    0    0    0 -0.00000000000E+00 -0.00000000000E+00 -0.18250000000E+03  0.18250000000E+03  0.00000000000E+00 0.  1.
         23    2    1    2    0    0 -0.31351713339E+02 -0.89687842942E+02 -0.48425473699E+02  0.14551102135E+03  0.99002988496E+02 0.  0.
        -11    1    1    2    0    0  0.99698084085E+02  0.11345235886E+02  0.56597682564E+02  0.11520295143E+03  0.00000000000E+00 0. -1.
         11    1    1    2    0    0 -0.68346370746E+02  0.78342607055E+02 -0.81722088648E+01  0.10428602721E+03  0.00000000000E+00 0.  1.
        -15    1    3    3    0    0  0.28903047667E+02 -0.14834072499E+02 -0.36127309279E+02  0.48618680321E+02  0.17770000000E+01 0. -1.
         15    1    3    3    0    0 -0.60254761006E+02 -0.74853770442E+02 -0.12298164420E+02  0.96892341031E+02  0.17770000000E+01 0.  1.
</event>
<event>
 7    1  0.2853879E-007  0.1389900E+03  0.7546771E-02  0.1109573E+00
        -11   -1    0    0    0    0  0.00000000000E+00  0.00000000000E+00  0.18250000000E+03  0.18250000000E+03  0.00000000000E+00 0. -1.
         11   -1    0    0    0    0 -0.00000000000E+00 -0.00000000000E+00 -0.18250000000E+03  0.18250000000E+03  0.00000000000E+00 0. -1.
         23    2    1    2    0    0  0.78543875657E+02  0.25997628144E+02  0.29375504498E+02  0.13413387264E+03  0.10140985383E+03 0.  0.
        -11    1    1    2    0    0 -0.17089783316E+02 -0.89770842757E+02  0.56553215679E+02  0.10746688377E+03  0.00000000000E+00 0. -1.
         11    1    1    2    0    0 -0.61454092341E+02  0.63773214613E+02 -0.85928720177E+02  0.12339924359E+03  0.00000000000E+00 0. -1.
        -15    1    3    3    0    0  0.71424416392E+02  0.25739060423E+02  0.63646148971E+02  0.99085500939E+02  0.17770000000E+01 0. -1.
         15    1    3    3    0    0  0.71194592648E+01  0.25856772098E+00 -0.34270644473E+02  0.35048371703E+02  0.17770000000E+01 0.  1.
</event>
<event>
 7    1  0.2809211E-007  0.1497254E+03  0.7546771E-02  0.1098023E+00
        -11   -1    0    0    0    0  0.00000000000E+00  0.00000000000E+00  0.18250000000E+03  0.18250000000E+03  0.00000000000E+00 0. -1.
         11   -1    0    0    0    0 -0.00000000000E+00 -0.00000000000E+00 -0.18250000000E+03  0.18250000000E+03  0.00000000000E+00 0.  1.
         23    2    1    2    0    0  0.85945138292E+01  0.22423311775E+02  0.11404572636E+03  0.14659375847E+03  0.88919242814E+02 0.  0.
        -11    1    1    2    0    0  0.81128308579E+02 -0.72565036780E+01 -0.13096550516E+02  0.82498357159E+02  0.00000000000E+00 0. -1.
         11    1    1    2    0    0 -0.89722822409E+02 -0.15166808097E+02 -0.10094917585E+03  0.13590788437E+03  0.00000000000E+00 0.  1.
        -15    1    3    3    0    0  0.10947488877E+01 -0.37906219125E+01  0.11878370201E+03  0.11886249569E+03  0.17770000000E+01 0. -1.
         15    1    3    3    0    0  0.74997649416E+01  0.26213933687E+02 -0.47379756426E+01  0.27731262786E+02  0.17770000000E+01 0.  1.
</event>
<event>
 7    1  0.2809211E-007  0.1597789E+03  0.7546771E-02  0.1088133E+00
        -11   -1    0    0    0    0  0.00000000000E+00  0.00000000000E+00  0.18250000000E+03  0.18250000000E+03  0.00000000000E+00 0. -1.
         11   -1    0    0    0    0 -0.00000000000E+00 -0.00000000000E+00 -0.18250000000E+03  0.18250000000E+03  0.00000000000E+00 0.  1.
         23    2    1    2    0    0 -0.23628602448E+02 -0.51797557482E+02  0.83030235306E+02  0.13723691823E+03  0.93266574586E+02 0.  0.
        -11    1    1    2    0    0 -0.29780068764E+02 -0.56719209288E+02  0.21838992835E+02  0.67682071525E+02  0.00000000000E+00 0. -1.
         11    1    1    2    0    0  0.53408671212E+02  0.10851676677E+03 -0.10486922814E+03  0.16008101025E+03  0.00000000000E+00 0.  1.
        -15    1    3    3    0    0 -0.52377601794E+02 -0.13680862073E+02  0.19112723949E+02  0.57437210086E+02  0.17770000000E+01 0.  1.
         15    1    3    3    0    0  0.28748999347E+02 -0.38116695409E+02  0.63917511357E+02  0.79799708141E+02  0.17770000000E+01 0. -1.
</event>
<event>
 7    1  0.2809211E-007  0.1650031E+03  0.7546771E-02  0.1083304E+00
        -11   -1    0    0    0    0  0.00000000000E+00  0.00000000000E+00  0.18250000000E+03  0.18250000000E+03  0.00000000000E+00 0.  1.
         11   -1    0    0    0    0 -0.00000000000E+00 -0.00000000000E+00 -0.18250000000E+03  0.18250000000E+03  0.00000000000E+00 0. -1.
         23    2    1    2    0    0 -0.11334437738E+03 -0.40290129140E+02  0.85063712013E+02  0.17406746833E+03  0.92700625888E+02 0.  0.
        -11    1    1    2    0    0  0.47978422438E+01  0.56885265156E+02 -0.10093103453E+02  0.57972609217E+02  0.00000000000E+00 0.  1.
         11    1    1    2    0    0  0.10854653514E+03 -0.16595136017E+02 -0.74970608560E+02  0.13295992245E+03  0.00000000000E+00 0. -1.
        -15    1    3    3    0    0 -0.17475851657E+02  0.39991351639E+01  0.63844499826E+02  0.66337593868E+02  0.17770000000E+01 0. -1.
         15    1    3    3    0    0 -0.95868525725E+02 -0.44289264303E+02  0.21219212187E+02  0.10772987446E+03  0.17770000000E+01 0.  1.
</event>
<event>
 7    1  0.2809211E-007  0.1618159E+03  0.7546771E-02  0.1086226E+00
        -11   -1    0    0    0    0  0.00000000000E+00  0.00000000000E+00  0.18250000000E+03  0.18250000000E+03  0.00000000000E+00 0. -1.
         11   -1    0    0    0    0 -0.00000000000E+00 -0.00000000000E+00 -0.18250000000E+03  0.18250000000E+03  0.00000000000E+00 0.  1.
         23    2    1    2    0    0  0.21051532458E+02  0.36896049067E+02  0.12868120972E+03  0.16366199122E+03  0.91770954995E+02 0.  0.
        -11    1    1    2    0    0 -0.48121362284E+01 -0.62741095536E+02  0.60284800028E+01  0.63213481911E+02  0.00000000000E+00 0. -1.
         11    1    1    2    0    0 -0.16239396230E+02  0.25845046469E+02 -0.13470968972E+03  0.13812452687E+03  0.00000000000E+00 0.  1.
        -15    1    3    3    0    0 -0.33953730513E+02  0.38617755795E+00  0.32859411973E+02  0.47285342687E+02  0.17770000000E+01 0. -1.
         15    1    3    3    0    0  0.55005262971E+02  0.36509871509E+02  0.95821797747E+02  0.11637664854E+03  0.17770000000E+01 0.  1.
</event>
<event>
 7    1  0.2809211E-007  0.1318310E+03  0.7546771E-02  0.1117935E+00
        -11   -1    0    0    0    0  0.00000000000E+00  0.00000000000E+00  0.18250000000E+03  0.18250000000E+03  0.00000000000E+00 0.  1.
         11   -1    0    0    0    0 -0.00000000000E+00 -0.00000000000E+00 -0.18250000000E+03  0.18250000000E+03  0.00000000000E+00 0. -1.
         23    2    1    2    0    0 -0.35778007685E+02 -0.59251677773E+02  0.19112192068E+02  0.12147486176E+03  0.97979788733E+02 0.  0.
        -11    1    1    2    0    0  0.12187951853E+03  0.46714713561E+01  0.36612291525E+02  0.12734559110E+03  0.00000000000E+00 0.  1.
         11    1    1    2    0    0 -0.86101510847E+02  0.54580206417E+02 -0.55724483593E+02  0.11617954714E+03  0.00000000000E+00 0. -1.
        -15    1    3    3    0    0  0.88636269401E+01  0.56977627981E+01  0.38781051118E+02  0.40226310274E+02  0.17770000000E+01 0.  1.
         15    1    3    3    0    0 -0.44641634625E+02 -0.64949440571E+02 -0.19668859050E+02  0.81248551481E+02  0.17770000000E+01 0. -1.
</event>
<event>
 7    1  0.2809211E-007  0.1646681E+03  0.7546771E-02  0.1083607E+00
        -11   -1    0    0    0    0  0.00000000000E+00  0.00000000000E+00  0.18250000000E+03  0.18250000000E+03  0.00000000000E+00 0. -1.
         11   -1    0    0    0    0 -0.00000000000E+00 -0.00000000000E+00 -0.18250000000E+03  0.18250000000E+03  0.00000000000E+00 0.  1.
         23    2    1    2    0    0 -0.23801126102E+02  0.32143151947E+02  0.10257513377E+03  0.14370015006E+03  0.92349332641E+02 0.  0.
        -11    1    1    2    0    0 -0.39715547255E+02  0.72707023272E+01  0.42175990522E+02  0.58386659286E+02  0.00000000000E+00 0. -1.
         11    1    1    2    0    0  0.63516673357E+02 -0.39413854274E+02 -0.14475112429E+03  0.16291319065E+03  0.00000000000E+00 0.  1.
        -15    1    3    3    0    0 -0.64697844232E+01  0.49198931816E+02  0.13654419573E+02  0.51497513583E+02  0.17770000000E+01 0.  1.
         15    1    3    3    0    0 -0.17331341678E+02 -0.17055779870E+02  0.88920714200E+02  0.92202636481E+02  0.17770000000E+01 0. -1.
</event>
<event>
 7    1  0.2809211E-007  0.1388741E+03  0.7546771E-02  0.1109704E+00
        -11   -1    0    0    0    0  0.00000000000E+00  0.00000000000E+00  0.18250000000E+03  0.18250000000E+03  0.00000000000E+00 0.  1.
         11   -1    0    0    0    0 -0.00000000000E+00 -0.00000000000E+00 -0.18250000000E+03  0.18250000000E+03  0.00000000000E+00 0. -1.
         23    2    1    2    0    0  0.94319300217E+02 -0.84944088558E+02  0.64401307734E+01  0.15637101254E+03  0.91097693185E+02 0.  0.
        -11    1    1    2    0    0 -0.39375757924E+02  0.49564003875E+02  0.78891917009E+02  0.10114828403E+03  0.00000000000E+00 0.  1.
         11    1    1    2    0    0 -0.54943542293E+02  0.35380084683E+02 -0.85332047782E+02  0.10748070343E+03  0.00000000000E+00 0. -1.
        -15    1    3    3    0    0  0.10830865208E+03 -0.89911226684E+02  0.20588800589E+01  0.14079129773E+03  0.17770000000E+01 0. -1.
         15    1    3    3    0    0 -0.13989351866E+02  0.49671381254E+01  0.43812507145E+01  0.15579714811E+02  0.17770000000E+01 0.  1.
</event>
<event>
 7    1  0.2809211E-007  0.1345271E+03  0.7546771E-02  0.1114719E+00
        -11   -1    0    0    0    0  0.00000000000E+00  0.00000000000E+00  0.18250000000E+03  0.18250000000E+03  0.00000000000E+00 0. -1.
         11   -1    0    0    0    0 -0.00000000000E+00 -0.00000000000E+00 -0.18250000000E+03  0.18250000000E+03  0.00000000000E+00 0.  1.
         23    2    1    2    0    0  0.41967862259E+02  0.22358464817E+02  0.55021220669E+02  0.11236159346E+03  0.85653899789E+02 0.  0.
        -11    1    1    2    0    0 -0.56179442218E+02  0.18238961766E+02  0.86490053722E+02  0.10473451603E+03  0.00000000000E+00 0. -1.
         11    1    1    2    0    0  0.14211579959E+02 -0.40597426583E+02 -0.14151127439E+03  0.14790389052E+03  0.00000000000E+00 0.  1.
        -15    1    3    3    0    0  0.18371933943E+01 -0.59819804040E+01  0.62322703455E+02  0.62661283613E+02  0.17770000000E+01 0.  1.
         15    1    3    3    0    0  0.40130668864E+02  0.28340445221E+02 -0.73014827860E+01  0.49700309845E+02  0.17770000000E+01 0. -1.
</event>
<event>
 7    1  0.2809211E-007  0.1664386E+03  0.7546771E-02  0.1082011E+00
        -11   -1    0    0    0    0  0.00000000000E+00  0.00000000000E+00  0.18250000000E+03  0.18250000000E+03  0.00000000000E+00 0. -1.
         11   -1    0    0    0    0 -0.00000000000E+00 -0.00000000000E+00 -0.18250000000E+03  0.18250000000E+03  0.00000000000E+00 0. -1.
         23    2    1    2    0    0  0.15536919030E+02 -0.16292753543E+02  0.12336844377E+03  0.15380610227E+03  0.89048832144E+02 0.  0.
        -11    1    1    2    0    0  0.14206596074E+02 -0.48340422100E+02  0.17532805597E+02  0.53348130735E+02  0.00000000000E+00 0. -1.
         11    1    1    2    0    0 -0.29743515104E+02  0.64633175643E+02 -0.14090124937E+03  0.15784576699E+03  0.00000000000E+00 0. -1.
        -15    1    3    3    0    0 -0.27736064144E+02 -0.11757806193E+02  0.99858512918E+02  0.10431881706E+03  0.17770000000E+01 0.  1.
         15    1    3    3    0    0  0.43272983174E+02 -0.45349473491E+01  0.23509930853E+02  0.49487285215E+02  0.17770000000E+01 0. -1.
</event>
<event>
 7    1  0.2809211E-007  0.1377185E+03  0.7546771E-02  0.1111017E+00
        -11   -1    0    0    0    0  0.00000000000E+00  0.00000000000E+00  0.18250000000E+03  0.18250000000E+03  0.00000000000E+00 0. -1.
         11   -1    0    0    0    0 -0.00000000000E+00 -0.00000000000E+00 -0.18250000000E+03  0.18250000000E+03  0.00000000000E+00 0. -1.
         23    2    1    2    0    0 -0.64814058247E+02 -0.37246413694E+02  0.10505156505E+03  0.14733827998E+03  0.71306240593E+02 0.  0.
        -11    1    1    2    0    0  0.24739027089E+02  0.89695896884E+02  0.64522356223E+00  0.93047244412E+02  0.00000000000E+00 0. -1.
         11    1    1    2    0    0  0.40075031158E+02 -0.52449483190E+02 -0.10569678861E+03  0.12461447561E+03  0.00000000000E+00 0. -1.
        -15    1    3    3    0    0  0.12737083089E+02  0.40067913066E+01  0.25389391230E+02  0.28741373979E+02  0.17770000000E+01 0.  1.
         15    1    3    3    0    0 -0.77551141336E+02 -0.41253205000E+02  0.79662173820E+02  0.11859690600E+03  0.17770000000E+01 0. -1.
</event>
<event>
 7    1  0.2809211E-007  0.1515909E+03  0.7546771E-02  0.1096124E+00
        -11   -1    0    0    0    0  0.00000000000E+00  0.00000000000E+00  0.18250000000E+03  0.18250000000E+03  0.00000000000E+00 0.  1.
         11   -1    0    0    0    0 -0.00000000000E+00 -0.00000000000E+00 -0.18250000000E+03  0.18250000000E+03  0.00000000000E+00 0. -1.
         23    2    1    2    0    0  0.61189210936E+02  0.66017647837E+00  0.77825136614E+02  0.13238917536E+03  0.87895315548E+02 0.  0.
        -11    1    1    2    0    0 -0.14838971886E+02 -0.47532413775E+02  0.61111221888E+02  0.78829606662E+02  0.00000000000E+00 0.  1.
         11    1    1    2    0    0 -0.46350239050E+02  0.46872237296E+02 -0.13893635850E+03  0.15378121798E+03  0.00000000000E+00 0. -1.
        -15    1    3    3    0    0  0.14020540228E+01  0.33163952187E+02  0.47230577781E+02  0.57755507847E+02  0.17770000000E+01 0. -1.
         15    1    3    3    0    0  0.59787156913E+02 -0.32503775709E+02  0.30594558833E+02  0.74633667512E+02  0.17770000000E+01 0.  1.
</event>
<event>
 7    1  0.2809211E-007  0.1325657E+03  0.7546771E-02  0.1117050E+00
        -11   -1    0    0    0    0  0.00000000000E+00  0.00000000000E+00  0.18250000000E+03  0.18250000000E+03  0.00000000000E+00 0. -1.
         11   -1    0    0    0    0 -0.00000000000E+00 -0.00000000000E+00 -0.18250000000E+03  0.18250000000E+03  0.00000000000E+00 0.  1.
         23    2    1    2    0    0 -0.33121696676E+02 -0.22384833221E+02  0.51695145483E+02  0.11228493890E+03  0.91309319835E+02 0.  0.
        -11    1    1    2    0    0  0.78706116147E+02 -0.36449263787E+02  0.69056188452E+02  0.11086910622E+03  0.00000000000E+00 0. -1.
         11    1    1    2    0    0 -0.45584419471E+02  0.58834097007E+02 -0.12075133394E+03  0.14184595488E+03  0.00000000000E+00 0.  1.
        -15    1    3    3    0    0 -0.33803654294E+01  0.15377183593E+02  0.61231342565E+02  0.63248080501E+02  0.17770000000E+01 0. -1.
         15    1    3    3    0    0 -0.29741331246E+02 -0.37762016814E+02 -0.95361970821E+01  0.49036858402E+02  0.17770000000E+01 0.  1.
</event>
<event>
 7    1  0.2809211E-007  0.1654361E+03  0.7546771E-02  0.1082912E+00
        -11   -1    0    0    0    0  0.00000000000E+00  0.00000000000E+00  0.18250000000E+03  0.18250000000E+03  0.00000000000E+00 0. -1.
         11   -1    0    0    0    0 -0.00000000000E+00 -0.00000000000E+00 -0.18250000000E+03  0.18250000000E+03  0.00000000000E+00 0. -1.
         23    2    1    2    0    0 -0.93240209440E+01 -0.29350703423E+00  0.15339758160E+03  0.17863744554E+03  0.91068630141E+02 0.  0.
        -11    1    1    2    0    0  0.11100320316E+02  0.45373990234E+02 -0.31385710615E+02  0.56276806339E+02  0.00000000000E+00 0. -1.
         11    1    1    2    0    0 -0.17762993718E+01 -0.45080483200E+02 -0.12201187098E+03  0.13008574812E+03  0.00000000000E+00 0. -1.
        -15    1    3    3    0    0 -0.50373207725E+02 -0.13417340442E+01  0.82568624420E+02  0.96747071141E+02  0.17770000000E+01 0.  1.
         15    1    3    3    0    0  0.41049186781E+02  0.10482270100E+01  0.70828957175E+02  0.81890374396E+02  0.17770000000E+01 0. -1.
</event>
<event>
 7    1  0.2809211E-007  0.1476137E+03  0.7546771E-02  0.1100209E+00
        -11   -1    0    0    0    0  0.00000000000E+00  0.00000000000E+00  0.18250000000E+03  0.18250000000E+03  0.00000000000E+00 0. -1.
         11   -1    0    0    0    0 -0.00000000000E+00 -0.00000000000E+00 -0.18250000000E+03  0.18250000000E+03  0.00000000000E+00 0. -1.
         23    2    1    2    0    0  0.69109686561E+02 -0.51953558398E+02 -0.89559579763E+02  0.15047795266E+03  0.84542148670E+02 0.  0.
        -11    1    1    2    0    0 -0.39843374963E+01 -0.57747061249E+02  0.60395628513E+02  0.83655424042E+02  0.00000000000E+00 0. -1.
         11    1    1    2    0    0 -0.65125349064E+02  0.10970061965E+03  0.29163951251E+02  0.13086662330E+03  0.00000000000E+00 0. -1.
        -15    1    3    3    0    0  0.16784024163E+02  0.23461827046E+02 -0.25356394432E+02  0.38448215343E+02  0.17770000000E+01 0.  1.
         15    1    3    3    0    0  0.52325662398E+02 -0.75415385445E+02 -0.64203185331E+02  0.11202973731E+03  0.17770000000E+01 0. -1.
</event>
<event>
 7    1  0.2809211E-007  0.1503070E+03  0.7546771E-02  0.1097428E+00
        -11   -1    0    0    0    0  0.00000000000E+00  0.00000000000E+00  0.18250000000E+03  0.18250000000E+03  0.00000000000E+00 0.  1.
         11   -1    0    0    0    0 -0.00000000000E+00 -0.00000000000E+00 -0.18250000000E+03  0.18250000000E+03  0.00000000000E+00 0. -1.
         23    2    1    2    0    0 -0.16828250812E+02  0.17762458161E+02  0.79103681807E+02  0.12095614531E+03  0.88172000479E+02 0.  0.
        -11    1    1    2    0    0  0.98811383113E+00  0.21531293486E+02  0.78209723368E+02  0.81125420168E+02  0.00000000000E+00 0.  1.
         11    1    1    2    0    0  0.15840136981E+02 -0.39293751647E+02 -0.15731340518E+03  0.16291843452E+03  0.00000000000E+00 0. -1.
        -15    1    3    3    0    0  0.35579402776E+02  0.15918743108E+02  0.34829470195E+02  0.52302485669E+02  0.17770000000E+01 0.  1.
         15    1    3    3    0    0 -0.52407653588E+02  0.18437150527E+01  0.44274211612E+02  0.68653659646E+02  0.17770000000E+01 0. -1.
</event>
<event>
 7    1  0.2809211E-007  0.1698732E+03  0.7546771E-02  0.1078975E+00
        -11   -1    0    0    0    0  0.00000000000E+00  0.00000000000E+00  0.18250000000E+03  0.18250000000E+03  0.00000000000E+00 0.  1.
         11   -1    0    0    0    0 -0.00000000000E+00 -0.00000000000E+00 -0.18250000000E+03  0.18250000000E+03  0.00000000000E+00 0.  1.
         23    2    1    2    0    0 -0.25238008176E+01 -0.23204990298E+02  0.11764360194E+03  0.15099196859E+03  0.91726312234E+02 0.  0.
        -11    1    1    2    0    0  0.12682565256E+02  0.42397200577E+01  0.46538825264E+02  0.48421946931E+02  0.00000000000E+00 0.  1.
         11    1    1    2    0    0 -0.10158764438E+02  0.18965270240E+02 -0.16418242720E+03  0.16558608448E+03  0.00000000000E+00 0.  1.
        -15    1    3    3    0    0  0.24623906305E+02  0.54537602208E+01 -0.16372221589E+01  0.25336110350E+02  0.17770000000E+01 0. -1.
         15    1    3    3    0    0 -0.27147707123E+02 -0.28658750519E+02  0.11928082410E+03  0.12565585824E+03  0.17770000000E+01 0.  1.
</event>
<event>
 7    1  0.2809211E-007  0.1634582E+03  0.7546771E-02  0.1084711E+00
        -11   -1    0    0    0    0  0.00000000000E+00  0.00000000000E+00  0.18250000000E+03  0.18250000000E+03  0.00000000000E+00 0.  1.
         11   -1    0    0    0    0 -0.00000000000E+00 -0.00000000000E+00 -0.18250000000E+03  0.18250000000E+03  0.00000000000E+00 0. -1.
         23    2    1    2    0    0  0.27150397704E+02  0.13781484828E+02 -0.11887385128E+03  0.15385287469E+03  0.92804316241E+02 0.  0.
        -11    1    1    2    0    0 -0.76664815639E+02  0.20457188512E+02  0.12766005959E+03  0.15030995088E+03  0.00000000000E+00 0.  1.
         11    1    1    2    0    0  0.49514417935E+02 -0.34238673340E+02 -0.87862083138E+01  0.60837174425E+02  0.00000000000E+00 0. -1.
        -15    1    3    3    0    0 -0.10113039500E+01  0.46431186385E+02 -0.30743280637E+02  0.55724185396E+02  0.17770000000E+01 0. -1.
         15    1    3    3    0    0  0.28161701654E+02 -0.32649701557E+02 -0.88130570644E+02  0.98128689295E+02  0.17770000000E+01 0.  1.
</event>
<event>
 7    1  0.2809211E-007  0.1865406E+03  0.7546771E-02  0.1065283E+00
        -11   -1    0    0    0    0  0.00000000000E+00  0.00000000000E+00  0.18250000000E+03  0.18250000000E+03  0.00000000000E+00 0. -1.
         11   -1    0    0    0    0 -0.00000000000E+00 -0.00000000000E+00 -0.18250000000E+03  0.18250000000E+03  0.00000000000E+00 0. -1.
         23    2    1    2    0    0 -0.10768346138E+02 -0.74351136700E+01  0.16202795933E+03  0.18654056780E+03  0.91504566198E+02 0.  0.
        -11    1    1    2    0    0 -0.30874281417E+02  0.13446828091E+01 -0.49911260911E+02  0.58704032149E+02  0.00000000000E+00 0. -1.
         11    1    1    2    0    0  0.41642627555E+02  0.60904308608E+01 -0.11211669842E+03  0.11975540005E+03  0.00000000000E+00 0. -1.
        -15    1    3    3    0    0 -0.37313147346E+02 -0.25299256992E+02  0.14141627302E+03  0.14843868557E+03  0.17770000000E+01 0. -1.
         15    1    3    3    0    0  0.26544801207E+02  0.17864143322E+02  0.20611686309E+02  0.38101882227E+02  0.17770000000E+01 0.  1.
</event>
<event>
 7    1  0.2809211E-007  0.1854880E+03  0.7546771E-02  0.1066101E+00
        -11   -1    0    0    0    0  0.00000000000E+00  0.00000000000E+00  0.18250000000E+03  0.18250000000E+03  0.00000000000E+00 0. -1.
         11   -1    0    0    0    0 -0.00000000000E+00 -0.00000000000E+00 -0.18250000000E+03  0.18250000000E+03  0.00000000000E+00 0. -1.
         23    2    1    2    0    0 -0.90882629250E+01 -0.29576798243E+02  0.15810917504E+03  0.18509763611E+03  0.91133090270E+02 0.  0.
        -11    1    1    2    0    0 -0.75823158212E+01  0.15535269322E+02  0.28100031617E+01  0.17513772406E+02  0.00000000000E+00 0. -1.
         11    1    1    2    0    0  0.16670578746E+02  0.14041528922E+02 -0.16091917821E+03  0.16238859149E+03  0.00000000000E+00 0. -1.
        -15    1    3    3    0    0 -0.27910476693E+02  0.24219716019E+02  0.43637582165E+02  0.57210013630E+02  0.17770000000E+01 0.  1.
         15    1    3    3    0    0  0.18822213768E+02 -0.53796514262E+02  0.11447159288E+03  0.12788762248E+03  0.17770000000E+01 0. -1.
</event>
<event>
 7    1  0.2809211E-007  0.1767427E+03  0.7546771E-02  0.1073132E+00
        -11   -1    0    0    0    0  0.00000000000E+00  0.00000000000E+00  0.18250000000E+03  0.18250000000E+03  0.00000000000E+00 0.  1.
         11   -1    0    0    0    0 -0.00000000000E+00 -0.00000000000E+00 -0.18250000000E+03  0.18250000000E+03  0.00000000000E+00 0.  1.
         23    2    1    2    0    0  0.89487152721E+01  0.59786810603E+02  0.12392182959E+03  0.16345435785E+03  0.87784765335E+02 0.  0.
        -11    1    1    2    0    0 -0.80019266224E+01  0.36976706899E+01  0.32000287243E+02  0.33192197605E+02  0.00000000000E+00 0.  1.
         11    1    1    2    0    0 -0.94678864964E+00 -0.63484481293E+02 -0.15592211683E+03  0.16835344455E+03  0.00000000000E+00 0.  1.
        -15    1    3    3    0    0  0.40229691039E+02  0.88956044141E+01  0.77466545576E+02  0.87759804190E+02  0.17770000000E+01 0. -1.
         15    1    3    3    0    0 -0.31280975767E+02  0.50891206189E+02  0.46455284010E+02  0.75694553660E+02  0.17770000000E+01 0.  1.
</event>
<event>
 7    1  0.2809211E-007  0.1734111E+03  0.7546771E-02  0.1075929E+00
        -11   -1    0    0    0    0  0.00000000000E+00  0.00000000000E+00  0.18250000000E+03  0.18250000000E+03  0.00000000000E+00 0.  1.
         11   -1    0    0    0    0 -0.00000000000E+00 -0.00000000000E+00 -0.18250000000E+03  0.18250000000E+03  0.00000000000E+00 0. -1.
         23    2    1    2    0    0  0.47232992448E+02 -0.56320136575E+02 -0.11549230250E+03  0.16568666021E+03  0.93331045622E+02 0.  0.
        -11    1    1    2    0    0 -0.79286048844E+02  0.32976273682E+02  0.13108362683E+03  0.15670554997E+03  0.00000000000E+00 0.  1.
         11    1    1    2    0    0  0.32053056395E+02  0.23343862892E+02 -0.15591324329E+02  0.42607789820E+02  0.00000000000E+00 0. -1.
        -15    1    3    3    0    0  0.56857770173E+02 -0.15243079176E+02 -0.21587320734E+02  0.62724218905E+02  0.17770000000E+01 0.  1.
         15    1    3    3    0    0 -0.96247777248E+01 -0.41077057399E+02 -0.93904981766E+02  0.10296244131E+03  0.17770000000E+01 0. -1.
</event>
<event>
 7    1  0.2809211E-007  0.1791526E+03  0.7546771E-02  0.1071151E+00
        -11   -1    0    0    0    0  0.00000000000E+00  0.00000000000E+00  0.18250000000E+03  0.18250000000E+03  0.00000000000E+00 0.  1.
         11   -1    0    0    0    0 -0.00000000000E+00 -0.00000000000E+00 -0.18250000000E+03  0.18250000000E+03  0.00000000000E+00 0. -1.
         23    2    1    2    0    0 -0.97899380946E+02  0.19158826115E+02  0.10209240285E+03  0.16909528105E+03  0.90658733431E+02 0.  0.
        -11    1    1    2    0    0 -0.27189958902E+02 -0.10778347378E+02  0.65936173143E+01  0.29982368595E+02  0.00000000000E+00 0.  1.
         11    1    1    2    0    0  0.12508933985E+03 -0.83804787373E+01 -0.10868602016E+03  0.16592235035E+03  0.00000000000E+00 0. -1.
        -15    1    3    3    0    0 -0.84388199388E+02  0.23973162903E+02  0.11835822683E+03  0.14733603878E+03  0.17770000000E+01 0.  1.
         15    1    3    3    0    0 -0.13511181558E+02 -0.48143367875E+01 -0.16265823978E+02  0.21759242278E+02  0.17770000000E+01 0. -1.
</event>
<event>
 7    1  0.2809211E-007  0.1554902E+03  0.7546771E-02  0.1092251E+00
        -11   -1    0    0    0    0  0.00000000000E+00  0.00000000000E+00  0.18250000000E+03  0.18250000000E+03  0.00000000000E+00 0. -1.
         11   -1    0    0    0    0 -0.00000000000E+00 -0.00000000000E+00 -0.18250000000E+03  0.18250000000E+03  0.00000000000E+00 0. -1.
         23    2    1    2    0    0  0.87636377005E+02 -0.21051443578E+02  0.44040553066E+02  0.13396592687E+03  0.88791899388E+02 0.  0.
        -11    1    1    2    0    0 -0.13725132421E+03  0.72576353513E+02 -0.31134683409E+02  0.15834968139E+03  0.00000000000E+00 0. -1.
         11    1    1    2    0    0  0.49614947206E+02 -0.51524909936E+02 -0.12905869657E+02  0.72684391734E+02  0.00000000000E+00 0. -1.
        -15    1    3    3    0    0  0.16577845278E+02  0.22437645706E+02 -0.15110593346E+02  0.31776731411E+02  0.17770000000E+01 0.  1.
         15    1    3    3    0    0  0.71058531727E+02 -0.43489089284E+02  0.59151146412E+02  0.10218919546E+03  0.17770000000E+01 0. -1.
</event>
<event>
 7    1  0.2809211E-007  0.1391250E+03  0.7546771E-02  0.1109421E+00
        -11   -1    0    0    0    0  0.00000000000E+00  0.00000000000E+00  0.18250000000E+03  0.18250000000E+03  0.00000000000E+00 0. -1.
         11   -1    0    0    0    0 -0.00000000000E+00 -0.00000000000E+00 -0.18250000000E+03  0.18250000000E+03  0.00000000000E+00 0. -1.
         23    2    1    2    0    0  0.11624168911E+03  0.10077412264E+01  0.96689747887E+02  0.17016625229E+03  0.78067280229E+02 0.  0.
        -11    1    1    2    0    0 -0.60320649851E+02 -0.61886386957E+02 -0.52096295653E+02  0.10090852149E+03  0.00000000000E+00 0. -1.
         11    1    1    2    0    0 -0.55921039259E+02  0.60878645731E+02 -0.44593452234E+02  0.93925226217E+02  0.00000000000E+00 0. -1.
        -15    1    3    3    0    0  0.68048820261E+02  0.76013782683E+01  0.79512883212E+01  0.68955083971E+02  0.17770000000E+01 0.  1.
         15    1    3    3    0    0  0.48192868849E+02 -0.65936370419E+01  0.88738459565E+02  0.10121116832E+03  0.17770000000E+01 0. -1.
</event>
<event>
 7    1  0.2809211E-007  0.1457064E+03  0.7546771E-02  0.1102218E+00
        -11   -1    0    0    0    0  0.00000000000E+00  0.00000000000E+00  0.18250000000E+03  0.18250000000E+03  0.00000000000E+00 0.  1.
         11   -1    0    0    0    0 -0.00000000000E+00 -0.00000000000E+00 -0.18250000000E+03  0.18250000000E+03  0.00000000000E+00 0. -1.
         23    2    1    2    0    0  0.12054837915E+02  0.34718505429E+02  0.91336379395E+02  0.13488676064E+03  0.92203092463E+02 0.  0.
        -11    1    1    2    0    0  0.77669532980E+02 -0.45013207904E+02  0.14551031248E+02  0.90942167060E+02  0.00000000000E+00 0.  1.
         11    1    1    2    0    0 -0.89724370895E+02  0.10294702475E+02 -0.10588741064E+03  0.13917107230E+03  0.00000000000E+00 0. -1.
        -15    1    3    3    0    0 -0.24484164662E+02 -0.17099099769E+02  0.95864120517E+01  0.31415132613E+02  0.17770000000E+01 0. -1.
         15    1    3    3    0    0  0.36539002577E+02  0.51817605198E+02  0.81749967343E+02  0.10347162803E+03  0.17770000000E+01 0.  1.
</event>
<event>
 7    1  0.2809211E-007  0.1676938E+03  0.7546771E-02  0.1080892E+00
        -11   -1    0    0    0    0  0.00000000000E+00  0.00000000000E+00  0.18250000000E+03  0.18250000000E+03  0.00000000000E+00 0. -1.
         11   -1    0    0    0    0 -0.00000000000E+00 -0.00000000000E+00 -0.18250000000E+03  0.18250000000E+03  0.00000000000E+00 0.  1.
         23    2    1    2    0    0 -0.13678331105E+02  0.15879100167E+02 -0.12294727861E+03  0.15727050924E+03  0.95805726326E+02 0.  0.
        -11    1    1    2    0    0  0.61228171443E+02  0.53219629933E+01  0.14004039864E+03  0.15293307529E+03  0.00000000000E+00 0. -1.
         11    1    1    2    0    0 -0.47549840338E+02 -0.21201063161E+02 -0.17093120029E+02  0.54796415464E+02  0.00000000000E+00 0.  1.
        -15    1    3    3    0    0  0.24774152407E+02  0.17457801620E+02 -0.21012409638E+01  0.30431996443E+02  0.17770000000E+01 0. -1.
         15    1    3    3    0    0 -0.38452483512E+02 -0.15787014526E+01 -0.12084603764E+03  0.12683851280E+03  0.17770000000E+01 0.  1.
</event>
<event>
 7    1  0.2809211E-007  0.1519840E+03  0.7546771E-02  0.1095728E+00
        -11   -1    0    0    0    0  0.00000000000E+00  0.00000000000E+00  0.18250000000E+03  0.18250000000E+03  0.00000000000E+00 0.  1.
         11   -1    0    0    0    0 -0.00000000000E+00 -0.00000000000E+00 -0.18250000000E+03  0.18250000000E+03  0.00000000000E+00 0. -1.
         23    2    1    2    0    0 -0.64176547882E+02 -0.45630420594E+02  0.27999685567E+02  0.12391016000E+03  0.91482133647E+02 0.  0.
        -11    1    1    2    0    0 -0.70934149694E+02 -0.37297169382E+02 -0.21033337467E+00  0.80142227801E+02  0.00000000000E+00 0.  1.
         11    1    1    2    0    0  0.13511069758E+03  0.82927589976E+02 -0.27789352193E+02  0.16094761220E+03  0.00000000000E+00 0. -1.
        -15    1    3    3    0    0 -0.79037530659E+02 -0.47435151503E+02  0.43800135270E+02  0.10207171219E+03  0.17770000000E+01 0.  1.
         15    1    3    3    0    0  0.14860982777E+02  0.18047309086E+01 -0.15800449703E+02  0.21838447806E+02  0.17770000000E+01 0. -1.
</event>
<event>
 7    1  0.2809211E-007  0.1749007E+03  0.7546771E-02  0.1074670E+00
        -11   -1    0    0    0    0  0.00000000000E+00  0.00000000000E+00  0.18250000000E+03  0.18250000000E+03  0.00000000000E+00 0.  1.
         11   -1    0    0    0    0 -0.00000000000E+00 -0.00000000000E+00 -0.18250000000E+03  0.18250000000E+03  0.00000000000E+00 0. -1.
         23    2    1    2    0    0  0.87322781925E+02  0.76584329312E+02 -0.86314278523E+02  0.17217659917E+03  0.93296296200E+02 0.  0.
        -11    1    1    2    0    0 -0.93394524851E+02 -0.46819802868E+02  0.11191281778E+03  0.15309836706E+03  0.00000000000E+00 0.  1.
         11    1    1    2    0    0  0.60717429255E+01 -0.29764526444E+02 -0.25598539253E+02  0.39725033775E+02  0.00000000000E+00 0. -1.
        -15    1    3    3    0    0  0.24138577433E+02 -0.13692554113E+02 -0.48050256753E+02  0.55517041182E+02  0.17770000000E+01 0.  1.
         15    1    3    3    0    0  0.63184204493E+02  0.90276883425E+02 -0.38264021771E+02  0.11665955799E+03  0.17770000000E+01 0. -1.
</event>
<event>
 7    1  0.2809211E-007  0.1736362E+03  0.7546771E-02  0.1075738E+00
        -11   -1    0    0    0    0  0.00000000000E+00  0.00000000000E+00  0.18250000000E+03  0.18250000000E+03  0.00000000000E+00 0.  1.
         11   -1    0    0    0    0 -0.00000000000E+00 -0.00000000000E+00 -0.18250000000E+03  0.18250000000E+03  0.00000000000E+00 0.  1.
         23    2    1    2    0    0  0.34652463961E+02  0.49135868759E+01  0.13162833716E+03  0.16410365707E+03  0.91537175647E+02 0.  0.
        -11    1    1    2    0    0  0.38592885013E+02 -0.10139452026E+02  0.10200087117E+02  0.41185689726E+02  0.00000000000E+00 0.  1.
         11    1    1    2    0    0 -0.73245348975E+02  0.52258651497E+01 -0.14182842428E+03  0.15971065320E+03  0.00000000000E+00 0.  1.
        -15    1    3    3    0    0  0.56082646645E+02 -0.21658063685E+02  0.10405084541E+03  0.12018348945E+03  0.17770000000E+01 0.  1.
         15    1    3    3    0    0 -0.21430182683E+02  0.26571650561E+02  0.27577491752E+02  0.43920167619E+02  0.17770000000E+01 0. -1.
</event>
<event>
 7    1  0.2809211E-007  0.1923397E+03  0.7546771E-02  0.1060881E+00
        -11   -1    0    0    0    0  0.00000000000E+00  0.00000000000E+00  0.18250000000E+03  0.18250000000E+03  0.00000000000E+00 0. -1.
         11   -1    0    0    0    0 -0.00000000000E+00 -0.00000000000E+00 -0.18250000000E+03  0.18250000000E+03  0.00000000000E+00 0.  1.
         23    2    1    2    0    0  0.14409795425E+02 -0.28507561134E+02  0.16641017766E+03  0.19233965462E+03  0.91004792518E+02 0.  0.
        -11    1    1    2    0    0 -0.67849080381E+01 -0.51267494649E+01 -0.13864890402E+02  0.16265107532E+02  0.00000000000E+00 0. -1.
         11    1    1    2    0    0 -0.76248873865E+01  0.33634310599E+02 -0.15254528726E+03  0.15639523785E+03  0.00000000000E+00 0.  1.
        -15    1    3    3    0    0  0.49606424456E+02 -0.32059548463E+02  0.84627089116E+02  0.10321586087E+03  0.17770000000E+01 0. -1.
         15    1    3    3    0    0 -0.35196629031E+02  0.35519873292E+01  0.81783088549E+02  0.89123793741E+02  0.17770000000E+01 0.  1.
</event>
<event>
 7    1  0.2809211E-007  0.1419450E+03  0.7546771E-02  0.1106282E+00
        -11   -1    0    0    0    0  0.00000000000E+00  0.00000000000E+00  0.18250000000E+03  0.18250000000E+03  0.00000000000E+00 0.  1.
         11   -1    0    0    0    0 -0.00000000000E+00 -0.00000000000E+00 -0.18250000000E+03  0.18250000000E+03  0.00000000000E+00 0. -1.
         23    2    1    2    0    0 -0.38965024992E+02 -0.10455446958E+03 -0.39449605951E+02  0.15023711389E+03  0.92547332204E+02 0.  0.
        -11    1    1    2    0    0  0.37738526612E+02 -0.18258164306E+01  0.89531229373E+02  0.97177008750E+02  0.00000000000E+00 0.  1.
         11    1    1    2    0    0  0.12264983799E+01  0.10638028601E+03 -0.50081623423E+02  0.11758587736E+03  0.00000000000E+00 0. -1.
        -15    1    3    3    0    0  0.17171786440E+02 -0.70079318993E+02 -0.43398169212E+02  0.84217219261E+02  0.17770000000E+01 0. -1.
         15    1    3    3    0    0 -0.56136811432E+02 -0.34475150588E+02  0.39485632619E+01  0.66019894628E+02  0.17770000000E+01 0.  1.
</event>
<event>
 7    1  0.2809211E-007  0.1746130E+03  0.7546771E-02  0.1074912E+00
        -11   -1    0    0    0    0  0.00000000000E+00  0.00000000000E+00  0.18250000000E+03  0.18250000000E+03  0.00000000000E+00 0.  1.
         11   -1    0    0    0    0 -0.00000000000E+00 -0.00000000000E+00 -0.18250000000E+03  0.18250000000E+03  0.00000000000E+00 0.  1.
         23    2    1    2    0    0  0.42256492547E+02  0.17183156418E+02  0.12255377994E+03  0.16196440906E+03  0.95562381707E+02 0.  0.
        -11    1    1    2    0    0  0.32392300225E+02  0.20963418130E+02  0.15452430140E+02  0.41563248319E+02  0.00000000000E+00 0.  1.
         11    1    1    2    0    0 -0.74648792772E+02 -0.38146574547E+02 -0.13800621008E+03  0.16147234262E+03  0.00000000000E+00 0.  1.
        -15    1    3    3    0    0  0.47788857515E+02 -0.30875139563E+02  0.74472351181E+02  0.93735468020E+02  0.17770000000E+01 0.  1.
         15    1    3    3    0    0 -0.55323649675E+01  0.48058295981E+02  0.48081428758E+02  0.68228941038E+02  0.17770000000E+01 0. -1.
</event>
<event>
 7    1  0.2809211E-007  0.1775555E+03  0.7546771E-02  0.1072460E+00
        -11   -1    0    0    0    0  0.00000000000E+00  0.00000000000E+00  0.18250000000E+03  0.18250000000E+03  0.00000000000E+00 0. -1.
         11   -1    0    0    0    0 -0.00000000000E+00 -0.00000000000E+00 -0.18250000000E+03  0.18250000000E+03  0.00000000000E+00 0.  1.
         23    2    1    2    0    0 -0.13313861734E+02  0.10906857409E+03  0.11560556756E+03  0.18341213977E+03  0.90565738544E+02 0.  0.
        -11    1    1    2    0    0  0.26966146811E+02 -0.19066364948E+02  0.17413253346E+01  0.33071612601E+02  0.00000000000E+00 0. -1.
         11    1    1    2    0    0 -0.13652285076E+02 -0.90002209141E+02 -0.11734689289E+03  0.14851624763E+03  0.00000000000E+00 0.  1.
        -15    1    3    3    0    0 -0.60150345548E+01 -0.72388130232E+01 -0.87527592810E+01  0.12974959681E+02  0.17770000000E+01 0.  1.
         15    1    3    3    0    0 -0.72988271793E+01  0.11630738711E+03  0.12435832684E+03  0.17043718009E+03  0.17770000000E+01 0. -1.
</event>
<event>
 7    1  0.2809211E-007  0.1463843E+03  0.7546771E-02  0.1101500E+00
        -11   -1    0    0    0    0  0.00000000000E+00  0.00000000000E+00  0.18250000000E+03  0.18250000000E+03  0.00000000000E+00 0.  1.
         11   -1    0    0    0    0 -0.00000000000E+00 -0.00000000000E+00 -0.18250000000E+03  0.18250000000E+03  0.00000000000E+00 0. -1.
         23    2    1    2    0    0  0.21108687229E+02 -0.10620742374E+03  0.62396141167E+02  0.15657658676E+03  0.94325794735E+02 0.  0.
        -11    1    1    2    0    0 -0.36980702304E+02  0.68341327357E+02  0.47523690468E+02  0.91085731723E+02  0.00000000000E+00 0.  1.
         11    1    1    2    0    0  0.15872015075E+02  0.37866096387E+02 -0.10991983163E+03  0.11733768152E+03  0.00000000000E+00 0. -1.
        -15    1    3    3    0    0  0.74074410825E+01  0.13238172929E+02 -0.80016813274E+01  0.17242506748E+02  0.17770000000E+01 0. -1.
         15    1    3    3    0    0  0.13701246147E+02 -0.11944559667E+03  0.70397822494E+02  0.13933408001E+03  0.17770000000E+01 0.  1.
</event>
<event>
 7    1  0.2809211E-007  0.1339870E+03  0.7546771E-02  0.1115356E+00
        -11   -1    0    0    0    0  0.00000000000E+00  0.00000000000E+00  0.18250000000E+03  0.18250000000E+03  0.00000000000E+00 0. -1.
         11   -1    0    0    0    0 -0.00000000000E+00 -0.00000000000E+00 -0.18250000000E+03  0.18250000000E+03  0.00000000000E+00 0. -1.
         23    2    1    2    0    0 -0.54158064150E+02 -0.36689294348E+02 -0.78680579741E+01  0.11748661486E+03  0.97272802487E+02 0.  0.
        -11    1    1    2    0    0  0.40412380807E+02  0.50329682068E+02  0.11863984300E+03  0.13506165173E+03  0.00000000000E+00 0. -1.
         11    1    1    2    0    0  0.13745683343E+02 -0.13640387720E+02 -0.11077178503E+03  0.11245173341E+03  0.00000000000E+00 0. -1.
        -15    1    3    3    0    0 -0.43665916847E+02 -0.55569865395E+01  0.39931721171E+02  0.59458325558E+02  0.17770000000E+01 0. -1.
         15    1    3    3    0    0 -0.10492147303E+02 -0.31132307809E+02 -0.47799779145E+02  0.58028289306E+02  0.17770000000E+01 0.  1.
</event>
<event>
 7    1  0.2809211E-007  0.1687715E+03  0.7546771E-02  0.1079940E+00
        -11   -1    0    0    0    0  0.00000000000E+00  0.00000000000E+00  0.18250000000E+03  0.18250000000E+03  0.00000000000E+00 0. -1.
         11   -1    0    0    0    0 -0.00000000000E+00 -0.00000000000E+00 -0.18250000000E+03  0.18250000000E+03  0.00000000000E+00 0. -1.
         23    2    1    2    0    0 -0.85500595011E+02  0.41066360256E+01 -0.10450913440E+03  0.16033759539E+03  0.86364165688E+02 0.  0.
        -11    1    1    2    0    0  0.10854613715E+03 -0.45788324339E+02  0.10382344769E+03  0.15702911458E+03  0.00000000000E+00 0. -1.
         11    1    1    2    0    0 -0.23045542136E+02  0.41681688313E+02  0.68568670796E+00  0.47633290032E+02  0.00000000000E+00 0. -1.
        -15    1    3    3    0    0 -0.50085258622E+02  0.78989085162E+01 -0.11283482183E+03  0.12371653338E+03  0.17770000000E+01 0. -1.
         15    1    3    3    0    0 -0.35415336389E+02 -0.37922724907E+01  0.83256874260E+01  0.36621062004E+02  0.17770000000E+01 0.  1.
</event>
<event>
 7    1  0.6994411E-007  0.1712404E+03  0.7546771E-02  0.1077788E+00
        -11   -1    0    0    0    0  0.00000000000E+00  0.00000000000E+00  0.18250000000E+03  0.18250000000E+03  0.00000000000E+00 0.  1.
         11   -1    0    0    0    0 -0.00000000000E+00 -0.00000000000E+00 -0.18250000000E+03  0.18250000000E+03  0.00000000000E+00 0. -1.
         23    2    1    2    0    0  0.16302666246E+02  0.31918100340E+02 -0.12526609458E+03  0.15908914575E+03  0.91286471001E+02 0.  0.
        -11    1    1    2    0    0 -0.51800873899E+02 -0.18514861364E+02  0.15056929791E+03  0.16030359978E+03  0.00000000000E+00 0.  1.
         11    1    1    2    0    0  0.35498207653E+02 -0.13403238975E+02 -0.25303203337E+02  0.45607254475E+02  0.00000000000E+00 0. -1.
        -15    1    3    3    0    0 -0.76028220280E+01 -0.24919981556E+02 -0.75317209937E+02  0.79716047476E+02  0.17770000000E+01 0.  1.
         15    1    3    3    0    0  0.23905488274E+02  0.56838081896E+02 -0.49948884639E+02  0.79373098270E+02  0.17770000000E+01 0. -1.
</event>
<event>
 7    1  0.2809211E-007  0.1640309E+03  0.7546771E-02  0.1084187E+00
        -11   -1    0    0    0    0  0.00000000000E+00  0.00000000000E+00  0.18250000000E+03  0.18250000000E+03  0.00000000000E+00 0.  1.
         11   -1    0    0    0    0 -0.00000000000E+00 -0.00000000000E+00 -0.18250000000E+03  0.18250000000E+03  0.00000000000E+00 0.  1.
         23    2    1    2    0    0  0.33428624450E+02  0.11821351576E+02  0.11996388871E+03  0.15566198178E+03  0.92639628094E+02 0.  0.
        -11    1    1    2    0    0  0.43796822301E+02  0.40472935956E+02 -0.29557601606E+01  0.59707258409E+02  0.00000000000E+00 0.  1.
         11    1    1    2    0    0 -0.77225446751E+02 -0.52294287532E+02 -0.11700812855E+03  0.14963075981E+03  0.00000000000E+00 0.  1.
        -15    1    3    3    0    0  0.39497432472E+02 -0.32339991465E+02  0.84210404270E+02  0.98490974897E+02  0.17770000000E+01 0.  1.
         15    1    3    3    0    0 -0.60688080224E+01  0.44161343041E+02  0.35753484438E+02  0.57171006887E+02  0.17770000000E+01 0. -1.
</event>
<event>
 7    1  0.2809211E-007  0.1689907E+03  0.7546771E-02  0.1079747E+00
        -11   -1    0    0    0    0  0.00000000000E+00  0.00000000000E+00  0.18250000000E+03  0.18250000000E+03  0.00000000000E+00 0.  1.
         11   -1    0    0    0    0 -0.00000000000E+00 -0.00000000000E+00 -0.18250000000E+03  0.18250000000E+03  0.00000000000E+00 0. -1.
         23    2    1    2    0    0 -0.10231438907E+03  0.68991044928E+02 -0.85010354836E+02  0.17544408844E+03  0.91246201286E+02 0.  0.
        -11    1    1    2    0    0  0.56606118453E+02 -0.73998272876E+02  0.10415886628E+03  0.13974643630E+03  0.00000000000E+00 0.  1.
         11    1    1    2    0    0  0.45708270620E+02  0.50072279481E+01 -0.19148511440E+02  0.49809475255E+02  0.00000000000E+00 0. -1.
        -15    1    3    3    0    0 -0.47925107271E+02  0.82213058916E+02 -0.67798683327E+02  0.11685727257E+03  0.17770000000E+01 0. -1.
         15    1    3    3    0    0 -0.54389281803E+02 -0.13222013988E+02 -0.17211671509E+02  0.58586815872E+02  0.17770000000E+01 0.  1.
</event>
<event>
 7    1  0.2809211E-007  0.1814330E+03  0.7546771E-02  0.1069307E+00
        -11   -1    0    0    0    0  0.00000000000E+00  0.00000000000E+00  0.18250000000E+03  0.18250000000E+03  0.00000000000E+00 0. -1.
         11   -1    0    0    0    0 -0.00000000000E+00 -0.00000000000E+00 -0.18250000000E+03  0.18250000000E+03  0.00000000000E+00 0.  1.
         23    2    1    2    0    0 -0.29592413659E+02 -0.24981690733E+00  0.14826861386E+03  0.17557958098E+03  0.89268326119E+02 0.  0.
        -11    1    1    2    0    0 -0.18718627729E+02 -0.13672171457E+02  0.85751855844E+01  0.24715361705E+02  0.00000000000E+00 0. -1.
         11    1    1    2    0    0  0.48311041388E+02  0.13921988365E+02 -0.15684379944E+03  0.16470505731E+03  0.00000000000E+00 0.  1.
        -15    1    3    3    0    0 -0.14998052991E+02  0.30054685278E+02  0.13541149600E+03  0.13952654471E+03  0.17770000000E+01 0. -1.
         15    1    3    3    0    0 -0.14594360668E+02 -0.30304502185E+02  0.12857117860E+02  0.36053036276E+02  0.17770000000E+01 0.  1.
</event>
<event>
 7    1  0.2809211E-007  0.2061514E+03  0.7546771E-02  0.1051046E+00
        -11   -1    0    0    0    0  0.00000000000E+00  0.00000000000E+00  0.18250000000E+03  0.18250000000E+03  0.00000000000E+00 0.  1.
         11   -1    0    0    0    0 -0.00000000000E+00 -0.00000000000E+00 -0.18250000000E+03  0.18250000000E+03  0.00000000000E+00 0. -1.
         23    2    1    2    0    0  0.61666010521E+02 -0.23569381325E+02 -0.26823270638E+02  0.11417138808E+03  0.89204290358E+02 0.  0.
        -11    1    1    2    0    0 -0.11254673742E+03  0.81619335164E+02  0.76840045411E+02  0.15884859633E+03  0.00000000000E+00 0.  1.
         11    1    1    2    0    0  0.50880726896E+02 -0.58049953839E+02 -0.50016774773E+02  0.91980015595E+02  0.00000000000E+00 0. -1.
        -15    1    3    3    0    0  0.42700098407E+02 -0.75569667977E+01  0.29580443660E+02  0.52522057531E+02  0.17770000000E+01 0. -1.
         15    1    3    3    0    0  0.18965912114E+02 -0.16012414527E+02 -0.56403714298E+02  0.61649330548E+02  0.17770000000E+01 0.  1.
</event>
<event>
 7    1  0.2809211E-007  0.1933006E+03  0.7546771E-02  0.1060168E+00
        -11   -1    0    0    0    0  0.00000000000E+00  0.00000000000E+00  0.18250000000E+03  0.18250000000E+03  0.00000000000E+00 0.  1.
         11   -1    0    0    0    0 -0.00000000000E+00 -0.00000000000E+00 -0.18250000000E+03  0.18250000000E+03  0.00000000000E+00 0.  1.
         23    2    1    2    0    0  0.41531028886E+02 -0.42580297804E+02  0.15055498113E+03  0.19330061061E+03  0.10564286818E+03 0.  0.
        -11    1    1    2    0    0 -0.27993538573E+02 -0.46535176308E+01 -0.28931641288E+02  0.40525711540E+02  0.00000000000E+00 0.  1.
         11    1    1    2    0    0 -0.13537490312E+02  0.47233815435E+02 -0.12162333985E+03  0.13117367785E+03  0.00000000000E+00 0.  1.
        -15    1    3    3    0    0 -0.21374800244E+02 -0.25250588875E+02  0.11351316323E+03  0.11824918722E+03  0.17770000000E+01 0.  1.
         15    1    3    3    0    0  0.62905829129E+02 -0.17329708929E+02  0.37041817908E+02  0.75051423390E+02  0.17770000000E+01 0. -1.
</event>
<event>
 6    1  0.2809211E-007  0.1441975E+03  0.7546771E-02  0.1103832E+00
        -11   -1    0    0    0    0  0.00000000000E+00  0.00000000000E+00  0.18250000000E+03  0.18250000000E+03  0.00000000000E+00 0. -1.
         11   -1    0    0    0    0 -0.00000000000E+00 -0.00000000000E+00 -0.18250000000E+03  0.18250000000E+03  0.00000000000E+00 0.  1.
        -11    1    1    2    0    0  0.77992809354E+02  0.15650192585E+02  0.10311541738E+03  0.13023285354E+03  0.00000000000E+00 0. -1.
         11    1    1    2    0    0 -0.61642812966E+02 -0.49895427153E+02 -0.14279842018E+03  0.16334252002E+03  0.00000000000E+00 0.  1.
        -15    1    1    2    0    0 -0.18097388739E+02  0.74103207572E+01  0.39903522273E+02  0.44473330792E+02  0.17770000000E+01 0. -1.
         15    1    1    2    0    0  0.17473923519E+01  0.26834913810E+02 -0.22051947317E+00  0.26951295647E+02  0.17770000000E+01 0.  1.
</event>
<event>
 7    1  0.2809211E-007  0.1847891E+03  0.7546771E-02  0.1066647E+00
        -11   -1    0    0    0    0  0.00000000000E+00  0.00000000000E+00  0.18250000000E+03  0.18250000000E+03  0.00000000000E+00 0. -1.
         11   -1    0    0    0    0 -0.00000000000E+00 -0.00000000000E+00 -0.18250000000E+03  0.18250000000E+03  0.00000000000E+00 0.  1.
         23    2    1    2    0    0 -0.76685249591E+02  0.39851762087E+02 -0.13499158955E+03  0.18404326483E+03  0.90445583819E+02 0.  0.
        -11    1    1    2    0    0  0.63026060163E+02 -0.51081001027E+02  0.14066802729E+03  0.16238548835E+03  0.00000000000E+00 0. -1.
         11    1    1    2    0    0  0.13659189428E+02  0.11229238939E+02 -0.56764377439E+01  0.18571246820E+02  0.00000000000E+00 0.  1.
        -15    1    3    3    0    0 -0.73036224709E+02  0.61256184021E+02 -0.13079781284E+03  0.16185745510E+03  0.17770000000E+01 0.  1.
         15    1    3    3    0    0 -0.36490248817E+01 -0.21404421934E+02 -0.41937767123E+01  0.22185809722E+02  0.17770000000E+01 0. -1.
</event>
<event>
 7    1  0.2809211E-007  0.1919751E+03  0.7546771E-02  0.1061153E+00
        -11   -1    0    0    0    0  0.00000000000E+00  0.00000000000E+00  0.18250000000E+03  0.18250000000E+03  0.00000000000E+00 0.  1.
         11   -1    0    0    0    0 -0.00000000000E+00 -0.00000000000E+00 -0.18250000000E+03  0.18250000000E+03  0.00000000000E+00 0.  1.
         23    2    1    2    0    0 -0.30590255939E+02  0.36659356585E+02  0.16240014469E+03  0.19197508821E+03  0.90559126065E+02 0.  0.
        -11    1    1    2    0    0  0.98780624894E+01  0.65003036195E+01 -0.31896932578E+02  0.34018294689E+02  0.00000000000E+00 0.  1.
         11    1    1    2    0    0  0.20712193450E+02 -0.43159660205E+02 -0.13050321211E+03  0.13900661710E+03  0.00000000000E+00 0.  1.
        -15    1    3    3    0    0 -0.16615275312E+02 -0.10566223210E+01 -0.67846369122E+01  0.18065792301E+02  0.17770000000E+01 0. -1.
         15    1    3    3    0    0 -0.13974980627E+02  0.37715978906E+02  0.16918478160E+03  0.17390929591E+03  0.17770000000E+01 0.  1.
</event>
<event>
 7    1  0.2809211E-007  0.1284124E+03  0.7546771E-02  0.1122138E+00
        -11   -1    0    0    0    0  0.00000000000E+00  0.00000000000E+00  0.18250000000E+03  0.18250000000E+03  0.00000000000E+00 0. -1.
         11   -1    0    0    0    0 -0.00000000000E+00 -0.00000000000E+00 -0.18250000000E+03  0.18250000000E+03  0.00000000000E+00 0.  1.
         23    2    1    2    0    0 -0.40923611237E+02 -0.66238862538E+01  0.25501850380E+02  0.10360385512E+03  0.91459261956E+02 0.  0.
        -11    1    1    2    0    0  0.60720785005E+02  0.91548602096E+02  0.71411772552E+02  0.13102595749E+03  0.00000000000E+00 0. -1.
         11    1    1    2    0    0 -0.19797173768E+02 -0.84924715842E+02 -0.96913622931E+02  0.13037018739E+03  0.00000000000E+00 0.  1.
        -15    1    3    3    0    0 -0.32733543705E+02 -0.39121404906E+02 -0.12858107459E+02  0.52635139039E+02  0.17770000000E+01 0.  1.
         15    1    3    3    0    0 -0.81900675321E+01  0.32497518652E+02  0.38359957838E+02  0.50968716082E+02  0.17770000000E+01 0. -1.
</event>
<event>
 7    1  0.2809211E-007  0.1636747E+03  0.7546771E-02  0.1084513E+00
        -11   -1    0    0    0    0  0.00000000000E+00  0.00000000000E+00  0.18250000000E+03  0.18250000000E+03  0.00000000000E+00 0. -1.
         11   -1    0    0    0    0 -0.00000000000E+00 -0.00000000000E+00 -0.18250000000E+03  0.18250000000E+03  0.00000000000E+00 0. -1.
         23    2    1    2    0    0 -0.11071448170E+02 -0.30238178676E+02  0.14351793770E+03  0.17191858059E+03  0.89003794843E+02 0.  0.
        -11    1    1    2    0    0 -0.41436732727E+02  0.42218136068E+02 -0.12103865103E+03  0.13472092961E+03  0.00000000000E+00 0. -1.
         11    1    1    2    0    0  0.52508180897E+02 -0.11979957391E+02 -0.22479286675E+02  0.58360489799E+02  0.00000000000E+00 0. -1.
        -15    1    3    3    0    0  0.36869247794E+02 -0.95777634675E+01  0.86831142357E+02  0.94836069077E+02  0.17770000000E+01 0.  1.
         15    1    3    3    0    0 -0.47940695964E+02 -0.20660415209E+02  0.56686795345E+02  0.77082511516E+02  0.17770000000E+01 0. -1.
</event>
<event>
 7    1  0.2809211E-007  0.1354806E+03  0.7546771E-02  0.1113601E+00
        -11   -1    0    0    0    0  0.00000000000E+00  0.00000000000E+00  0.18250000000E+03  0.18250000000E+03  0.00000000000E+00 0. -1.
         11   -1    0    0    0    0 -0.00000000000E+00 -0.00000000000E+00 -0.18250000000E+03  0.18250000000E+03  0.00000000000E+00 0.  1.
         23    2    1    2    0    0 -0.38208189961E+01 -0.18874697855E+02  0.31775368196E+01  0.93336651166E+02  0.91273111231E+02 0.  0.
        -11    1    1    2    0    0  0.30536862480E+02  0.57213885231E+02  0.12193499839E+03  0.13810891523E+03  0.00000000000E+00 0. -1.
         11    1    1    2    0    0 -0.26716043484E+02 -0.38339187376E+02 -0.12511253521E+03  0.13355443360E+03  0.00000000000E+00 0.  1.
        -15    1    3    3    0    0 -0.46561182054E+02 -0.17991470660E+01 -0.36566877272E+01  0.46772959053E+02  0.17770000000E+01 0. -1.
         15    1    3    3    0    0  0.42740363058E+02 -0.17075550789E+02  0.68342245467E+01  0.46563692113E+02  0.17770000000E+01 0.  1.
</event>
<event>
 7    1  0.2809211E-007  0.1775436E+03  0.7546771E-02  0.1072470E+00
        -11   -1    0    0    0    0  0.00000000000E+00  0.00000000000E+00  0.18250000000E+03  0.18250000000E+03  0.00000000000E+00 0.  1.
         11   -1    0    0    0    0 -0.00000000000E+00 -0.00000000000E+00 -0.18250000000E+03  0.18250000000E+03  0.00000000000E+00 0. -1.
         23    2    1    2    0    0 -0.59553185320E+02  0.19795860621E+02  0.14908208998E+03  0.18478177625E+03  0.89332957529E+02 0.  0.
        -11    1    1    2    0    0 -0.72211905515E+01  0.20938774489E+02 -0.23700065980E+02  0.32438726817E+02  0.00000000000E+00 0.  1.
         11    1    1    2    0    0  0.66774375872E+02 -0.40734635109E+02 -0.12538202400E+03  0.14777949693E+03  0.00000000000E+00 0. -1.
        -15    1    3    3    0    0 -0.30821843653E+02 -0.74559748654E+01  0.13124123396E+01  0.31787698289E+02  0.17770000000E+01 0. -1.
         15    1    3    3    0    0 -0.28731341667E+02  0.27251835486E+02  0.14776967764E+03  0.15299407796E+03  0.17770000000E+01 0.  1.
</event>
<event>
 7    1  0.2809211E-007  0.1625916E+03  0.7546771E-02  0.1085508E+00
        -11   -1    0    0    0    0  0.00000000000E+00  0.00000000000E+00  0.18250000000E+03  0.18250000000E+03  0.00000000000E+00 0. -1.
         11   -1    0    0    0    0 -0.00000000000E+00 -0.00000000000E+00 -0.18250000000E+03  0.18250000000E+03  0.00000000000E+00 0.  1.
         23    2    1    2    0    0 -0.47341085761E+01 -0.47000182658E+01  0.11931871899E+03  0.14703981734E+03  0.85669418257E+02 0.  0.
        -11    1    1    2    0    0 -0.50012799152E+02 -0.50404078601E+01  0.30059031160E+02  0.58568175186E+02  0.00000000000E+00 0. -1.
         11    1    1    2    0    0  0.54746907728E+02  0.97404261259E+01 -0.14937775015E+03  0.15939200748E+03  0.00000000000E+00 0.  1.
        -15    1    3    3    0    0  0.32666988390E+02  0.16879262234E+02  0.82215234696E+02  0.90080764701E+02  0.17770000000E+01 0.  1.
         15    1    3    3    0    0 -0.37401096966E+02 -0.21579280499E+02  0.37103484297E+02  0.56959052636E+02  0.17770000000E+01 0. -1.
</event>
<event>
 7    1  0.2809211E-007  0.1614053E+03  0.7546771E-02  0.1086608E+00
        -11   -1    0    0    0    0  0.00000000000E+00  0.00000000000E+00  0.18250000000E+03  0.18250000000E+03  0.00000000000E+00 0.  1.
         11   -1    0    0    0    0 -0.00000000000E+00 -0.00000000000E+00 -0.18250000000E+03  0.18250000000E+03  0.00000000000E+00 0.  1.
         23    2    1    2    0    0 -0.73288966051E+02  0.63446318936E+02  0.11001101702E+03  0.17306776050E+03  0.91941926931E+02 0.  0.
        -11    1    1    2    0    0  0.76649843949E+01 -0.63582033199E+02 -0.24229400279E+00  0.64042842206E+02  0.00000000000E+00 0.  1.
         11    1    1    2    0    0  0.65623981656E+02  0.13571426261E+00 -0.10976872302E+03  0.12788939729E+03  0.00000000000E+00 0.  1.
        -15    1    3    3    0    0 -0.34357778776E+02  0.83046674213E+02  0.77022339255E+02  0.11837569655E+03  0.17770000000E+01 0.  1.
         15    1    3    3    0    0 -0.38931187275E+02 -0.19600355277E+02  0.32988677766E+02  0.54692063952E+02  0.17770000000E+01 0. -1.
</event>
<event>
 7    1  0.2809211E-007  0.2263128E+03  0.7546771E-02  0.1038103E+00
        -11   -1    0    0    0    0  0.00000000000E+00  0.00000000000E+00  0.18250000000E+03  0.18250000000E+03  0.00000000000E+00 0.  1.
         11   -1    0    0    0    0 -0.00000000000E+00 -0.00000000000E+00 -0.18250000000E+03  0.18250000000E+03  0.00000000000E+00 0. -1.
         23    2    1    2    0    0 -0.72547149485E+01 -0.48128974117E+01 -0.86637515818E+01  0.96253251540E+02  0.95466397073E+02 0.  0.
        -11    1    1    2    0    0  0.85507902582E-01  0.11384477067E+03  0.79205468004E+02  0.13868722105E+03  0.00000000000E+00 0.  1.
         11    1    1    2    0    0  0.71692070459E+01 -0.10903187326E+03 -0.70541716422E+02  0.13005952741E+03  0.00000000000E+00 0. -1.
        -15    1    3    3    0    0  0.31843469594E+02 -0.11012352754E+02 -0.35045572936E+02  0.48648004896E+02  0.17770000000E+01 0.  1.
         15    1    3    3    0    0 -0.39098184543E+02  0.61994553419E+01  0.26381821354E+02  0.47605246644E+02  0.17770000000E+01 0. -1.
</event>
<event>
 7    1  0.2809211E-007  0.1273978E+03  0.7546771E-02  0.1123413E+00
        -11   -1    0    0    0    0  0.00000000000E+00  0.00000000000E+00  0.18250000000E+03  0.18250000000E+03  0.00000000000E+00 0. -1.
         11   -1    0    0    0    0 -0.00000000000E+00 -0.00000000000E+00 -0.18250000000E+03  0.18250000000E+03  0.00000000000E+00 0.  1.
         23    2    1    2    0    0 -0.17765983047E+02 -0.65611248867E+02  0.35233294269E+02  0.11751162269E+03  0.89146678636E+02 0.  0.
        -11    1    1    2    0    0  0.87100765104E+02  0.34105709924E+02  0.70535956142E+02  0.11715401760E+03  0.00000000000E+00 0. -1.
         11    1    1    2    0    0 -0.69334782057E+02  0.31505538943E+02 -0.10576925041E+03  0.13033435970E+03  0.00000000000E+00 0.  1.
        -15    1    3    3    0    0  0.38680053240E+01 -0.70055840183E+01 -0.27658843354E+02  0.28848033161E+02  0.17770000000E+01 0.  1.
         15    1    3    3    0    0 -0.21633988371E+02 -0.58605664849E+02  0.62892137623E+02  0.88663589533E+02  0.17770000000E+01 0. -1.
</event>
<event>
 7    1  0.2809211E-007  0.1586970E+03  0.7546771E-02  0.1089158E+00
        -11   -1    0    0    0    0  0.00000000000E+00  0.00000000000E+00  0.18250000000E+03  0.18250000000E+03  0.00000000000E+00 0.  1.
         11   -1    0    0    0    0 -0.00000000000E+00 -0.00000000000E+00 -0.18250000000E+03  0.18250000000E+03  0.00000000000E+00 0. -1.
         23    2    1    2    0    0  0.34214607669E+02  0.58785746868E+02 -0.76676678102E+02  0.14579272309E+03  0.10368125061E+03 0.  0.
        -11    1    1    2    0    0  0.15790511188E+02 -0.50112614767E+02  0.13323254522E+03  0.14321845380E+03  0.00000000000E+00 0.  1.
         11    1    1    2    0    0 -0.50005118857E+02 -0.86731321006E+01 -0.56555867119E+02  0.75988823112E+02  0.00000000000E+00 0. -1.
        -15    1    3    3    0    0  0.60062497583E+02  0.36842207493E+02 -0.10295130966E+02  0.71232010497E+02  0.17770000000E+01 0.  1.
         15    1    3    3    0    0 -0.25847889914E+02  0.21943539375E+02 -0.66381547135E+02  0.74560712593E+02  0.17770000000E+01 0. -1.
</event>
<event>
 7    1  0.2809211E-007  0.1293813E+03  0.7546771E-02  0.1120932E+00
        -11   -1    0    0    0    0  0.00000000000E+00  0.00000000000E+00  0.18250000000E+03  0.18250000000E+03  0.00000000000E+00 0.  1.
         11   -1    0    0    0    0 -0.00000000000E+00 -0.00000000000E+00 -0.18250000000E+03  0.18250000000E+03  0.00000000000E+00 0.  1.
         23    2    1    2    0    0  0.30284376975E+02  0.49602737624E+02  0.58764922831E+02  0.12108037672E+03  0.88484837130E+02 0.  0.
        -11    1    1    2    0    0 -0.12591464334E+03 -0.32388252334E+02  0.67189428893E+00  0.13001518273E+03  0.00000000000E+00 0.  1.
         11    1    1    2    0    0  0.95630266367E+02 -0.17214485290E+02 -0.59436817120E+02  0.11390444056E+03  0.00000000000E+00 0.  1.
        -15    1    3    3    0    0 -0.10985561264E+02  0.59575620473E+02  0.47815937088E+02  0.77197530269E+02  0.17770000000E+01 0.  1.
         15    1    3    3    0    0  0.41269938239E+02 -0.99728828485E+01  0.10948985743E+02  0.43882846448E+02  0.17770000000E+01 0. -1.
</event>
<event>
 7    1  0.2809211E-007  0.1621012E+03  0.7546771E-02  0.1085961E+00
        -11   -1    0    0    0    0  0.00000000000E+00  0.00000000000E+00  0.18250000000E+03  0.18250000000E+03  0.00000000000E+00 0. -1.
         11   -1    0    0    0    0 -0.00000000000E+00 -0.00000000000E+00 -0.18250000000E+03  0.18250000000E+03  0.00000000000E+00 0. -1.
         23    2    1    2    0    0  0.31965750936E+02  0.91728120845E+01  0.12981241874E+03  0.16231809384E+03  0.91596669236E+02 0.  0.
        -11    1    1    2    0    0 -0.90934360911E+01  0.61000117400E+02 -0.10757565056E+02  0.62605352077E+02  0.00000000000E+00 0. -1.
         11    1    1    2    0    0 -0.22872314845E+02 -0.70172929484E+02 -0.11905485368E+03  0.14007655408E+03  0.00000000000E+00 0. -1.
        -15    1    3    3    0    0 -0.23863661892E+00  0.27558880639E+02  0.12106583197E+03  0.12417585212E+03  0.17770000000E+01 0. -1.
         15    1    3    3    0    0  0.32204387555E+02 -0.18386068554E+02  0.87465867688E+01  0.38142241725E+02  0.17770000000E+01 0.  1.
</event>
<event>
 7    1  0.2809211E-007  0.1393327E+03  0.7546771E-02  0.1109187E+00
        -11   -1    0    0    0    0  0.00000000000E+00  0.00000000000E+00  0.18250000000E+03  0.18250000000E+03  0.00000000000E+00 0.  1.
         11   -1    0    0    0    0 -0.00000000000E+00 -0.00000000000E+00 -0.18250000000E+03  0.18250000000E+03  0.00000000000E+00 0.  1.
         23    2    1    2    0    0  0.95805443376E+01  0.29241375055E+01  0.11490200291E+03  0.14793923669E+03  0.92645615491E+02 0.  0.
        -11    1    1    2    0    0  0.54571475163E+02  0.66147281788E+02 -0.77698356525E+02  0.11571751551E+03  0.00000000000E+00 0.  1.
         11    1    1    2    0    0 -0.64152019500E+02 -0.69071419294E+02 -0.37203646388E+02  0.10134324780E+03  0.00000000000E+00 0.  1.
        -15    1    3    3    0    0  0.41245501430E+02 -0.18479318898E+02  0.28543263574E+02  0.53484130727E+02  0.17770000000E+01 0.  1.
         15    1    3    3    0    0 -0.31664957093E+02  0.21403456403E+02  0.86358739340E+02  0.94455105966E+02  0.17770000000E+01 0. -1.
</event>
<event>
 7    1  0.2809211E-007  0.1689107E+03  0.7546771E-02  0.1079818E+00
        -11   -1    0    0    0    0  0.00000000000E+00  0.00000000000E+00  0.18250000000E+03  0.18250000000E+03  0.00000000000E+00 0. -1.
         11   -1    0    0    0    0 -0.00000000000E+00 -0.00000000000E+00 -0.18250000000E+03  0.18250000000E+03  0.00000000000E+00 0.  1.
         23    2    1    2    0    0 -0.69581971900E+02  0.27827803487E+02 -0.99513248272E+02  0.15529820929E+03  0.92728689024E+02 0.  0.
        -11    1    1    2    0    0  0.92449025759E+02  0.65230667508E+01  0.12910235044E+03  0.15892384859E+03  0.00000000000E+00 0. -1.
         11    1    1    2    0    0 -0.22867053859E+02 -0.34350870238E+02 -0.29589102164E+02  0.50777942112E+02  0.00000000000E+00 0.  1.
        -15    1    3    3    0    0 -0.70645272159E+02 -0.13568540935E+02 -0.38704562569E+02  0.81707164155E+02  0.17770000000E+01 0. -1.
         15    1    3    3    0    0  0.10633002590E+01  0.41396344422E+02 -0.60808685702E+02  0.73591045140E+02  0.17770000000E+01 0.  1.
</event>
<event>
 7    1  0.2809211E-007  0.1592934E+03  0.7546771E-02  0.1088592E+00
        -11   -1    0    0    0    0  0.00000000000E+00  0.00000000000E+00  0.18250000000E+03  0.18250000000E+03  0.00000000000E+00 0. -1.
         11   -1    0    0    0    0 -0.00000000000E+00 -0.00000000000E+00 -0.18250000000E+03  0.18250000000E+03  0.00000000000E+00 0.  1.
         23    2    1    2    0    0 -0.36722360224E+02 -0.95581722838E+01  0.13422161830E+03  0.16680895680E+03  0.91487129428E+02 0.  0.
        -11    1    1    2    0    0  0.58640287926E+02 -0.31259824731E+02 -0.12057961987E+02  0.67537059882E+02  0.00000000000E+00 0. -1.
         11    1    1    2    0    0 -0.21917927702E+02  0.40817997015E+02 -0.12216365631E+03  0.13065398332E+03  0.00000000000E+00 0.  1.
        -15    1    3    3    0    0  0.16488321860E+02  0.27500472122E+02  0.29400148334E+02  0.43539260165E+02  0.17770000000E+01 0. -1.
         15    1    3    3    0    0 -0.53210682084E+02 -0.37058644406E+02  0.10482146996E+03  0.12326969663E+03  0.17770000000E+01 0.  1.
</event>
<event>
 7    1  0.2809211E-007  0.2131544E+03  0.7546771E-02  0.1046375E+00
        -11   -1    0    0    0    0  0.00000000000E+00  0.00000000000E+00  0.18250000000E+03  0.18250000000E+03  0.00000000000E+00 0. -1.
         11   -1    0    0    0    0 -0.00000000000E+00 -0.00000000000E+00 -0.18250000000E+03  0.18250000000E+03  0.00000000000E+00 0. -1.
         23    2    1    2    0    0  0.11432640903E+02 -0.31583961007E+02  0.53770159879E+02  0.11096099629E+03  0.91065145541E+02 0.  0.
        -11    1    1    2    0    0  0.28049877766E+02  0.32176272261E+02  0.92851375405E+02  0.10219337578E+03  0.00000000000E+00 0. -1.
         11    1    1    2    0    0 -0.39482518669E+02 -0.59231125402E+00 -0.14662153528E+03  0.15184562793E+03  0.00000000000E+00 0. -1.
        -15    1    3    3    0    0 -0.87308195023E+01  0.12723803345E+02  0.59884571465E+02  0.61866323709E+02  0.17770000000E+01 0.  1.
         15    1    3    3    0    0  0.20163460405E+02 -0.44307764352E+02 -0.61144115856E+01  0.49094672577E+02  0.17770000000E+01 0. -1.
</event>
<event>
 7    1  0.2809211E-007  0.1241259E+03  0.7546771E-02  0.1127616E+00
        -11   -1    0    0    0    0  0.00000000000E+00  0.00000000000E+00  0.18250000000E+03  0.18250000000E+03  0.00000000000E+00 0.  1.
         11   -1    0    0    0    0 -0.00000000000E+00 -0.00000000000E+00 -0.18250000000E+03  0.18250000000E+03  0.00000000000E+00 0. -1.
         23    2    1    2    0    0  0.10554494884E+02  0.39458603556E+02  0.46069692813E+02  0.10922706521E+03  0.90220598652E+02 0.  0.
        -11    1    1    2    0    0 -0.55022599156E+02  0.94918619965E+02 -0.13604618597E+02  0.11055368145E+03  0.00000000000E+00 0.  1.
         11    1    1    2    0    0  0.44468104273E+02 -0.13437722352E+03 -0.32465074216E+02  0.14521925335E+03  0.00000000000E+00 0. -1.
        -15    1    3    3    0    0  0.23820843252E+02  0.64396349264E+02  0.22140514212E+02  0.72164274197E+02  0.17770000000E+01 0. -1.
         15    1    3    3    0    0 -0.13266348368E+02 -0.24937745708E+02  0.23929178601E+02  0.37062791011E+02  0.17770000000E+01 0.  1.
</event>
<event>
 7    1  0.2809211E-007  0.1645890E+03  0.7546771E-02  0.1083679E+00
        -11   -1    0    0    0    0  0.00000000000E+00  0.00000000000E+00  0.18250000000E+03  0.18250000000E+03  0.00000000000E+00 0. -1.
         11   -1    0    0    0    0 -0.00000000000E+00 -0.00000000000E+00 -0.18250000000E+03  0.18250000000E+03  0.00000000000E+00 0. -1.
         23    2    1    2    0    0 -0.86869472767E+02 -0.48510939992E+02 -0.49586244292E+02  0.14262721286E+03  0.89353845065E+02 0.  0.
        -11    1    1    2    0    0  0.12560835283E+03  0.59602566417E+02  0.89746273087E+02  0.16548207684E+03  0.00000000000E+00 0. -1.
         11    1    1    2    0    0 -0.38738880060E+02 -0.11091626425E+02 -0.40160028795E+02  0.56890710295E+02  0.00000000000E+00 0. -1.
        -15    1    3    3    0    0  0.18501571283E+02 -0.25853620411E+01 -0.64810940658E+01  0.19853325820E+02  0.17770000000E+01 0.  1.
         15    1    3    3    0    0 -0.10537104405E+03 -0.45925577951E+02 -0.43105150226E+02  0.12277388704E+03  0.17770000000E+01 0. -1.
</event>
<event>
 7    1  0.2809211E-007  0.1686460E+03  0.7546771E-02  0.1080051E+00
        -11   -1    0    0    0    0  0.00000000000E+00  0.00000000000E+00  0.18250000000E+03  0.18250000000E+03  0.00000000000E+00 0. -1.
         11   -1    0    0    0    0 -0.00000000000E+00 -0.00000000000E+00 -0.18250000000E+03  0.18250000000E+03  0.00000000000E+00 0.  1.
         23    2    1    2    0    0  0.78189483166E+02  0.38748113685E+01  0.89611107904E+02  0.15081228879E+03  0.92658439173E+02 0.  0.
        -11    1    1    2    0    0  0.36698997475E+02  0.28742934488E+02  0.21254704441E+02  0.51232169186E+02  0.00000000000E+00 0. -1.
         11    1    1    2    0    0 -0.11488848064E+03 -0.32617745856E+02 -0.11086581234E+03  0.16295554202E+03  0.00000000000E+00 0.  1.
        -15    1    3    3    0    0  0.51663564707E+02 -0.17363637466E+02 -0.45336518723E+00  0.54534237808E+02  0.17770000000E+01 0.  1.
         15    1    3    3    0    0  0.26525918459E+02  0.21238448835E+02  0.90064473091E+02  0.96278050983E+02  0.17770000000E+01 0. -1.
</event>
<event>
 7    1  0.2809211E-007  0.1745529E+03  0.7546771E-02  0.1074963E+00
        -11   -1    0    0    0    0  0.00000000000E+00  0.00000000000E+00  0.18250000000E+03  0.18250000000E+03  0.00000000000E+00 0. -1.
         11   -1    0    0    0    0 -0.00000000000E+00 -0.00000000000E+00 -0.18250000000E+03  0.18250000000E+03  0.00000000000E+00 0. -1.
         23    2    1    2    0    0  0.54628089814E+02 -0.11033579532E+03  0.14315723139E+02  0.15792220586E+03  0.97858404076E+02 0.  0.
        -11    1    1    2    0    0 -0.82443877774E+02  0.13830126710E+03 -0.31484977792E+02  0.16405955409E+03  0.00000000000E+00 0. -1.
         11    1    1    2    0    0  0.27815787960E+02 -0.27965471775E+02  0.17169254653E+02  0.43018240047E+02  0.00000000000E+00 0. -1.
        -15    1    3    3    0    0  0.67662917993E+02 -0.88065022909E+02 -0.22106183233E+02  0.11324998807E+03  0.17770000000E+01 0.  1.
         15    1    3    3    0    0 -0.13034828179E+02 -0.22270772412E+02  0.36421906372E+02  0.44672217790E+02  0.17770000000E+01 0. -1.
</event>
<event>
 7    1  0.2809211E-007  0.1419046E+03  0.7546771E-02  0.1106327E+00
        -11   -1    0    0    0    0  0.00000000000E+00  0.00000000000E+00  0.18250000000E+03  0.18250000000E+03  0.00000000000E+00 0. -1.
         11   -1    0    0    0    0 -0.00000000000E+00 -0.00000000000E+00 -0.18250000000E+03  0.18250000000E+03  0.00000000000E+00 0.  1.
         23    2    1    2    0    0  0.54423112763E+01  0.34876005910E+02  0.70840178993E+02  0.11977755453E+03  0.89902041521E+02 0.  0.
        -11    1    1    2    0    0  0.80038130178E+02 -0.15232508320E+02  0.50234989586E+02  0.95716695360E+02  0.00000000000E+00 0. -1.
         11    1    1    2    0    0 -0.85480441454E+02 -0.19643497590E+02 -0.12107516858E+03  0.14950575011E+03  0.00000000000E+00 0.  1.
        -15    1    3    3    0    0  0.29546885621E+02  0.56246691005E+02  0.39711560737E+02  0.74945810317E+02  0.17770000000E+01 0.  1.
         15    1    3    3    0    0 -0.24104574345E+02 -0.21370685096E+02  0.31128618256E+02  0.44831744215E+02  0.17770000000E+01 0. -1.
</event>
<event>
 7    1  0.2809211E-007  0.1446340E+03  0.7546771E-02  0.1103363E+00
        -11   -1    0    0    0    0  0.00000000000E+00  0.00000000000E+00  0.18250000000E+03  0.18250000000E+03  0.00000000000E+00 0.  1.
         11   -1    0    0    0    0 -0.00000000000E+00 -0.00000000000E+00 -0.18250000000E+03  0.18250000000E+03  0.00000000000E+00 0.  1.
         23    2    1    2    0    0 -0.29926304784E+02  0.24268546064E+02  0.78378352513E+02  0.12630031862E+03  0.91236277292E+02 0.  0.
        -11    1    1    2    0    0 -0.21890378942E+02 -0.74820723431E+02  0.49078420313E+02  0.92119599898E+02  0.00000000000E+00 0.  1.
         11    1    1    2    0    0  0.51816683726E+02  0.50552177367E+02 -0.12745677283E+03  0.14658008148E+03  0.00000000000E+00 0.  1.
        -15    1    3    3    0    0 -0.29102476093E+02  0.26651782566E+02  0.98404932661E+02  0.10603754113E+03  0.17770000000E+01 0.  1.
         15    1    3    3    0    0 -0.82382869090E+00 -0.23832365013E+01 -0.20026580148E+02  0.20262777484E+02  0.17770000000E+01 0. -1.
</event>
<event>
 7    1  0.2809211E-007  0.1838549E+03  0.7546771E-02  0.1067381E+00
        -11   -1    0    0    0    0  0.00000000000E+00  0.00000000000E+00  0.18250000000E+03  0.18250000000E+03  0.00000000000E+00 0. -1.
         11   -1    0    0    0    0 -0.00000000000E+00 -0.00000000000E+00 -0.18250000000E+03  0.18250000000E+03  0.00000000000E+00 0.  1.
         23    2    1    2    0    0 -0.11137664363E+03  0.14339248604E+02  0.11844902786E+03  0.18114512914E+03  0.78568535791E+02 0.  0.
        -11    1    1    2    0    0  0.10149029886E+03 -0.21719614410E+02 -0.51657116265E+02  0.11593308446E+03  0.00000000000E+00 0.  1.
         11    1    1    2    0    0  0.98863447667E+01  0.73803658060E+01 -0.66791911593E+02  0.67921786391E+02  0.00000000000E+00 0. -1.
        -15    1    3    3    0    0 -0.66763161687E+02  0.44337986398E+02  0.89152637845E+02  0.11989381702E+03  0.17770000000E+01 0.  1.
         15    1    3    3    0    0 -0.44613481940E+02 -0.29998737794E+02  0.29296390012E+02  0.61251312123E+02  0.17770000000E+01 0. -1.
</event>
<event>
 7    1  0.2809211E-007  0.1900366E+03  0.7546771E-02  0.1062609E+00
        -11   -1    0    0    0    0  0.00000000000E+00  0.00000000000E+00  0.18250000000E+03  0.18250000000E+03  0.00000000000E+00 0.  1.
         11   -1    0    0    0    0 -0.00000000000E+00 -0.00000000000E+00 -0.18250000000E+03  0.18250000000E+03  0.00000000000E+00 0.  1.
         23    2    1    2    0    0 -0.26683690732E+02  0.40676482242E+02  0.16101829918E+03  0.19003662230E+03  0.88433192791E+02 0.  0.
        -11    1    1    2    0    0  0.13098903198E+02  0.91008785910E+01 -0.27053811758E+02  0.31405668067E+02  0.00000000000E+00 0.  1.
         11    1    1    2    0    0  0.13584787535E+02 -0.49777360833E+02 -0.13396448742E+03  0.14355770963E+03  0.00000000000E+00 0.  1.
        -15    1    3    3    0    0 -0.46645841883E+02  0.47632457685E+02  0.15378471422E+03  0.16762333265E+03  0.17770000000E+01 0.  1.
         15    1    3    3    0    0  0.19962151151E+02 -0.69559754427E+01  0.72335849571E+01  0.22413289657E+02  0.17770000000E+01 0. -1.
</event>
<event>
 7    1  0.2809211E-007  0.2134835E+03  0.7546771E-02  0.1046160E+00
        -11   -1    0    0    0    0  0.00000000000E+00  0.00000000000E+00  0.18250000000E+03  0.18250000000E+03  0.00000000000E+00 0. -1.
         11   -1    0    0    0    0 -0.00000000000E+00 -0.00000000000E+00 -0.18250000000E+03  0.18250000000E+03  0.00000000000E+00 0.  1.
         23    2    1    2    0    0  0.32583695399E+02 -0.25272316092E+02  0.22412264091E+02  0.10093761167E+03  0.89362770224E+02 0.  0.
        -11    1    1    2    0    0  0.17269192462E+02 -0.49378327361E+02  0.99650074685E+02  0.11254590888E+03  0.00000000000E+00 0. -1.
         11    1    1    2    0    0 -0.49852887861E+02  0.74650643453E+02 -0.12206233878E+03  0.15151647945E+03  0.00000000000E+00 0.  1.
        -15    1    3    3    0    0 -0.12535155184E+02 -0.46667568378E+02  0.13265942670E+02  0.50141150941E+02  0.17770000000E+01 0.  1.
         15    1    3    3    0    0  0.45118850584E+02  0.21395252286E+02  0.91463214204E+01  0.50796460732E+02  0.17770000000E+01 0. -1.
</event>
<event>
 7    1  0.2809211E-007  0.1660676E+03  0.7546771E-02  0.1082344E+00
        -11   -1    0    0    0    0  0.00000000000E+00  0.00000000000E+00  0.18250000000E+03  0.18250000000E+03  0.00000000000E+00 0. -1.
         11   -1    0    0    0    0 -0.00000000000E+00 -0.00000000000E+00 -0.18250000000E+03  0.18250000000E+03  0.00000000000E+00 0.  1.
         23    2    1    2    0    0  0.10231834016E+02 -0.66775940406E+02  0.11341282016E+03  0.16002221853E+03  0.90448471531E+02 0.  0.
        -11    1    1    2    0    0 -0.62068987044E+02  0.83701432100E+02 -0.10816777909E+03  0.15019573003E+03  0.00000000000E+00 0.  1.
         11    1    1    2    0    0  0.51837153028E+02 -0.16925491694E+02 -0.52450410781E+01  0.54782051432E+02  0.00000000000E+00 0. -1.
        -15    1    3    3    0    0 -0.15318173801E+02 -0.79118177913E+02  0.63637467408E+02  0.10269964709E+03  0.17770000000E+01 0.  1.
         15    1    3    3    0    0  0.25550007816E+02  0.12342237507E+02  0.49775352756E+02  0.57322571445E+02  0.17770000000E+01 0. -1.
</event>
<event>
 7    1  0.2809211E-007  0.1518508E+03  0.7546771E-02  0.1095862E+00
        -11   -1    0    0    0    0  0.00000000000E+00  0.00000000000E+00  0.18250000000E+03  0.18250000000E+03  0.00000000000E+00 0.  1.
         11   -1    0    0    0    0 -0.00000000000E+00 -0.00000000000E+00 -0.18250000000E+03  0.18250000000E+03  0.00000000000E+00 0. -1.
         23    2    1    2    0    0 -0.57675700059E+02  0.72709875836E+02 -0.61584680731E+02  0.14416909466E+03  0.91536017682E+02 0.  0.
        -11    1    1    2    0    0  0.39783514937E+02 -0.34701364789E+02  0.13013344182E+03  0.14043370485E+03  0.00000000000E+00 0.  1.
         11    1    1    2    0    0  0.17892185123E+02 -0.38008511047E+02 -0.68548761085E+02  0.80397200491E+02  0.00000000000E+00 0. -1.
        -15    1    3    3    0    0 -0.59063588422E+01  0.77475121538E+02 -0.29979648471E+02  0.83301960263E+02  0.17770000000E+01 0.  1.
         15    1    3    3    0    0 -0.51769341217E+02 -0.47652457022E+01 -0.31605032260E+02  0.60867134398E+02  0.17770000000E+01 0. -1.
</event>
<event>
 7    1  0.2809211E-007  0.1574869E+03  0.7546771E-02  0.1090316E+00
        -11   -1    0    0    0    0  0.00000000000E+00  0.00000000000E+00  0.18250000000E+03  0.18250000000E+03  0.00000000000E+00 0.  1.
         11   -1    0    0    0    0 -0.00000000000E+00 -0.00000000000E+00 -0.18250000000E+03  0.18250000000E+03  0.00000000000E+00 0. -1.
         23    2    1    2    0    0 -0.28180480037E+02 -0.19873685178E+02  0.10210025640E+03  0.14173851863E+03  0.92066511226E+02 0.  0.
        -11    1    1    2    0    0 -0.69296753826E+02  0.66966890730E+01  0.14084794763E+02  0.71030044198E+02  0.00000000000E+00 0.  1.
         11    1    1    2    0    0  0.97477233863E+02  0.13176996105E+02 -0.11618505117E+03  0.15223143717E+03  0.00000000000E+00 0. -1.
        -15    1    3    3    0    0 -0.19518867172E+02  0.98926999138E+01 -0.10926845587E+02  0.24523567660E+02  0.17770000000E+01 0. -1.
         15    1    3    3    0    0 -0.86616128647E+01 -0.29766385092E+02  0.11302710199E+03  0.11721495097E+03  0.17770000000E+01 0.  1.
</event>
<event>
 7    1  0.2809211E-007  0.2137940E+03  0.7546771E-02  0.1045958E+00
        -11   -1    0    0    0    0  0.00000000000E+00  0.00000000000E+00  0.18250000000E+03  0.18250000000E+03  0.00000000000E+00 0. -1.
         11   -1    0    0    0    0 -0.00000000000E+00 -0.00000000000E+00 -0.18250000000E+03  0.18250000000E+03  0.00000000000E+00 0.  1.
         23    2    1    2    0    0 -0.27612879772E+02  0.47052341356E+01  0.65101265052E+02  0.11464526251E+03  0.90115210410E+02 0.  0.
        -11    1    1    2    0    0 -0.58695516387E+02  0.73518689771E+02  0.31309974815E+02  0.99148756485E+02  0.00000000000E+00 0. -1.
         11    1    1    2    0    0  0.86308396159E+02 -0.78223923906E+02 -0.96411239867E+02  0.15120598100E+03  0.00000000000E+00 0.  1.
        -15    1    3    3    0    0 -0.51426707093E+02  0.11318506160E+02  0.71724508834E+02  0.88996503755E+02  0.17770000000E+01 0. -1.
         15    1    3    3    0    0  0.23813827321E+02 -0.66132720245E+01 -0.66232437816E+01  0.25648758756E+02  0.17770000000E+01 0.  1.
</event>
<event>
 7    1  0.2809211E-007  0.1212631E+03  0.7546771E-02  0.1131413E+00
        -11   -1    0    0    0    0  0.00000000000E+00  0.00000000000E+00  0.18250000000E+03  0.18250000000E+03  0.00000000000E+00 0.  1.
         11   -1    0    0    0    0 -0.00000000000E+00 -0.00000000000E+00 -0.18250000000E+03  0.18250000000E+03  0.00000000000E+00 0. -1.
         23    2    1    2    0    0  0.28711021563E+02  0.32780878586E+02  0.49280010357E+02  0.11371047124E+03  0.92750434436E+02 0.  0.
        -11    1    1    2    0    0  0.11991593496E+02 -0.90110487951E+02  0.68702340157E+02  0.11394608329E+03  0.00000000000E+00 0.  1.
         11    1    1    2    0    0 -0.40702615059E+02  0.57329609365E+02 -0.11798235051E+03  0.13734344548E+03  0.00000000000E+00 0. -1.
        -15    1    3    3    0    0  0.12497828873E+02  0.37328659900E+02  0.73947032812E+02  0.83791085249E+02  0.17770000000E+01 0.  1.
         15    1    3    3    0    0  0.16213192690E+02 -0.45477813131E+01 -0.24667022456E+02  0.29919385988E+02  0.17770000000E+01 0. -1.
</event>
<event>
 7    1  0.2809211E-007  0.1661495E+03  0.7546771E-02  0.1082270E+00
        -11   -1    0    0    0    0  0.00000000000E+00  0.00000000000E+00  0.18250000000E+03  0.18250000000E+03  0.00000000000E+00 0. -1.
         11   -1    0    0    0    0 -0.00000000000E+00 -0.00000000000E+00 -0.18250000000E+03  0.18250000000E+03  0.00000000000E+00 0. -1.
         23    2    1    2    0    0  0.61733143953E+02 -0.97788906588E+02 -0.72109427450E+02  0.14813814358E+03  0.58064522234E+02 0.  0.
        -11    1    1    2    0    0 -0.87118930884E+02  0.12264140991E+03  0.91811599319E+02  0.17623845583E+03  0.00000000000E+00 0. -1.
         11    1    1    2    0    0  0.25385786930E+02 -0.24852503320E+02 -0.19702171869E+02  0.40623400593E+02  0.00000000000E+00 0. -1.
        -15    1    3    3    0    0  0.22535036264E+02 -0.25545188841E+02 -0.54133009745E+02  0.63983787051E+02  0.17770000000E+01 0. -1.
         15    1    3    3    0    0  0.39198107690E+02 -0.72243717748E+02 -0.17976417705E+02  0.84154356530E+02  0.17770000000E+01 0.  1.
</event>
<event>
 7    1  0.2809211E-007  0.1481372E+03  0.7546771E-02  0.1099663E+00
        -11   -1    0    0    0    0  0.00000000000E+00  0.00000000000E+00  0.18250000000E+03  0.18250000000E+03  0.00000000000E+00 0. -1.
         11   -1    0    0    0    0 -0.00000000000E+00 -0.00000000000E+00 -0.18250000000E+03  0.18250000000E+03  0.00000000000E+00 0.  1.
         23    2    1    2    0    0 -0.22541343712E+02  0.32840782705E+02 -0.80611448612E+02  0.12722174707E+03  0.90002989371E+02 0.  0.
        -11    1    1    2    0    0  0.10315990209E+03 -0.57839352051E+02  0.95572120957E+02  0.15205718118E+03  0.00000000000E+00 0.  1.
         11    1    1    2    0    0 -0.80618558378E+02  0.24998569346E+02 -0.14960672345E+02  0.85721071746E+02  0.00000000000E+00 0. -1.
        -15    1    3    3    0    0 -0.18370778570E+02  0.59906383902E+02 -0.77387517752E+02  0.99590390954E+02  0.17770000000E+01 0. -1.
         15    1    3    3    0    0 -0.41705651414E+01 -0.27065601197E+02 -0.32239308597E+01  0.27631356118E+02  0.17770000000E+01 0.  1.
</event>
<event>
 7    1  0.2809211E-007  0.1584558E+03  0.7546771E-02  0.1089388E+00
        -11   -1    0    0    0    0  0.00000000000E+00  0.00000000000E+00  0.18250000000E+03  0.18250000000E+03  0.00000000000E+00 0. -1.
         11   -1    0    0    0    0 -0.00000000000E+00 -0.00000000000E+00 -0.18250000000E+03  0.18250000000E+03  0.00000000000E+00 0. -1.
         23    2    1    2    0    0  0.76106639503E+02 -0.13714856328E+02  0.12934928083E+03  0.17562972024E+03  0.90190045564E+02 0.  0.
        -11    1    1    2    0    0 -0.17525371045E+02 -0.49154084879E+02 -0.44053620026E+02  0.68293368111E+02  0.00000000000E+00 0. -1.
         11    1    1    2    0    0 -0.58581268458E+02  0.62868941207E+02 -0.85295660805E+02  0.12107691165E+03  0.00000000000E+00 0. -1.
        -15    1    3    3    0    0  0.27762057659E+02  0.17713596883E+02 -0.10951010768E+01  0.32997883801E+02  0.17770000000E+01 0.  1.
         15    1    3    3    0    0  0.48344581844E+02 -0.31428453211E+02  0.13044438191E+03  0.14263183644E+03  0.17770000000E+01 0. -1.
</event>
<event>
 7    1  0.3397562E-007  0.1773367E+03  0.7546771E-02  0.1072641E+00
        -11   -1    0    0    0    0  0.00000000000E+00  0.00000000000E+00  0.18250000000E+03  0.18250000000E+03  0.00000000000E+00 0. -1.
         11   -1    0    0    0    0 -0.00000000000E+00 -0.00000000000E+00 -0.18250000000E+03  0.18250000000E+03  0.00000000000E+00 0.  1.
         23    2    1    2    0    0 -0.14486095304E+02 -0.11714782538E+02  0.13817788660E+03  0.16731642725E+03  0.92490947642E+02 0.  0.
        -11    1    1    2    0    0 -0.24118046994E+02 -0.17334935160E+02  0.17641774178E+02  0.34545800960E+02  0.00000000000E+00 0. -1.
         11    1    1    2    0    0  0.38604142298E+02  0.29049717698E+02 -0.15581966078E+03  0.16313777179E+03  0.00000000000E+00 0.  1.
        -15    1    3    3    0    0 -0.31876930353E+01  0.48248930168E+01  0.14571557997E+03  0.14584110859E+03  0.17770000000E+01 0. -1.
         15    1    3    3    0    0 -0.11298402268E+02 -0.16539675555E+02 -0.75376933705E+01  0.21475318662E+02  0.17770000000E+01 0.  1.
</event>
<event>
 7    1  0.2809211E-007  0.2179022E+03  0.7546771E-02  0.1043317E+00
        -11   -1    0    0    0    0  0.00000000000E+00  0.00000000000E+00  0.18250000000E+03  0.18250000000E+03  0.00000000000E+00 0.  1.
         11   -1    0    0    0    0 -0.00000000000E+00 -0.00000000000E+00 -0.18250000000E+03  0.18250000000E+03  0.00000000000E+00 0.  1.
         23    2    1    2    0    0  0.10181299390E+02  0.18821286755E+02  0.42175409654E+02  0.10523791562E+03  0.94012520510E+02 0.  0.
        -11    1    1    2    0    0 -0.44674359988E+02  0.90610243751E+02  0.49872060252E+02  0.11266426721E+03  0.00000000000E+00 0.  1.
         11    1    1    2    0    0  0.34493060598E+02 -0.10943153051E+03 -0.92047469907E+02  0.14709781716E+03  0.00000000000E+00 0.  1.
        -15    1    3    3    0    0  0.10828501950E+02  0.67845052975E+01  0.71933867757E+02  0.73081632618E+02  0.17770000000E+01 0.  1.
         15    1    3    3    0    0 -0.64720256029E+00  0.12036781457E+02 -0.29758458103E+02  0.32156283004E+02  0.17770000000E+01 0. -1.
</event>
<event>
 7    1  0.2809211E-007  0.1593602E+03  0.7546771E-02  0.1088529E+00
        -11   -1    0    0    0    0  0.00000000000E+00  0.00000000000E+00  0.18250000000E+03  0.18250000000E+03  0.00000000000E+00 0. -1.
         11   -1    0    0    0    0 -0.00000000000E+00 -0.00000000000E+00 -0.18250000000E+03  0.18250000000E+03  0.00000000000E+00 0. -1.
         23    2    1    2    0    0  0.62510706537E+02  0.31512481301E+02 -0.92294851493E+02  0.15028957147E+03  0.95749625443E+02 0.  0.
        -11    1    1    2    0    0 -0.69203637595E+02  0.30634180540E+02  0.12350288436E+03  0.14484667383E+03  0.00000000000E+00 0. -1.
         11    1    1    2    0    0  0.66929310588E+01 -0.62146661841E+02 -0.31208032871E+02  0.69863754693E+02  0.00000000000E+00 0. -1.
        -15    1    3    3    0    0  0.65369876914E+02  0.18557528008E+02 -0.12173226139E+02  0.69057568862E+02  0.17770000000E+01 0.  1.
         15    1    3    3    0    0 -0.28591703770E+01  0.12954953293E+02 -0.80121625354E+02  0.81232002613E+02  0.17770000000E+01 0. -1.
</event>
<event>
 7    1  0.2809211E-007  0.1715266E+03  0.7546771E-02  0.1077541E+00
        -11   -1    0    0    0    0  0.00000000000E+00  0.00000000000E+00  0.18250000000E+03  0.18250000000E+03  0.00000000000E+00 0.  1.
         11   -1    0    0    0    0 -0.00000000000E+00 -0.00000000000E+00 -0.18250000000E+03  0.18250000000E+03  0.00000000000E+00 0.  1.
         23    2    1    2    0    0  0.58510019571E+02 -0.30257644755E+02 -0.12779891472E+03  0.17088616752E+03  0.92361096729E+02 0.  0.
        -11    1    1    2    0    0 -0.49770532812E+02 -0.13065424095E+02  0.13925453724E+03  0.14845752721E+03  0.00000000000E+00 0.  1.
         11    1    1    2    0    0 -0.87394867588E+01  0.43323068851E+02 -0.11455622525E+02  0.45656305270E+02  0.00000000000E+00 0.  1.
        -15    1    3    3    0    0  0.60880339886E+02  0.91457824316E+01 -0.36967432531E+02  0.71831816891E+02  0.17770000000E+01 0. -1.
         15    1    3    3    0    0 -0.23703203150E+01 -0.39403427187E+02 -0.90831482188E+02  0.99054350626E+02  0.17770000000E+01 0.  1.
</event>
<event>
 7    1  0.2809211E-007  0.1641942E+03  0.7546771E-02  0.1084038E+00
        -11   -1    0    0    0    0  0.00000000000E+00  0.00000000000E+00  0.18250000000E+03  0.18250000000E+03  0.00000000000E+00 0.  1.
         11   -1    0    0    0    0 -0.00000000000E+00 -0.00000000000E+00 -0.18250000000E+03  0.18250000000E+03  0.00000000000E+00 0.  1.
         23    2    1    2    0    0 -0.30616473861E+02 -0.93121072358E+02 -0.40432304485E+02  0.14057420095E+03  0.92289935188E+02 0.  0.
        -11    1    1    2    0    0  0.50316102656E+02  0.14437558374E+03  0.62598293999E+02  0.16521067090E+03  0.00000000000E+00 0.  1.
         11    1    1    2    0    0 -0.19699628795E+02 -0.51254511381E+02 -0.22165989514E+02  0.59215128157E+02  0.00000000000E+00 0.  1.
        -15    1    3    3    0    0 -0.58550606269E+02 -0.31232586646E+02 -0.15094563424E+02  0.68078275074E+02  0.17770000000E+01 0.  1.
         15    1    3    3    0    0  0.27934132408E+02 -0.61888485712E+02 -0.25337741062E+02  0.72495925873E+02  0.17770000000E+01 0. -1.
</event>
<event>
 7    1  0.2809211E-007  0.1395734E+03  0.7546771E-02  0.1108916E+00
        -11   -1    0    0    0    0  0.00000000000E+00  0.00000000000E+00  0.18250000000E+03  0.18250000000E+03  0.00000000000E+00 0.  1.
         11   -1    0    0    0    0 -0.00000000000E+00 -0.00000000000E+00 -0.18250000000E+03  0.18250000000E+03  0.00000000000E+00 0. -1.
         23    2    1    2    0    0  0.10902509856E+03 -0.40944516488E+02  0.21072025425E+02  0.14917073443E+03  0.90801719186E+02 0.  0.
        -11    1    1    2    0    0 -0.62992761263E+02  0.76554111340E+02  0.60112036291E+02  0.11593997085E+03  0.00000000000E+00 0.  1.
         11    1    1    2    0    0 -0.46032337299E+02 -0.35609594852E+02 -0.81184061716E+02  0.99889294719E+02  0.00000000000E+00 0. -1.
        -15    1    3    3    0    0  0.47535634683E+02 -0.55397205555E+02  0.39934977304E+02  0.83225279148E+02  0.17770000000E+01 0.  1.
         15    1    3    3    0    0  0.61489463879E+02  0.14452689067E+02 -0.18862951879E+02  0.65945455279E+02  0.17770000000E+01 0. -1.
</event>
<event>
 7    1  0.3357320E-007  0.1444218E+03  0.7546771E-02  0.1103591E+00
        -11   -1    0    0    0    0  0.00000000000E+00  0.00000000000E+00  0.18250000000E+03  0.18250000000E+03  0.00000000000E+00 0. -1.
         11   -1    0    0    0    0 -0.00000000000E+00 -0.00000000000E+00 -0.18250000000E+03  0.18250000000E+03  0.00000000000E+00 0. -1.
         23    2    1    2    0    0 -0.28693893006E+02  0.30046477699E+02 -0.78172809993E+02  0.13154662515E+03  0.97300544948E+02 0.  0.
        -11    1    1    2    0    0  0.28173002826E+02  0.55162583343E+02  0.12259835843E+03  0.13735714827E+03  0.00000000000E+00 0. -1.
         11    1    1    2    0    0  0.52089017995E+00 -0.85209061042E+02 -0.44425548440E+02  0.96096226588E+02  0.00000000000E+00 0. -1.
        -15    1    3    3    0    0 -0.14091097203E+02  0.62166234377E+02 -0.26735765552E+02  0.69145922552E+02  0.17770000000E+01 0.  1.
         15    1    3    3    0    0 -0.14602795803E+02 -0.32119756678E+02 -0.51437044441E+02  0.62400702594E+02  0.17770000000E+01 0. -1.
</event>
<event>
 7    1  0.2809211E-007  0.2091880E+03  0.7546771E-02  0.1048996E+00
        -11   -1    0    0    0    0  0.00000000000E+00  0.00000000000E+00  0.18250000000E+03  0.18250000000E+03  0.00000000000E+00 0. -1.
         11   -1    0    0    0    0 -0.00000000000E+00 -0.00000000000E+00 -0.18250000000E+03  0.18250000000E+03  0.00000000000E+00 0.  1.
         23    2    1    2    0    0  0.89948105461E+01 -0.12043434143E+02  0.79542726895E+02  0.11101403542E+03  0.75967886218E+02 0.  0.
        -11    1    1    2    0    0 -0.43990695381E+02  0.59225066175E+02  0.64771398045E+02  0.98173946383E+02  0.00000000000E+00 0. -1.
         11    1    1    2    0    0  0.34995884835E+02 -0.47181632032E+02 -0.14431412494E+03  0.15581201819E+03  0.00000000000E+00 0.  1.
        -15    1    3    3    0    0 -0.19354028604E+02 -0.30681469196E+02  0.17583271669E+02  0.40351705624E+02  0.17770000000E+01 0.  1.
         15    1    3    3    0    0  0.28348839150E+02  0.18638035053E+02  0.61959455226E+02  0.70662329799E+02  0.17770000000E+01 0. -1.
</event>
<event>
 7    1  0.2809211E-007  0.1460872E+03  0.7546771E-02  0.1101815E+00
        -11   -1    0    0    0    0  0.00000000000E+00  0.00000000000E+00  0.18250000000E+03  0.18250000000E+03  0.00000000000E+00 0.  1.
         11   -1    0    0    0    0 -0.00000000000E+00 -0.00000000000E+00 -0.18250000000E+03  0.18250000000E+03  0.00000000000E+00 0. -1.
         23    2    1    2    0    0 -0.60036221142E+02 -0.59424507857E+02 -0.32937972552E+02  0.13077231857E+03  0.94238364185E+02 0.  0.
        -11    1    1    2    0    0  0.20565230834E+02  0.88104292916E+02  0.11036607585E+03  0.14270937547E+03  0.00000000000E+00 0.  1.
         11    1    1    2    0    0  0.39470990308E+02 -0.28679785060E+02 -0.77428103293E+02  0.91518305964E+02  0.00000000000E+00 0. -1.
        -15    1    3    3    0    0  0.20236387261E+01 -0.20108446045E+02  0.28501853374E+02  0.34985112416E+02  0.17770000000E+01 0.  1.
         15    1    3    3    0    0 -0.62059859868E+02 -0.39316061812E+02 -0.61439825926E+02  0.95787206150E+02  0.17770000000E+01 0. -1.
</event>
<event>
 7    1  0.2809211E-007  0.2071833E+03  0.7546771E-02  0.1050346E+00
        -11   -1    0    0    0    0  0.00000000000E+00  0.00000000000E+00  0.18250000000E+03  0.18250000000E+03  0.00000000000E+00 0. -1.
         11   -1    0    0    0    0 -0.00000000000E+00 -0.00000000000E+00 -0.18250000000E+03  0.18250000000E+03  0.00000000000E+00 0. -1.
         23    2    1    2    0    0  0.48102818059E+02 -0.58486575348E+02  0.35642971260E+02  0.11612742873E+03  0.80502159616E+02 0.  0.
        -11    1    1    2    0    0  0.72237615975E+02  0.10435699324E+02  0.54442574138E+02  0.91055866702E+02  0.00000000000E+00 0. -1.
         11    1    1    2    0    0 -0.12034043403E+03  0.48050876024E+02 -0.90085545397E+02  0.15781670456E+03  0.00000000000E+00 0. -1.
        -15    1    3    3    0    0  0.41822119607E+02 -0.77201812058E+02  0.38883972704E+02  0.96043378407E+02  0.17770000000E+01 0.  1.
         15    1    3    3    0    0  0.62806984520E+01  0.18715236710E+02 -0.32410014447E+01  0.20084050327E+02  0.17770000000E+01 0. -1.
</event>
<event>
 7    1  0.2809211E-007  0.1644659E+03  0.7546771E-02  0.1083791E+00
        -11   -1    0    0    0    0  0.00000000000E+00  0.00000000000E+00  0.18250000000E+03  0.18250000000E+03  0.00000000000E+00 0. -1.
         11   -1    0    0    0    0 -0.00000000000E+00 -0.00000000000E+00 -0.18250000000E+03  0.18250000000E+03  0.00000000000E+00 0. -1.
         23    2    1    2    0    0  0.48998338019E+02 -0.77846308527E+02  0.99822553681E+02  0.16836061375E+03  0.99598539950E+02 0.  0.
        -11    1    1    2    0    0 -0.61976383978E+02 -0.11305943012E+02 -0.11288425600E+01  0.63009291409E+02  0.00000000000E+00 0. -1.
         11    1    1    2    0    0  0.12978045959E+02  0.89152251539E+02 -0.98693711121E+02  0.13363009484E+03  0.00000000000E+00 0. -1.
        -15    1    3    3    0    0  0.63287844436E+02 -0.90084186607E+02  0.10101638364E+03  0.14942549790E+03  0.17770000000E+01 0. -1.
         15    1    3    3    0    0 -0.14289506417E+02  0.12237878080E+02 -0.11938299549E+01  0.18935115857E+02  0.17770000000E+01 0.  1.
</event>
<event>
 7    1  0.2809211E-007  0.1386897E+03  0.7546771E-02  0.1109913E+00
        -11   -1    0    0    0    0  0.00000000000E+00  0.00000000000E+00  0.18250000000E+03  0.18250000000E+03  0.00000000000E+00 0. -1.
         11   -1    0    0    0    0 -0.00000000000E+00 -0.00000000000E+00 -0.18250000000E+03  0.18250000000E+03  0.00000000000E+00 0.  1.
         23    2    1    2    0    0  0.41795971360E+02  0.88759265443E+02  0.45571137003E+02  0.14214703152E+03  0.92216807679E+02 0.  0.
        -11    1    1    2    0    0  0.42017584945E+02 -0.83419308411E+02  0.41207486616E+02  0.10208974196E+03  0.00000000000E+00 0. -1.
         11    1    1    2    0    0 -0.83813556306E+02 -0.53399570315E+01 -0.86778623620E+02  0.12076322652E+03  0.00000000000E+00 0.  1.
        -15    1    3    3    0    0  0.10881010098E+02  0.71281173437E+02  0.68795585590E+02  0.99676438505E+02  0.17770000000E+01 0.  1.
         15    1    3    3    0    0  0.30914961262E+02  0.17478092005E+02 -0.23224448586E+02  0.42470593016E+02  0.17770000000E+01 0. -1.
</event>
<event>
 7    1  0.2809211E-007  0.1600050E+03  0.7546771E-02  0.1087920E+00
        -11   -1    0    0    0    0  0.00000000000E+00  0.00000000000E+00  0.18250000000E+03  0.18250000000E+03  0.00000000000E+00 0.  1.
         11   -1    0    0    0    0 -0.00000000000E+00 -0.00000000000E+00 -0.18250000000E+03  0.18250000000E+03  0.00000000000E+00 0.  1.
         23    2    1    2    0    0  0.10485037503E+02 -0.16545448090E+01  0.14758838837E+03  0.18516499700E+03  0.11131518406E+03 0.  0.
        -11    1    1    2    0    0 -0.20366636313E+02  0.48563192201E+02 -0.58818102966E+02  0.78947784947E+02  0.00000000000E+00 0.  1.
         11    1    1    2    0    0  0.98815988098E+01 -0.46908647392E+02 -0.88770285405E+02  0.10088721805E+03  0.00000000000E+00 0.  1.
        -15    1    3    3    0    0 -0.18695536715E+02  0.13195694574E+02  0.15050530363E+03  0.15224537299E+03  0.17770000000E+01 0.  1.
         15    1    3    3    0    0  0.29180574218E+02 -0.14850239383E+02 -0.29169152548E+01  0.32919624011E+02  0.17770000000E+01 0. -1.
</event>
<event>
 7    1  0.2809211E-007  0.2202308E+03  0.7546771E-02  0.1041848E+00
        -11   -1    0    0    0    0  0.00000000000E+00  0.00000000000E+00  0.18250000000E+03  0.18250000000E+03  0.00000000000E+00 0.  1.
         11   -1    0    0    0    0 -0.00000000000E+00 -0.00000000000E+00 -0.18250000000E+03  0.18250000000E+03  0.00000000000E+00 0. -1.
         23    2    1    2    0    0 -0.15444771283E+02  0.98391519139E+01  0.12897494823E+02  0.93937733804E+02  0.91228299278E+02 0.  0.
        -11    1    1    2    0    0 -0.55335016771E+02 -0.64282460561E+01  0.11334312680E+03  0.12629311470E+03  0.00000000000E+00 0.  1.
         11    1    1    2    0    0  0.70779788054E+02 -0.34109058578E+01 -0.12624062162E+03  0.14476915149E+03  0.00000000000E+00 0. -1.
        -15    1    3    3    0    0 -0.17874714666E+02  0.20673697894E+02  0.48994612294E+02  0.56129644324E+02  0.17770000000E+01 0.  1.
         15    1    3    3    0    0  0.24299433831E+01 -0.10834545980E+02 -0.36097117471E+02  0.37808089481E+02  0.17770000000E+01 0. -1.
</event>
<event>
 7    1  0.2809211E-007  0.1894661E+03  0.7546771E-02  0.1063041E+00
        -11   -1    0    0    0    0  0.00000000000E+00  0.00000000000E+00  0.18250000000E+03  0.18250000000E+03  0.00000000000E+00 0.  1.
         11   -1    0    0    0    0 -0.00000000000E+00 -0.00000000000E+00 -0.18250000000E+03  0.18250000000E+03  0.00000000000E+00 0.  1.
         23    2    1    2    0    0 -0.19658782380E+02 -0.73778822332E+02  0.14763331213E+03  0.18946608935E+03  0.90950655931E+02 0.  0.
        -11    1    1    2    0    0  0.29057225166E+02  0.17818293647E+02 -0.32116380518E+02  0.46832422747E+02  0.00000000000E+00 0.  1.
         11    1    1    2    0    0 -0.93984427862E+01  0.55960528685E+02 -0.11551693162E+03  0.12870148790E+03  0.00000000000E+00 0.  1.
        -15    1    3    3    0    0  0.65876343935E+01 -0.68939585048E+02  0.14723112104E+03  0.16271516231E+03  0.17770000000E+01 0.  1.
         15    1    3    3    0    0 -0.26246416773E+02 -0.48392372841E+01  0.40219108939E+00  0.26750927042E+02  0.17770000000E+01 0. -1.
</event>
<event>
 7    1  0.2809211E-007  0.1516179E+03  0.7546771E-02  0.1096097E+00
        -11   -1    0    0    0    0  0.00000000000E+00  0.00000000000E+00  0.18250000000E+03  0.18250000000E+03  0.00000000000E+00 0.  1.
         11   -1    0    0    0    0 -0.00000000000E+00 -0.00000000000E+00 -0.18250000000E+03  0.18250000000E+03  0.00000000000E+00 0. -1.
         23    2    1    2    0    0 -0.44755845260E+02 -0.57423289261E+01 -0.89430242028E+02  0.13541071715E+03  0.91116596203E+02 0.  0.
        -11    1    1    2    0    0  0.12351605607E+03 -0.98119117394E+01  0.82821021982E+02  0.14903627546E+03  0.00000000000E+00 0.  1.
         11    1    1    2    0    0 -0.78760210815E+02  0.15554240665E+02  0.66092200459E+01  0.80553007392E+02  0.00000000000E+00 0. -1.
        -15    1    3    3    0    0 -0.21033254180E+02  0.24112307361E+02 -0.91731351681E+02  0.97167894686E+02  0.17770000000E+01 0. -1.
         15    1    3    3    0    0 -0.23722591080E+02 -0.29854636287E+02  0.23011096525E+01  0.38242822464E+02  0.17770000000E+01 0.  1.
</event>
<event>
 7    1  0.2809211E-007  0.1780086E+03  0.7546771E-02  0.1072087E+00
        -11   -1    0    0    0    0  0.00000000000E+00  0.00000000000E+00  0.18250000000E+03  0.18250000000E+03  0.00000000000E+00 0.  1.
         11   -1    0    0    0    0 -0.00000000000E+00 -0.00000000000E+00 -0.18250000000E+03  0.18250000000E+03  0.00000000000E+00 0. -1.
         23    2    1    2    0    0 -0.29818862647E+02  0.34898885079E+02  0.13798135525E+03  0.17165836564E+03  0.91217560517E+02 0.  0.
        -11    1    1    2    0    0 -0.31852684366E+02  0.38713152899E+01  0.53793923681E+01  0.32534880446E+02  0.00000000000E+00 0.  1.
         11    1    1    2    0    0  0.61671547012E+02 -0.38770200369E+02 -0.14336074762E+03  0.16080675392E+03  0.00000000000E+00 0. -1.
        -15    1    3    3    0    0  0.32900809151E+01 -0.74468967435E+01 -0.10692284308E+02  0.13555942471E+02  0.17770000000E+01 0. -1.
         15    1    3    3    0    0 -0.33108943562E+02  0.42345781822E+02  0.14867363956E+03  0.15810242317E+03  0.17770000000E+01 0.  1.
</event>
<event>
 7    1  0.2809211E-007  0.1398881E+03  0.7546771E-02  0.1108564E+00
        -11   -1    0    0    0    0  0.00000000000E+00  0.00000000000E+00  0.18250000000E+03  0.18250000000E+03  0.00000000000E+00 0.  1.
         11   -1    0    0    0    0 -0.00000000000E+00 -0.00000000000E+00 -0.18250000000E+03  0.18250000000E+03  0.00000000000E+00 0. -1.
         23    2    1    2    0    0  0.88510439933E+02 -0.34796275730E+02  0.20919074397E+02  0.13269866334E+03  0.90146818011E+02 0.  0.
        -11    1    1    2    0    0  0.20652250837E+02  0.92221704876E+02  0.29567460615E+02  0.99023194465E+02  0.00000000000E+00 0.  1.
         11    1    1    2    0    0 -0.10916269077E+03 -0.57425429146E+02 -0.50486535011E+02  0.13327814219E+03  0.00000000000E+00 0. -1.
        -15    1    3    3    0    0  0.50248341991E+02 -0.14382164736E+02  0.56197396363E+02  0.76766188015E+02  0.17770000000E+01 0.  1.
         15    1    3    3    0    0  0.38262097942E+02 -0.20414110994E+02 -0.35278321966E+02  0.55932475328E+02  0.17770000000E+01 0. -1.
</event>
<event>
 7    1  0.2809211E-007  0.1540784E+03  0.7546771E-02  0.1093639E+00
        -11   -1    0    0    0    0  0.00000000000E+00  0.00000000000E+00  0.18250000000E+03  0.18250000000E+03  0.00000000000E+00 0.  1.
         11   -1    0    0    0    0 -0.00000000000E+00 -0.00000000000E+00 -0.18250000000E+03  0.18250000000E+03  0.00000000000E+00 0.  1.
         23    2    1    2    0    0 -0.60207153965E+00 -0.28546685574E+02  0.11480354628E+03  0.14957912460E+03  0.91535700851E+02 0.  0.
        -11    1    1    2    0    0  0.40796731508E+02  0.63455410412E+02  0.13385204916E+02  0.76616748319E+02  0.00000000000E+00 0.  1.
         11    1    1    2    0    0 -0.40194659969E+02 -0.34908724838E+02 -0.12818875120E+03  0.13880412708E+03  0.00000000000E+00 0.  1.
        -15    1    3    3    0    0  0.31096344039E+02 -0.11797914842E+02  0.10803330357E+03  0.11305098769E+03  0.17770000000E+01 0.  1.
         15    1    3    3    0    0 -0.31698415579E+02 -0.16748770732E+02  0.67702427125E+01  0.36528136917E+02  0.17770000000E+01 0. -1.
</event>
<event>
 7    1  0.2809211E-007  0.1476390E+03  0.7546771E-02  0.1100183E+00
        -11   -1    0    0    0    0  0.00000000000E+00  0.00000000000E+00  0.18250000000E+03  0.18250000000E+03  0.00000000000E+00 0.  1.
         11   -1    0    0    0    0 -0.00000000000E+00 -0.00000000000E+00 -0.18250000000E+03  0.18250000000E+03  0.00000000000E+00 0. -1.
         23    2    1    2    0    0 -0.90676889617E+02 -0.61046132839E+02  0.69779449502E+02  0.15280847900E+03  0.80822837349E+02 0.  0.
        -11    1    1    2    0    0  0.50335864163E+02  0.37910055372E+02  0.52085787596E+02  0.81754515403E+02  0.00000000000E+00 0.  1.
         11    1    1    2    0    0  0.40341025454E+02  0.23136077468E+02 -0.12186523710E+03  0.13043700559E+03  0.00000000000E+00 0. -1.
        -15    1    3    3    0    0 -0.24566116103E+02 -0.61500166680E+02  0.17545841531E+02  0.68533049298E+02  0.17770000000E+01 0. -1.
         15    1    3    3    0    0 -0.66110773514E+02  0.45403384012E+00  0.52233607972E+02  0.84275429705E+02  0.17770000000E+01 0.  1.
</event>
<event>
 7    1  0.2809211E-007  0.1367502E+03  0.7546771E-02  0.1112129E+00
        -11   -1    0    0    0    0  0.00000000000E+00  0.00000000000E+00  0.18250000000E+03  0.18250000000E+03  0.00000000000E+00 0. -1.
         11   -1    0    0    0    0 -0.00000000000E+00 -0.00000000000E+00 -0.18250000000E+03  0.18250000000E+03  0.00000000000E+00 0.  1.
         23    2    1    2    0    0 -0.21123789301E+02  0.10949543269E+03 -0.27642313574E+02  0.14696850344E+03  0.91652491776E+02 0.  0.
        -11    1    1    2    0    0  0.30152543696E+02 -0.37021089043E+02  0.10272969920E+03  0.11328339694E+03  0.00000000000E+00 0. -1.
         11    1    1    2    0    0 -0.90287543947E+01 -0.72474343649E+02 -0.75087385626E+02  0.10474809962E+03  0.00000000000E+00 0.  1.
        -15    1    3    3    0    0  0.23937760342E+02  0.34938198428E+02 -0.40813498999E+02  0.58843806039E+02  0.17770000000E+01 0.  1.
         15    1    3    3    0    0 -0.45061549644E+02  0.74557234265E+02  0.13171185426E+02  0.88124697401E+02  0.17770000000E+01 0. -1.
</event>
<event>
 7    1  0.2809211E-007  0.1869687E+03  0.7546771E-02  0.1064952E+00
        -11   -1    0    0    0    0  0.00000000000E+00  0.00000000000E+00  0.18250000000E+03  0.18250000000E+03  0.00000000000E+00 0. -1.
         11   -1    0    0    0    0 -0.00000000000E+00 -0.00000000000E+00 -0.18250000000E+03  0.18250000000E+03  0.00000000000E+00 0.  1.
         23    2    1    2    0    0  0.11263322697E+03  0.14259985063E+02  0.11458886540E+03  0.18696874912E+03  0.94536310916E+02 0.  0.
        -11    1    1    2    0    0 -0.82475545156E+02  0.13639554460E+02 -0.39544761197E+02  0.92477246568E+02  0.00000000000E+00 0.  1.
         11    1    1    2    0    0 -0.30157681815E+02 -0.27899539522E+02 -0.75044104204E+02  0.85554004312E+02  0.00000000000E+00 0. -1.
        -15    1    3    3    0    0  0.10629322103E+03  0.25903678262E+02  0.12774971348E+03  0.16820343756E+03  0.17770000000E+01 0. -1.
         15    1    3    3    0    0  0.63400059450E+01 -0.11643693199E+02 -0.13160848081E+02  0.18765311559E+02  0.17770000000E+01 0.  1.
</event>
<event>
 7    1  0.2809211E-007  0.1759170E+03  0.7546771E-02  0.1073819E+00
        -11   -1    0    0    0    0  0.00000000000E+00  0.00000000000E+00  0.18250000000E+03  0.18250000000E+03  0.00000000000E+00 0.  1.
         11   -1    0    0    0    0 -0.00000000000E+00 -0.00000000000E+00 -0.18250000000E+03  0.18250000000E+03  0.00000000000E+00 0.  1.
         23    2    1    2    0    0 -0.51050442714E+02 -0.16986889613E+02  0.12881224006E+03  0.16610686173E+03  0.90023298126E+02 0.  0.
        -11    1    1    2    0    0  0.19633832169E+02 -0.24599851036E-01  0.30142433769E+02  0.35972966020E+02  0.00000000000E+00 0.  1.
         11    1    1    2    0    0  0.31416610545E+02  0.17011489464E+02 -0.15895467383E+03  0.16292017225E+03  0.00000000000E+00 0.  1.
        -15    1    3    3    0    0  0.21934643168E+02 -0.19069542245E+02  0.21070042867E+02  0.35942738457E+02  0.17770000000E+01 0. -1.
         15    1    3    3    0    0 -0.72985085882E+02  0.20826526320E+01  0.10774219719E+03  0.13016412328E+03  0.17770000000E+01 0.  1.
</event>
<event>
 7    1  0.2809211E-007  0.1776122E+03  0.7546771E-02  0.1072413E+00
        -11   -1    0    0    0    0  0.00000000000E+00  0.00000000000E+00  0.18250000000E+03  0.18250000000E+03  0.00000000000E+00 0. -1.
         11   -1    0    0    0    0 -0.00000000000E+00 -0.00000000000E+00 -0.18250000000E+03  0.18250000000E+03  0.00000000000E+00 0.  1.
         23    2    1    2    0    0 -0.44224396991E+02  0.11652860274E+02  0.12077283719E+03  0.16760365077E+03  0.10683313674E+03 0.  0.
        -11    1    1    2    0    0  0.24628387443E+02  0.18001798248E+02  0.29823495387E+02  0.42662197380E+02  0.00000000000E+00 0. -1.
         11    1    1    2    0    0  0.19596009548E+02 -0.29654658522E+02 -0.15059633258E+03  0.15473415185E+03  0.00000000000E+00 0.  1.
        -15    1    3    3    0    0 -0.25577843142E+02  0.41734534136E+01  0.13840030846E+03  0.14081706887E+03  0.17770000000E+01 0. -1.
         15    1    3    3    0    0 -0.18646553850E+02  0.74794068603E+01 -0.17627471269E+02  0.26786581898E+02  0.17770000000E+01 0.  1.
</event>
<event>
 7    1  0.2809211E-007  0.2063885E+03  0.7546771E-02  0.1050885E+00
        -11   -1    0    0    0    0  0.00000000000E+00  0.00000000000E+00  0.18250000000E+03  0.18250000000E+03  0.00000000000E+00 0. -1.
         11   -1    0    0    0    0 -0.00000000000E+00 -0.00000000000E+00 -0.18250000000E+03  0.18250000000E+03  0.00000000000E+00 0. -1.
         23    2    1    2    0    0 -0.33176174544E+01  0.28102626345E+02 -0.80285990804E+02  0.11564706921E+03  0.78279244405E+02 0.  0.
        -11    1    1    2    0    0 -0.54521373880E+02 -0.12433431893E+02  0.14842654027E+03  0.15861150114E+03  0.00000000000E+00 0. -1.
         11    1    1    2    0    0  0.57838991335E+02 -0.15669194452E+02 -0.68140549464E+02  0.90741429648E+02  0.00000000000E+00 0. -1.
        -15    1    3    3    0    0  0.19951978671E+02  0.25966199119E+02 -0.85556826304E+02  0.91626705746E+02  0.17770000000E+01 0.  1.
         15    1    3    3    0    0 -0.23269596125E+02  0.21364272251E+01  0.52708355005E+01  0.24020363465E+02  0.17770000000E+01 0. -1.
</event>
<event>
 7    1  0.2809211E-007  0.1622068E+03  0.7546771E-02  0.1085864E+00
        -11   -1    0    0    0    0  0.00000000000E+00  0.00000000000E+00  0.18250000000E+03  0.18250000000E+03  0.00000000000E+00 0.  1.
         11   -1    0    0    0    0 -0.00000000000E+00 -0.00000000000E+00 -0.18250000000E+03  0.18250000000E+03  0.00000000000E+00 0.  1.
         23    2    1    2    0    0 -0.19776524690E+02 -0.29809033594E+02 -0.10056709419E+03  0.14218744029E+03  0.93935287988E+02 0.  0.
        -11    1    1    2    0    0  0.24879618623E+02  0.85850983314E+00  0.15711766296E+03  0.15907763034E+03  0.00000000000E+00 0.  1.
         11    1    1    2    0    0 -0.51030939335E+01  0.28950523761E+02 -0.56550568772E+02  0.63734929373E+02  0.00000000000E+00 0.  1.
        -15    1    3    3    0    0  0.27648020463E+02 -0.42909357710E+02 -0.55766668080E+02  0.75622119862E+02  0.17770000000E+01 0.  1.
         15    1    3    3    0    0 -0.47424545153E+02  0.13100324115E+02 -0.44800426105E+02  0.66565320424E+02  0.17770000000E+01 0. -1.
</event>
<event>
 7    1  0.2809211E-007  0.1362668E+03  0.7546771E-02  0.1112687E+00
        -11   -1    0    0    0    0  0.00000000000E+00  0.00000000000E+00  0.18250000000E+03  0.18250000000E+03  0.00000000000E+00 0.  1.
         11   -1    0    0    0    0 -0.00000000000E+00 -0.00000000000E+00 -0.18250000000E+03  0.18250000000E+03  0.00000000000E+00 0.  1.
         23    2    1    2    0    0  0.37188955434E+02 -0.42249986463E+01  0.71136113781E+02  0.12119905276E+03  0.90708294470E+02 0.  0.
        -11    1    1    2    0    0 -0.92977523105E+02 -0.83942400471E+02 -0.59939949643E+02  0.13886664093E+03  0.00000000000E+00 0.  1.
         11    1    1    2    0    0  0.55788567671E+02  0.88167399118E+02 -0.11196164139E+02  0.10493430631E+03  0.00000000000E+00 0.  1.
        -15    1    3    3    0    0  0.61086964651E+02 -0.45502477979E+01  0.75075394782E+02  0.96911271976E+02  0.17770000000E+01 0.  1.
         15    1    3    3    0    0 -0.23898009217E+02  0.32524915155E+00 -0.39392810002E+01  0.24287780783E+02  0.17770000000E+01 0. -1.
</event>
<event>
 7    1  0.2809211E-007  0.1500597E+03  0.7546771E-02  0.1097680E+00
        -11   -1    0    0    0    0  0.00000000000E+00  0.00000000000E+00  0.18250000000E+03  0.18250000000E+03  0.00000000000E+00 0. -1.
         11   -1    0    0    0    0 -0.00000000000E+00 -0.00000000000E+00 -0.18250000000E+03  0.18250000000E+03  0.00000000000E+00 0. -1.
         23    2    1    2    0    0 -0.18089697785E+02 -0.57567922519E+02  0.10265810653E+03  0.14940021710E+03  0.90224360158E+02 0.  0.
        -11    1    1    2    0    0 -0.14309773435E+02 -0.61539847752E+02 -0.53302150373E+02  0.82662214533E+02  0.00000000000E+00 0. -1.
         11    1    1    2    0    0  0.32399471220E+02  0.11910777027E+03 -0.49355956153E+02  0.13293756836E+03  0.00000000000E+00 0. -1.
        -15    1    3    3    0    0 -0.25866938881E+02 -0.19431982478E+02 -0.68934332463E+01  0.33126690463E+02  0.17770000000E+01 0.  1.
         15    1    3    3    0    0  0.77772410959E+01 -0.38135940042E+02  0.10955153977E+03  0.11627352664E+03  0.17770000000E+01 0. -1.
</event>
<event>
 7    1  0.2809211E-007  0.1828231E+03  0.7546771E-02  0.1068198E+00
        -11   -1    0    0    0    0  0.00000000000E+00  0.00000000000E+00  0.18250000000E+03  0.18250000000E+03  0.00000000000E+00 0.  1.
         11   -1    0    0    0    0 -0.00000000000E+00 -0.00000000000E+00 -0.18250000000E+03  0.18250000000E+03  0.00000000000E+00 0. -1.
         23    2    1    2    0    0 -0.77702104680E+02 -0.11767004207E+02  0.14729377516E+03  0.18734031150E+03  0.84999156764E+02 0.  0.
        -11    1    1    2    0    0  0.10944497054E+02 -0.15005253883E+02 -0.67150086312E+01  0.19749202535E+02  0.00000000000E+00 0.  1.
         11    1    1    2    0    0  0.66757607626E+02  0.26772258090E+02 -0.14057876653E+03  0.15791048597E+03  0.00000000000E+00 0. -1.
        -15    1    3    3    0    0 -0.16299911133E+02 -0.92140180105E+01  0.11754513697E+03  0.11904033848E+03  0.17770000000E+01 0. -1.
         15    1    3    3    0    0 -0.61402193547E+02 -0.25529861963E+01  0.29748638191E+02  0.68299973017E+02  0.17770000000E+01 0.  1.
</event>
<event>
 7    1  0.2809211E-007  0.1831750E+03  0.7546771E-02  0.1067919E+00
        -11   -1    0    0    0    0  0.00000000000E+00  0.00000000000E+00  0.18250000000E+03  0.18250000000E+03  0.00000000000E+00 0. -1.
         11   -1    0    0    0    0 -0.00000000000E+00 -0.00000000000E+00 -0.18250000000E+03  0.18250000000E+03  0.00000000000E+00 0. -1.
         23    2    1    2    0    0 -0.27079514653E+02 -0.11928737402E+02  0.16102245901E+03  0.18717774657E+03  0.90728615194E+02 0.  0.
        -11    1    1    2    0    0 -0.10654633128E+02  0.16496826845E+02 -0.98991639343E+01  0.21992270225E+02  0.00000000000E+00 0. -1.
         11    1    1    2    0    0  0.37734147781E+02 -0.45680894430E+01 -0.15112329508E+03  0.15582998320E+03  0.00000000000E+00 0. -1.
        -15    1    3    3    0    0 -0.30512995441E+02 -0.36677675887E+02  0.15390029803E+03  0.16113582551E+03  0.17770000000E+01 0. -1.
         15    1    3    3    0    0  0.34334807879E+01  0.24748938485E+02  0.71221609780E+01  0.26041921059E+02  0.17770000000E+01 0.  1.
</event>
<event>
 7    1  0.4014818E-007  0.1696299E+03  0.7546771E-02  0.1079187E+00
        -11   -1    0    0    0    0  0.00000000000E+00  0.00000000000E+00  0.18250000000E+03  0.18250000000E+03  0.00000000000E+00 0. -1.
         11   -1    0    0    0    0 -0.00000000000E+00 -0.00000000000E+00 -0.18250000000E+03  0.18250000000E+03  0.00000000000E+00 0.  1.
         23    2    1    2    0    0  0.10642968725E+02 -0.63221056157E+01 -0.12068333300E+03  0.15352093839E+03  0.94079593199E+02 0.  0.
        -11    1    1    2    0    0  0.34288988886E+01  0.38432990904E+02  0.15660264069E+03  0.16128620279E+03  0.00000000000E+00 0. -1.
         11    1    1    2    0    0 -0.14071867613E+02 -0.32110885288E+02 -0.35919307690E+02  0.50192858825E+02  0.00000000000E+00 0.  1.
        -15    1    3    3    0    0  0.36585035624E+02 -0.37295543506E+02 -0.51480335424E+02  0.73367602260E+02  0.17770000000E+01 0.  1.
         15    1    3    3    0    0 -0.25942066900E+02  0.30973437890E+02 -0.69202997578E+02  0.80153336128E+02  0.17770000000E+01 0. -1.
</event>
<event>
 7    1  0.2809211E-007  0.1644394E+03  0.7546771E-02  0.1083815E+00
        -11   -1    0    0    0    0  0.00000000000E+00  0.00000000000E+00  0.18250000000E+03  0.18250000000E+03  0.00000000000E+00 0. -1.
         11   -1    0    0    0    0 -0.00000000000E+00 -0.00000000000E+00 -0.18250000000E+03  0.18250000000E+03  0.00000000000E+00 0. -1.
         23    2    1    2    0    0 -0.64845681880E+02  0.55101733159E+02 -0.62382874119E+01  0.14914956108E+03  0.12233360898E+03 0.  0.
        -11    1    1    2    0    0  0.90553067188E+02 -0.62011968806E+02  0.81055886077E+02  0.13643826047E+03  0.00000000000E+00 0. -1.
         11    1    1    2    0    0 -0.25707385308E+02  0.69102356465E+01 -0.74817598665E+02  0.79412178449E+02  0.00000000000E+00 0. -1.
        -15    1    3    3    0    0 -0.75966455366E+02  0.23074204909E+02  0.42253456310E+02  0.89954619516E+02  0.17770000000E+01 0. -1.
         15    1    3    3    0    0  0.11120773487E+02  0.32027528250E+02 -0.48491743722E+02  0.59194941565E+02  0.17770000000E+01 0.  1.
</event>
<event>
 7    1  0.2830664E-007  0.1586552E+03  0.7546771E-02  0.1089198E+00
        -11   -1    0    0    0    0  0.00000000000E+00  0.00000000000E+00  0.18250000000E+03  0.18250000000E+03  0.00000000000E+00 0.  1.
         11   -1    0    0    0    0 -0.00000000000E+00 -0.00000000000E+00 -0.18250000000E+03  0.18250000000E+03  0.00000000000E+00 0. -1.
         23    2    1    2    0    0  0.74099861831E+01  0.51246742790E+02 -0.88061010491E+02  0.13762932171E+03  0.92227718634E+02 0.  0.
        -11    1    1    2    0    0  0.38421753167E+02 -0.78017501266E+02  0.13226682658E+03  0.15829553068E+03  0.00000000000E+00 0.  1.
         11    1    1    2    0    0 -0.45831739350E+02  0.26770758476E+02 -0.44205816087E+02  0.69075147609E+02  0.00000000000E+00 0. -1.
        -15    1    3    3    0    0 -0.36344861500E+02  0.19112699886E+02 -0.96109998131E+01  0.42211056618E+02  0.17770000000E+01 0.  1.
         15    1    3    3    0    0  0.43754847683E+02  0.32134042904E+02 -0.78450010678E+02  0.95418265093E+02  0.17770000000E+01 0. -1.
</event>
<event>
 7    1  0.2809211E-007  0.1693913E+03  0.7546771E-02  0.1079396E+00
        -11   -1    0    0    0    0  0.00000000000E+00  0.00000000000E+00  0.18250000000E+03  0.18250000000E+03  0.00000000000E+00 0.  1.
         11   -1    0    0    0    0 -0.00000000000E+00 -0.00000000000E+00 -0.18250000000E+03  0.18250000000E+03  0.00000000000E+00 0. -1.
         23    2    1    2    0    0  0.12141186535E+02  0.28173688780E+02  0.11710944544E+03  0.15099336610E+03  0.90239732074E+02 0.  0.
        -11    1    1    2    0    0  0.10253008637E+02  0.31149566081E+02  0.35752698582E+02  0.48514689621E+02  0.00000000000E+00 0.  1.
         11    1    1    2    0    0 -0.22394195172E+02 -0.59323254861E+02 -0.15286214403E+03  0.16549194428E+03  0.00000000000E+00 0. -1.
        -15    1    3    3    0    0  0.45868388528E+02  0.62689951334E+01  0.30448095680E+02  0.55438737591E+02  0.17770000000E+01 0. -1.
         15    1    3    3    0    0 -0.33727201993E+02  0.21904693647E+02  0.86661349763E+02  0.95554628510E+02  0.17770000000E+01 0.  1.
</event>
<event>
 7    1  0.2809211E-007  0.1318119E+03  0.7546771E-02  0.1117958E+00
        -11   -1    0    0    0    0  0.00000000000E+00  0.00000000000E+00  0.18250000000E+03  0.18250000000E+03  0.00000000000E+00 0.  1.
         11   -1    0    0    0    0 -0.00000000000E+00 -0.00000000000E+00 -0.18250000000E+03  0.18250000000E+03  0.00000000000E+00 0.  1.
         23    2    1    2    0    0 -0.55204758338E+02 -0.55563062148E+02  0.79947902367E+02  0.14281968061E+03  0.88718514750E+02 0.  0.
        -11    1    1    2    0    0 -0.22582445966E+02  0.10661238941E+03 -0.18134587141E+02  0.11047638523E+03  0.00000000000E+00 0.  1.
         11    1    1    2    0    0  0.77787204304E+02 -0.51049327263E+02 -0.61813315226E+02  0.11170393416E+03  0.00000000000E+00 0.  1.
        -15    1    3    3    0    0 -0.40434705018E+02 -0.53428740457E+02  0.98375961591E+02  0.11904025884E+03  0.17770000000E+01 0.  1.
         15    1    3    3    0    0 -0.14770053320E+02 -0.21343216912E+01 -0.18428059224E+02  0.23779421774E+02  0.17770000000E+01 0. -1.
</event>
<event>
 7    1  0.2809211E-007  0.1440789E+03  0.7546771E-02  0.1103960E+00
        -11   -1    0    0    0    0  0.00000000000E+00  0.00000000000E+00  0.18250000000E+03  0.18250000000E+03  0.00000000000E+00 0.  1.
         11   -1    0    0    0    0 -0.00000000000E+00 -0.00000000000E+00 -0.18250000000E+03  0.18250000000E+03  0.00000000000E+00 0. -1.
         23    2    1    2    0    0  0.40996628742E+02 -0.21727214559E+02  0.67024579311E+02  0.12264788873E+03  0.91637410253E+02 0.  0.
        -11    1    1    2    0    0 -0.47604039634E+02 -0.11810810759E+01  0.80166400069E+02  0.93242647120E+02  0.00000000000E+00 0.  1.
         11    1    1    2    0    0  0.66074108913E+01  0.22908295635E+02 -0.14719097938E+03  0.14910946415E+03  0.00000000000E+00 0. -1.
        -15    1    3    3    0    0  0.29585332140E+02 -0.18363854486E+02 -0.16279469327E+02  0.38479889293E+02  0.17770000000E+01 0. -1.
         15    1    3    3    0    0  0.11411296602E+02 -0.33633600738E+01  0.83304048638E+02  0.84167999440E+02  0.17770000000E+01 0.  1.
</event>
<event>
 7    1  0.2809211E-007  0.1773834E+03  0.7546771E-02  0.1072602E+00
        -11   -1    0    0    0    0  0.00000000000E+00  0.00000000000E+00  0.18250000000E+03  0.18250000000E+03  0.00000000000E+00 0.  1.
         11   -1    0    0    0    0 -0.00000000000E+00 -0.00000000000E+00 -0.18250000000E+03  0.18250000000E+03  0.00000000000E+00 0. -1.
         23    2    1    2    0    0 -0.50376138362E+02 -0.11964861649E+03 -0.80244409258E+02  0.17479395108E+03  0.85206885723E+02 0.  0.
        -11    1    1    2    0    0  0.68628823981E+02  0.10424954500E+03  0.99428393993E+02  0.15957408513E+03  0.00000000000E+00 0.  1.
         11    1    1    2    0    0 -0.18252685618E+02  0.15399071488E+02 -0.19183984735E+02  0.30631963784E+02  0.00000000000E+00 0. -1.
        -15    1    3    3    0    0 -0.68573412008E+02 -0.79015647166E+02 -0.77387795860E+02  0.13014535723E+03  0.17770000000E+01 0. -1.
         15    1    3    3    0    0  0.18197273645E+02 -0.40632969322E+02 -0.28566133980E+01  0.44648593854E+02  0.17770000000E+01 0.  1.
</event>
<event>
 7    1  0.2809211E-007  0.1329766E+03  0.7546771E-02  0.1116558E+00
        -11   -1    0    0    0    0  0.00000000000E+00  0.00000000000E+00  0.18250000000E+03  0.18250000000E+03  0.00000000000E+00 0.  1.
         11   -1    0    0    0    0 -0.00000000000E+00 -0.00000000000E+00 -0.18250000000E+03  0.18250000000E+03  0.00000000000E+00 0. -1.
         23    2    1    2    0    0  0.20668927775E+02 -0.25779241076E+02 -0.11593091267E+01  0.96999537819E+02  0.91190967171E+02 0.  0.
        -11    1    1    2    0    0  0.88911417489E+02 -0.94088566568E+01  0.86746181493E+02  0.12457394088E+03  0.00000000000E+00 0.  1.
         11    1    1    2    0    0 -0.10958034526E+03  0.35188097733E+02 -0.85586872366E+02  0.14342652130E+03  0.00000000000E+00 0. -1.
        -15    1    3    3    0    0 -0.11481327781E+02 -0.19891764756E+02  0.38935641213E+02  0.45239861609E+02  0.17770000000E+01 0.  1.
         15    1    3    3    0    0  0.32150255556E+02 -0.58874763198E+01 -0.40094950339E+02  0.51759676211E+02  0.17770000000E+01 0. -1.
</event>
<event>
 7    1  0.2809211E-007  0.1452876E+03  0.7546771E-02  0.1102664E+00
        -11   -1    0    0    0    0  0.00000000000E+00  0.00000000000E+00  0.18250000000E+03  0.18250000000E+03  0.00000000000E+00 0.  1.
         11   -1    0    0    0    0 -0.00000000000E+00 -0.00000000000E+00 -0.18250000000E+03  0.18250000000E+03  0.00000000000E+00 0. -1.
         23    2    1    2    0    0 -0.12882047149E+03  0.45589850553E+02  0.31833130124E+02  0.16730583027E+03  0.91130369908E+02 0.  0.
        -11    1    1    2    0    0  0.50424242093E+02 -0.65725022511E+02  0.37674768810E+02  0.91004236054E+02  0.00000000000E+00 0.  1.
         11    1    1    2    0    0  0.78396229399E+02  0.20135171959E+02 -0.69507898933E+02  0.10668993368E+03  0.00000000000E+00 0. -1.
        -15    1    3    3    0    0 -0.10008844162E+03  0.71992011372E+02  0.13137390379E+02  0.12400118791E+03  0.17770000000E+01 0.  1.
         15    1    3    3    0    0 -0.28732029875E+02 -0.26402160820E+02  0.18695739744E+02  0.43304642364E+02  0.17770000000E+01 0. -1.
</event>
<event>
 7    1  0.2809211E-007  0.2108259E+03  0.7546771E-02  0.1047906E+00
        -11   -1    0    0    0    0  0.00000000000E+00  0.00000000000E+00  0.18250000000E+03  0.18250000000E+03  0.00000000000E+00 0.  1.
         11   -1    0    0    0    0 -0.00000000000E+00 -0.00000000000E+00 -0.18250000000E+03  0.18250000000E+03  0.00000000000E+00 0. -1.
         23    2    1    2    0    0 -0.16448398532E+02  0.24243947753E+02 -0.45409682693E+02  0.10489562767E+03  0.89904029977E+02 0.  0.
        -11    1    1    2    0    0  0.91260809289E+02 -0.32422583365E+02  0.11995788833E+03  0.15417410353E+03  0.00000000000E+00 0.  1.
         11    1    1    2    0    0 -0.74812410757E+02  0.81786356123E+01 -0.74548205641E+02  0.10593026880E+03  0.00000000000E+00 0. -1.
        -15    1    3    3    0    0  0.13592297138E+02  0.33275325482E+02  0.13251243009E+02  0.38350371546E+02  0.17770000000E+01 0.  1.
         15    1    3    3    0    0 -0.30040695669E+02 -0.90313777296E+01 -0.58660925702E+02  0.66545256129E+02  0.17770000000E+01 0. -1.
</event>
<event>
 7    1  0.2809211E-007  0.1579177E+03  0.7546771E-02  0.1089903E+00
        -11   -1    0    0    0    0  0.00000000000E+00  0.00000000000E+00  0.18250000000E+03  0.18250000000E+03  0.00000000000E+00 0. -1.
         11   -1    0    0    0    0 -0.00000000000E+00 -0.00000000000E+00 -0.18250000000E+03  0.18250000000E+03  0.00000000000E+00 0. -1.
         23    2    1    2    0    0 -0.15727762308E+02  0.65204588432E+02 -0.92755524527E+02  0.15181071857E+03  0.99719135984E+02 0.  0.
        -11    1    1    2    0    0 -0.45075222147E+02 -0.36544271726E+02  0.12561347373E+03  0.13836908698E+03  0.00000000000E+00 0. -1.
         11    1    1    2    0    0  0.60802984456E+02 -0.28660316706E+02 -0.32857949207E+02  0.74820194456E+02  0.00000000000E+00 0. -1.
        -15    1    3    3    0    0 -0.37775869725E+02  0.72386807421E+02 -0.33716463405E+02  0.88356232692E+02  0.17770000000E+01 0.  1.
         15    1    3    3    0    0  0.22048107417E+02 -0.71822189889E+01 -0.59039061122E+02  0.63454485874E+02  0.17770000000E+01 0. -1.
</event>
<event>
 7    1  0.2809211E-007  0.1652458E+03  0.7546771E-02  0.1083084E+00
        -11   -1    0    0    0    0  0.00000000000E+00  0.00000000000E+00  0.18250000000E+03  0.18250000000E+03  0.00000000000E+00 0. -1.
         11   -1    0    0    0    0 -0.00000000000E+00 -0.00000000000E+00 -0.18250000000E+03  0.18250000000E+03  0.00000000000E+00 0.  1.
         23    2    1    2    0    0 -0.26767736395E+02  0.95411290371E+02 -0.88068120608E+02  0.16161806312E+03  0.92436888836E+02 0.  0.
        -11    1    1    2    0    0 -0.17687742203E+02 -0.79937042000E+02  0.12088505543E+03  0.14599994361E+03  0.00000000000E+00 0. -1.
         11    1    1    2    0    0  0.44455478598E+02 -0.15474248371E+02 -0.32816934824E+02  0.57381993267E+02  0.00000000000E+00 0.  1.
        -15    1    3    3    0    0 -0.23773597721E+02  0.52571784104E+02 -0.10134648380E+03  0.11663294534E+03  0.17770000000E+01 0.  1.
         15    1    3    3    0    0 -0.29941386738E+01  0.42839506267E+02  0.13278363188E+02  0.44985117778E+02  0.17770000000E+01 0. -1.
</event>
<event>
 7    1  0.2809211E-007  0.1237728E+03  0.7546771E-02  0.1128078E+00
        -11   -1    0    0    0    0  0.00000000000E+00  0.00000000000E+00  0.18250000000E+03  0.18250000000E+03  0.00000000000E+00 0.  1.
         11   -1    0    0    0    0 -0.00000000000E+00 -0.00000000000E+00 -0.18250000000E+03  0.18250000000E+03  0.00000000000E+00 0. -1.
         23    2    1    2    0    0 -0.57961318264E+02  0.18443695455E+02  0.72101882752E+01  0.10998931325E+03  0.91356323793E+02 0.  0.
        -11    1    1    2    0    0  0.27394837201E+01 -0.41681486918E+02  0.11312242230E+03  0.12058828114E+03  0.00000000000E+00 0.  1.
         11    1    1    2    0    0  0.55221834544E+02  0.23237791462E+02 -0.12033261057E+03  0.13442240561E+03  0.00000000000E+00 0. -1.
        -15    1    3    3    0    0 -0.57886181613E+02  0.30684098420E+02  0.38730916021E+02  0.76128611589E+02  0.17770000000E+01 0.  1.
         15    1    3    3    0    0 -0.75136650802E-01 -0.12240402965E+02 -0.31520727746E+02  0.33860701659E+02  0.17770000000E+01 0. -1.
</event>
<event>
 7    1  0.2809211E-007  0.1503172E+03  0.7546771E-02  0.1097417E+00
        -11   -1    0    0    0    0  0.00000000000E+00  0.00000000000E+00  0.18250000000E+03  0.18250000000E+03  0.00000000000E+00 0. -1.
         11   -1    0    0    0    0 -0.00000000000E+00 -0.00000000000E+00 -0.18250000000E+03  0.18250000000E+03  0.00000000000E+00 0.  1.
         23    2    1    2    0    0  0.45644083795E+02 -0.11355224880E+03  0.77603478122E+02  0.17090305961E+03  0.90598346422E+02 0.  0.
        -11    1    1    2    0    0 -0.65665701242E+02  0.90297961127E+02 -0.10854208512E+01  0.11165520248E+03  0.00000000000E+00 0. -1.
         11    1    1    2    0    0  0.20021617447E+02  0.23254287674E+02 -0.76518057271E+02  0.82441737906E+02  0.00000000000E+00 0.  1.
        -15    1    3    3    0    0  0.53862032702E+02 -0.12016122124E+03  0.86017109574E+02  0.15729570409E+03  0.17770000000E+01 0.  1.
         15    1    3    3    0    0 -0.82179489072E+01  0.66089724421E+01 -0.84136314525E+01  0.13607355518E+02  0.17770000000E+01 0. -1.
</event>
<event>
 7    1  0.2809211E-007  0.1268857E+03  0.7546771E-02  0.1124061E+00
        -11   -1    0    0    0    0  0.00000000000E+00  0.00000000000E+00  0.18250000000E+03  0.18250000000E+03  0.00000000000E+00 0. -1.
         11   -1    0    0    0    0 -0.00000000000E+00 -0.00000000000E+00 -0.18250000000E+03  0.18250000000E+03  0.00000000000E+00 0.  1.
         23    2    1    2    0    0 -0.17246675784E+02  0.29556982670E+02  0.26196516866E+02  0.10759524206E+03  0.98587096361E+02 0.  0.
        -11    1    1    2    0    0  0.42041508962E+02 -0.10890708212E+03  0.65315286364E+02  0.13376968134E+03  0.00000000000E+00 0. -1.
         11    1    1    2    0    0 -0.24794833178E+02  0.79350099451E+02 -0.91511803230E+02  0.12363507660E+03  0.00000000000E+00 0.  1.
        -15    1    3    3    0    0  0.10533200306E+02  0.48281595140E+02  0.46916379308E+02  0.68164251000E+02  0.17770000000E+01 0. -1.
         15    1    3    3    0    0 -0.27779876090E+02 -0.18724612470E+02 -0.20719862442E+02  0.39430991065E+02  0.17770000000E+01 0.  1.
</event>
<event>
 7    1  0.2809211E-007  0.1719901E+03  0.7546771E-02  0.1077143E+00
        -11   -1    0    0    0    0  0.00000000000E+00  0.00000000000E+00  0.18250000000E+03  0.18250000000E+03  0.00000000000E+00 0.  1.
         11   -1    0    0    0    0 -0.00000000000E+00 -0.00000000000E+00 -0.18250000000E+03  0.18250000000E+03  0.00000000000E+00 0. -1.
         23    2    1    2    0    0  0.30764394869E+02 -0.45932688638E+02  0.11702911152E+03  0.16332954603E+03  0.99621623087E+02 0.  0.
        -11    1    1    2    0    0 -0.40700474293E+02 -0.37183831291E+01  0.27011074419E+02  0.48989316407E+02  0.00000000000E+00 0.  1.
         11    1    1    2    0    0  0.99360794236E+01  0.49651071767E+02 -0.14404018594E+03  0.15268113756E+03  0.00000000000E+00 0. -1.
        -15    1    3    3    0    0 -0.21885815649E+01  0.30144628711E+02  0.39833905112E+02  0.50033851090E+02  0.17770000000E+01 0.  1.
         15    1    3    3    0    0  0.32952976434E+02 -0.76077317349E+02  0.77195206407E+02  0.11329569494E+03  0.17770000000E+01 0. -1.
</event>
<event>
 7    1  0.2809211E-007  0.1518856E+03  0.7546771E-02  0.1095827E+00
        -11   -1    0    0    0    0  0.00000000000E+00  0.00000000000E+00  0.18250000000E+03  0.18250000000E+03  0.00000000000E+00 0. -1.
         11   -1    0    0    0    0 -0.00000000000E+00 -0.00000000000E+00 -0.18250000000E+03  0.18250000000E+03  0.00000000000E+00 0.  1.
         23    2    1    2    0    0 -0.47272874017E+01  0.41777710788E+02  0.11021996316E+03  0.15049146628E+03  0.93442585474E+02 0.  0.
        -11    1    1    2    0    0 -0.17375045690E+02 -0.77944852848E+02  0.15927242372E+02  0.81430764136E+02  0.00000000000E+00 0. -1.
         11    1    1    2    0    0  0.22102333092E+02  0.36167142060E+02 -0.12614720553E+03  0.13307776958E+03  0.00000000000E+00 0.  1.
        -15    1    3    3    0    0  0.10366673398E+02  0.66785704451E+02  0.51869367779E+02  0.85213773999E+02  0.17770000000E+01 0.  1.
         15    1    3    3    0    0 -0.15093960800E+02 -0.25007993663E+02  0.58350595381E+02  0.65277692284E+02  0.17770000000E+01 0. -1.
</event>
<event>
 7    1  0.2809211E-007  0.1292594E+03  0.7546771E-02  0.1121083E+00
        -11   -1    0    0    0    0  0.00000000000E+00  0.00000000000E+00  0.18250000000E+03  0.18250000000E+03  0.00000000000E+00 0.  1.
         11   -1    0    0    0    0 -0.00000000000E+00 -0.00000000000E+00 -0.18250000000E+03  0.18250000000E+03  0.00000000000E+00 0. -1.
         23    2    1    2    0    0  0.74425630640E+01  0.29862764356E+02  0.34749428851E+02  0.10234689287E+03  0.91215060353E+02 0.  0.
        -11    1    1    2    0    0  0.42596878605E+02 -0.38450834771E+02  0.10186119092E+03  0.11691305734E+03  0.00000000000E+00 0.  1.
         11    1    1    2    0    0 -0.50039441669E+02  0.85880704144E+01 -0.13661061977E+03  0.14574004978E+03  0.00000000000E+00 0. -1.
        -15    1    3    3    0    0 -0.29481751360E+02  0.39634991285E+02 -0.17853937081E+01  0.49461617008E+02  0.17770000000E+01 0. -1.
         15    1    3    3    0    0  0.36924314424E+02 -0.97722269283E+01  0.36534822560E+02  0.52885275864E+02  0.17770000000E+01 0.  1.
</event>
<event>
 7    1  0.2809211E-007  0.1604947E+03  0.7546771E-02  0.1087459E+00
        -11   -1    0    0    0    0  0.00000000000E+00  0.00000000000E+00  0.18250000000E+03  0.18250000000E+03  0.00000000000E+00 0.  1.
         11   -1    0    0    0    0 -0.00000000000E+00 -0.00000000000E+00 -0.18250000000E+03  0.18250000000E+03  0.00000000000E+00 0. -1.
         23    2    1    2    0    0 -0.11737354324E+02 -0.26099870251E+02  0.97951948968E+02  0.13615093616E+03  0.90130596341E+02 0.  0.
        -11    1    1    2    0    0 -0.20616622617E+01 -0.36996009756E+02  0.52995473474E+02  0.64664328635E+02  0.00000000000E+00 0.  1.
         11    1    1    2    0    0  0.13799016586E+02  0.63095880006E+02 -0.15094742244E+03  0.16418473521E+03  0.00000000000E+00 0. -1.
        -15    1    3    3    0    0  0.39583015543E+01 -0.13394244780E+02 -0.15478060981E+02  0.20923719678E+02  0.17770000000E+01 0. -1.
         15    1    3    3    0    0 -0.15695655878E+02 -0.12705625471E+02  0.11343000995E+03  0.11522721648E+03  0.17770000000E+01 0.  1.
</event>
<event>
 7    1  0.2809211E-007  0.1595767E+03  0.7546771E-02  0.1088324E+00
        -11   -1    0    0    0    0  0.00000000000E+00  0.00000000000E+00  0.18250000000E+03  0.18250000000E+03  0.00000000000E+00 0. -1.
         11   -1    0    0    0    0 -0.00000000000E+00 -0.00000000000E+00 -0.18250000000E+03  0.18250000000E+03  0.00000000000E+00 0.  1.
         23    2    1    2    0    0 -0.24621118883E+02 -0.83777423061E+01  0.11439334955E+03  0.14837796294E+03  0.90850401228E+02 0.  0.
        -11    1    1    2    0    0 -0.16906728878E+02  0.61475639667E+02  0.19537167345E+02  0.66684275970E+02  0.00000000000E+00 0. -1.
         11    1    1    2    0    0  0.41527847762E+02 -0.53097897361E+02 -0.13393051690E+03  0.14993776109E+03  0.00000000000E+00 0.  1.
        -15    1    3    3    0    0 -0.49971984648E+02 -0.32255459908E+02  0.75762087894E+02  0.96336211440E+02  0.17770000000E+01 0. -1.
         15    1    3    3    0    0  0.25350865765E+02  0.23877717602E+02  0.38631261659E+02  0.52041751501E+02  0.17770000000E+01 0.  1.
</event>
<event>
 7    1  0.2809211E-007  0.1472446E+03  0.7546771E-02  0.1100595E+00
        -11   -1    0    0    0    0  0.00000000000E+00  0.00000000000E+00  0.18250000000E+03  0.18250000000E+03  0.00000000000E+00 0.  1.
         11   -1    0    0    0    0 -0.00000000000E+00 -0.00000000000E+00 -0.18250000000E+03  0.18250000000E+03  0.00000000000E+00 0.  1.
         23    2    1    2    0    0  0.87999281677E+02 -0.42357754291E+02  0.89949588362E+02  0.16147342473E+03  0.91894970073E+02 0.  0.
        -11    1    1    2    0    0 -0.85899593360E+02  0.58961269456E+01  0.19381969487E+02  0.88256247334E+02  0.00000000000E+00 0.  1.
         11    1    1    2    0    0 -0.20996883175E+01  0.36461627346E+02 -0.10933155785E+03  0.11527032793E+03  0.00000000000E+00 0.  1.
        -15    1    3    3    0    0  0.25966607843E+02 -0.35192816918E+02 -0.87764866361E+01  0.44642844131E+02  0.17770000000E+01 0. -1.
         15    1    3    3    0    0  0.62032673835E+02 -0.71649373738E+01  0.98726074998E+02  0.11683058060E+03  0.17770000000E+01 0.  1.
</event>
<event>
 7    1  0.2809211E-007  0.1498713E+03  0.7546771E-02  0.1097873E+00
        -11   -1    0    0    0    0  0.00000000000E+00  0.00000000000E+00  0.18250000000E+03  0.18250000000E+03  0.00000000000E+00 0. -1.
         11   -1    0    0    0    0 -0.00000000000E+00 -0.00000000000E+00 -0.18250000000E+03  0.18250000000E+03  0.00000000000E+00 0.  1.
         23    2    1    2    0    0 -0.18462401390E+02  0.23821176980E+02  0.10673885614E+03  0.14360042102E+03  0.91211779771E+02 0.  0.
        -11    1    1    2    0    0 -0.24637215844E+02 -0.78894295140E+02  0.12078299808E+02  0.83529560854E+02  0.00000000000E+00 0. -1.
         11    1    1    2    0    0  0.43099617234E+02  0.55073118160E+02 -0.11881715595E+03  0.13787001812E+03  0.00000000000E+00 0.  1.
        -15    1    3    3    0    0 -0.31264688742E+02  0.54121135038E+02  0.62129882852E+02  0.88146798535E+02  0.17770000000E+01 0.  1.
         15    1    3    3    0    0  0.12802287352E+02 -0.30299958058E+02  0.44608973291E+02  0.55453622486E+02  0.17770000000E+01 0. -1.
</event>
<event>
 7    1  0.2809211E-007  0.1515405E+03  0.7546771E-02  0.1096175E+00
        -11   -1    0    0    0    0  0.00000000000E+00  0.00000000000E+00  0.18250000000E+03  0.18250000000E+03  0.00000000000E+00 0. -1.
         11   -1    0    0    0    0 -0.00000000000E+00 -0.00000000000E+00 -0.18250000000E+03  0.18250000000E+03  0.00000000000E+00 0.  1.
         23    2    1    2    0    0 -0.71951375128E+02  0.10430540716E+03 -0.42157683873E+02  0.16297477691E+03  0.93417820851E+02 0.  0.
        -11    1    1    2    0    0  0.81934748838E+02 -0.32941963347E+02  0.81289582690E+02  0.12002696476E+03  0.00000000000E+00 0. -1.
         11    1    1    2    0    0 -0.99833737104E+01 -0.71363443816E+02 -0.39131898816E+02  0.81998258328E+02  0.00000000000E+00 0.  1.
        -15    1    3    3    0    0  0.14225368482E+02  0.33699393981E+02 -0.36045923337E+02  0.51385567831E+02  0.17770000000E+01 0.  1.
         15    1    3    3    0    0 -0.86176743610E+02  0.70606013183E+02 -0.61117605369E+01  0.11158920908E+03  0.17770000000E+01 0. -1.
</event>
<event>
 7    1  0.2809402E-007  0.1582254E+03  0.7546771E-02  0.1089608E+00
        -11   -1    0    0    0    0  0.00000000000E+00  0.00000000000E+00  0.18250000000E+03  0.18250000000E+03  0.00000000000E+00 0.  1.
         11   -1    0    0    0    0 -0.00000000000E+00 -0.00000000000E+00 -0.18250000000E+03  0.18250000000E+03  0.00000000000E+00 0. -1.
         23    2    1    2    0    0 -0.43259721379E+02 -0.43781342944E+02 -0.10304892882E+03  0.15100372800E+03  0.91623330300E+02 0.  0.
        -11    1    1    2    0    0 -0.14586407451E+02  0.77950739256E+02  0.12080132896E+03  0.14450620094E+03  0.00000000000E+00 0.  1.
         11    1    1    2    0    0  0.57846128830E+02 -0.34169396312E+02 -0.17752400144E+02  0.69490071059E+02  0.00000000000E+00 0. -1.
        -15    1    3    3    0    0 -0.62770011784E+02 -0.26344931565E+02 -0.31946964852E+02  0.75218987568E+02  0.17770000000E+01 0.  1.
         15    1    3    3    0    0  0.19510290405E+02 -0.17436411379E+02 -0.71101963963E+02  0.75784740429E+02  0.17770000000E+01 0. -1.
</event>
<event>
 7    1  0.2809211E-007  0.2084507E+03  0.7546771E-02  0.1049491E+00
        -11   -1    0    0    0    0  0.00000000000E+00  0.00000000000E+00  0.18250000000E+03  0.18250000000E+03  0.00000000000E+00 0.  1.
         11   -1    0    0    0    0 -0.00000000000E+00 -0.00000000000E+00 -0.18250000000E+03  0.18250000000E+03  0.00000000000E+00 0. -1.
         23    2    1    2    0    0  0.88385868381E+00  0.42994259155E+01  0.66853416509E+02  0.11432184882E+03  0.92632821121E+02 0.  0.
        -11    1    1    2    0    0 -0.76832008064E+01  0.48250272447E+02  0.80455711853E+02  0.94128858145E+02  0.00000000000E+00 0.  1.
         11    1    1    2    0    0  0.67993421226E+01 -0.52549698362E+02 -0.14730912836E+03  0.15654929304E+03  0.00000000000E+00 0. -1.
        -15    1    3    3    0    0 -0.24505661398E+02 -0.14948949200E+01  0.80982111725E+02  0.84640547610E+02  0.17770000000E+01 0.  1.
         15    1    3    3    0    0  0.25389520082E+02  0.57943208354E+01 -0.14128695215E+02  0.29681301208E+02  0.17770000000E+01 0. -1.
</event>
<event>
 7    1  0.2809211E-007  0.1857073E+03  0.7546771E-02  0.1065930E+00
        -11   -1    0    0    0    0  0.00000000000E+00  0.00000000000E+00  0.18250000000E+03  0.18250000000E+03  0.00000000000E+00 0.  1.
         11   -1    0    0    0    0 -0.00000000000E+00 -0.00000000000E+00 -0.18250000000E+03  0.18250000000E+03  0.00000000000E+00 0. -1.
         23    2    1    2    0    0  0.76992845092E+02  0.55822458563E+02  0.12878619068E+03  0.18371596191E+03  0.90120068106E+02 0.  0.
        -11    1    1    2    0    0  0.15932921740E+02 -0.24448257638E+01 -0.36427543203E+01  0.16525883554E+02  0.00000000000E+00 0.  1.
         11    1    1    2    0    0 -0.92925766832E+02 -0.53377632799E+02 -0.12514343635E+03  0.16475815454E+03  0.00000000000E+00 0. -1.
        -15    1    3    3    0    0  0.23318607670E+02  0.94631659457E+01 -0.10559822104E+02  0.27349159864E+02  0.17770000000E+01 0. -1.
         15    1    3    3    0    0  0.53674237422E+02  0.46359292617E+02  0.13934601278E+03  0.15636680204E+03  0.17770000000E+01 0.  1.
</event>
<event>
 7    1  0.2809211E-007  0.1358673E+03  0.7546771E-02  0.1113151E+00
        -11   -1    0    0    0    0  0.00000000000E+00  0.00000000000E+00  0.18250000000E+03  0.18250000000E+03  0.00000000000E+00 0. -1.
         11   -1    0    0    0    0 -0.00000000000E+00 -0.00000000000E+00 -0.18250000000E+03  0.18250000000E+03  0.00000000000E+00 0.  1.
         23    2    1    2    0    0  0.64846895791E+02 -0.24737768788E+02 -0.43318102701E+02  0.11684021417E+03  0.83415229592E+02 0.  0.
        -11    1    1    2    0    0 -0.64830301933E+02 -0.31906532815E+02  0.12758442157E+03  0.14662462110E+03  0.00000000000E+00 0. -1.
         11    1    1    2    0    0 -0.16593858031E-01  0.56644301603E+02 -0.84266318872E+02  0.10153516473E+03  0.00000000000E+00 0.  1.
        -15    1    3    3    0    0  0.66009126152E+02 -0.49672322346E+02 -0.39282271157E+02  0.91492070142E+02  0.17770000000E+01 0.  1.
         15    1    3    3    0    0 -0.11622303606E+01  0.24934553558E+02 -0.40358315445E+01  0.25348144031E+02  0.17770000000E+01 0. -1.
</event>
<event>
 7    1  0.2809211E-007  0.1180267E+03  0.7546771E-02  0.1135848E+00
        -11   -1    0    0    0    0  0.00000000000E+00  0.00000000000E+00  0.18250000000E+03  0.18250000000E+03  0.00000000000E+00 0. -1.
         11   -1    0    0    0    0 -0.00000000000E+00 -0.00000000000E+00 -0.18250000000E+03  0.18250000000E+03  0.00000000000E+00 0.  1.
         23    2    1    2    0    0 -0.54784368806E+02  0.53020604062E+02  0.45820644373E+01  0.11689767937E+03  0.88496105040E+02 0.  0.
        -11    1    1    2    0    0  0.26680115624E+02 -0.41369981756E+02  0.11479752023E+03  0.12490706389E+03  0.00000000000E+00 0. -1.
         11    1    1    2    0    0  0.28104253183E+02 -0.11650622306E+02 -0.11937958467E+03  0.12319525673E+03  0.00000000000E+00 0.  1.
        -15    1    3    3    0    0 -0.73897518903E+02  0.18021768441E+02  0.95151241152E+01  0.76676741935E+02  0.17770000000E+01 0.  1.
         15    1    3    3    0    0  0.19113150097E+02  0.34998835621E+02 -0.49330596778E+01  0.40220937436E+02  0.17770000000E+01 0. -1.
</event>
<event>
 7    1  0.2809211E-007  0.1549206E+03  0.7546771E-02  0.1092809E+00
        -11   -1    0    0    0    0  0.00000000000E+00  0.00000000000E+00  0.18250000000E+03  0.18250000000E+03  0.00000000000E+00 0.  1.
         11   -1    0    0    0    0 -0.00000000000E+00 -0.00000000000E+00 -0.18250000000E+03  0.18250000000E+03  0.00000000000E+00 0. -1.
         23    2    1    2    0    0  0.45391121106E+01  0.20070861285E+01  0.12914748535E+03  0.15734455919E+03  0.89741882077E+02 0.  0.
        -11    1    1    2    0    0 -0.31500661075E+02  0.64997232658E+02 -0.16900450356E+02  0.74179222991E+02  0.00000000000E+00 0.  1.
         11    1    1    2    0    0  0.26961548964E+02 -0.67004318787E+02 -0.11224703500E+03  0.13347621782E+03  0.00000000000E+00 0. -1.
        -15    1    3    3    0    0 -0.35175491298E+02 -0.23502635771E+02  0.54636807064E+02  0.69123277493E+02  0.17770000000E+01 0.  1.
         15    1    3    3    0    0  0.39714603409E+02  0.25509721899E+02  0.74510678290E+02  0.88221281692E+02  0.17770000000E+01 0. -1.
</event>
<event>
 7    1  0.2809211E-007  0.1734023E+03  0.7546771E-02  0.1075936E+00
        -11   -1    0    0    0    0  0.00000000000E+00  0.00000000000E+00  0.18250000000E+03  0.18250000000E+03  0.00000000000E+00 0. -1.
         11   -1    0    0    0    0 -0.00000000000E+00 -0.00000000000E+00 -0.18250000000E+03  0.18250000000E+03  0.00000000000E+00 0.  1.
         23    2    1    2    0    0  0.22705944744E+02 -0.70988469522E+02  0.13923402059E+03  0.18225640165E+03  0.90974505877E+02 0.  0.
        -11    1    1    2    0    0  0.22089201617E+02  0.33313208966E+02 -0.10499638744E+02  0.41327292840E+02  0.00000000000E+00 0. -1.
         11    1    1    2    0    0 -0.44795146362E+02  0.37675260556E+02 -0.12873438185E+03  0.14141630551E+03  0.00000000000E+00 0.  1.
        -15    1    3    3    0    0 -0.28532001515E+02  0.17043645006E+01  0.35162547033E+02  0.45349116989E+02  0.17770000000E+01 0.  1.
         15    1    3    3    0    0  0.51237946259E+02 -0.72692834023E+02  0.10407147356E+03  0.13690728466E+03  0.17770000000E+01 0. -1.
</event>
<event>
 7    1  0.2809211E-007  0.1732542E+03  0.7546771E-02  0.1076062E+00
        -11   -1    0    0    0    0  0.00000000000E+00  0.00000000000E+00  0.18250000000E+03  0.18250000000E+03  0.00000000000E+00 0.  1.
         11   -1    0    0    0    0 -0.00000000000E+00 -0.00000000000E+00 -0.18250000000E+03  0.18250000000E+03  0.00000000000E+00 0.  1.
         23    2    1    2    0    0  0.96067147098E+02 -0.31745079518E+02  0.10418878367E+03  0.17360469288E+03  0.95113826131E+02 0.  0.
        -11    1    1    2    0    0 -0.61863132738E+02  0.51183043353E+02 -0.12370608819E+03  0.14747863362E+03  0.00000000000E+00 0.  1.
         11    1    1    2    0    0 -0.34204014360E+02 -0.19437963836E+02  0.19517304514E+02  0.43916673507E+02  0.00000000000E+00 0.  1.
        -15    1    3    3    0    0  0.76990644692E+02 -0.61282249576E+01  0.14793382179E+02  0.78658225231E+02  0.17770000000E+01 0.  1.
         15    1    3    3    0    0  0.19076502406E+02 -0.25616854560E+02  0.89395401492E+02  0.94946467646E+02  0.17770000000E+01 0. -1.
</event>
<event>
 7    1  0.2809211E-007  0.1201044E+03  0.7546771E-02  0.1132983E+00
        -11   -1    0    0    0    0  0.00000000000E+00  0.00000000000E+00  0.18250000000E+03  0.18250000000E+03  0.00000000000E+00 0.  1.
         11   -1    0    0    0    0 -0.00000000000E+00 -0.00000000000E+00 -0.18250000000E+03  0.18250000000E+03  0.00000000000E+00 0. -1.
         23    2    1    2    0    0  0.13490802853E+01 -0.41767850267E+02 -0.55492645923E+02  0.11494794386E+03  0.91581781551E+02 0.  0.
        -11    1    1    2    0    0  0.64996382011E+02 -0.42200426653E+02  0.10633150096E+03  0.13157428997E+03  0.00000000000E+00 0.  1.
         11    1    1    2    0    0 -0.66345462296E+02  0.83968276920E+02 -0.50838855037E+02  0.11847776617E+03  0.00000000000E+00 0. -1.
        -15    1    3    3    0    0 -0.12877357617E+02  0.16152658364E+02  0.12716857108E+02  0.24323052751E+02  0.17770000000E+01 0.  1.
         15    1    3    3    0    0  0.14226437902E+02 -0.57920508631E+02 -0.68209503031E+02  0.90624891107E+02  0.17770000000E+01 0. -1.
</event>
<event>
 7    1  0.2809211E-007  0.1831406E+03  0.7546771E-02  0.1067946E+00
        -11   -1    0    0    0    0  0.00000000000E+00  0.00000000000E+00  0.18250000000E+03  0.18250000000E+03  0.00000000000E+00 0. -1.
         11   -1    0    0    0    0 -0.00000000000E+00 -0.00000000000E+00 -0.18250000000E+03  0.18250000000E+03  0.00000000000E+00 0.  1.
         23    2    1    2    0    0 -0.22418420588E+02 -0.49679835467E+02  0.15319173652E+03  0.18611596177E+03  0.90558110918E+02 0.  0.
        -11    1    1    2    0    0  0.19901908606E+02  0.91651296477E+01 -0.16198490725E+01  0.21970650392E+02  0.00000000000E+00 0. -1.
         11    1    1    2    0    0  0.25165119821E+01  0.40514705819E+02 -0.15157188745E+03  0.15691338784E+03  0.00000000000E+00 0.  1.
        -15    1    3    3    0    0 -0.27774822211E+02 -0.31922756146E+01  0.22813489649E+01  0.28106825765E+02  0.17770000000E+01 0.  1.
         15    1    3    3    0    0  0.53564016235E+01 -0.46487559852E+02  0.15091038755E+03  0.15800913600E+03  0.17770000000E+01 0. -1.
</event>
<event>
 7    1  0.2809211E-007  0.1681999E+03  0.7546771E-02  0.1080444E+00
        -11   -1    0    0    0    0  0.00000000000E+00  0.00000000000E+00  0.18250000000E+03  0.18250000000E+03  0.00000000000E+00 0. -1.
         11   -1    0    0    0    0 -0.00000000000E+00 -0.00000000000E+00 -0.18250000000E+03  0.18250000000E+03  0.00000000000E+00 0. -1.
         23    2    1    2    0    0  0.76496374845E+02  0.64274169039E+02 -0.11395226596E+03  0.17761443721E+03  0.92622379686E+02 0.  0.
        -11    1    1    2    0    0 -0.49484360391E+02 -0.20990298103E+02  0.12421158261E+03  0.13534331086E+03  0.00000000000E+00 0. -1.
         11    1    1    2    0    0 -0.27012014454E+02 -0.43283870936E+02 -0.10259316657E+02  0.52042251934E+02  0.00000000000E+00 0. -1.
        -15    1    3    3    0    0 -0.13211929077E+02  0.23741211661E+02 -0.58716188714E+02  0.64722088556E+02  0.17770000000E+01 0.  1.
         15    1    3    3    0    0  0.89708303922E+02  0.40532957378E+02 -0.55236077244E+02  0.11289234865E+03  0.17770000000E+01 0. -1.
</event>
<event>
 7    1  0.2809211E-007  0.1668152E+03  0.7546771E-02  0.1081674E+00
        -11   -1    0    0    0    0  0.00000000000E+00  0.00000000000E+00  0.18250000000E+03  0.18250000000E+03  0.00000000000E+00 0.  1.
         11   -1    0    0    0    0 -0.00000000000E+00 -0.00000000000E+00 -0.18250000000E+03  0.18250000000E+03  0.00000000000E+00 0.  1.
         23    2    1    2    0    0  0.32879557025E+02  0.42747894817E+02  0.12149252931E+03  0.16252272210E+03  0.93513382672E+02 0.  0.
        -11    1    1    2    0    0 -0.83996524440E+02 -0.57130922220E+02 -0.10676537358E+03  0.14737097200E+03  0.00000000000E+00 0.  1.
         11    1    1    2    0    0  0.51116967415E+02  0.14383027403E+02 -0.14727155724E+02  0.55106305907E+02  0.00000000000E+00 0.  1.
        -15    1    3    3    0    0  0.58416660797E+02  0.32161886169E+01  0.50375038088E+02  0.77224687240E+02  0.17770000000E+01 0.  1.
         15    1    3    3    0    0 -0.25537103772E+02  0.39531706200E+02  0.71117491217E+02  0.85298034855E+02  0.17770000000E+01 0. -1.
</event>
<event>
 7    1  0.2809211E-007  0.1669788E+03  0.7546771E-02  0.1081528E+00
        -11   -1    0    0    0    0  0.00000000000E+00  0.00000000000E+00  0.18250000000E+03  0.18250000000E+03  0.00000000000E+00 0.  1.
         11   -1    0    0    0    0 -0.00000000000E+00 -0.00000000000E+00 -0.18250000000E+03  0.18250000000E+03  0.00000000000E+00 0. -1.
         23    2    1    2    0    0  0.34193482581E+02  0.62917740133E+02 -0.91308379327E+02  0.14774355340E+03  0.91449992675E+02 0.  0.
        -11    1    1    2    0    0 -0.71087078917E+02 -0.96119318762E+02  0.11168533508E+03  0.16360290432E+03  0.00000000000E+00 0.  1.
         11    1    1    2    0    0  0.36893596336E+02  0.33201578629E+02 -0.20376955757E+02  0.53653542288E+02  0.00000000000E+00 0. -1.
        -15    1    3    3    0    0 -0.52327699517E+01  0.47783629670E+02 -0.10901800986E+01  0.48114481889E+02  0.17770000000E+01 0.  1.
         15    1    3    3    0    0  0.39426252532E+02  0.15134110463E+02 -0.90218199228E+02  0.99629071506E+02  0.17770000000E+01 0. -1.
</event>
<event>
 7    1  0.2809211E-007  0.1357009E+03  0.7546771E-02  0.1113344E+00
        -11   -1    0    0    0    0  0.00000000000E+00  0.00000000000E+00  0.18250000000E+03  0.18250000000E+03  0.00000000000E+00 0. -1.
         11   -1    0    0    0    0 -0.00000000000E+00 -0.00000000000E+00 -0.18250000000E+03  0.18250000000E+03  0.00000000000E+00 0.  1.
         23    2    1    2    0    0 -0.34159754048E+02  0.52683191324E+02  0.78078771879E+02  0.13318287836E+03  0.87743814740E+02 0.  0.
        -11    1    1    2    0    0  0.97155101526E+02 -0.23500725683E+02  0.29109199723E+02  0.10410928570E+03  0.00000000000E+00 0. -1.
         11    1    1    2    0    0 -0.62995347478E+02 -0.29182465641E+02 -0.10718797160E+03  0.12770783594E+03  0.00000000000E+00 0.  1.
        -15    1    3    3    0    0  0.37156152612E+00 -0.14612040064E+02  0.50583736714E+02  0.52683222393E+02  0.17770000000E+01 0.  1.
         15    1    3    3    0    0 -0.34531315574E+02  0.67295231388E+02  0.27495035165E+02  0.80499655966E+02  0.17770000000E+01 0. -1.
</event>
<event>
 7    1  0.2809211E-007  0.1703559E+03  0.7546771E-02  0.1078555E+00
        -11   -1    0    0    0    0  0.00000000000E+00  0.00000000000E+00  0.18250000000E+03  0.18250000000E+03  0.00000000000E+00 0. -1.
         11   -1    0    0    0    0 -0.00000000000E+00 -0.00000000000E+00 -0.18250000000E+03  0.18250000000E+03  0.00000000000E+00 0.  1.
         23    2    1    2    0    0  0.28681146165E+02  0.55072438083E+02  0.11621435730E+03  0.18191931330E+03  0.12543236475E+03 0.  0.
        -11    1    1    2    0    0 -0.63706779490E+02  0.75882739995E+01 -0.29802758500E+02  0.70741360388E+02  0.00000000000E+00 0. -1.
         11    1    1    2    0    0  0.35025633326E+02 -0.62660712082E+02 -0.86411598804E+02  0.11233932631E+03  0.00000000000E+00 0.  1.
        -15    1    3    3    0    0  0.15755754947E+02 -0.36338117991E+02  0.65520221475E+02  0.76581719648E+02  0.17770000000E+01 0. -1.
         15    1    3    3    0    0  0.12925391218E+02  0.91410556074E+02  0.50694135828E+02  0.10533759365E+03  0.17770000000E+01 0.  1.
</event>
<event>
 7    1  0.2809211E-007  0.1468347E+03  0.7546771E-02  0.1101026E+00
        -11   -1    0    0    0    0  0.00000000000E+00  0.00000000000E+00  0.18250000000E+03  0.18250000000E+03  0.00000000000E+00 0. -1.
         11   -1    0    0    0    0 -0.00000000000E+00 -0.00000000000E+00 -0.18250000000E+03  0.18250000000E+03  0.00000000000E+00 0. -1.
         23    2    1    2    0    0  0.73471092494E+02 -0.11078696494E+03  0.69555139432E+02  0.17526233690E+03  0.90593687871E+02 0.  0.
        -11    1    1    2    0    0 -0.53460512438E+02  0.67230456733E+02  0.19971809938E+02  0.88186358893E+02  0.00000000000E+00 0. -1.
         11    1    1    2    0    0 -0.20010580056E+02  0.43556508211E+02 -0.89526949370E+02  0.10155130420E+03  0.00000000000E+00 0. -1.
        -15    1    3    3    0    0 -0.12466694283E+02 -0.47459733688E+02  0.42941424057E+02  0.65230118942E+02  0.17770000000E+01 0.  1.
         15    1    3    3    0    0  0.85937786777E+02 -0.63327231256E+02  0.26613715375E+02  0.11003221796E+03  0.17770000000E+01 0. -1.
</event>
<event>
 7    1  0.2809211E-007  0.1372451E+03  0.7546771E-02  0.1111559E+00
        -11   -1    0    0    0    0  0.00000000000E+00  0.00000000000E+00  0.18250000000E+03  0.18250000000E+03  0.00000000000E+00 0.  1.
         11   -1    0    0    0    0 -0.00000000000E+00 -0.00000000000E+00 -0.18250000000E+03  0.18250000000E+03  0.00000000000E+00 0. -1.
         23    2    1    2    0    0  0.40877834030E+02  0.84135833599E+02 -0.49982417564E+02  0.12966296555E+03  0.74594951299E+02 0.  0.
        -11    1    1    2    0    0 -0.49194435793E+02 -0.29890324365E+02  0.12777055085E+03  0.14013863731E+03  0.00000000000E+00 0.  1.
         11    1    1    2    0    0  0.83166017632E+01 -0.54245509234E+02 -0.77788133287E+02  0.95198397136E+02  0.00000000000E+00 0. -1.
        -15    1    3    3    0    0  0.32276549432E+02  0.16116708185E+01  0.78707873686E+00  0.32375150162E+02  0.17770000000E+01 0.  1.
         15    1    3    3    0    0  0.86012845977E+01  0.82524162781E+02 -0.50769496300E+02  0.97287815388E+02  0.17770000000E+01 0. -1.
</event>
<event>
 7    1  0.2809211E-007  0.1286443E+03  0.7546771E-02  0.1121848E+00
        -11   -1    0    0    0    0  0.00000000000E+00  0.00000000000E+00  0.18250000000E+03  0.18250000000E+03  0.00000000000E+00 0. -1.
         11   -1    0    0    0    0 -0.00000000000E+00 -0.00000000000E+00 -0.18250000000E+03  0.18250000000E+03  0.00000000000E+00 0. -1.
         23    2    1    2    0    0 -0.17286838884E+02 -0.23182283439E+02 -0.40409609634E+02  0.10295683780E+03  0.90171618786E+02 0.  0.
        -11    1    1    2    0    0 -0.18249747690E+02 -0.67729683716E+02  0.11805152062E+03  0.13731906229E+03  0.00000000000E+00 0. -1.
         11    1    1    2    0    0  0.35536586574E+02  0.90911967155E+02 -0.77641910987E+02  0.12472409991E+03  0.00000000000E+00 0. -1.
        -15    1    3    3    0    0  0.31726542969E+02 -0.31471424226E+02 -0.15551069089E+02  0.47349947733E+02  0.17770000000E+01 0. -1.
         15    1    3    3    0    0 -0.49013381853E+02  0.82891407870E+01 -0.24858540545E+02  0.55606890064E+02  0.17770000000E+01 0.  1.
</event>
<event>
 7    1  0.2809211E-007  0.1802989E+03  0.7546771E-02  0.1070221E+00
        -11   -1    0    0    0    0  0.00000000000E+00  0.00000000000E+00  0.18250000000E+03  0.18250000000E+03  0.00000000000E+00 0. -1.
         11   -1    0    0    0    0 -0.00000000000E+00 -0.00000000000E+00 -0.18250000000E+03  0.18250000000E+03  0.00000000000E+00 0. -1.
         23    2    1    2    0    0 -0.40619884902E+02  0.56877490970E+02  0.13691363376E+03  0.17905007532E+03  0.91807201980E+02 0.  0.
        -11    1    1    2    0    0 -0.18229196539E+02  0.18364657056E+02 -0.11539346755E+02  0.28332327098E+02  0.00000000000E+00 0. -1.
         11    1    1    2    0    0  0.58849081441E+02 -0.75242148025E+02 -0.12537428700E+03  0.15761759758E+03  0.00000000000E+00 0. -1.
        -15    1    3    3    0    0 -0.99633741007E+01 -0.11102416777E+02 -0.72880312353E+01  0.16697473163E+02  0.17770000000E+01 0.  1.
         15    1    3    3    0    0 -0.30656510801E+02  0.67979907746E+02  0.14420166499E+03  0.16235260216E+03  0.17770000000E+01 0. -1.
</event>
<event>
 7    1  0.2809211E-007  0.1864051E+03  0.7546771E-02  0.1065388E+00
        -11   -1    0    0    0    0  0.00000000000E+00  0.00000000000E+00  0.18250000000E+03  0.18250000000E+03  0.00000000000E+00 0. -1.
         11   -1    0    0    0    0 -0.00000000000E+00 -0.00000000000E+00 -0.18250000000E+03  0.18250000000E+03  0.00000000000E+00 0.  1.
         23    2    1    2    0    0 -0.91330330889E+02 -0.17709498723E+01  0.12940860908E+03  0.18251748022E+03  0.90673462924E+02 0.  0.
        -11    1    1    2    0    0 -0.12670679957E+02  0.86544548450E+01  0.11907491929E+01  0.15390373708E+02  0.00000000000E+00 0. -1.
         11    1    1    2    0    0  0.10400101085E+03 -0.68835049727E+01 -0.13059935827E+03  0.16709214607E+03  0.00000000000E+00 0.  1.
        -15    1    3    3    0    0 -0.18515112602E+02  0.11027418371E+02 -0.10672523902E+02  0.24113768806E+02  0.17770000000E+01 0.  1.
         15    1    3    3    0    0 -0.72815218287E+02 -0.12798368243E+02  0.14008113298E+03  0.15840371141E+03  0.17770000000E+01 0. -1.
</event>
<event>
 7    1  0.2809211E-007  0.1338706E+03  0.7546771E-02  0.1115494E+00
        -11   -1    0    0    0    0  0.00000000000E+00  0.00000000000E+00  0.18250000000E+03  0.18250000000E+03  0.00000000000E+00 0.  1.
         11   -1    0    0    0    0 -0.00000000000E+00 -0.00000000000E+00 -0.18250000000E+03  0.18250000000E+03  0.00000000000E+00 0. -1.
         23    2    1    2    0    0 -0.31444774772E+02  0.72844683375E+02  0.16755432013E+02  0.12102683548E+03  0.89842243118E+02 0.  0.
        -11    1    1    2    0    0  0.12609759974E+03 -0.27562997278E+02 -0.42577306735E+02  0.13591596863E+03  0.00000000000E+00 0.  1.
         11    1    1    2    0    0 -0.94652824966E+02 -0.45281686097E+02  0.25821874722E+02  0.10805719589E+03  0.00000000000E+00 0. -1.
        -15    1    3    3    0    0 -0.93275324459E+01 -0.20853960843E+02 -0.17275262499E+01  0.22978960383E+02  0.17770000000E+01 0. -1.
         15    1    3    3    0    0 -0.22117242326E+02  0.93698644218E+02  0.18482958263E+02  0.98047875099E+02  0.17770000000E+01 0.  1.
</event>
<event>
 7    1  0.2809211E-007  0.1682562E+03  0.7546771E-02  0.1080394E+00
        -11   -1    0    0    0    0  0.00000000000E+00  0.00000000000E+00  0.18250000000E+03  0.18250000000E+03  0.00000000000E+00 0. -1.
         11   -1    0    0    0    0 -0.00000000000E+00 -0.00000000000E+00 -0.18250000000E+03  0.18250000000E+03  0.00000000000E+00 0. -1.
         23    2    1    2    0    0 -0.72965744744E+02  0.27751721507E+01  0.11742187624E+03  0.16582119591E+03  0.91526337782E+02 0.  0.
        -11    1    1    2    0    0  0.11452385534E+03 -0.18420747421E+02 -0.91673432966E+02  0.14784808314E+03  0.00000000000E+00 0. -1.
         11    1    1    2    0    0 -0.41558110593E+02  0.15645575270E+02 -0.25748443275E+02  0.51330720944E+02  0.00000000000E+00 0. -1.
        -15    1    3    3    0    0 -0.76605946622E+02 -0.30512512327E+02  0.72855052317E+02  0.11004772076E+03  0.17770000000E+01 0.  1.
         15    1    3    3    0    0  0.36402018774E+01  0.33287684478E+02  0.44566823924E+02  0.55773475159E+02  0.17770000000E+01 0. -1.
</event>
<event>
 7    1  0.2809211E-007  0.1494589E+03  0.7546771E-02  0.1098297E+00
        -11   -1    0    0    0    0  0.00000000000E+00  0.00000000000E+00  0.18250000000E+03  0.18250000000E+03  0.00000000000E+00 0.  1.
         11   -1    0    0    0    0 -0.00000000000E+00 -0.00000000000E+00 -0.18250000000E+03  0.18250000000E+03  0.00000000000E+00 0.  1.
         23    2    1    2    0    0  0.10924900714E+03  0.47643722469E+02  0.45135084448E+01  0.15986052009E+03  0.10644127147E+03 0.  0.
        -11    1    1    2    0    0 -0.19975416786E+02 -0.71426478940E+02  0.57520136163E+02  0.93858005699E+02  0.00000000000E+00 0.  1.
         11    1    1    2    0    0 -0.89273590355E+02  0.23782756471E+02 -0.62033644607E+02  0.11128147422E+03  0.00000000000E+00 0.  1.
        -15    1    3    3    0    0  0.64869097446E+02  0.38790912824E+02  0.53901655794E+02  0.92850853240E+02  0.17770000000E+01 0.  1.
         15    1    3    3    0    0  0.44379909695E+02  0.88528096455E+01 -0.49388147349E+02  0.67009666846E+02  0.17770000000E+01 0. -1.
</event>
<event>
 7    1  0.2809211E-007  0.1484858E+03  0.7546771E-02  0.1099301E+00
        -11   -1    0    0    0    0  0.00000000000E+00  0.00000000000E+00  0.18250000000E+03  0.18250000000E+03  0.00000000000E+00 0. -1.
         11   -1    0    0    0    0 -0.00000000000E+00 -0.00000000000E+00 -0.18250000000E+03  0.18250000000E+03  0.00000000000E+00 0. -1.
         23    2    1    2    0    0  0.60007945548E+02  0.60116184758E+02 -0.73624035533E+02  0.14491949349E+03  0.91467217003E+02 0.  0.
        -11    1    1    2    0    0 -0.16137607474E+02 -0.15101641947E+02  0.13227601490E+03  0.13410975386E+03  0.00000000000E+00 0. -1.
         11    1    1    2    0    0 -0.43870338074E+02 -0.45014542811E+02 -0.58651979364E+02  0.85970752646E+02  0.00000000000E+00 0. -1.
        -15    1    3    3    0    0 -0.17461894100E+02  0.64046030980E+01 -0.41159612033E+02  0.45201859233E+02  0.17770000000E+01 0. -1.
         15    1    3    3    0    0  0.77469839648E+02  0.53711581660E+02 -0.32464423501E+02  0.99717634257E+02  0.17770000000E+01 0.  1.
</event>
<event>
 7    1  0.2809211E-007  0.1285426E+03  0.7546771E-02  0.1121975E+00
        -11   -1    0    0    0    0  0.00000000000E+00  0.00000000000E+00  0.18250000000E+03  0.18250000000E+03  0.00000000000E+00 0.  1.
         11   -1    0    0    0    0 -0.00000000000E+00 -0.00000000000E+00 -0.18250000000E+03  0.18250000000E+03  0.00000000000E+00 0. -1.
         23    2    1    2    0    0  0.95514138717E+01  0.75641854293E+00  0.35946159239E+02  0.10523719059E+03  0.98442563171E+02 0.  0.
        -11    1    1    2    0    0  0.12101781275E+03 -0.26405679462E+02 -0.23941678385E+02  0.12615773807E+03  0.00000000000E+00 0.  1.
         11    1    1    2    0    0 -0.13056922662E+03  0.25649260919E+02 -0.12004480854E+02  0.13360507134E+03  0.00000000000E+00 0. -1.
        -15    1    3    3    0    0  0.26050948085E+01 -0.24648933182E+02 -0.27171767730E+02  0.36821449137E+02  0.17770000000E+01 0.  1.
         15    1    3    3    0    0  0.69463190632E+01  0.25405351725E+02  0.63117926969E+02  0.68415741454E+02  0.17770000000E+01 0. -1.
</event>
<event>
 7    1  0.2809211E-007  0.1359336E+03  0.7546771E-02  0.1113074E+00
        -11   -1    0    0    0    0  0.00000000000E+00  0.00000000000E+00  0.18250000000E+03  0.18250000000E+03  0.00000000000E+00 0. -1.
         11   -1    0    0    0    0 -0.00000000000E+00 -0.00000000000E+00 -0.18250000000E+03  0.18250000000E+03  0.00000000000E+00 0. -1.
         23    2    1    2    0    0  0.31709771952E+02  0.60560663932E+02  0.72728872949E+02  0.13349387325E+03  0.88645482573E+02 0.  0.
        -11    1    1    2    0    0 -0.20009330725E+02 -0.12540257816E+03  0.80730795307E+01  0.12724525350E+03  0.00000000000E+00 0. -1.
         11    1    1    2    0    0 -0.11700441228E+02  0.64841914232E+02 -0.80801952479E+02  0.10426087325E+03  0.00000000000E+00 0. -1.
        -15    1    3    3    0    0 -0.23854105597E+02 -0.50051554473E+01  0.74282116267E+01  0.25542239366E+02  0.17770000000E+01 0.  1.
         15    1    3    3    0    0  0.55563877549E+02  0.65565819379E+02  0.65300661322E+02  0.10795163388E+03  0.17770000000E+01 0. -1.
</event>
<event>
 7    1  0.2809211E-007  0.2140799E+03  0.7546771E-02  0.1045772E+00
        -11   -1    0    0    0    0  0.00000000000E+00  0.00000000000E+00  0.18250000000E+03  0.18250000000E+03  0.00000000000E+00 0.  1.
         11   -1    0    0    0    0 -0.00000000000E+00 -0.00000000000E+00 -0.18250000000E+03  0.18250000000E+03  0.00000000000E+00 0. -1.
         23    2    1    2    0    0  0.28803130968E+02  0.45943440242E+02  0.45077657428E+02  0.11794186542E+03  0.94540300209E+02 0.  0.
        -11    1    1    2    0    0 -0.20159534964E+02  0.14727780540E+02  0.92839640569E+02  0.96137990569E+02  0.00000000000E+00 0.  1.
         11    1    1    2    0    0 -0.86435960042E+01 -0.60671220782E+02 -0.13791729800E+03  0.15092014402E+03  0.00000000000E+00 0. -1.
        -15    1    3    3    0    0  0.51243681664E+02 -0.51670566821E+01  0.31735746881E+02  0.60522134334E+02  0.17770000000E+01 0.  1.
         15    1    3    3    0    0 -0.22440550696E+02  0.51110496924E+02  0.13341910546E+02  0.57419731081E+02  0.17770000000E+01 0. -1.
</event>
<event>
 7    1  0.2809211E-007  0.1465041E+03  0.7546771E-02  0.1101374E+00
        -11   -1    0    0    0    0  0.00000000000E+00  0.00000000000E+00  0.18250000000E+03  0.18250000000E+03  0.00000000000E+00 0. -1.
         11   -1    0    0    0    0 -0.00000000000E+00 -0.00000000000E+00 -0.18250000000E+03  0.18250000000E+03  0.00000000000E+00 0.  1.
         23    2    1    2    0    0  0.13887631994E+02  0.61945747754E+02  0.67597228003E+02  0.13128272441E+03  0.92928071689E+02 0.  0.
        -11    1    1    2    0    0  0.74590953036E+02 -0.29634729388E+02  0.40862196709E+02  0.90065235139E+02  0.00000000000E+00 0. -1.
         11    1    1    2    0    0 -0.88478585030E+02 -0.32311018366E+02 -0.10845942471E+03  0.14365204045E+03  0.00000000000E+00 0.  1.
        -15    1    3    3    0    0 -0.18924709780E+02  0.23989084685E+02  0.74559874479E+02  0.80597477849E+02  0.17770000000E+01 0. -1.
         15    1    3    3    0    0  0.32812341774E+02  0.37956663069E+02 -0.69626464762E+01  0.50685246561E+02  0.17770000000E+01 0.  1.
</event>
<event>
 7    1  0.2809211E-007  0.2101832E+03  0.7546771E-02  0.1048333E+00
        -11   -1    0    0    0    0  0.00000000000E+00  0.00000000000E+00  0.18250000000E+03  0.18250000000E+03  0.00000000000E+00 0.  1.
         11   -1    0    0    0    0 -0.00000000000E+00 -0.00000000000E+00 -0.18250000000E+03  0.18250000000E+03  0.00000000000E+00 0. -1.
         23    2    1    2    0    0 -0.18040130092E+02 -0.44317894892E+02  0.31774826470E+01  0.10289989692E+03  0.91042683884E+02 0.  0.
        -11    1    1    2    0    0 -0.35858046640E+02 -0.98328193816E+02  0.23568281842E+02  0.10728325646E+03  0.00000000000E+00 0.  1.
         11    1    1    2    0    0  0.53898176732E+02  0.14264608871E+03 -0.26745764489E+02  0.15481684662E+03  0.00000000000E+00 0. -1.
        -15    1    3    3    0    0  0.32433333704E+02 -0.31679523427E+02 -0.14950164238E+02  0.47772151715E+02  0.17770000000E+01 0. -1.
         15    1    3    3    0    0 -0.50473463796E+02 -0.12638371465E+02  0.18127646885E+02  0.55127745206E+02  0.17770000000E+01 0.  1.
</event>
<event>
 7    1  0.2809211E-007  0.1617796E+03  0.7546771E-02  0.1086260E+00
        -11   -1    0    0    0    0  0.00000000000E+00  0.00000000000E+00  0.18250000000E+03  0.18250000000E+03  0.00000000000E+00 0. -1.
         11   -1    0    0    0    0 -0.00000000000E+00 -0.00000000000E+00 -0.18250000000E+03  0.18250000000E+03  0.00000000000E+00 0. -1.
         23    2    1    2    0    0  0.30133358990E+01  0.18657676226E+02  0.12389440252E+03  0.15341731987E+03  0.88486507359E+02 0.  0.
        -11    1    1    2    0    0 -0.33630891777E+02  0.51197414141E+02  0.53745229647E+01  0.61490630128E+02  0.00000000000E+00 0. -1.
         11    1    1    2    0    0  0.30617555878E+02 -0.69855090367E+02 -0.12926892549E+03  0.15009205000E+03  0.00000000000E+00 0. -1.
        -15    1    3    3    0    0 -0.22909626630E+01  0.16642106920E+01 -0.13986555257E+02  0.14380527254E+02  0.17770000000E+01 0.  1.
         15    1    3    3    0    0  0.53042985620E+01  0.16993465534E+02  0.13788095778E+03  0.13903679262E+03  0.17770000000E+01 0. -1.
</event>
<event>
 7    1  0.2809211E-007  0.1642225E+03  0.7546771E-02  0.1084013E+00
        -11   -1    0    0    0    0  0.00000000000E+00  0.00000000000E+00  0.18250000000E+03  0.18250000000E+03  0.00000000000E+00 0. -1.
         11   -1    0    0    0    0 -0.00000000000E+00 -0.00000000000E+00 -0.18250000000E+03  0.18250000000E+03  0.00000000000E+00 0.  1.
         23    2    1    2    0    0 -0.10455677677E+02 -0.14652289811E+02  0.11996255606E+03  0.15222045442E+03  0.91956734898E+02 0.  0.
        -11    1    1    2    0    0  0.48601538011E+02 -0.23053506841E+02  0.24183422436E+02  0.58978060289E+02  0.00000000000E+00 0. -1.
         11    1    1    2    0    0 -0.38145860335E+02  0.37705796651E+02 -0.14414597850E+03  0.15380148530E+03  0.00000000000E+00 0.  1.
        -15    1    3    3    0    0 -0.11820900598E+02 -0.14343303121E+02  0.13536810237E+03  0.13664971608E+03  0.17770000000E+01 0.  1.
         15    1    3    3    0    0  0.13652229212E+01 -0.30898668958E+00 -0.15405546308E+02  0.15570738340E+02  0.17770000000E+01 0. -1.
</event>
<event>
 7    1  0.2809211E-007  0.1612656E+03  0.7546771E-02  0.1086738E+00
        -11   -1    0    0    0    0  0.00000000000E+00  0.00000000000E+00  0.18250000000E+03  0.18250000000E+03  0.00000000000E+00 0.  1.
         11   -1    0    0    0    0 -0.00000000000E+00 -0.00000000000E+00 -0.18250000000E+03  0.18250000000E+03  0.00000000000E+00 0. -1.
         23    2    1    2    0    0  0.43624359644E+02 -0.61303707856E+02  0.77526787713E+02  0.14142278871E+03  0.91262111535E+02 0.  0.
        -11    1    1    2    0    0  0.38826424883E+02  0.10925783721E+02  0.49580071661E+02  0.63914376513E+02  0.00000000000E+00 0.  1.
         11    1    1    2    0    0 -0.82450784528E+02  0.50377924135E+02 -0.12710685937E+03  0.15966283478E+03  0.00000000000E+00 0. -1.
        -15    1    3    3    0    0 -0.51211979786E+01  0.11857808313E+02 -0.10695170892E+02  0.16863531544E+02  0.17770000000E+01 0. -1.
         15    1    3    3    0    0  0.48745557623E+02 -0.73161516169E+02  0.88221958606E+02  0.12455925716E+03  0.17770000000E+01 0.  1.
</event>
<event>
 7    1  0.2809211E-007  0.1501883E+03  0.7546771E-02  0.1097549E+00
        -11   -1    0    0    0    0  0.00000000000E+00  0.00000000000E+00  0.18250000000E+03  0.18250000000E+03  0.00000000000E+00 0. -1.
         11   -1    0    0    0    0 -0.00000000000E+00 -0.00000000000E+00 -0.18250000000E+03  0.18250000000E+03  0.00000000000E+00 0.  1.
         23    2    1    2    0    0 -0.21178793107E+02 -0.12768842374E+03  0.29829743834E+02  0.16079886002E+03  0.90628830578E+02 0.  0.
        -11    1    1    2    0    0  0.29877915990E+02  0.47284237729E+02  0.60880740165E+02  0.82673777733E+02  0.00000000000E+00 0. -1.
         11    1    1    2    0    0 -0.86991228829E+01  0.80404186012E+02 -0.90710483999E+02  0.12152736225E+03  0.00000000000E+00 0.  1.
        -15    1    3    3    0    0 -0.37606990190E+02 -0.23437078832E+02  0.32871726985E+02  0.55202269331E+02  0.17770000000E+01 0. -1.
         15    1    3    3    0    0  0.16428197083E+02 -0.10425134491E+03 -0.30419831511E+01  0.10559659069E+03  0.17770000000E+01 0.  1.
</event>
<event>
 7    1  0.2809211E-007  0.1476045E+03  0.7546771E-02  0.1100219E+00
        -11   -1    0    0    0    0  0.00000000000E+00  0.00000000000E+00  0.18250000000E+03  0.18250000000E+03  0.00000000000E+00 0. -1.
         11   -1    0    0    0    0 -0.00000000000E+00 -0.00000000000E+00 -0.18250000000E+03  0.18250000000E+03  0.00000000000E+00 0. -1.
         23    2    1    2    0    0 -0.45835003730E+02 -0.68948668674E+02  0.94596405543E+02  0.15570904684E+03  0.91880688105E+02 0.  0.
        -11    1    1    2    0    0  0.85270821952E+02 -0.13934397652E+02 -0.14785039514E+02  0.87657731591E+02  0.00000000000E+00 0. -1.
         11    1    1    2    0    0 -0.39435818222E+02  0.82883066326E+02 -0.79811366028E+02  0.12163322157E+03  0.00000000000E+00 0. -1.
        -15    1    3    3    0    0 -0.68473900368E+02 -0.55041125247E+02  0.94553280157E+02  0.12908013409E+03  0.17770000000E+01 0. -1.
         15    1    3    3    0    0  0.22638896638E+02 -0.13907543427E+02  0.43125386144E-01  0.26628912745E+02  0.17770000000E+01 0.  1.
</event>
<event>
 7    1  0.2809211E-007  0.1583592E+03  0.7546771E-02  0.1089480E+00
        -11   -1    0    0    0    0  0.00000000000E+00  0.00000000000E+00  0.18250000000E+03  0.18250000000E+03  0.00000000000E+00 0. -1.
         11   -1    0    0    0    0 -0.00000000000E+00 -0.00000000000E+00 -0.18250000000E+03  0.18250000000E+03  0.00000000000E+00 0.  1.
         23    2    1    2    0    0 -0.92344031186E+02 -0.95071716139E+02  0.77944646995E+01  0.16135708571E+03  0.91702258005E+02 0.  0.
        -11    1    1    2    0    0  0.56515078500E+02 -0.33642240146E+02 -0.21833441014E+02  0.69299737131E+02  0.00000000000E+00 0.  1.
         11    1    1    2    0    0  0.35828952687E+02  0.12871395629E+03  0.14038976315E+02  0.13434317716E+03  0.00000000000E+00 0. -1.
        -15    1    3    3    0    0 -0.79651744545E+02 -0.11017970909E+03 -0.77307231257E+01  0.13618696896E+03  0.17770000000E+01 0.  1.
         15    1    3    3    0    0 -0.12692286642E+02  0.15107992954E+02  0.15525187825E+02  0.25170116752E+02  0.17770000000E+01 0. -1.
</event>
<event>
 7    1  0.2809211E-007  0.1854195E+03  0.7546771E-02  0.1066154E+00
        -11   -1    0    0    0    0  0.00000000000E+00  0.00000000000E+00  0.18250000000E+03  0.18250000000E+03  0.00000000000E+00 0.  1.
         11   -1    0    0    0    0 -0.00000000000E+00 -0.00000000000E+00 -0.18250000000E+03  0.18250000000E+03  0.00000000000E+00 0. -1.
         23    2    1    2    0    0  0.11914354994E+03 -0.35968555822E+02  0.10620513573E+03  0.18541953453E+03  0.87246492362E+02 0.  0.
        -11    1    1    2    0    0 -0.88887615165E+02 -0.69432570666E+01 -0.84256685543E+02  0.12267194466E+03  0.00000000000E+00 0. -1.
         11    1    1    2    0    0 -0.30255934777E+02  0.42911812889E+02 -0.21948450190E+02  0.56908520806E+02  0.00000000000E+00 0.  1.
        -15    1    3    3    0    0 -0.21643326451E+01  0.18693410796E+02  0.12198339611E+02  0.22496336619E+02  0.17770000000E+01 0. -1.
         15    1    3    3    0    0  0.12130788259E+03 -0.54661966618E+02  0.94006796121E+02  0.16292319791E+03  0.17770000000E+01 0.  1.
</event>
<event>
 7    1  0.2809211E-007  0.1802949E+03  0.7546771E-02  0.1070224E+00
        -11   -1    0    0    0    0  0.00000000000E+00  0.00000000000E+00  0.18250000000E+03  0.18250000000E+03  0.00000000000E+00 0.  1.
         11   -1    0    0    0    0 -0.00000000000E+00 -0.00000000000E+00 -0.18250000000E+03  0.18250000000E+03  0.00000000000E+00 0.  1.
         23    2    1    2    0    0 -0.58732929807E+02  0.39666893409E+02  0.11532704112E+03  0.17071600285E+03  0.10402215023E+03 0.  0.
        -11    1    1    2    0    0  0.42754200291E+02 -0.42211821439E+02 -0.14695230645E+03  0.15876000719E+03  0.00000000000E+00 0.  1.
         11    1    1    2    0    0  0.15978729516E+02  0.25449280304E+01  0.31625265333E+02  0.35523989965E+02  0.00000000000E+00 0.  1.
        -15    1    3    3    0    0 -0.39450252357E+02  0.38902678400E+02  0.13324901616E+03  0.14431977977E+03  0.17770000000E+01 0.  1.
         15    1    3    3    0    0 -0.19282677450E+02  0.76421500922E+00 -0.17921975042E+02  0.26396223075E+02  0.17770000000E+01 0. -1.
</event>
<event>
 7    1  0.2809211E-007  0.1563640E+03  0.7546771E-02  0.1091400E+00
        -11   -1    0    0    0    0  0.00000000000E+00  0.00000000000E+00  0.18250000000E+03  0.18250000000E+03  0.00000000000E+00 0. -1.
         11   -1    0    0    0    0 -0.00000000000E+00 -0.00000000000E+00 -0.18250000000E+03  0.18250000000E+03  0.00000000000E+00 0. -1.
         23    2    1    2    0    0 -0.31454733485E+02  0.31200023097E+02  0.14588697899E+03  0.17763853184E+03  0.91156983577E+02 0.  0.
        -11    1    1    2    0    0  0.44042542460E+02 -0.65638471814E+02 -0.83374404938E+02  0.11488884161E+03  0.00000000000E+00 0. -1.
         11    1    1    2    0    0 -0.12587808975E+02  0.34438448717E+02 -0.62512574049E+02  0.72472626550E+02  0.00000000000E+00 0. -1.
        -15    1    3    3    0    0  0.30132415779E+02  0.12226188500E+02  0.26616974849E+02  0.42060233535E+02  0.17770000000E+01 0.  1.
         15    1    3    3    0    0 -0.61587149265E+02  0.18973834597E+02  0.11927000414E+03  0.13557829830E+03  0.17770000000E+01 0. -1.
</event>
<event>
 7    1  0.2809211E-007  0.1477622E+03  0.7546771E-02  0.1100054E+00
        -11   -1    0    0    0    0  0.00000000000E+00  0.00000000000E+00  0.18250000000E+03  0.18250000000E+03  0.00000000000E+00 0.  1.
         11   -1    0    0    0    0 -0.00000000000E+00 -0.00000000000E+00 -0.18250000000E+03  0.18250000000E+03  0.00000000000E+00 0. -1.
         23    2    1    2    0    0  0.57612650731E+02 -0.36034803891E+01  0.70852668344E+02  0.12882778317E+03  0.90798097505E+02 0.  0.
        -11    1    1    2    0    0  0.27622047139E+02 -0.80076949190E+02  0.18867830821E+02  0.86783007090E+02  0.00000000000E+00 0.  1.
         11    1    1    2    0    0 -0.85234697870E+02  0.83680429579E+02 -0.89720499165E+02  0.14938920974E+03  0.00000000000E+00 0. -1.
        -15    1    3    3    0    0  0.32774758732E+02  0.40132992198E+02  0.15716847256E+02  0.54175814617E+02  0.17770000000E+01 0.  1.
         15    1    3    3    0    0  0.24837891999E+02 -0.43736472587E+02  0.55135821088E+02  0.74651968556E+02  0.17770000000E+01 0. -1.
</event>
<event>
 7    1  0.2809211E-007  0.1913211E+03  0.7546771E-02  0.1061642E+00
        -11   -1    0    0    0    0  0.00000000000E+00  0.00000000000E+00  0.18250000000E+03  0.18250000000E+03  0.00000000000E+00 0.  1.
         11   -1    0    0    0    0 -0.00000000000E+00 -0.00000000000E+00 -0.18250000000E+03  0.18250000000E+03  0.00000000000E+00 0.  1.
         23    2    1    2    0    0  0.13099825958E+02 -0.67678656582E+02  0.15318507452E+03  0.19132105839E+03  0.91575511626E+02 0.  0.
        -11    1    1    2    0    0 -0.28971116966E+02  0.41338821043E+02 -0.84614289865E+02  0.98528177659E+02  0.00000000000E+00 0.  1.
         11    1    1    2    0    0  0.15871291008E+02  0.26339835540E+02 -0.68570784656E+02  0.75150763954E+02  0.00000000000E+00 0.  1.
        -15    1    3    3    0    0  0.48010665042E+01 -0.73834635596E+02  0.16168784345E+03  0.17782215863E+03  0.17770000000E+01 0.  1.
         15    1    3    3    0    0  0.82987594537E+01  0.61559790134E+01 -0.85027689284E+01  0.13498899753E+02  0.17770000000E+01 0. -1.
</event>
<event>
 7    1  0.2809211E-007  0.1520999E+03  0.7546771E-02  0.1095612E+00
        -11   -1    0    0    0    0  0.00000000000E+00  0.00000000000E+00  0.18250000000E+03  0.18250000000E+03  0.00000000000E+00 0. -1.
         11   -1    0    0    0    0 -0.00000000000E+00 -0.00000000000E+00 -0.18250000000E+03  0.18250000000E+03  0.00000000000E+00 0. -1.
         23    2    1    2    0    0  0.45435539599E+02  0.49930068962E+02 -0.67795936915E+02  0.12986867376E+03  0.87819037331E+02 0.  0.
        -11    1    1    2    0    0 -0.11229477962E+03 -0.34114240911E+02  0.10458227989E+03  0.15719844856E+03  0.00000000000E+00 0. -1.
         11    1    1    2    0    0  0.66859240021E+02 -0.15815828052E+02 -0.36786342976E+02  0.77932877675E+02  0.00000000000E+00 0. -1.
        -15    1    3    3    0    0  0.16199998307E+02  0.52065745870E+01 -0.74088969199E+02  0.76038683906E+02  0.17770000000E+01 0. -1.
         15    1    3    3    0    0  0.29235541292E+02  0.44723494375E+02  0.62930322844E+01  0.53829989858E+02  0.17770000000E+01 0.  1.
</event>
<event>
 7    1  0.2809211E-007  0.1454938E+03  0.7546771E-02  0.1102445E+00
        -11   -1    0    0    0    0  0.00000000000E+00  0.00000000000E+00  0.18250000000E+03  0.18250000000E+03  0.00000000000E+00 0. -1.
         11   -1    0    0    0    0 -0.00000000000E+00 -0.00000000000E+00 -0.18250000000E+03  0.18250000000E+03  0.00000000000E+00 0.  1.
         23    2    1    2    0    0  0.86520056259E+02  0.57452464360E+02 -0.40625843322E+01  0.13913903344E+03  0.92502217487E+02 0.  0.
        -11    1    1    2    0    0 -0.38984323205E+02 -0.11574610381E+03  0.56093821071E+02  0.13440035255E+03  0.00000000000E+00 0. -1.
         11    1    1    2    0    0 -0.47535733054E+02  0.58293639453E+02 -0.52031236738E+02  0.91460614005E+02  0.00000000000E+00 0.  1.
        -15    1    3    3    0    0  0.10625623634E+03  0.49019679497E+02 -0.77570762660E+01  0.11728873220E+03  0.17770000000E+01 0.  1.
         15    1    3    3    0    0 -0.19736180083E+02  0.84327848628E+01  0.36944919338E+01  0.21850301244E+02  0.17770000000E+01 0. -1.
</event>
<event>
 7    1  0.2809211E-007  0.1636562E+03  0.7546771E-02  0.1084530E+00
        -11   -1    0    0    0    0  0.00000000000E+00  0.00000000000E+00  0.18250000000E+03  0.18250000000E+03  0.00000000000E+00 0.  1.
         11   -1    0    0    0    0 -0.00000000000E+00 -0.00000000000E+00 -0.18250000000E+03  0.18250000000E+03  0.00000000000E+00 0. -1.
         23    2    1    2    0    0 -0.72696477488E+02  0.11979616751E+03 -0.67454946750E+02  0.18103726199E+03  0.92673733059E+02 0.  0.
        -11    1    1    2    0    0  0.16302429453E+02 -0.98738605559E+02  0.72465982341E+02  0.12355727429E+03  0.00000000000E+00 0.  1.
         11    1    1    2    0    0  0.56394048034E+02 -0.21057561952E+02 -0.50110355911E+01  0.60405463716E+02  0.00000000000E+00 0. -1.
        -15    1    3    3    0    0 -0.41070106140E+02  0.26020797143E+02 -0.66065606518E+02  0.82046679372E+02  0.17770000000E+01 0.  1.
         15    1    3    3    0    0 -0.31626371348E+02  0.93775370368E+02 -0.13893402313E+01  0.98990582620E+02  0.17770000000E+01 0. -1.
</event>
<event>
 7    1  0.2809211E-007  0.1674185E+03  0.7546771E-02  0.1081137E+00
        -11   -1    0    0    0    0  0.00000000000E+00  0.00000000000E+00  0.18250000000E+03  0.18250000000E+03  0.00000000000E+00 0.  1.
         11   -1    0    0    0    0 -0.00000000000E+00 -0.00000000000E+00 -0.18250000000E+03  0.18250000000E+03  0.00000000000E+00 0. -1.
         23    2    1    2    0    0 -0.55731779496E+02 -0.12794950459E+03  0.51556783050E+02  0.17907912242E+03  0.99670071933E+02 0.  0.
        -11    1    1    2    0    0  0.49249159803E+02  0.21896190748E+02  0.20364794018E+02  0.57616384354E+02  0.00000000000E+00 0.  1.
         11    1    1    2    0    0  0.64826196935E+01  0.10605331384E+03 -0.71921577068E+02  0.12830449323E+03  0.00000000000E+00 0. -1.
        -15    1    3    3    0    0 -0.65565733521E+02 -0.65169818158E+02  0.66357486088E+02  0.11380880590E+03  0.17770000000E+01 0.  1.
         15    1    3    3    0    0  0.98339540248E+01 -0.62779686427E+02 -0.14800703038E+02  0.65270316524E+02  0.17770000000E+01 0. -1.
</event>
<event>
 7    1  0.2809211E-007  0.1877441E+03  0.7546771E-02  0.1064356E+00
        -11   -1    0    0    0    0  0.00000000000E+00  0.00000000000E+00  0.18250000000E+03  0.18250000000E+03  0.00000000000E+00 0. -1.
         11   -1    0    0    0    0 -0.00000000000E+00 -0.00000000000E+00 -0.18250000000E+03  0.18250000000E+03  0.00000000000E+00 0.  1.
         23    2    1    2    0    0  0.67685805215E+02 -0.13296357093E+03 -0.64044645973E+02  0.18918558623E+03  0.97101956388E+02 0.  0.
        -11    1    1    2    0    0 -0.14896388352E+02 -0.50995579547E+01  0.37977777045E+01  0.16196635229E+02  0.00000000000E+00 0.  1.
         11    1    1    2    0    0 -0.52789416863E+02  0.13806312889E+03  0.60246868269E+02  0.15961777855E+03  0.00000000000E+00 0. -1.
        -15    1    3    3    0    0 -0.99455096897E+01  0.18542908627E+00 -0.29557295799E+02  0.31236821395E+02  0.17770000000E+01 0. -1.
         15    1    3    3    0    0  0.77631314904E+02 -0.13314900002E+03 -0.34487350175E+02  0.15794876483E+03  0.17770000000E+01 0.  1.
</event>
<event>
 7    1  0.2809211E-007  0.2173704E+03  0.7546771E-02  0.1043656E+00
        -11   -1    0    0    0    0  0.00000000000E+00  0.00000000000E+00  0.18250000000E+03  0.18250000000E+03  0.00000000000E+00 0. -1.
         11   -1    0    0    0    0 -0.00000000000E+00 -0.00000000000E+00 -0.18250000000E+03  0.18250000000E+03  0.00000000000E+00 0. -1.
         23    2    1    2    0    0  0.15825147622E+02 -0.32319321017E+02  0.54429521537E+02  0.11599110984E+03  0.95897815085E+02 0.  0.
        -11    1    1    2    0    0 -0.55100472955E+02  0.38822534559E+01  0.85009607582E+02  0.10137932429E+03  0.00000000000E+00 0. -1.
         11    1    1    2    0    0  0.39275325333E+02  0.28437067561E+02 -0.13943912912E+03  0.14762956588E+03  0.00000000000E+00 0. -1.
        -15    1    3    3    0    0  0.34294693574E+02 -0.43957320107E+01  0.70702778562E+02  0.78724132848E+02  0.17770000000E+01 0. -1.
         15    1    3    3    0    0 -0.18469545952E+02 -0.27923589006E+02 -0.16273257025E+02  0.37266976989E+02  0.17770000000E+01 0.  1.
</event>
<event>
 7    1  0.2809211E-007  0.1725020E+03  0.7546771E-02  0.1076704E+00
        -11   -1    0    0    0    0  0.00000000000E+00  0.00000000000E+00  0.18250000000E+03  0.18250000000E+03  0.00000000000E+00 0. -1.
         11   -1    0    0    0    0 -0.00000000000E+00 -0.00000000000E+00 -0.18250000000E+03  0.18250000000E+03  0.00000000000E+00 0.  1.
         23    2    1    2    0    0 -0.34580761975E+02 -0.39166572729E+01  0.15107008236E+03  0.18098340525E+03  0.93389795405E+02 0.  0.
        -11    1    1    2    0    0  0.32243778584E+02  0.27370841922E+02 -0.13433828408E+02  0.44376705496E+02  0.00000000000E+00 0. -1.
         11    1    1    2    0    0  0.23369833908E+01 -0.23454184649E+02 -0.13763625396E+03  0.13963988926E+03  0.00000000000E+00 0.  1.
        -15    1    3    3    0    0 -0.34254534255E+02 -0.30868022157E+02  0.14648990112E+03  0.15358599145E+03  0.17770000000E+01 0. -1.
         15    1    3    3    0    0 -0.32622771990E+00  0.26951364884E+02  0.45801812419E+01  0.27397413799E+02  0.17770000000E+01 0.  1.
</event>
<event>
 7    1  0.2809211E-007  0.1394360E+03  0.7546771E-02  0.1109071E+00
        -11   -1    0    0    0    0  0.00000000000E+00  0.00000000000E+00  0.18250000000E+03  0.18250000000E+03  0.00000000000E+00 0. -1.
         11   -1    0    0    0    0 -0.00000000000E+00 -0.00000000000E+00 -0.18250000000E+03  0.18250000000E+03  0.00000000000E+00 0. -1.
         23    2    1    2    0    0  0.35783350606E+02  0.87439019245E+02  0.57467139485E+02  0.13154168955E+03  0.71237024800E+02 0.  0.
        -11    1    1    2    0    0 -0.57589913944E+02 -0.19924821144E+02  0.66764874110E+02  0.90394386444E+02  0.00000000000E+00 0. -1.
         11    1    1    2    0    0  0.21806563338E+02 -0.67514198101E+02 -0.12423201360E+03  0.14306392400E+03  0.00000000000E+00 0. -1.
        -15    1    3    3    0    0  0.34093115703E+02  0.81645026330E+02  0.73041026967E+02  0.11474493545E+03  0.17770000000E+01 0. -1.
         15    1    3    3    0    0  0.16902349030E+01  0.57939929141E+01 -0.15573887482E+02  0.16796754098E+02  0.17770000000E+01 0.  1.
</event>
<event>
 7    1  0.2809211E-007  0.1307176E+03  0.7546771E-02  0.1119288E+00
        -11   -1    0    0    0    0  0.00000000000E+00  0.00000000000E+00  0.18250000000E+03  0.18250000000E+03  0.00000000000E+00 0. -1.
         11   -1    0    0    0    0 -0.00000000000E+00 -0.00000000000E+00 -0.18250000000E+03  0.18250000000E+03  0.00000000000E+00 0.  1.
         23    2    1    2    0    0  0.23796513484E+02  0.28344291170E+02 -0.10074101763E+02  0.10076615336E+03  0.93180777208E+02 0.  0.
        -11    1    1    2    0    0 -0.23108948374E+02  0.29824419146E+02  0.12762025816E+03  0.13308061378E+03  0.00000000000E+00 0. -1.
         11    1    1    2    0    0 -0.68756511005E+00 -0.58168710316E+02 -0.11754615639E+03  0.13115323286E+03  0.00000000000E+00 0.  1.
        -15    1    3    3    0    0 -0.12284677975E+02  0.83952178714E+00 -0.42946111349E+02  0.44711791720E+02  0.17770000000E+01 0.  1.
         15    1    3    3    0    0  0.36081191459E+02  0.27504769383E+02  0.32872009586E+02  0.56054361642E+02  0.17770000000E+01 0. -1.
</event>
<event>
 7    1  0.2809211E-007  0.1494771E+03  0.7546771E-02  0.1098278E+00
        -11   -1    0    0    0    0  0.00000000000E+00  0.00000000000E+00  0.18250000000E+03  0.18250000000E+03  0.00000000000E+00 0. -1.
         11   -1    0    0    0    0 -0.00000000000E+00 -0.00000000000E+00 -0.18250000000E+03  0.18250000000E+03  0.00000000000E+00 0.  1.
         23    2    1    2    0    0 -0.81917963230E+02  0.59715885949E+02  0.11197178085E+03  0.17276385114E+03  0.83863751526E+02 0.  0.
        -11    1    1    2    0    0  0.77418055811E+02  0.48238049877E+01 -0.20560838291E+02  0.80246947177E+02  0.00000000000E+00 0. -1.
         11    1    1    2    0    0  0.44999074190E+01 -0.64539690937E+02 -0.91410942561E+02  0.11198920168E+03  0.00000000000E+00 0.  1.
        -15    1    3    3    0    0 -0.13296123142E+01 -0.16734295721E+02  0.30976199481E+02  0.35277289939E+02  0.17770000000E+01 0.  1.
         15    1    3    3    0    0 -0.80588350916E+02  0.76450181671E+02  0.80995581371E+02  0.13748656120E+03  0.17770000000E+01 0. -1.
</event>
<event>
 7    1  0.2809211E-007  0.1513880E+03  0.7546771E-02  0.1096329E+00
        -11   -1    0    0    0    0  0.00000000000E+00  0.00000000000E+00  0.18250000000E+03  0.18250000000E+03  0.00000000000E+00 0. -1.
         11   -1    0    0    0    0 -0.00000000000E+00 -0.00000000000E+00 -0.18250000000E+03  0.18250000000E+03  0.00000000000E+00 0.  1.
         23    2    1    2    0    0 -0.30121945558E+01 -0.30334642263E+02  0.15483301236E+03  0.18212855160E+03  0.90930103678E+02 0.  0.
        -11    1    1    2    0    0  0.28455088851E+02  0.48857768601E+02 -0.57771003128E+02  0.80834784818E+02  0.00000000000E+00 0. -1.
         11    1    1    2    0    0 -0.25442894295E+02 -0.18523126339E+02 -0.97062009229E+02  0.10203666358E+03  0.00000000000E+00 0.  1.
        -15    1    3    3    0    0  0.35494497396E+02 -0.40577919749E+02  0.69866723010E+02  0.88266322172E+02  0.17770000000E+01 0.  1.
         15    1    3    3    0    0 -0.38506691952E+02  0.10243277486E+02  0.84966289347E+02  0.93862229427E+02  0.17770000000E+01 0. -1.
</event>
<event>
 7    1  0.2809211E-007  0.1377002E+03  0.7546771E-02  0.1111038E+00
        -11   -1    0    0    0    0  0.00000000000E+00  0.00000000000E+00  0.18250000000E+03  0.18250000000E+03  0.00000000000E+00 0. -1.
         11   -1    0    0    0    0 -0.00000000000E+00 -0.00000000000E+00 -0.18250000000E+03  0.18250000000E+03  0.00000000000E+00 0. -1.
         23    2    1    2    0    0 -0.74839321860E+01  0.20423243774E+02 -0.64253153608E+02  0.11355199291E+03  0.91062995877E+02 0.  0.
        -11    1    1    2    0    0 -0.56213097562E+02 -0.91764489691E+02  0.10233775415E+03  0.14850471316E+03  0.00000000000E+00 0. -1.
         11    1    1    2    0    0  0.63697029748E+02  0.71341245917E+02 -0.38084600538E+02  0.10294329393E+03  0.00000000000E+00 0. -1.
        -15    1    3    3    0    0 -0.45914386587E+02 -0.52083080352E+00 -0.16682910391E+02  0.48886392673E+02  0.17770000000E+01 0.  1.
         15    1    3    3    0    0  0.38430454401E+02  0.20944074578E+02 -0.47570243217E+02  0.64665600238E+02  0.17770000000E+01 0. -1.
</event>
<event>
 7    1  0.2809211E-007  0.1492622E+03  0.7546771E-02  0.1098499E+00
        -11   -1    0    0    0    0  0.00000000000E+00  0.00000000000E+00  0.18250000000E+03  0.18250000000E+03  0.00000000000E+00 0.  1.
         11   -1    0    0    0    0 -0.00000000000E+00 -0.00000000000E+00 -0.18250000000E+03  0.18250000000E+03  0.00000000000E+00 0.  1.
         23    2    1    2    0    0 -0.89525432214E+02 -0.19846209353E+02  0.11292874009E+03  0.17100706963E+03  0.89899068342E+02 0.  0.
        -11    1    1    2    0    0  0.60621231158E+01  0.24788071403E+02 -0.10719111244E+03  0.11018680686E+03  0.00000000000E+00 0.  1.
         11    1    1    2    0    0  0.83463309098E+02 -0.49418620495E+01 -0.57376276499E+01  0.83806123506E+02  0.00000000000E+00 0.  1.
        -15    1    3    3    0    0 -0.99117615026E+02 -0.30925735737E+02  0.11624784592E+03  0.15587630400E+03  0.17770000000E+01 0.  1.
         15    1    3    3    0    0  0.95921828123E+01  0.11079526384E+02 -0.33191058374E+01  0.15130765630E+02  0.17770000000E+01 0. -1.
</event>
<event>
 7    1  0.2809211E-007  0.1454885E+03  0.7546771E-02  0.1102450E+00
        -11   -1    0    0    0    0  0.00000000000E+00  0.00000000000E+00  0.18250000000E+03  0.18250000000E+03  0.00000000000E+00 0.  1.
         11   -1    0    0    0    0 -0.00000000000E+00 -0.00000000000E+00 -0.18250000000E+03  0.18250000000E+03  0.00000000000E+00 0. -1.
         23    2    1    2    0    0  0.72622487056E+02 -0.76280131698E+01  0.70483438648E+02  0.13144656694E+03  0.83534858747E+02 0.  0.
        -11    1    1    2    0    0 -0.43548527394E+02  0.14551199628E+02  0.73411307154E+02  0.86587710830E+02  0.00000000000E+00 0.  1.
         11    1    1    2    0    0 -0.29073959662E+02 -0.69231864579E+01 -0.14389474580E+03  0.14696572223E+03  0.00000000000E+00 0. -1.
        -15    1    3    3    0    0  0.22799454800E+02  0.19047346732E+02 -0.11457018739E+02  0.31891026388E+02  0.17770000000E+01 0. -1.
         15    1    3    3    0    0  0.49823032256E+02 -0.26675359901E+02  0.81940457387E+02  0.99555540553E+02  0.17770000000E+01 0.  1.
</event>
<event>
 7    1  0.2809211E-007  0.1772740E+03  0.7546771E-02  0.1072692E+00
        -11   -1    0    0    0    0  0.00000000000E+00  0.00000000000E+00  0.18250000000E+03  0.18250000000E+03  0.00000000000E+00 0.  1.
         11   -1    0    0    0    0 -0.00000000000E+00 -0.00000000000E+00 -0.18250000000E+03  0.18250000000E+03  0.00000000000E+00 0. -1.
         23    2    1    2    0    0 -0.19322501898E+02  0.34699403195E+02  0.13447717806E+03  0.16602915344E+03  0.88905346932E+02 0.  0.
        -11    1    1    2    0    0  0.15289637979E+02  0.16939868705E+02  0.23477583595E+02  0.32740328537E+02  0.00000000000E+00 0.  1.
         11    1    1    2    0    0  0.40328639195E+01 -0.51639271899E+02 -0.15795476165E+03  0.16623051802E+03  0.00000000000E+00 0. -1.
        -15    1    3    3    0    0  0.23911820036E+02 -0.97070151762E+01  0.11506612914E+02  0.28311855306E+02  0.17770000000E+01 0. -1.
         15    1    3    3    0    0 -0.43234321935E+02  0.44406418371E+02  0.12297056514E+03  0.13771729814E+03  0.17770000000E+01 0.  1.
</event>
<event>
 7    1  0.2809211E-007  0.1639072E+03  0.7546771E-02  0.1084300E+00
        -11   -1    0    0    0    0  0.00000000000E+00  0.00000000000E+00  0.18250000000E+03  0.18250000000E+03  0.00000000000E+00 0.  1.
         11   -1    0    0    0    0 -0.00000000000E+00 -0.00000000000E+00 -0.18250000000E+03  0.18250000000E+03  0.00000000000E+00 0. -1.
         23    2    1    2    0    0 -0.25317486784E+02 -0.98488090084E+02 -0.74355193863E+02  0.15456182300E+03  0.89553242540E+02 0.  0.
        -11    1    1    2    0    0 -0.25074540009E+02  0.12716581753E+03  0.79787396589E+02  0.15220350311E+03  0.00000000000E+00 0.  1.
         11    1    1    2    0    0  0.50392026793E+02 -0.28677727450E+02 -0.54322027261E+01  0.58234673885E+02  0.00000000000E+00 0. -1.
        -15    1    3    3    0    0 -0.25254978200E+02 -0.64625078941E+02  0.36517806093E+01  0.69503294761E+02  0.17770000000E+01 0.  1.
         15    1    3    3    0    0 -0.62508584777E-01 -0.33863011143E+02 -0.78006974472E+02  0.85058528240E+02  0.17770000000E+01 0. -1.
</event>
<event>
 7    1  0.2809211E-007  0.1495520E+03  0.7546771E-02  0.1098201E+00
        -11   -1    0    0    0    0  0.00000000000E+00  0.00000000000E+00  0.18250000000E+03  0.18250000000E+03  0.00000000000E+00 0.  1.
         11   -1    0    0    0    0 -0.00000000000E+00 -0.00000000000E+00 -0.18250000000E+03  0.18250000000E+03  0.00000000000E+00 0. -1.
         23    2    1    2    0    0  0.12095505306E+03  0.40629128284E+02  0.35818048534E+02  0.16106895319E+03  0.91539194637E+02 0.  0.
        -11    1    1    2    0    0 -0.39775709053E+02 -0.53864929514E+02  0.51125831877E+02  0.84245998999E+02  0.00000000000E+00 0.  1.
         11    1    1    2    0    0 -0.81179344011E+02  0.13235801230E+02 -0.86943880411E+02  0.11968504781E+03  0.00000000000E+00 0. -1.
        -15    1    3    3    0    0  0.50151676419E+02  0.64601119868E+02  0.24867525478E+02  0.85498812204E+02  0.17770000000E+01 0.  1.
         15    1    3    3    0    0  0.70803376645E+02 -0.23971991584E+02  0.10950523056E+02  0.75570140988E+02  0.17770000000E+01 0. -1.
</event>
<event>
 7    1  0.2809211E-007  0.1508490E+03  0.7546771E-02  0.1096876E+00
        -11   -1    0    0    0    0  0.00000000000E+00  0.00000000000E+00  0.18250000000E+03  0.18250000000E+03  0.00000000000E+00 0.  1.
         11   -1    0    0    0    0 -0.00000000000E+00 -0.00000000000E+00 -0.18250000000E+03  0.18250000000E+03  0.00000000000E+00 0.  1.
         23    2    1    2    0    0 -0.57826627968E+01 -0.62718165962E+02  0.14073327398E+03  0.17879840262E+03  0.90531800185E+02 0.  0.
        -11    1    1    2    0    0 -0.47766984695E+02  0.32082305584E+02 -0.87453622296E+02  0.10468569726E+03  0.00000000000E+00 0.  1.
         11    1    1    2    0    0  0.53549647492E+02  0.30635860378E+02 -0.53279651686E+02  0.81515900114E+02  0.00000000000E+00 0.  1.
        -15    1    3    3    0    0  0.32443174205E+02  0.28683027463E+01  0.57685793444E+02  0.66269112016E+02  0.17770000000E+01 0. -1.
         15    1    3    3    0    0 -0.38225837002E+02 -0.65586468709E+02  0.83047480537E+02  0.11252929061E+03  0.17770000000E+01 0.  1.
</event>
<event>
 7    1  0.2809211E-007  0.1463087E+03  0.7546771E-02  0.1101580E+00
        -11   -1    0    0    0    0  0.00000000000E+00  0.00000000000E+00  0.18250000000E+03  0.18250000000E+03  0.00000000000E+00 0.  1.
         11   -1    0    0    0    0 -0.00000000000E+00 -0.00000000000E+00 -0.18250000000E+03  0.18250000000E+03  0.00000000000E+00 0. -1.
         23    2    1    2    0    0 -0.62285371206E+02  0.68048135482E+02 -0.29214509244E+02  0.14315249350E+03  0.10549470430E+03 0.  0.
        -11    1    1    2    0    0  0.35985340022E+02  0.40138114809E+02  0.82393824493E+02  0.98461948343E+02  0.00000000000E+00 0.  1.
         11    1    1    2    0    0  0.26300031184E+02 -0.10818625029E+03 -0.53179315249E+02  0.12338555816E+03  0.00000000000E+00 0. -1.
        -15    1    3    3    0    0 -0.41411013700E+02  0.90576310836E+02  0.15826105614E+01  0.99622299338E+02  0.17770000000E+01 0.  1.
         15    1    3    3    0    0 -0.20874357507E+02 -0.22528175354E+02 -0.30797119805E+02  0.43530194158E+02  0.17770000000E+01 0. -1.
</event>
<event>
 7    1  0.2809211E-007  0.1467278E+03  0.7546771E-02  0.1101138E+00
        -11   -1    0    0    0    0  0.00000000000E+00  0.00000000000E+00  0.18250000000E+03  0.18250000000E+03  0.00000000000E+00 0.  1.
         11   -1    0    0    0    0 -0.00000000000E+00 -0.00000000000E+00 -0.18250000000E+03  0.18250000000E+03  0.00000000000E+00 0. -1.
         23    2    1    2    0    0  0.25055169535E+01  0.19927197269E+01  0.80523371840E+02  0.12278257867E+03  0.92635304639E+02 0.  0.
        -11    1    1    2    0    0 -0.68888551978E+02  0.80721458686E+01  0.56610237890E+02  0.89529387167E+02  0.00000000000E+00 0.  1.
         11    1    1    2    0    0  0.66383035025E+02 -0.10064865595E+02 -0.13713360973E+03  0.15268803416E+03  0.00000000000E+00 0. -1.
        -15    1    3    3    0    0  0.20290253390E+02  0.33782989842E+02  0.76524499745E+02  0.86093795221E+02  0.17770000000E+01 0.  1.
         15    1    3    3    0    0 -0.17784736436E+02 -0.31790270115E+02  0.39988720950E+01  0.36688783451E+02  0.17770000000E+01 0. -1.
</event>
<event>
 7    1  0.2809211E-007  0.1907381E+03  0.7546771E-02  0.1062080E+00
        -11   -1    0    0    0    0  0.00000000000E+00  0.00000000000E+00  0.18250000000E+03  0.18250000000E+03  0.00000000000E+00 0. -1.
         11   -1    0    0    0    0 -0.00000000000E+00 -0.00000000000E+00 -0.18250000000E+03  0.18250000000E+03  0.00000000000E+00 0. -1.
         23    2    1    2    0    0  0.14101636783E+02  0.40968183461E+02  0.16299320760E+03  0.19073805796E+03  0.89089689722E+02 0.  0.
        -11    1    1    2    0    0  0.13226542625E+02 -0.28734523040E+02 -0.87988139839E+02  0.93501481253E+02  0.00000000000E+00 0. -1.
         11    1    1    2    0    0 -0.27328179408E+02 -0.12233660420E+02 -0.75005067760E+02  0.80760460788E+02  0.00000000000E+00 0. -1.
        -15    1    3    3    0    0  0.30680018305E+02  0.34991518206E+02  0.16631925452E+03  0.17271630503E+03  0.17770000000E+01 0. -1.
         15    1    3    3    0    0 -0.16578381522E+02  0.59766652545E+01 -0.33260469242E+01  0.18021752928E+02  0.17770000000E+01 0.  1.
</event>
<event>
 7    1  0.2809211E-007  0.2151373E+03  0.7546771E-02  0.1045087E+00
        -11   -1    0    0    0    0  0.00000000000E+00  0.00000000000E+00  0.18250000000E+03  0.18250000000E+03  0.00000000000E+00 0.  1.
         11   -1    0    0    0    0 -0.00000000000E+00 -0.00000000000E+00 -0.18250000000E+03  0.18250000000E+03  0.00000000000E+00 0. -1.
         23    2    1    2    0    0  0.10456444498E+02  0.12275010846E+02  0.46506306452E+02  0.10884695077E+03  0.97081455636E+02 0.  0.
        -11    1    1    2    0    0 -0.38220717276E+02  0.27849171821E+02  0.95190589738E+02  0.10629039456E+03  0.00000000000E+00 0.  1.
         11    1    1    2    0    0  0.27764272778E+02 -0.40124182667E+02 -0.14169689619E+03  0.14986265468E+03  0.00000000000E+00 0. -1.
        -15    1    3    3    0    0 -0.29647596757E+02  0.34478047707E+02  0.29720762598E+01  0.45603801743E+02  0.17770000000E+01 0.  1.
         15    1    3    3    0    0  0.40104041255E+02 -0.22203036861E+02  0.43534230192E+02  0.63243149022E+02  0.17770000000E+01 0. -1.
</event>
<event>
 7    1  0.2809211E-007  0.1709349E+03  0.7546771E-02  0.1078052E+00
        -11   -1    0    0    0    0  0.00000000000E+00  0.00000000000E+00  0.18250000000E+03  0.18250000000E+03  0.00000000000E+00 0. -1.
         11   -1    0    0    0    0 -0.00000000000E+00 -0.00000000000E+00 -0.18250000000E+03  0.18250000000E+03  0.00000000000E+00 0.  1.
         23    2    1    2    0    0 -0.40540847863E+02 -0.24497676491E+02  0.15240325503E+03  0.18404534304E+03  0.91663731389E+02 0.  0.
        -11    1    1    2    0    0  0.54663498116E+01 -0.30364982272E+02 -0.34643466091E+02  0.46390547221E+02  0.00000000000E+00 0. -1.
         11    1    1    2    0    0  0.35074498052E+02  0.54862658763E+02 -0.11775978894E+03  0.13456410974E+03  0.00000000000E+00 0.  1.
        -15    1    3    3    0    0  0.27261652071E+02  0.69644042526E+01  0.36539047824E+02  0.46151493422E+02  0.17770000000E+01 0.  1.
         15    1    3    3    0    0 -0.67802499934E+02 -0.31462080744E+02  0.11586420720E+03  0.13789384962E+03  0.17770000000E+01 0. -1.
</event>
<event>
 7    1  0.2809211E-007  0.1905042E+03  0.7546771E-02  0.1062256E+00
        -11   -1    0    0    0    0  0.00000000000E+00  0.00000000000E+00  0.18250000000E+03  0.18250000000E+03  0.00000000000E+00 0.  1.
         11   -1    0    0    0    0 -0.00000000000E+00 -0.00000000000E+00 -0.18250000000E+03  0.18250000000E+03  0.00000000000E+00 0.  1.
         23    2    1    2    0    0  0.30378331221E+02 -0.27194911657E+02  0.16030854724E+03  0.19050419415E+03  0.94501912362E+02 0.  0.
        -11    1    1    2    0    0 -0.11246914456E+02 -0.12781420185E+02 -0.15383316044E+02  0.22945679315E+02  0.00000000000E+00 0.  1.
         11    1    1    2    0    0 -0.19131416765E+02  0.39976331842E+02 -0.14492523120E+03  0.15155012654E+03  0.00000000000E+00 0.  1.
        -15    1    3    3    0    0  0.55782968117E+02 -0.29584367353E+02  0.15030504958E+03  0.16303907502E+03  0.17770000000E+01 0.  1.
         15    1    3    3    0    0 -0.25404636897E+02  0.23894556961E+01  0.10003497665E+02  0.27465119132E+02  0.17770000000E+01 0. -1.
</event>
<event>
 7    1  0.2809211E-007  0.1346339E+03  0.7546771E-02  0.1114593E+00
        -11   -1    0    0    0    0  0.00000000000E+00  0.00000000000E+00  0.18250000000E+03  0.18250000000E+03  0.00000000000E+00 0.  1.
         11   -1    0    0    0    0 -0.00000000000E+00 -0.00000000000E+00 -0.18250000000E+03  0.18250000000E+03  0.00000000000E+00 0. -1.
         23    2    1    2    0    0  0.23702526575E+02 -0.74618258561E+02  0.53307277323E+02  0.13181901536E+03  0.91678201973E+02 0.  0.
        -11    1    1    2    0    0 -0.82974530977E+02  0.86493743774E+02  0.36170947239E+02  0.12519695654E+03  0.00000000000E+00 0.  1.
         11    1    1    2    0    0  0.59272004401E+02 -0.11875485213E+02 -0.89478224562E+02  0.10798402810E+03  0.00000000000E+00 0. -1.
        -15    1    3    3    0    0  0.14162786820E+02 -0.81655313972E+02  0.61044449729E+01  0.83117969224E+02  0.17770000000E+01 0.  1.
         15    1    3    3    0    0  0.95397397557E+01  0.70370554113E+01  0.47202832350E+02  0.48701046132E+02  0.17770000000E+01 0. -1.
</event>
<event>
 7    1  0.2809211E-007  0.1275829E+03  0.7546771E-02  0.1123179E+00
        -11   -1    0    0    0    0  0.00000000000E+00  0.00000000000E+00  0.18250000000E+03  0.18250000000E+03  0.00000000000E+00 0.  1.
         11   -1    0    0    0    0 -0.00000000000E+00 -0.00000000000E+00 -0.18250000000E+03  0.18250000000E+03  0.00000000000E+00 0. -1.
         23    2    1    2    0    0 -0.46152686138E+02 -0.15515794372E+02  0.19245739990E+02  0.10451810862E+03  0.90458975280E+02 0.  0.
        -11    1    1    2    0    0  0.45429826240E+02 -0.68801531281E+02  0.90277435915E+02  0.12226011310E+03  0.00000000000E+00 0.  1.
         11    1    1    2    0    0  0.72285989806E+00  0.84317325653E+02 -0.10952317591E+03  0.13822177828E+03  0.00000000000E+00 0. -1.
        -15    1    3    3    0    0  0.34047327575E+01  0.21983838062E+02  0.33952948046E+02  0.40630551942E+02  0.17770000000E+01 0. -1.
         15    1    3    3    0    0 -0.49557418896E+02 -0.37499632434E+02 -0.14707208056E+02  0.63887556677E+02  0.17770000000E+01 0.  1.
</event>
<event>
 7    1  0.2809211E-007  0.1715317E+03  0.7546771E-02  0.1077537E+00
        -11   -1    0    0    0    0  0.00000000000E+00  0.00000000000E+00  0.18250000000E+03  0.18250000000E+03  0.00000000000E+00 0.  1.
         11   -1    0    0    0    0 -0.00000000000E+00 -0.00000000000E+00 -0.18250000000E+03  0.18250000000E+03  0.00000000000E+00 0. -1.
         23    2    1    2    0    0 -0.98408285298E+02  0.65526728483E+02 -0.83214206366E+02  0.17051551091E+03  0.90404604742E+02 0.  0.
        -11    1    1    2    0    0  0.65372632905E+02 -0.76678812975E+02  0.11098972310E+03  0.14990643791E+03  0.00000000000E+00 0.  1.
         11    1    1    2    0    0  0.33035652394E+02  0.11152084492E+02 -0.27775516733E+02  0.44578051184E+02  0.00000000000E+00 0. -1.
        -15    1    3    3    0    0 -0.11268500779E+03  0.65117885288E+02 -0.60282342141E+02  0.14344116727E+03  0.17770000000E+01 0. -1.
         15    1    3    3    0    0  0.14276722488E+02  0.40884319434E+00 -0.22931864225E+02  0.27074343641E+02  0.17770000000E+01 0.  1.
</event>
<event>
 7    1  0.2809211E-007  0.1852219E+03  0.7546771E-02  0.1066309E+00
        -11   -1    0    0    0    0  0.00000000000E+00  0.00000000000E+00  0.18250000000E+03  0.18250000000E+03  0.00000000000E+00 0.  1.
         11   -1    0    0    0    0 -0.00000000000E+00 -0.00000000000E+00 -0.18250000000E+03  0.18250000000E+03  0.00000000000E+00 0.  1.
         23    2    1    2    0    0 -0.52870243433E+02 -0.71564861110E+02  0.13506961525E+03  0.18522186772E+03  0.90258225846E+02 0.  0.
        -11    1    1    2    0    0  0.25226561674E+02  0.78214359164E+02 -0.67079918589E+02  0.10608289622E+03  0.00000000000E+00 0.  1.
         11    1    1    2    0    0  0.27643681760E+02 -0.66494980542E+01 -0.67989696658E+02  0.73695236055E+02  0.00000000000E+00 0.  1.
        -15    1    3    3    0    0 -0.20029343687E+02 -0.58141134840E+02  0.13644443981E+03  0.14967233897E+03  0.17770000000E+01 0.  1.
         15    1    3    3    0    0 -0.32840899746E+02 -0.13423726270E+02 -0.13748245586E+01  0.35549528755E+02  0.17770000000E+01 0. -1.
</event>
<event>
 7    1  0.2809211E-007  0.1620172E+03  0.7546771E-02  0.1086039E+00
        -11   -1    0    0    0    0  0.00000000000E+00  0.00000000000E+00  0.18250000000E+03  0.18250000000E+03  0.00000000000E+00 0.  1.
         11   -1    0    0    0    0 -0.00000000000E+00 -0.00000000000E+00 -0.18250000000E+03  0.18250000000E+03  0.00000000000E+00 0. -1.
         23    2    1    2    0    0  0.10705272916E+02  0.51648366059E+02  0.91327787757E+02  0.13990475066E+03  0.91926154370E+02 0.  0.
        -11    1    1    2    0    0  0.38932554555E+02  0.23888373924E+02  0.43300753459E+02  0.62939283941E+02  0.00000000000E+00 0.  1.
         11    1    1    2    0    0 -0.49637827471E+02 -0.75536739982E+02 -0.13462854122E+03  0.16215596539E+03  0.00000000000E+00 0. -1.
        -15    1    3    3    0    0 -0.95596239490E+01  0.65160956722E+02  0.27186105518E+02  0.71271163546E+02  0.17770000000E+01 0. -1.
         15    1    3    3    0    0  0.20264896865E+02 -0.13512590663E+02  0.64141682238E+02  0.68633587118E+02  0.17770000000E+01 0.  1.
</event>
<event>
 7    1  0.2809211E-007  0.1477223E+03  0.7546771E-02  0.1100096E+00
        -11   -1    0    0    0    0  0.00000000000E+00  0.00000000000E+00  0.18250000000E+03  0.18250000000E+03  0.00000000000E+00 0. -1.
         11   -1    0    0    0    0 -0.00000000000E+00 -0.00000000000E+00 -0.18250000000E+03  0.18250000000E+03  0.00000000000E+00 0.  1.
         23    2    1    2    0    0  0.74544734535E+02 -0.97061081232E+01 -0.98078257364E+01  0.12323532038E+03  0.97157731352E+02 0.  0.
        -11    1    1    2    0    0  0.54603644804E+02 -0.66737425524E+02  0.27833023199E+02  0.90609707934E+02  0.00000000000E+00 0. -1.
         11    1    1    2    0    0 -0.12914837934E+03  0.76443533647E+02 -0.18025197462E+02  0.15115497169E+03  0.00000000000E+00 0.  1.
        -15    1    3    3    0    0  0.60951975219E+01  0.11721465913E+02  0.35812239857E+02  0.38212804772E+02  0.17770000000E+01 0. -1.
         15    1    3    3    0    0  0.68449537013E+02 -0.21427574036E+02 -0.45620065593E+02  0.85022515607E+02  0.17770000000E+01 0.  1.
</event>
<event>
 7    1  0.2809211E-007  0.1571568E+03  0.7546771E-02  0.1090634E+00
        -11   -1    0    0    0    0  0.00000000000E+00  0.00000000000E+00  0.18250000000E+03  0.18250000000E+03  0.00000000000E+00 0.  1.
         11   -1    0    0    0    0 -0.00000000000E+00 -0.00000000000E+00 -0.18250000000E+03  0.18250000000E+03  0.00000000000E+00 0. -1.
         23    2    1    2    0    0 -0.20224918997E+01 -0.12572710366E+02  0.10738302238E+03  0.14173301230E+03  0.91624067585E+02 0.  0.
        -11    1    1    2    0    0  0.38598602170E+02 -0.55199024496E+02  0.23559093199E+02  0.71356956684E+02  0.00000000000E+00 0.  1.
         11    1    1    2    0    0 -0.36576110270E+02  0.67771734862E+02 -0.13094211558E+03  0.15191003101E+03  0.00000000000E+00 0. -1.
        -15    1    3    3    0    0  0.18806536307E+02 -0.34874039679E+02  0.10360019394E+03  0.11093260281E+03  0.17770000000E+01 0.  1.
         15    1    3    3    0    0 -0.20829028206E+02  0.22301329313E+02  0.37828284410E+01  0.30800409497E+02  0.17770000000E+01 0. -1.
</event>
<event>
 7    1  0.2809211E-007  0.1686835E+03  0.7546771E-02  0.1080018E+00
        -11   -1    0    0    0    0  0.00000000000E+00  0.00000000000E+00  0.18250000000E+03  0.18250000000E+03  0.00000000000E+00 0.  1.
         11   -1    0    0    0    0 -0.00000000000E+00 -0.00000000000E+00 -0.18250000000E+03  0.18250000000E+03  0.00000000000E+00 0.  1.
         23    2    1    2    0    0  0.68097369248E+01 -0.47029434957E+01  0.11698133140E+03  0.14886937927E+03  0.91700436161E+02 0.  0.
        -11    1    1    2    0    0  0.12332450451E+02 -0.17426320644E+02  0.45910677837E+02  0.50631574385E+02  0.00000000000E+00 0.  1.
         11    1    1    2    0    0 -0.19142187376E+02  0.22129264139E+02 -0.16289200924E+03  0.16549904635E+03  0.00000000000E+00 0.  1.
        -15    1    3    3    0    0  0.20955605333E+02 -0.28032221015E+02  0.72541047948E+01  0.35787184512E+02  0.17770000000E+01 0. -1.
         15    1    3    3    0    0 -0.14145868408E+02  0.23329277520E+02  0.10972722661E+03  0.11308219475E+03  0.17770000000E+01 0.  1.
</event>
<event>
 7    1  0.2809211E-007  0.1537681E+03  0.7546771E-02  0.1093946E+00
        -11   -1    0    0    0    0  0.00000000000E+00  0.00000000000E+00  0.18250000000E+03  0.18250000000E+03  0.00000000000E+00 0. -1.
         11   -1    0    0    0    0 -0.00000000000E+00 -0.00000000000E+00 -0.18250000000E+03  0.18250000000E+03  0.00000000000E+00 0. -1.
         23    2    1    2    0    0 -0.12999938698E+02 -0.11962523290E+02  0.10519714861E+03  0.13957006197E+03  0.90007009461E+02 0.  0.
        -11    1    1    2    0    0 -0.66886835669E+02 -0.34773629595E+02  0.11743062788E+02  0.76295174321E+02  0.00000000000E+00 0. -1.
         11    1    1    2    0    0  0.79886774368E+02  0.46736152885E+02 -0.11694021140E+03  0.14913476371E+03  0.00000000000E+00 0. -1.
        -15    1    3    3    0    0  0.57833587500E+01  0.18636756208E+02  0.10156594855E+03  0.10343875267E+03  0.17770000000E+01 0.  1.
         15    1    3    3    0    0 -0.18783297448E+02 -0.30599279498E+02  0.36312000654E+01  0.36131309300E+02  0.17770000000E+01 0. -1.
</event>
<event>
 7    1  0.2809211E-007  0.1554193E+03  0.7546771E-02  0.1092321E+00
        -11   -1    0    0    0    0  0.00000000000E+00  0.00000000000E+00  0.18250000000E+03  0.18250000000E+03  0.00000000000E+00 0.  1.
         11   -1    0    0    0    0 -0.00000000000E+00 -0.00000000000E+00 -0.18250000000E+03  0.18250000000E+03  0.00000000000E+00 0. -1.
         23    2    1    2    0    0 -0.35899559398E+02  0.68408989605E+02 -0.80874623550E+02  0.14554048452E+03  0.93127652585E+02 0.  0.
        -11    1    1    2    0    0 -0.29503374936E+02 -0.10106823004E+03  0.98589614913E+02  0.14423989886E+03  0.00000000000E+00 0.  1.
         11    1    1    2    0    0  0.65402934334E+02  0.32659240432E+02 -0.17714991362E+02  0.75219616617E+02  0.00000000000E+00 0. -1.
        -15    1    3    3    0    0  0.29753462469E+01  0.24732512241E+02 -0.83328746757E+02  0.86990732910E+02  0.17770000000E+01 0. -1.
         15    1    3    3    0    0 -0.38874905645E+02  0.43676477364E+02  0.24541232073E+01  0.58549751610E+02  0.17770000000E+01 0.  1.
</event>
<event>
 7    1  0.2809211E-007  0.1663551E+03  0.7546771E-02  0.1082086E+00
        -11   -1    0    0    0    0  0.00000000000E+00  0.00000000000E+00  0.18250000000E+03  0.18250000000E+03  0.00000000000E+00 0. -1.
         11   -1    0    0    0    0 -0.00000000000E+00 -0.00000000000E+00 -0.18250000000E+03  0.18250000000E+03  0.00000000000E+00 0.  1.
         23    2    1    2    0    0  0.97132494940E+01  0.88057745747E+02 -0.89219829101E+02  0.15573816251E+03  0.91900400193E+02 0.  0.
        -11    1    1    2    0    0  0.10688763963E+02 -0.69928644813E+02  0.13702852135E+03  0.15421115622E+03  0.00000000000E+00 0. -1.
         11    1    1    2    0    0 -0.20402013457E+02 -0.18129100934E+02 -0.47808692246E+02  0.55050681268E+02  0.00000000000E+00 0.  1.
        -15    1    3    3    0    0 -0.15955622634E+02  0.46220123882E+02  0.53034060130E+01  0.49215501517E+02  0.17770000000E+01 0. -1.
         15    1    3    3    0    0  0.25668872128E+02  0.41837621866E+02 -0.94523235114E+02  0.10652266099E+03  0.17770000000E+01 0.  1.
</event>
<event>
 7    1  0.2809211E-007  0.1582771E+03  0.7546771E-02  0.1089559E+00
        -11   -1    0    0    0    0  0.00000000000E+00  0.00000000000E+00  0.18250000000E+03  0.18250000000E+03  0.00000000000E+00 0.  1.
         11   -1    0    0    0    0 -0.00000000000E+00 -0.00000000000E+00 -0.18250000000E+03  0.18250000000E+03  0.00000000000E+00 0. -1.
         23    2    1    2    0    0 -0.71190688242E+02 -0.40847183144E+02 -0.47451432567E+02  0.13890013632E+03  0.10151356044E+03 0.  0.
        -11    1    1    2    0    0  0.13999064186E+03  0.11102249878E+02  0.54891186213E+02  0.15077692822E+03  0.00000000000E+00 0.  1.
         11    1    1    2    0    0 -0.68799953614E+02  0.29744933266E+02 -0.74397536465E+01  0.75322935462E+02  0.00000000000E+00 0. -1.
        -15    1    3    3    0    0 -0.69207669653E+02 -0.45471529764E+02  0.79806176359E+01  0.83211835365E+02  0.17770000000E+01 0.  1.
         15    1    3    3    0    0 -0.19830185884E+01  0.46243466201E+01 -0.55432050203E+02  0.55688300953E+02  0.17770000000E+01 0. -1.
</event>
<event>
 7    1  0.2809211E-007  0.1848286E+03  0.7546771E-02  0.1066616E+00
        -11   -1    0    0    0    0  0.00000000000E+00  0.00000000000E+00  0.18250000000E+03  0.18250000000E+03  0.00000000000E+00 0.  1.
         11   -1    0    0    0    0 -0.00000000000E+00 -0.00000000000E+00 -0.18250000000E+03  0.18250000000E+03  0.00000000000E+00 0. -1.
         23    2    1    2    0    0  0.10376422490E+03  0.20463126394E+02  0.12842222340E+03  0.18482861926E+03  0.80520786902E+02 0.  0.
        -11    1    1    2    0    0 -0.33179200319E+02 -0.45864664160E+01 -0.84233549729E+00  0.33505291180E+02  0.00000000000E+00 0.  1.
         11    1    1    2    0    0 -0.70585024582E+02 -0.15876659978E+02 -0.12757988791E+03  0.14666608956E+03  0.00000000000E+00 0. -1.
        -15    1    3    3    0    0  0.94181595769E+02  0.13974658673E+02  0.13937115973E+03  0.16879852475E+03  0.17770000000E+01 0.  1.
         15    1    3    3    0    0  0.95826291325E+01  0.64884677212E+01 -0.10948936321E+02  0.16030094510E+02  0.17770000000E+01 0. -1.
</event>
<event>
 7    1  0.2809211E-007  0.1546816E+03  0.7546771E-02  0.1093044E+00
        -11   -1    0    0    0    0  0.00000000000E+00  0.00000000000E+00  0.18250000000E+03  0.18250000000E+03  0.00000000000E+00 0.  1.
         11   -1    0    0    0    0 -0.00000000000E+00 -0.00000000000E+00 -0.18250000000E+03  0.18250000000E+03  0.00000000000E+00 0. -1.
         23    2    1    2    0    0 -0.58026535666E+01 -0.56717521014E+02  0.78376103047E+02  0.13391795158E+03  0.92415671006E+02 0.  0.
        -11    1    1    2    0    0  0.31370453183E+02  0.12931560262E+02  0.68096294432E+02  0.76081771135E+02  0.00000000000E+00 0.  1.
         11    1    1    2    0    0 -0.25567799617E+02  0.43785960753E+02 -0.14647239748E+03  0.15500027729E+03  0.00000000000E+00 0. -1.
        -15    1    3    3    0    0 -0.19124170960E+00  0.16615208055E+02 -0.95707202191E+01  0.19257677082E+02  0.17770000000E+01 0. -1.
         15    1    3    3    0    0 -0.56114118570E+01 -0.73332729069E+02  0.87946823266E+02  0.11466027450E+03  0.17770000000E+01 0.  1.
</event>
<event>
 7    1  0.2809211E-007  0.1654834E+03  0.7546771E-02  0.1082869E+00
        -11   -1    0    0    0    0  0.00000000000E+00  0.00000000000E+00  0.18250000000E+03  0.18250000000E+03  0.00000000000E+00 0.  1.
         11   -1    0    0    0    0 -0.00000000000E+00 -0.00000000000E+00 -0.18250000000E+03  0.18250000000E+03  0.00000000000E+00 0. -1.
         23    2    1    2    0    0  0.23215791581E+02 -0.10091868312E+03 -0.59606888308E+02  0.14963683959E+03  0.90081346826E+02 0.  0.
        -11    1    1    2    0    0 -0.24285820179E+01  0.11703033377E+03  0.10865296860E+03  0.15971056515E+03  0.00000000000E+00 0.  1.
         11    1    1    2    0    0 -0.20787209563E+02 -0.16111650651E+02 -0.49046080292E+02  0.55652595268E+02  0.00000000000E+00 0. -1.
        -15    1    3    3    0    0  0.16275178267E+02 -0.11698611727E+03 -0.58983279741E+02  0.13203339759E+03  0.17770000000E+01 0. -1.
         15    1    3    3    0    0  0.69406133141E+01  0.16067434151E+02 -0.62360856692E+00  0.17603441993E+02  0.17770000000E+01 0.  1.
</event>
<event>
 7    1  0.2809211E-007  0.1460398E+03  0.7546771E-02  0.1101865E+00
        -11   -1    0    0    0    0  0.00000000000E+00  0.00000000000E+00  0.18250000000E+03  0.18250000000E+03  0.00000000000E+00 0. -1.
         11   -1    0    0    0    0 -0.00000000000E+00 -0.00000000000E+00 -0.18250000000E+03  0.18250000000E+03  0.00000000000E+00 0.  1.
         23    2    1    2    0    0  0.41861425430E+02 -0.91051486931E+02 -0.43710619923E+02  0.14219513289E+03  0.90918014238E+02 0.  0.
        -11    1    1    2    0    0 -0.39127304392E+02  0.43416982374E+02  0.11962617344E+03  0.13314053357E+03  0.00000000000E+00 0. -1.
         11    1    1    2    0    0 -0.27341210383E+01  0.47634504557E+02 -0.75915553519E+02  0.89664333535E+02  0.00000000000E+00 0.  1.
        -15    1    3    3    0    0 -0.15121905400E+02  0.10573947976E+02 -0.90249443802E+01  0.20617656239E+02  0.17770000000E+01 0.  1.
         15    1    3    3    0    0  0.56983330830E+02 -0.10162543491E+03 -0.34685675543E+02  0.12157747665E+03  0.17770000000E+01 0. -1.
</event>
<event>
 7    1  0.2809211E-007  0.1736836E+03  0.7546771E-02  0.1075698E+00
        -11   -1    0    0    0    0  0.00000000000E+00  0.00000000000E+00  0.18250000000E+03  0.18250000000E+03  0.00000000000E+00 0.  1.
         11   -1    0    0    0    0 -0.00000000000E+00 -0.00000000000E+00 -0.18250000000E+03  0.18250000000E+03  0.00000000000E+00 0. -1.
         23    2    1    2    0    0 -0.50911507962E+02  0.78705369992E+02  0.10039325255E+03  0.17353117987E+03  0.10605540213E+03 0.  0.
        -11    1    1    2    0    0  0.30945188321E+02 -0.25646884054E+02  0.29425293764E+02  0.49811798351E+02  0.00000000000E+00 0.  1.
         11    1    1    2    0    0  0.19966319641E+02 -0.53058485938E+02 -0.12981854632E+03  0.14165702177E+03  0.00000000000E+00 0. -1.
        -15    1    3    3    0    0 -0.46584352431E+01  0.40692788645E+01 -0.21981209622E+02  0.22903959370E+02  0.17770000000E+01 0. -1.
         15    1    3    3    0    0 -0.46253072719E+02  0.74636091128E+02  0.12237446218E+03  0.15062722050E+03  0.17770000000E+01 0.  1.
</event>
<event>
 7    1  0.2809211E-007  0.1532130E+03  0.7546771E-02  0.1094498E+00
        -11   -1    0    0    0    0  0.00000000000E+00  0.00000000000E+00  0.18250000000E+03  0.18250000000E+03  0.00000000000E+00 0. -1.
         11   -1    0    0    0    0 -0.00000000000E+00 -0.00000000000E+00 -0.18250000000E+03  0.18250000000E+03  0.00000000000E+00 0.  1.
         23    2    1    2    0    0  0.67383920019E+02 -0.14844344093E+01 -0.62457725629E+02  0.13003315647E+03  0.92004663300E+02 0.  0.
        -11    1    1    2    0    0 -0.10291104969E+03  0.58798692228E+02  0.10236591956E+03  0.15661019074E+03  0.00000000000E+00 0. -1.
         11    1    1    2    0    0  0.35527129675E+02 -0.57314257819E+02 -0.39908193934E+02  0.78356652783E+02  0.00000000000E+00 0.  1.
        -15    1    3    3    0    0 -0.17917362685E+02 -0.21214714094E+01 -0.36657063691E+02  0.40895361277E+02  0.17770000000E+01 0.  1.
         15    1    3    3    0    0  0.85301282704E+02  0.63703700016E+00 -0.25800661938E+02  0.89137795196E+02  0.17770000000E+01 0. -1.
</event>
<event>
 7    1  0.2809211E-007  0.2186760E+03  0.7546771E-02  0.1042827E+00
        -11   -1    0    0    0    0  0.00000000000E+00  0.00000000000E+00  0.18250000000E+03  0.18250000000E+03  0.00000000000E+00 0. -1.
         11   -1    0    0    0    0 -0.00000000000E+00 -0.00000000000E+00 -0.18250000000E+03  0.18250000000E+03  0.00000000000E+00 0.  1.
         23    2    1    2    0    0  0.90545099255E+01  0.38483675813E+01  0.40140532088E+02  0.10138586279E+03  0.92579894010E+02 0.  0.
        -11    1    1    2    0    0  0.61308581410E+02 -0.73934331664E+02  0.67319733695E+02  0.11729012788E+03  0.00000000000E+00 0. -1.
         11    1    1    2    0    0 -0.70363091335E+02  0.70085964082E+02 -0.10746026578E+03  0.14632400933E+03  0.00000000000E+00 0.  1.
        -15    1    3    3    0    0 -0.83640275969E+01 -0.20975785043E+02  0.60643945375E+02  0.64736283145E+02  0.17770000000E+01 0. -1.
         15    1    3    3    0    0  0.17418537522E+02  0.24824152624E+02 -0.20503413287E+02  0.36649579647E+02  0.17770000000E+01 0.  1.
</event>
<event>
 7    1  0.2809211E-007  0.1454280E+03  0.7546771E-02  0.1102515E+00
        -11   -1    0    0    0    0  0.00000000000E+00  0.00000000000E+00  0.18250000000E+03  0.18250000000E+03  0.00000000000E+00 0.  1.
         11   -1    0    0    0    0 -0.00000000000E+00 -0.00000000000E+00 -0.18250000000E+03  0.18250000000E+03  0.00000000000E+00 0. -1.
         23    2    1    2    0    0 -0.74374169315E+02 -0.52587256711E+02  0.86860281980E+02  0.15399361049E+03  0.88726472133E+02 0.  0.
        -11    1    1    2    0    0  0.78080285523E+02  0.92915206541E+02 -0.71240506106E+01  0.12157515655E+03  0.00000000000E+00 0.  1.
         11    1    1    2    0    0 -0.37061162083E+01 -0.40327949830E+02 -0.79736231369E+02  0.89431232954E+02  0.00000000000E+00 0. -1.
        -15    1    3    3    0    0  0.18281543856E+02 -0.23805407921E+02  0.22429394164E+02  0.37511968005E+02  0.17770000000E+01 0. -1.
         15    1    3    3    0    0 -0.92655713170E+02 -0.28781848790E+02  0.64430887815E+02  0.11648164249E+03  0.17770000000E+01 0.  1.
</event>
<event>
 7    1  0.2809211E-007  0.1371013E+03  0.7546771E-02  0.1111724E+00
        -11   -1    0    0    0    0  0.00000000000E+00  0.00000000000E+00  0.18250000000E+03  0.18250000000E+03  0.00000000000E+00 0. -1.
         11   -1    0    0    0    0 -0.00000000000E+00 -0.00000000000E+00 -0.18250000000E+03  0.18250000000E+03  0.00000000000E+00 0. -1.
         23    2    1    2    0    0  0.43831640128E+01 -0.69222036872E+01  0.73594643993E+02  0.11713116602E+03  0.90754665979E+02 0.  0.
        -11    1    1    2    0    0 -0.47022378997E+02  0.82558882424E+02  0.41514285594E+02  0.10368466185E+03  0.00000000000E+00 0. -1.
         11    1    1    2    0    0  0.42639214984E+02 -0.75636678737E+02 -0.11510892959E+03  0.14418417214E+03  0.00000000000E+00 0. -1.
        -15    1    3    3    0    0 -0.12319461918E+02  0.76194247116E+01  0.88940259694E+02  0.90129641619E+02  0.17770000000E+01 0.  1.
         15    1    3    3    0    0  0.16702625931E+02 -0.14541628399E+02 -0.15345615701E+02  0.27001524396E+02  0.17770000000E+01 0. -1.
</event>
<event>
 7    1  0.2809211E-007  0.1542462E+03  0.7546771E-02  0.1093473E+00
        -11   -1    0    0    0    0  0.00000000000E+00  0.00000000000E+00  0.18250000000E+03  0.18250000000E+03  0.00000000000E+00 0. -1.
         11   -1    0    0    0    0 -0.00000000000E+00 -0.00000000000E+00 -0.18250000000E+03  0.18250000000E+03  0.00000000000E+00 0.  1.
         23    2    1    2    0    0  0.10613102915E+03  0.64870043836E+01  0.49863685403E+02  0.14985126964E+03  0.93075986786E+02 0.  0.
        -11    1    1    2    0    0 -0.24490091222E+02  0.63409005782E+02  0.36609399091E+02  0.77205664845E+02  0.00000000000E+00 0. -1.
         11    1    1    2    0    0 -0.81640937925E+02 -0.69896010166E+02 -0.86473084494E+02  0.13794306552E+03  0.00000000000E+00 0.  1.
        -15    1    3    3    0    0  0.23594284652E+02  0.36351961919E+02 -0.88073087044E+01  0.44259256876E+02  0.17770000000E+01 0.  1.
         15    1    3    3    0    0  0.82536744495E+02 -0.29864957535E+02  0.58670994108E+02  0.10559201276E+03  0.17770000000E+01 0. -1.
</event>
<event>
 7    1  0.2809211E-007  0.1595363E+03  0.7546771E-02  0.1088362E+00
        -11   -1    0    0    0    0  0.00000000000E+00  0.00000000000E+00  0.18250000000E+03  0.18250000000E+03  0.00000000000E+00 0.  1.
         11   -1    0    0    0    0 -0.00000000000E+00 -0.00000000000E+00 -0.18250000000E+03  0.18250000000E+03  0.00000000000E+00 0. -1.
         23    2    1    2    0    0 -0.59828959844E+02 -0.12353999863E+01  0.99393732058E+02  0.14376576425E+03  0.84902593304E+02 0.  0.
        -11    1    1    2    0    0  0.29201378207E+02 -0.15612966152E+02  0.54308386134E+02  0.63607279502E+02  0.00000000000E+00 0.  1.
         11    1    1    2    0    0  0.30627581637E+02  0.16848366138E+02 -0.15370211819E+03  0.15762695624E+03  0.00000000000E+00 0. -1.
        -15    1    3    3    0    0 -0.41176314542E+02  0.15125550777E+02  0.10868119736E+03  0.11721361505E+03  0.17770000000E+01 0.  1.
         15    1    3    3    0    0 -0.18652645301E+02 -0.16360950763E+02 -0.92874652977E+01  0.26552149202E+02  0.17770000000E+01 0. -1.
</event>
<event>
 7    1  0.2809211E-007  0.1369600E+03  0.7546771E-02  0.1111887E+00
        -11   -1    0    0    0    0  0.00000000000E+00  0.00000000000E+00  0.18250000000E+03  0.18250000000E+03  0.00000000000E+00 0. -1.
         11   -1    0    0    0    0 -0.00000000000E+00 -0.00000000000E+00 -0.18250000000E+03  0.18250000000E+03  0.00000000000E+00 0. -1.
         23    2    1    2    0    0 -0.52485006345E+02 -0.57569675864E+02  0.30259131358E+02  0.12342258067E+03  0.90821665466E+02 0.  0.
        -11    1    1    2    0    0  0.59331384158E+02  0.10877335283E+03  0.59934455536E+02  0.13763718390E+03  0.00000000000E+00 0. -1.
         11    1    1    2    0    0 -0.68463778128E+01 -0.51203676968E+02 -0.90193586894E+02  0.10394023543E+03  0.00000000000E+00 0. -1.
        -15    1    3    3    0    0 -0.75036651790E+02 -0.25409673527E+02  0.27981972488E+02  0.84037486480E+02  0.17770000000E+01 0.  1.
         15    1    3    3    0    0  0.22551645445E+02 -0.32160002337E+02  0.22771588699E+01  0.39385094187E+02  0.17770000000E+01 0. -1.
</event>
<event>
 7    1  0.2809211E-007  0.1777272E+03  0.7546771E-02  0.1072319E+00
        -11   -1    0    0    0    0  0.00000000000E+00  0.00000000000E+00  0.18250000000E+03  0.18250000000E+03  0.00000000000E+00 0. -1.
         11   -1    0    0    0    0 -0.00000000000E+00 -0.00000000000E+00 -0.18250000000E+03  0.18250000000E+03  0.00000000000E+00 0. -1.
         23    2    1    2    0    0  0.52495698279E+02 -0.14620004991E+02  0.13418267004E+03  0.17439778115E+03  0.97159941587E+02 0.  0.
        -11    1    1    2    0    0 -0.13619011635E+02  0.30685613963E+02  0.14141128409E+02  0.36428778389E+02  0.00000000000E+00 0. -1.
         11    1    1    2    0    0 -0.38876686644E+02 -0.16065608972E+02 -0.14832379845E+03  0.15417344046E+03  0.00000000000E+00 0. -1.
        -15    1    3    3    0    0  0.63291822495E+02 -0.11806076446E+02  0.32599102865E+02  0.72187931626E+02  0.17770000000E+01 0. -1.
         15    1    3    3    0    0 -0.10796124216E+02 -0.28139285449E+01  0.10158356717E+03  0.10220984953E+03  0.17770000000E+01 0.  1.
</event>
<event>
 7    1  0.2809211E-007  0.1930411E+03  0.7546771E-02  0.1060361E+00
        -11   -1    0    0    0    0  0.00000000000E+00  0.00000000000E+00  0.18250000000E+03  0.18250000000E+03  0.00000000000E+00 0.  1.
         11   -1    0    0    0    0 -0.00000000000E+00 -0.00000000000E+00 -0.18250000000E+03  0.18250000000E+03  0.00000000000E+00 0. -1.
         23    2    1    2    0    0 -0.76766817493E+02 -0.95782982188E+02  0.94164756490E+02  0.19739522621E+03  0.12259832797E+03 0.  0.
        -11    1    1    2    0    0  0.80255721407E+02  0.74017673384E+02 -0.96139912288E+02  0.14547329489E+03  0.00000000000E+00 0. -1.
         11    1    1    2    0    0 -0.34889039140E+01  0.21765308804E+02  0.19751557987E+01  0.22131478900E+02  0.00000000000E+00 0.  1.
        -15    1    3    3    0    0 -0.84344227486E+02 -0.83989557008E+01  0.35825679811E+02  0.92038732228E+02  0.17770000000E+01 0.  1.
         15    1    3    3    0    0  0.75774099938E+01 -0.87384026487E+02  0.58339076678E+02  0.10535649398E+03  0.17770000000E+01 0. -1.
</event>
<event>
 7    1  0.2809211E-007  0.1167021E+03  0.7546771E-02  0.1137709E+00
        -11   -1    0    0    0    0  0.00000000000E+00  0.00000000000E+00  0.18250000000E+03  0.18250000000E+03  0.00000000000E+00 0. -1.
         11   -1    0    0    0    0 -0.00000000000E+00 -0.00000000000E+00 -0.18250000000E+03  0.18250000000E+03  0.00000000000E+00 0. -1.
         23    2    1    2    0    0 -0.65348120761E+02  0.19453788837E+02  0.36553704849E+02  0.11910878185E+03  0.90564351642E+02 0.  0.
        -11    1    1    2    0    0  0.70958653712E+02 -0.53886892776E+02  0.82744819290E+02  0.12159618772E+03  0.00000000000E+00 0. -1.
         11    1    1    2    0    0 -0.56105329501E+01  0.34433103939E+02 -0.11929852414E+03  0.12429503043E+03  0.00000000000E+00 0. -1.
        -15    1    3    3    0    0  0.88195140043E+01  0.25033003547E+02 -0.13111309529E+02  0.29656352784E+02  0.17770000000E+01 0.  1.
         15    1    3    3    0    0 -0.74167634766E+02 -0.55792147102E+01  0.49665014379E+02  0.89452429066E+02  0.17770000000E+01 0. -1.
</event>
<event>
 7    1  0.2809211E-007  0.1916274E+03  0.7546771E-02  0.1061413E+00
        -11   -1    0    0    0    0  0.00000000000E+00  0.00000000000E+00  0.18250000000E+03  0.18250000000E+03  0.00000000000E+00 0.  1.
         11   -1    0    0    0    0 -0.00000000000E+00 -0.00000000000E+00 -0.18250000000E+03  0.18250000000E+03  0.00000000000E+00 0. -1.
         23    2    1    2    0    0 -0.86251090701E+02 -0.10891080790E+03  0.94490828251E+02  0.19162740665E+03  0.92150592138E+02 0.  0.
        -11    1    1    2    0    0  0.76410674650E+02  0.70468695585E+02 -0.55908694443E+02  0.11802631220E+03  0.00000000000E+00 0. -1.
         11    1    1    2    0    0  0.98404160514E+01  0.38442112318E+02 -0.38582133807E+02  0.55346281146E+02  0.00000000000E+00 0.  1.
        -15    1    3    3    0    0  0.41094683693E+01 -0.72960738912E+01  0.46707034056E+02  0.47484999566E+02  0.17770000000E+01 0. -1.
         15    1    3    3    0    0 -0.90360559070E+02 -0.10161473401E+03  0.47783794195E+02  0.14414240709E+03  0.17770000000E+01 0.  1.
</event>
<event>
 7    1  0.2809211E-007  0.1708867E+03  0.7546771E-02  0.1078094E+00
        -11   -1    0    0    0    0  0.00000000000E+00  0.00000000000E+00  0.18250000000E+03  0.18250000000E+03  0.00000000000E+00 0.  1.
         11   -1    0    0    0    0 -0.00000000000E+00 -0.00000000000E+00 -0.18250000000E+03  0.18250000000E+03  0.00000000000E+00 0. -1.
         23    2    1    2    0    0  0.32937939636E+02  0.10119262059E+03  0.12063119916E+03  0.18466232230E+03  0.90683144726E+02 0.  0.
        -11    1    1    2    0    0 -0.33435582959E+02 -0.60506574730E+00 -0.31508978753E+02  0.45946926496E+02  0.00000000000E+00 0.  1.
         11    1    1    2    0    0  0.49764332295E+00 -0.10058755484E+03 -0.89122220409E+02  0.13439075120E+03  0.00000000000E+00 0. -1.
        -15    1    3    3    0    0  0.37000965425E+02  0.44581073035E+02  0.11348355949E+03  0.12742927261E+03  0.17770000000E+01 0.  1.
         15    1    3    3    0    0 -0.40630257894E+01  0.56611547555E+02  0.71476396762E+01  0.57233049692E+02  0.17770000000E+01 0. -1.
</event>
<event>
 7    1  0.2809211E-007  0.1711146E+03  0.7546771E-02  0.1077897E+00
        -11   -1    0    0    0    0  0.00000000000E+00  0.00000000000E+00  0.18250000000E+03  0.18250000000E+03  0.00000000000E+00 0.  1.
         11   -1    0    0    0    0 -0.00000000000E+00 -0.00000000000E+00 -0.18250000000E+03  0.18250000000E+03  0.00000000000E+00 0. -1.
         23    2    1    2    0    0  0.57048603941E+02  0.15414810984E+02  0.55052712846E+02  0.14986603849E+03  0.12624131136E+03 0.  0.
        -11    1    1    2    0    0  0.36215528573E+02 -0.20959703353E+02  0.56064768002E+02  0.69958072340E+02  0.00000000000E+00 0.  1.
         11    1    1    2    0    0 -0.93264132514E+02  0.55448923682E+01 -0.11111748085E+03  0.14517588917E+03  0.00000000000E+00 0. -1.
        -15    1    3    3    0    0  0.16677201752E+02  0.17994329380E+02  0.91889345201E+02  0.95124836077E+02  0.17770000000E+01 0.  1.
         15    1    3    3    0    0  0.40371402189E+02 -0.25795183957E+01 -0.36836632355E+02  0.54741202418E+02  0.17770000000E+01 0. -1.
</event>
<event>
 7    1  0.2809211E-007  0.1488891E+03  0.7546771E-02  0.1098884E+00
        -11   -1    0    0    0    0  0.00000000000E+00  0.00000000000E+00  0.18250000000E+03  0.18250000000E+03  0.00000000000E+00 0.  1.
         11   -1    0    0    0    0 -0.00000000000E+00 -0.00000000000E+00 -0.18250000000E+03  0.18250000000E+03  0.00000000000E+00 0. -1.
         23    2    1    2    0    0 -0.13056379202E+02 -0.66987965961E+01  0.80220034932E+02  0.12148081981E+03  0.90038839744E+02 0.  0.
        -11    1    1    2    0    0 -0.32655000262E+02  0.35635859748E+02  0.69312129131E+02  0.84501093406E+02  0.00000000000E+00 0.  1.
         11    1    1    2    0    0  0.45711379464E+02 -0.28937063152E+02 -0.14953216406E+03  0.15901808679E+03  0.00000000000E+00 0. -1.
        -15    1    3    3    0    0  0.17132772386E+02  0.10448518765E+02 -0.11636900523E+02  0.23265395264E+02  0.17770000000E+01 0. -1.
         15    1    3    3    0    0 -0.30189151588E+02 -0.17147315361E+02  0.91856935455E+02  0.98215424542E+02  0.17770000000E+01 0.  1.
</event>
<event>
 7    1  0.2809211E-007  0.1432520E+03  0.7546771E-02  0.1104855E+00
        -11   -1    0    0    0    0  0.00000000000E+00  0.00000000000E+00  0.18250000000E+03  0.18250000000E+03  0.00000000000E+00 0.  1.
         11   -1    0    0    0    0 -0.00000000000E+00 -0.00000000000E+00 -0.18250000000E+03  0.18250000000E+03  0.00000000000E+00 0. -1.
         23    2    1    2    0    0 -0.58311453029E+02 -0.11660388918E+02  0.22426778009E+01  0.12119042559E+03  0.10557414185E+03 0.  0.
        -11    1    1    2    0    0  0.10705670746E+03  0.17475198905E+02  0.88925288637E+02  0.14026485001E+03  0.00000000000E+00 0.  1.
         11    1    1    2    0    0 -0.48745254436E+02 -0.58148099871E+01 -0.91167966438E+02  0.10354472439E+03  0.00000000000E+00 0. -1.
        -15    1    3    3    0    0 -0.80839021860E+02  0.91926619022E+01  0.22421358194E+02  0.84411655122E+02  0.17770000000E+01 0.  1.
         15    1    3    3    0    0  0.22527568832E+02 -0.20853050821E+02 -0.20178680393E+02  0.36778770472E+02  0.17770000000E+01 0. -1.
</event>
<event>
 7    1  0.2809211E-007  0.1351831E+03  0.7546771E-02  0.1113949E+00
        -11   -1    0    0    0    0  0.00000000000E+00  0.00000000000E+00  0.18250000000E+03  0.18250000000E+03  0.00000000000E+00 0.  1.
         11   -1    0    0    0    0 -0.00000000000E+00 -0.00000000000E+00 -0.18250000000E+03  0.18250000000E+03  0.00000000000E+00 0. -1.
         23    2    1    2    0    0  0.39192998820E+01 -0.10892893886E+02  0.15806198470E+02  0.93924925865E+02  0.91858803279E+02 0.  0.
        -11    1    1    2    0    0 -0.10907668448E+03 -0.75873082646E+02  0.60232130188E+01  0.13300649181E+03  0.00000000000E+00 0.  1.
         11    1    1    2    0    0  0.10515738460E+03  0.86765976532E+02 -0.21829411488E+02  0.13806858233E+03  0.00000000000E+00 0. -1.
        -15    1    3    3    0    0  0.13938612410E+02 -0.42853162734E+02  0.33333929265E+02  0.56080184035E+02  0.17770000000E+01 0.  1.
         15    1    3    3    0    0 -0.10019312528E+02  0.31960268847E+02 -0.17527730796E+02  0.37844741830E+02  0.17770000000E+01 0. -1.
</event>
<event>
 7    1  0.2809211E-007  0.1916654E+03  0.7546771E-02  0.1061385E+00
        -11   -1    0    0    0    0  0.00000000000E+00  0.00000000000E+00  0.18250000000E+03  0.18250000000E+03  0.00000000000E+00 0.  1.
         11   -1    0    0    0    0 -0.00000000000E+00 -0.00000000000E+00 -0.18250000000E+03  0.18250000000E+03  0.00000000000E+00 0.  1.
         23    2    1    2    0    0  0.38468941981E+02  0.20204153009E+02  0.16180087067E+03  0.19166536109E+03  0.93102210475E+02 0.  0.
        -11    1    1    2    0    0 -0.86992364599E+01 -0.12862278464E+02 -0.10002712756E+02  0.18470765679E+02  0.00000000000E+00 0.  1.
         11    1    1    2    0    0 -0.29769705521E+02 -0.73418745457E+01 -0.15179815791E+03  0.15486387324E+03  0.00000000000E+00 0.  1.
        -15    1    3    3    0    0  0.15133902132E+02 -0.23397743047E+01  0.15822517683E+03  0.15897444401E+03  0.17770000000E+01 0.  1.
         15    1    3    3    0    0  0.23335039849E+02  0.22543927314E+02  0.35756938359E+01  0.32690917070E+02  0.17770000000E+01 0. -1.
</event>
<event>
 7    1  0.2809211E-007  0.1865856E+03  0.7546771E-02  0.1065248E+00
        -11   -1    0    0    0    0  0.00000000000E+00  0.00000000000E+00  0.18250000000E+03  0.18250000000E+03  0.00000000000E+00 0.  1.
         11   -1    0    0    0    0 -0.00000000000E+00 -0.00000000000E+00 -0.18250000000E+03  0.18250000000E+03  0.00000000000E+00 0.  1.
         23    2    1    2    0    0  0.48356421820E+02  0.78973647253E+01  0.15906453761E+03  0.18975896737E+03  0.91138502696E+02 0.  0.
        -11    1    1    2    0    0 -0.10972098210E+02  0.96121888986E+01 -0.45100206728E+01  0.15268313627E+02  0.00000000000E+00 0.  1.
         11    1    1    2    0    0 -0.37384323611E+02 -0.17509553624E+02 -0.15455451693E+03  0.15997271900E+03  0.00000000000E+00 0.  1.
        -15    1    3    3    0    0 -0.38638657999E+01 -0.32606462878E+02  0.28943338743E+02  0.43806226349E+02  0.17770000000E+01 0.  1.
         15    1    3    3    0    0  0.52220287620E+02  0.40503827604E+02  0.13012119886E+03  0.14595274102E+03  0.17770000000E+01 0. -1.
</event>
<event>
 7    1  0.2809211E-007  0.1422422E+03  0.7546771E-02  0.1105956E+00
        -11   -1    0    0    0    0  0.00000000000E+00  0.00000000000E+00  0.18250000000E+03  0.18250000000E+03  0.00000000000E+00 0.  1.
         11   -1    0    0    0    0 -0.00000000000E+00 -0.00000000000E+00 -0.18250000000E+03  0.18250000000E+03  0.00000000000E+00 0. -1.
         23    2    1    2    0    0  0.59627461307E+02 -0.50251819879E+02 -0.69422410549E+02  0.13967131249E+03  0.92778903323E+02 0.  0.
        -11    1    1    2    0    0 -0.64238068204E+02 -0.40176556316E+02  0.10377006687E+03  0.12848701048E+03  0.00000000000E+00 0.  1.
         11    1    1    2    0    0  0.46106068965E+01  0.90428376195E+02 -0.34347656316E+02  0.96841677038E+02  0.00000000000E+00 0. -1.
        -15    1    3    3    0    0 -0.21592867246E+02  0.37134872597E+01 -0.43017966418E+01  0.22398774227E+02  0.17770000000E+01 0.  1.
         15    1    3    3    0    0  0.81220328553E+02 -0.53965307139E+02 -0.65120613907E+02  0.11727253826E+03  0.17770000000E+01 0. -1.
</event>
<event>
 7    1  0.2809211E-007  0.1887810E+03  0.7546771E-02  0.1063562E+00
        -11   -1    0    0    0    0  0.00000000000E+00  0.00000000000E+00  0.18250000000E+03  0.18250000000E+03  0.00000000000E+00 0. -1.
         11   -1    0    0    0    0 -0.00000000000E+00 -0.00000000000E+00 -0.18250000000E+03  0.18250000000E+03  0.00000000000E+00 0. -1.
         23    2    1    2    0    0  0.12339732051E+02  0.59440919221E+02  0.15360862097E+03  0.18878103641E+03  0.91417609941E+02 0.  0.
        -11    1    1    2    0    0  0.11884410539E+02  0.62256465220E+01 -0.45450367510E+02  0.47389173819E+02  0.00000000000E+00 0. -1.
         11    1    1    2    0    0 -0.24224142590E+02 -0.65666565743E+02 -0.10815825346E+03  0.12882978977E+03  0.00000000000E+00 0. -1.
        -15    1    3    3    0    0 -0.39439818121E+02  0.18171525199E+02  0.63371354899E+02  0.76842630956E+02  0.17770000000E+01 0.  1.
         15    1    3    3    0    0  0.51779550172E+02  0.41269394022E+02  0.90237266070E+02  0.11193840546E+03  0.17770000000E+01 0. -1.
</event>
<event>
 7    1  0.2809211E-007  0.1646570E+03  0.7546771E-02  0.1083617E+00
        -11   -1    0    0    0    0  0.00000000000E+00  0.00000000000E+00  0.18250000000E+03  0.18250000000E+03  0.00000000000E+00 0.  1.
         11   -1    0    0    0    0 -0.00000000000E+00 -0.00000000000E+00 -0.18250000000E+03  0.18250000000E+03  0.00000000000E+00 0.  1.
         23    2    1    2    0    0  0.64084006817E+02  0.21451642202E+02  0.12301338046E+03  0.16847042178E+03  0.93182929547E+02 0.  0.
        -11    1    1    2    0    0 -0.14540154135E+02  0.53812714584E+02 -0.18948862897E+02  0.58875153828E+02  0.00000000000E+00 0.  1.
         11    1    1    2    0    0 -0.49543852682E+02 -0.75264356786E+02 -0.10406451756E+03  0.13765442440E+03  0.00000000000E+00 0.  1.
        -15    1    3    3    0    0 -0.15466555420E+02  0.29784473718E+01 -0.49949459535E+01  0.16619046284E+02  0.17770000000E+01 0. -1.
         15    1    3    3    0    0  0.79550562237E+02  0.18473194830E+02  0.12800832641E+03  0.15185137549E+03  0.17770000000E+01 0.  1.
</event>
<event>
 7    1  0.2809211E-007  0.1569043E+03  0.7546771E-02  0.1090877E+00
        -11   -1    0    0    0    0  0.00000000000E+00  0.00000000000E+00  0.18250000000E+03  0.18250000000E+03  0.00000000000E+00 0. -1.
         11   -1    0    0    0    0 -0.00000000000E+00 -0.00000000000E+00 -0.18250000000E+03  0.18250000000E+03  0.00000000000E+00 0.  1.
         23    2    1    2    0    0  0.23148460393E+01 -0.33197618525E+01  0.12845805575E+03  0.15730302113E+03  0.90699443423E+02 0.  0.
        -11    1    1    2    0    0  0.69703678260E+02  0.78350805347E+01 -0.12690372552E+02  0.71281391719E+02  0.00000000000E+00 0. -1.
         11    1    1    2    0    0 -0.72018524299E+02 -0.45153186822E+01 -0.11576768320E+03  0.13641558715E+03  0.00000000000E+00 0.  1.
        -15    1    3    3    0    0 -0.99632693447E+01  0.12428089905E+02  0.13520417543E+03  0.13615083892E+03  0.17770000000E+01 0. -1.
         15    1    3    3    0    0  0.12278115384E+02 -0.15747851758E+02 -0.67461196821E+01  0.21152182208E+02  0.17770000000E+01 0.  1.
</event>
<event>
 7    1  0.2809211E-007  0.1388017E+03  0.7546771E-02  0.1109786E+00
        -11   -1    0    0    0    0  0.00000000000E+00  0.00000000000E+00  0.18250000000E+03  0.18250000000E+03  0.00000000000E+00 0.  1.
         11   -1    0    0    0    0 -0.00000000000E+00 -0.00000000000E+00 -0.18250000000E+03  0.18250000000E+03  0.00000000000E+00 0. -1.
         23    2    1    2    0    0  0.41726223832E+02  0.91857244066E+02  0.66123764899E+02  0.15148449136E+03  0.91631696451E+02 0.  0.
        -11    1    1    2    0    0 -0.18192378346E+02 -0.10581087395E+03  0.31693810971E+02  0.11194374180E+03  0.00000000000E+00 0.  1.
         11    1    1    2    0    0 -0.23533845486E+02  0.13953629880E+02 -0.97817575870E+02  0.10157176684E+03  0.00000000000E+00 0. -1.
        -15    1    3    3    0    0  0.68183455313E+02  0.65968187264E+02  0.63818591204E+02  0.11435364280E+03  0.17770000000E+01 0.  1.
         15    1    3    3    0    0 -0.26457231481E+02  0.25889056801E+02  0.23051736945E+01  0.37130848556E+02  0.17770000000E+01 0. -1.
</event>
<event>
 7    1  0.2809211E-007  0.1557053E+03  0.7546771E-02  0.1092041E+00
        -11   -1    0    0    0    0  0.00000000000E+00  0.00000000000E+00  0.18250000000E+03  0.18250000000E+03  0.00000000000E+00 0.  1.
         11   -1    0    0    0    0 -0.00000000000E+00 -0.00000000000E+00 -0.18250000000E+03  0.18250000000E+03  0.00000000000E+00 0. -1.
         23    2    1    2    0    0 -0.84418942403E+02 -0.35127167152E+02  0.69300554777E+02  0.15365301386E+03  0.10220668309E+03 0.  0.
        -11    1    1    2    0    0  0.80835473822E+02  0.10058467161E+03 -0.22963904081E+02  0.13106864950E+03  0.00000000000E+00 0.  1.
         11    1    1    2    0    0  0.35834685808E+01 -0.65457504454E+02 -0.46336650696E+02  0.80278336642E+02  0.00000000000E+00 0. -1.
        -15    1    3    3    0    0  0.14908829692E+02  0.16580250186E+02  0.24100248313E+02  0.32880961008E+02  0.17770000000E+01 0. -1.
         15    1    3    3    0    0 -0.99327772095E+02 -0.51707417338E+02  0.45200306464E+02  0.12077205285E+03  0.17770000000E+01 0.  1.
</event>
<event>
 7    1  0.2809211E-007  0.1722373E+03  0.7546771E-02  0.1076931E+00
        -11   -1    0    0    0    0  0.00000000000E+00  0.00000000000E+00  0.18250000000E+03  0.18250000000E+03  0.00000000000E+00 0.  1.
         11   -1    0    0    0    0 -0.00000000000E+00 -0.00000000000E+00 -0.18250000000E+03  0.18250000000E+03  0.00000000000E+00 0.  1.
         23    2    1    2    0    0 -0.78436402962E+02  0.13523828607E+02  0.10482065255E+03  0.16062831815E+03  0.92081073746E+02 0.  0.
        -11    1    1    2    0    0  0.26383649871E+01  0.33944428452E+02  0.28112898163E+02  0.44153371739E+02  0.00000000000E+00 0.  1.
         11    1    1    2    0    0  0.75798037975E+02 -0.47468257060E+02 -0.13293355071E+03  0.16021831011E+03  0.00000000000E+00 0.  1.
        -15    1    3    3    0    0  0.17672727431E+02  0.17681061063E+02  0.16372160072E+02  0.29935774077E+02  0.17770000000E+01 0. -1.
         15    1    3    3    0    0 -0.96109130394E+02 -0.41572324554E+01  0.88448492477E+02  0.13069254408E+03  0.17770000000E+01 0.  1.
</event>
<event>
 7    1  0.2809211E-007  0.1672567E+03  0.7546771E-02  0.1081280E+00
        -11   -1    0    0    0    0  0.00000000000E+00  0.00000000000E+00  0.18250000000E+03  0.18250000000E+03  0.00000000000E+00 0.  1.
         11   -1    0    0    0    0 -0.00000000000E+00 -0.00000000000E+00 -0.18250000000E+03  0.18250000000E+03  0.00000000000E+00 0.  1.
         23    2    1    2    0    0  0.40332344539E+02  0.67579483795E+00 -0.10966935126E+03  0.14772467090E+03  0.90377303967E+02 0.  0.
        -11    1    1    2    0    0 -0.38493348571E+02 -0.18450485380E+02  0.15909312016E+03  0.16472030591E+03  0.00000000000E+00 0.  1.
         11    1    1    2    0    0 -0.18389959676E+01  0.17774690542E+02 -0.49423768903E+02  0.52555023191E+02  0.00000000000E+00 0.  1.
        -15    1    3    3    0    0 -0.18758753478E+02  0.10849930138E+02 -0.75756834332E+02  0.78815401369E+02  0.17770000000E+01 0.  1.
         15    1    3    3    0    0  0.59091098017E+02 -0.10174135300E+02 -0.33912516928E+02  0.68909269532E+02  0.17770000000E+01 0. -1.
</event>
<event>
 7    1  0.2809211E-007  0.1711835E+03  0.7546771E-02  0.1077837E+00
        -11   -1    0    0    0    0  0.00000000000E+00  0.00000000000E+00  0.18250000000E+03  0.18250000000E+03  0.00000000000E+00 0.  1.
         11   -1    0    0    0    0 -0.00000000000E+00 -0.00000000000E+00 -0.18250000000E+03  0.18250000000E+03  0.00000000000E+00 0. -1.
         23    2    1    2    0    0  0.11157267420E+03  0.61518069389E+02  0.77028704955E+02  0.17364517391E+03  0.89366048048E+02 0.  0.
        -11    1    1    2    0    0 -0.32672145541E+02  0.29814596832E+02  0.63175279320E+01  0.44679866133E+02  0.00000000000E+00 0.  1.
         11    1    1    2    0    0 -0.78900528664E+02 -0.91332666221E+02 -0.83346232887E+02  0.14667495996E+03  0.00000000000E+00 0. -1.
        -15    1    3    3    0    0 -0.15616421747E+02  0.76659846770E+01  0.81440397588E+01  0.19290491488E+02  0.17770000000E+01 0. -1.
         15    1    3    3    0    0  0.12718909595E+03  0.53852084712E+02  0.68884665196E+02  0.15435468242E+03  0.17770000000E+01 0.  1.
</event>
<event>
 7    1  0.2809211E-007  0.1532912E+03  0.7546771E-02  0.1094420E+00
        -11   -1    0    0    0    0  0.00000000000E+00  0.00000000000E+00  0.18250000000E+03  0.18250000000E+03  0.00000000000E+00 0.  1.
         11   -1    0    0    0    0 -0.00000000000E+00 -0.00000000000E+00 -0.18250000000E+03  0.18250000000E+03  0.00000000000E+00 0.  1.
         23    2    1    2    0    0  0.38905012841E+00 -0.77634894211E+02  0.53644565262E+02  0.13068889072E+03  0.90413044499E+02 0.  0.
        -11    1    1    2    0    0 -0.57279544864E+02 -0.41991779049E+02  0.30591316017E+02  0.77331005316E+02  0.00000000000E+00 0.  1.
         11    1    1    2    0    0  0.56890494735E+02  0.11962667326E+03 -0.84235881279E+02  0.15698010397E+03  0.00000000000E+00 0.  1.
        -15    1    3    3    0    0 -0.23456032893E+02 -0.10736470243E+02 -0.16643638645E+02  0.30751027766E+02  0.17770000000E+01 0. -1.
         15    1    3    3    0    0  0.23845083021E+02 -0.66898423968E+02  0.70288203907E+02  0.99937862950E+02  0.17770000000E+01 0.  1.
</event>
<event>
 7    1  0.2809211E-007  0.1253670E+03  0.7546771E-02  0.1126005E+00
        -11   -1    0    0    0    0  0.00000000000E+00  0.00000000000E+00  0.18250000000E+03  0.18250000000E+03  0.00000000000E+00 0. -1.
         11   -1    0    0    0    0 -0.00000000000E+00 -0.00000000000E+00 -0.18250000000E+03  0.18250000000E+03  0.00000000000E+00 0.  1.
         23    2    1    2    0    0  0.53672542345E+02 -0.12712836441E+01 -0.10043514108E+02  0.10838588994E+03  0.93617685287E+02 0.  0.
        -11    1    1    2    0    0 -0.32490659367E+02  0.14739458095E+02  0.12961536454E+03  0.13443599702E+03  0.00000000000E+00 0. -1.
         11    1    1    2    0    0 -0.21181882978E+02 -0.13468174451E+02 -0.11957185043E+03  0.12217811304E+03  0.00000000000E+00 0.  1.
        -15    1    3    3    0    0  0.44496818723E+02  0.22131986954E+02  0.32166616695E+02  0.59225338172E+02  0.17770000000E+01 0. -1.
         15    1    3    3    0    0  0.91757236227E+01 -0.23403270598E+02 -0.42210130803E+02  0.49160551768E+02  0.17770000000E+01 0.  1.
</event>
<event>
 7    1  0.2809211E-007  0.1880944E+03  0.7546771E-02  0.1064087E+00
        -11   -1    0    0    0    0  0.00000000000E+00  0.00000000000E+00  0.18250000000E+03  0.18250000000E+03  0.00000000000E+00 0.  1.
         11   -1    0    0    0    0 -0.00000000000E+00 -0.00000000000E+00 -0.18250000000E+03  0.18250000000E+03  0.00000000000E+00 0. -1.
         23    2    1    2    0    0 -0.85860586084E+02 -0.40107927372E+02  0.13327826817E+03  0.18699068512E+03  0.90673775005E+02 0.  0.
        -11    1    1    2    0    0 -0.28848517661E+01  0.10824779863E+02  0.40395209750E+01  0.11908650575E+02  0.00000000000E+00 0.  1.
         11    1    1    2    0    0  0.88745437850E+02  0.29283147509E+02 -0.13731778915E+03  0.16610066431E+03  0.00000000000E+00 0. -1.
        -15    1    3    3    0    0 -0.44951252513E+02 -0.21525906347E+02  0.39031208777E+01  0.50023712659E+02  0.17770000000E+01 0. -1.
         15    1    3    3    0    0 -0.40909333570E+02 -0.18582021025E+02  0.12937514729E+03  0.13696697246E+03  0.17770000000E+01 0.  1.
</event>
<event>
 7    1  0.2809211E-007  0.1352699E+03  0.7546771E-02  0.1113847E+00
        -11   -1    0    0    0    0  0.00000000000E+00  0.00000000000E+00  0.18250000000E+03  0.18250000000E+03  0.00000000000E+00 0. -1.
         11   -1    0    0    0    0 -0.00000000000E+00 -0.00000000000E+00 -0.18250000000E+03  0.18250000000E+03  0.00000000000E+00 0.  1.
         23    2    1    2    0    0  0.64522040104E+02 -0.62585934763E+01 -0.53543898968E+02  0.12481393038E+03  0.92245891230E+02 0.  0.
        -11    1    1    2    0    0 -0.69090732942E+02 -0.10098677693E+03  0.51684019555E+02  0.13282731786E+03  0.00000000000E+00 0. -1.
         11    1    1    2    0    0  0.45686928385E+01  0.10724537041E+03  0.18598794138E+01  0.10735875176E+03  0.00000000000E+00 0.  1.
        -15    1    3    3    0    0  0.67778370089E+02 -0.25702000356E+02 -0.53421966901E+01  0.72706238169E+02  0.17770000000E+01 0.  1.
         15    1    3    3    0    0 -0.32563299856E+01  0.19443406880E+02 -0.48201702278E+02  0.52107692211E+02  0.17770000000E+01 0. -1.
</event>
<event>
 7    1  0.2809211E-007  0.2146560E+03  0.7546771E-02  0.1045399E+00
        -11   -1    0    0    0    0  0.00000000000E+00  0.00000000000E+00  0.18250000000E+03  0.18250000000E+03  0.00000000000E+00 0. -1.
         11   -1    0    0    0    0 -0.00000000000E+00 -0.00000000000E+00 -0.18250000000E+03  0.18250000000E+03  0.00000000000E+00 0. -1.
         23    2    1    2    0    0 -0.28606446278E+02 -0.11735351636E+02 -0.69469564331E+02  0.11879112009E+03  0.91264793853E+02 0.  0.
        -11    1    1    2    0    0 -0.63345863469E+01 -0.33508446477E+02  0.14642535082E+03  0.15034402659E+03  0.00000000000E+00 0. -1.
         11    1    1    2    0    0  0.34941032625E+02  0.45243798112E+02 -0.76955786486E+02  0.95864853321E+02  0.00000000000E+00 0. -1.
        -15    1    3    3    0    0 -0.28350745667E+02 -0.49127711046E+02 -0.29243526633E+02  0.63840726432E+02  0.17770000000E+01 0.  1.
         15    1    3    3    0    0 -0.25570061182E+00  0.37392359411E+02 -0.40226037698E+02  0.54950393657E+02  0.17770000000E+01 0. -1.
</event>
<event>
 7    1  0.2809211E-007  0.1495076E+03  0.7546771E-02  0.1098247E+00
        -11   -1    0    0    0    0  0.00000000000E+00  0.00000000000E+00  0.18250000000E+03  0.18250000000E+03  0.00000000000E+00 0.  1.
         11   -1    0    0    0    0 -0.00000000000E+00 -0.00000000000E+00 -0.18250000000E+03  0.18250000000E+03  0.00000000000E+00 0. -1.
         23    2    1    2    0    0  0.42944984034E+01  0.24537569655E+02  0.88813705938E+02  0.12887487912E+03  0.90001805892E+02 0.  0.
        -11    1    1    2    0    0 -0.48573969794E+02 -0.37229599140E+02  0.56740451125E+02  0.83456290281E+02  0.00000000000E+00 0.  1.
         11    1    1    2    0    0  0.44279471390E+02  0.12692029485E+02 -0.14555415706E+03  0.15266883060E+03  0.00000000000E+00 0. -1.
        -15    1    3    3    0    0  0.13869743867E+02 -0.14071279195E+02 -0.10090416339E+02  0.22256345702E+02  0.17770000000E+01 0. -1.
         15    1    3    3    0    0 -0.95752454636E+01  0.38608848849E+02  0.98904122277E+02  0.10661853341E+03  0.17770000000E+01 0.  1.
</event>
<event>
 7    1  0.2809211E-007  0.1839524E+03  0.7546771E-02  0.1067305E+00
        -11   -1    0    0    0    0  0.00000000000E+00  0.00000000000E+00  0.18250000000E+03  0.18250000000E+03  0.00000000000E+00 0. -1.
         11   -1    0    0    0    0 -0.00000000000E+00 -0.00000000000E+00 -0.18250000000E+03  0.18250000000E+03  0.00000000000E+00 0.  1.
         23    2    1    2    0    0  0.45540865474E+02  0.38941693294E+02  0.14075979423E+03  0.17814214113E+03  0.91273637331E+02 0.  0.
        -11    1    1    2    0    0 -0.20336362060E+01  0.18586529715E+02  0.89123884208E+01  0.20712929064E+02  0.00000000000E+00 0. -1.
         11    1    1    2    0    0 -0.43507229268E+02 -0.57528223009E+02 -0.14967218265E+03  0.16614492980E+03  0.00000000000E+00 0.  1.
        -15    1    3    3    0    0  0.59102462566E+02  0.18299330057E+02  0.14033194144E+03  0.15337593709E+03  0.17770000000E+01 0. -1.
         15    1    3    3    0    0 -0.13561597092E+02  0.20642363236E+02  0.42785279090E+00  0.24766204043E+02  0.17770000000E+01 0.  1.
</event>
<event>
 7    1  0.2809211E-007  0.1587560E+03  0.7546771E-02  0.1089102E+00
        -11   -1    0    0    0    0  0.00000000000E+00  0.00000000000E+00  0.18250000000E+03  0.18250000000E+03  0.00000000000E+00 0. -1.
         11   -1    0    0    0    0 -0.00000000000E+00 -0.00000000000E+00 -0.18250000000E+03  0.18250000000E+03  0.00000000000E+00 0. -1.
         23    2    1    2    0    0  0.16054948816E+02  0.37185783938E+02  0.14851581749E+03  0.17820369815E+03  0.89772301300E+02 0.  0.
        -11    1    1    2    0    0 -0.45134766363E+02  0.10006781925E+02 -0.10993238514E+03  0.11925775498E+03  0.00000000000E+00 0. -1.
         11    1    1    2    0    0  0.29079817548E+02 -0.47192565863E+02 -0.38583432354E+02  0.67538546872E+02  0.00000000000E+00 0. -1.
        -15    1    3    3    0    0  0.14717090171E+02 -0.24770759715E+02  0.18844336769E+02  0.34473903713E+02  0.17770000000E+01 0.  1.
         15    1    3    3    0    0  0.13378586451E+01  0.61956543653E+02  0.12967148072E+03  0.14372979444E+03  0.17770000000E+01 0. -1.
</event>
<event>
 7    1  0.2809211E-007  0.1434214E+03  0.7546771E-02  0.1104671E+00
        -11   -1    0    0    0    0  0.00000000000E+00  0.00000000000E+00  0.18250000000E+03  0.18250000000E+03  0.00000000000E+00 0. -1.
         11   -1    0    0    0    0 -0.00000000000E+00 -0.00000000000E+00 -0.18250000000E+03  0.18250000000E+03  0.00000000000E+00 0. -1.
         23    2    1    2    0    0 -0.92117035914E+01 -0.29474071871E+02  0.73813112431E+02  0.12202967499E+03  0.92137341055E+02 0.  0.
        -11    1    1    2    0    0 -0.85623382697E+02  0.10660834309E+02  0.38749178567E+02  0.94586023769E+02  0.00000000000E+00 0. -1.
         11    1    1    2    0    0  0.94835086289E+02  0.18813237562E+02 -0.11256229100E+03  0.14838430124E+03  0.00000000000E+00 0. -1.
        -15    1    3    3    0    0  0.38662547969E+02 -0.20148322436E+02  0.16252062458E+02  0.46562160340E+02  0.17770000000E+01 0.  1.
         15    1    3    3    0    0 -0.47874251560E+02 -0.93257494349E+01  0.57561049973E+02  0.75467514654E+02  0.17770000000E+01 0. -1.
</event>
<event>
 7    1  0.2809211E-007  0.1569538E+03  0.7546771E-02  0.1090830E+00
        -11   -1    0    0    0    0  0.00000000000E+00  0.00000000000E+00  0.18250000000E+03  0.18250000000E+03  0.00000000000E+00 0. -1.
         11   -1    0    0    0    0 -0.00000000000E+00 -0.00000000000E+00 -0.18250000000E+03  0.18250000000E+03  0.00000000000E+00 0.  1.
         23    2    1    2    0    0 -0.54365605378E+02 -0.57867353547E+02  0.44193777952E+02  0.13041184543E+03  0.93540952342E+02 0.  0.
        -11    1    1    2    0    0 -0.42692945330E+02 -0.56781581788E+02  0.15899141659E+02  0.72798477435E+02  0.00000000000E+00 0. -1.
         11    1    1    2    0    0  0.97058550708E+02  0.11464893534E+03 -0.60092919611E+02  0.16178967713E+03  0.00000000000E+00 0.  1.
        -15    1    3    3    0    0 -0.26322291513E+01 -0.98709604095E+01 -0.27747347626E+02  0.29621571852E+02  0.17770000000E+01 0.  1.
         15    1    3    3    0    0 -0.51733376227E+02 -0.47996393138E+02  0.71941125579E+02  0.10079027358E+03  0.17770000000E+01 0. -1.
</event>
<event>
 6    1  0.2809211E-007  0.1325166E+03  0.7546771E-02  0.1117109E+00
        -11   -1    0    0    0    0  0.00000000000E+00  0.00000000000E+00  0.18250000000E+03  0.18250000000E+03  0.00000000000E+00 0. -1.
         11   -1    0    0    0    0 -0.00000000000E+00 -0.00000000000E+00 -0.18250000000E+03  0.18250000000E+03  0.00000000000E+00 0.  1.
        -11    1    1    2    0    0  0.82199871310E+02  0.45911252132E+02 -0.47454921702E+01  0.94271849518E+02  0.00000000000E+00 0. -1.
         11    1    1    2    0    0 -0.96190725350E+02 -0.61238718323E+02 -0.99777625095E+02  0.15152033109E+03  0.00000000000E+00 0.  1.
        -15    1    1    2    0    0  0.37029343028E+01 -0.20012201077E+02  0.35175476884E+02  0.40677657472E+02  0.17770000000E+01 0.  1.
         15    1    1    2    0    0  0.10287919738E+02  0.35339667268E+02  0.69347640381E+02  0.78530161916E+02  0.17770000000E+01 0. -1.
</event>
<event>
 7    1  0.2809211E-007  0.1473031E+03  0.7546771E-02  0.1100534E+00
        -11   -1    0    0    0    0  0.00000000000E+00  0.00000000000E+00  0.18250000000E+03  0.18250000000E+03  0.00000000000E+00 0.  1.
         11   -1    0    0    0    0 -0.00000000000E+00 -0.00000000000E+00 -0.18250000000E+03  0.18250000000E+03  0.00000000000E+00 0. -1.
         23    2    1    2    0    0  0.49488980493E+02 -0.43320343769E+02  0.52251605670E+02  0.12326256603E+03  0.90208749655E+02 0.  0.
        -11    1    1    2    0    0  0.28864171779E+02  0.22151469045E+02  0.79251531409E+02  0.87204548184E+02  0.00000000000E+00 0.  1.
         11    1    1    2    0    0 -0.78353152272E+02  0.21168874724E+02 -0.13150313708E+03  0.15453288579E+03  0.00000000000E+00 0. -1.
        -15    1    3    3    0    0  0.43285216705E+02 -0.60917481202E+02  0.66238286427E+02  0.99876012230E+02  0.17770000000E+01 0.  1.
         15    1    3    3    0    0  0.62037637882E+01  0.17597137433E+02 -0.13986680757E+02  0.23386553799E+02  0.17770000000E+01 0. -1.
</event>
<event>
 7    1  0.2809211E-007  0.1564986E+03  0.7546771E-02  0.1091270E+00
        -11   -1    0    0    0    0  0.00000000000E+00  0.00000000000E+00  0.18250000000E+03  0.18250000000E+03  0.00000000000E+00 0.  1.
         11   -1    0    0    0    0 -0.00000000000E+00 -0.00000000000E+00 -0.18250000000E+03  0.18250000000E+03  0.00000000000E+00 0.  1.
         23    2    1    2    0    0  0.55650912979E+02  0.36687797508E+02 -0.87158106396E+02  0.14369722857E+03  0.92786525894E+02 0.  0.
        -11    1    1    2    0    0 -0.76920659875E+02 -0.10480368894E+03  0.71037906970E+02  0.14814514962E+03  0.00000000000E+00 0.  1.
         11    1    1    2    0    0  0.21269746897E+02  0.68115891429E+02  0.16120199427E+02  0.73157621803E+02  0.00000000000E+00 0.  1.
        -15    1    3    3    0    0 -0.19232419548E+02  0.52583364726E+00 -0.48042204710E+02  0.51781981664E+02  0.17770000000E+01 0. -1.
         15    1    3    3    0    0  0.74883332526E+02  0.36161963861E+02 -0.39115901686E+02  0.91915246909E+02  0.17770000000E+01 0.  1.
</event>
<event>
 7    1  0.2809211E-007  0.1559870E+03  0.7546771E-02  0.1091767E+00
        -11   -1    0    0    0    0  0.00000000000E+00  0.00000000000E+00  0.18250000000E+03  0.18250000000E+03  0.00000000000E+00 0.  1.
         11   -1    0    0    0    0 -0.00000000000E+00 -0.00000000000E+00 -0.18250000000E+03  0.18250000000E+03  0.00000000000E+00 0.  1.
         23    2    1    2    0    0 -0.48184460405E+02 -0.33500531838E+02  0.87787044617E+02  0.13944806116E+03  0.91077816739E+02 0.  0.
        -11    1    1    2    0    0  0.43393967738E+02 -0.12928311148E+02  0.57364057081E+02  0.73080864185E+02  0.00000000000E+00 0.  1.
         11    1    1    2    0    0  0.47904926662E+01  0.46428842986E+02 -0.14515110170E+03  0.15247107465E+03  0.00000000000E+00 0.  1.
        -15    1    3    3    0    0 -0.64720813778E+02 -0.30558850902E+02  0.96725027378E+02  0.12033916966E+03  0.17770000000E+01 0.  1.
         15    1    3    3    0    0  0.16536353373E+02 -0.29416809364E+01 -0.89379827613E+01  0.19108891503E+02  0.17770000000E+01 0. -1.
</event>
<event>
 7    1  0.2809211E-007  0.1686297E+03  0.7546771E-02  0.1080065E+00
        -11   -1    0    0    0    0  0.00000000000E+00  0.00000000000E+00  0.18250000000E+03  0.18250000000E+03  0.00000000000E+00 0.  1.
         11   -1    0    0    0    0 -0.00000000000E+00 -0.00000000000E+00 -0.18250000000E+03  0.18250000000E+03  0.00000000000E+00 0.  1.
         23    2    1    2    0    0  0.73358297958E+02 -0.65290101686E+02  0.93818059729E+02  0.16055784594E+03  0.85631514672E+02 0.  0.
        -11    1    1    2    0    0 -0.21037846006E+02  0.68002504990E+01  0.42067501503E+02  0.47523773568E+02  0.00000000000E+00 0.  1.
         11    1    1    2    0    0 -0.52320451952E+02  0.58489851187E+02 -0.13588556123E+03  0.15691838049E+03  0.00000000000E+00 0.  1.
        -15    1    3    3    0    0 -0.43951056810E+01 -0.37278030984E+02  0.29184968128E+01  0.37691430068E+02  0.17770000000E+01 0. -1.
         15    1    3    3    0    0  0.77753403639E+02 -0.28012070702E+02  0.90899562916E+02  0.12286641587E+03  0.17770000000E+01 0.  1.
</event>
<event>
 7    1  0.2809211E-007  0.1471895E+03  0.7546771E-02  0.1100653E+00
        -11   -1    0    0    0    0  0.00000000000E+00  0.00000000000E+00  0.18250000000E+03  0.18250000000E+03  0.00000000000E+00 0. -1.
         11   -1    0    0    0    0 -0.00000000000E+00 -0.00000000000E+00 -0.18250000000E+03  0.18250000000E+03  0.00000000000E+00 0.  1.
         23    2    1    2    0    0  0.74330243973E+02  0.23430589352E+02  0.83357457340E+02  0.14541628230E+03  0.90130193486E+02 0.  0.
        -11    1    1    2    0    0 -0.50104741824E+02 -0.57937345763E+02  0.41978450778E+02  0.87346502603E+02  0.00000000000E+00 0. -1.
         11    1    1    2    0    0 -0.24225502150E+02  0.34506756411E+02 -0.12533590812E+03  0.13223721510E+03  0.00000000000E+00 0.  1.
        -15    1    3    3    0    0  0.81038378044E+01 -0.10316358463E+02  0.68281511499E+02  0.69553015611E+02  0.17770000000E+01 0.  1.
         15    1    3    3    0    0  0.66226406169E+02  0.33746947816E+02  0.15075945841E+02  0.75863266690E+02  0.17770000000E+01 0. -1.
</event>
<event>
 7    1  0.2809211E-007  0.1476247E+03  0.7546771E-02  0.1100198E+00
        -11   -1    0    0    0    0  0.00000000000E+00  0.00000000000E+00  0.18250000000E+03  0.18250000000E+03  0.00000000000E+00 0. -1.
         11   -1    0    0    0    0 -0.00000000000E+00 -0.00000000000E+00 -0.18250000000E+03  0.18250000000E+03  0.00000000000E+00 0. -1.
         23    2    1    2    0    0  0.87111982386E+02  0.63354482328E+02 -0.66980097570E+02  0.16191725326E+03  0.10064082435E+03 0.  0.
        -11    1    1    2    0    0 -0.13309516508E+02 -0.91514996391E+02 -0.97104174608E+01  0.92986181777E+02  0.00000000000E+00 0. -1.
         11    1    1    2    0    0 -0.73802465878E+02  0.28160514063E+02  0.76690515031E+02  0.11009656497E+03  0.00000000000E+00 0. -1.
        -15    1    3    3    0    0  0.66768614291E+02  0.16493609222E+02  0.99893657939E+01  0.69520012640E+02  0.17770000000E+01 0.  1.
         15    1    3    3    0    0  0.20343368095E+02  0.46860873106E+02 -0.76969463364E+02  0.92397240615E+02  0.17770000000E+01 0. -1.
</event>
<event>
 7    1  0.2809211E-007  0.1631816E+03  0.7546771E-02  0.1084965E+00
        -11   -1    0    0    0    0  0.00000000000E+00  0.00000000000E+00  0.18250000000E+03  0.18250000000E+03  0.00000000000E+00 0. -1.
         11   -1    0    0    0    0 -0.00000000000E+00 -0.00000000000E+00 -0.18250000000E+03  0.18250000000E+03  0.00000000000E+00 0.  1.
         23    2    1    2    0    0 -0.31729927875E+02 -0.48845642302E+01  0.14055884636E+03  0.17032103482E+03  0.90674242877E+02 0.  0.
        -11    1    1    2    0    0 -0.10996630531E+02 -0.52741036214E+02 -0.26758011692E+02  0.60154251502E+02  0.00000000000E+00 0. -1.
         11    1    1    2    0    0  0.42726558406E+02  0.57625600445E+02 -0.11380083467E+03  0.13452471368E+03  0.00000000000E+00 0.  1.
        -15    1    3    3    0    0  0.13986400032E+02  0.19960530114E+02  0.47765718320E+01  0.24900110757E+02  0.17770000000E+01 0.  1.
         15    1    3    3    0    0 -0.45716327907E+02 -0.24845094344E+02  0.13578227453E+03  0.14542092406E+03  0.17770000000E+01 0. -1.
</event>
<event>
 7    1  0.2809211E-007  0.1633792E+03  0.7546771E-02  0.1084783E+00
        -11   -1    0    0    0    0  0.00000000000E+00  0.00000000000E+00  0.18250000000E+03  0.18250000000E+03  0.00000000000E+00 0.  1.
         11   -1    0    0    0    0 -0.00000000000E+00 -0.00000000000E+00 -0.18250000000E+03  0.18250000000E+03  0.00000000000E+00 0.  1.
         23    2    1    2    0    0  0.23691227080E+02 -0.68392171722E+02  0.98594633154E+02  0.15264728379E+03  0.91331966854E+02 0.  0.
        -11    1    1    2    0    0  0.16483220103E+02 -0.54753453673E+02 -0.18694139339E+02  0.60159023261E+02  0.00000000000E+00 0.  1.
         11    1    1    2    0    0 -0.40174447183E+02  0.12314562540E+03 -0.79900493815E+02  0.15219369295E+03  0.00000000000E+00 0.  1.
        -15    1    3    3    0    0 -0.10256725336E+02  0.18303835000E+02  0.74300794752E+01  0.22329231969E+02  0.17770000000E+01 0. -1.
         15    1    3    3    0    0  0.33947952416E+02 -0.86696006723E+02  0.91164553679E+02  0.13031805182E+03  0.17770000000E+01 0.  1.
</event>
<event>
 7    1  0.2809211E-007  0.1300628E+03  0.7546771E-02  0.1120091E+00
        -11   -1    0    0    0    0  0.00000000000E+00  0.00000000000E+00  0.18250000000E+03  0.18250000000E+03  0.00000000000E+00 0. -1.
         11   -1    0    0    0    0 -0.00000000000E+00 -0.00000000000E+00 -0.18250000000E+03  0.18250000000E+03  0.00000000000E+00 0.  1.
         23    2    1    2    0    0 -0.46324053989E+02  0.32048461840E+02 -0.41361790695E+02  0.11759116973E+03  0.94572002113E+02 0.  0.
        -11    1    1    2    0    0 -0.43076140669E+02 -0.10025236401E+03  0.72164715728E+02  0.13081986310E+03  0.00000000000E+00 0. -1.
         11    1    1    2    0    0  0.89400194658E+02  0.68203902173E+02 -0.30802925034E+02  0.11658896718E+03  0.00000000000E+00 0.  1.
        -15    1    3    3    0    0 -0.63283644223E+02  0.40406766210E+02 -0.34438263898E+01  0.75183402762E+02  0.17770000000E+01 0. -1.
         15    1    3    3    0    0  0.16959590233E+02 -0.83583043699E+01 -0.37917964305E+02  0.42407766964E+02  0.17770000000E+01 0.  1.
</event>
<event>
 7    1  0.2809211E-007  0.2159507E+03  0.7546771E-02  0.1044564E+00
        -11   -1    0    0    0    0  0.00000000000E+00  0.00000000000E+00  0.18250000000E+03  0.18250000000E+03  0.00000000000E+00 0.  1.
         11   -1    0    0    0    0 -0.00000000000E+00 -0.00000000000E+00 -0.18250000000E+03  0.18250000000E+03  0.00000000000E+00 0.  1.
         23    2    1    2    0    0 -0.28722758064E+02 -0.35138676008E+02  0.27690291576E+02  0.10120051524E+03  0.86110792900E+02 0.  0.
        -11    1    1    2    0    0  0.33280697147E+02 -0.33257798084E+02  0.10466094267E+03  0.11475015842E+03  0.00000000000E+00 0.  1.
         11    1    1    2    0    0 -0.45579390832E+01  0.68396474091E+02 -0.13235123425E+03  0.14904932635E+03  0.00000000000E+00 0.  1.
        -15    1    3    3    0    0 -0.41506412360E+02 -0.53537606022E+02  0.30273796191E+01  0.67833474641E+02  0.17770000000E+01 0.  1.
         15    1    3    3    0    0  0.12783654296E+02  0.18398930014E+02  0.24662911957E+02  0.33367040594E+02  0.17770000000E+01 0. -1.
</event>
<event>
 7    1  0.2809211E-007  0.1803438E+03  0.7546771E-02  0.1070184E+00
        -11   -1    0    0    0    0  0.00000000000E+00  0.00000000000E+00  0.18250000000E+03  0.18250000000E+03  0.00000000000E+00 0.  1.
         11   -1    0    0    0    0 -0.00000000000E+00 -0.00000000000E+00 -0.18250000000E+03  0.18250000000E+03  0.00000000000E+00 0. -1.
         23    2    1    2    0    0  0.82402620879E+02  0.86859730853E+02  0.86605826761E+02  0.18039304992E+03  0.10347114795E+03 0.  0.
        -11    1    1    2    0    0 -0.43582467986E+01 -0.24543242697E+02  0.24680223368E+02  0.35078177016E+02  0.00000000000E+00 0.  1.
         11    1    1    2    0    0 -0.78044374080E+02 -0.62316488156E+02 -0.11128605013E+03  0.14952877307E+03  0.00000000000E+00 0. -1.
        -15    1    3    3    0    0  0.64946716072E+02  0.61651480180E+02  0.10995083853E+03  0.14181440533E+03  0.17770000000E+01 0.  1.
         15    1    3    3    0    0  0.17455904807E+02  0.25208250673E+02 -0.23345011769E+02  0.38578644586E+02  0.17770000000E+01 0. -1.
</event>
<event>
 7    1  0.2809211E-007  0.1826650E+03  0.7546771E-02  0.1068324E+00
        -11   -1    0    0    0    0  0.00000000000E+00  0.00000000000E+00  0.18250000000E+03  0.18250000000E+03  0.00000000000E+00 0. -1.
         11   -1    0    0    0    0 -0.00000000000E+00 -0.00000000000E+00 -0.18250000000E+03  0.18250000000E+03  0.00000000000E+00 0.  1.
         23    2    1    2    0    0  0.24236626713E+02  0.13898570354E+02  0.16158164159E+03  0.18740768117E+03  0.90732726893E+02 0.  0.
        -11    1    1    2    0    0  0.18522740065E+02 -0.20582721269E+01 -0.13515951869E+02  0.23021931687E+02  0.00000000000E+00 0. -1.
         11    1    1    2    0    0 -0.42759366778E+02 -0.11840298227E+02 -0.14806568972E+03  0.15457038714E+03  0.00000000000E+00 0.  1.
        -15    1    3    3    0    0  0.34846521088E+02 -0.78040103639E+00  0.12275372079E+02  0.36996372071E+02  0.17770000000E+01 0.  1.
         15    1    3    3    0    0 -0.10609894376E+02  0.14678971391E+02  0.14930626951E+03  0.15041130910E+03  0.17770000000E+01 0. -1.
</event>
<event>
 7    1  0.2809211E-007  0.1459150E+03  0.7546771E-02  0.1101997E+00
        -11   -1    0    0    0    0  0.00000000000E+00  0.00000000000E+00  0.18250000000E+03  0.18250000000E+03  0.00000000000E+00 0. -1.
         11   -1    0    0    0    0 -0.00000000000E+00 -0.00000000000E+00 -0.18250000000E+03  0.18250000000E+03  0.00000000000E+00 0. -1.
         23    2    1    2    0    0 -0.64724913786E+02 -0.38992066244E+02 -0.25427068792E+02  0.12743737073E+03  0.99418569380E+02 0.  0.
        -11    1    1    2    0    0  0.10165453009E+03  0.88213883217E+02 -0.46964244976E+02  0.14255165024E+03  0.00000000000E+00 0. -1.
         11    1    1    2    0    0 -0.36929616304E+02 -0.49221816973E+02  0.72391313768E+02  0.95010979026E+02  0.00000000000E+00 0. -1.
        -15    1    3    3    0    0 -0.30974070557E+02  0.60740998442E+01  0.33399770648E+02  0.45989021996E+02  0.17770000000E+01 0.  1.
         15    1    3    3    0    0 -0.33750843229E+02 -0.45066166088E+02 -0.58826839440E+02  0.81448348738E+02  0.17770000000E+01 0. -1.
</event>
<event>
 7    1  0.2809211E-007  0.1295982E+03  0.7546771E-02  0.1120664E+00
        -11   -1    0    0    0    0  0.00000000000E+00  0.00000000000E+00  0.18250000000E+03  0.18250000000E+03  0.00000000000E+00 0. -1.
         11   -1    0    0    0    0 -0.00000000000E+00 -0.00000000000E+00 -0.18250000000E+03  0.18250000000E+03  0.00000000000E+00 0. -1.
         23    2    1    2    0    0  0.79521147544E+02  0.83111675298E+01 -0.21935946550E+02  0.12291075566E+03  0.90736870646E+02 0.  0.
        -11    1    1    2    0    0  0.54525602049E+01 -0.85842425277E+02  0.76190900317E+02  0.11490737871E+03  0.00000000000E+00 0. -1.
         11    1    1    2    0    0 -0.84973707749E+02  0.77531257747E+02 -0.54254953768E+02  0.12718186563E+03  0.00000000000E+00 0. -1.
        -15    1    3    3    0    0  0.97315683834E+02  0.16382230530E+02 -0.83653738138E+01  0.99054818183E+02  0.17770000000E+01 0. -1.
         15    1    3    3    0    0 -0.17794536290E+02 -0.80710630005E+01 -0.13570572736E+02  0.23855937481E+02  0.17770000000E+01 0.  1.
</event>
<event>
 7    1  0.2809211E-007  0.1514713E+03  0.7546771E-02  0.1096245E+00
        -11   -1    0    0    0    0  0.00000000000E+00  0.00000000000E+00  0.18250000000E+03  0.18250000000E+03  0.00000000000E+00 0.  1.
         11   -1    0    0    0    0 -0.00000000000E+00 -0.00000000000E+00 -0.18250000000E+03  0.18250000000E+03  0.00000000000E+00 0.  1.
         23    2    1    2    0    0 -0.29683274579E+02  0.16265492093E+02  0.12661477961E+03  0.16072011140E+03  0.93026817478E+02 0.  0.
        -11    1    1    2    0    0 -0.63377378094E+02 -0.21298973614E+02 -0.47279518836E+02  0.81888285074E+02  0.00000000000E+00 0.  1.
         11    1    1    2    0    0  0.93060652673E+02  0.50334815206E+01 -0.79335260772E+02  0.12239160353E+03  0.00000000000E+00 0.  1.
        -15    1    3    3    0    0  0.11918306313E+02  0.33783773024E+02  0.12491936009E+02  0.37981515759E+02  0.17770000000E+01 0.  1.
         15    1    3    3    0    0 -0.41601580891E+02 -0.17518280931E+02  0.11412284360E+03  0.12273859564E+03  0.17770000000E+01 0. -1.
</event>
<event>
 7    1  0.2809211E-007  0.1859326E+03  0.7546771E-02  0.1065755E+00
        -11   -1    0    0    0    0  0.00000000000E+00  0.00000000000E+00  0.18250000000E+03  0.18250000000E+03  0.00000000000E+00 0.  1.
         11   -1    0    0    0    0 -0.00000000000E+00 -0.00000000000E+00 -0.18250000000E+03  0.18250000000E+03  0.00000000000E+00 0. -1.
         23    2    1    2    0    0  0.21022756123E+02  0.13239801996E+02  0.15990972686E+03  0.18593261418E+03  0.91556363185E+02 0.  0.
        -11    1    1    2    0    0 -0.39474581581E+02  0.74961071997E+01 -0.42766411042E+02  0.58680491882E+02  0.00000000000E+00 0.  1.
         11    1    1    2    0    0  0.18451825458E+02 -0.20735909196E+02 -0.11714331581E+03  0.12038689394E+03  0.00000000000E+00 0. -1.
        -15    1    3    3    0    0  0.79723661083E+01 -0.10636096387E+02  0.15803234922E+03  0.15860033511E+03  0.17770000000E+01 0.  1.
         15    1    3    3    0    0  0.13050390015E+02  0.23875898383E+02  0.18773776336E+01  0.27332279066E+02  0.17770000000E+01 0. -1.
</event>
<event>
 7    1  0.2809211E-007  0.1874808E+03  0.7546771E-02  0.1064558E+00
        -11   -1    0    0    0    0  0.00000000000E+00  0.00000000000E+00  0.18250000000E+03  0.18250000000E+03  0.00000000000E+00 0.  1.
         11   -1    0    0    0    0 -0.00000000000E+00 -0.00000000000E+00 -0.18250000000E+03  0.18250000000E+03  0.00000000000E+00 0.  1.
         23    2    1    2    0    0 -0.88491426886E+02  0.24069908067E+02  0.13664854701E+03  0.18748079100E+03  0.89811627802E+02 0.  0.
        -11    1    1    2    0    0  0.13569611075E+02  0.21260298564E+02 -0.23777596569E+02  0.34662786073E+02  0.00000000000E+00 0.  1.
         11    1    1    2    0    0  0.74921815811E+02 -0.45330206630E+02 -0.11287095044E+03  0.14285642292E+03  0.00000000000E+00 0.  1.
        -15    1    3    3    0    0  0.13139471325E+02 -0.14193112741E+02  0.16161596218E+02  0.25267470734E+02  0.17770000000E+01 0. -1.
         15    1    3    3    0    0 -0.10163089821E+03  0.38263020807E+02  0.12048695079E+03  0.16221332027E+03  0.17770000000E+01 0.  1.
</event>
<event>
 7    1  0.2809211E-007  0.1324614E+03  0.7546771E-02  0.1117175E+00
        -11   -1    0    0    0    0  0.00000000000E+00  0.00000000000E+00  0.18250000000E+03  0.18250000000E+03  0.00000000000E+00 0.  1.
         11   -1    0    0    0    0 -0.00000000000E+00 -0.00000000000E+00 -0.18250000000E+03  0.18250000000E+03  0.00000000000E+00 0. -1.
         23    2    1    2    0    0 -0.14429085446E+02  0.40812836784E+02  0.52725738174E+02  0.11336326382E+03  0.90539162603E+02 0.  0.
        -11    1    1    2    0    0  0.98932875648E+02  0.44587103383E+02  0.21207352733E+02  0.11056887212E+03  0.00000000000E+00 0. -1.
         11    1    1    2    0    0 -0.84503790202E+02 -0.85399940167E+02 -0.73933090907E+02  0.14106786406E+03  0.00000000000E+00 0.  1.
        -15    1    3    3    0    0  0.92756110584E+01 -0.13658435105E+02 -0.15615414790E+02  0.22794488766E+02  0.17770000000E+01 0.  1.
         15    1    3    3    0    0 -0.23704696504E+02  0.54471271889E+02  0.68341152964E+02  0.90568775055E+02  0.17770000000E+01 0. -1.
</event>
<event>
 7    1  0.2809211E-007  0.1461998E+03  0.7546771E-02  0.1101695E+00
        -11   -1    0    0    0    0  0.00000000000E+00  0.00000000000E+00  0.18250000000E+03  0.18250000000E+03  0.00000000000E+00 0. -1.
         11   -1    0    0    0    0 -0.00000000000E+00 -0.00000000000E+00 -0.18250000000E+03  0.18250000000E+03  0.00000000000E+00 0. -1.
         23    2    1    2    0    0 -0.33231912990E+01  0.50907897045E+02  0.11279148307E+03  0.15046502785E+03  0.85528640645E+02 0.  0.
        -11    1    1    2    0    0  0.77302035595E+02  0.18092411374E+02 -0.34258487046E+02  0.86467242301E+02  0.00000000000E+00 0. -1.
         11    1    1    2    0    0 -0.73978844296E+02 -0.69000308419E+02 -0.78532996022E+02  0.12806772985E+03  0.00000000000E+00 0. -1.
        -15    1    3    3    0    0 -0.29160959576E+02 -0.10915066599E+02  0.47990701263E+02  0.57234302468E+02  0.17770000000E+01 0.  1.
         15    1    3    3    0    0  0.25837768277E+02  0.61822963644E+02  0.64800781804E+02  0.93230725379E+02  0.17770000000E+01 0. -1.
</event>
<event>
 7    1  0.2809211E-007  0.1396376E+03  0.7546771E-02  0.1108844E+00
        -11   -1    0    0    0    0  0.00000000000E+00  0.00000000000E+00  0.18250000000E+03  0.18250000000E+03  0.00000000000E+00 0.  1.
         11   -1    0    0    0    0 -0.00000000000E+00 -0.00000000000E+00 -0.18250000000E+03  0.18250000000E+03  0.00000000000E+00 0.  1.
         23    2    1    2    0    0 -0.16275073670E+01 -0.12369396658E+02  0.11867722731E+03  0.15195233684E+03  0.94072193740E+02 0.  0.
        -11    1    1    2    0    0  0.68777924418E+02  0.62647235123E+02 -0.61140435218E+02  0.11132489288E+03  0.00000000000E+00 0.  1.
         11    1    1    2    0    0 -0.67150417051E+02 -0.50277838465E+02 -0.57536792088E+02  0.10172277029E+03  0.00000000000E+00 0.  1.
        -15    1    3    3    0    0 -0.49791097599E+01 -0.50665374768E+02  0.41472203115E+02  0.65687693631E+02  0.17770000000E+01 0. -1.
         15    1    3    3    0    0  0.33516023929E+01  0.38295978110E+02  0.77205024191E+02  0.86264643205E+02  0.17770000000E+01 0.  1.
</event>
<event>
 7    1  0.2809211E-007  0.1728054E+03  0.7546771E-02  0.1076445E+00
        -11   -1    0    0    0    0  0.00000000000E+00  0.00000000000E+00  0.18250000000E+03  0.18250000000E+03  0.00000000000E+00 0. -1.
         11   -1    0    0    0    0 -0.00000000000E+00 -0.00000000000E+00 -0.18250000000E+03  0.18250000000E+03  0.00000000000E+00 0. -1.
         23    2    1    2    0    0  0.54967596349E+02  0.77748005119E+01  0.11458302497E+03  0.15632070026E+03  0.90691827343E+02 0.  0.
        -11    1    1    2    0    0  0.33125309043E+02  0.35244103069E+01  0.26091626240E+02  0.42314070084E+02  0.00000000000E+00 0. -1.
         11    1    1    2    0    0 -0.88092905392E+02 -0.11299210819E+02 -0.14067465121E+03  0.16636522966E+03  0.00000000000E+00 0. -1.
        -15    1    3    3    0    0  0.18345767320E+02  0.47580548477E+01  0.11785893848E+03  0.11938631988E+03  0.17770000000E+01 0. -1.
         15    1    3    3    0    0  0.36621829029E+02  0.30167456642E+01 -0.32759135132E+01  0.36934380382E+02  0.17770000000E+01 0.  1.
</event>
<event>
 7    1  0.2809211E-007  0.1654962E+03  0.7546771E-02  0.1082858E+00
        -11   -1    0    0    0    0  0.00000000000E+00  0.00000000000E+00  0.18250000000E+03  0.18250000000E+03  0.00000000000E+00 0.  1.
         11   -1    0    0    0    0 -0.00000000000E+00 -0.00000000000E+00 -0.18250000000E+03  0.18250000000E+03  0.00000000000E+00 0.  1.
         23    2    1    2    0    0  0.47717119205E+02  0.14103565867E+02  0.13638091308E+03  0.17132410461E+03  0.90974509245E+02 0.  0.
        -11    1    1    2    0    0 -0.45315536372E+02  0.32364037618E+02 -0.69286346816E+01  0.56115369964E+02  0.00000000000E+00 0.  1.
         11    1    1    2    0    0 -0.24015828324E+01 -0.46467603485E+02 -0.12945227840E+03  0.13756052543E+03  0.00000000000E+00 0.  1.
        -15    1    3    3    0    0  0.10574394345E+02 -0.36948791797E+00  0.13055903191E+03  0.13099913312E+03  0.17770000000E+01 0.  1.
         15    1    3    3    0    0  0.37142724859E+02  0.14473053785E+02  0.58218811689E+01  0.40324971484E+02  0.17770000000E+01 0. -1.
</event>
