<event>
 7    1  0.2024888E-007  0.3531952E+03  0.7546771E-02  0.9805796E-01
        -11   -1    0    0    0    0  0.00000000000E+00  0.00000000000E+00  0.50000000000E+03  0.50000000000E+03  0.00000000000E+00 0. -1.
         11   -1    0    0    0    0 -0.00000000000E+00 -0.00000000000E+00 -0.50000000000E+03  0.50000000000E+03  0.00000000000E+00 0. -1.
         23    2    1    2    0    0 -0.21503345453E+02 -0.99913600964E+02 -0.21527643940E+03  0.25449585205E+03  0.89325650446E+02 0.  0.
        -11    1    1    2    0    0  0.35917358886E+03  0.97368277307E+02  0.15181398391E+03  0.40191259506E+03  0.00000000000E+00 0. -1.
         11    1    1    2    0    0 -0.33767024341E+03  0.25453236568E+01  0.63462455494E+02  0.34359155288E+03  0.00000000000E+00 0. -1.
        -15    1    3    3    0    0 -0.53076568889E+02 -0.47817909224E+02 -0.87841947905E+02  0.11323886324E+03  0.17770000000E+01 0.  1.
         15    1    3    3    0    0  0.31573223436E+02 -0.52095691740E+02 -0.12743449150E+03  0.14125698881E+03  0.17770000000E+01 0. -1.
</event>
<event>
 7    1  0.2024888E-007  0.4204264E+03  0.7546771E-02  0.9597901E-01
        -11   -1    0    0    0    0  0.00000000000E+00  0.00000000000E+00  0.50000000000E+03  0.50000000000E+03  0.00000000000E+00 0. -1.
         11   -1    0    0    0    0 -0.00000000000E+00 -0.00000000000E+00 -0.50000000000E+03  0.50000000000E+03  0.00000000000E+00 0.  1.
         23    2    1    2    0    0  0.34527665054E+02 -0.86028433370E+02  0.36054392105E+03  0.38342821451E+03  0.91827151063E+02 0.  0.
        -11    1    1    2    0    0 -0.10518255234E+03 -0.19770870253E+02 -0.44902644344E+03  0.46160481316E+03  0.00000000000E+00 0.  1.
         11    1    1    2    0    0  0.70654887291E+02  0.10579930362E+03  0.88482522390E+02  0.15496697233E+03  0.00000000000E+00 0. -1.
        -15    1    3    3    0    0  0.24220832283E+02 -0.51948387342E+02  0.33424472722E+03  0.33912826344E+03  0.17770000000E+01 0. -1.
         15    1    3    3    0    0  0.10306832770E+02 -0.34080046029E+02  0.26299193830E+02  0.44299951063E+02  0.17770000000E+01 0.  1.
</event>
<event>
 7    1  0.2024888E-007  0.5155473E+03  0.7546771E-02  0.9365678E-01
        -11   -1    0    0    0    0  0.00000000000E+00  0.00000000000E+00  0.50000000000E+03  0.50000000000E+03  0.00000000000E+00 0. -1.
         11   -1    0    0    0    0 -0.00000000000E+00 -0.00000000000E+00 -0.50000000000E+03  0.50000000000E+03  0.00000000000E+00 0.  1.
         23    2    1    2    0    0 -0.21078443979E+02  0.53989714455E+02 -0.26374045360E+03  0.28539555944E+03  0.92371036670E+02 0.  0.
        -11    1    1    2    0    0 -0.10090289578E+03 -0.30888538605E+02 -0.20453439030E+03  0.23015171737E+03  0.00000000000E+00 0.  1.
         11    1    1    2    0    0  0.12198133976E+03 -0.23101175850E+02  0.46827484390E+03  0.48445272319E+03  0.00000000000E+00 0. -1.
        -15    1    3    3    0    0 -0.56915363236E+02  0.40033686254E+02 -0.15123016028E+03  0.16648055056E+03  0.17770000000E+01 0.  1.
         15    1    3    3    0    0  0.35836919257E+02  0.13956028201E+02 -0.11251029333E+03  0.11891500889E+03  0.17770000000E+01 0. -1.
</event>
<event>
 7    1  0.2214621E-007  0.5379143E+03  0.7546771E-02  0.9318754E-01
        -11   -1    0    0    0    0  0.00000000000E+00  0.00000000000E+00  0.50000000000E+03  0.50000000000E+03  0.00000000000E+00 0.  1.
         11   -1    0    0    0    0 -0.00000000000E+00 -0.00000000000E+00 -0.50000000000E+03  0.50000000000E+03  0.00000000000E+00 0. -1.
         23    2    1    2    0    0  0.42325338550E+02 -0.60020927847E+02 -0.88661949471E+01  0.11869078039E+03  0.92816732724E+02 0.  0.
        -11    1    1    2    0    0  0.10080587314E+03  0.40083306469E+03  0.20662585769E+03  0.46208572243E+03  0.00000000000E+00 0.  1.
         11    1    1    2    0    0 -0.14313121169E+03 -0.34081213685E+03 -0.19775966274E+03  0.41922349718E+03  0.00000000000E+00 0. -1.
        -15    1    3    3    0    0 -0.70380708949E+01 -0.20243932054E+02 -0.41963758994E+02  0.47153642753E+02  0.17770000000E+01 0. -1.
         15    1    3    3    0    0  0.49363409445E+02 -0.39776995793E+02  0.33097564047E+02  0.71537137637E+02  0.17770000000E+01 0.  1.
</event>
<event>
 7    1  0.2024888E-007  0.3605683E+03  0.7546771E-02  0.9780667E-01
        -11   -1    0    0    0    0  0.00000000000E+00  0.00000000000E+00  0.50000000000E+03  0.50000000000E+03  0.00000000000E+00 0. -1.
         11   -1    0    0    0    0 -0.00000000000E+00 -0.00000000000E+00 -0.50000000000E+03  0.50000000000E+03  0.00000000000E+00 0.  1.
         23    2    1    2    0    0 -0.83083424200E+02  0.14591025833E+02  0.21073073351E+03  0.24398327222E+03  0.89468663043E+02 0.  0.
        -11    1    1    2    0    0  0.56050676327E+02 -0.30989167604E+03 -0.31137786472E+03  0.44286646275E+03  0.00000000000E+00 0.  1.
         11    1    1    2    0    0  0.27032747874E+02  0.29530065020E+03  0.10064713121E+03  0.31315026503E+03  0.00000000000E+00 0. -1.
        -15    1    3    3    0    0 -0.16306448748E+02 -0.66910258823E+01 -0.39452695036E+01  0.18149186720E+02  0.17770000000E+01 0.  1.
         15    1    3    3    0    0 -0.66776975452E+02  0.21282051715E+02  0.21467600301E+03  0.22583408550E+03  0.17770000000E+01 0. -1.
</event>
<event>
 7    1  0.2024888E-007  0.3541760E+03  0.7546771E-02  0.9802415E-01
        -11   -1    0    0    0    0  0.00000000000E+00  0.00000000000E+00  0.50000000000E+03  0.50000000000E+03  0.00000000000E+00 0.  1.
         11   -1    0    0    0    0 -0.00000000000E+00 -0.00000000000E+00 -0.50000000000E+03  0.50000000000E+03  0.00000000000E+00 0.  1.
         23    2    1    2    0    0 -0.67355417402E+02  0.99821380121E+02  0.20360546240E+03  0.25319430856E+03  0.90283516700E+02 0.  0.
        -11    1    1    2    0    0 -0.14737737514E+03  0.25878085943E+03 -0.52767613859E+02  0.30244345750E+03  0.00000000000E+00 0.  1.
         11    1    1    2    0    0  0.21473279254E+03 -0.35860223955E+03 -0.15083784854E+03  0.44436223394E+03  0.00000000000E+00 0.  1.
        -15    1    3    3    0    0 -0.61446076887E+02  0.17608570259E+02  0.11882090753E+03  0.13493423548E+03  0.17770000000E+01 0.  1.
         15    1    3    3    0    0 -0.59093405145E+01  0.82212809861E+02  0.84784554871E+02  0.11826007308E+03  0.17770000000E+01 0. -1.
</event>
<event>
 7    1  0.2024888E-007  0.3274779E+03  0.7546771E-02  0.9898877E-01
        -11   -1    0    0    0    0  0.00000000000E+00  0.00000000000E+00  0.50000000000E+03  0.50000000000E+03  0.00000000000E+00 0. -1.
         11   -1    0    0    0    0 -0.00000000000E+00 -0.00000000000E+00 -0.50000000000E+03  0.50000000000E+03  0.00000000000E+00 0.  1.
         23    2    1    2    0    0 -0.33831653617E+03 -0.14454060540E+03  0.90851024878E+02  0.39065137886E+03  0.94892180013E+02 0.  0.
        -11    1    1    2    0    0  0.12688356579E+03  0.23526405703E+03  0.12390381951E+03  0.29461970790E+03  0.00000000000E+00 0. -1.
         11    1    1    2    0    0  0.21143297038E+03 -0.90723451629E+02 -0.21475484439E+03  0.31472891324E+03  0.00000000000E+00 0.  1.
        -15    1    3    3    0    0 -0.19593579781E+03 -0.11784244305E+03  0.90140188797E+02  0.24577650338E+03  0.17770000000E+01 0.  1.
         15    1    3    3    0    0 -0.14238073836E+03 -0.26698162352E+02  0.71083608052E+00  0.14487487548E+03  0.17770000000E+01 0. -1.
</event>
<event>
 7    1  0.2024888E-007  0.3149162E+03  0.7546771E-02  0.9947745E-01
        -11   -1    0    0    0    0  0.00000000000E+00  0.00000000000E+00  0.50000000000E+03  0.50000000000E+03  0.00000000000E+00 0. -1.
         11   -1    0    0    0    0 -0.00000000000E+00 -0.00000000000E+00 -0.50000000000E+03  0.50000000000E+03  0.00000000000E+00 0. -1.
         23    2    1    2    0    0  0.21268351398E+03  0.15520137060E+02 -0.24289893006E+03  0.33561059456E+03  0.90329558730E+02 0.  0.
        -11    1    1    2    0    0 -0.28608416566E+03 -0.63991970574E+02 -0.10050128826E+03  0.30990261548E+03  0.00000000000E+00 0. -1.
         11    1    1    2    0    0  0.73400651679E+02  0.48471833513E+02  0.34340021832E+03  0.35448678996E+03  0.00000000000E+00 0. -1.
        -15    1    3    3    0    0  0.16478921081E+03 -0.27386944755E+02 -0.16895079088E+03  0.23759851895E+03  0.17770000000E+01 0. -1.
         15    1    3    3    0    0  0.47894303172E+02  0.42907081815E+02 -0.73948139185E+02  0.98012075603E+02  0.17770000000E+01 0.  1.
</event>
<event>
 7    1  0.2024888E-007  0.4177356E+03  0.7546771E-02  0.9605402E-01
        -11   -1    0    0    0    0  0.00000000000E+00  0.00000000000E+00  0.50000000000E+03  0.50000000000E+03  0.00000000000E+00 0. -1.
         11   -1    0    0    0    0 -0.00000000000E+00 -0.00000000000E+00 -0.50000000000E+03  0.50000000000E+03  0.00000000000E+00 0.  1.
         23    2    1    2    0    0 -0.30757021671E+02  0.52200606034E+02  0.10950430941E+03  0.15520757870E+03  0.91800332547E+02 0.  0.
        -11    1    1    2    0    0 -0.39954561118E+02  0.38790395601E+03 -0.22299305864E+02  0.39059327322E+03  0.00000000000E+00 0. -1.
         11    1    1    2    0    0  0.70711582789E+02 -0.44010456204E+03 -0.87205003545E+02  0.45419914808E+03  0.00000000000E+00 0.  1.
        -15    1    3    3    0    0  0.21115974325E+02 -0.11434977098E+02  0.44022455009E+02  0.50177458554E+02  0.17770000000E+01 0.  1.
         15    1    3    3    0    0 -0.51872995996E+02  0.63635583132E+02  0.65481854400E+02  0.10503012015E+03  0.17770000000E+01 0. -1.
</event>
<event>
 7    1  0.2024888E-007  0.5145632E+03  0.7546771E-02  0.9367800E-01
        -11   -1    0    0    0    0  0.00000000000E+00  0.00000000000E+00  0.50000000000E+03  0.50000000000E+03  0.00000000000E+00 0.  1.
         11   -1    0    0    0    0 -0.00000000000E+00 -0.00000000000E+00 -0.50000000000E+03  0.50000000000E+03  0.00000000000E+00 0.  1.
         23    2    1    2    0    0  0.22388071171E+03 -0.11283231647E+03 -0.11279794754E+03  0.28951932244E+03  0.90798438216E+02 0.  0.
        -11    1    1    2    0    0  0.10310827431E+03 -0.15905238606E+03 -0.12130850610E+03  0.22504384327E+03  0.00000000000E+00 0.  1.
         11    1    1    2    0    0 -0.32698898602E+03  0.27188470253E+03  0.23410645364E+03  0.48543683429E+03  0.00000000000E+00 0.  1.
        -15    1    3    3    0    0  0.46568271992E+02 -0.34896300030E+02 -0.70194730482E+02  0.91196565881E+02  0.17770000000E+01 0. -1.
         15    1    3    3    0    0  0.17731243972E+03 -0.77936016435E+02 -0.42603217057E+02  0.19832275656E+03  0.17770000000E+01 0.  1.
</event>
<event>
 7    1  0.2024888E-007  0.3231060E+03  0.7546771E-02  0.9915613E-01
        -11   -1    0    0    0    0  0.00000000000E+00  0.00000000000E+00  0.50000000000E+03  0.50000000000E+03  0.00000000000E+00 0. -1.
         11   -1    0    0    0    0 -0.00000000000E+00 -0.00000000000E+00 -0.50000000000E+03  0.50000000000E+03  0.00000000000E+00 0. -1.
         23    2    1    2    0    0  0.80192640042E+02  0.11082480885E+03 -0.24575553288E+03  0.29523142524E+03  0.89737476777E+02 0.  0.
        -11    1    1    2    0    0  0.20508610133E+02  0.12720884912E+03  0.38864039548E+03  0.40944358754E+03  0.00000000000E+00 0. -1.
         11    1    1    2    0    0 -0.10070125017E+03 -0.23803365797E+03 -0.14288486260E+03  0.29532498722E+03  0.00000000000E+00 0. -1.
        -15    1    3    3    0    0  0.26768458315E+02  0.10252614335E+03 -0.13207834124E+03  0.16933991374E+03  0.17770000000E+01 0. -1.
         15    1    3    3    0    0  0.53424181727E+02  0.82986655011E+01 -0.11367719163E+03  0.12589151151E+03  0.17770000000E+01 0.  1.
</event>
<event>
 7    1  0.2024888E-007  0.3573974E+03  0.7546771E-02  0.9791395E-01
        -11   -1    0    0    0    0  0.00000000000E+00  0.00000000000E+00  0.50000000000E+03  0.50000000000E+03  0.00000000000E+00 0.  1.
         11   -1    0    0    0    0 -0.00000000000E+00 -0.00000000000E+00 -0.50000000000E+03  0.50000000000E+03  0.00000000000E+00 0. -1.
         23    2    1    2    0    0 -0.10667133899E+03  0.99108408254E+02 -0.24614812907E+03  0.30022539372E+03  0.91351707384E+02 0.  0.
        -11    1    1    2    0    0  0.63608762795E+02 -0.34674277411E+03  0.27454641744E+03  0.44682475472E+03  0.00000000000E+00 0.  1.
         11    1    1    2    0    0  0.43062576198E+02  0.24763436586E+03 -0.28398288374E+02  0.25294985156E+03  0.00000000000E+00 0. -1.
        -15    1    3    3    0    0  0.73419063926E+01  0.34612951026E+01 -0.66133891752E+02  0.66653833502E+02  0.17770000000E+01 0.  1.
         15    1    3    3    0    0 -0.11401324539E+03  0.95647113152E+02 -0.18001423731E+03  0.23357156022E+03  0.17770000000E+01 0. -1.
</event>
<event>
 7    1  0.2024888E-007  0.4208134E+03  0.7546771E-02  0.9596827E-01
        -11   -1    0    0    0    0  0.00000000000E+00  0.00000000000E+00  0.50000000000E+03  0.50000000000E+03  0.00000000000E+00 0. -1.
         11   -1    0    0    0    0 -0.00000000000E+00 -0.00000000000E+00 -0.50000000000E+03  0.50000000000E+03  0.00000000000E+00 0.  1.
         23    2    1    2    0    0 -0.18003166638E+02 -0.10625355926E+03 -0.51165523792E+02  0.14996019209E+03  0.90863719497E+02 0.  0.
        -11    1    1    2    0    0  0.10446201505E+03  0.41331387209E+03 -0.17308175245E+03  0.46010646863E+03  0.00000000000E+00 0.  1.
         11    1    1    2    0    0 -0.86458848410E+02 -0.30706031283E+03  0.22424727624E+03  0.38993333928E+03  0.00000000000E+00 0. -1.
        -15    1    3    3    0    0  0.17116162111E+02 -0.69670402652E+02  0.77771640563E+01  0.72184278211E+02  0.17770000000E+01 0. -1.
         15    1    3    3    0    0 -0.35119328749E+02 -0.36583156611E+02 -0.58942687848E+02  0.77775913875E+02  0.17770000000E+01 0.  1.
</event>
<event>
 7    1  0.2024888E-007  0.3869039E+03  0.7546771E-02  0.9695907E-01
        -11   -1    0    0    0    0  0.00000000000E+00  0.00000000000E+00  0.50000000000E+03  0.50000000000E+03  0.00000000000E+00 0. -1.
         11   -1    0    0    0    0 -0.00000000000E+00 -0.00000000000E+00 -0.50000000000E+03  0.50000000000E+03  0.00000000000E+00 0. -1.
         23    2    1    2    0    0  0.47307220079E+01 -0.21567877641E+03  0.33773351135E+03  0.41100920319E+03  0.91241032951E+02 0.  0.
        -11    1    1    2    0    0 -0.19753069507E+03  0.15396613555E+03 -0.28578437603E+03  0.37999559994E+03  0.00000000000E+00 0. -1.
         11    1    1    2    0    0  0.19279997306E+03  0.61712640852E+02 -0.51949135317E+02  0.20899519687E+03  0.00000000000E+00 0. -1.
        -15    1    3    3    0    0  0.27860211982E+02 -0.16614479567E+03  0.19247003189E+03  0.25578927938E+03  0.17770000000E+01 0. -1.
         15    1    3    3    0    0 -0.23129489974E+02 -0.49533980734E+02  0.14526347945E+03  0.15521992380E+03  0.17770000000E+01 0.  1.
</event>
<event>
 7    1  0.2024888E-007  0.3842645E+03  0.7546771E-02  0.9704072E-01
        -11   -1    0    0    0    0  0.00000000000E+00  0.00000000000E+00  0.50000000000E+03  0.50000000000E+03  0.00000000000E+00 0.  1.
         11   -1    0    0    0    0 -0.00000000000E+00 -0.00000000000E+00 -0.50000000000E+03  0.50000000000E+03  0.00000000000E+00 0. -1.
         23    2    1    2    0    0 -0.17527676871E+02  0.18181691730E+03  0.46346784265E+02  0.20870392274E+03  0.89692207497E+02 0.  0.
        -11    1    1    2    0    0  0.26806413857E+03 -0.13343434879E+03  0.25721016308E+03  0.39474064373E+03  0.00000000000E+00 0.  1.
         11    1    1    2    0    0 -0.25053646170E+03 -0.48382568502E+02 -0.30355694734E+03  0.39655543352E+03  0.00000000000E+00 0. -1.
        -15    1    3    3    0    0 -0.49333727241E+01  0.16318398492E+02 -0.23108900576E+02  0.28771640736E+02  0.17770000000E+01 0.  1.
         15    1    3    3    0    0 -0.12594304147E+02  0.16549851880E+03  0.69455684841E+02  0.17993228201E+03  0.17770000000E+01 0. -1.
</event>
<event>
 7    1  0.2024888E-007  0.3734081E+03  0.7546771E-02  0.9738408E-01
        -11   -1    0    0    0    0  0.00000000000E+00  0.00000000000E+00  0.50000000000E+03  0.50000000000E+03  0.00000000000E+00 0.  1.
         11   -1    0    0    0    0 -0.00000000000E+00 -0.00000000000E+00 -0.50000000000E+03  0.50000000000E+03  0.00000000000E+00 0.  1.
         23    2    1    2    0    0 -0.23676545486E+02  0.67103427789E+02  0.19445325708E+03  0.22500962799E+03  0.88055747528E+02 0.  0.
        -11    1    1    2    0    0  0.13474183806E+03  0.28241709195E+03 -0.25452812730E+03  0.40336006785E+03  0.00000000000E+00 0.  1.
         11    1    1    2    0    0 -0.11106529257E+03 -0.34952051974E+03  0.60074870224E+02  0.37163030416E+03  0.00000000000E+00 0.  1.
        -15    1    3    3    0    0  0.26337510007E+01 -0.53703284319E+01  0.11176125702E+03  0.11193530887E+03  0.17770000000E+01 0. -1.
         15    1    3    3    0    0 -0.26310296487E+02  0.72473756221E+02  0.82692000057E+02  0.11307431912E+03  0.17770000000E+01 0.  1.
</event>
<event>
 7    1  0.2024888E-007  0.5118604E+03  0.7546771E-02  0.9373655E-01
        -11   -1    0    0    0    0  0.00000000000E+00  0.00000000000E+00  0.50000000000E+03  0.50000000000E+03  0.00000000000E+00 0. -1.
         11   -1    0    0    0    0 -0.00000000000E+00 -0.00000000000E+00 -0.50000000000E+03  0.50000000000E+03  0.00000000000E+00 0.  1.
         23    2    1    2    0    0  0.24504651621E+03 -0.35896275884E+01 -0.20854652419E+03  0.33456171026E+03  0.91537995857E+02 0.  0.
        -11    1    1    2    0    0 -0.38214964617E+03  0.76823028682E+02  0.29383685709E+03  0.48813955831E+03  0.00000000000E+00 0. -1.
         11    1    1    2    0    0  0.13710312996E+03 -0.73233401094E+02 -0.85290332904E+02  0.17729873143E+03  0.00000000000E+00 0.  1.
        -15    1    3    3    0    0  0.23841180477E+03 -0.21214715943E+02 -0.20535280403E+03  0.31537784431E+03  0.17770000000E+01 0.  1.
         15    1    3    3    0    0  0.66347114378E+01  0.17625088354E+02 -0.31937201602E+01  0.19183865951E+02  0.17770000000E+01 0. -1.
</event>
<event>
 7    1  0.2024888E-007  0.5380885E+03  0.7546771E-02  0.9318398E-01
        -11   -1    0    0    0    0  0.00000000000E+00  0.00000000000E+00  0.50000000000E+03  0.50000000000E+03  0.00000000000E+00 0. -1.
         11   -1    0    0    0    0 -0.00000000000E+00 -0.00000000000E+00 -0.50000000000E+03  0.50000000000E+03  0.00000000000E+00 0. -1.
         23    2    1    2    0    0 -0.10469883386E+03 -0.71187783136E+02  0.61045242196E+02  0.16762605625E+03  0.91336886643E+02 0.  0.
        -11    1    1    2    0    0  0.16942187624E+03  0.42967204720E+03  0.63522122246E+01  0.46191145352E+03  0.00000000000E+00 0. -1.
         11    1    1    2    0    0 -0.64723042380E+02 -0.35848426407E+03 -0.67397454421E+02  0.37046249022E+03  0.00000000000E+00 0. -1.
        -15    1    3    3    0    0 -0.22283467470E+02  0.22208991543E+02  0.10985142239E+02  0.33370994994E+02  0.17770000000E+01 0.  1.
         15    1    3    3    0    0 -0.82415366388E+02 -0.93396774679E+02  0.50060099957E+02  0.13425506126E+03  0.17770000000E+01 0. -1.
</event>
<event>
 7    1  0.2024888E-007  0.3231850E+03  0.7546771E-02  0.9915308E-01
        -11   -1    0    0    0    0  0.00000000000E+00  0.00000000000E+00  0.50000000000E+03  0.50000000000E+03  0.00000000000E+00 0.  1.
         11   -1    0    0    0    0 -0.00000000000E+00 -0.00000000000E+00 -0.50000000000E+03  0.50000000000E+03  0.00000000000E+00 0. -1.
         23    2    1    2    0    0  0.11231550447E+03  0.71650473028E+02  0.31933848626E+03  0.35812959139E+03  0.92364346966E+02 0.  0.
        -11    1    1    2    0    0 -0.20841119092E+03 -0.21412239348E+03 -0.23482287638E+02  0.29972494345E+03  0.00000000000E+00 0.  1.
         11    1    1    2    0    0  0.96095686452E+02  0.14247192045E+03 -0.29585619862E+03  0.34214546517E+03  0.00000000000E+00 0. -1.
        -15    1    3    3    0    0  0.23424279896E+01  0.63729677456E+01  0.12672367821E+03  0.12691788698E+03  0.17770000000E+01 0. -1.
         15    1    3    3    0    0  0.10997307648E+03  0.65277505283E+02  0.19261480805E+03  0.23121170441E+03  0.17770000000E+01 0.  1.
</event>
<event>
 7    1  0.2024888E-007  0.5112980E+03  0.7546771E-02  0.9374878E-01
        -11   -1    0    0    0    0  0.00000000000E+00  0.00000000000E+00  0.50000000000E+03  0.50000000000E+03  0.00000000000E+00 0. -1.
         11   -1    0    0    0    0 -0.00000000000E+00 -0.00000000000E+00 -0.50000000000E+03  0.50000000000E+03  0.00000000000E+00 0. -1.
         23    2    1    2    0    0 -0.28535203113E+02 -0.24919433100E+02 -0.19408479320E+03  0.21953948310E+03  0.95359539234E+02 0.  0.
        -11    1    1    2    0    0 -0.47482976284E+02 -0.31580323964E+01 -0.28785142003E+03  0.29175854096E+03  0.00000000000E+00 0. -1.
         11    1    1    2    0    0  0.76018179397E+02  0.28077465496E+02  0.48193621324E+03  0.48870197595E+03  0.00000000000E+00 0. -1.
        -15    1    3    3    0    0 -0.32421239507E+01  0.35518899559E+01 -0.17814128244E+03  0.17821504294E+03  0.17770000000E+01 0.  1.
         15    1    3    3    0    0 -0.25293079162E+02 -0.28471323056E+02 -0.15943510760E+02  0.41324440158E+02  0.17770000000E+01 0. -1.
</event>
<event>
 7    1  0.2024888E-007  0.3543822E+03  0.7546771E-02  0.9801706E-01
        -11   -1    0    0    0    0  0.00000000000E+00  0.00000000000E+00  0.50000000000E+03  0.50000000000E+03  0.00000000000E+00 0. -1.
         11   -1    0    0    0    0 -0.00000000000E+00 -0.00000000000E+00 -0.50000000000E+03  0.50000000000E+03  0.00000000000E+00 0. -1.
         23    2    1    2    0    0  0.24283660787E+02 -0.22442953801E+03 -0.67830633912E+02  0.25306882731E+03  0.92111469142E+02 0.  0.
        -11    1    1    2    0    0 -0.22055226547E+03  0.34434081536E+03 -0.14470593690E+03  0.43376688106E+03  0.00000000000E+00 0. -1.
         11    1    1    2    0    0  0.19626860468E+03 -0.11991127735E+03  0.21253657081E+03  0.31316429163E+03  0.00000000000E+00 0. -1.
        -15    1    3    3    0    0  0.17543153036E+00  0.68008249545E+01 -0.12095767616E+02  0.13990972786E+02  0.17770000000E+01 0.  1.
         15    1    3    3    0    0  0.24108229257E+02 -0.23123036296E+03 -0.55734866296E+02  0.23907785453E+03  0.17770000000E+01 0. -1.
</event>
<event>
 7    1  0.2024888E-007  0.5252959E+03  0.7546771E-02  0.9344922E-01
        -11   -1    0    0    0    0  0.00000000000E+00  0.00000000000E+00  0.50000000000E+03  0.50000000000E+03  0.00000000000E+00 0.  1.
         11   -1    0    0    0    0 -0.00000000000E+00 -0.00000000000E+00 -0.50000000000E+03  0.50000000000E+03  0.00000000000E+00 0.  1.
         23    2    1    2    0    0  0.15663826974E+03  0.15300123417E+03 -0.22842164628E+03  0.32718875588E+03  0.83253277886E+02 0.  0.
        -11    1    1    2    0    0 -0.31204735293E+03 -0.10562657626E+03  0.34177987689E+03  0.47470412715E+03  0.00000000000E+00 0.  1.
         11    1    1    2    0    0  0.15540908319E+03 -0.47374657905E+02 -0.11335823061E+03  0.19810711698E+03  0.00000000000E+00 0.  1.
        -15    1    3    3    0    0  0.13803318408E+03  0.14134079068E+03 -0.23215754002E+03  0.30484530525E+03  0.17770000000E+01 0.  1.
         15    1    3    3    0    0  0.18605085658E+02  0.11660443492E+02  0.37358937406E+01  0.22343450625E+02  0.17770000000E+01 0. -1.
</event>
<event>
 7    1  0.2024888E-007  0.5374021E+03  0.7546771E-02  0.9319801E-01
        -11   -1    0    0    0    0  0.00000000000E+00  0.00000000000E+00  0.50000000000E+03  0.50000000000E+03  0.00000000000E+00 0. -1.
         11   -1    0    0    0    0 -0.00000000000E+00 -0.00000000000E+00 -0.50000000000E+03  0.50000000000E+03  0.00000000000E+00 0. -1.
         23    2    1    2    0    0  0.85866796822E+02 -0.24608434484E+03 -0.21094506729E+03  0.34757328959E+03  0.91535559520E+02 0.  0.
        -11    1    1    2    0    0  0.38478135133E+02  0.36514097648E+02 -0.18226665613E+03  0.18982881801E+03  0.00000000000E+00 0. -1.
         11    1    1    2    0    0 -0.12434493195E+03  0.20957024719E+03  0.39321172342E+03  0.46259789239E+03  0.00000000000E+00 0. -1.
        -15    1    3    3    0    0 -0.14867693887E+02 -0.64970672981E+01 -0.13177575339E+02  0.20977760266E+02  0.17770000000E+01 0.  1.
         15    1    3    3    0    0  0.10073449071E+03 -0.23958727754E+03 -0.19776749195E+03  0.32659552933E+03  0.17770000000E+01 0. -1.
</event>
<event>
 7    1  0.2024888E-007  0.3767667E+03  0.7546771E-02  0.9727654E-01
        -11   -1    0    0    0    0  0.00000000000E+00  0.00000000000E+00  0.50000000000E+03  0.50000000000E+03  0.00000000000E+00 0.  1.
         11   -1    0    0    0    0 -0.00000000000E+00 -0.00000000000E+00 -0.50000000000E+03  0.50000000000E+03  0.00000000000E+00 0. -1.
         23    2    1    2    0    0  0.33407048804E+02 -0.68968787455E+01  0.19490692745E+03  0.22092052024E+03  0.98252572748E+02 0.  0.
        -11    1    1    2    0    0 -0.56204495373E+02 -0.33604268972E+03  0.66661515832E+02  0.34717055219E+03  0.00000000000E+00 0.  1.
         11    1    1    2    0    0  0.22797446570E+02  0.34293956847E+03 -0.26156844328E+03  0.43190892757E+03  0.00000000000E+00 0. -1.
        -15    1    3    3    0    0  0.34457998526E+02 -0.11060726720E+02  0.20585886506E+03  0.20902326040E+03  0.17770000000E+01 0.  1.
         15    1    3    3    0    0 -0.10509497221E+01  0.41638479749E+01 -0.10951937610E+02  0.11897259840E+02  0.17770000000E+01 0. -1.
</event>
<event>
 7    1  0.2024888E-007  0.4540037E+03  0.7546771E-02  0.9509053E-01
        -11   -1    0    0    0    0  0.00000000000E+00  0.00000000000E+00  0.50000000000E+03  0.50000000000E+03  0.00000000000E+00 0. -1.
         11   -1    0    0    0    0 -0.00000000000E+00 -0.00000000000E+00 -0.50000000000E+03  0.50000000000E+03  0.00000000000E+00 0.  1.
         23    2    1    2    0    0 -0.99731358857E+02  0.10445858608E+03  0.40350134622E+03  0.43754196248E+03  0.88157202669E+02 0.  0.
        -11    1    1    2    0    0  0.72727204937E+02 -0.26524844228E+02  0.56043346708E+02  0.95570238095E+02  0.00000000000E+00 0. -1.
         11    1    1    2    0    0  0.27004153920E+02 -0.77933741851E+02 -0.45954469293E+03  0.46688779942E+03  0.00000000000E+00 0.  1.
        -15    1    3    3    0    0 -0.53762695135E+02  0.99772780215E+00  0.99071865548E+02  0.11273781584E+03  0.17770000000E+01 0.  1.
         15    1    3    3    0    0 -0.45968663722E+02  0.10346085828E+03  0.30442948068E+03  0.32480414664E+03  0.17770000000E+01 0. -1.
</event>
<event>
 7    1  0.2024888E-007  0.3482010E+03  0.7546771E-02  0.9823193E-01
        -11   -1    0    0    0    0  0.00000000000E+00  0.00000000000E+00  0.50000000000E+03  0.50000000000E+03  0.00000000000E+00 0. -1.
         11   -1    0    0    0    0 -0.00000000000E+00 -0.00000000000E+00 -0.50000000000E+03  0.50000000000E+03  0.00000000000E+00 0. -1.
         23    2    1    2    0    0  0.16047271590E+02 -0.11389919360E+03  0.21617491171E+03  0.26180093666E+03  0.92615315969E+02 0.  0.
        -11    1    1    2    0    0 -0.25662226627E+03 -0.12603062247E+03 -0.27112640107E+03  0.39401552089E+03  0.00000000000E+00 0. -1.
         11    1    1    2    0    0  0.24057499469E+03  0.23992981608E+03  0.54951489357E+02  0.34418354245E+03  0.00000000000E+00 0. -1.
        -15    1    3    3    0    0  0.27368427629E+02 -0.51434219040E+01  0.12397975106E+02  0.30534458166E+02  0.17770000000E+01 0.  1.
         15    1    3    3    0    0 -0.11321156040E+02 -0.10875577170E+03  0.20377693661E+03  0.23126647849E+03  0.17770000000E+01 0. -1.
</event>
<event>
 7    1  0.2024888E-007  0.3748090E+03  0.7546771E-02  0.9733908E-01
        -11   -1    0    0    0    0  0.00000000000E+00  0.00000000000E+00  0.50000000000E+03  0.50000000000E+03  0.00000000000E+00 0. -1.
         11   -1    0    0    0    0 -0.00000000000E+00 -0.00000000000E+00 -0.50000000000E+03  0.50000000000E+03  0.00000000000E+00 0. -1.
         23    2    1    2    0    0  0.48700175257E+01 -0.66436021813E+02 -0.19272296227E+03  0.22314302366E+03  0.90626744166E+02 0.  0.
        -11    1    1    2    0    0 -0.25727606799E+03 -0.22955355105E+03  0.47664051822E+01  0.34483115662E+03  0.00000000000E+00 0. -1.
         11    1    1    2    0    0  0.25240605046E+03  0.29598957286E+03  0.18795655708E+03  0.43202581972E+03  0.00000000000E+00 0. -1.
        -15    1    3    3    0    0  0.10776133557E+02  0.20801046121E+02 -0.57376055539E+02  0.61999823002E+02  0.17770000000E+01 0. -1.
         15    1    3    3    0    0 -0.59061160316E+01 -0.87237067934E+02 -0.13534690673E+03  0.16114320066E+03  0.17770000000E+01 0.  1.
</event>
<event>
 7    1  0.2024888E-007  0.4072696E+03  0.7546771E-02  0.9635162E-01
        -11   -1    0    0    0    0  0.00000000000E+00  0.00000000000E+00  0.50000000000E+03  0.50000000000E+03  0.00000000000E+00 0.  1.
         11   -1    0    0    0    0 -0.00000000000E+00 -0.00000000000E+00 -0.50000000000E+03  0.50000000000E+03  0.00000000000E+00 0. -1.
         23    2    1    2    0    0  0.79984321374E+02  0.46514323156E+02  0.11390092184E+03  0.17234755145E+03  0.90383541489E+02 0.  0.
        -11    1    1    2    0    0  0.53172089413E+02 -0.37039464244E+03  0.13524401802E+03  0.39788240304E+03  0.00000000000E+00 0.  1.
         11    1    1    2    0    0 -0.13315641079E+03  0.32388031928E+03 -0.24914493986E+03  0.42977004550E+03  0.00000000000E+00 0. -1.
        -15    1    3    3    0    0 -0.18113329254E+02  0.80620998278E+01  0.36575086544E+02  0.41641143536E+02  0.17770000000E+01 0. -1.
         15    1    3    3    0    0  0.98097650628E+02  0.38452223328E+02  0.77325835293E+02  0.13070640792E+03  0.17770000000E+01 0.  1.
</event>
<event>
 7    1  0.2024888E-007  0.4329649E+03  0.7546771E-02  0.9563721E-01
        -11   -1    0    0    0    0  0.00000000000E+00  0.00000000000E+00  0.50000000000E+03  0.50000000000E+03  0.00000000000E+00 0.  1.
         11   -1    0    0    0    0 -0.00000000000E+00 -0.00000000000E+00 -0.50000000000E+03  0.50000000000E+03  0.00000000000E+00 0. -1.
         23    2    1    2    0    0  0.13031392908E+02  0.88698886208E+02  0.81178173925E+01  0.12940387813E+03  0.92963192183E+02 0.  0.
        -11    1    1    2    0    0  0.21074843192E+03 -0.20100296944E+03 -0.34459797938E+03  0.45118162936E+03  0.00000000000E+00 0. -1.
         11    1    1    2    0    0 -0.22377982482E+03  0.11230408323E+03  0.33648016199E+03  0.41941449250E+03  0.00000000000E+00 0.  1.
        -15    1    3    3    0    0  0.13436110821E+02 -0.15147803839E+02 -0.12009862634E+02  0.23608887408E+02  0.17770000000E+01 0.  1.
         15    1    3    3    0    0 -0.40471791314E+00  0.10384669005E+03  0.20127680027E+02  0.10579499073E+03  0.17770000000E+01 0. -1.
</event>
<event>
 7    1  0.2024888E-007  0.4272422E+03  0.7546771E-02  0.9579166E-01
        -11   -1    0    0    0    0  0.00000000000E+00  0.00000000000E+00  0.50000000000E+03  0.50000000000E+03  0.00000000000E+00 0.  1.
         11   -1    0    0    0    0 -0.00000000000E+00 -0.00000000000E+00 -0.50000000000E+03  0.50000000000E+03  0.00000000000E+00 0.  1.
         23    2    1    2    0    0 -0.99820191240E+02  0.11816981634E+03  0.37500436687E+03  0.41588127304E+03  0.91655780056E+02 0.  0.
        -11    1    1    2    0    0 -0.14524261774E+02  0.13822000092E+03 -0.35237498216E+02  0.14337853436E+03  0.00000000000E+00 0.  1.
         11    1    1    2    0    0  0.11434445301E+03 -0.25638981727E+03 -0.33976686866E+03  0.44074019260E+03  0.00000000000E+00 0.  1.
        -15    1    3    3    0    0 -0.11272362824E+03  0.11745715568E+03  0.31625346976E+03  0.35569961294E+03  0.17770000000E+01 0.  1.
         15    1    3    3    0    0  0.12903436998E+02  0.71266066608E+00  0.58750897111E+02  0.60181660096E+02  0.17770000000E+01 0. -1.
</event>
<event>
 7    1  0.2024888E-007  0.5209255E+03  0.7546771E-02  0.9354167E-01
        -11   -1    0    0    0    0  0.00000000000E+00  0.00000000000E+00  0.50000000000E+03  0.50000000000E+03  0.00000000000E+00 0.  1.
         11   -1    0    0    0    0 -0.00000000000E+00 -0.00000000000E+00 -0.50000000000E+03  0.50000000000E+03  0.00000000000E+00 0. -1.
         23    2    1    2    0    0 -0.13262993909E+03 -0.10446191310E+03 -0.16446957922E+03  0.25286240797E+03  0.91575994910E+02 0.  0.
        -11    1    1    2    0    0  0.21810145948E+03  0.85713091544E+02  0.41784856134E+03  0.47907452541E+03  0.00000000000E+00 0.  1.
         11    1    1    2    0    0 -0.85471520389E+02  0.18748821555E+02 -0.25337898211E+03  0.26806306662E+03  0.00000000000E+00 0. -1.
        -15    1    3    3    0    0 -0.89944070964E+02 -0.86690834344E+02 -0.16453384992E+03  0.20659085691E+03  0.17770000000E+01 0. -1.
         15    1    3    3    0    0 -0.42685868125E+02 -0.17771078756E+02  0.64270696740E-01  0.46271551059E+02  0.17770000000E+01 0.  1.
</event>
<event>
 7    1  0.2024888E-007  0.5358380E+03  0.7546771E-02  0.9323007E-01
        -11   -1    0    0    0    0  0.00000000000E+00  0.00000000000E+00  0.50000000000E+03  0.50000000000E+03  0.00000000000E+00 0. -1.
         11   -1    0    0    0    0 -0.00000000000E+00 -0.00000000000E+00 -0.50000000000E+03  0.50000000000E+03  0.00000000000E+00 0.  1.
         23    2    1    2    0    0  0.15893978477E+02  0.30108672918E+02 -0.10766671588E+02  0.10260049232E+03  0.96186220788E+02 0.  0.
        -11    1    1    2    0    0 -0.48189523830E+02 -0.34819830254E+03  0.30312049699E+03  0.46416195858E+03  0.00000000000E+00 0. -1.
         11    1    1    2    0    0  0.32295545353E+02  0.31808962963E+03 -0.29235382540E+03  0.43323754910E+03  0.00000000000E+00 0.  1.
        -15    1    3    3    0    0 -0.30826275678E+02  0.35397057873E+01 -0.32161548138E+02  0.44724844291E+02  0.17770000000E+01 0. -1.
         15    1    3    3    0    0  0.46720254155E+02  0.26568967130E+02  0.21394876550E+02  0.57875648024E+02  0.17770000000E+01 0.  1.
</event>
<event>
 7    1  0.2248387E-007  0.3475857E+03  0.7546771E-02  0.9825358E-01
        -11   -1    0    0    0    0  0.00000000000E+00  0.00000000000E+00  0.50000000000E+03  0.50000000000E+03  0.00000000000E+00 0.  1.
         11   -1    0    0    0    0 -0.00000000000E+00 -0.00000000000E+00 -0.50000000000E+03  0.50000000000E+03  0.00000000000E+00 0.  1.
         23    2    1    2    0    0  0.15802925494E+02  0.23919818170E+02  0.27393268703E+03  0.29066889638E+03  0.92883799141E+02 0.  0.
        -11    1    1    2    0    0  0.61205935342E+02  0.25227288622E+03  0.62782465312E+02  0.26707567016E+03  0.00000000000E+00 0.  1.
         11    1    1    2    0    0 -0.77008860837E+02 -0.27619270439E+03 -0.33671515234E+03  0.44225543346E+03  0.00000000000E+00 0.  1.
        -15    1    3    3    0    0 -0.11716704774E+02 -0.25374911626E+02  0.17080580926E+03  0.17308653765E+03  0.17770000000E+01 0.  1.
         15    1    3    3    0    0  0.27519630269E+02  0.49294729796E+02  0.10312687777E+03  0.11758235873E+03  0.17770000000E+01 0. -1.
</event>
<event>
 7    1  0.2024888E-007  0.4398621E+03  0.7546771E-02  0.9545441E-01
        -11   -1    0    0    0    0  0.00000000000E+00  0.00000000000E+00  0.50000000000E+03  0.50000000000E+03  0.00000000000E+00 0.  1.
         11   -1    0    0    0    0 -0.00000000000E+00 -0.00000000000E+00 -0.50000000000E+03  0.50000000000E+03  0.00000000000E+00 0. -1.
         23    2    1    2    0    0  0.52233684903E+02  0.21064772980E+02  0.40384745868E+03  0.41770131362E+03  0.90606484399E+02 0.  0.
        -11    1    1    2    0    0 -0.16011585568E+03  0.27018484215E+02 -0.43145770461E+03  0.46100199197E+03  0.00000000000E+00 0. -1.
         11    1    1    2    0    0  0.10788217078E+03 -0.48083257195E+02  0.27610245928E+02  0.12129669441E+03  0.00000000000E+00 0.  1.
        -15    1    3    3    0    0  0.38017877132E+02  0.50480718597E+02  0.34137150544E+03  0.34717621518E+03  0.17770000000E+01 0.  1.
         15    1    3    3    0    0  0.14215807771E+02 -0.29415945617E+02  0.62475953239E+02  0.70525098435E+02  0.17770000000E+01 0. -1.
</event>
<event>
 7    1  0.2024888E-007  0.4127907E+03  0.7546771E-02  0.9619345E-01
        -11   -1    0    0    0    0  0.00000000000E+00  0.00000000000E+00  0.50000000000E+03  0.50000000000E+03  0.00000000000E+00 0.  1.
         11   -1    0    0    0    0 -0.00000000000E+00 -0.00000000000E+00 -0.50000000000E+03  0.50000000000E+03  0.00000000000E+00 0. -1.
         23    2    1    2    0    0 -0.10504997675E+03  0.32767521412E+02 -0.79443583386E+02  0.16333691430E+03  0.90876050506E+02 0.  0.
        -11    1    1    2    0    0 -0.41202407832E+02  0.31813679867E+03  0.26270384005E+03  0.41463474125E+03  0.00000000000E+00 0.  1.
         11    1    1    2    0    0  0.14625238459E+03 -0.35090432008E+03 -0.18326025666E+03  0.42202834445E+03  0.00000000000E+00 0. -1.
        -15    1    3    3    0    0  0.13945351497E+02 -0.88304745050E+01 -0.79519108234E+01  0.18407626765E+02  0.17770000000E+01 0.  1.
         15    1    3    3    0    0 -0.11899532825E+03  0.41597995917E+02 -0.71491672563E+02  0.14492928753E+03  0.17770000000E+01 0. -1.
</event>
<event>
 7    1  0.2024888E-007  0.3932701E+03  0.7546771E-02  0.9676497E-01
        -11   -1    0    0    0    0  0.00000000000E+00  0.00000000000E+00  0.50000000000E+03  0.50000000000E+03  0.00000000000E+00 0. -1.
         11   -1    0    0    0    0 -0.00000000000E+00 -0.00000000000E+00 -0.50000000000E+03  0.50000000000E+03  0.00000000000E+00 0. -1.
         23    2    1    2    0    0  0.66769666162E+02  0.75161176005E+01  0.32328652649E+03  0.34253909522E+03  0.91127236337E+02 0.  0.
        -11    1    1    2    0    0 -0.12834284969E+03 -0.88570955993E+02  0.12369196743E+03  0.19903870005E+03  0.00000000000E+00 0. -1.
         11    1    1    2    0    0  0.61573183529E+02  0.81054838392E+02 -0.44697849392E+03  0.45842220472E+03  0.00000000000E+00 0. -1.
        -15    1    3    3    0    0  0.80444266504E+02  0.20785675401E+02  0.18341184129E+03  0.20136133087E+03  0.17770000000E+01 0. -1.
         15    1    3    3    0    0 -0.13674600342E+02 -0.13269557800E+02  0.13987468520E+03  0.14117776435E+03  0.17770000000E+01 0.  1.
</event>
<event>
 7    1  0.2024888E-007  0.5266232E+03  0.7546771E-02  0.9342133E-01
        -11   -1    0    0    0    0  0.00000000000E+00  0.00000000000E+00  0.50000000000E+03  0.50000000000E+03  0.00000000000E+00 0.  1.
         11   -1    0    0    0    0 -0.00000000000E+00 -0.00000000000E+00 -0.50000000000E+03  0.50000000000E+03  0.00000000000E+00 0. -1.
         23    2    1    2    0    0  0.13932667738E+03  0.14052449682E+03  0.12535037207E+03  0.25145527277E+03  0.91421995116E+02 0.  0.
        -11    1    1    2    0    0  0.54230445885E+02  0.26956814045E+03  0.10462918008E+02  0.27516794192E+03  0.00000000000E+00 0.  1.
         11    1    1    2    0    0 -0.19355712326E+03 -0.41009263727E+03 -0.13581329008E+03  0.47337678531E+03  0.00000000000E+00 0. -1.
        -15    1    3    3    0    0  0.15221802322E+03  0.12853822721E+03  0.10778446897E+03  0.22652384406E+03  0.17770000000E+01 0.  1.
         15    1    3    3    0    0 -0.12891345845E+02  0.11986269611E+02  0.17565903098E+02  0.24931428710E+02  0.17770000000E+01 0. -1.
</event>
<event>
 7    1  0.2024888E-007  0.3970487E+03  0.7546771E-02  0.9665161E-01
        -11   -1    0    0    0    0  0.00000000000E+00  0.00000000000E+00  0.50000000000E+03  0.50000000000E+03  0.00000000000E+00 0.  1.
         11   -1    0    0    0    0 -0.00000000000E+00 -0.00000000000E+00 -0.50000000000E+03  0.50000000000E+03  0.00000000000E+00 0. -1.
         23    2    1    2    0    0 -0.99808734278E+02 -0.28274916758E+02  0.12911774214E+03  0.18881362035E+03  0.90652840758E+02 0.  0.
        -11    1    1    2    0    0 -0.36929560385E+02 -0.17053251749E+03 -0.40720250234E+03  0.44301129767E+03  0.00000000000E+00 0. -1.
         11    1    1    2    0    0  0.13673829466E+03  0.19880743425E+03  0.27808476020E+03  0.36817508199E+03  0.00000000000E+00 0.  1.
        -15    1    3    3    0    0 -0.11211600353E+03 -0.36061464663E+02  0.93808841717E+02  0.15057783367E+03  0.17770000000E+01 0. -1.
         15    1    3    3    0    0  0.12307269248E+02  0.77865479042E+01  0.35308900420E+02  0.38235786673E+02  0.17770000000E+01 0.  1.
</event>
<event>
 7    1  0.2033196E-007  0.4355946E+03  0.7546771E-02  0.9556709E-01
        -11   -1    0    0    0    0  0.00000000000E+00  0.00000000000E+00  0.50000000000E+03  0.50000000000E+03  0.00000000000E+00 0. -1.
         11   -1    0    0    0    0 -0.00000000000E+00 -0.00000000000E+00 -0.50000000000E+03  0.50000000000E+03  0.00000000000E+00 0.  1.
         23    2    1    2    0    0 -0.39020369467E+02 -0.17611650282E+02 -0.76965602928E+02  0.12437053730E+03  0.87815528549E+02 0.  0.
        -11    1    1    2    0    0 -0.22289809077E+03  0.23124052599E+03  0.32459088445E+03  0.45663440737E+03  0.00000000000E+00 0. -1.
         11    1    1    2    0    0  0.26191846023E+03 -0.21362887571E+03 -0.24762528152E+03  0.41899505533E+03  0.00000000000E+00 0.  1.
        -15    1    3    3    0    0 -0.56882231909E+02 -0.39336141010E+02 -0.59233121930E+02  0.91074918387E+02  0.17770000000E+01 0. -1.
         15    1    3    3    0    0  0.17861862442E+02  0.21724490728E+02 -0.17732480998E+02  0.33295618910E+02  0.17770000000E+01 0.  1.
</event>
<event>
 7    1  0.2024888E-007  0.5334892E+03  0.7546771E-02  0.9327843E-01
        -11   -1    0    0    0    0  0.00000000000E+00  0.00000000000E+00  0.50000000000E+03  0.50000000000E+03  0.00000000000E+00 0. -1.
         11   -1    0    0    0    0 -0.00000000000E+00 -0.00000000000E+00 -0.50000000000E+03  0.50000000000E+03  0.00000000000E+00 0. -1.
         23    2    1    2    0    0 -0.96440112787E+01  0.14654068622E+03 -0.11859369622E+02  0.17488127758E+03  0.94210598820E+02 0.  0.
        -11    1    1    2    0    0  0.28956530541E+03 -0.36264839652E+03 -0.47648492399E+02  0.46651077632E+03  0.00000000000E+00 0. -1.
         11    1    1    2    0    0 -0.27992129413E+03  0.21610771030E+03  0.59507862021E+02  0.35860794609E+03  0.00000000000E+00 0. -1.
        -15    1    3    3    0    0 -0.38727335319E+02  0.70956441068E+02 -0.38570519825E+02  0.89584963908E+02  0.17770000000E+01 0.  1.
         15    1    3    3    0    0  0.29083324040E+02  0.75584245154E+02  0.26711150202E+02  0.85296313677E+02  0.17770000000E+01 0. -1.
</event>
<event>
 7    1  0.2024888E-007  0.3693412E+03  0.7546771E-02  0.9751594E-01
        -11   -1    0    0    0    0  0.00000000000E+00  0.00000000000E+00  0.50000000000E+03  0.50000000000E+03  0.00000000000E+00 0. -1.
         11   -1    0    0    0    0 -0.00000000000E+00 -0.00000000000E+00 -0.50000000000E+03  0.50000000000E+03  0.00000000000E+00 0. -1.
         23    2    1    2    0    0  0.22874740396E+02 -0.27359975857E+03 -0.32430699785E+03  0.43440810058E+03  0.90306629679E+02 0.  0.
        -11    1    1    2    0    0 -0.14568502862E+03  0.18214521266E+03  0.31756992094E+02  0.23539225265E+03  0.00000000000E+00 0. -1.
         11    1    1    2    0    0  0.12281028823E+03  0.91454545907E+02  0.29255000575E+03  0.33019964677E+03  0.00000000000E+00 0. -1.
        -15    1    3    3    0    0  0.30468758240E+02 -0.16191579005E+03 -0.12888275207E+03  0.20918649528E+03  0.17770000000E+01 0. -1.
         15    1    3    3    0    0 -0.75940178437E+01 -0.11168396852E+03 -0.19542424578E+03  0.22522160531E+03  0.17770000000E+01 0.  1.
</event>
<event>
 7    1  0.2024888E-007  0.3151628E+03  0.7546771E-02  0.9946762E-01
        -11   -1    0    0    0    0  0.00000000000E+00  0.00000000000E+00  0.50000000000E+03  0.50000000000E+03  0.00000000000E+00 0.  1.
         11   -1    0    0    0    0 -0.00000000000E+00 -0.00000000000E+00 -0.50000000000E+03  0.50000000000E+03  0.00000000000E+00 0. -1.
         23    2    1    2    0    0 -0.16306239921E+03  0.95505750041E+02 -0.22050797193E+03  0.30599363901E+03  0.96424307646E+02 0.  0.
        -11    1    1    2    0    0 -0.40333366677E+02  0.14643920827E+03  0.32692879288E+03  0.36049085675E+03  0.00000000000E+00 0.  1.
         11    1    1    2    0    0  0.20339576589E+03 -0.24194495831E+03 -0.10642082095E+03  0.33351550423E+03  0.00000000000E+00 0. -1.
        -15    1    3    3    0    0 -0.17353769604E+03  0.10035306034E+03 -0.20855379903E+03  0.28928171993E+03  0.17770000000E+01 0.  1.
         15    1    3    3    0    0  0.10475296828E+02 -0.48473103001E+01 -0.11954172900E+02  0.16711919084E+02  0.17770000000E+01 0. -1.
</event>
<event>
 7    1  0.2024888E-007  0.3998634E+03  0.7546771E-02  0.9656805E-01
        -11   -1    0    0    0    0  0.00000000000E+00  0.00000000000E+00  0.50000000000E+03  0.50000000000E+03  0.00000000000E+00 0.  1.
         11   -1    0    0    0    0 -0.00000000000E+00 -0.00000000000E+00 -0.50000000000E+03  0.50000000000E+03  0.00000000000E+00 0. -1.
         23    2    1    2    0    0 -0.21345726723E+02  0.87783454815E+02 -0.35078287956E+03  0.37349123883E+03  0.91024732353E+02 0.  0.
        -11    1    1    2    0    0  0.18152432653E+03 -0.51994434975E+00  0.39855800047E+03  0.43794957610E+03  0.00000000000E+00 0.  1.
         11    1    1    2    0    0 -0.16017859981E+03 -0.87263510466E+02 -0.47775120911E+02  0.18855918507E+03  0.00000000000E+00 0. -1.
        -15    1    3    3    0    0  0.21150715535E+01 -0.13923121896E+02 -0.11187011148E+03  0.11276704493E+03  0.17770000000E+01 0.  1.
         15    1    3    3    0    0 -0.23460798276E+02  0.10170657671E+03 -0.23891276808E+03  0.26072419390E+03  0.17770000000E+01 0. -1.
</event>
<event>
 7    1  0.2024888E-007  0.3709743E+03  0.7546771E-02  0.9746278E-01
        -11   -1    0    0    0    0  0.00000000000E+00  0.00000000000E+00  0.50000000000E+03  0.50000000000E+03  0.00000000000E+00 0. -1.
         11   -1    0    0    0    0 -0.00000000000E+00 -0.00000000000E+00 -0.50000000000E+03  0.50000000000E+03  0.00000000000E+00 0. -1.
         23    2    1    2    0    0  0.79947123897E+02 -0.22315760603E+02 -0.19030744539E+03  0.22954944768E+03  0.97910619273E+02 0.  0.
        -11    1    1    2    0    0 -0.51015652044E+02  0.34285887777E+03  0.26941989542E+03  0.43902378850E+03  0.00000000000E+00 0. -1.
         11    1    1    2    0    0 -0.28931471853E+02 -0.32054311717E+03 -0.79112450029E+02  0.33142676382E+03  0.00000000000E+00 0. -1.
        -15    1    3    3    0    0  0.99312111972E+02 -0.52878229272E+01 -0.12808685366E+03  0.16217353812E+03  0.17770000000E+01 0.  1.
         15    1    3    3    0    0 -0.19364988075E+02 -0.17027937676E+02 -0.62220591730E+02  0.67375909559E+02  0.17770000000E+01 0. -1.
</event>
<event>
 7    1  0.2024888E-007  0.3500162E+03  0.7546771E-02  0.9816834E-01
        -11   -1    0    0    0    0  0.00000000000E+00  0.00000000000E+00  0.50000000000E+03  0.50000000000E+03  0.00000000000E+00 0. -1.
         11   -1    0    0    0    0 -0.00000000000E+00 -0.00000000000E+00 -0.50000000000E+03  0.50000000000E+03  0.00000000000E+00 0.  1.
         23    2    1    2    0    0  0.37757000089E+02 -0.80611659767E+02  0.22592450602E+03  0.25904716460E+03  0.90220398588E+02 0.  0.
        -11    1    1    2    0    0  0.12630492723E+03  0.30754477025E+03 -0.30372717869E+03  0.45031868651E+03  0.00000000000E+00 0.  1.
         11    1    1    2    0    0 -0.16406192732E+03 -0.22693311048E+03  0.77802672668E+02  0.29063414889E+03  0.00000000000E+00 0. -1.
        -15    1    3    3    0    0 -0.22036226453E+02 -0.47259496204E+02  0.59819207492E+02  0.79376007532E+02  0.17770000000E+01 0.  1.
         15    1    3    3    0    0  0.59793226541E+02 -0.33352163563E+02  0.16610529853E+03  0.17967115707E+03  0.17770000000E+01 0. -1.
</event>
<event>
 7    1  0.2024888E-007  0.4619144E+03  0.7546771E-02  0.9489309E-01
        -11   -1    0    0    0    0  0.00000000000E+00  0.00000000000E+00  0.50000000000E+03  0.50000000000E+03  0.00000000000E+00 0. -1.
         11   -1    0    0    0    0 -0.00000000000E+00 -0.00000000000E+00 -0.50000000000E+03  0.50000000000E+03  0.00000000000E+00 0.  1.
         23    2    1    2    0    0  0.66955290295E+02 -0.26088628220E+02  0.45493358113E+03  0.46947525288E+03  0.90988034437E+02 0.  0.
        -11    1    1    2    0    0  0.61358088681E+02  0.47477477664E+02 -0.25258529843E+02  0.81589945838E+02  0.00000000000E+00 0. -1.
         11    1    1    2    0    0 -0.12831337898E+03 -0.21388849444E+02 -0.42967505128E+03  0.44893480128E+03  0.00000000000E+00 0.  1.
        -15    1    3    3    0    0  0.86303124448E+02 -0.35935417941E+02  0.34777272699E+03  0.36012304969E+03  0.17770000000E+01 0. -1.
         15    1    3    3    0    0 -0.19347834153E+02  0.98467897212E+01  0.10716085414E+03  0.10935220319E+03  0.17770000000E+01 0.  1.
</event>
<event>
 7    1  0.2024888E-007  0.3699856E+03  0.7546771E-02  0.9749493E-01
        -11   -1    0    0    0    0  0.00000000000E+00  0.00000000000E+00  0.50000000000E+03  0.50000000000E+03  0.00000000000E+00 0. -1.
         11   -1    0    0    0    0 -0.00000000000E+00 -0.00000000000E+00 -0.50000000000E+03  0.50000000000E+03  0.00000000000E+00 0. -1.
         23    2    1    2    0    0  0.86835208126E+01 -0.43969364967E+02  0.20874624576E+03  0.22984350609E+03  0.85113650983E+02 0.  0.
        -11    1    1    2    0    0  0.32812932145E+03 -0.14083264001E+03 -0.10590214832E+03  0.37244858586E+03  0.00000000000E+00 0. -1.
         11    1    1    2    0    0 -0.33681284226E+03  0.18480200498E+03 -0.10284409743E+03  0.39770790806E+03  0.00000000000E+00 0. -1.
        -15    1    3    3    0    0  0.45972529171E+02 -0.31415394738E+02  0.10482398721E+03  0.11870815679E+03  0.17770000000E+01 0.  1.
         15    1    3    3    0    0 -0.37289008358E+02 -0.12553970229E+02  0.10392225855E+03  0.11113534930E+03  0.17770000000E+01 0. -1.
</event>
<event>
 7    1  0.2024888E-007  0.3829811E+03  0.7546771E-02  0.9708067E-01
        -11   -1    0    0    0    0  0.00000000000E+00  0.00000000000E+00  0.50000000000E+03  0.50000000000E+03  0.00000000000E+00 0. -1.
         11   -1    0    0    0    0 -0.00000000000E+00 -0.00000000000E+00 -0.50000000000E+03  0.50000000000E+03  0.00000000000E+00 0.  1.
         23    2    1    2    0    0 -0.93884173693E+02  0.14031039543E+03 -0.85287707633E+02  0.21103015229E+03  0.93586788405E+02 0.  0.
        -11    1    1    2    0    0 -0.64951467221E+02 -0.43455580238E+03  0.11228383815E+03  0.45350314088E+03  0.00000000000E+00 0. -1.
         11    1    1    2    0    0  0.15883564091E+03  0.29424540695E+03 -0.26996130520E+02  0.33546670684E+03  0.00000000000E+00 0.  1.
        -15    1    3    3    0    0 -0.94347138686E+02  0.87707148215E+02 -0.91518159926E+02  0.15802739557E+03  0.17770000000E+01 0. -1.
         15    1    3    3    0    0  0.46296499286E+00  0.52603247218E+02  0.62304522928E+01  0.53002756713E+02  0.17770000000E+01 0.  1.
</event>
<event>
 7    1  0.2024888E-007  0.4074587E+03  0.7546771E-02  0.9634616E-01
        -11   -1    0    0    0    0  0.00000000000E+00  0.00000000000E+00  0.50000000000E+03  0.50000000000E+03  0.00000000000E+00 0.  1.
         11   -1    0    0    0    0 -0.00000000000E+00 -0.00000000000E+00 -0.50000000000E+03  0.50000000000E+03  0.00000000000E+00 0. -1.
         23    2    1    2    0    0  0.31696919719E+02  0.74982214800E+02 -0.11934038076E+03  0.17237715563E+03  0.94046424958E+02 0.  0.
        -11    1    1    2    0    0  0.29462895950E+03 -0.13086064487E+03  0.30859245237E+03  0.44627349665E+03  0.00000000000E+00 0.  1.
         11    1    1    2    0    0 -0.32632587922E+03  0.55878430070E+02 -0.18925207161E+03  0.38134934772E+03  0.00000000000E+00 0. -1.
        -15    1    3    3    0    0  0.15603880655E+02  0.58949434119E+02 -0.13263803399E+03  0.14599494054E+03  0.17770000000E+01 0.  1.
         15    1    3    3    0    0  0.16093039064E+02  0.16032780681E+02  0.13297653227E+02  0.26382215090E+02  0.17770000000E+01 0. -1.
</event>
<event>
 7    1  0.2024888E-007  0.3371515E+03  0.7546771E-02  0.9862821E-01
        -11   -1    0    0    0    0  0.00000000000E+00  0.00000000000E+00  0.50000000000E+03  0.50000000000E+03  0.00000000000E+00 0. -1.
         11   -1    0    0    0    0 -0.00000000000E+00 -0.00000000000E+00 -0.50000000000E+03  0.50000000000E+03  0.00000000000E+00 0.  1.
         23    2    1    2    0    0  0.11462995087E+03 -0.11716918384E+03  0.28068064518E+03  0.33797039309E+03  0.92594377538E+02 0.  0.
        -11    1    1    2    0    0 -0.26806195103E+03  0.25511577093E+03 -0.89453592717E+02  0.38071408093E+03  0.00000000000E+00 0. -1.
         11    1    1    2    0    0  0.15343200017E+03 -0.13794658709E+03 -0.19122705246E+03  0.28131552598E+03  0.00000000000E+00 0.  1.
        -15    1    3    3    0    0  0.95250573568E+02 -0.11785440804E+03  0.17942422858E+03  0.23485856337E+03  0.17770000000E+01 0.  1.
         15    1    3    3    0    0  0.19379377297E+02  0.68522419754E+00  0.10125641660E+03  0.10311182972E+03  0.17770000000E+01 0. -1.
</event>
<event>
 7    1  0.2024888E-007  0.3233424E+03  0.7546771E-02  0.9914701E-01
        -11   -1    0    0    0    0  0.00000000000E+00  0.00000000000E+00  0.50000000000E+03  0.50000000000E+03  0.00000000000E+00 0. -1.
         11   -1    0    0    0    0 -0.00000000000E+00 -0.00000000000E+00 -0.50000000000E+03  0.50000000000E+03  0.00000000000E+00 0. -1.
         23    2    1    2    0    0  0.13255142823E+03 -0.40379685791E+02 -0.24460672980E+03  0.29485173626E+03  0.88908345860E+02 0.  0.
        -11    1    1    2    0    0 -0.21330002142E+03  0.30975163454E+03  0.10113738383E+03  0.38945056766E+03  0.00000000000E+00 0. -1.
         11    1    1    2    0    0  0.80748593196E+02 -0.26937194875E+03  0.14346934597E+03  0.31569769608E+03  0.00000000000E+00 0. -1.
        -15    1    3    3    0    0  0.45703655494E+02 -0.36870425279E+02 -0.17142967103E+03  0.18121683759E+03  0.17770000000E+01 0.  1.
         15    1    3    3    0    0  0.86847772733E+02 -0.35092605120E+01 -0.73177058768E+02  0.11363489868E+03  0.17770000000E+01 0. -1.
</event>
<event>
 7    1  0.2024888E-007  0.3493416E+03  0.7546771E-02  0.9819192E-01
        -11   -1    0    0    0    0  0.00000000000E+00  0.00000000000E+00  0.50000000000E+03  0.50000000000E+03  0.00000000000E+00 0.  1.
         11   -1    0    0    0    0 -0.00000000000E+00 -0.00000000000E+00 -0.50000000000E+03  0.50000000000E+03  0.00000000000E+00 0.  1.
         23    2    1    2    0    0 -0.17105029937E+03  0.20844924007E+03 -0.19554031270E+03  0.34543487403E+03  0.91542054291E+02 0.  0.
        -11    1    1    2    0    0 -0.14308426000E+03  0.21563811132E+02  0.22126053964E+03  0.26437535780E+03  0.00000000000E+00 0.  1.
         11    1    1    2    0    0  0.31413455937E+03 -0.23001305121E+03 -0.25720226940E+02  0.39018976817E+03  0.00000000000E+00 0.  1.
        -15    1    3    3    0    0 -0.73323198970E+01 -0.48672484386E+00 -0.33713569205E+02  0.34550865310E+02  0.17770000000E+01 0. -1.
         15    1    3    3    0    0 -0.16371797947E+03  0.20893596492E+03 -0.16182674349E+03  0.31088400872E+03  0.17770000000E+01 0.  1.
</event>
<event>
 7    1  0.2024888E-007  0.4227701E+03  0.7546771E-02  0.9591416E-01
        -11   -1    0    0    0    0  0.00000000000E+00  0.00000000000E+00  0.50000000000E+03  0.50000000000E+03  0.00000000000E+00 0. -1.
         11   -1    0    0    0    0 -0.00000000000E+00 -0.00000000000E+00 -0.50000000000E+03  0.50000000000E+03  0.00000000000E+00 0.  1.
         23    2    1    2    0    0 -0.28119300218E+03 -0.14040788144E+03  0.28752675308E+03  0.43598962411E+03  0.92905548528E+02 0.  0.
        -11    1    1    2    0    0  0.65045529136E+02  0.12078673027E+03  0.63606775324E+02  0.15121566367E+03  0.00000000000E+00 0. -1.
         11    1    1    2    0    0  0.21614747304E+03  0.19621151169E+02 -0.35113352840E+03  0.41279471223E+03  0.00000000000E+00 0.  1.
        -15    1    3    3    0    0 -0.21396521001E+03 -0.14755168530E+03  0.23419624800E+03  0.34986233184E+03  0.17770000000E+01 0.  1.
         15    1    3    3    0    0 -0.67227792170E+02  0.71438038564E+01  0.53330505073E+02  0.86127292271E+02  0.17770000000E+01 0. -1.
</event>
<event>
 7    1  0.2024888E-007  0.5175268E+03  0.7546771E-02  0.9361424E-01
        -11   -1    0    0    0    0  0.00000000000E+00  0.00000000000E+00  0.50000000000E+03  0.50000000000E+03  0.00000000000E+00 0.  1.
         11   -1    0    0    0    0 -0.00000000000E+00 -0.00000000000E+00 -0.50000000000E+03  0.50000000000E+03  0.00000000000E+00 0. -1.
         23    2    1    2    0    0  0.31437006212E+02 -0.97532113451E+02  0.24741804719E+03  0.28214464809E+03  0.88820683735E+02 0.  0.
        -11    1    1    2    0    0  0.15617984171E+02  0.72701790463E+02 -0.47670838205E+03  0.48247316328E+03  0.00000000000E+00 0. -1.
         11    1    1    2    0    0 -0.47054990382E+02  0.24830322988E+02  0.22929033486E+03  0.23538218863E+03  0.00000000000E+00 0.  1.
        -15    1    3    3    0    0  0.27347095169E+02  0.90429850981E+01  0.56808380196E+02  0.63718042838E+02  0.17770000000E+01 0. -1.
         15    1    3    3    0    0  0.40899110431E+01 -0.10657509855E+03  0.19060966699E+03  0.21842660526E+03  0.17770000000E+01 0.  1.
</event>
<event>
 7    1  0.2024888E-007  0.4191698E+03  0.7546771E-02  0.9601396E-01
        -11   -1    0    0    0    0  0.00000000000E+00  0.00000000000E+00  0.50000000000E+03  0.50000000000E+03  0.00000000000E+00 0. -1.
         11   -1    0    0    0    0 -0.00000000000E+00 -0.00000000000E+00 -0.50000000000E+03  0.50000000000E+03  0.00000000000E+00 0.  1.
         23    2    1    2    0    0 -0.62012185377E+02 -0.99310346577E+02 -0.40558185162E+02  0.15255305258E+03  0.88991074803E+02 0.  0.
        -11    1    1    2    0    0 -0.15543316319E+03  0.39244225763E+03  0.17711995449E+03  0.45775743803E+03  0.00000000000E+00 0. -1.
         11    1    1    2    0    0  0.21744534857E+03 -0.29313191105E+03 -0.13656176932E+03  0.38968950939E+03  0.00000000000E+00 0.  1.
        -15    1    3    3    0    0 -0.59386616359E+02 -0.10827871322E+03 -0.13947047617E+02  0.12429291133E+03  0.17770000000E+01 0.  1.
         15    1    3    3    0    0 -0.26255690181E+01  0.89683666474E+01 -0.26611137545E+02  0.28260141250E+02  0.17770000000E+01 0. -1.
</event>
<event>
 7    1  0.2024888E-007  0.3609151E+03  0.7546771E-02  0.9779501E-01
        -11   -1    0    0    0    0  0.00000000000E+00  0.00000000000E+00  0.50000000000E+03  0.50000000000E+03  0.00000000000E+00 0. -1.
         11   -1    0    0    0    0 -0.00000000000E+00 -0.00000000000E+00 -0.50000000000E+03  0.50000000000E+03  0.00000000000E+00 0. -1.
         23    2    1    2    0    0  0.73077054700E+02  0.19000585380E+02 -0.21301968624E+03  0.24361558115E+03  0.90938916223E+02 0.  0.
        -11    1    1    2    0    0 -0.38501849304E+03 -0.10349419686E+03  0.15647645063E+03  0.42829332048E+03  0.00000000000E+00 0. -1.
         11    1    1    2    0    0  0.31194143834E+03  0.84493611483E+02  0.56543235611E+02  0.32809109837E+03  0.00000000000E+00 0. -1.
        -15    1    3    3    0    0 -0.15969030063E+02  0.19247549641E+00 -0.54577148303E+01  0.16970307838E+02  0.17770000000E+01 0. -1.
         15    1    3    3    0    0  0.89046084763E+02  0.18808109884E+02 -0.20756197141E+03  0.22664527331E+03  0.17770000000E+01 0.  1.
</event>
<event>
 7    1  0.2024888E-007  0.3513411E+03  0.7546771E-02  0.9812218E-01
        -11   -1    0    0    0    0  0.00000000000E+00  0.00000000000E+00  0.50000000000E+03  0.50000000000E+03  0.00000000000E+00 0.  1.
         11   -1    0    0    0    0 -0.00000000000E+00 -0.00000000000E+00 -0.50000000000E+03  0.50000000000E+03  0.00000000000E+00 0.  1.
         23    2    1    2    0    0  0.83043803909E+02  0.14702591780E+03  0.26303971305E+03  0.32583707040E+03  0.92016367738E+02 0.  0.
        -11    1    1    2    0    0  0.15216615498E+03  0.16600408462E+03 -0.13324640400E+03  0.26166103839E+03  0.00000000000E+00 0.  1.
         11    1    1    2    0    0 -0.23520995889E+03 -0.31303000242E+03 -0.12979330905E+03  0.41250189121E+03  0.00000000000E+00 0.  1.
        -15    1    3    3    0    0  0.56691555683E+02  0.56494829692E+02  0.54156815930E+02  0.96652556657E+02  0.17770000000E+01 0. -1.
         15    1    3    3    0    0  0.26352248226E+02  0.90531088110E+02  0.20888289712E+03  0.22918451374E+03  0.17770000000E+01 0.  1.
</event>
<event>
 7    1  0.2024888E-007  0.5382038E+03  0.7546771E-02  0.9318163E-01
        -11   -1    0    0    0    0  0.00000000000E+00  0.00000000000E+00  0.50000000000E+03  0.50000000000E+03  0.00000000000E+00 0.  1.
         11   -1    0    0    0    0 -0.00000000000E+00 -0.00000000000E+00 -0.50000000000E+03  0.50000000000E+03  0.00000000000E+00 0. -1.
         23    2    1    2    0    0 -0.41305950932E+02 -0.23639755625E+01 -0.15204602173E+02  0.10094151892E+03  0.90808812077E+02 0.  0.
        -11    1    1    2    0    0 -0.20591593861E+03 -0.38340007558E+03 -0.42442099628E+02  0.43726230521E+03  0.00000000000E+00 0.  1.
         11    1    1    2    0    0  0.24722188955E+03  0.38576405115E+03  0.57646701800E+02  0.46179617588E+03  0.00000000000E+00 0. -1.
        -15    1    3    3    0    0 -0.17962974901E+02  0.10438529261E+02 -0.51691797773E+02  0.55738954479E+02  0.17770000000E+01 0. -1.
         15    1    3    3    0    0 -0.23342976032E+02 -0.12802504824E+02  0.36487195601E+02  0.45202564436E+02  0.17770000000E+01 0.  1.
</event>
<event>
 7    1  0.2024888E-007  0.3867658E+03  0.7546771E-02  0.9696333E-01
        -11   -1    0    0    0    0  0.00000000000E+00  0.00000000000E+00  0.50000000000E+03  0.50000000000E+03  0.00000000000E+00 0. -1.
         11   -1    0    0    0    0 -0.00000000000E+00 -0.00000000000E+00 -0.50000000000E+03  0.50000000000E+03  0.00000000000E+00 0. -1.
         23    2    1    2    0    0  0.14464763157E+01  0.42265321405E+02 -0.31654882764E+03  0.33245969314E+03  0.92400419875E+02 0.  0.
        -11    1    1    2    0    0 -0.15829760146E+03 -0.78614796042E+02 -0.11234055626E+03  0.20942496834E+03  0.00000000000E+00 0. -1.
         11    1    1    2    0    0  0.15685112514E+03  0.36349474637E+02  0.42888938390E+03  0.45811533852E+03  0.00000000000E+00 0. -1.
        -15    1    3    3    0    0 -0.43512030090E+02  0.93549127755E+01 -0.16771067069E+03  0.17352474736E+03  0.17770000000E+01 0. -1.
         15    1    3    3    0    0  0.44958506406E+02  0.32910408630E+02 -0.14883815696E+03  0.15893494578E+03  0.17770000000E+01 0.  1.
</event>
<event>
 7    1  0.2024888E-007  0.4315810E+03  0.7546771E-02  0.9567432E-01
        -11   -1    0    0    0    0  0.00000000000E+00  0.00000000000E+00  0.50000000000E+03  0.50000000000E+03  0.00000000000E+00 0.  1.
         11   -1    0    0    0    0 -0.00000000000E+00 -0.00000000000E+00 -0.50000000000E+03  0.50000000000E+03  0.00000000000E+00 0. -1.
         23    2    1    2    0    0  0.38681115323E+02  0.25792962379E+01 -0.40069143827E+03  0.41307956128E+03  0.92618647091E+02 0.  0.
        -11    1    1    2    0    0 -0.13945602866E+03  0.86882455718E+02  0.41980771144E+03  0.45081599309E+03  0.00000000000E+00 0.  1.
         11    1    1    2    0    0  0.10077491334E+03 -0.89461751956E+02 -0.19116273170E+02  0.13610444563E+03  0.00000000000E+00 0. -1.
        -15    1    3    3    0    0  0.17295484267E+02 -0.17265251526E+02 -0.21016310393E+02  0.32281042700E+02  0.17770000000E+01 0.  1.
         15    1    3    3    0    0  0.21385631056E+02  0.19844547764E+02 -0.37967512788E+03  0.38079851858E+03  0.17770000000E+01 0. -1.
</event>
<event>
 7    1  0.2024888E-007  0.3973205E+03  0.7546771E-02  0.9664351E-01
        -11   -1    0    0    0    0  0.00000000000E+00  0.00000000000E+00  0.50000000000E+03  0.50000000000E+03  0.00000000000E+00 0. -1.
         11   -1    0    0    0    0 -0.00000000000E+00 -0.00000000000E+00 -0.50000000000E+03  0.50000000000E+03  0.00000000000E+00 0. -1.
         23    2    1    2    0    0 -0.11088467350E+03 -0.24013702335E+02 -0.11847806976E+03  0.18860397810E+03  0.93071686481E+02 0.  0.
        -11    1    1    2    0    0  0.35521248981E+03  0.28231430169E+02 -0.20104935601E+03  0.40913783756E+03  0.00000000000E+00 0. -1.
         11    1    1    2    0    0 -0.24432781631E+03 -0.42177278343E+01  0.31952742577E+03  0.40225818435E+03  0.00000000000E+00 0. -1.
        -15    1    3    3    0    0 -0.69270030581E+02  0.32441383384E+02 -0.64859177814E+02  0.10030279741E+03  0.17770000000E+01 0. -1.
         15    1    3    3    0    0 -0.41614642916E+02 -0.56455085719E+02 -0.53618891945E+02  0.88301180688E+02  0.17770000000E+01 0.  1.
</event>
<event>
 7    1  0.2024888E-007  0.4339804E+03  0.7546771E-02  0.9561007E-01
        -11   -1    0    0    0    0  0.00000000000E+00  0.00000000000E+00  0.50000000000E+03  0.50000000000E+03  0.00000000000E+00 0.  1.
         11   -1    0    0    0    0 -0.00000000000E+00 -0.00000000000E+00 -0.50000000000E+03  0.50000000000E+03  0.00000000000E+00 0. -1.
         23    2    1    2    0    0 -0.10411930175E+02  0.52353513573E+02  0.43232896826E+03  0.44490177716E+03  0.90443108355E+02 0.  0.
        -11    1    1    2    0    0 -0.37840115246E+02 -0.12472285484E+03 -0.17805402594E+02  0.13154731925E+03  0.00000000000E+00 0.  1.
         11    1    1    2    0    0  0.48252045421E+02  0.72369341268E+02 -0.41452356566E+03  0.42355090359E+03  0.00000000000E+00 0. -1.
        -15    1    3    3    0    0 -0.69484403866E+01  0.76015142429E+02  0.26218812858E+03  0.27307939358E+03  0.17770000000E+01 0.  1.
         15    1    3    3    0    0 -0.34634897882E+01 -0.23661628856E+02  0.17014083968E+03  0.17182238358E+03  0.17770000000E+01 0. -1.
</event>
<event>
 7    1  0.2024888E-007  0.5076375E+03  0.7546771E-02  0.9382881E-01
        -11   -1    0    0    0    0  0.00000000000E+00  0.00000000000E+00  0.50000000000E+03  0.50000000000E+03  0.00000000000E+00 0.  1.
         11   -1    0    0    0    0 -0.00000000000E+00 -0.00000000000E+00 -0.50000000000E+03  0.50000000000E+03  0.00000000000E+00 0.  1.
         23    2    1    2    0    0 -0.12828476104E+03 -0.76532885155E+02  0.46026446080E+03  0.49236250853E+03  0.90902164455E+02 0.  0.
        -11    1    1    2    0    0  0.14115540725E+02 -0.52794305390E+01 -0.27368690641E+03  0.27410152064E+03  0.00000000000E+00 0.  1.
         11    1    1    2    0    0  0.11416922032E+03  0.81812315694E+02 -0.18657755440E+03  0.23353597083E+03  0.00000000000E+00 0.  1.
        -15    1    3    3    0    0 -0.17561058333E+02  0.73622145311E+01  0.16433726868E+03  0.16544633141E+03  0.17770000000E+01 0. -1.
         15    1    3    3    0    0 -0.11072370271E+03 -0.83895099686E+02  0.29592719213E+03  0.32691617712E+03  0.17770000000E+01 0.  1.
</event>
<event>
 7    1  0.2024888E-007  0.3894195E+03  0.7546771E-02  0.9688190E-01
        -11   -1    0    0    0    0  0.00000000000E+00  0.00000000000E+00  0.50000000000E+03  0.50000000000E+03  0.00000000000E+00 0.  1.
         11   -1    0    0    0    0 -0.00000000000E+00 -0.00000000000E+00 -0.50000000000E+03  0.50000000000E+03  0.00000000000E+00 0.  1.
         23    2    1    2    0    0  0.41612887880E+02  0.35415038470E+02  0.16966565228E+03  0.20102406654E+03  0.92942909238E+02 0.  0.
        -11    1    1    2    0    0 -0.36586757647E+03 -0.11446595503E+03  0.67881245060E+02  0.38931915161E+03  0.00000000000E+00 0.  1.
         11    1    1    2    0    0  0.32425468859E+03  0.79050916564E+02 -0.23754689734E+03  0.40965678185E+03  0.00000000000E+00 0.  1.
        -15    1    3    3    0    0  0.46712940121E+01 -0.28905785220E+02  0.76449779100E+02  0.81884625299E+02  0.17770000000E+01 0.  1.
         15    1    3    3    0    0  0.36941593868E+02  0.64320823690E+02  0.93215873178E+02  0.11913944124E+03  0.17770000000E+01 0. -1.
</event>
<event>
 7    1  0.2024888E-007  0.5264729E+03  0.7546771E-02  0.9342448E-01
        -11   -1    0    0    0    0  0.00000000000E+00  0.00000000000E+00  0.50000000000E+03  0.50000000000E+03  0.00000000000E+00 0.  1.
         11   -1    0    0    0    0 -0.00000000000E+00 -0.00000000000E+00 -0.50000000000E+03  0.50000000000E+03  0.00000000000E+00 0.  1.
         23    2    1    2    0    0  0.59939780718E+01  0.94679793181E+02  0.30240158039E+03  0.32960573341E+03  0.90515372534E+02 0.  0.
        -11    1    1    2    0    0  0.78679566962E+02  0.15638209827E+03  0.90060199195E+02  0.19686714910E+03  0.00000000000E+00 0.  1.
         11    1    1    2    0    0 -0.84673545034E+02 -0.25106189145E+03 -0.39246177958E+03  0.47352711749E+03  0.00000000000E+00 0.  1.
        -15    1    3    3    0    0  0.46510326249E+02  0.32158775242E+02  0.13381659794E+03  0.14528398703E+03  0.17770000000E+01 0.  1.
         15    1    3    3    0    0 -0.40516348178E+02  0.62521017939E+02  0.16858498245E+03  0.18432174638E+03  0.17770000000E+01 0. -1.
</event>
<event>
 7    1  0.2024888E-007  0.5218291E+03  0.7546771E-02  0.9352248E-01
        -11   -1    0    0    0    0  0.00000000000E+00  0.00000000000E+00  0.50000000000E+03  0.50000000000E+03  0.00000000000E+00 0. -1.
         11   -1    0    0    0    0 -0.00000000000E+00 -0.00000000000E+00 -0.50000000000E+03  0.50000000000E+03  0.00000000000E+00 0.  1.
         23    2    1    2    0    0 -0.17292206699E+03 -0.99701707158E+02  0.31564756363E+03  0.38360987261E+03  0.87639478982E+02 0.  0.
        -11    1    1    2    0    0 -0.13310162481E+03 -0.18944327732E+02  0.32087949814E+02  0.13821927002E+03  0.00000000000E+00 0. -1.
         11    1    1    2    0    0  0.30602369180E+03  0.11864603489E+03 -0.34773551344E+03  0.47817085738E+03  0.00000000000E+00 0.  1.
        -15    1    3    3    0    0  0.70195804741E+01 -0.36424188527E+01  0.39323749010E+02  0.40150425780E+02  0.17770000000E+01 0.  1.
         15    1    3    3    0    0 -0.17994164746E+03 -0.96059288305E+02  0.27632381462E+03  0.34345944683E+03  0.17770000000E+01 0. -1.
</event>
<event>
 7    1  0.2024888E-007  0.4035442E+03  0.7546771E-02  0.9645986E-01
        -11   -1    0    0    0    0  0.00000000000E+00  0.00000000000E+00  0.50000000000E+03  0.50000000000E+03  0.00000000000E+00 0. -1.
         11   -1    0    0    0    0 -0.00000000000E+00 -0.00000000000E+00 -0.50000000000E+03  0.50000000000E+03  0.00000000000E+00 0.  1.
         23    2    1    2    0    0  0.23507984677E+03  0.20902540987E+03  0.22904338992E+03  0.39983306575E+03  0.91931766418E+02 0.  0.
        -11    1    1    2    0    0  0.10812018717E+03 -0.14741135118E+03  0.30939601322E+00  0.18281186246E+03  0.00000000000E+00 0. -1.
         11    1    1    2    0    0 -0.34320003395E+03 -0.61614058688E+02 -0.22935278593E+03  0.41735507179E+03  0.00000000000E+00 0.  1.
        -15    1    3    3    0    0  0.21517604919E+03  0.21521996176E+03  0.22510554518E+03  0.37854461862E+03  0.17770000000E+01 0. -1.
         15    1    3    3    0    0  0.19903797583E+02 -0.61945518920E+01  0.39378447404E+01  0.21288447139E+02  0.17770000000E+01 0.  1.
</event>
<event>
 7    1  0.2024888E-007  0.4085673E+03  0.7546771E-02  0.9631421E-01
        -11   -1    0    0    0    0  0.00000000000E+00  0.00000000000E+00  0.50000000000E+03  0.50000000000E+03  0.00000000000E+00 0. -1.
         11   -1    0    0    0    0 -0.00000000000E+00 -0.00000000000E+00 -0.50000000000E+03  0.50000000000E+03  0.00000000000E+00 0. -1.
         23    2    1    2    0    0 -0.11613395728E+02  0.66117463396E+02 -0.12647606735E+03  0.17041492505E+03  0.92404876171E+02 0.  0.
        -11    1    1    2    0    0  0.14848643559E+03 -0.34867317238E+03 -0.15353834756E+03  0.40889512942E+03  0.00000000000E+00 0. -1.
         11    1    1    2    0    0 -0.13687303986E+03  0.28255570898E+03  0.28001441491E+03  0.42068994554E+03  0.00000000000E+00 0. -1.
        -15    1    3    3    0    0  0.39300417225E+02  0.42893670250E+02 -0.62727011417E+02  0.85570003107E+02  0.17770000000E+01 0. -1.
         15    1    3    3    0    0 -0.50913812953E+02  0.23223793146E+02 -0.63749055931E+02  0.84844921938E+02  0.17770000000E+01 0.  1.
</event>
<event>
 7    1  0.2024888E-007  0.4161512E+03  0.7546771E-02  0.9609847E-01
        -11   -1    0    0    0    0  0.00000000000E+00  0.00000000000E+00  0.50000000000E+03  0.50000000000E+03  0.00000000000E+00 0. -1.
         11   -1    0    0    0    0 -0.00000000000E+00 -0.00000000000E+00 -0.50000000000E+03  0.50000000000E+03  0.00000000000E+00 0.  1.
         23    2    1    2    0    0 -0.42589687295E+02 -0.90978262418E+02  0.80606786061E+02  0.15779127386E+03  0.91157591295E+02 0.  0.
        -11    1    1    2    0    0 -0.22132003683E+02  0.85246444471E+02  0.37336432111E+03  0.38361138951E+03  0.00000000000E+00 0. -1.
         11    1    1    2    0    0  0.64721690978E+02  0.57318179463E+01 -0.45397110717E+03  0.45859733663E+03  0.00000000000E+00 0.  1.
        -15    1    3    3    0    0 -0.20131257653E+01 -0.23803127026E+01 -0.18467638244E+02  0.18813026211E+02  0.17770000000E+01 0.  1.
         15    1    3    3    0    0 -0.40576561530E+02 -0.88597949715E+02  0.99074424304E+02  0.13897824765E+03  0.17770000000E+01 0. -1.
</event>
<event>
 7    1  0.2024888E-007  0.3565928E+03  0.7546771E-02  0.9794135E-01
        -11   -1    0    0    0    0  0.00000000000E+00  0.00000000000E+00  0.50000000000E+03  0.50000000000E+03  0.00000000000E+00 0. -1.
         11   -1    0    0    0    0 -0.00000000000E+00 -0.00000000000E+00 -0.50000000000E+03  0.50000000000E+03  0.00000000000E+00 0.  1.
         23    2    1    2    0    0  0.26015319938E+03  0.47847234538E+01 -0.10962378242E+03  0.29656509259E+03  0.90724306224E+02 0.  0.
        -11    1    1    2    0    0 -0.35645068180E+03  0.22587122948E+03  0.15470052819E+03  0.44945206005E+03  0.00000000000E+00 0.  1.
         11    1    1    2    0    0  0.96297482416E+02 -0.23065595293E+03 -0.45076745772E+02  0.25398284736E+03  0.00000000000E+00 0. -1.
        -15    1    3    3    0    0  0.18459116110E+03  0.36520790328E+02 -0.10249515508E+03  0.21428037574E+03  0.17770000000E+01 0.  1.
         15    1    3    3    0    0  0.75562038281E+02 -0.31736066874E+02 -0.71286273448E+01  0.82284716847E+02  0.17770000000E+01 0. -1.
</event>
<event>
 7    1  0.2024888E-007  0.3770090E+03  0.7546771E-02  0.9726882E-01
        -11   -1    0    0    0    0  0.00000000000E+00  0.00000000000E+00  0.50000000000E+03  0.50000000000E+03  0.00000000000E+00 0. -1.
         11   -1    0    0    0    0 -0.00000000000E+00 -0.00000000000E+00 -0.50000000000E+03  0.50000000000E+03  0.00000000000E+00 0.  1.
         23    2    1    2    0    0  0.36210129595E+02 -0.84239111186E+02 -0.18120685400E+03  0.21911170551E+03  0.82259432380E+02 0.  0.
        -11    1    1    2    0    0  0.23522095186E+03  0.84748768616E+02  0.37263744892E+03  0.44874259694E+03  0.00000000000E+00 0. -1.
         11    1    1    2    0    0 -0.27143108146E+03 -0.50965742911E+00 -0.19143059492E+03  0.33214569755E+03  0.00000000000E+00 0.  1.
        -15    1    3    3    0    0  0.37764065510E+02 -0.42773847159E+02 -0.16488424365E+03  0.17448695705E+03  0.17770000000E+01 0.  1.
         15    1    3    3    0    0 -0.15539359150E+01 -0.41465264028E+02 -0.16322610342E+02  0.44624748460E+02  0.17770000000E+01 0. -1.
</event>
<event>
 7    1  0.2024888E-007  0.3796891E+03  0.7546771E-02  0.9718393E-01
        -11   -1    0    0    0    0  0.00000000000E+00  0.00000000000E+00  0.50000000000E+03  0.50000000000E+03  0.00000000000E+00 0.  1.
         11   -1    0    0    0    0 -0.00000000000E+00 -0.00000000000E+00 -0.50000000000E+03  0.50000000000E+03  0.00000000000E+00 0. -1.
         23    2    1    2    0    0 -0.30626270760E+03 -0.19474919939E+03  0.10125515085E+03  0.38608775910E+03  0.84184650766E+02 0.  0.
        -11    1    1    2    0    0 -0.42129227512E+02  0.19712553995E+03  0.85099096453E+02  0.21880403682E+03  0.00000000000E+00 0.  1.
         11    1    1    2    0    0  0.34839193511E+03 -0.23763405595E+01 -0.18635424730E+03  0.39510820408E+03  0.00000000000E+00 0. -1.
        -15    1    3    3    0    0 -0.27327449892E+03 -0.16837122329E+03  0.11601979004E+03  0.34130861402E+03  0.17770000000E+01 0.  1.
         15    1    3    3    0    0 -0.32988208672E+02 -0.26377976099E+02 -0.14764639190E+02  0.44779145077E+02  0.17770000000E+01 0. -1.
</event>
<event>
 7    1  0.2024888E-007  0.5247819E+03  0.7546771E-02  0.9346004E-01
        -11   -1    0    0    0    0  0.00000000000E+00  0.00000000000E+00  0.50000000000E+03  0.50000000000E+03  0.00000000000E+00 0. -1.
         11   -1    0    0    0    0 -0.00000000000E+00 -0.00000000000E+00 -0.50000000000E+03  0.50000000000E+03  0.00000000000E+00 0.  1.
         23    2    1    2    0    0  0.51473392125E+02 -0.64816939277E+02 -0.20277007628E+03  0.24044597341E+03  0.99236165670E+02 0.  0.
        -11    1    1    2    0    0  0.65007939741E+02  0.18231014492E+03  0.43401527573E+03  0.47521814016E+03  0.00000000000E+00 0. -1.
         11    1    1    2    0    0 -0.11648133187E+03 -0.11749320564E+03 -0.23124519945E+03  0.28433588643E+03  0.00000000000E+00 0.  1.
        -15    1    3    3    0    0  0.60615304327E+02 -0.43795517498E+02 -0.20413985028E+03  0.21741319802E+03  0.17770000000E+01 0. -1.
         15    1    3    3    0    0 -0.91419122018E+01 -0.21021421778E+02  0.13697739944E+01  0.23032775388E+02  0.17770000000E+01 0.  1.
</event>
<event>
 7    1  0.2024888E-007  0.5310336E+03  0.7546771E-02  0.9332928E-01
        -11   -1    0    0    0    0  0.00000000000E+00  0.00000000000E+00  0.50000000000E+03  0.50000000000E+03  0.00000000000E+00 0.  1.
         11   -1    0    0    0    0 -0.00000000000E+00 -0.00000000000E+00 -0.50000000000E+03  0.50000000000E+03  0.00000000000E+00 0.  1.
         23    2    1    2    0    0 -0.10738400335E+02  0.65737669166E+02  0.55043128625E+02  0.12582017799E+03  0.91456092152E+02 0.  0.
        -11    1    1    2    0    0  0.14567915873E+03 -0.44556043052E+03 -0.13527309469E+02  0.46896641952E+03  0.00000000000E+00 0.  1.
         11    1    1    2    0    0 -0.13494075839E+03  0.37982276135E+03 -0.41515819157E+02  0.40521340249E+03  0.00000000000E+00 0.  1.
        -15    1    3    3    0    0  0.29627963303E+02  0.42165889883E+02  0.59611395132E+02  0.78819126090E+02  0.17770000000E+01 0.  1.
         15    1    3    3    0    0 -0.40366363638E+02  0.23571779283E+02 -0.45682665064E+01  0.47001051901E+02  0.17770000000E+01 0. -1.
</event>
<event>
 7    1  0.2024888E-007  0.3430444E+03  0.7546771E-02  0.9841487E-01
        -11   -1    0    0    0    0  0.00000000000E+00  0.00000000000E+00  0.50000000000E+03  0.50000000000E+03  0.00000000000E+00 0.  1.
         11   -1    0    0    0    0 -0.00000000000E+00 -0.00000000000E+00 -0.50000000000E+03  0.50000000000E+03  0.00000000000E+00 0.  1.
         23    2    1    2    0    0  0.55547258936E+02  0.54182829586E+02 -0.24067506336E+03  0.26879314141E+03  0.91126229762E+02 0.  0.
        -11    1    1    2    0    0  0.68051792204E+02 -0.31723809266E+03  0.29147868834E+03  0.43615465103E+03  0.00000000000E+00 0.  1.
         11    1    1    2    0    0 -0.12359905114E+03  0.26305526307E+03 -0.50803624979E+02  0.29505220756E+03  0.00000000000E+00 0.  1.
        -15    1    3    3    0    0  0.42768417418E+01 -0.24835989518E+02 -0.57685803076E+02  0.62975609216E+02  0.17770000000E+01 0. -1.
         15    1    3    3    0    0  0.51270417194E+02  0.79018819104E+02 -0.18298926028E+03  0.20581753220E+03  0.17770000000E+01 0.  1.
</event>
<event>
 7    1  0.2024888E-007  0.4666705E+03  0.7546771E-02  0.9477640E-01
        -11   -1    0    0    0    0  0.00000000000E+00  0.00000000000E+00  0.50000000000E+03  0.50000000000E+03  0.00000000000E+00 0. -1.
         11   -1    0    0    0    0 -0.00000000000E+00 -0.00000000000E+00 -0.50000000000E+03  0.50000000000E+03  0.00000000000E+00 0. -1.
         23    2    1    2    0    0 -0.55619559068E+02 -0.45991449658E+01 -0.43208701311E+03  0.45307133246E+03  0.12433727482E+03 0.  0.
        -11    1    1    2    0    0 -0.14891076116E+02 -0.75364163935E+02 -0.22467494502E+02  0.80039300739E+02  0.00000000000E+00 0. -1.
         11    1    1    2    0    0  0.70510635184E+02  0.79963308901E+02  0.45455450761E+03  0.46688936680E+03  0.00000000000E+00 0. -1.
        -15    1    3    3    0    0  0.38099146502E+02 -0.65075127540E+01 -0.18007015383E+03  0.18418010402E+03  0.17770000000E+01 0.  1.
         15    1    3    3    0    0 -0.93718705571E+02  0.19083677882E+01 -0.25201685928E+03  0.26889122844E+03  0.17770000000E+01 0. -1.
</event>
<event>
 7    1  0.2024888E-007  0.3715800E+03  0.7546771E-02  0.9744313E-01
        -11   -1    0    0    0    0  0.00000000000E+00  0.00000000000E+00  0.50000000000E+03  0.50000000000E+03  0.00000000000E+00 0. -1.
         11   -1    0    0    0    0 -0.00000000000E+00 -0.00000000000E+00 -0.50000000000E+03  0.50000000000E+03  0.00000000000E+00 0.  1.
         23    2    1    2    0    0  0.27754860890E+03 -0.26049328005E+02 -0.10768587755E+03  0.31240021724E+03  0.91026642886E+02 0.  0.
        -11    1    1    2    0    0 -0.39128816248E+03 -0.16958716517E+03  0.15973952713E+03  0.45539318091E+03  0.00000000000E+00 0. -1.
         11    1    1    2    0    0  0.11373955358E+03  0.19563649318E+03 -0.52053649578E+02  0.23220660186E+03  0.00000000000E+00 0.  1.
        -15    1    3    3    0    0  0.88237697719E+02 -0.28290624717E+02 -0.77218201001E+02  0.12063191551E+03  0.17770000000E+01 0. -1.
         15    1    3    3    0    0  0.18931091118E+03  0.22412967122E+01 -0.30467676548E+02  0.19176830172E+03  0.17770000000E+01 0.  1.
</event>
<event>
 7    1  0.2024888E-007  0.3379910E+03  0.7546771E-02  0.9859753E-01
        -11   -1    0    0    0    0  0.00000000000E+00  0.00000000000E+00  0.50000000000E+03  0.50000000000E+03  0.00000000000E+00 0.  1.
         11   -1    0    0    0    0 -0.00000000000E+00 -0.00000000000E+00 -0.50000000000E+03  0.50000000000E+03  0.00000000000E+00 0. -1.
         23    2    1    2    0    0  0.26002969363E+03  0.10569420739E+03 -0.22914727485E+03  0.37374734997E+03  0.91607319528E+02 0.  0.
        -11    1    1    2    0    0 -0.27037356476E+03  0.16099207306E+03  0.14447600835E+03  0.34625659430E+03  0.00000000000E+00 0.  1.
         11    1    1    2    0    0  0.10343871129E+02 -0.26668628045E+03  0.84671266499E+02  0.27999605573E+03  0.00000000000E+00 0. -1.
        -15    1    3    3    0    0 -0.36096977110E+01 -0.19375425514E+01 -0.19826404423E+02  0.20323091056E+02  0.17770000000E+01 0.  1.
         15    1    3    3    0    0  0.26363939134E+03  0.10763174994E+03 -0.20932087043E+03  0.35342425891E+03  0.17770000000E+01 0. -1.
</event>
<event>
 7    1  0.2024888E-007  0.3836926E+03  0.7546771E-02  0.9705850E-01
        -11   -1    0    0    0    0  0.00000000000E+00  0.00000000000E+00  0.50000000000E+03  0.50000000000E+03  0.00000000000E+00 0. -1.
         11   -1    0    0    0    0 -0.00000000000E+00 -0.00000000000E+00 -0.50000000000E+03  0.50000000000E+03  0.00000000000E+00 0.  1.
         23    2    1    2    0    0  0.60242182212E+01 -0.82256166908E+02 -0.16992038796E+03  0.20971182063E+03  0.91124866362E+02 0.  0.
        -11    1    1    2    0    0 -0.30813591319E+03  0.16440324264E+03  0.29101430388E+03  0.45460476488E+03  0.00000000000E+00 0. -1.
         11    1    1    2    0    0  0.30211169497E+03 -0.82147075731E+02 -0.12109391592E+03  0.33568341449E+03  0.00000000000E+00 0.  1.
        -15    1    3    3    0    0 -0.33339873079E+02 -0.37529551830E+02 -0.32255293519E+02  0.59695695711E+02  0.17770000000E+01 0. -1.
         15    1    3    3    0    0  0.39364091300E+02 -0.44726615078E+02 -0.13766509444E+03  0.15001612492E+03  0.17770000000E+01 0.  1.
</event>
<event>
 7    1  0.2024888E-007  0.3866943E+03  0.7546771E-02  0.9696553E-01
        -11   -1    0    0    0    0  0.00000000000E+00  0.00000000000E+00  0.50000000000E+03  0.50000000000E+03  0.00000000000E+00 0.  1.
         11   -1    0    0    0    0 -0.00000000000E+00 -0.00000000000E+00 -0.50000000000E+03  0.50000000000E+03  0.00000000000E+00 0.  1.
         23    2    1    2    0    0 -0.69648405301E+02 -0.60487761999E+02  0.15882562640E+03  0.20510062173E+03  0.91274397947E+02 0.  0.
        -11    1    1    2    0    0 -0.22754694180E+02 -0.15902034293E+03 -0.41506695459E+03  0.44506833449E+03  0.00000000000E+00 0.  1.
         11    1    1    2    0    0  0.92403099481E+02  0.21950810493E+03  0.25624132818E+03  0.34983104378E+03  0.00000000000E+00 0.  1.
        -15    1    3    3    0    0 -0.73325886482E+02 -0.75414608332E+02  0.15771968410E+03  0.18958561459E+03  0.17770000000E+01 0.  1.
         15    1    3    3    0    0  0.36774811810E+01  0.14926846333E+02  0.11059423037E+01  0.15515007143E+02  0.17770000000E+01 0. -1.
</event>
<event>
 7    1  0.2024888E-007  0.5288240E+03  0.7546771E-02  0.9337527E-01
        -11   -1    0    0    0    0  0.00000000000E+00  0.00000000000E+00  0.50000000000E+03  0.50000000000E+03  0.00000000000E+00 0. -1.
         11   -1    0    0    0    0 -0.00000000000E+00 -0.00000000000E+00 -0.50000000000E+03  0.50000000000E+03  0.00000000000E+00 0.  1.
         23    2    1    2    0    0  0.65163415422E+02 -0.11638769015E+03  0.64125907637E+01  0.15981624846E+03  0.87793774411E+02 0.  0.
        -11    1    1    2    0    0 -0.66539775216E+02 -0.31996931290E+03  0.17134419502E+03  0.36900777235E+03  0.00000000000E+00 0. -1.
         11    1    1    2    0    0  0.13763597939E+01  0.43635700305E+03 -0.17775678579E+03  0.47117597919E+03  0.00000000000E+00 0.  1.
        -15    1    3    3    0    0  0.52141526991E+02 -0.97889557975E+02 -0.31783457009E+02  0.11538825879E+03  0.17770000000E+01 0. -1.
         15    1    3    3    0    0  0.13021888431E+02 -0.18498132172E+02  0.38196047773E+02  0.44427989676E+02  0.17770000000E+01 0.  1.
</event>
<event>
 7    1  0.2024888E-007  0.3929944E+03  0.7546771E-02  0.9677330E-01
        -11   -1    0    0    0    0  0.00000000000E+00  0.00000000000E+00  0.50000000000E+03  0.50000000000E+03  0.00000000000E+00 0.  1.
         11   -1    0    0    0    0 -0.00000000000E+00 -0.00000000000E+00 -0.50000000000E+03  0.50000000000E+03  0.00000000000E+00 0. -1.
         23    2    1    2    0    0  0.63515139384E+02  0.64656936315E+02 -0.14894699457E+03  0.19490477386E+03  0.87108962448E+02 0.  0.
        -11    1    1    2    0    0 -0.36415706526E+03  0.17333546651E+03  0.11896256882E+03  0.42048501152E+03  0.00000000000E+00 0.  1.
         11    1    1    2    0    0  0.30064192588E+03 -0.23799240283E+03  0.29984425746E+02  0.38461021462E+03  0.00000000000E+00 0. -1.
        -15    1    3    3    0    0 -0.19842394913E+02  0.11723797002E+00 -0.29273527961E+02  0.35409483883E+02  0.17770000000E+01 0.  1.
         15    1    3    3    0    0  0.83357534297E+02  0.64539698345E+02 -0.11967346661E+03  0.15949528998E+03  0.17770000000E+01 0. -1.
</event>
<event>
 7    1  0.2024888E-007  0.5184207E+03  0.7546771E-02  0.9359510E-01
        -11   -1    0    0    0    0  0.00000000000E+00  0.00000000000E+00  0.50000000000E+03  0.50000000000E+03  0.00000000000E+00 0. -1.
         11   -1    0    0    0    0 -0.00000000000E+00 -0.00000000000E+00 -0.50000000000E+03  0.50000000000E+03  0.00000000000E+00 0. -1.
         23    2    1    2    0    0 -0.29602053177E+02 -0.13430469391E+03 -0.24385268422E+03  0.29715430500E+03  0.99611831724E+02 0.  0.
        -11    1    1    2    0    0  0.12408359656E+03  0.13967657502E+03  0.44386069960E+03  0.48157928236E+03  0.00000000000E+00 0. -1.
         11    1    1    2    0    0 -0.94481543387E+02 -0.53718811119E+01 -0.20000801538E+03  0.22126641265E+03  0.00000000000E+00 0. -1.
        -15    1    3    3    0    0 -0.22079763315E+02 -0.39222899528E+02 -0.12260609132E+02  0.46684387762E+02  0.17770000000E+01 0.  1.
         15    1    3    3    0    0 -0.75222898615E+01 -0.95081794377E+02 -0.23159207509E+03  0.25046991723E+03  0.17770000000E+01 0. -1.
</event>
<event>
 7    1  0.2024888E-007  0.3509181E+03  0.7546771E-02  0.9813689E-01
        -11   -1    0    0    0    0  0.00000000000E+00  0.00000000000E+00  0.50000000000E+03  0.50000000000E+03  0.00000000000E+00 0.  1.
         11   -1    0    0    0    0 -0.00000000000E+00 -0.00000000000E+00 -0.50000000000E+03  0.50000000000E+03  0.00000000000E+00 0.  1.
         23    2    1    2    0    0 -0.10064981003E+03  0.51059972048E+02 -0.21298867853E+03  0.25792475831E+03  0.91779620621E+02 0.  0.
        -11    1    1    2    0    0  0.37651068087E+03 -0.15252299112E+03  0.18637514442E+03  0.44694434786E+03  0.00000000000E+00 0.  1.
         11    1    1    2    0    0 -0.27586087083E+03  0.10146301907E+03  0.26613534114E+02  0.29513089383E+03  0.00000000000E+00 0.  1.
        -15    1    3    3    0    0 -0.51189861653E+02 -0.21268434229E+02 -0.10591505572E+03  0.11955712019E+03  0.17770000000E+01 0.  1.
         15    1    3    3    0    0 -0.49459948382E+02  0.72328406276E+02 -0.10707362281E+03  0.13836763812E+03  0.17770000000E+01 0. -1.
</event>
<event>
 6    1  0.2024888E-007  0.5543085E+03  0.7546771E-02  0.9285871E-01
        -11   -1    0    0    0    0  0.00000000000E+00  0.00000000000E+00  0.50000000000E+03  0.50000000000E+03  0.00000000000E+00 0.  1.
         11   -1    0    0    0    0 -0.00000000000E+00 -0.00000000000E+00 -0.50000000000E+03  0.50000000000E+03  0.00000000000E+00 0. -1.
        -11    1    1    2    0    0  0.25594033103E+03  0.10967661016E+03  0.27462712087E+03  0.39109393677E+03  0.00000000000E+00 0.  1.
         11    1    1    2    0    0 -0.29435729810E+03 -0.56321751399E+02 -0.32988261079E+03  0.44569148020E+03  0.00000000000E+00 0. -1.
        -15    1    1    2    0    0  0.18627128976E+02  0.81755862767E+01  0.88279482400E+02  0.90610346466E+02  0.17770000000E+01 0.  1.
         15    1    1    2    0    0  0.19789838093E+02 -0.61530445035E+02 -0.33023992483E+02  0.72604236560E+02  0.17770000000E+01 0. -1.
</event>
<event>
 7    1  0.2994637E-007  0.5376612E+03  0.7546771E-02  0.9319271E-01
        -11   -1    0    0    0    0  0.00000000000E+00  0.00000000000E+00  0.50000000000E+03  0.50000000000E+03  0.00000000000E+00 0.  1.
         11   -1    0    0    0    0 -0.00000000000E+00 -0.00000000000E+00 -0.50000000000E+03  0.50000000000E+03  0.00000000000E+00 0. -1.
         23    2    1    2    0    0 -0.11041321966E+02 -0.29513141073E+02  0.24204601905E+03  0.26436240323E+03  0.10152964402E+03 0.  0.
        -11    1    1    2    0    0  0.57097916195E+02  0.18822047930E+03  0.18975014457E+03  0.27329880758E+03  0.00000000000E+00 0.  1.
         11    1    1    2    0    0 -0.46056594229E+02 -0.15870733823E+03 -0.43179616361E+03  0.46233878919E+03  0.00000000000E+00 0. -1.
        -15    1    3    3    0    0  0.29165364416E+02  0.18672262276E+02  0.14260992040E+03  0.14676518315E+03  0.17770000000E+01 0.  1.
         15    1    3    3    0    0 -0.40206686381E+02 -0.48185403350E+02  0.99436098649E+02  0.11759722007E+03  0.17770000000E+01 0. -1.
</event>
<event>
 7    1  0.2024888E-007  0.3343251E+03  0.7546771E-02  0.9873220E-01
        -11   -1    0    0    0    0  0.00000000000E+00  0.00000000000E+00  0.50000000000E+03  0.50000000000E+03  0.00000000000E+00 0. -1.
         11   -1    0    0    0    0 -0.00000000000E+00 -0.00000000000E+00 -0.50000000000E+03  0.50000000000E+03  0.00000000000E+00 0.  1.
         23    2    1    2    0    0  0.30467048974E+03  0.44692794795E+02  0.21708106083E+02  0.32215919178E+03  0.92161541639E+02 0.  0.
        -11    1    1    2    0    0 -0.27410880867E+03 -0.13477401451E+03  0.24698142341E+03  0.39280974719E+03  0.00000000000E+00 0. -1.
         11    1    1    2    0    0 -0.30561681070E+02  0.90081219715E+02 -0.26868952949E+03  0.28503106103E+03  0.00000000000E+00 0.  1.
        -15    1    3    3    0    0  0.97123594413E+02  0.16660909327E+02 -0.35980393273E+02  0.10492056481E+03  0.17770000000E+01 0. -1.
         15    1    3    3    0    0  0.20754689532E+03  0.28031885468E+02  0.57688499356E+02  0.21723862697E+03  0.17770000000E+01 0.  1.
</event>
<event>
 7    1  0.2024888E-007  0.4212449E+03  0.7546771E-02  0.9595631E-01
        -11   -1    0    0    0    0  0.00000000000E+00  0.00000000000E+00  0.50000000000E+03  0.50000000000E+03  0.00000000000E+00 0.  1.
         11   -1    0    0    0    0 -0.00000000000E+00 -0.00000000000E+00 -0.50000000000E+03  0.50000000000E+03  0.00000000000E+00 0. -1.
         23    2    1    2    0    0 -0.76295395673E+02  0.80533336778E+02  0.41156273153E+02  0.14924178442E+03  0.90954195408E+02 0.  0.
        -11    1    1    2    0    0  0.45239654342E+03  0.20034747019E+02 -0.78735670777E+02  0.45963390806E+03  0.00000000000E+00 0.  1.
         11    1    1    2    0    0 -0.37610114774E+03 -0.10056808380E+03  0.37579397624E+02  0.39112430753E+03  0.00000000000E+00 0. -1.
        -15    1    3    3    0    0 -0.93299499756E+02  0.62511527537E+02  0.15249836049E+02  0.11334991380E+03  0.17770000000E+01 0.  1.
         15    1    3    3    0    0  0.17004104083E+02  0.18021809241E+02  0.25906437104E+02  0.35891870617E+02  0.17770000000E+01 0. -1.
</event>
<event>
 7    1  0.2024888E-007  0.5175745E+03  0.7546771E-02  0.9361322E-01
        -11   -1    0    0    0    0  0.00000000000E+00  0.00000000000E+00  0.50000000000E+03  0.50000000000E+03  0.00000000000E+00 0. -1.
         11   -1    0    0    0    0 -0.00000000000E+00 -0.00000000000E+00 -0.50000000000E+03  0.50000000000E+03  0.00000000000E+00 0.  1.
         23    2    1    2    0    0  0.96708236618E+02 -0.72564667609E+02 -0.21172929861E+03  0.26023533519E+03  0.90967135709E+02 0.  0.
        -11    1    1    2    0    0 -0.15713737279E+03  0.26561895316E+03  0.37079476192E+03  0.48242547369E+03  0.00000000000E+00 0. -1.
         11    1    1    2    0    0  0.60429136170E+02 -0.19305428555E+03 -0.15906546331E+03  0.25733919111E+03  0.00000000000E+00 0.  1.
        -15    1    3    3    0    0  0.27805208419E+02 -0.27605216962E+02 -0.73417463946E+01  0.39902839346E+02  0.17770000000E+01 0. -1.
         15    1    3    3    0    0  0.68903028199E+02 -0.44959450648E+02 -0.20438755221E+03  0.22033249585E+03  0.17770000000E+01 0.  1.
</event>
<event>
 7    1  0.2024888E-007  0.5195677E+03  0.7546771E-02  0.9357059E-01
        -11   -1    0    0    0    0  0.00000000000E+00  0.00000000000E+00  0.50000000000E+03  0.50000000000E+03  0.00000000000E+00 0.  1.
         11   -1    0    0    0    0 -0.00000000000E+00 -0.00000000000E+00 -0.50000000000E+03  0.50000000000E+03  0.00000000000E+00 0. -1.
         23    2    1    2    0    0  0.23357336598E+02 -0.10016630745E+03  0.16948563717E+03  0.21665079515E+03  0.87368939065E+02 0.  0.
        -11    1    1    2    0    0 -0.88117808239E+02  0.36717904678E+03 -0.29703534575E+03  0.48043230236E+03  0.00000000000E+00 0. -1.
         11    1    1    2    0    0  0.64760471641E+02 -0.26701273933E+03  0.12754970858E+03  0.30291690249E+03  0.00000000000E+00 0.  1.
        -15    1    3    3    0    0  0.41679299155E+02 -0.12896749265E+02  0.74509465512E+02  0.86361497784E+02  0.17770000000E+01 0. -1.
         15    1    3    3    0    0 -0.18321962557E+02 -0.87269558184E+02  0.94976171658E+02  0.13028929737E+03  0.17770000000E+01 0.  1.
</event>
<event>
 7    1  0.2024888E-007  0.4724004E+03  0.7546771E-02  0.9463776E-01
        -11   -1    0    0    0    0  0.00000000000E+00  0.00000000000E+00  0.50000000000E+03  0.50000000000E+03  0.00000000000E+00 0. -1.
         11   -1    0    0    0    0 -0.00000000000E+00 -0.00000000000E+00 -0.50000000000E+03  0.50000000000E+03  0.00000000000E+00 0.  1.
         23    2    1    2    0    0 -0.89544630437E+02  0.22070088030E+03  0.39489980206E+03  0.47021386690E+03  0.91804725111E+02 0.  0.
        -11    1    1    2    0    0 -0.60021574375E+02 -0.15985223521E+02 -0.19490113867E+01  0.62144311138E+02  0.00000000000E+00 0. -1.
         11    1    1    2    0    0  0.14956620481E+03 -0.20471565678E+03 -0.39295079068E+03  0.46764182196E+03  0.00000000000E+00 0.  1.
        -15    1    3    3    0    0 -0.56248381725E+02  0.38481973199E+02  0.82535985703E+02  0.10705180696E+03  0.17770000000E+01 0.  1.
         15    1    3    3    0    0 -0.33296248712E+02  0.18221890710E+03  0.31236381636E+03  0.36316205995E+03  0.17770000000E+01 0. -1.
</event>
<event>
 7    1  0.2024888E-007  0.5203209E+03  0.7546771E-02  0.9355454E-01
        -11   -1    0    0    0    0  0.00000000000E+00  0.00000000000E+00  0.50000000000E+03  0.50000000000E+03  0.00000000000E+00 0. -1.
         11   -1    0    0    0    0 -0.00000000000E+00 -0.00000000000E+00 -0.50000000000E+03  0.50000000000E+03  0.00000000000E+00 0. -1.
         23    2    1    2    0    0 -0.99395245109E+02  0.11369871489E+03 -0.34732413220E+02  0.18069755836E+03  0.92943286740E+02 0.  0.
        -11    1    1    2    0    0  0.40224134950E+03 -0.21182051237E+03  0.15305555632E+03  0.47967909693E+03  0.00000000000E+00 0. -1.
         11    1    1    2    0    0 -0.30284610439E+03  0.98121797482E+02 -0.11832314310E+03  0.33962334472E+03  0.00000000000E+00 0. -1.
        -15    1    3    3    0    0 -0.47302068737E+02  0.79790359700E+02 -0.63253894709E+02  0.11228624196E+03  0.17770000000E+01 0.  1.
         15    1    3    3    0    0 -0.52093176371E+02  0.33908355191E+02  0.28521481490E+02  0.68411316400E+02  0.17770000000E+01 0. -1.
</event>
<event>
 7    1  0.2024888E-007  0.5139082E+03  0.7546771E-02  0.9369216E-01
        -11   -1    0    0    0    0  0.00000000000E+00  0.00000000000E+00  0.50000000000E+03  0.50000000000E+03  0.00000000000E+00 0. -1.
         11   -1    0    0    0    0 -0.00000000000E+00 -0.00000000000E+00 -0.50000000000E+03  0.50000000000E+03  0.00000000000E+00 0. -1.
         23    2    1    2    0    0  0.13301004986E+03  0.12103485492E+03  0.18099612178E+02  0.20208721653E+03  0.90391026409E+02 0.  0.
        -11    1    1    2    0    0 -0.29669746456E+03 -0.36500466648E+03 -0.12258643110E+03  0.48609178672E+03  0.00000000000E+00 0. -1.
         11    1    1    2    0    0  0.16368741471E+03  0.24396981156E+03  0.10448681892E+03  0.31182099675E+03  0.00000000000E+00 0. -1.
        -15    1    3    3    0    0  0.94540199289E+02  0.30771316935E+02  0.28396336787E+02  0.10341292424E+03  0.17770000000E+01 0. -1.
         15    1    3    3    0    0  0.38469850567E+02  0.90263537988E+02 -0.10296724609E+02  0.98674292293E+02  0.17770000000E+01 0.  1.
</event>
<event>
 7    1  0.2024888E-007  0.4207576E+03  0.7546771E-02  0.9596982E-01
        -11   -1    0    0    0    0  0.00000000000E+00  0.00000000000E+00  0.50000000000E+03  0.50000000000E+03  0.00000000000E+00 0. -1.
         11   -1    0    0    0    0 -0.00000000000E+00 -0.00000000000E+00 -0.50000000000E+03  0.50000000000E+03  0.00000000000E+00 0. -1.
         23    2    1    2    0    0  0.83589944135E+02 -0.58115754427E+02  0.37474842432E+03  0.39872391235E+03  0.90441456635E+02 0.  0.
        -11    1    1    2    0    0 -0.11716785044E+03 -0.84329850851E+02 -0.42317635799E+03  0.44712197316E+03  0.00000000000E+00 0. -1.
         11    1    1    2    0    0  0.33577906306E+02  0.14244560528E+03  0.48427933674E+02  0.15415411449E+03  0.00000000000E+00 0. -1.
        -15    1    3    3    0    0  0.10847414270E+02  0.10020612296E+02  0.17353160247E+03  0.17416788984E+03  0.17770000000E+01 0.  1.
         15    1    3    3    0    0  0.72742529866E+02 -0.68136366723E+02  0.20121682185E+03  0.22455602251E+03  0.17770000000E+01 0. -1.
</event>
<event>
 7    1  0.2024888E-007  0.5162880E+03  0.7546771E-02  0.9364084E-01
        -11   -1    0    0    0    0  0.00000000000E+00  0.00000000000E+00  0.50000000000E+03  0.50000000000E+03  0.00000000000E+00 0.  1.
         11   -1    0    0    0    0 -0.00000000000E+00 -0.00000000000E+00 -0.50000000000E+03  0.50000000000E+03  0.00000000000E+00 0.  1.
         23    2    1    2    0    0  0.83381141497E+01  0.13129765651E+03 -0.36704355413E+03  0.40070380214E+03  0.92379476473E+02 0.  0.
        -11    1    1    2    0    0 -0.29310129198E+02  0.94052268397E+02 -0.60454865019E+02  0.11558418390E+03  0.00000000000E+00 0.  1.
         11    1    1    2    0    0  0.20972015048E+02 -0.22534992491E+03  0.42749841915E+03  0.48371201395E+03  0.00000000000E+00 0.  1.
        -15    1    3    3    0    0 -0.28861113870E+02  0.15263035922E+02 -0.13148166360E+03  0.13548619764E+03  0.17770000000E+01 0. -1.
         15    1    3    3    0    0  0.37199228019E+02  0.11603462059E+03 -0.23556189053E+03  0.26521760451E+03  0.17770000000E+01 0.  1.
</event>
<event>
 7    1  0.2024888E-007  0.3699377E+03  0.7546771E-02  0.9749649E-01
        -11   -1    0    0    0    0  0.00000000000E+00  0.00000000000E+00  0.50000000000E+03  0.50000000000E+03  0.00000000000E+00 0.  1.
         11   -1    0    0    0    0 -0.00000000000E+00 -0.00000000000E+00 -0.50000000000E+03  0.50000000000E+03  0.00000000000E+00 0. -1.
         23    2    1    2    0    0  0.22398150312E+03 -0.68012861958E+02  0.20188559561E+03  0.32361575895E+03  0.95790931688E+02 0.  0.
        -11    1    1    2    0    0  0.21894073619E+02 -0.23449460552E+03  0.39572277803E+01  0.23554772367E+03  0.00000000000E+00 0.  1.
         11    1    1    2    0    0 -0.24587557674E+03  0.30250746747E+03 -0.20584282339E+03  0.44083651738E+03  0.00000000000E+00 0. -1.
        -15    1    3    3    0    0  0.20782204102E+03 -0.29389043230E+02  0.15632871489E+03  0.26171652875E+03  0.17770000000E+01 0.  1.
         15    1    3    3    0    0  0.16159462099E+02 -0.38623818728E+02  0.45556880721E+02  0.61899230193E+02  0.17770000000E+01 0. -1.
</event>
<event>
 7    1  0.2024888E-007  0.5231692E+03  0.7546771E-02  0.9349409E-01
        -11   -1    0    0    0    0  0.00000000000E+00  0.00000000000E+00  0.50000000000E+03  0.50000000000E+03  0.00000000000E+00 0.  1.
         11   -1    0    0    0    0 -0.00000000000E+00 -0.00000000000E+00 -0.50000000000E+03  0.50000000000E+03  0.00000000000E+00 0. -1.
         23    2    1    2    0    0  0.29173515528E+02  0.13025006059E+03 -0.61255410923E+02  0.16655666581E+03  0.78566693113E+02 0.  0.
        -11    1    1    2    0    0 -0.27634993259E+03 -0.27768977513E+03  0.27182103145E+03  0.47683075571E+03  0.00000000000E+00 0.  1.
         11    1    1    2    0    0  0.24717641706E+03  0.14743971454E+03 -0.21056562053E+03  0.35661257847E+03  0.00000000000E+00 0. -1.
        -15    1    3    3    0    0  0.50118440936E+02  0.71388098185E+02 -0.56357077068E+02  0.10386239237E+03  0.17770000000E+01 0. -1.
         15    1    3    3    0    0 -0.20944925408E+02  0.58861962408E+02 -0.48983338547E+01  0.62694273442E+02  0.17770000000E+01 0.  1.
</event>
<event>
 7    1  0.2024888E-007  0.5241971E+03  0.7546771E-02  0.9347237E-01
        -11   -1    0    0    0    0  0.00000000000E+00  0.00000000000E+00  0.50000000000E+03  0.50000000000E+03  0.00000000000E+00 0. -1.
         11   -1    0    0    0    0 -0.00000000000E+00 -0.00000000000E+00 -0.50000000000E+03  0.50000000000E+03  0.00000000000E+00 0. -1.
         23    2    1    2    0    0 -0.55357282320E+02 -0.40226369827E+02  0.35409175926E+03  0.37191336119E+03  0.90862449461E+02 0.  0.
        -11    1    1    2    0    0  0.11399353056E+03 -0.53474731319E+02 -0.45884018979E+03  0.47580289161E+03  0.00000000000E+00 0. -1.
         11    1    1    2    0    0 -0.58636248242E+02  0.93701101145E+02  0.10474843052E+03  0.15228374720E+03  0.00000000000E+00 0. -1.
        -15    1    3    3    0    0 -0.23071084776E+02 -0.61938984633E+02  0.14692952837E+03  0.16112155909E+03  0.17770000000E+01 0.  1.
         15    1    3    3    0    0 -0.32286197544E+02  0.21712614807E+02  0.20716223089E+03  0.21079180210E+03  0.17770000000E+01 0. -1.
</event>
<event>
 7    1  0.2024888E-007  0.5392181E+03  0.7546771E-02  0.9316094E-01
        -11   -1    0    0    0    0  0.00000000000E+00  0.00000000000E+00  0.50000000000E+03  0.50000000000E+03  0.00000000000E+00 0.  1.
         11   -1    0    0    0    0 -0.00000000000E+00 -0.00000000000E+00 -0.50000000000E+03  0.50000000000E+03  0.00000000000E+00 0.  1.
         23    2    1    2    0    0  0.95183849157E+01 -0.24169732848E+02  0.19177662934E+03  0.21421652649E+03  0.91845898233E+02 0.  0.
        -11    1    1    2    0    0 -0.25957414859E+03  0.16765907746E+03 -0.34180645311E+03  0.46078189662E+03  0.00000000000E+00 0.  1.
         11    1    1    2    0    0  0.25005576367E+03 -0.14348934461E+03  0.15002982377E+03  0.32500157689E+03  0.00000000000E+00 0.  1.
        -15    1    3    3    0    0  0.49717883772E+02 -0.65572590265E+01  0.84209690720E+02  0.98027013384E+02  0.17770000000E+01 0. -1.
         15    1    3    3    0    0 -0.40199498856E+02 -0.17612473821E+02  0.10756693862E+03  0.11618951310E+03  0.17770000000E+01 0.  1.
</event>
<event>
 7    1  0.2024888E-007  0.3632806E+03  0.7546771E-02  0.9771585E-01
        -11   -1    0    0    0    0  0.00000000000E+00  0.00000000000E+00  0.50000000000E+03  0.50000000000E+03  0.00000000000E+00 0. -1.
         11   -1    0    0    0    0 -0.00000000000E+00 -0.00000000000E+00 -0.50000000000E+03  0.50000000000E+03  0.00000000000E+00 0. -1.
         23    2    1    2    0    0 -0.15241309390E+03 -0.40895262811E+02 -0.15642738123E+03  0.24022175546E+03  0.91295084666E+02 0.  0.
        -11    1    1    2    0    0  0.33563193706E+03 -0.23590346508E+03  0.63985019272E+02  0.41520275132E+03  0.00000000000E+00 0. -1.
         11    1    1    2    0    0 -0.18321884316E+03  0.27679872789E+03  0.92442361957E+02  0.34457549323E+03  0.00000000000E+00 0. -1.
        -15    1    3    3    0    0 -0.28567158143E+02 -0.96783240730E+01  0.87144828562E+01  0.31446023941E+02  0.17770000000E+01 0.  1.
         15    1    3    3    0    0 -0.12384593576E+03 -0.31216938738E+02 -0.16514186409E+03  0.20877573152E+03  0.17770000000E+01 0. -1.
</event>
<event>
 7    1  0.2024888E-007  0.3814416E+03  0.7546771E-02  0.9712882E-01
        -11   -1    0    0    0    0  0.00000000000E+00  0.00000000000E+00  0.50000000000E+03  0.50000000000E+03  0.00000000000E+00 0. -1.
         11   -1    0    0    0    0 -0.00000000000E+00 -0.00000000000E+00 -0.50000000000E+03  0.50000000000E+03  0.00000000000E+00 0.  1.
         23    2    1    2    0    0 -0.18844511599E+02 -0.59843440404E+02  0.18208759270E+03  0.21318164188E+03  0.91401138083E+02 0.  0.
        -11    1    1    2    0    0 -0.23944454596E+03  0.14243936448E+03  0.18204089467E+03  0.33280857933E+03  0.00000000000E+00 0. -1.
         11    1    1    2    0    0  0.25828905756E+03 -0.82595924081E+02 -0.36412848736E+03  0.45400977879E+03  0.00000000000E+00 0.  1.
        -15    1    3    3    0    0 -0.49506858556E+02 -0.16614662449E+02  0.12383554203E+03  0.13440749701E+03  0.17770000000E+01 0.  1.
         15    1    3    3    0    0  0.30662346958E+02 -0.43228777955E+02  0.58252050664E+02  0.78774144870E+02  0.17770000000E+01 0. -1.
</event>
<event>
 7    1  0.2024888E-007  0.5307664E+03  0.7546771E-02  0.9333483E-01
        -11   -1    0    0    0    0  0.00000000000E+00  0.00000000000E+00  0.50000000000E+03  0.50000000000E+03  0.00000000000E+00 0.  1.
         11   -1    0    0    0    0 -0.00000000000E+00 -0.00000000000E+00 -0.50000000000E+03  0.50000000000E+03  0.00000000000E+00 0.  1.
         23    2    1    2    0    0  0.36365334747E+02 -0.10198082636E+03  0.66490200551E+02  0.15630893271E+03  0.91043995745E+02 0.  0.
        -11    1    1    2    0    0  0.32647372534E+01  0.46919724955E+03 -0.48466970078E+01  0.46923363900E+03  0.00000000000E+00 0.  1.
         11    1    1    2    0    0 -0.39630072000E+02 -0.36721642319E+03 -0.61643503543E+02  0.37445742829E+03  0.00000000000E+00 0.  1.
        -15    1    3    3    0    0  0.43670169748E+02 -0.11644187632E+03  0.63822269353E+02  0.13979354091E+03  0.17770000000E+01 0.  1.
         15    1    3    3    0    0 -0.73048350007E+01  0.14461049963E+02  0.26679311981E+01  0.16515391800E+02  0.17770000000E+01 0. -1.
</event>
<event>
 7    1  0.2024888E-007  0.4098545E+03  0.7546771E-02  0.9627724E-01
        -11   -1    0    0    0    0  0.00000000000E+00  0.00000000000E+00  0.50000000000E+03  0.50000000000E+03  0.00000000000E+00 0.  1.
         11   -1    0    0    0    0 -0.00000000000E+00 -0.00000000000E+00 -0.50000000000E+03  0.50000000000E+03  0.00000000000E+00 0. -1.
         23    2    1    2    0    0 -0.74103158748E+02 -0.52761355899E+02  0.10832348607E+03  0.16817550970E+03  0.90961451260E+02 0.  0.
        -11    1    1    2    0    0  0.17149246400E+03 -0.35876641845E+03 -0.10612030815E+02  0.39778841539E+03  0.00000000000E+00 0.  1.
         11    1    1    2    0    0 -0.97389305255E+02  0.41152777435E+03 -0.97711455254E+02  0.43403607491E+03  0.00000000000E+00 0. -1.
        -15    1    3    3    0    0  0.87780992661E+01  0.15403911940E+02  0.35126871574E+01  0.18161283816E+02  0.17770000000E+01 0.  1.
         15    1    3    3    0    0 -0.82881258014E+02 -0.68165267839E+02  0.10481079891E+03  0.15001422588E+03  0.17770000000E+01 0. -1.
</event>
<event>
 7    1  0.2024888E-007  0.5157477E+03  0.7546771E-02  0.9365246E-01
        -11   -1    0    0    0    0  0.00000000000E+00  0.00000000000E+00  0.50000000000E+03  0.50000000000E+03  0.00000000000E+00 0.  1.
         11   -1    0    0    0    0 -0.00000000000E+00 -0.00000000000E+00 -0.50000000000E+03  0.50000000000E+03  0.00000000000E+00 0. -1.
         23    2    1    2    0    0  0.22898361574E+03  0.19519894142E+03  0.67236913207E+02  0.32161270798E+03  0.91530368874E+02 0.  0.
        -11    1    1    2    0    0 -0.41929853880E+03 -0.23344154531E+03 -0.64761673847E+02  0.48425230419E+03  0.00000000000E+00 0. -1.
         11    1    1    2    0    0  0.19031492306E+03  0.38242603891E+02 -0.24752393597E+01  0.19413498783E+03  0.00000000000E+00 0.  1.
        -15    1    3    3    0    0  0.23668045734E+03  0.18154430477E+03  0.60051284072E+02  0.30427830670E+03  0.17770000000E+01 0.  1.
         15    1    3    3    0    0 -0.76968415981E+01  0.13654636647E+02  0.71856291349E+01  0.17334401276E+02  0.17770000000E+01 0. -1.
</event>
<event>
 7    1  0.2024888E-007  0.4159819E+03  0.7546771E-02  0.9610323E-01
        -11   -1    0    0    0    0  0.00000000000E+00  0.00000000000E+00  0.50000000000E+03  0.50000000000E+03  0.00000000000E+00 0. -1.
         11   -1    0    0    0    0 -0.00000000000E+00 -0.00000000000E+00 -0.50000000000E+03  0.50000000000E+03  0.00000000000E+00 0.  1.
         23    2    1    2    0    0 -0.93986416876E+02  0.27502200442E+02  0.74424346569E+02  0.15899317141E+03  0.10074734541E+03 0.  0.
        -11    1    1    2    0    0 -0.19593522667E+03  0.20985903070E+03 -0.29053065327E+03  0.40845989559E+03  0.00000000000E+00 0. -1.
         11    1    1    2    0    0  0.28992164354E+03 -0.23736123115E+03  0.21610630670E+03  0.43254693300E+03  0.00000000000E+00 0.  1.
        -15    1    3    3    0    0 -0.55732960467E+02 -0.11734779929E+02  0.85799881263E+02  0.10299827812E+03  0.17770000000E+01 0. -1.
         15    1    3    3    0    0 -0.38253456409E+02  0.39236980371E+02 -0.11375534693E+02  0.55994893288E+02  0.17770000000E+01 0.  1.
</event>
<event>
 7    1  0.2024888E-007  0.3587892E+03  0.7546771E-02  0.9786671E-01
        -11   -1    0    0    0    0  0.00000000000E+00  0.00000000000E+00  0.50000000000E+03  0.50000000000E+03  0.00000000000E+00 0.  1.
         11   -1    0    0    0    0 -0.00000000000E+00 -0.00000000000E+00 -0.50000000000E+03  0.50000000000E+03  0.00000000000E+00 0.  1.
         23    2    1    2    0    0 -0.89645807425E+02 -0.62545485666E+01  0.30070610613E+03  0.32599782298E+03  0.88175553066E+02 0.  0.
        -11    1    1    2    0    0 -0.64610764007E+02  0.24135692309E+03  0.16139044606E+02  0.25037608494E+03  0.00000000000E+00 0.  1.
         11    1    1    2    0    0  0.15425657143E+03 -0.23510237453E+03 -0.31684515074E+03  0.42362609207E+03  0.00000000000E+00 0.  1.
        -15    1    3    3    0    0  0.10307670887E+02  0.18634580094E+02  0.73155045568E+02  0.76212296091E+02  0.17770000000E+01 0. -1.
         15    1    3    3    0    0 -0.99953478313E+02 -0.24889128661E+02  0.22755106056E+03  0.24978552689E+03  0.17770000000E+01 0.  1.
</event>
<event>
 7    1  0.2024888E-007  0.5333410E+03  0.7546771E-02  0.9328149E-01
        -11   -1    0    0    0    0  0.00000000000E+00  0.00000000000E+00  0.50000000000E+03  0.50000000000E+03  0.00000000000E+00 0.  1.
         11   -1    0    0    0    0 -0.00000000000E+00 -0.00000000000E+00 -0.50000000000E+03  0.50000000000E+03  0.00000000000E+00 0. -1.
         23    2    1    2    0    0 -0.75008034752E+02  0.12093996395E+03  0.20557025314E+03  0.26664592840E+03  0.92672768385E+02 0.  0.
        -11    1    1    2    0    0  0.14462186929E+03  0.13962919616E+03  0.17525546246E+03  0.26669509673E+03  0.00000000000E+00 0.  1.
         11    1    1    2    0    0 -0.69613834535E+02 -0.26056916011E+03 -0.38082571561E+03  0.46665897487E+03  0.00000000000E+00 0. -1.
        -15    1    3    3    0    0 -0.80760867223E+02  0.11003079001E+03  0.21236726801E+03  0.25245218691E+03  0.17770000000E+01 0.  1.
         15    1    3    3    0    0  0.57528324714E+01  0.10909173937E+02 -0.67970148680E+01  0.14193741493E+02  0.17770000000E+01 0. -1.
</event>
<event>
 7    1  0.2024888E-007  0.3509083E+03  0.7546771E-02  0.9813723E-01
        -11   -1    0    0    0    0  0.00000000000E+00  0.00000000000E+00  0.50000000000E+03  0.50000000000E+03  0.00000000000E+00 0. -1.
         11   -1    0    0    0    0 -0.00000000000E+00 -0.00000000000E+00 -0.50000000000E+03  0.50000000000E+03  0.00000000000E+00 0. -1.
         23    2    1    2    0    0 -0.17917916441E+03  0.15374229652E+03  0.31685533213E+02  0.25885735015E+03  0.10129801585E+03 0.  0.
        -11    1    1    2    0    0  0.21301224845E+03 -0.25322182110E+01  0.30412248386E+03  0.37130999893E+03  0.00000000000E+00 0. -1.
         11    1    1    2    0    0 -0.33833084047E+02 -0.15121007830E+03 -0.33580801707E+03  0.36983265092E+03  0.00000000000E+00 0. -1.
        -15    1    3    3    0    0 -0.90578161195E+02  0.54105147060E+02  0.61616432259E+02  0.12219456893E+03  0.17770000000E+01 0. -1.
         15    1    3    3    0    0 -0.88601003212E+02  0.99637149455E+02 -0.29930899046E+02  0.13666278121E+03  0.17770000000E+01 0.  1.
</event>
<event>
 7    1  0.2024888E-007  0.4480162E+03  0.7546771E-02  0.9524285E-01
        -11   -1    0    0    0    0  0.00000000000E+00  0.00000000000E+00  0.50000000000E+03  0.50000000000E+03  0.00000000000E+00 0. -1.
         11   -1    0    0    0    0 -0.00000000000E+00 -0.00000000000E+00 -0.50000000000E+03  0.50000000000E+03  0.00000000000E+00 0. -1.
         23    2    1    2    0    0 -0.16493980574E+02 -0.46384199892E+01 -0.42833724759E+02  0.10278073231E+03  0.91845438766E+02 0.  0.
        -11    1    1    2    0    0 -0.36706374491E+03  0.72554235622E+02  0.25582908079E+03  0.45326419284E+03  0.00000000000E+00 0. -1.
         11    1    1    2    0    0  0.38355772548E+03 -0.67915815633E+02 -0.21299535604E+03  0.44395507485E+03  0.00000000000E+00 0. -1.
        -15    1    3    3    0    0  0.22825881809E+02  0.12018724596E+02 -0.52891288445E+02  0.58873735601E+02  0.17770000000E+01 0. -1.
         15    1    3    3    0    0 -0.39319862383E+02 -0.16657144585E+02  0.10057563686E+02  0.43906996708E+02  0.17770000000E+01 0.  1.
</event>
<event>
 7    1  0.2024888E-007  0.4515089E+03  0.7546771E-02  0.9515370E-01
        -11   -1    0    0    0    0  0.00000000000E+00  0.00000000000E+00  0.50000000000E+03  0.50000000000E+03  0.00000000000E+00 0. -1.
         11   -1    0    0    0    0 -0.00000000000E+00 -0.00000000000E+00 -0.50000000000E+03  0.50000000000E+03  0.00000000000E+00 0. -1.
         23    2    1    2    0    0  0.26887684832E+02 -0.19856848690E+02  0.28397080773E+02  0.95917805821E+02  0.85302926336E+02 0.  0.
        -11    1    1    2    0    0  0.28616845622E+03  0.34655907397E+03 -0.42000248982E+02  0.45139738369E+03  0.00000000000E+00 0. -1.
         11    1    1    2    0    0 -0.31305614106E+03 -0.32670222528E+03  0.13603168210E+02  0.45268481048E+03  0.00000000000E+00 0. -1.
        -15    1    3    3    0    0 -0.21475346359E+02 -0.22633714875E+01  0.37802257971E+02  0.43571570874E+02  0.17770000000E+01 0.  1.
         15    1    3    3    0    0  0.48363031191E+02 -0.17593477203E+02 -0.94051771976E+01  0.52346234947E+02  0.17770000000E+01 0. -1.
</event>
<event>
 7    1  0.2024888E-007  0.5172988E+03  0.7546771E-02  0.9361913E-01
        -11   -1    0    0    0    0  0.00000000000E+00  0.00000000000E+00  0.50000000000E+03  0.50000000000E+03  0.00000000000E+00 0. -1.
         11   -1    0    0    0    0 -0.00000000000E+00 -0.00000000000E+00 -0.50000000000E+03  0.50000000000E+03  0.00000000000E+00 0. -1.
         23    2    1    2    0    0  0.12820116304E+03 -0.32293067873E+03  0.13460940906E+03  0.38393982582E+03  0.92576105877E+02 0.  0.
        -11    1    1    2    0    0 -0.13221060855E+03  0.45255319301E+03 -0.10352030997E+03  0.48270124517E+03  0.00000000000E+00 0. -1.
         11    1    1    2    0    0  0.40094455140E+01 -0.12962251428E+03 -0.31089099088E+02  0.13335892900E+03  0.00000000000E+00 0. -1.
        -15    1    3    3    0    0  0.13934136590E+03 -0.31295501376E+03  0.13648228632E+03  0.36876473408E+03  0.17770000000E+01 0. -1.
         15    1    3    3    0    0 -0.11140202865E+02 -0.99756649624E+01 -0.18728772549E+01  0.15175091747E+02  0.17770000000E+01 0.  1.
</event>
<event>
 7    1  0.2024888E-007  0.5190058E+03  0.7546771E-02  0.9358259E-01
        -11   -1    0    0    0    0  0.00000000000E+00  0.00000000000E+00  0.50000000000E+03  0.50000000000E+03  0.00000000000E+00 0. -1.
         11   -1    0    0    0    0 -0.00000000000E+00 -0.00000000000E+00 -0.50000000000E+03  0.50000000000E+03  0.00000000000E+00 0. -1.
         23    2    1    2    0    0  0.11985319220E+03 -0.11092575858E+02 -0.41611634370E+02  0.15683280850E+03  0.91526874677E+02 0.  0.
        -11    1    1    2    0    0  0.33879317809E+03 -0.12801344082E+03  0.10106745410E+01  0.36217299736E+03  0.00000000000E+00 0. -1.
         11    1    1    2    0    0 -0.45864637029E+03  0.13910601668E+03  0.40600959829E+02  0.48099419414E+03  0.00000000000E+00 0. -1.
        -15    1    3    3    0    0  0.11820541244E+03 -0.24697672731E+02 -0.59171266413E+02  0.13448751268E+03  0.17770000000E+01 0. -1.
         15    1    3    3    0    0  0.16477797628E+01  0.13605096874E+02  0.17559632043E+02  0.22345295827E+02  0.17770000000E+01 0.  1.
</event>
<event>
 7    1  0.2024888E-007  0.4635441E+03  0.7546771E-02  0.9485294E-01
        -11   -1    0    0    0    0  0.00000000000E+00  0.00000000000E+00  0.50000000000E+03  0.50000000000E+03  0.00000000000E+00 0.  1.
         11   -1    0    0    0    0 -0.00000000000E+00 -0.00000000000E+00 -0.50000000000E+03  0.50000000000E+03  0.00000000000E+00 0.  1.
         23    2    1    2    0    0 -0.43588605948E+02  0.22012527854E+02  0.45399895577E+03  0.46530296746E+03  0.89483415955E+02 0.  0.
        -11    1    1    2    0    0 -0.28322070335E+02  0.71798860517E+02 -0.13173196026E+02  0.78299100462E+02  0.00000000000E+00 0.  1.
         11    1    1    2    0    0  0.71910676283E+02 -0.93811388371E+02 -0.44082575975E+03  0.45639793208E+03  0.00000000000E+00 0.  1.
        -15    1    3    3    0    0 -0.12367432656E+02 -0.30868203935E+02  0.86208683315E+02  0.92416958469E+02  0.17770000000E+01 0. -1.
         15    1    3    3    0    0 -0.31221173292E+02  0.52880731789E+02  0.36779027246E+03  0.37288600899E+03  0.17770000000E+01 0.  1.
</event>
<event>
 7    1  0.2024888E-007  0.5245932E+03  0.7546771E-02  0.9346402E-01
        -11   -1    0    0    0    0  0.00000000000E+00  0.00000000000E+00  0.50000000000E+03  0.50000000000E+03  0.00000000000E+00 0. -1.
         11   -1    0    0    0    0 -0.00000000000E+00 -0.00000000000E+00 -0.50000000000E+03  0.50000000000E+03  0.00000000000E+00 0. -1.
         23    2    1    2    0    0 -0.10581584272E+03  0.57399801540E+02 -0.40058275186E+02  0.15690309151E+03  0.92315680837E+02 0.  0.
        -11    1    1    2    0    0 -0.17274282982E+03  0.32438139281E+03 -0.11515524016E+02  0.36769006044E+03  0.00000000000E+00 0. -1.
         11    1    1    2    0    0  0.27855867254E+03 -0.38178119435E+03  0.51573799202E+02  0.47540684805E+03  0.00000000000E+00 0. -1.
        -15    1    3    3    0    0 -0.27752524264E+02  0.18693921089E+02  0.30084155139E+02  0.45031982058E+02  0.17770000000E+01 0.  1.
         15    1    3    3    0    0 -0.78063318455E+02  0.38705880451E+02 -0.70142430325E+02  0.11187110945E+03  0.17770000000E+01 0. -1.
</event>
