<event>
 7    1  0.9281110E-008  0.1395827E+03  0.7546771E-02  0.1108906E+00
        -11   -1    0    0    0    0  0.00000000000E+00  0.00000000000E+00  0.18250000000E+03  0.18250000000E+03  0.00000000000E+00 0.  1.
         11   -1    0    0    0    0 -0.00000000000E+00 -0.00000000000E+00 -0.18250000000E+03  0.18250000000E+03  0.00000000000E+00 0.  1.
         23    2    1    2    0    0  0.25768504510E+01  0.22394879931E+02  0.13108770692E+03  0.15957491139E+03  0.88158916934E+02 0.  0.
        -11    1    1    2    0    0  0.72644582115E+02  0.14854604298E+02 -0.64662624484E+02  0.98382669127E+02  0.00000000000E+00 0.  1.
         11    1    1    2    0    0 -0.75221432566E+02 -0.37249484228E+02 -0.66425082433E+02  0.10704241948E+03  0.00000000000E+00 0.  1.
        -15    1    3    3    0    0 -0.17050274117E+02  0.38370968432E+02  0.12713261787E+03  0.13389885482E+03  0.17770000000E+01 0.  1.
         15    1    3    3    0    0  0.19627124568E+02 -0.15976088501E+02  0.39550890437E+01  0.25676056569E+02  0.17770000000E+01 0. -1.
</event>
<event>
 7    1  0.9281110E-008  0.1258507E+03  0.7546771E-02  0.1125383E+00
        -11   -1    0    0    0    0  0.00000000000E+00  0.00000000000E+00  0.18250000000E+03  0.18250000000E+03  0.00000000000E+00 0. -1.
         11   -1    0    0    0    0 -0.00000000000E+00 -0.00000000000E+00 -0.18250000000E+03  0.18250000000E+03  0.00000000000E+00 0.  1.
         23    2    1    2    0    0  0.53077133226E+02  0.10852498031E+02 -0.11857933988E+02  0.10726149490E+03  0.91812084737E+02 0.  0.
        -11    1    1    2    0    0  0.12870533443E+02 -0.62422454929E+02  0.11098859556E+03  0.12798703784E+03  0.00000000000E+00 0. -1.
         11    1    1    2    0    0 -0.65947666670E+02  0.51569956898E+02 -0.99130661572E+02  0.12975146727E+03  0.00000000000E+00 0.  1.
        -15    1    3    3    0    0 -0.15411344958E+02  0.29279749870E+02 -0.14718397192E+02  0.36257444074E+02  0.17770000000E+01 0.  1.
         15    1    3    3    0    0  0.68488478184E+02 -0.18427251840E+02  0.28604632037E+01  0.71004050822E+02  0.17770000000E+01 0. -1.
</event>
<event>
 7    1  0.9281110E-008  0.1505742E+03  0.7546771E-02  0.1097155E+00
        -11   -1    0    0    0    0  0.00000000000E+00  0.00000000000E+00  0.18250000000E+03  0.18250000000E+03  0.00000000000E+00 0. -1.
         11   -1    0    0    0    0 -0.00000000000E+00 -0.00000000000E+00 -0.18250000000E+03  0.18250000000E+03  0.00000000000E+00 0. -1.
         23    2    1    2    0    0 -0.68597943289E+01  0.31338952275E+02 -0.96482307870E+02  0.13678798436E+03  0.91503716997E+02 0.  0.
        -11    1    1    2    0    0 -0.38862338647E+02  0.22999199778E+02  0.13851477555E+03  0.14569003947E+03  0.00000000000E+00 0. -1.
         11    1    1    2    0    0  0.45722132976E+02 -0.54338152053E+02 -0.42032467678E+02  0.82521976174E+02  0.00000000000E+00 0. -1.
        -15    1    3    3    0    0 -0.23463166624E+02  0.25864024200E+02  0.36218229513E+01  0.35153140205E+02  0.17770000000E+01 0. -1.
         15    1    3    3    0    0  0.16603372295E+02  0.54749280756E+01 -0.10010413082E+03  0.10163484415E+03  0.17770000000E+01 0.  1.
</event>
<event>
 7    1  0.9281110E-008  0.1414744E+03  0.7546771E-02  0.1106800E+00
        -11   -1    0    0    0    0  0.00000000000E+00  0.00000000000E+00  0.18250000000E+03  0.18250000000E+03  0.00000000000E+00 0.  1.
         11   -1    0    0    0    0 -0.00000000000E+00 -0.00000000000E+00 -0.18250000000E+03  0.18250000000E+03  0.00000000000E+00 0. -1.
         23    2    1    2    0    0  0.55996045221E+02 -0.42515910008E+02 -0.21137400070E+02  0.11959260268E+03  0.94405726790E+02 0.  0.
        -11    1    1    2    0    0 -0.47063694890E+02  0.13859813863E+03 -0.11288835915E+01  0.14637523624E+03  0.00000000000E+00 0. -1.
         11    1    1    2    0    0 -0.89323503316E+01 -0.96082228618E+02  0.22266283662E+02  0.99032161073E+02  0.00000000000E+00 0.  1.
        -15    1    3    3    0    0  0.45464958980E+02 -0.72570756833E+02 -0.12624388425E+02  0.86580079432E+02  0.17770000000E+01 0.  1.
         15    1    3    3    0    0  0.10531086242E+02  0.30054846826E+02 -0.85130116455E+01  0.33012523252E+02  0.17770000000E+01 0. -1.
</event>
<event>
 7    1  0.9281110E-008  0.1583467E+03  0.7546771E-02  0.1089492E+00
        -11   -1    0    0    0    0  0.00000000000E+00  0.00000000000E+00  0.18250000000E+03  0.18250000000E+03  0.00000000000E+00 0. -1.
         11   -1    0    0    0    0 -0.00000000000E+00 -0.00000000000E+00 -0.18250000000E+03  0.18250000000E+03  0.00000000000E+00 0. -1.
         23    2    1    2    0    0  0.86911697306E+02  0.55282911474E+01 -0.93534421692E+02  0.15811023218E+03  0.93091097042E+02 0.  0.
        -11    1    1    2    0    0 -0.45646391360E+02 -0.57892220965E+02  0.11521561911E+03  0.13678355595E+03  0.00000000000E+00 0. -1.
         11    1    1    2    0    0 -0.41265305947E+02  0.52363929818E+02 -0.21681197414E+02  0.70106211866E+02  0.00000000000E+00 0. -1.
        -15    1    3    3    0    0 -0.16906869126E+02 -0.96229706560E+01 -0.35009703298E+01  0.19845863804E+02  0.17770000000E+01 0.  1.
         15    1    3    3    0    0  0.10381856643E+03  0.15151261803E+02 -0.90033451362E+02  0.13826436838E+03  0.17770000000E+01 0. -1.
</event>
<event>
 7    1  0.9281110E-008  0.2138289E+03  0.7546771E-02  0.1045935E+00
        -11   -1    0    0    0    0  0.00000000000E+00  0.00000000000E+00  0.18250000000E+03  0.18250000000E+03  0.00000000000E+00 0. -1.
         11   -1    0    0    0    0 -0.00000000000E+00 -0.00000000000E+00 -0.18250000000E+03  0.18250000000E+03  0.00000000000E+00 0. -1.
         23    2    1    2    0    0 -0.18023574943E+02  0.25832272496E+02 -0.52569974225E+02  0.10835431670E+03  0.89358268787E+02 0.  0.
        -11    1    1    2    0    0  0.55861453216E+02  0.13202337765E+02 -0.88487782021E+02  0.10547460000E+03  0.00000000000E+00 0. -1.
         11    1    1    2    0    0 -0.37837878273E+02 -0.39034610260E+02  0.14105775625E+03  0.15117108331E+03  0.00000000000E+00 0. -1.
        -15    1    3    3    0    0 -0.39193512923E+02 -0.50924336763E+01  0.47500729414E+01  0.39847023200E+02  0.17770000000E+01 0. -1.
         15    1    3    3    0    0  0.21169937980E+02  0.30924706172E+02 -0.57320047167E+02  0.68507293496E+02  0.17770000000E+01 0.  1.
</event>
<event>
 7    1  0.9281110E-008  0.1348960E+03  0.7546771E-02  0.1114285E+00
        -11   -1    0    0    0    0  0.00000000000E+00  0.00000000000E+00  0.18250000000E+03  0.18250000000E+03  0.00000000000E+00 0.  1.
         11   -1    0    0    0    0 -0.00000000000E+00 -0.00000000000E+00 -0.18250000000E+03  0.18250000000E+03  0.00000000000E+00 0. -1.
         23    2    1    2    0    0  0.34023130913E+02 -0.10529250889E+02  0.88413379021E+02  0.13319747588E+03  0.93038720050E+02 0.  0.
        -11    1    1    2    0    0 -0.91666939165E+02 -0.69865451676E+02 -0.44081326036E+02  0.12339842940E+03  0.00000000000E+00 0. -1.
         11    1    1    2    0    0  0.57643808252E+02  0.80394702565E+02 -0.44332052986E+02  0.10840409472E+03  0.00000000000E+00 0.  1.
        -15    1    3    3    0    0  0.33601044402E+02 -0.47444449431E+02  0.72521985017E+02  0.92965595821E+02  0.17770000000E+01 0.  1.
         15    1    3    3    0    0  0.42208651090E+00  0.36915198541E+02  0.15891394005E+02  0.40231880055E+02  0.17770000000E+01 0. -1.
</event>
<event>
 7    1  0.9281110E-008  0.1498367E+03  0.7546771E-02  0.1097909E+00
        -11   -1    0    0    0    0  0.00000000000E+00  0.00000000000E+00  0.18250000000E+03  0.18250000000E+03  0.00000000000E+00 0.  1.
         11   -1    0    0    0    0 -0.00000000000E+00 -0.00000000000E+00 -0.18250000000E+03  0.18250000000E+03  0.00000000000E+00 0. -1.
         23    2    1    2    0    0 -0.39150654671E+02  0.56058692629E+02 -0.43679728763E+02  0.12245327754E+03  0.91714424689E+02 0.  0.
        -11    1    1    2    0    0  0.45341766810E+02 -0.13621291924E+03  0.67585615523E+02  0.15867466909E+03  0.00000000000E+00 0.  1.
         11    1    1    2    0    0 -0.61911121397E+01  0.80154226614E+02 -0.23905886760E+02  0.83872053363E+02  0.00000000000E+00 0. -1.
        -15    1    3    3    0    0 -0.46440936644E+02  0.39988529832E+02  0.13334638317E+02  0.62744030972E+02  0.17770000000E+01 0.  1.
         15    1    3    3    0    0  0.72902819738E+01  0.16070162797E+02 -0.57014367080E+02  0.59709246572E+02  0.17770000000E+01 0. -1.
</event>
<event>
 7    1  0.9281110E-008  0.1564182E+03  0.7546771E-02  0.1091348E+00
        -11   -1    0    0    0    0  0.00000000000E+00  0.00000000000E+00  0.18250000000E+03  0.18250000000E+03  0.00000000000E+00 0.  1.
         11   -1    0    0    0    0 -0.00000000000E+00 -0.00000000000E+00 -0.18250000000E+03  0.18250000000E+03  0.00000000000E+00 0. -1.
         23    2    1    2    0    0 -0.83382465613E+02  0.56124250556E+02  0.40800791204E+02  0.14157189240E+03  0.90968835771E+02 0.  0.
        -11    1    1    2    0    0  0.70864904378E+01  0.71012213411E+02 -0.11427693317E+02  0.72274096154E+02  0.00000000000E+00 0.  1.
         11    1    1    2    0    0  0.76295975175E+02 -0.12713646397E+03 -0.29373097887E+02  0.15115401145E+03  0.00000000000E+00 0. -1.
        -15    1    3    3    0    0 -0.35359464820E+02 -0.33155498318E+00  0.55651969115E+02  0.65959844424E+02  0.17770000000E+01 0. -1.
         15    1    3    3    0    0 -0.48023000793E+02  0.56455805539E+02 -0.14851177910E+02  0.75612047973E+02  0.17770000000E+01 0.  1.
</event>
<event>
 7    1  0.9281110E-008  0.1892401E+03  0.7546771E-02  0.1063213E+00
        -11   -1    0    0    0    0  0.00000000000E+00  0.00000000000E+00  0.18250000000E+03  0.18250000000E+03  0.00000000000E+00 0. -1.
         11   -1    0    0    0    0 -0.00000000000E+00 -0.00000000000E+00 -0.18250000000E+03  0.18250000000E+03  0.00000000000E+00 0.  1.
         23    2    1    2    0    0  0.16867578085E+02 -0.12021522244E+03 -0.10447890401E+03  0.18924012822E+03  0.10079568367E+03 0.  0.
        -11    1    1    2    0    0  0.12637048086E+02  0.70669708620E+02  0.92110855532E+02  0.11678318547E+03  0.00000000000E+00 0.  1.
         11    1    1    2    0    0 -0.29504626171E+02  0.49545513824E+02  0.12368048483E+02  0.58976686317E+02  0.00000000000E+00 0. -1.
        -15    1    3    3    0    0 -0.80331879864E+01 -0.54362712116E+02  0.89708862763E+01  0.55708806372E+02  0.17770000000E+01 0. -1.
         15    1    3    3    0    0  0.24900766072E+02 -0.65852510329E+02 -0.11344979029E+03  0.13353132184E+03  0.17770000000E+01 0.  1.
</event>
<event>
 7    1  0.9281110E-008  0.1414282E+03  0.7546771E-02  0.1106851E+00
        -11   -1    0    0    0    0  0.00000000000E+00  0.00000000000E+00  0.18250000000E+03  0.18250000000E+03  0.00000000000E+00 0. -1.
         11   -1    0    0    0    0 -0.00000000000E+00 -0.00000000000E+00 -0.18250000000E+03  0.18250000000E+03  0.00000000000E+00 0. -1.
         23    2    1    2    0    0 -0.81101309793E+02  0.45721015576E+02 -0.11272936748E+03  0.17118962658E+03  0.89051357320E+02 0.  0.
        -11    1    1    2    0    0  0.55449679934E+02 -0.74915737951E+02  0.22961283146E+02  0.95990912702E+02  0.00000000000E+00 0. -1.
         11    1    1    2    0    0  0.25651629859E+02  0.29194722375E+02  0.89768084338E+02  0.97819460716E+02  0.00000000000E+00 0. -1.
        -15    1    3    3    0    0  0.83345270959E+01  0.30565277031E+02 -0.55467911844E+02  0.63902640597E+02  0.17770000000E+01 0. -1.
         15    1    3    3    0    0 -0.89435836889E+02  0.15155738544E+02 -0.57261455641E+02  0.10728698599E+03  0.17770000000E+01 0.  1.
</event>
<event>
 7    1  0.9281110E-008  0.1563074E+03  0.7546771E-02  0.1091455E+00
        -11   -1    0    0    0    0  0.00000000000E+00  0.00000000000E+00  0.18250000000E+03  0.18250000000E+03  0.00000000000E+00 0. -1.
         11   -1    0    0    0    0 -0.00000000000E+00 -0.00000000000E+00 -0.18250000000E+03  0.18250000000E+03  0.00000000000E+00 0. -1.
         23    2    1    2    0    0 -0.43899920145E+02 -0.37417027768E+02 -0.85217976353E+02  0.13752075556E+03  0.91228382433E+02 0.  0.
        -11    1    1    2    0    0 -0.71010870789E+02 -0.14391204829E+02 -0.47582969254E+01  0.72610549759E+02  0.00000000000E+00 0. -1.
         11    1    1    2    0    0  0.11491079093E+03  0.51808232597E+02  0.89976273279E+02  0.15486869468E+03  0.00000000000E+00 0. -1.
        -15    1    3    3    0    0 -0.39884171156E+02 -0.62972336450E+02 -0.82883758492E+02  0.11148604136E+03  0.17770000000E+01 0. -1.
         15    1    3    3    0    0 -0.40157489894E+01  0.25555308682E+02 -0.23342178615E+01  0.26034714206E+02  0.17770000000E+01 0.  1.
</event>
<event>
 7    1  0.9281110E-008  0.1835152E+03  0.7546771E-02  0.1067650E+00
        -11   -1    0    0    0    0  0.00000000000E+00  0.00000000000E+00  0.18250000000E+03  0.18250000000E+03  0.00000000000E+00 0. -1.
         11   -1    0    0    0    0 -0.00000000000E+00 -0.00000000000E+00 -0.18250000000E+03  0.18250000000E+03  0.00000000000E+00 0.  1.
         23    2    1    2    0    0 -0.10545097492E+03 -0.72436272244E+02 -0.94268200995E+02  0.18489984859E+03  0.94522688502E+02 0.  0.
        -11    1    1    2    0    0 -0.14324695928E+02  0.73378517191E+01  0.16963329699E+02  0.23383659589E+02  0.00000000000E+00 0.  1.
         11    1    1    2    0    0  0.11977567085E+03  0.65098420525E+02  0.77304871296E+02  0.15671649182E+03  0.00000000000E+00 0. -1.
        -15    1    3    3    0    0 -0.11593608635E+03 -0.71702935917E+02 -0.59885129837E+02  0.14890222846E+03  0.17770000000E+01 0.  1.
         15    1    3    3    0    0  0.10485111424E+02 -0.73333632678E+00 -0.34383071158E+02  0.35997620130E+02  0.17770000000E+01 0. -1.
</event>
<event>
 7    1  0.9281110E-008  0.1633862E+03  0.7546771E-02  0.1084777E+00
        -11   -1    0    0    0    0  0.00000000000E+00  0.00000000000E+00  0.18250000000E+03  0.18250000000E+03  0.00000000000E+00 0. -1.
         11   -1    0    0    0    0 -0.00000000000E+00 -0.00000000000E+00 -0.18250000000E+03  0.18250000000E+03  0.00000000000E+00 0. -1.
         23    2    1    2    0    0 -0.19722989184E+02 -0.72832215588E+02 -0.86753228877E+02  0.14710624614E+03  0.91763810961E+02 0.  0.
        -11    1    1    2    0    0  0.42743614892E+02 -0.30078796756E+02 -0.30243398653E+02  0.60385542893E+02  0.00000000000E+00 0. -1.
         11    1    1    2    0    0 -0.23020625708E+02  0.10291101234E+03  0.11699662753E+03  0.15750821097E+03  0.00000000000E+00 0. -1.
        -15    1    3    3    0    0 -0.11317543413E+02  0.13830780963E+02 -0.48999786899E+02  0.52187298608E+02  0.17770000000E+01 0. -1.
         15    1    3    3    0    0 -0.84054457713E+01 -0.86662996550E+02 -0.37753441978E+02  0.94918947528E+02  0.17770000000E+01 0.  1.
</event>
<event>
 7    1  0.9281110E-008  0.1348987E+03  0.7546771E-02  0.1114282E+00
        -11   -1    0    0    0    0  0.00000000000E+00  0.00000000000E+00  0.18250000000E+03  0.18250000000E+03  0.00000000000E+00 0.  1.
         11   -1    0    0    0    0 -0.00000000000E+00 -0.00000000000E+00 -0.18250000000E+03  0.18250000000E+03  0.00000000000E+00 0. -1.
         23    2    1    2    0    0 -0.14491735527E+02 -0.25570593210E+02 -0.73660424027E+02  0.12353421274E+03  0.94715247003E+02 0.  0.
        -11    1    1    2    0    0 -0.89038045010E+02 -0.67668339063E+00  0.97492397830E+02  0.13203408270E+03  0.00000000000E+00 0.  1.
         11    1    1    2    0    0  0.10352978054E+03  0.26247276601E+02 -0.23831973803E+02  0.10943170456E+03  0.00000000000E+00 0. -1.
        -15    1    3    3    0    0 -0.28533719981E+02  0.48700084538E+01 -0.83629305871E+02  0.88515019560E+02  0.17770000000E+01 0. -1.
         15    1    3    3    0    0  0.14041984454E+02 -0.30440601664E+02  0.99688818437E+01  0.35019193184E+02  0.17770000000E+01 0.  1.
</event>
<event>
 7    1  0.9281110E-008  0.1650315E+03  0.7546771E-02  0.1083278E+00
        -11   -1    0    0    0    0  0.00000000000E+00  0.00000000000E+00  0.18250000000E+03  0.18250000000E+03  0.00000000000E+00 0.  1.
         11   -1    0    0    0    0 -0.00000000000E+00 -0.00000000000E+00 -0.18250000000E+03  0.18250000000E+03  0.00000000000E+00 0. -1.
         23    2    1    2    0    0  0.28413842964E+02  0.72883597367E+02 -0.10510068092E+03  0.15865688137E+03  0.89478978760E+02 0.  0.
        -11    1    1    2    0    0 -0.51373293717E+02 -0.32960970459E+02  0.13722804458E+03  0.15019046941E+03  0.00000000000E+00 0.  1.
         11    1    1    2    0    0  0.22959450754E+02 -0.39922626908E+02 -0.32127363668E+02  0.56152649220E+02  0.00000000000E+00 0. -1.
        -15    1    3    3    0    0  0.24822318460E+01 -0.20753161768E+02 -0.25645931501E+02  0.33131959343E+02  0.17770000000E+01 0.  1.
         15    1    3    3    0    0  0.25931611118E+02  0.93636759135E+02 -0.79454749415E+02  0.12552492203E+03  0.17770000000E+01 0. -1.
</event>
<event>
 7    1  0.9281110E-008  0.1538990E+03  0.7546771E-02  0.1093817E+00
        -11   -1    0    0    0    0  0.00000000000E+00  0.00000000000E+00  0.18250000000E+03  0.18250000000E+03  0.00000000000E+00 0.  1.
         11   -1    0    0    0    0 -0.00000000000E+00 -0.00000000000E+00 -0.18250000000E+03  0.18250000000E+03  0.00000000000E+00 0. -1.
         23    2    1    2    0    0 -0.19079952229E+02  0.10076449325E+03  0.76181876867E+02  0.15514953818E+03  0.88035067772E+02 0.  0.
        -11    1    1    2    0    0 -0.12988056230E+02 -0.56816927979E+02  0.47205680542E+02  0.75001527884E+02  0.00000000000E+00 0.  1.
         11    1    1    2    0    0  0.32068008460E+02 -0.43947565272E+02 -0.12338755741E+03  0.13484893393E+03  0.00000000000E+00 0. -1.
        -15    1    3    3    0    0 -0.26164098236E+02 -0.69978048113E+01  0.14689021755E+02  0.30861859922E+02  0.17770000000E+01 0.  1.
         15    1    3    3    0    0  0.70841460071E+01  0.10776229806E+03  0.61492855112E+02  0.12428767826E+03  0.17770000000E+01 0. -1.
</event>
<event>
 7    1  0.9281110E-008  0.1803947E+03  0.7546771E-02  0.1070143E+00
        -11   -1    0    0    0    0  0.00000000000E+00  0.00000000000E+00  0.18250000000E+03  0.18250000000E+03  0.00000000000E+00 0.  1.
         11   -1    0    0    0    0 -0.00000000000E+00 -0.00000000000E+00 -0.18250000000E+03  0.18250000000E+03  0.00000000000E+00 0.  1.
         23    2    1    2    0    0  0.97392073871E+02  0.34113713802E+02  0.11417207311E+03  0.17875886774E+03  0.90942338850E+02 0.  0.
        -11    1    1    2    0    0  0.10173442703E+02  0.22561636068E+02 -0.12383004051E+02  0.27674268695E+02  0.00000000000E+00 0.  1.
         11    1    1    2    0    0 -0.10756551657E+03 -0.56675349870E+02 -0.10178906906E+03  0.15856686356E+03  0.00000000000E+00 0.  1.
        -15    1    3    3    0    0  0.86757990578E+02  0.59193274435E+02  0.10822500202E+03  0.15081976481E+03  0.17770000000E+01 0.  1.
         15    1    3    3    0    0  0.10634083293E+02 -0.25079560633E+02  0.59470710983E+01  0.27939102932E+02  0.17770000000E+01 0. -1.
</event>
<event>
 7    1  0.1092866E-007  0.1286635E+03  0.7546771E-02  0.1121824E+00
        -11   -1    0    0    0    0  0.00000000000E+00  0.00000000000E+00  0.18250000000E+03  0.18250000000E+03  0.00000000000E+00 0. -1.
         11   -1    0    0    0    0 -0.00000000000E+00 -0.00000000000E+00 -0.18250000000E+03  0.18250000000E+03  0.00000000000E+00 0.  1.
         23    2    1    2    0    0  0.13211348290E+02  0.40294104902E+01  0.87216632845E+02  0.12743926026E+03  0.91887148933E+02 0.  0.
        -11    1    1    2    0    0 -0.16807461924E+01 -0.11218764584E+03 -0.44209245855E+02  0.12059581339E+03  0.00000000000E+00 0. -1.
         11    1    1    2    0    0 -0.11530602098E+02  0.10815823535E+03 -0.43007386990E+02  0.11696492635E+03  0.00000000000E+00 0.  1.
        -15    1    3    3    0    0  0.10864564996E+02 -0.28442745503E+02 -0.38224442465E+01  0.30737556073E+02  0.17770000000E+01 0.  1.
         15    1    3    3    0    0  0.23467832941E+01  0.32472155993E+02  0.91039077092E+02  0.96701704191E+02  0.17770000000E+01 0. -1.
</event>
<event>
 7    1  0.9281110E-008  0.1691760E+03  0.7546771E-02  0.1079585E+00
        -11   -1    0    0    0    0  0.00000000000E+00  0.00000000000E+00  0.18250000000E+03  0.18250000000E+03  0.00000000000E+00 0.  1.
         11   -1    0    0    0    0 -0.00000000000E+00 -0.00000000000E+00 -0.18250000000E+03  0.18250000000E+03  0.00000000000E+00 0. -1.
         23    2    1    2    0    0 -0.13231173221E+02  0.12644884706E+03  0.66735995047E+02  0.17090236315E+03  0.92679824282E+02 0.  0.
        -11    1    1    2    0    0  0.39465990861E+02 -0.18695281154E+02  0.24869581657E+02  0.50255089930E+02  0.00000000000E+00 0.  1.
         11    1    1    2    0    0 -0.26234817641E+02 -0.10775356590E+03 -0.91605576704E+02  0.14384254692E+03  0.00000000000E+00 0. -1.
        -15    1    3    3    0    0  0.72134164763E+01  0.16600396506E+02  0.55718589637E+02  0.58611649879E+02  0.17770000000E+01 0. -1.
         15    1    3    3    0    0 -0.20444589697E+02  0.10984845055E+03  0.11017405411E+02  0.11229071327E+03  0.17770000000E+01 0.  1.
</event>
<event>
 7    1  0.9281110E-008  0.1586280E+03  0.7546771E-02  0.1089224E+00
        -11   -1    0    0    0    0  0.00000000000E+00  0.00000000000E+00  0.18250000000E+03  0.18250000000E+03  0.00000000000E+00 0.  1.
         11   -1    0    0    0    0 -0.00000000000E+00 -0.00000000000E+00 -0.18250000000E+03  0.18250000000E+03  0.00000000000E+00 0. -1.
         23    2    1    2    0    0  0.26616180248E+02 -0.79210822196E+01 -0.13175579263E+03  0.16582286645E+03  0.96780522575E+02 0.  0.
        -11    1    1    2    0    0 -0.55639028529E+02  0.62862777530E+02  0.95839557583E+02  0.12740742165E+03  0.00000000000E+00 0.  1.
         11    1    1    2    0    0  0.29022848281E+02 -0.54941695310E+02  0.35916235051E+02  0.71769711900E+02  0.00000000000E+00 0. -1.
        -15    1    3    3    0    0  0.53742917838E+02 -0.21316729526E+02 -0.43113958669E+02  0.72143435852E+02  0.17770000000E+01 0.  1.
         15    1    3    3    0    0 -0.27126737591E+02  0.13395647306E+02 -0.88641833965E+02  0.93679430596E+02  0.17770000000E+01 0. -1.
</event>
<event>
 7    1  0.9281110E-008  0.1510689E+03  0.7546771E-02  0.1096653E+00
        -11   -1    0    0    0    0  0.00000000000E+00  0.00000000000E+00  0.18250000000E+03  0.18250000000E+03  0.00000000000E+00 0.  1.
         11   -1    0    0    0    0 -0.00000000000E+00 -0.00000000000E+00 -0.18250000000E+03  0.18250000000E+03  0.00000000000E+00 0.  1.
         23    2    1    2    0    0 -0.53101066471E+02  0.19588531226E+02  0.66798193436E+02  0.12819221979E+03  0.93636599431E+02 0.  0.
        -11    1    1    2    0    0  0.13535786304E+03 -0.10766140778E+02 -0.72415952454E+02  0.15388869693E+03  0.00000000000E+00 0.  1.
         11    1    1    2    0    0 -0.82256796568E+02 -0.88223904485E+01  0.56177590180E+01  0.82919083276E+02  0.00000000000E+00 0.  1.
        -15    1    3    3    0    0 -0.79276845201E+02  0.11588856000E+02  0.38945086521E+02  0.89101050844E+02  0.17770000000E+01 0.  1.
         15    1    3    3    0    0  0.26175778730E+02  0.79996752265E+01  0.27853106915E+02  0.39091168948E+02  0.17770000000E+01 0. -1.
</event>
<event>
 7    1  0.9281110E-008  0.2148026E+03  0.7546771E-02  0.1045304E+00
        -11   -1    0    0    0    0  0.00000000000E+00  0.00000000000E+00  0.18250000000E+03  0.18250000000E+03  0.00000000000E+00 0.  1.
         11   -1    0    0    0    0 -0.00000000000E+00 -0.00000000000E+00 -0.18250000000E+03  0.18250000000E+03  0.00000000000E+00 0. -1.
         23    2    1    2    0    0  0.23850563699E+02 -0.30814028036E+02  0.19141001591E+02  0.98945621672E+02  0.88912903415E+02 0.  0.
        -11    1    1    2    0    0  0.11268493423E+03 -0.18024312271E+02  0.20001575088E+02  0.11585695163E+03  0.00000000000E+00 0.  1.
         11    1    1    2    0    0 -0.13653549793E+03  0.48838340306E+02 -0.39142576679E+02  0.15019742670E+03  0.00000000000E+00 0. -1.
        -15    1    3    3    0    0 -0.15592689578E+02 -0.33155622304E+02 -0.21267310114E+02  0.42401455955E+02  0.17770000000E+01 0. -1.
         15    1    3    3    0    0  0.39443253277E+02  0.23415942684E+01  0.40408311705E+02  0.56544165717E+02  0.17770000000E+01 0.  1.
</event>
<event>
 7    1  0.9281110E-008  0.1769590E+03  0.7546771E-02  0.1072953E+00
        -11   -1    0    0    0    0  0.00000000000E+00  0.00000000000E+00  0.18250000000E+03  0.18250000000E+03  0.00000000000E+00 0. -1.
         11   -1    0    0    0    0 -0.00000000000E+00 -0.00000000000E+00 -0.18250000000E+03  0.18250000000E+03  0.00000000000E+00 0.  1.
         23    2    1    2    0    0 -0.14924209574E+02 -0.34994814303E+02 -0.13069168430E+03  0.16333845112E+03  0.90287120953E+02 0.  0.
        -11    1    1    2    0    0  0.31780453160E+02  0.37424832687E+02  0.16021998322E+03  0.16757403835E+03  0.00000000000E+00 0. -1.
         11    1    1    2    0    0 -0.16856243586E+02 -0.24300183837E+01 -0.29528298921E+02  0.34087510533E+02  0.00000000000E+00 0.  1.
        -15    1    3    3    0    0 -0.20055337676E+02 -0.18286679611E+02  0.40126998948E+01  0.27493248443E+02  0.17770000000E+01 0. -1.
         15    1    3    3    0    0  0.51311281021E+01 -0.16708134692E+02 -0.13470438419E+03  0.13584520268E+03  0.17770000000E+01 0.  1.
</event>
<event>
 7    1  0.9281110E-008  0.1238119E+03  0.7546771E-02  0.1128027E+00
        -11   -1    0    0    0    0  0.00000000000E+00  0.00000000000E+00  0.18250000000E+03  0.18250000000E+03  0.00000000000E+00 0.  1.
         11   -1    0    0    0    0 -0.00000000000E+00 -0.00000000000E+00 -0.18250000000E+03  0.18250000000E+03  0.00000000000E+00 0.  1.
         23    2    1    2    0    0  0.22016115422E+02 -0.56835549243E+01  0.58530434330E+02  0.10953885861E+03  0.89754875454E+02 0.  0.
        -11    1    1    2    0    0 -0.63659628396E+02 -0.10499990203E+03 -0.61148660832E+02  0.13717392768E+03  0.00000000000E+00 0.  1.
         11    1    1    2    0    0  0.41643512974E+02  0.11068345696E+03  0.26182265017E+01  0.11828721371E+03  0.00000000000E+00 0.  1.
        -15    1    3    3    0    0  0.21471906349E+02 -0.46693956502E+02  0.35225088249E+02  0.62332438643E+02  0.17770000000E+01 0.  1.
         15    1    3    3    0    0  0.54420907339E+00  0.41010401578E+02  0.23305346082E+02  0.47206419967E+02  0.17770000000E+01 0. -1.
</event>
<event>
 7    1  0.9281110E-008  0.2121484E+03  0.7546771E-02  0.1047034E+00
        -11   -1    0    0    0    0  0.00000000000E+00  0.00000000000E+00  0.18250000000E+03  0.18250000000E+03  0.00000000000E+00 0.  1.
         11   -1    0    0    0    0 -0.00000000000E+00 -0.00000000000E+00 -0.18250000000E+03  0.18250000000E+03  0.00000000000E+00 0. -1.
         23    2    1    2    0    0 -0.21563524473E+01  0.71854246633E+01 -0.46975286500E+02  0.10158561143E+03  0.89759003585E+02 0.  0.
        -11    1    1    2    0    0 -0.60762208260E+02 -0.38955463170E+01 -0.92287158018E+02  0.11056283629E+03  0.00000000000E+00 0. -1.
         11    1    1    2    0    0  0.62918560707E+02 -0.32898783463E+01  0.13926244452E+03  0.15285155228E+03  0.00000000000E+00 0.  1.
        -15    1    3    3    0    0  0.29412950104E+01  0.35559299980E+02  0.10521402472E+02  0.37242081982E+02  0.17770000000E+01 0. -1.
         15    1    3    3    0    0 -0.50976474577E+01 -0.28373875316E+02 -0.57496688972E+02  0.64343529448E+02  0.17770000000E+01 0.  1.
</event>
<event>
 7    1  0.9281110E-008  0.1319717E+03  0.7546771E-02  0.1117765E+00
        -11   -1    0    0    0    0  0.00000000000E+00  0.00000000000E+00  0.18250000000E+03  0.18250000000E+03  0.00000000000E+00 0.  1.
         11   -1    0    0    0    0 -0.00000000000E+00 -0.00000000000E+00 -0.18250000000E+03  0.18250000000E+03  0.00000000000E+00 0. -1.
         23    2    1    2    0    0  0.29156024054E+02  0.62830194999E+01 -0.62785506975E+02  0.11332130518E+03  0.89499431556E+02 0.  0.
        -11    1    1    2    0    0 -0.32051750326E+02 -0.11649250124E+03  0.72664951852E+02  0.14098940660E+03  0.00000000000E+00 0.  1.
         11    1    1    2    0    0  0.28957262725E+01  0.11020948174E+03 -0.98794448775E+01  0.11068928822E+03  0.00000000000E+00 0. -1.
        -15    1    3    3    0    0  0.87813655852E+01 -0.10709331413E+01  0.23062521158E+02  0.24764831727E+02  0.17770000000E+01 0. -1.
         15    1    3    3    0    0  0.20374658468E+02  0.73539526412E+01 -0.85848028132E+02  0.88556473452E+02  0.17770000000E+01 0.  1.
</event>
<event>
 7    1  0.9717778E-008  0.1584274E+03  0.7546771E-02  0.1089415E+00
        -11   -1    0    0    0    0  0.00000000000E+00  0.00000000000E+00  0.18250000000E+03  0.18250000000E+03  0.00000000000E+00 0.  1.
         11   -1    0    0    0    0 -0.00000000000E+00 -0.00000000000E+00 -0.18250000000E+03  0.18250000000E+03  0.00000000000E+00 0. -1.
         23    2    1    2    0    0  0.29348473968E+02 -0.57028261134E+01  0.96950952029E+02  0.13682606951E+03  0.91804308444E+02 0.  0.
        -11    1    1    2    0    0  0.56185240838E+02  0.17480729148E+02  0.36488758271E+02  0.69237176861E+02  0.00000000000E+00 0.  1.
         11    1    1    2    0    0 -0.85533714807E+02 -0.11777903035E+02 -0.13343971030E+03  0.15893675363E+03  0.00000000000E+00 0. -1.
        -15    1    3    3    0    0  0.36545249447E+02 -0.34590392717E+02  0.19786988650E+02  0.54099289961E+02  0.17770000000E+01 0.  1.
         15    1    3    3    0    0 -0.71967754783E+01  0.28887566604E+02  0.77163963379E+02  0.82726779551E+02  0.17770000000E+01 0. -1.
</event>
<event>
 7    1  0.9281110E-008  0.1383501E+03  0.7546771E-02  0.1110298E+00
        -11   -1    0    0    0    0  0.00000000000E+00  0.00000000000E+00  0.18250000000E+03  0.18250000000E+03  0.00000000000E+00 0.  1.
         11   -1    0    0    0    0 -0.00000000000E+00 -0.00000000000E+00 -0.18250000000E+03  0.18250000000E+03  0.00000000000E+00 0. -1.
         23    2    1    2    0    0 -0.55012065563E+02 -0.43226531327E+02 -0.51327488492E+02  0.12701119496E+03  0.92749513212E+02 0.  0.
        -11    1    1    2    0    0  0.50403352985E+02 -0.32358019977E+02  0.12104775805E+03  0.13505591130E+03  0.00000000000E+00 0.  1.
         11    1    1    2    0    0  0.46087125780E+01  0.75584551304E+02 -0.69720269556E+02  0.10293289374E+03  0.00000000000E+00 0. -1.
        -15    1    3    3    0    0 -0.65534574781E+02 -0.39853793750E+02 -0.23359202144E+01  0.76757537872E+02  0.17770000000E+01 0.  1.
         15    1    3    3    0    0  0.10522509217E+02 -0.33727375768E+01 -0.48991568277E+02  0.50253657084E+02  0.17770000000E+01 0. -1.
</event>
<event>
 7    1  0.9281110E-008  0.1899693E+03  0.7546771E-02  0.1062660E+00
        -11   -1    0    0    0    0  0.00000000000E+00  0.00000000000E+00  0.18250000000E+03  0.18250000000E+03  0.00000000000E+00 0. -1.
         11   -1    0    0    0    0 -0.00000000000E+00 -0.00000000000E+00 -0.18250000000E+03  0.18250000000E+03  0.00000000000E+00 0.  1.
         23    2    1    2    0    0 -0.10468888807E+03 -0.11214885173E+03  0.49244523377E+02  0.18872260697E+03  0.98255132537E+02 0.  0.
        -11    1    1    2    0    0  0.10025976800E+03  0.11499766424E+03 -0.60285201130E+02  0.16404508324E+03  0.00000000000E+00 0.  1.
         11    1    1    2    0    0  0.44291200758E+01 -0.28488125129E+01  0.11040677754E+02  0.12232309784E+02  0.00000000000E+00 0. -1.
        -15    1    3    3    0    0  0.18326307328E+01  0.13086966603E+02  0.16257591216E+02  0.21026036988E+02  0.17770000000E+01 0.  1.
         15    1    3    3    0    0 -0.10652151881E+03 -0.12523581833E+03  0.32986932160E+02  0.16769656999E+03  0.17770000000E+01 0. -1.
</event>
<event>
 7    1  0.9281110E-008  0.1394421E+03  0.7546771E-02  0.1109064E+00
        -11   -1    0    0    0    0  0.00000000000E+00  0.00000000000E+00  0.18250000000E+03  0.18250000000E+03  0.00000000000E+00 0. -1.
         11   -1    0    0    0    0 -0.00000000000E+00 -0.00000000000E+00 -0.18250000000E+03  0.18250000000E+03  0.00000000000E+00 0.  1.
         23    2    1    2    0    0  0.28928979716E+02 -0.58896059230E+02 -0.87067043649E+02  0.14221029241E+03  0.91309723022E+02 0.  0.
        -11    1    1    2    0    0  0.18885927999E+02 -0.53695136115E+02  0.82691577278E+02  0.10038796179E+03  0.00000000000E+00 0. -1.
         11    1    1    2    0    0 -0.47814907715E+02  0.11259119535E+03  0.43754663712E+01  0.12240174580E+03  0.00000000000E+00 0.  1.
        -15    1    3    3    0    0 -0.23378587211E+02 -0.55191634099E+02 -0.47260063033E+02  0.76350154560E+02  0.17770000000E+01 0.  1.
         15    1    3    3    0    0  0.52307566927E+02 -0.37044251320E+01 -0.39806980615E+02  0.65860137853E+02  0.17770000000E+01 0. -1.
</event>
<event>
 7    1  0.9281110E-008  0.1585393E+03  0.7546771E-02  0.1089309E+00
        -11   -1    0    0    0    0  0.00000000000E+00  0.00000000000E+00  0.18250000000E+03  0.18250000000E+03  0.00000000000E+00 0.  1.
         11   -1    0    0    0    0 -0.00000000000E+00 -0.00000000000E+00 -0.18250000000E+03  0.18250000000E+03  0.00000000000E+00 0.  1.
         23    2    1    2    0    0  0.84083922811E+02 -0.61481109151E+02  0.32975169541E+02  0.14301625654E+03  0.92283557427E+02 0.  0.
        -11    1    1    2    0    0  0.62319908877E+02  0.30179567594E+02 -0.30525969414E+01  0.69310141327E+02  0.00000000000E+00 0.  1.
         11    1    1    2    0    0 -0.14640383169E+03  0.31301541557E+02 -0.29922572600E+02  0.15267360213E+03  0.00000000000E+00 0.  1.
        -15    1    3    3    0    0  0.93501738738E+02 -0.54470719358E+02  0.52404528689E+02  0.12024569336E+03  0.17770000000E+01 0.  1.
         15    1    3    3    0    0 -0.94178159277E+01 -0.70103897936E+01 -0.19429359148E+02  0.22770563186E+02  0.17770000000E+01 0. -1.
</event>
<event>
 7    1  0.9281110E-008  0.1327800E+03  0.7546771E-02  0.1116793E+00
        -11   -1    0    0    0    0  0.00000000000E+00  0.00000000000E+00  0.18250000000E+03  0.18250000000E+03  0.00000000000E+00 0. -1.
         11   -1    0    0    0    0 -0.00000000000E+00 -0.00000000000E+00 -0.18250000000E+03  0.18250000000E+03  0.00000000000E+00 0.  1.
         23    2    1    2    0    0  0.77097601146E+01 -0.67134256211E+02  0.20743105054E+02  0.11720396222E+03  0.93488200292E+02 0.  0.
        -11    1    1    2    0    0 -0.48774743301E+02  0.10009941825E+03  0.77956769437E+02  0.13592691793E+03  0.00000000000E+00 0. -1.
         11    1    1    2    0    0  0.41064983186E+02 -0.32965162036E+02 -0.98699874491E+02  0.11186911985E+03  0.00000000000E+00 0.  1.
        -15    1    3    3    0    0  0.94409114834E+01 -0.36007273100E+02 -0.36394859251E+02  0.52090287335E+02  0.17770000000E+01 0.  1.
         15    1    3    3    0    0 -0.17311513688E+01 -0.31126983111E+02  0.57137964304E+02  0.65113674881E+02  0.17770000000E+01 0. -1.
</event>
<event>
 7    1  0.9281110E-008  0.1356028E+03  0.7546771E-02  0.1113459E+00
        -11   -1    0    0    0    0  0.00000000000E+00  0.00000000000E+00  0.18250000000E+03  0.18250000000E+03  0.00000000000E+00 0.  1.
         11   -1    0    0    0    0 -0.00000000000E+00 -0.00000000000E+00 -0.18250000000E+03  0.18250000000E+03  0.00000000000E+00 0. -1.
         23    2    1    2    0    0  0.65434777419E+02  0.78191261033E+02  0.30700519100E+02  0.14043920576E+03  0.91570001883E+02 0.  0.
        -11    1    1    2    0    0 -0.10181722620E+03  0.30856464146E+02 -0.35917498860E+01  0.10645078486E+03  0.00000000000E+00 0.  1.
         11    1    1    2    0    0  0.36382448779E+02 -0.10904772518E+03 -0.27108769214E+02  0.11811000937E+03  0.00000000000E+00 0. -1.
        -15    1    3    3    0    0  0.59495631512E+02  0.57548916626E+02 -0.20149403269E+02  0.85210117679E+02  0.17770000000E+01 0. -1.
         15    1    3    3    0    0  0.59391459075E+01  0.20642344407E+02  0.50849922369E+02  0.55229088085E+02  0.17770000000E+01 0.  1.
</event>
<event>
 7    1  0.9281110E-008  0.1913873E+03  0.7546771E-02  0.1061593E+00
        -11   -1    0    0    0    0  0.00000000000E+00  0.00000000000E+00  0.18250000000E+03  0.18250000000E+03  0.00000000000E+00 0. -1.
         11   -1    0    0    0    0 -0.00000000000E+00 -0.00000000000E+00 -0.18250000000E+03  0.18250000000E+03  0.00000000000E+00 0. -1.
         23    2    1    2    0    0 -0.18203086277E+02  0.53697809866E+02  0.15871647298E+03  0.19138731210E+03  0.90682839074E+02 0.  0.
        -11    1    1    2    0    0  0.11215537175E+02 -0.24705678747E+02 -0.25971349399E+02  0.37558884782E+02  0.00000000000E+00 0. -1.
         11    1    1    2    0    0  0.69875491016E+01 -0.28992131120E+02 -0.13274512358E+03  0.13605380312E+03  0.00000000000E+00 0. -1.
        -15    1    3    3    0    0 -0.43118111046E+02  0.28875526559E+02  0.14426131484E+03  0.15332140171E+03  0.17770000000E+01 0. -1.
         15    1    3    3    0    0  0.24915024769E+02  0.24822283307E+02  0.14455158141E+02  0.38065910388E+02  0.17770000000E+01 0.  1.
</event>
<event>
 7    1  0.9281110E-008  0.1580824E+03  0.7546771E-02  0.1089745E+00
        -11   -1    0    0    0    0  0.00000000000E+00  0.00000000000E+00  0.18250000000E+03  0.18250000000E+03  0.00000000000E+00 0.  1.
         11   -1    0    0    0    0 -0.00000000000E+00 -0.00000000000E+00 -0.18250000000E+03  0.18250000000E+03  0.00000000000E+00 0. -1.
         23    2    1    2    0    0 -0.17239370430E+02  0.27098549740E+02 -0.11722390134E+03  0.15161977789E+03  0.90639873736E+02 0.  0.
        -11    1    1    2    0    0 -0.22833908793E+02  0.24392330123E+02  0.14026096162E+03  0.14418568069E+03  0.00000000000E+00 0.  1.
         11    1    1    2    0    0  0.40073279223E+02 -0.51490879864E+02 -0.23037060285E+02  0.69194541428E+02  0.00000000000E+00 0. -1.
        -15    1    3    3    0    0 -0.31775280416E+02  0.13072917462E+02 -0.18258571368E+01  0.34453753058E+02  0.17770000000E+01 0. -1.
         15    1    3    3    0    0  0.14535909986E+02  0.14025632278E+02 -0.11539804420E+03  0.11716602483E+03  0.17770000000E+01 0.  1.
</event>
<event>
 7    1  0.9281110E-008  0.2176607E+03  0.7546771E-02  0.1043471E+00
        -11   -1    0    0    0    0  0.00000000000E+00  0.00000000000E+00  0.18250000000E+03  0.18250000000E+03  0.00000000000E+00 0. -1.
         11   -1    0    0    0    0 -0.00000000000E+00 -0.00000000000E+00 -0.18250000000E+03  0.18250000000E+03  0.00000000000E+00 0.  1.
         23    2    1    2    0    0 -0.30801843777E+02  0.20939952826E+01 -0.41932008111E+00  0.96526528124E+02  0.91455215302E+02 0.  0.
        -11    1    1    2    0    0  0.13026394561E+03 -0.51435584142E+01 -0.68656544970E+02  0.14733931208E+03  0.00000000000E+00 0.  1.
         11    1    1    2    0    0 -0.99462101831E+02  0.30495631317E+01  0.69075865051E+02  0.12113415979E+03  0.00000000000E+00 0. -1.
        -15    1    3    3    0    0 -0.13989071905E+02  0.44409993015E+02  0.14132472065E+02  0.48691129664E+02  0.17770000000E+01 0.  1.
         15    1    3    3    0    0 -0.16812771872E+02 -0.42315997732E+02 -0.14551792146E+02  0.47835398459E+02  0.17770000000E+01 0. -1.
</event>
<event>
 7    1  0.9281110E-008  0.2079411E+03  0.7546771E-02  0.1049834E+00
        -11   -1    0    0    0    0  0.00000000000E+00  0.00000000000E+00  0.18250000000E+03  0.18250000000E+03  0.00000000000E+00 0.  1.
         11   -1    0    0    0    0 -0.00000000000E+00 -0.00000000000E+00 -0.18250000000E+03  0.18250000000E+03  0.00000000000E+00 0. -1.
         23    2    1    2    0    0 -0.50827188176E+02 -0.41875107523E+02 -0.28860214253E+02  0.11524397746E+03  0.90062948471E+02 0.  0.
        -11    1    1    2    0    0  0.14209718668E+03  0.56513623825E+02  0.35806543108E+02  0.15705893374E+03  0.00000000000E+00 0.  1.
         11    1    1    2    0    0 -0.91269998501E+02 -0.14638516302E+02 -0.69463288555E+01  0.92697088791E+02  0.00000000000E+00 0. -1.
        -15    1    3    3    0    0 -0.26853590307E+02  0.90540693457E+01 -0.47994290984E+02  0.55764694746E+02  0.17770000000E+01 0. -1.
         15    1    3    3    0    0 -0.23973597869E+02 -0.50929176869E+02  0.19134076731E+02  0.59479282719E+02  0.17770000000E+01 0.  1.
</event>
<event>
 7    1  0.9281110E-008  0.1630335E+03  0.7546771E-02  0.1085101E+00
        -11   -1    0    0    0    0  0.00000000000E+00  0.00000000000E+00  0.18250000000E+03  0.18250000000E+03  0.00000000000E+00 0.  1.
         11   -1    0    0    0    0 -0.00000000000E+00 -0.00000000000E+00 -0.18250000000E+03  0.18250000000E+03  0.00000000000E+00 0.  1.
         23    2    1    2    0    0  0.27638840794E+01 -0.63048792795E+01 -0.12200318055E+03  0.15324510100E+03  0.92476452990E+02 0.  0.
        -11    1    1    2    0    0 -0.36079680948E+01  0.58275884042E+02 -0.19060407469E+02  0.61419827642E+02  0.00000000000E+00 0.  1.
         11    1    1    2    0    0  0.84408401536E+00 -0.51971004762E+02  0.14106358802E+03  0.15033507136E+03  0.00000000000E+00 0.  1.
        -15    1    3    3    0    0 -0.17899242301E+02 -0.41403928863E+02 -0.92479468121E+02  0.10290907615E+03  0.17770000000E+01 0. -1.
         15    1    3    3    0    0  0.20663126380E+02  0.35099049583E+02 -0.29523712433E+02  0.50336024856E+02  0.17770000000E+01 0.  1.
</event>
<event>
 7    1  0.9281110E-008  0.1229797E+03  0.7546771E-02  0.1129123E+00
        -11   -1    0    0    0    0  0.00000000000E+00  0.00000000000E+00  0.18250000000E+03  0.18250000000E+03  0.00000000000E+00 0.  1.
         11   -1    0    0    0    0 -0.00000000000E+00 -0.00000000000E+00 -0.18250000000E+03  0.18250000000E+03  0.00000000000E+00 0. -1.
         23    2    1    2    0    0 -0.46805792857E+02  0.80003938471E+02  0.85353998388E+01  0.11346294723E+03  0.64881237093E+02 0.  0.
        -11    1    1    2    0    0 -0.23506737491E+01  0.83133895585E+00 -0.11160323756E+03  0.11163108629E+03  0.00000000000E+00 0. -1.
         11    1    1    2    0    0  0.49156466606E+02 -0.80835277427E+02  0.10306783772E+03  0.13990596649E+03  0.00000000000E+00 0.  1.
        -15    1    3    3    0    0 -0.58675752945E+02  0.46286428623E+02  0.17046738696E+02  0.76674809994E+02  0.17770000000E+01 0. -1.
         15    1    3    3    0    0  0.11869960088E+02  0.33717509848E+02 -0.85113388575E+01  0.36788137232E+02  0.17770000000E+01 0.  1.
</event>
<event>
 7    1  0.9281110E-008  0.1542567E+03  0.7546771E-02  0.1093463E+00
        -11   -1    0    0    0    0  0.00000000000E+00  0.00000000000E+00  0.18250000000E+03  0.18250000000E+03  0.00000000000E+00 0.  1.
         11   -1    0    0    0    0 -0.00000000000E+00 -0.00000000000E+00 -0.18250000000E+03  0.18250000000E+03  0.00000000000E+00 0.  1.
         23    2    1    2    0    0 -0.49851124950E+02  0.10716492878E+03  0.19874750735E+02  0.15141234043E+03  0.92526939319E+02 0.  0.
        -11    1    1    2    0    0 -0.45661954017E+02 -0.17634407317E+02 -0.59274862518E+02  0.76873244322E+02  0.00000000000E+00 0.  1.
         11    1    1    2    0    0  0.95513078966E+02 -0.89530521463E+02  0.39400111783E+02  0.13671441524E+03  0.00000000000E+00 0.  1.
        -15    1    3    3    0    0 -0.73002418260E+02  0.85641134993E+02  0.32777552828E+02  0.11722321772E+03  0.17770000000E+01 0.  1.
         15    1    3    3    0    0  0.23151293311E+02  0.21523793787E+02 -0.12902802093E+02  0.34189122712E+02  0.17770000000E+01 0. -1.
</event>
<event>
 7    1  0.9281110E-008  0.1484831E+03  0.7546771E-02  0.1099304E+00
        -11   -1    0    0    0    0  0.00000000000E+00  0.00000000000E+00  0.18250000000E+03  0.18250000000E+03  0.00000000000E+00 0. -1.
         11   -1    0    0    0    0 -0.00000000000E+00 -0.00000000000E+00 -0.18250000000E+03  0.18250000000E+03  0.00000000000E+00 0.  1.
         23    2    1    2    0    0 -0.32293885437E+02 -0.14215694246E+02  0.92473946403E+02  0.13776938671E+03  0.95833147464E+02 0.  0.
        -11    1    1    2    0    0 -0.68180792831E+02  0.56105940706E+02 -0.65361167191E+01  0.88539358002E+02  0.00000000000E+00 0. -1.
         11    1    1    2    0    0  0.10047467827E+03 -0.41890246460E+02 -0.85937829684E+02  0.13869125528E+03  0.00000000000E+00 0.  1.
        -15    1    3    3    0    0 -0.47503337390E+00  0.39220074582E+02  0.28395235550E+02  0.48455000133E+02  0.17770000000E+01 0. -1.
         15    1    3    3    0    0 -0.31818852063E+02 -0.53435768828E+02  0.64078710853E+02  0.89314386582E+02  0.17770000000E+01 0.  1.
</event>
<event>
 6    1  0.9281110E-008  0.1173801E+03  0.7546771E-02  0.1136753E+00
        -11   -1    0    0    0    0  0.00000000000E+00  0.00000000000E+00  0.18250000000E+03  0.18250000000E+03  0.00000000000E+00 0. -1.
         11   -1    0    0    0    0 -0.00000000000E+00 -0.00000000000E+00 -0.18250000000E+03  0.18250000000E+03  0.00000000000E+00 0. -1.
        -11    1    1    2    0    0  0.12807634894E+03  0.33483422260E+02  0.41873949643E+01  0.13244706490E+03  0.00000000000E+00 0. -1.
         11    1    1    2    0    0 -0.88241391587E+02  0.51722651477E+02  0.49637000884E+02  0.11369084274E+03  0.00000000000E+00 0. -1.
        -15    1    1    2    0    0 -0.40701127480E+02 -0.91055810050E+02 -0.49825059881E+02  0.11150532114E+03  0.17770000000E+01 0.  1.
         15    1    1    2    0    0  0.86617012579E+00  0.58497363126E+01 -0.39993359671E+01  0.73567712205E+01  0.17770000000E+01 0. -1.
</event>
<event>
 7    1  0.9281110E-008  0.1478180E+03  0.7546771E-02  0.1099996E+00
        -11   -1    0    0    0    0  0.00000000000E+00  0.00000000000E+00  0.18250000000E+03  0.18250000000E+03  0.00000000000E+00 0.  1.
         11   -1    0    0    0    0 -0.00000000000E+00 -0.00000000000E+00 -0.18250000000E+03  0.18250000000E+03  0.00000000000E+00 0. -1.
         23    2    1    2    0    0  0.26071586176E+02 -0.11174012161E+03  0.69284491932E+02  0.16173393439E+03  0.90509349403E+02 0.  0.
        -11    1    1    2    0    0 -0.83160161397E+02  0.81048870504E+02 -0.11959079693E+02  0.11673710396E+03  0.00000000000E+00 0. -1.
         11    1    1    2    0    0  0.57088575221E+02  0.30691251107E+02 -0.57325412238E+02  0.86528961646E+02  0.00000000000E+00 0.  1.
        -15    1    3    3    0    0  0.96449170266E+01 -0.12465554777E+03  0.56895696065E+02  0.13737651901E+03  0.17770000000E+01 0.  1.
         15    1    3    3    0    0  0.16426669149E+02  0.12915426162E+02  0.12388795867E+02  0.24357415387E+02  0.17770000000E+01 0. -1.
</event>
<event>
 7    1  0.9281110E-008  0.1579915E+03  0.7546771E-02  0.1089832E+00
        -11   -1    0    0    0    0  0.00000000000E+00  0.00000000000E+00  0.18250000000E+03  0.18250000000E+03  0.00000000000E+00 0. -1.
         11   -1    0    0    0    0 -0.00000000000E+00 -0.00000000000E+00 -0.18250000000E+03  0.18250000000E+03  0.00000000000E+00 0. -1.
         23    2    1    2    0    0  0.34718375051E+02  0.81642006985E+02 -0.38096277482E+02  0.13227720565E+03  0.90416535572E+02 0.  0.
        -11    1    1    2    0    0 -0.38961892273E+02 -0.14782788600E+03  0.57953260472E+02  0.16349218124E+03  0.00000000000E+00 0. -1.
         11    1    1    2    0    0  0.42435172218E+01  0.66185879010E+02 -0.19856982990E+02  0.69230613114E+02  0.00000000000E+00 0. -1.
        -15    1    3    3    0    0 -0.26714511373E+02  0.42498412913E+02 -0.31098011481E+02  0.59076427322E+02  0.17770000000E+01 0.  1.
         15    1    3    3    0    0  0.61432886424E+02  0.39143594073E+02 -0.69982660003E+01  0.73200778325E+02  0.17770000000E+01 0. -1.
</event>
<event>
 7    1  0.9281110E-008  0.2107318E+03  0.7546771E-02  0.1047969E+00
        -11   -1    0    0    0    0  0.00000000000E+00  0.00000000000E+00  0.18250000000E+03  0.18250000000E+03  0.00000000000E+00 0. -1.
         11   -1    0    0    0    0 -0.00000000000E+00 -0.00000000000E+00 -0.18250000000E+03  0.18250000000E+03  0.00000000000E+00 0. -1.
         23    2    1    2    0    0  0.23829723962E+02 -0.60622870843E+01 -0.66698569036E+02  0.11538859055E+03  0.90891257273E+02 0.  0.
        -11    1    1    2    0    0 -0.23901621553E+02 -0.52109901984E+02 -0.76181345648E+02  0.95343205434E+02  0.00000000000E+00 0. -1.
         11    1    1    2    0    0  0.71897591022E-01  0.58172189068E+02  0.14287991468E+03  0.15426820402E+03  0.00000000000E+00 0. -1.
        -15    1    3    3    0    0 -0.24136660058E+02 -0.31573571939E+02 -0.29320993428E+02  0.49420109149E+02  0.17770000000E+01 0.  1.
         15    1    3    3    0    0  0.47966384020E+02  0.25511284855E+02 -0.37377575609E+02  0.65968481401E+02  0.17770000000E+01 0. -1.
</event>
<event>
 7    1  0.9281110E-008  0.2074462E+03  0.7546771E-02  0.1050168E+00
        -11   -1    0    0    0    0  0.00000000000E+00  0.00000000000E+00  0.18250000000E+03  0.18250000000E+03  0.00000000000E+00 0. -1.
         11   -1    0    0    0    0 -0.00000000000E+00 -0.00000000000E+00 -0.18250000000E+03  0.18250000000E+03  0.00000000000E+00 0.  1.
         23    2    1    2    0    0 -0.25134478551E+02 -0.30704730281E+02 -0.51827258621E+02  0.11267073474E+03  0.91837395741E+02 0.  0.
        -11    1    1    2    0    0 -0.35670141046E+02 -0.12729836208E+02 -0.86879078467E+02  0.94775429133E+02  0.00000000000E+00 0.  1.
         11    1    1    2    0    0  0.60804619597E+02  0.43434566490E+02  0.13870633709E+03  0.15755383613E+03  0.00000000000E+00 0. -1.
        -15    1    3    3    0    0 -0.12532868904E+02 -0.63506385109E+02 -0.36014209226E+02  0.74096658141E+02  0.17770000000E+01 0.  1.
         15    1    3    3    0    0 -0.12601609647E+02  0.32801654827E+02 -0.15813049396E+02  0.38574076597E+02  0.17770000000E+01 0. -1.
</event>
<event>
 7    1  0.9281110E-008  0.1869127E+03  0.7546771E-02  0.1064996E+00
        -11   -1    0    0    0    0  0.00000000000E+00  0.00000000000E+00  0.18250000000E+03  0.18250000000E+03  0.00000000000E+00 0. -1.
         11   -1    0    0    0    0 -0.00000000000E+00 -0.00000000000E+00 -0.18250000000E+03  0.18250000000E+03  0.00000000000E+00 0.  1.
         23    2    1    2    0    0  0.60199459792E+02 -0.46168579841E+02 -0.14374831697E+03  0.18691274490E+03  0.92289126385E+02 0.  0.
        -11    1    1    2    0    0 -0.65397152678E+02  0.14784417158E+02  0.65995999867E+02  0.94078895442E+02  0.00000000000E+00 0. -1.
         11    1    1    2    0    0  0.51976928852E+01  0.31384162683E+02  0.77752317102E+02  0.84008359663E+02  0.00000000000E+00 0.  1.
        -15    1    3    3    0    0  0.21095073890E+01 -0.58755713398E+02 -0.84614045493E+02  0.10305036779E+03  0.17770000000E+01 0.  1.
         15    1    3    3    0    0  0.58089952403E+02  0.12587133557E+02 -0.59134271476E+02  0.83862377104E+02  0.17770000000E+01 0. -1.
</event>
<event>
 7    1  0.9281110E-008  0.1708815E+03  0.7546771E-02  0.1078099E+00
        -11   -1    0    0    0    0  0.00000000000E+00  0.00000000000E+00  0.18250000000E+03  0.18250000000E+03  0.00000000000E+00 0.  1.
         11   -1    0    0    0    0 -0.00000000000E+00 -0.00000000000E+00 -0.18250000000E+03  0.18250000000E+03  0.00000000000E+00 0. -1.
         23    2    1    2    0    0  0.33985424369E+02 -0.12217434535E+03  0.86918232029E+02  0.17566740706E+03  0.84986346638E+02 0.  0.
        -11    1    1    2    0    0  0.50766093658E+01  0.35218005395E+02  0.24121012282E+02  0.42987243459E+02  0.00000000000E+00 0.  1.
         11    1    1    2    0    0 -0.39062033735E+02  0.86956339950E+02 -0.11103924431E+03  0.14634534948E+03  0.00000000000E+00 0. -1.
        -15    1    3    3    0    0  0.12526451379E+02  0.10412204066E+02  0.19193720303E+02  0.25236533156E+02  0.17770000000E+01 0. -1.
         15    1    3    3    0    0  0.21458972990E+02 -0.13258654941E+03  0.67724511726E+02  0.15043087391E+03  0.17770000000E+01 0.  1.
</event>
<event>
 7    1  0.9281110E-008  0.1576945E+03  0.7546771E-02  0.1090117E+00
        -11   -1    0    0    0    0  0.00000000000E+00  0.00000000000E+00  0.18250000000E+03  0.18250000000E+03  0.00000000000E+00 0.  1.
         11   -1    0    0    0    0 -0.00000000000E+00 -0.00000000000E+00 -0.18250000000E+03  0.18250000000E+03  0.00000000000E+00 0.  1.
         23    2    1    2    0    0 -0.10037479007E+03 -0.37897251559E+02 -0.71500946886E+02  0.14993981869E+03  0.76539294909E+02 0.  0.
        -11    1    1    2    0    0 -0.19307670350E+02  0.56048677207E+02 -0.20810380610E+02  0.62827639556E+02  0.00000000000E+00 0.  1.
         11    1    1    2    0    0  0.11968246042E+03 -0.18151425648E+02  0.92311327496E+02  0.15223254176E+03  0.00000000000E+00 0.  1.
        -15    1    3    3    0    0 -0.94598897112E+02 -0.30412226036E+02 -0.86744067764E+02  0.13191491898E+03  0.17770000000E+01 0.  1.
         15    1    3    3    0    0 -0.57758929582E+01 -0.74850255234E+01  0.15243120877E+02  0.18024899712E+02  0.17770000000E+01 0. -1.
</event>
<event>
 7    1  0.9281110E-008  0.1877934E+03  0.7546771E-02  0.1064318E+00
        -11   -1    0    0    0    0  0.00000000000E+00  0.00000000000E+00  0.18250000000E+03  0.18250000000E+03  0.00000000000E+00 0. -1.
         11   -1    0    0    0    0 -0.00000000000E+00 -0.00000000000E+00 -0.18250000000E+03  0.18250000000E+03  0.00000000000E+00 0.  1.
         23    2    1    2    0    0 -0.13645319671E+03 -0.67975182870E+02  0.56661414714E+02  0.18577439963E+03  0.89785919073E+02 0.  0.
        -11    1    1    2    0    0  0.13832947087E+03  0.64597650077E+02 -0.68087450466E+02  0.16716399079E+03  0.00000000000E+00 0.  1.
         11    1    1    2    0    0 -0.18762741663E+01  0.33775327934E+01  0.11426035751E+02  0.12061609574E+02  0.00000000000E+00 0. -1.
        -15    1    3    3    0    0 -0.99453335104E+02 -0.63180151712E+02 -0.85173555416E-01  0.11783828927E+03  0.17770000000E+01 0.  1.
         15    1    3    3    0    0 -0.36999861602E+02 -0.47950311579E+01  0.56746588270E+02  0.67936110365E+02  0.17770000000E+01 0. -1.
</event>
<event>
 7    1  0.9281110E-008  0.1461692E+03  0.7546771E-02  0.1101728E+00
        -11   -1    0    0    0    0  0.00000000000E+00  0.00000000000E+00  0.18250000000E+03  0.18250000000E+03  0.00000000000E+00 0. -1.
         11   -1    0    0    0    0 -0.00000000000E+00 -0.00000000000E+00 -0.18250000000E+03  0.18250000000E+03  0.00000000000E+00 0. -1.
         23    2    1    2    0    0  0.91594842063E+00  0.44622003395E+02 -0.58187558109E+02  0.11848898591E+03  0.93069252251E+02 0.  0.
        -11    1    1    2    0    0  0.90856688901E+01 -0.13104543530E+03  0.83806529993E+02  0.15581716838E+03  0.00000000000E+00 0. -1.
         11    1    1    2    0    0 -0.10001617311E+02  0.86423431901E+02 -0.25618971883E+02  0.90693845715E+02  0.00000000000E+00 0. -1.
        -15    1    3    3    0    0  0.30653511350E+02 -0.16750382926E+02 -0.20833706889E+02  0.40711351709E+02  0.17770000000E+01 0. -1.
         15    1    3    3    0    0 -0.29737562929E+02  0.61372386321E+02 -0.37353851221E+02  0.77777634200E+02  0.17770000000E+01 0.  1.
</event>
<event>
 7    1  0.9281110E-008  0.1784478E+03  0.7546771E-02  0.1071727E+00
        -11   -1    0    0    0    0  0.00000000000E+00  0.00000000000E+00  0.18250000000E+03  0.18250000000E+03  0.00000000000E+00 0.  1.
         11   -1    0    0    0    0 -0.00000000000E+00 -0.00000000000E+00 -0.18250000000E+03  0.18250000000E+03  0.00000000000E+00 0.  1.
         23    2    1    2    0    0 -0.18068331311E+02  0.64023095673E+02 -0.12617729688E+03  0.17224658434E+03  0.96554410526E+02 0.  0.
        -11    1    1    2    0    0 -0.91756663358E+01  0.33123291857E+02  0.44642886043E+01  0.34659417031E+02  0.00000000000E+00 0.  1.
         11    1    1    2    0    0  0.27243997646E+02 -0.97146387530E+02  0.12171300828E+03  0.15809399863E+03  0.00000000000E+00 0.  1.
        -15    1    3    3    0    0  0.14344710103E+02 -0.16752476625E+02 -0.44105999983E+01  0.22561633416E+02  0.17770000000E+01 0. -1.
         15    1    3    3    0    0 -0.32413041414E+02  0.80775572298E+02 -0.12176669689E+03  0.14968495092E+03  0.17770000000E+01 0.  1.
</event>
<event>
 6    1  0.2304015E-007  0.1953521E+03  0.7546771E-02  0.1058661E+00
        -11   -1    0    0    0    0  0.00000000000E+00  0.00000000000E+00  0.18250000000E+03  0.18250000000E+03  0.00000000000E+00 0. -1.
         11   -1    0    0    0    0 -0.00000000000E+00 -0.00000000000E+00 -0.18250000000E+03  0.18250000000E+03  0.00000000000E+00 0.  1.
        -11    1    1    2    0    0  0.96082223157E+02  0.11259024449E+02 -0.13936228857E+03  0.16964789039E+03  0.00000000000E+00 0.  1.
         11    1    1    2    0    0 -0.81608408779E+02 -0.16585320652E+02  0.83121030779E+02  0.11766100035E+03  0.00000000000E+00 0. -1.
        -15    1    1    2    0    0  0.13120551391E+01 -0.20324219753E+02  0.35868944855E+02  0.41286006483E+02  0.17770000000E+01 0.  1.
         15    1    1    2    0    0 -0.15785869518E+02  0.25650515957E+02  0.20372312935E+02  0.36405102782E+02  0.17770000000E+01 0. -1.
</event>
<event>
 7    1  0.9281110E-008  0.2129803E+03  0.7546771E-02  0.1046489E+00
        -11   -1    0    0    0    0  0.00000000000E+00  0.00000000000E+00  0.18250000000E+03  0.18250000000E+03  0.00000000000E+00 0. -1.
         11   -1    0    0    0    0 -0.00000000000E+00 -0.00000000000E+00 -0.18250000000E+03  0.18250000000E+03  0.00000000000E+00 0.  1.
         23    2    1    2    0    0  0.38526554875E+02 -0.29409161130E+02  0.20924651410E+02  0.10519407024E+03  0.90987676023E+02 0.  0.
        -11    1    1    2    0    0 -0.73653463402E+02  0.13131089194E+03 -0.21038074019E+02  0.15201968152E+03  0.00000000000E+00 0.  1.
         11    1    1    2    0    0  0.35126908527E+02 -0.10190173081E+03  0.11342260967E+00  0.10778624824E+03  0.00000000000E+00 0. -1.
        -15    1    3    3    0    0  0.37789416185E+02 -0.37043134362E+02  0.51355335143E+02  0.73761520833E+02  0.17770000000E+01 0. -1.
         15    1    3    3    0    0  0.73713868978E+00  0.76339732314E+01 -0.30430683733E+02  0.31432549407E+02  0.17770000000E+01 0.  1.
</event>
<event>
 7    1  0.9281110E-008  0.1904006E+03  0.7546771E-02  0.1062334E+00
        -11   -1    0    0    0    0  0.00000000000E+00  0.00000000000E+00  0.18250000000E+03  0.18250000000E+03  0.00000000000E+00 0.  1.
         11   -1    0    0    0    0 -0.00000000000E+00 -0.00000000000E+00 -0.18250000000E+03  0.18250000000E+03  0.00000000000E+00 0. -1.
         23    2    1    2    0    0 -0.27154610325E+02 -0.79423044543E+02 -0.14399489338E+03  0.19040055041E+03  0.92045898397E+02 0.  0.
        -11    1    1    2    0    0  0.10044500087E+02  0.48019729769E+02  0.12461428640E+03  0.13392351102E+03  0.00000000000E+00 0.  1.
         11    1    1    2    0    0  0.17110110238E+02  0.31403314775E+02  0.19380606983E+02  0.40675938566E+02  0.00000000000E+00 0. -1.
        -15    1    3    3    0    0 -0.53151590422E+02 -0.15776036662E+02 -0.71152960168E+02  0.90221263385E+02  0.17770000000E+01 0.  1.
         15    1    3    3    0    0  0.25996980097E+02 -0.63647007881E+02 -0.72841933214E+02  0.10017928703E+03  0.17770000000E+01 0. -1.
</event>
<event>
 6    1  0.9281110E-008  0.1190673E+03  0.7546771E-02  0.1134405E+00
        -11   -1    0    0    0    0  0.00000000000E+00  0.00000000000E+00  0.18250000000E+03  0.18250000000E+03  0.00000000000E+00 0.  1.
         11   -1    0    0    0    0 -0.00000000000E+00 -0.00000000000E+00 -0.18250000000E+03  0.18250000000E+03  0.00000000000E+00 0. -1.
        -11    1    1    2    0    0  0.48376732361E+02  0.11140421527E+03  0.51229320668E+02  0.13181673153E+03  0.00000000000E+00 0.  1.
         11    1    1    2    0    0  0.34882563191E+02  0.12666000328E+01 -0.40263876377E+01  0.35137007383E+02  0.00000000000E+00 0. -1.
        -15    1    1    2    0    0 -0.66413135286E+02 -0.96153352581E+02  0.27179284983E+02  0.11999184561E+03  0.17770000000E+01 0.  1.
         15    1    1    2    0    0 -0.16846160266E+02 -0.16517462726E+02 -0.74382218013E+02  0.78054415482E+02  0.17770000000E+01 0. -1.
</event>
<event>
 7    1  0.9281110E-008  0.2164757E+03  0.7546771E-02  0.1044227E+00
        -11   -1    0    0    0    0  0.00000000000E+00  0.00000000000E+00  0.18250000000E+03  0.18250000000E+03  0.00000000000E+00 0.  1.
         11   -1    0    0    0    0 -0.00000000000E+00 -0.00000000000E+00 -0.18250000000E+03  0.18250000000E+03  0.00000000000E+00 0. -1.
         23    2    1    2    0    0 -0.26812894351E+02  0.44857803191E+02 -0.14339768425E+02  0.10421091076E+03  0.89011971955E+02 0.  0.
        -11    1    1    2    0    0 -0.99408945997E+02 -0.33940718529E+01 -0.52055039001E+02  0.11226480015E+03  0.00000000000E+00 0. -1.
         11    1    1    2    0    0  0.12622184035E+03 -0.41463731339E+02  0.66394807426E+02  0.14852428909E+03  0.00000000000E+00 0.  1.
        -15    1    3    3    0    0  0.12625504241E+02  0.27364185203E+02  0.29830310105E+02  0.42440630522E+02  0.17770000000E+01 0.  1.
         15    1    3    3    0    0 -0.39438398592E+02  0.17493617989E+02 -0.44170078530E+02  0.61770280233E+02  0.17770000000E+01 0. -1.
</event>
<event>
 7    1  0.9281110E-008  0.2158510E+03  0.7546771E-02  0.1044628E+00
        -11   -1    0    0    0    0  0.00000000000E+00  0.00000000000E+00  0.18250000000E+03  0.18250000000E+03  0.00000000000E+00 0. -1.
         11   -1    0    0    0    0 -0.00000000000E+00 -0.00000000000E+00 -0.18250000000E+03  0.18250000000E+03  0.00000000000E+00 0.  1.
         23    2    1    2    0    0 -0.33489856978E+01 -0.48421584638E+01 -0.44420065932E+02  0.10292138838E+03  0.92655316764E+02 0.  0.
        -11    1    1    2    0    0 -0.39776070897E+02 -0.43074137022E+02  0.13714195497E+03  0.14914902920E+03  0.00000000000E+00 0. -1.
         11    1    1    2    0    0  0.43125056595E+02  0.47916295485E+02 -0.92721889041E+02  0.11292958243E+03  0.00000000000E+00 0.  1.
        -15    1    3    3    0    0  0.33589293325E+02 -0.22252172152E+02  0.28486908561E+01  0.40431084083E+02  0.17770000000E+01 0. -1.
         15    1    3    3    0    0 -0.36938279023E+02  0.17410013688E+02 -0.47268756788E+02  0.62490304296E+02  0.17770000000E+01 0.  1.
</event>
<event>
 7    1  0.9281110E-008  0.1365572E+03  0.7546771E-02  0.1112351E+00
        -11   -1    0    0    0    0  0.00000000000E+00  0.00000000000E+00  0.18250000000E+03  0.18250000000E+03  0.00000000000E+00 0. -1.
         11   -1    0    0    0    0 -0.00000000000E+00 -0.00000000000E+00 -0.18250000000E+03  0.18250000000E+03  0.00000000000E+00 0. -1.
         23    2    1    2    0    0 -0.85266837816E+02  0.22476250138E+02  0.24348108666E+01  0.12778190917E+03  0.92448215532E+02 0.  0.
        -11    1    1    2    0    0  0.83344622960E+02  0.15800989851E+02 -0.10074444539E+03  0.13170209085E+03  0.00000000000E+00 0. -1.
         11    1    1    2    0    0  0.19222148563E+01 -0.38277239990E+02  0.98309634527E+02  0.10551599998E+03  0.00000000000E+00 0. -1.
        -15    1    3    3    0    0 -0.14074793241E+00  0.39473389925E+02  0.95970940085E+01  0.40662393738E+02  0.17770000000E+01 0.  1.
         15    1    3    3    0    0 -0.85126089884E+02 -0.16997139786E+02 -0.71622831418E+01  0.87119515429E+02  0.17770000000E+01 0. -1.
</event>
<event>
 7    1  0.9281110E-008  0.1544272E+03  0.7546771E-02  0.1093295E+00
        -11   -1    0    0    0    0  0.00000000000E+00  0.00000000000E+00  0.18250000000E+03  0.18250000000E+03  0.00000000000E+00 0. -1.
         11   -1    0    0    0    0 -0.00000000000E+00 -0.00000000000E+00 -0.18250000000E+03  0.18250000000E+03  0.00000000000E+00 0.  1.
         23    2    1    2    0    0 -0.53068416397E+02  0.40637174983E+02  0.68968584044E+02  0.13218297180E+03  0.90818696529E+02 0.  0.
        -11    1    1    2    0    0 -0.74543163499E+02  0.10367737371E+02  0.73530308154E+01  0.75619046971E+02  0.00000000000E+00 0. -1.
         11    1    1    2    0    0  0.12761157990E+03 -0.51004912355E+02 -0.76321614860E+02  0.15719798123E+03  0.00000000000E+00 0.  1.
        -15    1    3    3    0    0 -0.55429592013E+02  0.59312559027E+02  0.76753909939E+02  0.11173513212E+03  0.17770000000E+01 0.  1.
         15    1    3    3    0    0  0.23611756161E+01 -0.18675384043E+02 -0.77853258941E+01  0.20447839684E+02  0.17770000000E+01 0. -1.
</event>
<event>
 7    1  0.9281110E-008  0.1239041E+03  0.7546771E-02  0.1127906E+00
        -11   -1    0    0    0    0  0.00000000000E+00  0.00000000000E+00  0.18250000000E+03  0.18250000000E+03  0.00000000000E+00 0.  1.
         11   -1    0    0    0    0 -0.00000000000E+00 -0.00000000000E+00 -0.18250000000E+03  0.18250000000E+03  0.00000000000E+00 0. -1.
         23    2    1    2    0    0 -0.46932816305E+02  0.25717775830E+02  0.24471476017E+02  0.11030046403E+03  0.93291189219E+02 0.  0.
        -11    1    1    2    0    0  0.10724655966E+03  0.34844910750E+02  0.65657154963E+02  0.13048698924E+03  0.00000000000E+00 0.  1.
         11    1    1    2    0    0 -0.60313743354E+02 -0.60562686580E+02 -0.90128630980E+02  0.12421254673E+03  0.00000000000E+00 0. -1.
        -15    1    3    3    0    0  0.10654317158E+02 -0.21845072162E+02  0.25918494181E+02  0.35575943016E+02  0.17770000000E+01 0.  1.
         15    1    3    3    0    0 -0.57587133463E+02  0.47562847992E+02 -0.14470181640E+01  0.74724521010E+02  0.17770000000E+01 0. -1.
</event>
<event>
 7    1  0.9281110E-008  0.1414456E+03  0.7546771E-02  0.1106832E+00
        -11   -1    0    0    0    0  0.00000000000E+00  0.00000000000E+00  0.18250000000E+03  0.18250000000E+03  0.00000000000E+00 0.  1.
         11   -1    0    0    0    0 -0.00000000000E+00 -0.00000000000E+00 -0.18250000000E+03  0.18250000000E+03  0.00000000000E+00 0.  1.
         23    2    1    2    0    0 -0.24278975117E+02 -0.22675296894E+02 -0.77982363775E+02  0.12481372958E+03  0.91616484926E+02 0.  0.
        -11    1    1    2    0    0  0.97386390715E+01 -0.96925445848E+02  0.13960816211E+01  0.97423468362E+02  0.00000000000E+00 0.  1.
         11    1    1    2    0    0  0.14540336046E+02  0.11960074274E+03  0.76586282154E+02  0.14276280206E+03  0.00000000000E+00 0.  1.
        -15    1    3    3    0    0  0.34513801606E+02 -0.34511482037E+01 -0.20366004901E+02  0.40262200757E+02  0.17770000000E+01 0.  1.
         15    1    3    3    0    0 -0.58792776723E+02 -0.19224148691E+02 -0.57616358874E+02  0.84551528824E+02  0.17770000000E+01 0. -1.
</event>
<event>
 7    1  0.9281110E-008  0.2185768E+03  0.7546771E-02  0.1042890E+00
        -11   -1    0    0    0    0  0.00000000000E+00  0.00000000000E+00  0.18250000000E+03  0.18250000000E+03  0.00000000000E+00 0.  1.
         11   -1    0    0    0    0 -0.00000000000E+00 -0.00000000000E+00 -0.18250000000E+03  0.18250000000E+03  0.00000000000E+00 0. -1.
         23    2    1    2    0    0 -0.26015857592E+02  0.37544970558E+02 -0.14920548028E+02  0.10269855900E+03  0.90762996897E+02 0.  0.
        -11    1    1    2    0    0  0.12055255862E+03 -0.22074466165E+02  0.80122103566E+02  0.14642319804E+03  0.00000000000E+00 0.  1.
         11    1    1    2    0    0 -0.94536701025E+02 -0.15470504393E+02 -0.65201555539E+02  0.11587824296E+03  0.00000000000E+00 0. -1.
        -15    1    3    3    0    0  0.85223259864E+01  0.74972659730E+00 -0.43707688796E+02  0.44572546697E+02  0.17770000000E+01 0. -1.
         15    1    3    3    0    0 -0.34538183578E+02  0.36795243961E+02  0.28787140768E+02  0.58126012298E+02  0.17770000000E+01 0.  1.
</event>
<event>
 7    1  0.9281110E-008  0.1360995E+03  0.7546771E-02  0.1112881E+00
        -11   -1    0    0    0    0  0.00000000000E+00  0.00000000000E+00  0.18250000000E+03  0.18250000000E+03  0.00000000000E+00 0. -1.
         11   -1    0    0    0    0 -0.00000000000E+00 -0.00000000000E+00 -0.18250000000E+03  0.18250000000E+03  0.00000000000E+00 0.  1.
         23    2    1    2    0    0  0.48156290659E+02 -0.43689658381E+02  0.10812141931E+02  0.11566254493E+03  0.95042660464E+02 0.  0.
        -11    1    1    2    0    0 -0.41959170711E+02  0.11663949146E+03  0.68315329127E+02  0.14153560389E+03  0.00000000000E+00 0. -1.
         11    1    1    2    0    0 -0.61971199486E+01 -0.72949833075E+02 -0.79127471058E+02  0.10780185118E+03  0.00000000000E+00 0.  1.
        -15    1    3    3    0    0 -0.14310944974E+02 -0.94998335039E+01  0.36144937187E+02  0.40058260021E+02  0.17770000000E+01 0. -1.
         15    1    3    3    0    0  0.62467235633E+02 -0.34189824877E+02 -0.25332795256E+02  0.75604284913E+02  0.17770000000E+01 0.  1.
</event>
<event>
 7    1  0.9281110E-008  0.2129555E+03  0.7546771E-02  0.1046505E+00
        -11   -1    0    0    0    0  0.00000000000E+00  0.00000000000E+00  0.18250000000E+03  0.18250000000E+03  0.00000000000E+00 0. -1.
         11   -1    0    0    0    0 -0.00000000000E+00 -0.00000000000E+00 -0.18250000000E+03  0.18250000000E+03  0.00000000000E+00 0.  1.
         23    2    1    2    0    0 -0.28121901677E+01  0.40573601686E+02  0.29584431175E+02  0.10469221360E+03  0.91820996796E+02 0.  0.
        -11    1    1    2    0    0 -0.52345811272E+02  0.93223619126E+02  0.17035612813E+02  0.10826328660E+03  0.00000000000E+00 0.  1.
         11    1    1    2    0    0  0.55158001440E+02 -0.13379722081E+03 -0.46620043988E+02  0.15204449981E+03  0.00000000000E+00 0. -1.
        -15    1    3    3    0    0 -0.25509108608E+02 -0.20308271268E+02  0.21721840743E+02  0.39219084617E+02  0.17770000000E+01 0.  1.
         15    1    3    3    0    0  0.22696918441E+02  0.60881872955E+02  0.78625904311E+01  0.65473128980E+02  0.17770000000E+01 0. -1.
</event>
<event>
 7    1  0.9281110E-008  0.1662835E+03  0.7546771E-02  0.1082150E+00
        -11   -1    0    0    0    0  0.00000000000E+00  0.00000000000E+00  0.18250000000E+03  0.18250000000E+03  0.00000000000E+00 0.  1.
         11   -1    0    0    0    0 -0.00000000000E+00 -0.00000000000E+00 -0.18250000000E+03  0.18250000000E+03  0.00000000000E+00 0. -1.
         23    2    1    2    0    0  0.32971925409E+02  0.54397283296E+02 -0.10780174229E+03  0.15616118723E+03  0.93374988410E+02 0.  0.
        -11    1    1    2    0    0 -0.81035019710E+02 -0.82133780629E+02  0.10022429237E+03  0.15283174121E+03  0.00000000000E+00 0.  1.
         11    1    1    2    0    0  0.48063094300E+02  0.27736497334E+02  0.75774499128E+01  0.56007071565E+02  0.00000000000E+00 0. -1.
        -15    1    3    3    0    0  0.17544945727E+02  0.13650099325E+02  0.14310194969E+02  0.26496976077E+02  0.17770000000E+01 0.  1.
         15    1    3    3    0    0  0.15426979683E+02  0.40747183970E+02 -0.12211193725E+03  0.12966421115E+03  0.17770000000E+01 0. -1.
</event>
<event>
 7    1  0.9281110E-008  0.1459424E+03  0.7546771E-02  0.1101968E+00
        -11   -1    0    0    0    0  0.00000000000E+00  0.00000000000E+00  0.18250000000E+03  0.18250000000E+03  0.00000000000E+00 0. -1.
         11   -1    0    0    0    0 -0.00000000000E+00 -0.00000000000E+00 -0.18250000000E+03  0.18250000000E+03  0.00000000000E+00 0. -1.
         23    2    1    2    0    0 -0.28010317830E+02 -0.37057991490E+02 -0.11204034272E+03  0.15539415868E+03  0.97141306962E+02 0.  0.
        -11    1    1    2    0    0  0.96775180986E+02 -0.42558006686E+01  0.63965560486E+02  0.11608247250E+03  0.00000000000E+00 0. -1.
         11    1    1    2    0    0 -0.68764863156E+02  0.41313792159E+02  0.48074782233E+02  0.93523368813E+02  0.00000000000E+00 0. -1.
        -15    1    3    3    0    0 -0.25779560325E+02  0.54033096120E+01  0.83618430779E+01  0.27692230570E+02  0.17770000000E+01 0.  1.
         15    1    3    3    0    0 -0.22307575056E+01 -0.42461301102E+02 -0.12040218580E+03  0.12770192811E+03  0.17770000000E+01 0. -1.
</event>
<event>
 7    1  0.9281110E-008  0.1359268E+03  0.7546771E-02  0.1113082E+00
        -11   -1    0    0    0    0  0.00000000000E+00  0.00000000000E+00  0.18250000000E+03  0.18250000000E+03  0.00000000000E+00 0.  1.
         11   -1    0    0    0    0 -0.00000000000E+00 -0.00000000000E+00 -0.18250000000E+03  0.18250000000E+03  0.00000000000E+00 0. -1.
         23    2    1    2    0    0  0.43151922871E+02 -0.13518678965E+02  0.68382242395E+02  0.12634659751E+03  0.96137861937E+02 0.  0.
        -11    1    1    2    0    0 -0.95622934346E+01 -0.10492667752E+03 -0.26963014241E+02  0.10875683541E+03  0.00000000000E+00 0.  1.
         11    1    1    2    0    0 -0.33589629436E+02  0.11844535649E+03 -0.41419228155E+02  0.12989656708E+03  0.00000000000E+00 0. -1.
        -15    1    3    3    0    0  0.47989511002E+02 -0.27012580826E+02  0.86879268803E+02  0.10287778072E+03  0.17770000000E+01 0.  1.
         15    1    3    3    0    0 -0.48375881311E+01  0.13493901861E+02 -0.18497026408E+02  0.23468816785E+02  0.17770000000E+01 0. -1.
</event>
<event>
 7    1  0.9281110E-008  0.1198197E+03  0.7546771E-02  0.1133372E+00
        -11   -1    0    0    0    0  0.00000000000E+00  0.00000000000E+00  0.18250000000E+03  0.18250000000E+03  0.00000000000E+00 0. -1.
         11   -1    0    0    0    0 -0.00000000000E+00 -0.00000000000E+00 -0.18250000000E+03  0.18250000000E+03  0.00000000000E+00 0. -1.
         23    2    1    2    0    0  0.57846341114E+02 -0.81833973239E+01  0.34546290990E+02  0.11593448684E+03  0.93990381669E+02 0.  0.
        -11    1    1    2    0    0  0.48668253768E+02 -0.27970846878E+02 -0.10306241990E+03  0.11735769935E+03  0.00000000000E+00 0. -1.
         11    1    1    2    0    0 -0.10651459488E+03  0.36154244202E+02  0.68516128915E+02  0.13170781381E+03  0.00000000000E+00 0. -1.
        -15    1    3    3    0    0 -0.65600961222E+01 -0.38697410215E+02  0.10085507444E+02  0.40563525585E+02  0.17770000000E+01 0. -1.
         15    1    3    3    0    0  0.64406437236E+02  0.30514012892E+02  0.24460783546E+02  0.75370961257E+02  0.17770000000E+01 0.  1.
</event>
<event>
 7    1  0.9281110E-008  0.1732520E+03  0.7546771E-02  0.1076064E+00
        -11   -1    0    0    0    0  0.00000000000E+00  0.00000000000E+00  0.18250000000E+03  0.18250000000E+03  0.00000000000E+00 0. -1.
         11   -1    0    0    0    0 -0.00000000000E+00 -0.00000000000E+00 -0.18250000000E+03  0.18250000000E+03  0.00000000000E+00 0. -1.
         23    2    1    2    0    0 -0.82242090161E+02 -0.94441748737E+02 -0.43187458311E+02  0.16249436829E+03  0.94107692941E+02 0.  0.
        -11    1    1    2    0    0 -0.23392624669E+02 -0.23610350866E+02  0.27829171334E+02  0.43348890805E+02  0.00000000000E+00 0. -1.
         11    1    1    2    0    0  0.10563471483E+03  0.11805209960E+03  0.15358286977E+02  0.15915674091E+03  0.00000000000E+00 0. -1.
        -15    1    3    3    0    0 -0.75957967299E+02 -0.11155671392E+03 -0.26160653190E+02  0.13748472905E+03  0.17770000000E+01 0. -1.
         15    1    3    3    0    0 -0.62841228619E+01  0.17114965181E+02 -0.17026805121E+02  0.25009639240E+02  0.17770000000E+01 0.  1.
</event>
<event>
 7    1  0.9281110E-008  0.2078634E+03  0.7546771E-02  0.1049886E+00
        -11   -1    0    0    0    0  0.00000000000E+00  0.00000000000E+00  0.18250000000E+03  0.18250000000E+03  0.00000000000E+00 0.  1.
         11   -1    0    0    0    0 -0.00000000000E+00 -0.00000000000E+00 -0.18250000000E+03  0.18250000000E+03  0.00000000000E+00 0. -1.
         23    2    1    2    0    0 -0.46684483759E+02 -0.55443966632E+02 -0.15572370338E+02  0.11503075966E+03  0.87955116343E+02 0.  0.
        -11    1    1    2    0    0 -0.89945370652E+02 -0.21742053050E+02  0.74173801128E+01  0.92832667204E+02  0.00000000000E+00 0.  1.
         11    1    1    2    0    0  0.13662985441E+03  0.77186019682E+02  0.81549902249E+01  0.15713657313E+03  0.00000000000E+00 0. -1.
        -15    1    3    3    0    0 -0.51911143819E+02 -0.33286510407E+02 -0.46024166160E+02  0.76968436566E+02  0.17770000000E+01 0. -1.
         15    1    3    3    0    0  0.52266600598E+01 -0.22157456225E+02  0.30451795822E+02  0.38062323097E+02  0.17770000000E+01 0.  1.
</event>
<event>
 7    1  0.9281110E-008  0.1481306E+03  0.7546771E-02  0.1099670E+00
        -11   -1    0    0    0    0  0.00000000000E+00  0.00000000000E+00  0.18250000000E+03  0.18250000000E+03  0.00000000000E+00 0. -1.
         11   -1    0    0    0    0 -0.00000000000E+00 -0.00000000000E+00 -0.18250000000E+03  0.18250000000E+03  0.00000000000E+00 0.  1.
         23    2    1    2    0    0  0.50100390255E+02  0.15841810829E+02 -0.72205669026E+02  0.12706599198E+03  0.90394112671E+02 0.  0.
        -11    1    1    2    0    0 -0.32901013397E+02  0.42482994612E+02 -0.67083368160E+02  0.85950333318E+02  0.00000000000E+00 0.  1.
         11    1    1    2    0    0 -0.17199376858E+02 -0.58324805441E+02  0.13928903719E+03  0.15198367470E+03  0.00000000000E+00 0. -1.
        -15    1    3    3    0    0  0.35741332313E+02  0.35630471495E+02 -0.85410052268E+02  0.99222014149E+02  0.17770000000E+01 0.  1.
         15    1    3    3    0    0  0.14359057942E+02 -0.19788660666E+02  0.13204383242E+02  0.27843977836E+02  0.17770000000E+01 0. -1.
</event>
<event>
 7    1  0.9281110E-008  0.1516571E+03  0.7546771E-02  0.1096058E+00
        -11   -1    0    0    0    0  0.00000000000E+00  0.00000000000E+00  0.18250000000E+03  0.18250000000E+03  0.00000000000E+00 0.  1.
         11   -1    0    0    0    0 -0.00000000000E+00 -0.00000000000E+00 -0.18250000000E+03  0.18250000000E+03  0.00000000000E+00 0. -1.
         23    2    1    2    0    0  0.67764928488E+02  0.22063412923E+02 -0.78483492824E+02  0.13921406381E+03  0.90233126920E+02 0.  0.
        -11    1    1    2    0    0 -0.56332383040E+02 -0.10048584893E+03  0.89356625036E+02  0.14579214537E+03  0.00000000000E+00 0.  1.
         11    1    1    2    0    0 -0.11432545447E+02  0.78422436010E+02 -0.10873132211E+02  0.79993790817E+02  0.00000000000E+00 0. -1.
        -15    1    3    3    0    0  0.54431256963E+02 -0.24554009616E+01 -0.92927485658E+02  0.10773795083E+03  0.17770000000E+01 0. -1.
         15    1    3    3    0    0  0.13333671524E+02  0.24518813884E+02  0.14443992833E+02  0.31476112984E+02  0.17770000000E+01 0.  1.
</event>
<event>
 7    1  0.9281110E-008  0.1731320E+03  0.7546771E-02  0.1076166E+00
        -11   -1    0    0    0    0  0.00000000000E+00  0.00000000000E+00  0.18250000000E+03  0.18250000000E+03  0.00000000000E+00 0.  1.
         11   -1    0    0    0    0 -0.00000000000E+00 -0.00000000000E+00 -0.18250000000E+03  0.18250000000E+03  0.00000000000E+00 0. -1.
         23    2    1    2    0    0 -0.38771682548E+02  0.26403753539E+02  0.12729739021E+03  0.16342638136E+03  0.91121649460E+02 0.  0.
        -11    1    1    2    0    0 -0.12019684392E+02 -0.32245768042E+02  0.23944658176E+02  0.41923847923E+02  0.00000000000E+00 0.  1.
         11    1    1    2    0    0  0.50791366939E+02  0.58420145032E+01 -0.15124204839E+03  0.15964977072E+03  0.00000000000E+00 0. -1.
        -15    1    3    3    0    0 -0.22593691367E+02  0.60095440684E+02  0.70065982775E+02  0.95049127044E+02  0.17770000000E+01 0.  1.
         15    1    3    3    0    0 -0.16177991181E+02 -0.33691687145E+02  0.57231407439E+02  0.68377254315E+02  0.17770000000E+01 0. -1.
</event>
<event>
 7    1  0.9281110E-008  0.1670299E+03  0.7546771E-02  0.1081483E+00
        -11   -1    0    0    0    0  0.00000000000E+00  0.00000000000E+00  0.18250000000E+03  0.18250000000E+03  0.00000000000E+00 0. -1.
         11   -1    0    0    0    0 -0.00000000000E+00 -0.00000000000E+00 -0.18250000000E+03  0.18250000000E+03  0.00000000000E+00 0. -1.
         23    2    1    2    0    0  0.24849401790E+02 -0.46594682352E+02 -0.12687399678E+03  0.16511376207E+03  0.91525877058E+02 0.  0.
        -11    1    1    2    0    0 -0.24987912536E+02  0.96426741837E+02  0.10712990715E+03  0.14628509603E+03  0.00000000000E+00 0. -1.
         11    1    1    2    0    0  0.13851074585E+00 -0.49832059485E+02  0.19744089632E+02  0.53601141902E+02  0.00000000000E+00 0. -1.
        -15    1    3    3    0    0 -0.14424262540E+02  0.23491822304E+00  0.83113822690E+01  0.16743695549E+02  0.17770000000E+01 0.  1.
         15    1    3    3    0    0  0.39273664331E+02 -0.46829600575E+02 -0.13518537905E+03  0.14837006652E+03  0.17770000000E+01 0. -1.
</event>
<event>
 7    1  0.9281110E-008  0.1477031E+03  0.7546771E-02  0.1100116E+00
        -11   -1    0    0    0    0  0.00000000000E+00  0.00000000000E+00  0.18250000000E+03  0.18250000000E+03  0.00000000000E+00 0. -1.
         11   -1    0    0    0    0 -0.00000000000E+00 -0.00000000000E+00 -0.18250000000E+03  0.18250000000E+03  0.00000000000E+00 0. -1.
         23    2    1    2    0    0 -0.56249139136E+02  0.23208369163E+02  0.84905908089E+02  0.13988915656E+03  0.93044982896E+02 0.  0.
        -11    1    1    2    0    0 -0.19430085471E+02  0.78969656879E+02 -0.34059190929E+02  0.88168948138E+02  0.00000000000E+00 0. -1.
         11    1    1    2    0    0  0.75679224607E+02 -0.10217802604E+03 -0.50846717159E+02  0.13694189530E+03  0.00000000000E+00 0. -1.
        -15    1    3    3    0    0  0.11803282456E+02  0.21225956839E+02  0.64267107461E+02  0.68726105309E+02  0.17770000000E+01 0.  1.
         15    1    3    3    0    0 -0.68052421592E+02  0.19824123236E+01  0.20638800627E+02  0.71163051252E+02  0.17770000000E+01 0. -1.
</event>
<event>
 7    1  0.9281110E-008  0.1720449E+03  0.7546771E-02  0.1077096E+00
        -11   -1    0    0    0    0  0.00000000000E+00  0.00000000000E+00  0.18250000000E+03  0.18250000000E+03  0.00000000000E+00 0. -1.
         11   -1    0    0    0    0 -0.00000000000E+00 -0.00000000000E+00 -0.18250000000E+03  0.18250000000E+03  0.00000000000E+00 0. -1.
         23    2    1    2    0    0  0.55456283713E+02 -0.78534154320E+02 -0.87529096853E+02  0.15894098856E+03  0.91421453999E+02 0.  0.
        -11    1    1    2    0    0 -0.97556304698E+02  0.91257707762E+02  0.91471571356E+02  0.16190197707E+03  0.00000000000E+00 0. -1.
         11    1    1    2    0    0  0.42100020985E+02 -0.12723553441E+02 -0.39424745030E+01  0.44157034370E+02  0.00000000000E+00 0. -1.
        -15    1    3    3    0    0 -0.21338827732E+00  0.61446378041E+01  0.14053754567E+02  0.15442404435E+02  0.17770000000E+01 0.  1.
         15    1    3    3    0    0  0.55669671990E+02 -0.84678792124E+02 -0.10158285142E+03  0.14349858413E+03  0.17770000000E+01 0. -1.
</event>
<event>
 7    1  0.9281110E-008  0.1913937E+03  0.7546771E-02  0.1061588E+00
        -11   -1    0    0    0    0  0.00000000000E+00  0.00000000000E+00  0.18250000000E+03  0.18250000000E+03  0.00000000000E+00 0. -1.
         11   -1    0    0    0    0 -0.00000000000E+00 -0.00000000000E+00 -0.18250000000E+03  0.18250000000E+03  0.00000000000E+00 0. -1.
         23    2    1    2    0    0  0.25389996147E+02 -0.69052764267E+01 -0.16390249781E+03  0.19139374723E+03  0.95263859589E+02 0.  0.
        -11    1    1    2    0    0 -0.29285513947E+02 -0.16250965981E+02  0.10427502224E+03  0.10952175804E+03  0.00000000000E+00 0. -1.
         11    1    1    2    0    0  0.38955177995E+01  0.23156242408E+02  0.59627475571E+02  0.64084494726E+02  0.00000000000E+00 0. -1.
        -15    1    3    3    0    0  0.78641397925E+01  0.25563720747E+02 -0.37855727386E+01  0.27070958666E+02  0.17770000000E+01 0.  1.
         15    1    3    3    0    0  0.17525856355E+02 -0.32468997174E+02 -0.16011692507E+03  0.16432278856E+03  0.17770000000E+01 0. -1.
</event>
<event>
 7    1  0.9281110E-008  0.1291414E+03  0.7546771E-02  0.1121229E+00
        -11   -1    0    0    0    0  0.00000000000E+00  0.00000000000E+00  0.18250000000E+03  0.18250000000E+03  0.00000000000E+00 0. -1.
         11   -1    0    0    0    0 -0.00000000000E+00 -0.00000000000E+00 -0.18250000000E+03  0.18250000000E+03  0.00000000000E+00 0.  1.
         23    2    1    2    0    0 -0.34871497989E+02 -0.27934476573E+02 -0.14218055064E+02  0.10249577608E+03  0.91142057638E+02 0.  0.
        -11    1    1    2    0    0  0.65005085546E+02 -0.36487685721E+02  0.11626965337E+03  0.13811460695E+03  0.00000000000E+00 0. -1.
         11    1    1    2    0    0 -0.30133587557E+02  0.64422162294E+02 -0.10205159831E+03  0.12438961698E+03  0.00000000000E+00 0.  1.
        -15    1    3    3    0    0 -0.57519317836E+02 -0.44619965295E+02 -0.14779848790E+02  0.74303532127E+02  0.17770000000E+01 0.  1.
         15    1    3    3    0    0  0.22647819847E+02  0.16685488723E+02  0.56179372639E+00  0.28192243950E+02  0.17770000000E+01 0. -1.
</event>
<event>
 7    1  0.9281110E-008  0.2062206E+03  0.7546771E-02  0.1050999E+00
        -11   -1    0    0    0    0  0.00000000000E+00  0.00000000000E+00  0.18250000000E+03  0.18250000000E+03  0.00000000000E+00 0.  1.
         11   -1    0    0    0    0 -0.00000000000E+00 -0.00000000000E+00 -0.18250000000E+03  0.18250000000E+03  0.00000000000E+00 0. -1.
         23    2    1    2    0    0  0.91895661480E+01 -0.54305624040E+02 -0.31990962845E+02  0.11016895718E+03  0.89890091184E+02 0.  0.
        -11    1    1    2    0    0 -0.57063143850E+01  0.12978204200E+03  0.91296028872E+02  0.15877942354E+03  0.00000000000E+00 0.  1.
         11    1    1    2    0    0 -0.34832517629E+01 -0.75476417964E+02 -0.59305066026E+02  0.96051619289E+02  0.00000000000E+00 0. -1.
        -15    1    3    3    0    0 -0.31499541080E+02 -0.61767110749E+01  0.10863821171E+02  0.33934542687E+02  0.17770000000E+01 0.  1.
         15    1    3    3    0    0  0.40689107228E+02 -0.48128912965E+02 -0.42854784017E+02  0.76234414488E+02  0.17770000000E+01 0. -1.
</event>
<event>
 7    1  0.9281110E-008  0.1550020E+03  0.7546771E-02  0.1092729E+00
        -11   -1    0    0    0    0  0.00000000000E+00  0.00000000000E+00  0.18250000000E+03  0.18250000000E+03  0.00000000000E+00 0.  1.
         11   -1    0    0    0    0 -0.00000000000E+00 -0.00000000000E+00 -0.18250000000E+03  0.18250000000E+03  0.00000000000E+00 0.  1.
         23    2    1    2    0    0  0.57307345984E+02 -0.52416497643E+02 -0.32545458454E+02  0.13655114872E+03  0.10749599165E+03 0.  0.
        -11    1    1    2    0    0 -0.28713440497E+02 -0.76934949582E+02 -0.22265373957E+02  0.85083459085E+02  0.00000000000E+00 0.  1.
         11    1    1    2    0    0 -0.28593905486E+02  0.12935144723E+03  0.54810832411E+02  0.14336539220E+03  0.00000000000E+00 0.  1.
        -15    1    3    3    0    0  0.55414340928E+02 -0.43806682049E+02 -0.69144786313E+02  0.98863207392E+02  0.17770000000E+01 0.  1.
         15    1    3    3    0    0  0.18930050553E+01 -0.86098155942E+01  0.36599327858E+02  0.37687941326E+02  0.17770000000E+01 0. -1.
</event>
<event>
 7    1  0.9281110E-008  0.1738814E+03  0.7546771E-02  0.1075530E+00
        -11   -1    0    0    0    0  0.00000000000E+00  0.00000000000E+00  0.18250000000E+03  0.18250000000E+03  0.00000000000E+00 0.  1.
         11   -1    0    0    0    0 -0.00000000000E+00 -0.00000000000E+00 -0.18250000000E+03  0.18250000000E+03  0.00000000000E+00 0.  1.
         23    2    1    2    0    0  0.71131147024E+02  0.94415551713E+02 -0.44228166625E+02  0.16368399589E+03  0.10422275809E+03 0.  0.
        -11    1    1    2    0    0  0.47197291820E+02 -0.95283306903E+01 -0.29419733434E+01  0.48239285319E+02  0.00000000000E+00 0.  1.
         11    1    1    2    0    0 -0.11832843884E+03 -0.84887221023E+02  0.47170139968E+02  0.15307671879E+03  0.00000000000E+00 0.  1.
        -15    1    3    3    0    0  0.64023146893E+02  0.75873754347E+02  0.15700660200E+02  0.10052590908E+03  0.17770000000E+01 0.  1.
         15    1    3    3    0    0  0.71080001313E+01  0.18541797366E+02 -0.59928826825E+02  0.63158086806E+02  0.17770000000E+01 0. -1.
</event>
<event>
 7    1  0.9281110E-008  0.1677307E+03  0.7546771E-02  0.1080859E+00
        -11   -1    0    0    0    0  0.00000000000E+00  0.00000000000E+00  0.18250000000E+03  0.18250000000E+03  0.00000000000E+00 0.  1.
         11   -1    0    0    0    0 -0.00000000000E+00 -0.00000000000E+00 -0.18250000000E+03  0.18250000000E+03  0.00000000000E+00 0. -1.
         23    2    1    2    0    0  0.36817605730E+02 -0.76461506114E+02  0.84084752299E+02  0.15145581394E+03  0.93095220067E+02 0.  0.
        -11    1    1    2    0    0 -0.11015101876E+02  0.11099334795E+03 -0.11522394513E+03  0.16036649678E+03  0.00000000000E+00 0. -1.
         11    1    1    2    0    0 -0.25802503854E+02 -0.34531841839E+02  0.31139192833E+02  0.53177689271E+02  0.00000000000E+00 0.  1.
        -15    1    3    3    0    0  0.43184999682E+02 -0.16427123518E+02  0.78102297785E+02  0.90762994844E+02  0.17770000000E+01 0.  1.
         15    1    3    3    0    0 -0.63673939517E+01 -0.60034382596E+02  0.59824545137E+01  0.60692819101E+02  0.17770000000E+01 0. -1.
</event>
<event>
 7    1  0.9281110E-008  0.2205012E+03  0.7546771E-02  0.1041679E+00
        -11   -1    0    0    0    0  0.00000000000E+00  0.00000000000E+00  0.18250000000E+03  0.18250000000E+03  0.00000000000E+00 0.  1.
         11   -1    0    0    0    0 -0.00000000000E+00 -0.00000000000E+00 -0.18250000000E+03  0.18250000000E+03  0.00000000000E+00 0. -1.
         23    2    1    2    0    0 -0.77825110444E+01  0.18393006025E+02  0.13324366908E+02  0.95515901431E+02  0.92449329494E+02 0.  0.
        -11    1    1    2    0    0  0.42169539759E+02  0.91920826329E+02  0.73441310337E+02  0.12498533698E+03  0.00000000000E+00 0.  1.
         11    1    1    2    0    0 -0.34387028714E+02 -0.11031383235E+03 -0.86765677245E+02  0.14449876159E+03  0.00000000000E+00 0. -1.
        -15    1    3    3    0    0 -0.13583285864E+02 -0.48719967445E+00 -0.38051641579E+02  0.40445372717E+02  0.17770000000E+01 0. -1.
         15    1    3    3    0    0  0.58007748197E+01  0.18880205700E+02  0.51376008486E+02  0.55070528713E+02  0.17770000000E+01 0.  1.
</event>
<event>
 7    1  0.9281110E-008  0.1616413E+03  0.7546771E-02  0.1086388E+00
        -11   -1    0    0    0    0  0.00000000000E+00  0.00000000000E+00  0.18250000000E+03  0.18250000000E+03  0.00000000000E+00 0. -1.
         11   -1    0    0    0    0 -0.00000000000E+00 -0.00000000000E+00 -0.18250000000E+03  0.18250000000E+03  0.00000000000E+00 0.  1.
         23    2    1    2    0    0 -0.91105908172E+02  0.11030334722E+03 -0.24925988863E+02  0.17011079658E+03  0.88596068091E+02 0.  0.
        -11    1    1    2    0    0  0.66343681348E+02 -0.86536210357E+02  0.76313777638E+02  0.13309317193E+03  0.00000000000E+00 0. -1.
         11    1    1    2    0    0  0.24762226824E+02 -0.23767136865E+02 -0.51387788774E+02  0.61796031484E+02  0.00000000000E+00 0.  1.
        -15    1    3    3    0    0 -0.78944400888E+00 -0.11815033263E+02  0.83657479108E+01  0.14606905900E+02  0.17770000000E+01 0.  1.
         15    1    3    3    0    0 -0.90316464163E+02  0.12211838049E+03 -0.33291736774E+02  0.15550389068E+03  0.17770000000E+01 0. -1.
</event>
<event>
 7    1  0.9281110E-008  0.2148306E+03  0.7546771E-02  0.1045286E+00
        -11   -1    0    0    0    0  0.00000000000E+00  0.00000000000E+00  0.18250000000E+03  0.18250000000E+03  0.00000000000E+00 0. -1.
         11   -1    0    0    0    0 -0.00000000000E+00 -0.00000000000E+00 -0.18250000000E+03  0.18250000000E+03  0.00000000000E+00 0. -1.
         23    2    1    2    0    0  0.36007683542E+02  0.75841006295E+01 -0.36796188305E+02  0.10312081996E+03  0.89027367586E+02 0.  0.
        -11    1    1    2    0    0  0.12570322638E+02 -0.51439037251E+02 -0.98362075779E+02  0.11170982730E+03  0.00000000000E+00 0. -1.
         11    1    1    2    0    0 -0.48578006181E+02  0.43854936622E+02  0.13515826408E+03  0.15016935273E+03  0.00000000000E+00 0. -1.
        -15    1    3    3    0    0 -0.24785500540E+02 -0.11221809962E+02 -0.27605716258E+02  0.38800558694E+02  0.17770000000E+01 0. -1.
         15    1    3    3    0    0  0.60793184083E+02  0.18805910591E+02 -0.91904720466E+01  0.64320261268E+02  0.17770000000E+01 0.  1.
</event>
<event>
 7    1  0.9281110E-008  0.1862598E+03  0.7546771E-02  0.1065501E+00
        -11   -1    0    0    0    0  0.00000000000E+00  0.00000000000E+00  0.18250000000E+03  0.18250000000E+03  0.00000000000E+00 0.  1.
         11   -1    0    0    0    0 -0.00000000000E+00 -0.00000000000E+00 -0.18250000000E+03  0.18250000000E+03  0.00000000000E+00 0. -1.
         23    2    1    2    0    0  0.55110670486E+02  0.12783705861E+03  0.77016353487E+02  0.18196267329E+03  0.88314190329E+02 0.  0.
        -11    1    1    2    0    0 -0.62528616245E+02 -0.13910654687E+03 -0.71840668821E+02  0.16858689430E+03  0.00000000000E+00 0.  1.
         11    1    1    2    0    0  0.74179457592E+01  0.11269488265E+02 -0.51756846655E+01  0.14450432408E+02  0.00000000000E+00 0. -1.
        -15    1    3    3    0    0  0.78287548426E+02  0.87263860296E+02  0.46536057289E+02  0.12614548707E+03  0.17770000000E+01 0. -1.
         15    1    3    3    0    0 -0.23176877940E+02  0.40573198310E+02  0.30480296198E+02  0.55817186220E+02  0.17770000000E+01 0.  1.
</event>
<event>
 7    1  0.9281110E-008  0.1275770E+03  0.7546771E-02  0.1123187E+00
        -11   -1    0    0    0    0  0.00000000000E+00  0.00000000000E+00  0.18250000000E+03  0.18250000000E+03  0.00000000000E+00 0.  1.
         11   -1    0    0    0    0 -0.00000000000E+00 -0.00000000000E+00 -0.18250000000E+03  0.18250000000E+03  0.00000000000E+00 0.  1.
         23    2    1    2    0    0  0.12354405391E+02 -0.24871031922E+02  0.43524518683E+02  0.10467499919E+03  0.91056422988E+02 0.  0.
        -11    1    1    2    0    0  0.16916066526E+02  0.13585015727E+03 -0.49041294937E+02  0.14541824901E+03  0.00000000000E+00 0.  1.
         11    1    1    2    0    0 -0.29270471917E+02 -0.11097912535E+03  0.55167762541E+01  0.11490675180E+03  0.00000000000E+00 0.  1.
        -15    1    3    3    0    0 -0.22444057644E+02 -0.60336122037E+01  0.57995754062E+02  0.62504443186E+02  0.17770000000E+01 0.  1.
         15    1    3    3    0    0  0.34798463035E+02 -0.18837419718E+02 -0.14471235379E+02  0.42170556003E+02  0.17770000000E+01 0. -1.
</event>
<event>
 7    1  0.9281110E-008  0.1363615E+03  0.7546771E-02  0.1112578E+00
        -11   -1    0    0    0    0  0.00000000000E+00  0.00000000000E+00  0.18250000000E+03  0.18250000000E+03  0.00000000000E+00 0.  1.
         11   -1    0    0    0    0 -0.00000000000E+00 -0.00000000000E+00 -0.18250000000E+03  0.18250000000E+03  0.00000000000E+00 0.  1.
         23    2    1    2    0    0 -0.51813437408E+02  0.75145832019E+02  0.15657607131E+02  0.13005459573E+03  0.91309960267E+02 0.  0.
        -11    1    1    2    0    0 -0.35028644040E+02 -0.22550483455E+02 -0.96535820410E+02  0.10514130886E+03  0.00000000000E+00 0.  1.
         11    1    1    2    0    0  0.86842081448E+02 -0.52595348564E+02  0.80878213279E+02  0.12980409541E+03  0.00000000000E+00 0.  1.
        -15    1    3    3    0    0 -0.28105910022E+02  0.43700984469E+02  0.54072919950E+02  0.75011709904E+02  0.17770000000E+01 0.  1.
         15    1    3    3    0    0 -0.23707527386E+02  0.31444847550E+02 -0.38415312820E+02  0.55042885828E+02  0.17770000000E+01 0. -1.
</event>
<event>
 7    1  0.9281110E-008  0.1888856E+03  0.7546771E-02  0.1063483E+00
        -11   -1    0    0    0    0  0.00000000000E+00  0.00000000000E+00  0.18250000000E+03  0.18250000000E+03  0.00000000000E+00 0.  1.
         11   -1    0    0    0    0 -0.00000000000E+00 -0.00000000000E+00 -0.18250000000E+03  0.18250000000E+03  0.00000000000E+00 0.  1.
         23    2    1    2    0    0 -0.24667053272E+02 -0.27950816723E+02  0.15693182782E+03  0.18565409537E+03  0.91924604291E+02 0.  0.
        -11    1    1    2    0    0 -0.94412233313E+01 -0.12046402814E+01  0.53888373983E+01  0.10937432272E+02  0.00000000000E+00 0.  1.
         11    1    1    2    0    0  0.34108276603E+02  0.29155457004E+02 -0.16232066521E+03  0.16840847236E+03  0.00000000000E+00 0.  1.
        -15    1    3    3    0    0  0.33608493534E+02 -0.21322149902E+02  0.53041119256E+02  0.66337643725E+02  0.17770000000E+01 0. -1.
         15    1    3    3    0    0 -0.58275546806E+02 -0.66286668210E+01  0.10389070856E+03  0.11931645165E+03  0.17770000000E+01 0.  1.
</event>
<event>
 7    1  0.9281110E-008  0.1744214E+03  0.7546771E-02  0.1075074E+00
        -11   -1    0    0    0    0  0.00000000000E+00  0.00000000000E+00  0.18250000000E+03  0.18250000000E+03  0.00000000000E+00 0. -1.
         11   -1    0    0    0    0 -0.00000000000E+00 -0.00000000000E+00 -0.18250000000E+03  0.18250000000E+03  0.00000000000E+00 0. -1.
         23    2    1    2    0    0  0.98166374595E+02  0.11030850829E+03 -0.41003822904E+02  0.17789122575E+03  0.90329234494E+02 0.  0.
        -11    1    1    2    0    0 -0.34296011317E+02  0.18133104836E+02  0.42314555552E+01  0.39024749831E+02  0.00000000000E+00 0. -1.
         11    1    1    2    0    0 -0.63870363277E+02 -0.12844161313E+03  0.36772367349E+02  0.14808402442E+03  0.00000000000E+00 0. -1.
        -15    1    3    3    0    0 -0.57846656162E+01  0.19982693789E+02  0.18469105181E+02  0.27875365156E+02  0.17770000000E+01 0.  1.
         15    1    3    3    0    0  0.10395104021E+03  0.90325814500E+02 -0.59472928086E+02  0.15001586060E+03  0.17770000000E+01 0. -1.
</event>
<event>
 7    1  0.9281110E-008  0.1231844E+03  0.7546771E-02  0.1128852E+00
        -11   -1    0    0    0    0  0.00000000000E+00  0.00000000000E+00  0.18250000000E+03  0.18250000000E+03  0.00000000000E+00 0.  1.
         11   -1    0    0    0    0 -0.00000000000E+00 -0.00000000000E+00 -0.18250000000E+03  0.18250000000E+03  0.00000000000E+00 0.  1.
         23    2    1    2    0    0  0.12202715971E+02  0.27117029381E+02 -0.59171800761E+02  0.10988600954E+03  0.87689187069E+02 0.  0.
        -11    1    1    2    0    0 -0.29259217628E+02  0.68146148329E+02  0.11981167862E+03  0.14090719528E+03  0.00000000000E+00 0.  1.
         11    1    1    2    0    0  0.17056501657E+02 -0.95263177710E+02 -0.60639877862E+02  0.11420679517E+03  0.00000000000E+00 0.  1.
        -15    1    3    3    0    0 -0.19623800287E+02  0.48658987537E+02 -0.23860962424E+02  0.57665361029E+02  0.17770000000E+01 0.  1.
         15    1    3    3    0    0  0.31826516259E+02 -0.21541958156E+02 -0.35310838337E+02  0.52220648516E+02  0.17770000000E+01 0. -1.
</event>
<event>
 7    1  0.9281110E-008  0.1650036E+03  0.7546771E-02  0.1083303E+00
        -11   -1    0    0    0    0  0.00000000000E+00  0.00000000000E+00  0.18250000000E+03  0.18250000000E+03  0.00000000000E+00 0.  1.
         11   -1    0    0    0    0 -0.00000000000E+00 -0.00000000000E+00 -0.18250000000E+03  0.18250000000E+03  0.00000000000E+00 0.  1.
         23    2    1    2    0    0  0.15027957933E+02  0.93002324337E+01  0.10891486024E+03  0.14326439096E+03  0.91377815106E+02 0.  0.
        -11    1    1    2    0    0 -0.34124966626E+02 -0.32589342676E+02 -0.15758633542E+03  0.16449933651E+03  0.00000000000E+00 0.  1.
         11    1    1    2    0    0  0.19097008693E+02  0.23289110242E+02  0.48671475180E+02  0.57236272530E+02  0.00000000000E+00 0.  1.
        -15    1    3    3    0    0  0.40877342961E+02 -0.21040713660E+02  0.30258680566E+02  0.55067361272E+02  0.17770000000E+01 0.  1.
         15    1    3    3    0    0 -0.25849385028E+02  0.30340946094E+02  0.78656179669E+02  0.88197029686E+02  0.17770000000E+01 0. -1.
</event>
<event>
 7    1  0.9281110E-008  0.1335992E+03  0.7546771E-02  0.1115816E+00
        -11   -1    0    0    0    0  0.00000000000E+00  0.00000000000E+00  0.18250000000E+03  0.18250000000E+03  0.00000000000E+00 0.  1.
         11   -1    0    0    0    0 -0.00000000000E+00 -0.00000000000E+00 -0.18250000000E+03  0.18250000000E+03  0.00000000000E+00 0.  1.
         23    2    1    2    0    0 -0.21433158764E+02  0.26251290500E+02  0.96364160088E+02  0.13916405918E+03  0.94509647496E+02 0.  0.
        -11    1    1    2    0    0 -0.50194953589E+02 -0.93218373337E+02 -0.43768805450E+02  0.11456398572E+03  0.00000000000E+00 0.  1.
         11    1    1    2    0    0  0.71628112354E+02  0.66967082837E+02 -0.52595354638E+02  0.11127195510E+03  0.00000000000E+00 0.  1.
        -15    1    3    3    0    0 -0.17234197689E+02  0.52068326234E+02  0.19968855172E+02  0.58395556960E+02  0.17770000000E+01 0.  1.
         15    1    3    3    0    0 -0.41989610749E+01 -0.25817035734E+02  0.76395304916E+02  0.80768502217E+02  0.17770000000E+01 0. -1.
</event>
<event>
 7    1  0.9281110E-008  0.1539608E+03  0.7546771E-02  0.1093755E+00
        -11   -1    0    0    0    0  0.00000000000E+00  0.00000000000E+00  0.18250000000E+03  0.18250000000E+03  0.00000000000E+00 0. -1.
         11   -1    0    0    0    0 -0.00000000000E+00 -0.00000000000E+00 -0.18250000000E+03  0.18250000000E+03  0.00000000000E+00 0.  1.
         23    2    1    2    0    0 -0.11117167944E+02 -0.48374238823E+00 -0.10345925394E+03  0.13588158187E+03  0.87385133964E+02 0.  0.
        -11    1    1    2    0    0  0.39666980087E+02 -0.48572651475E+02 -0.40310544831E+02  0.74550062408E+02  0.00000000000E+00 0.  1.
         11    1    1    2    0    0 -0.28549812143E+02  0.49056393863E+02  0.14376979877E+03  0.15456835572E+03  0.00000000000E+00 0. -1.
        -15    1    3    3    0    0 -0.14074217370E+02  0.14495215483E+02  0.91341710047E+01  0.22243778353E+02  0.17770000000E+01 0.  1.
         15    1    3    3    0    0  0.29570494266E+01 -0.14978957872E+02 -0.11259342494E+03  0.11363780352E+03  0.17770000000E+01 0. -1.
</event>
<event>
 7    1  0.9281110E-008  0.1476107E+03  0.7546771E-02  0.1100212E+00
        -11   -1    0    0    0    0  0.00000000000E+00  0.00000000000E+00  0.18250000000E+03  0.18250000000E+03  0.00000000000E+00 0. -1.
         11   -1    0    0    0    0 -0.00000000000E+00 -0.00000000000E+00 -0.18250000000E+03  0.18250000000E+03  0.00000000000E+00 0. -1.
         23    2    1    2    0    0  0.70455164395E+00  0.37752396584E+02  0.73287617126E+02  0.12257477201E+03  0.90707001214E+02 0.  0.
        -11    1    1    2    0    0 -0.96940378643E+01 -0.12088468909E+03 -0.97241947143E+02  0.15544477704E+03  0.00000000000E+00 0. -1.
         11    1    1    2    0    0  0.89894862204E+01  0.83132292504E+02  0.23954330018E+02  0.86980450942E+02  0.00000000000E+00 0. -1.
        -15    1    3    3    0    0  0.19298398365E+02  0.24969153375E+02  0.89379312602E+02  0.94803512856E+02  0.17770000000E+01 0. -1.
         15    1    3    3    0    0 -0.18593846721E+02  0.12783243210E+02 -0.16091695477E+02  0.27771259157E+02  0.17770000000E+01 0.  1.
</event>
<event>
 7    1  0.9281110E-008  0.2128485E+03  0.7546771E-02  0.1046575E+00
        -11   -1    0    0    0    0  0.00000000000E+00  0.00000000000E+00  0.18250000000E+03  0.18250000000E+03  0.00000000000E+00 0.  1.
         11   -1    0    0    0    0 -0.00000000000E+00 -0.00000000000E+00 -0.18250000000E+03  0.18250000000E+03  0.00000000000E+00 0. -1.
         23    2    1    2    0    0  0.66080772747E+01  0.29192649227E+01 -0.54391786392E+02  0.10755694722E+03  0.92508603257E+02 0.  0.
        -11    1    1    2    0    0 -0.11058221385E+01 -0.59920213434E+02 -0.86571675972E+02  0.10529154715E+03  0.00000000000E+00 0. -1.
         11    1    1    2    0    0 -0.55022551362E+01  0.57000948511E+02  0.14096346236E+03  0.15215150563E+03  0.00000000000E+00 0.  1.
        -15    1    3    3    0    0 -0.36718175612E+02  0.11233439016E+01 -0.52519628517E+02  0.64116732842E+02  0.17770000000E+01 0. -1.
         15    1    3    3    0    0  0.43326252887E+02  0.17959210210E+01 -0.18721578749E+01  0.43440214383E+02  0.17770000000E+01 0.  1.
</event>
<event>
 7    1  0.9281110E-008  0.2127390E+03  0.7546771E-02  0.1046646E+00
        -11   -1    0    0    0    0  0.00000000000E+00  0.00000000000E+00  0.18250000000E+03  0.18250000000E+03  0.00000000000E+00 0. -1.
         11   -1    0    0    0    0 -0.00000000000E+00 -0.00000000000E+00 -0.18250000000E+03  0.18250000000E+03  0.00000000000E+00 0.  1.
         23    2    1    2    0    0 -0.16207886034E+02 -0.13659720117E+02  0.37943700081E+02  0.92935786093E+02  0.82146530283E+02 0.  0.
        -11    1    1    2    0    0 -0.27707321387E+02  0.87211723553E+02 -0.12169559066E+03  0.15226095090E+03  0.00000000000E+00 0.  1.
         11    1    1    2    0    0  0.43915207421E+02 -0.73552003436E+02  0.83751890576E+02  0.11980326301E+03  0.00000000000E+00 0. -1.
        -15    1    3    3    0    0  0.15463786953E+02  0.17301251880E+02  0.42419200943E+02  0.48383968018E+02  0.17770000000E+01 0.  1.
         15    1    3    3    0    0 -0.31671672987E+02 -0.30960971997E+02 -0.44755008624E+01  0.44551818075E+02  0.17770000000E+01 0. -1.
</event>
<event>
 7    1  0.9281110E-008  0.1300889E+03  0.7546771E-02  0.1120059E+00
        -11   -1    0    0    0    0  0.00000000000E+00  0.00000000000E+00  0.18250000000E+03  0.18250000000E+03  0.00000000000E+00 0.  1.
         11   -1    0    0    0    0 -0.00000000000E+00 -0.00000000000E+00 -0.18250000000E+03  0.18250000000E+03  0.00000000000E+00 0.  1.
         23    2    1    2    0    0  0.13517963830E+02  0.31730848617E+02 -0.69096056716E+02  0.11941789890E+03  0.91086702781E+02 0.  0.
        -11    1    1    2    0    0 -0.27862727680E+02 -0.10360613873E+03 -0.39703700575E+02  0.11439819673E+03  0.00000000000E+00 0.  1.
         11    1    1    2    0    0  0.14344763850E+02  0.71875290114E+02  0.10879975729E+03  0.13118390437E+03  0.00000000000E+00 0.  1.
        -15    1    3    3    0    0 -0.25888905792E+02 -0.15006538632E+02 -0.44154230066E+02  0.53368393330E+02  0.17770000000E+01 0. -1.
         15    1    3    3    0    0  0.39406869622E+02  0.46737387248E+02 -0.24941826650E+02  0.66049505568E+02  0.17770000000E+01 0.  1.
</event>
<event>
 7    1  0.9281110E-008  0.1356899E+03  0.7546771E-02  0.1113357E+00
        -11   -1    0    0    0    0  0.00000000000E+00  0.00000000000E+00  0.18250000000E+03  0.18250000000E+03  0.00000000000E+00 0. -1.
         11   -1    0    0    0    0 -0.00000000000E+00 -0.00000000000E+00 -0.18250000000E+03  0.18250000000E+03  0.00000000000E+00 0.  1.
         23    2    1    2    0    0 -0.57991469187E+01  0.15688261189E+01  0.14121351532E+02  0.93186648191E+02  0.91914348780E+02 0.  0.
        -11    1    1    2    0    0 -0.11198574689E+03 -0.67241177553E+02 -0.35291354838E+02  0.13530581359E+03  0.00000000000E+00 0. -1.
         11    1    1    2    0    0  0.11778489380E+03  0.65672351434E+02  0.21170003306E+02  0.13650753822E+03  0.00000000000E+00 0.  1.
        -15    1    3    3    0    0  0.36944201263E+02 -0.19048570374E+02  0.18428191673E+02  0.45502505619E+02  0.17770000000E+01 0. -1.
         15    1    3    3    0    0 -0.42743348182E+02  0.20617396493E+02 -0.43068401409E+01  0.47684142573E+02  0.17770000000E+01 0.  1.
</event>
<event>
 7    1  0.9281110E-008  0.1566470E+03  0.7546771E-02  0.1091126E+00
        -11   -1    0    0    0    0  0.00000000000E+00  0.00000000000E+00  0.18250000000E+03  0.18250000000E+03  0.00000000000E+00 0.  1.
         11   -1    0    0    0    0 -0.00000000000E+00 -0.00000000000E+00 -0.18250000000E+03  0.18250000000E+03  0.00000000000E+00 0.  1.
         23    2    1    2    0    0 -0.97690907869E+02  0.67514472455E+02  0.82123391973E+02  0.17137655655E+03  0.92325268240E+02 0.  0.
        -11    1    1    2    0    0  0.36993989631E+02 -0.58458998832E+02  0.22142318300E+02  0.72638089684E+02  0.00000000000E+00 0.  1.
         11    1    1    2    0    0  0.60696918238E+02 -0.90554736229E+01 -0.10426571027E+03  0.12098535376E+03  0.00000000000E+00 0.  1.
        -15    1    3    3    0    0 -0.44429519845E+02  0.82685796469E+02  0.61605105656E+02  0.11229100562E+03  0.17770000000E+01 0.  1.
         15    1    3    3    0    0 -0.53261388025E+02 -0.15171324014E+02  0.20518286318E+02  0.59085550933E+02  0.17770000000E+01 0. -1.
</event>
<event>
 7    1  0.9281110E-008  0.1506952E+03  0.7546771E-02  0.1097032E+00
        -11   -1    0    0    0    0  0.00000000000E+00  0.00000000000E+00  0.18250000000E+03  0.18250000000E+03  0.00000000000E+00 0.  1.
         11   -1    0    0    0    0 -0.00000000000E+00 -0.00000000000E+00 -0.18250000000E+03  0.18250000000E+03  0.00000000000E+00 0.  1.
         23    2    1    2    0    0 -0.68360254979E+02 -0.42026906226E+02  0.86190843827E+02  0.14821019823E+03  0.89988977060E+02 0.  0.
        -11    1    1    2    0    0  0.38186170448E+02  0.56198367341E+02  0.44957086413E+02  0.81471342962E+02  0.00000000000E+00 0.  1.
         11    1    1    2    0    0  0.30174084531E+02 -0.14171461115E+02 -0.13114793024E+03  0.13531845881E+03  0.00000000000E+00 0.  1.
        -15    1    3    3    0    0 -0.22120871956E+02 -0.65064364834E+02  0.45710896952E+02  0.82555123260E+02  0.17770000000E+01 0.  1.
         15    1    3    3    0    0 -0.46239383023E+02  0.23037458608E+02  0.40479946875E+02  0.65655074971E+02  0.17770000000E+01 0. -1.
</event>
<event>
 7    1  0.9281110E-008  0.1583364E+03  0.7546771E-02  0.1089502E+00
        -11   -1    0    0    0    0  0.00000000000E+00  0.00000000000E+00  0.18250000000E+03  0.18250000000E+03  0.00000000000E+00 0.  1.
         11   -1    0    0    0    0 -0.00000000000E+00 -0.00000000000E+00 -0.18250000000E+03  0.18250000000E+03  0.00000000000E+00 0.  1.
         23    2    1    2    0    0  0.53122907455E+01 -0.45394314438E+02  0.14819127471E+03  0.17961791190E+03  0.90626023621E+02 0.  0.
        -11    1    1    2    0    0  0.43645458561E+02  0.40869368154E+02 -0.10014816037E+03  0.11663998170E+03  0.00000000000E+00 0.  1.
         11    1    1    2    0    0 -0.48957749307E+02  0.45249462836E+01 -0.48043114347E+02  0.68742106399E+02  0.00000000000E+00 0.  1.
        -15    1    3    3    0    0  0.95836297651E+01  0.16154532112E+02 -0.23595617457E+00  0.18868711444E+02  0.17770000000E+01 0. -1.
         15    1    3    3    0    0 -0.42713390196E+01 -0.61548846550E+02  0.14842723089E+03  0.16074920046E+03  0.17770000000E+01 0.  1.
</event>
<event>
 7    1  0.9281110E-008  0.1899823E+03  0.7546771E-02  0.1062650E+00
        -11   -1    0    0    0    0  0.00000000000E+00  0.00000000000E+00  0.18250000000E+03  0.18250000000E+03  0.00000000000E+00 0. -1.
         11   -1    0    0    0    0 -0.00000000000E+00 -0.00000000000E+00 -0.18250000000E+03  0.18250000000E+03  0.00000000000E+00 0. -1.
         23    2    1    2    0    0 -0.80920992769E+02 -0.10866697207E+02 -0.14476521931E+03  0.18998233962E+03  0.92032757558E+02 0.  0.
        -11    1    1    2    0    0  0.34564357697E+02  0.36831639597E+01  0.16566570409E+02  0.38505996609E+02  0.00000000000E+00 0. -1.
         11    1    1    2    0    0  0.46356635072E+02  0.71835332471E+01  0.12819864891E+03  0.13651166377E+03  0.00000000000E+00 0. -1.
        -15    1    3    3    0    0  0.12340523189E+02  0.19756179164E+02 -0.17192074175E+02  0.29005521391E+02  0.17770000000E+01 0.  1.
         15    1    3    3    0    0 -0.93261515958E+02 -0.30622876371E+02 -0.12757314514E+03  0.16097681822E+03  0.17770000000E+01 0. -1.
</event>
<event>
 7    1  0.9281110E-008  0.1382991E+03  0.7546771E-02  0.1110356E+00
        -11   -1    0    0    0    0  0.00000000000E+00  0.00000000000E+00  0.18250000000E+03  0.18250000000E+03  0.00000000000E+00 0. -1.
         11   -1    0    0    0    0 -0.00000000000E+00 -0.00000000000E+00 -0.18250000000E+03  0.18250000000E+03  0.00000000000E+00 0. -1.
         23    2    1    2    0    0 -0.94537342429E+02 -0.26198383346E+02 -0.58204742352E+02  0.14594568061E+03  0.91042216870E+02 0.  0.
        -11    1    1    2    0    0  0.86993986945E+02 -0.14771337424E+02 -0.51178530909E+02  0.10200680467E+03  0.00000000000E+00 0. -1.
         11    1    1    2    0    0  0.75433554837E+01  0.40969720770E+02  0.10938327326E+03  0.11704751472E+03  0.00000000000E+00 0. -1.
        -15    1    3    3    0    0  0.33891520379E+01 -0.34136086618E+02 -0.66825769512E+01  0.34993904110E+02  0.17770000000E+01 0.  1.
         15    1    3    3    0    0 -0.97926494467E+02  0.79377032718E+01 -0.51522165401E+02  0.11095177650E+03  0.17770000000E+01 0. -1.
</event>
<event>
 7    1  0.9281110E-008  0.1232856E+03  0.7546771E-02  0.1128719E+00
        -11   -1    0    0    0    0  0.00000000000E+00  0.00000000000E+00  0.18250000000E+03  0.18250000000E+03  0.00000000000E+00 0.  1.
         11   -1    0    0    0    0 -0.00000000000E+00 -0.00000000000E+00 -0.18250000000E+03  0.18250000000E+03  0.00000000000E+00 0.  1.
         23    2    1    2    0    0  0.26761471447E+01 -0.53299163434E+02  0.32599253725E+02  0.11062225728E+03  0.91250259599E+02 0.  0.
        -11    1    1    2    0    0 -0.94754830931E+02  0.82801860314E+02  0.41562389481E+02  0.13252191621E+03  0.00000000000E+00 0.  1.
         11    1    1    2    0    0  0.92078683786E+02 -0.29502696880E+02 -0.74161643206E+02  0.12185582651E+03  0.00000000000E+00 0.  1.
        -15    1    3    3    0    0 -0.14163009731E+02 -0.76025809982E+02  0.23041706746E+02  0.80713026253E+02  0.17770000000E+01 0.  1.
         15    1    3    3    0    0  0.16839156875E+02  0.22726646548E+02  0.95575469792E+01  0.29909231031E+02  0.17770000000E+01 0. -1.
</event>
<event>
 7    1  0.9281110E-008  0.1615822E+03  0.7546771E-02  0.1086443E+00
        -11   -1    0    0    0    0  0.00000000000E+00  0.00000000000E+00  0.18250000000E+03  0.18250000000E+03  0.00000000000E+00 0. -1.
         11   -1    0    0    0    0 -0.00000000000E+00 -0.00000000000E+00 -0.18250000000E+03  0.18250000000E+03  0.00000000000E+00 0. -1.
         23    2    1    2    0    0 -0.96983585462E+02  0.18729334768E+02 -0.71732618898E+02  0.15354470543E+03  0.93133260023E+02 0.  0.
        -11    1    1    2    0    0  0.13497141023E+03 -0.49983233199E+02  0.30173948012E+02  0.14705805765E+03  0.00000000000E+00 0. -1.
         11    1    1    2    0    0 -0.37987824765E+02  0.31253898432E+02  0.41558670885E+02  0.64397236923E+02  0.00000000000E+00 0. -1.
        -15    1    3    3    0    0  0.18448791619E+02  0.38636952975E+01 -0.59630656954E+01  0.19849481984E+02  0.17770000000E+01 0.  1.
         15    1    3    3    0    0 -0.11543237708E+03  0.14865639470E+02 -0.65769553202E+02  0.13369522345E+03  0.17770000000E+01 0. -1.
</event>
<event>
 7    1  0.9281110E-008  0.1415999E+03  0.7546771E-02  0.1106662E+00
        -11   -1    0    0    0    0  0.00000000000E+00  0.00000000000E+00  0.18250000000E+03  0.18250000000E+03  0.00000000000E+00 0.  1.
         11   -1    0    0    0    0 -0.00000000000E+00 -0.00000000000E+00 -0.18250000000E+03  0.18250000000E+03  0.00000000000E+00 0. -1.
         23    2    1    2    0    0 -0.49888473132E+02 -0.32395244212E+02  0.54315079815E+02  0.12094200135E+03  0.90213791609E+02 0.  0.
        -11    1    1    2    0    0 -0.30741980207E+02  0.63802215994E+02  0.65362541484E+02  0.96374550281E+02  0.00000000000E+00 0.  1.
         11    1    1    2    0    0  0.80630453338E+02 -0.31406971782E+02 -0.11967762130E+03  0.14768344837E+03  0.00000000000E+00 0. -1.
        -15    1    3    3    0    0 -0.75013076736E+01 -0.35915526796E+02  0.67097089650E+02  0.76494260244E+02  0.17770000000E+01 0.  1.
         15    1    3    3    0    0 -0.42387165458E+02  0.35202825836E+01 -0.12782009835E+02  0.44447741107E+02  0.17770000000E+01 0. -1.
</event>
<event>
 7    1  0.9281110E-008  0.1734527E+03  0.7546771E-02  0.1075894E+00
        -11   -1    0    0    0    0  0.00000000000E+00  0.00000000000E+00  0.18250000000E+03  0.18250000000E+03  0.00000000000E+00 0.  1.
         11   -1    0    0    0    0 -0.00000000000E+00 -0.00000000000E+00 -0.18250000000E+03  0.18250000000E+03  0.00000000000E+00 0.  1.
         23    2    1    2    0    0 -0.29300377697E+02 -0.64666928243E+02  0.12567517637E+03  0.17386404440E+03  0.96923331755E+02 0.  0.
        -11    1    1    2    0    0  0.20538474778E+02 -0.34955205682E+02 -0.18548713167E+02  0.44584191264E+02  0.00000000000E+00 0.  1.
         11    1    1    2    0    0  0.87619029198E+01  0.99622133925E+02 -0.10712646320E+03  0.14655176433E+03  0.00000000000E+00 0.  1.
        -15    1    3    3    0    0 -0.49048016404E+02 -0.28113471753E+00  0.74704869959E+02  0.89385470153E+02  0.17770000000E+01 0.  1.
         15    1    3    3    0    0  0.19747638707E+02 -0.64385793526E+02  0.50970306413E+02  0.84478574250E+02  0.17770000000E+01 0. -1.
</event>
<event>
 7    1  0.9281110E-008  0.2119092E+03  0.7546771E-02  0.1047191E+00
        -11   -1    0    0    0    0  0.00000000000E+00  0.00000000000E+00  0.18250000000E+03  0.18250000000E+03  0.00000000000E+00 0.  1.
         11   -1    0    0    0    0 -0.00000000000E+00 -0.00000000000E+00 -0.18250000000E+03  0.18250000000E+03  0.00000000000E+00 0. -1.
         23    2    1    2    0    0 -0.30527224030E+02 -0.27726126703E+02 -0.22557491693E+02  0.10298578046E+03  0.91632860024E+02 0.  0.
        -11    1    1    2    0    0 -0.65679157170E+02 -0.85906670276E+02 -0.13061512490E+02  0.10892341710E+03  0.00000000000E+00 0.  1.
         11    1    1    2    0    0  0.96206381200E+02  0.11363279698E+03  0.35619004183E+02  0.15309080244E+03  0.00000000000E+00 0. -1.
        -15    1    3    3    0    0  0.28747097337E+02 -0.12026959218E+01  0.97525865501E+01  0.30432100752E+02  0.17770000000E+01 0.  1.
         15    1    3    3    0    0 -0.59274321366E+02 -0.26523430781E+02 -0.32310078243E+02  0.72553679706E+02  0.17770000000E+01 0. -1.
</event>
<event>
 7    1  0.9281110E-008  0.1621797E+03  0.7546771E-02  0.1085889E+00
        -11   -1    0    0    0    0  0.00000000000E+00  0.00000000000E+00  0.18250000000E+03  0.18250000000E+03  0.00000000000E+00 0.  1.
         11   -1    0    0    0    0 -0.00000000000E+00 -0.00000000000E+00 -0.18250000000E+03  0.18250000000E+03  0.00000000000E+00 0. -1.
         23    2    1    2    0    0 -0.24380455916E+02 -0.57956823013E+02 -0.94188012686E+02  0.14490118598E+03  0.90396747736E+02 0.  0.
        -11    1    1    2    0    0  0.40781820149E+02  0.11742214686E+03  0.98010759757E+02  0.15829474551E+03  0.00000000000E+00 0.  1.
         11    1    1    2    0    0 -0.16401364233E+02 -0.59465323847E+02 -0.38227470715E+01  0.61804068507E+02  0.00000000000E+00 0. -1.
        -15    1    3    3    0    0 -0.55024957527E+01 -0.53017391756E+01  0.17941203273E+02  0.19581378952E+02  0.17770000000E+01 0.  1.
         15    1    3    3    0    0 -0.18877960163E+02 -0.52655083837E+02 -0.11212921596E+03  0.12531980703E+03  0.17770000000E+01 0. -1.
</event>
<event>
 7    1  0.9281110E-008  0.1695171E+03  0.7546771E-02  0.1079286E+00
        -11   -1    0    0    0    0  0.00000000000E+00  0.00000000000E+00  0.18250000000E+03  0.18250000000E+03  0.00000000000E+00 0.  1.
         11   -1    0    0    0    0 -0.00000000000E+00 -0.00000000000E+00 -0.18250000000E+03  0.18250000000E+03  0.00000000000E+00 0. -1.
         23    2    1    2    0    0 -0.25040622808E+02  0.52433110863E+02  0.12776200296E+03  0.16789569923E+03  0.92138876250E+02 0.  0.
        -11    1    1    2    0    0  0.20995305437E+02  0.42250526847E+02 -0.14361015707E+02  0.49316819052E+02  0.00000000000E+00 0.  1.
         11    1    1    2    0    0  0.40453173706E+01 -0.94683637710E+02 -0.11340098725E+03  0.14778748171E+03  0.00000000000E+00 0. -1.
        -15    1    3    3    0    0 -0.27765705575E+01  0.52375647946E+02  0.13465602111E+03  0.14452100052E+03  0.17770000000E+01 0.  1.
         15    1    3    3    0    0 -0.22264052250E+02  0.57462916452E-01 -0.68940181531E+01  0.23374698712E+02  0.17770000000E+01 0. -1.
</event>
<event>
 7    1  0.9281110E-008  0.1773311E+03  0.7546771E-02  0.1072645E+00
        -11   -1    0    0    0    0  0.00000000000E+00  0.00000000000E+00  0.18250000000E+03  0.18250000000E+03  0.00000000000E+00 0.  1.
         11   -1    0    0    0    0 -0.00000000000E+00 -0.00000000000E+00 -0.18250000000E+03  0.18250000000E+03  0.00000000000E+00 0. -1.
         23    2    1    2    0    0 -0.15288521981E+03  0.33313641926E+02 -0.18648108729E+02  0.18264857965E+03  0.92352923698E+02 0.  0.
        -11    1    1    2    0    0  0.13595768345E+03 -0.58122818995E+02  0.17100243737E+01  0.14787047698E+03  0.00000000000E+00 0. -1.
         11    1    1    2    0    0  0.16927536356E+02  0.24809177069E+02  0.16938084355E+02  0.34480943368E+02  0.00000000000E+00 0.  1.
        -15    1    3    3    0    0 -0.48236465962E+02 -0.32358149513E+02 -0.72773077695E+01  0.58565548113E+02  0.17770000000E+01 0. -1.
         15    1    3    3    0    0 -0.10464875385E+03  0.65671791439E+02 -0.11370800960E+02  0.12408303154E+03  0.17770000000E+01 0.  1.
</event>
<event>
 7    1  0.9281110E-008  0.1192314E+03  0.7546771E-02  0.1134179E+00
        -11   -1    0    0    0    0  0.00000000000E+00  0.00000000000E+00  0.18250000000E+03  0.18250000000E+03  0.00000000000E+00 0. -1.
         11   -1    0    0    0    0 -0.00000000000E+00 -0.00000000000E+00 -0.18250000000E+03  0.18250000000E+03  0.00000000000E+00 0.  1.
         23    2    1    2    0    0 -0.32353045953E+01 -0.28736233304E+02 -0.66043306583E+02  0.11587661498E+03  0.90716223772E+02 0.  0.
        -11    1    1    2    0    0  0.47294137916E+02 -0.78248926957E+02  0.92899175171E+02  0.13034525998E+03  0.00000000000E+00 0. -1.
         11    1    1    2    0    0 -0.44058833321E+02  0.10698516026E+03 -0.26855868588E+02  0.11877812504E+03  0.00000000000E+00 0.  1.
        -15    1    3    3    0    0 -0.30727569603E+02 -0.51079559822E+02 -0.44043248650E+02  0.74136835958E+02  0.17770000000E+01 0. -1.
         15    1    3    3    0    0  0.27492265007E+02  0.22343326517E+02 -0.22000057933E+02  0.41739779026E+02  0.17770000000E+01 0.  1.
</event>
<event>
 7    1  0.9281110E-008  0.1506870E+03  0.7546771E-02  0.1097041E+00
        -11   -1    0    0    0    0  0.00000000000E+00  0.00000000000E+00  0.18250000000E+03  0.18250000000E+03  0.00000000000E+00 0. -1.
         11   -1    0    0    0    0 -0.00000000000E+00 -0.00000000000E+00 -0.18250000000E+03  0.18250000000E+03  0.00000000000E+00 0. -1.
         23    2    1    2    0    0  0.94404332455E+01  0.23601701548E+00 -0.10804611080E+03  0.14168234269E+03  0.91163296815E+02 0.  0.
        -11    1    1    2    0    0  0.18660130869E+01  0.80754323305E+02  0.11578464972E+03  0.14117658392E+03  0.00000000000E+00 0. -1.
         11    1    1    2    0    0 -0.11306446332E+02 -0.80990340320E+02 -0.77385389184E+01  0.82141073395E+02  0.00000000000E+00 0. -1.
        -15    1    3    3    0    0  0.28388400429E+01 -0.15833728230E+01  0.16512516030E+02  0.16922972461E+02  0.17770000000E+01 0.  1.
         15    1    3    3    0    0  0.66015932026E+01  0.18193898384E+01 -0.12455862683E+03  0.12475937022E+03  0.17770000000E+01 0. -1.
</event>
<event>
 7    1  0.9281110E-008  0.2020201E+03  0.7546771E-02  0.1053898E+00
        -11   -1    0    0    0    0  0.00000000000E+00  0.00000000000E+00  0.18250000000E+03  0.18250000000E+03  0.00000000000E+00 0. -1.
         11   -1    0    0    0    0 -0.00000000000E+00 -0.00000000000E+00 -0.18250000000E+03  0.18250000000E+03  0.00000000000E+00 0. -1.
         23    2    1    2    0    0 -0.47164287890E+02 -0.50833744781E+02  0.18132325666E+01  0.10216003024E+03  0.74998962027E+02 0.  0.
        -11    1    1    2    0    0 -0.21000918374E+02 -0.95676487001E+02  0.19416594047E+02  0.99860066402E+02  0.00000000000E+00 0. -1.
         11    1    1    2    0    0  0.68165206264E+02  0.14651023178E+03 -0.21229826614E+02  0.16297990336E+03  0.00000000000E+00 0. -1.
        -15    1    3    3    0    0 -0.46531938500E+02 -0.95909837746E+01  0.26124427813E+02  0.54248057365E+02  0.17770000000E+01 0.  1.
         15    1    3    3    0    0 -0.63234938989E+00 -0.41242761006E+02 -0.24311195247E+02  0.47911972872E+02  0.17770000000E+01 0. -1.
</event>
<event>
 7    1  0.9281110E-008  0.1551176E+03  0.7546771E-02  0.1092616E+00
        -11   -1    0    0    0    0  0.00000000000E+00  0.00000000000E+00  0.18250000000E+03  0.18250000000E+03  0.00000000000E+00 0.  1.
         11   -1    0    0    0    0 -0.00000000000E+00 -0.00000000000E+00 -0.18250000000E+03  0.18250000000E+03  0.00000000000E+00 0. -1.
         23    2    1    2    0    0  0.68441255809E+02 -0.52828975969E+02 -0.71018803005E+02  0.14482588932E+03  0.91955215403E+02 0.  0.
        -11    1    1    2    0    0 -0.32367631635E+02  0.11834942547E+03  0.77462649375E+02  0.14510241947E+03  0.00000000000E+00 0.  1.
         11    1    1    2    0    0 -0.36073624175E+02 -0.65520449505E+02 -0.64438463698E+01  0.75071691206E+02  0.00000000000E+00 0. -1.
        -15    1    3    3    0    0  0.47728352295E+02 -0.10298017986E+01 -0.74941318997E+02  0.88873028116E+02  0.17770000000E+01 0. -1.
         15    1    3    3    0    0  0.20712903515E+02 -0.51799174170E+02  0.39225159918E+01  0.55952861209E+02  0.17770000000E+01 0.  1.
</event>
<event>
 7    1  0.9281110E-008  0.1886652E+03  0.7546771E-02  0.1063651E+00
        -11   -1    0    0    0    0  0.00000000000E+00  0.00000000000E+00  0.18250000000E+03  0.18250000000E+03  0.00000000000E+00 0.  1.
         11   -1    0    0    0    0 -0.00000000000E+00 -0.00000000000E+00 -0.18250000000E+03  0.18250000000E+03  0.00000000000E+00 0.  1.
         23    2    1    2    0    0 -0.12437049036E+02  0.11556807530E+02  0.16451666802E+03  0.18866523623E+03  0.90777735799E+02 0.  0.
        -11    1    1    2    0    0 -0.23922388030E+02 -0.11338798024E+02 -0.81857638972E+02  0.86032098938E+02  0.00000000000E+00 0.  1.
         11    1    1    2    0    0  0.36359437066E+02 -0.21800950665E+00 -0.82659029049E+02  0.90302664829E+02  0.00000000000E+00 0.  1.
        -15    1    3    3    0    0  0.30215014200E+02 -0.13006515146E+02  0.26998087168E+02  0.42593085813E+02  0.17770000000E+01 0. -1.
         15    1    3    3    0    0 -0.42652063236E+02  0.24563322676E+02  0.13751858085E+03  0.14607215042E+03  0.17770000000E+01 0.  1.
</event>
<event>
 7    1  0.9281110E-008  0.1231443E+03  0.7546771E-02  0.1128905E+00
        -11   -1    0    0    0    0  0.00000000000E+00  0.00000000000E+00  0.18250000000E+03  0.18250000000E+03  0.00000000000E+00 0.  1.
         11   -1    0    0    0    0 -0.00000000000E+00 -0.00000000000E+00 -0.18250000000E+03  0.18250000000E+03  0.00000000000E+00 0. -1.
         23    2    1    2    0    0  0.40588713304E+02 -0.21214119000E+02  0.77835396951E+02  0.12138879259E+03  0.81113546678E+02 0.  0.
        -11    1    1    2    0    0 -0.11688344589E+03 -0.15154425534E+02  0.14130858969E+02  0.11870584532E+03  0.00000000000E+00 0.  1.
         11    1    1    2    0    0  0.76294732589E+02  0.36368544535E+02 -0.91966255920E+02  0.12490536210E+03  0.00000000000E+00 0. -1.
        -15    1    3    3    0    0  0.23484889874E+02  0.28655139436E+02  0.16806866736E+02  0.40722052588E+02  0.17770000000E+01 0. -1.
         15    1    3    3    0    0  0.17103823430E+02 -0.49869258436E+02  0.61028530215E+02  0.80666739999E+02  0.17770000000E+01 0.  1.
</event>
<event>
 7    1  0.9281110E-008  0.1486231E+03  0.7546771E-02  0.1099159E+00
        -11   -1    0    0    0    0  0.00000000000E+00  0.00000000000E+00  0.18250000000E+03  0.18250000000E+03  0.00000000000E+00 0. -1.
         11   -1    0    0    0    0 -0.00000000000E+00 -0.00000000000E+00 -0.18250000000E+03  0.18250000000E+03  0.00000000000E+00 0. -1.
         23    2    1    2    0    0 -0.82822872347E+02 -0.23040127413E+02  0.19095063139E+02  0.12593086478E+03  0.90019362432E+02 0.  0.
        -11    1    1    2    0    0  0.15228403333E+03 -0.23482974801E+02 -0.41352675993E+01  0.15413947369E+03  0.00000000000E+00 0. -1.
         11    1    1    2    0    0 -0.69461160981E+02  0.46523102214E+02 -0.14959795540E+02  0.84929661527E+02  0.00000000000E+00 0. -1.
        -15    1    3    3    0    0 -0.20582721395E+02 -0.48062272839E+02 -0.91771191202E+01  0.53113159714E+02  0.17770000000E+01 0. -1.
         15    1    3    3    0    0 -0.62240150952E+02  0.25022145426E+02  0.28272182259E+02  0.72817705065E+02  0.17770000000E+01 0.  1.
</event>
<event>
 7    1  0.9281110E-008  0.1705927E+03  0.7546771E-02  0.1078349E+00
        -11   -1    0    0    0    0  0.00000000000E+00  0.00000000000E+00  0.18250000000E+03  0.18250000000E+03  0.00000000000E+00 0.  1.
         11   -1    0    0    0    0 -0.00000000000E+00 -0.00000000000E+00 -0.18250000000E+03  0.18250000000E+03  0.00000000000E+00 0. -1.
         23    2    1    2    0    0  0.19798233666E+02  0.28109435280E+02 -0.12160086026E+03  0.15692730463E+03  0.93044609270E+02 0.  0.
        -11    1    1    2    0    0  0.37091944679E+02 -0.12532666606E+02 -0.27422778474E+02  0.47800511207E+02  0.00000000000E+00 0. -1.
         11    1    1    2    0    0 -0.56890178345E+02 -0.15576768674E+02  0.14902363874E+03  0.16027218416E+03  0.00000000000E+00 0.  1.
        -15    1    3    3    0    0 -0.19314919503E+02 -0.19446684565E+02 -0.95845702501E+01  0.29090571872E+02  0.17770000000E+01 0.  1.
         15    1    3    3    0    0  0.39113153169E+02  0.47556119845E+02 -0.11201629001E+03  0.12783673276E+03  0.17770000000E+01 0. -1.
</event>
<event>
 7    1  0.9281110E-008  0.1731878E+03  0.7546771E-02  0.1076119E+00
        -11   -1    0    0    0    0  0.00000000000E+00  0.00000000000E+00  0.18250000000E+03  0.18250000000E+03  0.00000000000E+00 0.  1.
         11   -1    0    0    0    0 -0.00000000000E+00 -0.00000000000E+00 -0.18250000000E+03  0.18250000000E+03  0.00000000000E+00 0. -1.
         23    2    1    2    0    0 -0.11429571767E+02  0.12802478176E+03  0.36589168908E+02  0.16879160340E+03  0.10310605337E+03 0.  0.
        -11    1    1    2    0    0 -0.34054395903E+02  0.12077189671E+02 -0.32892479519E+02  0.48861801027E+02  0.00000000000E+00 0.  1.
         11    1    1    2    0    0  0.45483967670E+02 -0.14010197143E+03 -0.36966893888E+01  0.14734659557E+03  0.00000000000E+00 0. -1.
        -15    1    3    3    0    0 -0.29992876118E+02  0.11783878340E+03 -0.54036387506E+01  0.12172883196E+03  0.17770000000E+01 0.  1.
         15    1    3    3    0    0  0.18563304351E+02  0.10185998364E+02  0.41992807659E+02  0.47062771435E+02  0.17770000000E+01 0. -1.
</event>
<event>
 7    1  0.9281110E-008  0.1625912E+03  0.7546771E-02  0.1085508E+00
        -11   -1    0    0    0    0  0.00000000000E+00  0.00000000000E+00  0.18250000000E+03  0.18250000000E+03  0.00000000000E+00 0.  1.
         11   -1    0    0    0    0 -0.00000000000E+00 -0.00000000000E+00 -0.18250000000E+03  0.18250000000E+03  0.00000000000E+00 0. -1.
         23    2    1    2    0    0 -0.68037202987E+02  0.41690808627E+02  0.76056914719E+02  0.14354462920E+03  0.91941404070E+02 0.  0.
        -11    1    1    2    0    0  0.49202646875E+01  0.45517616065E+02  0.41685689035E+02  0.61917356591E+02  0.00000000000E+00 0.  1.
         11    1    1    2    0    0  0.63116938300E+02 -0.87208424692E+02 -0.11774260375E+03  0.15953801421E+03  0.00000000000E+00 0. -1.
        -15    1    3    3    0    0  0.40560219326E+01  0.23782105415E+02  0.63803547291E+02  0.68235549589E+02  0.17770000000E+01 0. -1.
         15    1    3    3    0    0 -0.72093224920E+02  0.17908703212E+02  0.12253367429E+02  0.75309079615E+02  0.17770000000E+01 0.  1.
</event>
<event>
 7    1  0.9281110E-008  0.1841141E+03  0.7546771E-02  0.1067177E+00
        -11   -1    0    0    0    0  0.00000000000E+00  0.00000000000E+00  0.18250000000E+03  0.18250000000E+03  0.00000000000E+00 0. -1.
         11   -1    0    0    0    0 -0.00000000000E+00 -0.00000000000E+00 -0.18250000000E+03  0.18250000000E+03  0.00000000000E+00 0.  1.
         23    2    1    2    0    0 -0.14805045894E+02  0.96669237025E+01 -0.15882542229E+03  0.18265682522E+03  0.88461077521E+02 0.  0.
        -11    1    1    2    0    0 -0.16620984947E+02 -0.88581281389E+01 -0.15668856692E+01  0.18899172083E+02  0.00000000000E+00 0.  1.
         11    1    1    2    0    0  0.31426030841E+02 -0.80879556355E+00  0.16039230796E+03  0.16344400270E+03  0.00000000000E+00 0. -1.
        -15    1    3    3    0    0  0.20064879542E+02  0.30227509597E+02 -0.12405612673E+03  0.12926477492E+03  0.17770000000E+01 0. -1.
         15    1    3    3    0    0 -0.34869925436E+02 -0.20560585895E+02 -0.34769295560E+02  0.53392050298E+02  0.17770000000E+01 0.  1.
</event>
<event>
 7    1  0.9281110E-008  0.1403764E+03  0.7546771E-02  0.1108018E+00
        -11   -1    0    0    0    0  0.00000000000E+00  0.00000000000E+00  0.18250000000E+03  0.18250000000E+03  0.00000000000E+00 0. -1.
         11   -1    0    0    0    0 -0.00000000000E+00 -0.00000000000E+00 -0.18250000000E+03  0.18250000000E+03  0.00000000000E+00 0.  1.
         23    2    1    2    0    0  0.28510779725E+02  0.53560230487E+02  0.49958843405E+02  0.12091339572E+03  0.91883624108E+02 0.  0.
        -11    1    1    2    0    0 -0.74108598806E+02  0.60121885013E+02  0.27316259525E+02  0.99261792795E+02  0.00000000000E+00 0. -1.
         11    1    1    2    0    0  0.45597819081E+02 -0.11368211550E+03 -0.77275102930E+02  0.14482481149E+03  0.00000000000E+00 0.  1.
        -15    1    3    3    0    0 -0.13997312487E+02 -0.83961800457E+01  0.42289930019E+02  0.45365366814E+02  0.17770000000E+01 0.  1.
         15    1    3    3    0    0  0.42508092212E+02  0.61956410533E+02  0.76689133864E+01  0.75548028903E+02  0.17770000000E+01 0. -1.
</event>
<event>
 7    1  0.9281110E-008  0.1930917E+03  0.7546771E-02  0.1060323E+00
        -11   -1    0    0    0    0  0.00000000000E+00  0.00000000000E+00  0.18250000000E+03  0.18250000000E+03  0.00000000000E+00 0. -1.
         11   -1    0    0    0    0 -0.00000000000E+00 -0.00000000000E+00 -0.18250000000E+03  0.18250000000E+03  0.00000000000E+00 0.  1.
         23    2    1    2    0    0  0.14893604867E+02  0.75369525125E+02  0.15238775068E+03  0.19309171288E+03  0.90332708600E+02 0.  0.
        -11    1    1    2    0    0 -0.82058368369E+01 -0.15292991653E+02 -0.20722573943E+02  0.27030287137E+02  0.00000000000E+00 0. -1.
         11    1    1    2    0    0 -0.66877680297E+01 -0.60076533472E+02 -0.13166517673E+03  0.14487799998E+03  0.00000000000E+00 0.  1.
        -15    1    3    3    0    0  0.10800541390E+02 -0.32116722190E+01 -0.83375192466E+01  0.14129348497E+02  0.17770000000E+01 0.  1.
         15    1    3    3    0    0  0.40930634765E+01  0.78581197344E+02  0.16072526992E+03  0.17896236438E+03  0.17770000000E+01 0. -1.
</event>
<event>
 7    1  0.9281110E-008  0.1434349E+03  0.7546771E-02  0.1104656E+00
        -11   -1    0    0    0    0  0.00000000000E+00  0.00000000000E+00  0.18250000000E+03  0.18250000000E+03  0.00000000000E+00 0.  1.
         11   -1    0    0    0    0 -0.00000000000E+00 -0.00000000000E+00 -0.18250000000E+03  0.18250000000E+03  0.00000000000E+00 0.  1.
         23    2    1    2    0    0 -0.58205580900E+02  0.16634280989E+02 -0.82241701775E+02  0.13728201657E+03  0.91750016957E+02 0.  0.
        -11    1    1    2    0    0  0.34821131083E+01 -0.92176052892E+02  0.96339228973E+02  0.13337839734E+03  0.00000000000E+00 0.  1.
         11    1    1    2    0    0  0.54723467791E+02  0.75541771903E+02 -0.14097527198E+02  0.94339586084E+02  0.00000000000E+00 0.  1.
        -15    1    3    3    0    0  0.20282792064E+02 -0.22148516829E+01  0.20224028029E+01  0.20580210494E+02  0.17770000000E+01 0. -1.
         15    1    3    3    0    0 -0.78488372963E+02  0.18849132672E+02 -0.84264104578E+02  0.11670180608E+03  0.17770000000E+01 0.  1.
</event>
<event>
 7    1  0.9281110E-008  0.1940346E+03  0.7546771E-02  0.1059627E+00
        -11   -1    0    0    0    0  0.00000000000E+00  0.00000000000E+00  0.18250000000E+03  0.18250000000E+03  0.00000000000E+00 0.  1.
         11   -1    0    0    0    0 -0.00000000000E+00 -0.00000000000E+00 -0.18250000000E+03  0.18250000000E+03  0.00000000000E+00 0. -1.
         23    2    1    2    0    0 -0.12307862319E+03  0.17984801232E+02  0.10197085636E+03  0.19520712772E+03  0.11061630352E+03 0.  0.
        -11    1    1    2    0    0  0.21266407191E+01  0.10533403358E+02 -0.37050139542E+01  0.11366719643E+02  0.00000000000E+00 0.  1.
         11    1    1    2    0    0  0.12095198247E+03 -0.28518204590E+02 -0.98265842408E+02  0.15842615264E+03  0.00000000000E+00 0. -1.
        -15    1    3    3    0    0 -0.11145709927E+03 -0.30632851587E+02  0.79941469383E+02  0.14055195776E+03  0.17770000000E+01 0.  1.
         15    1    3    3    0    0 -0.11621523921E+02  0.48617652819E+02  0.22029386979E+02  0.54655169962E+02  0.17770000000E+01 0. -1.
</event>
<event>
 7    1  0.9281110E-008  0.1387660E+03  0.7546771E-02  0.1109826E+00
        -11   -1    0    0    0    0  0.00000000000E+00  0.00000000000E+00  0.18250000000E+03  0.18250000000E+03  0.00000000000E+00 0.  1.
         11   -1    0    0    0    0 -0.00000000000E+00 -0.00000000000E+00 -0.18250000000E+03  0.18250000000E+03  0.00000000000E+00 0. -1.
         23    2    1    2    0    0  0.94138679645E+02 -0.75468537206E+02 -0.28467956421E+02  0.15407339997E+03  0.91490966341E+02 0.  0.
        -11    1    1    2    0    0 -0.77865378387E+02 -0.12924427983E+02  0.75725097742E+02  0.10938166399E+03  0.00000000000E+00 0.  1.
         11    1    1    2    0    0 -0.16273301259E+02  0.88392965190E+02 -0.47257141321E+02  0.10154493604E+03  0.00000000000E+00 0. -1.
        -15    1    3    3    0    0  0.29893499630E+01  0.11366116856E+02  0.16539384689E+02  0.20367469172E+02  0.17770000000E+01 0.  1.
         15    1    3    3    0    0  0.91149329682E+02 -0.86834654062E+02 -0.45007341110E+02  0.13370593080E+03  0.17770000000E+01 0. -1.
</event>
<event>
 7    1  0.9281110E-008  0.1543857E+03  0.7546771E-02  0.1093336E+00
        -11   -1    0    0    0    0  0.00000000000E+00  0.00000000000E+00  0.18250000000E+03  0.18250000000E+03  0.00000000000E+00 0.  1.
         11   -1    0    0    0    0 -0.00000000000E+00 -0.00000000000E+00 -0.18250000000E+03  0.18250000000E+03  0.00000000000E+00 0. -1.
         23    2    1    2    0    0  0.76696618693E+02  0.10335849404E+03  0.63094783209E+02  0.17253684063E+03  0.96034681747E+02 0.  0.
        -11    1    1    2    0    0 -0.71887527752E+02 -0.25359548523E+02  0.19575910755E+02  0.78702856552E+02  0.00000000000E+00 0.  1.
         11    1    1    2    0    0 -0.48090909405E+01 -0.77998945513E+02 -0.82670693964E+02  0.11376030282E+03  0.00000000000E+00 0. -1.
        -15    1    3    3    0    0  0.82287027670E+02  0.94296615383E+02  0.82796661794E+02  0.15007148806E+03  0.17770000000E+01 0.  1.
         15    1    3    3    0    0 -0.55904089778E+01  0.90618786523E+01 -0.19701878586E+02  0.22465352569E+02  0.17770000000E+01 0. -1.
</event>
<event>
 7    1  0.9281110E-008  0.1239224E+03  0.7546771E-02  0.1127882E+00
        -11   -1    0    0    0    0  0.00000000000E+00  0.00000000000E+00  0.18250000000E+03  0.18250000000E+03  0.00000000000E+00 0.  1.
         11   -1    0    0    0    0 -0.00000000000E+00 -0.00000000000E+00 -0.18250000000E+03  0.18250000000E+03  0.00000000000E+00 0.  1.
         23    2    1    2    0    0 -0.57049746413E+01  0.83847475885E+01  0.59997293026E+02  0.10979500774E+03  0.91391563209E+02 0.  0.
        -11    1    1    2    0    0 -0.85571438001E+02  0.82336735216E+02 -0.37725633460E+02  0.12459948791E+03  0.00000000000E+00 0.  1.
         11    1    1    2    0    0  0.91276412643E+02 -0.90721482804E+02 -0.22271659565E+02  0.13060550435E+03  0.00000000000E+00 0.  1.
        -15    1    3    3    0    0  0.94776955710E+01  0.47856252715E+02  0.39333386067E+02  0.62692269266E+02  0.17770000000E+01 0. -1.
         15    1    3    3    0    0 -0.15182670212E+02 -0.39471505126E+02  0.20663906958E+02  0.47102738471E+02  0.17770000000E+01 0.  1.
</event>
<event>
 7    1  0.9281110E-008  0.1834567E+03  0.7546771E-02  0.1067696E+00
        -11   -1    0    0    0    0  0.00000000000E+00  0.00000000000E+00  0.18250000000E+03  0.18250000000E+03  0.00000000000E+00 0.  1.
         11   -1    0    0    0    0 -0.00000000000E+00 -0.00000000000E+00 -0.18250000000E+03  0.18250000000E+03  0.00000000000E+00 0. -1.
         23    2    1    2    0    0  0.24443783454E+02 -0.14025275984E+02 -0.16251683325E+03  0.18755612890E+03  0.89282548602E+02 0.  0.
        -11    1    1    2    0    0  0.18671536058E+01 -0.17284224757E+02  0.11158566373E+02  0.20657790093E+02  0.00000000000E+00 0. -1.
         11    1    1    2    0    0 -0.26310937060E+02  0.31309500741E+02  0.15135826687E+03  0.15678608100E+03  0.00000000000E+00 0.  1.
        -15    1    3    3    0    0 -0.30030871801E+02  0.11637477436E+02 -0.71095947043E+02  0.78070964879E+02  0.17770000000E+01 0.  1.
         15    1    3    3    0    0  0.54474655255E+02 -0.25662753420E+02 -0.91420886203E+02  0.10948516402E+03  0.17770000000E+01 0. -1.
</event>
<event>
 7    1  0.9281110E-008  0.1338367E+03  0.7546771E-02  0.1115534E+00
        -11   -1    0    0    0    0  0.00000000000E+00  0.00000000000E+00  0.18250000000E+03  0.18250000000E+03  0.00000000000E+00 0.  1.
         11   -1    0    0    0    0 -0.00000000000E+00 -0.00000000000E+00 -0.18250000000E+03  0.18250000000E+03  0.00000000000E+00 0. -1.
         23    2    1    2    0    0  0.14333307359E+01 -0.52108446255E+02 -0.22744181262E+02  0.11287051802E+03  0.97494161098E+02 0.  0.
        -11    1    1    2    0    0 -0.31289622325E+02  0.12104968738E+03 -0.61429688026E+02  0.13930424922E+03  0.00000000000E+00 0. -1.
         11    1    1    2    0    0  0.29856291589E+02 -0.68941241129E+02  0.84173869288E+02  0.11282523276E+03  0.00000000000E+00 0.  1.
        -15    1    3    3    0    0  0.39427753104E+02 -0.37868230830E+02  0.15743093070E+02  0.56917074147E+02  0.17770000000E+01 0.  1.
         15    1    3    3    0    0 -0.37994422369E+02 -0.14240215425E+02 -0.38487274332E+02  0.55953443871E+02  0.17770000000E+01 0. -1.
</event>
<event>
 7    1  0.9281110E-008  0.1733558E+03  0.7546771E-02  0.1075976E+00
        -11   -1    0    0    0    0  0.00000000000E+00  0.00000000000E+00  0.18250000000E+03  0.18250000000E+03  0.00000000000E+00 0.  1.
         11   -1    0    0    0    0 -0.00000000000E+00 -0.00000000000E+00 -0.18250000000E+03  0.18250000000E+03  0.00000000000E+00 0. -1.
         23    2    1    2    0    0  0.20640219098E+02  0.85659142930E+02  0.13409813729E+03  0.18467669947E+03  0.91431206325E+02 0.  0.
        -11    1    1    2    0    0 -0.32743466212E+02  0.35288822554E-01 -0.25764217436E+02  0.41664501977E+02  0.00000000000E+00 0.  1.
         11    1    1    2    0    0  0.12103247114E+02 -0.85694431752E+02 -0.10833391986E+03  0.13865879855E+03  0.00000000000E+00 0. -1.
        -15    1    3    3    0    0  0.13190990394E+02  0.10194774809E+03  0.88507413776E+02  0.13566158480E+03  0.17770000000E+01 0.  1.
         15    1    3    3    0    0  0.74492287044E+01 -0.16288605160E+02  0.45590723518E+02  0.49015114671E+02  0.17770000000E+01 0. -1.
</event>
<event>
 7    1  0.9281110E-008  0.1539764E+03  0.7546771E-02  0.1093740E+00
        -11   -1    0    0    0    0  0.00000000000E+00  0.00000000000E+00  0.18250000000E+03  0.18250000000E+03  0.00000000000E+00 0.  1.
         11   -1    0    0    0    0 -0.00000000000E+00 -0.00000000000E+00 -0.18250000000E+03  0.18250000000E+03  0.00000000000E+00 0.  1.
         23    2    1    2    0    0 -0.70667814159E+02  0.72037079907E+02  0.72538971161E+02  0.17237389631E+03  0.11944696293E+03 0.  0.
        -11    1    1    2    0    0  0.18989111509E+02  0.66223944749E+01 -0.93971756687E+02  0.96099602077E+02  0.00000000000E+00 0.  1.
         11    1    1    2    0    0  0.51678702650E+02 -0.78659474382E+02  0.21432785526E+02  0.96526501610E+02  0.00000000000E+00 0.  1.
        -15    1    3    3    0    0 -0.93847351346E+02  0.85484395143E+02  0.71026985306E+02  0.14547473161E+03  0.17770000000E+01 0.  1.
         15    1    3    3    0    0  0.23179537187E+02 -0.13447315236E+02  0.15119858552E+01  0.26899164699E+02  0.17770000000E+01 0. -1.
</event>
<event>
 7    1  0.9281110E-008  0.1424994E+03  0.7546771E-02  0.1105675E+00
        -11   -1    0    0    0    0  0.00000000000E+00  0.00000000000E+00  0.18250000000E+03  0.18250000000E+03  0.00000000000E+00 0.  1.
         11   -1    0    0    0    0 -0.00000000000E+00 -0.00000000000E+00 -0.18250000000E+03  0.18250000000E+03  0.00000000000E+00 0. -1.
         23    2    1    2    0    0  0.38415718604E+02 -0.97429617393E+02 -0.59896982387E+01  0.13883491866E+03  0.90944820490E+02 0.  0.
        -11    1    1    2    0    0  0.29674828047E+02  0.10484778657E+03  0.72349141220E+02  0.13079775229E+03  0.00000000000E+00 0.  1.
         11    1    1    2    0    0 -0.68090546652E+02 -0.74181691760E+01 -0.66359442982E+02  0.95367329050E+02  0.00000000000E+00 0. -1.
        -15    1    3    3    0    0 -0.38490650189E+01 -0.14128902781E+02  0.34112652567E+02  0.37165467701E+02  0.17770000000E+01 0.  1.
         15    1    3    3    0    0  0.42264783623E+02 -0.83300714612E+02 -0.40102350806E+02  0.10166945096E+03  0.17770000000E+01 0. -1.
</event>
<event>
 7    1  0.9281110E-008  0.1523647E+03  0.7546771E-02  0.1095346E+00
        -11   -1    0    0    0    0  0.00000000000E+00  0.00000000000E+00  0.18250000000E+03  0.18250000000E+03  0.00000000000E+00 0.  1.
         11   -1    0    0    0    0 -0.00000000000E+00 -0.00000000000E+00 -0.18250000000E+03  0.18250000000E+03  0.00000000000E+00 0. -1.
         23    2    1    2    0    0 -0.15751252836E+02  0.46980439412E+02 -0.84168349543E+02  0.13471006858E+03  0.92775146779E+02 0.  0.
        -11    1    1    2    0    0  0.91405961588E+02 -0.71276486189E+02  0.95294175558E+02  0.15005454739E+03  0.00000000000E+00 0.  1.
         11    1    1    2    0    0 -0.75654708752E+02  0.24296046776E+02 -0.11125826014E+02  0.80235384026E+02  0.00000000000E+00 0. -1.
        -15    1    3    3    0    0 -0.10420693856E+02 -0.35139252807E+01 -0.83150953203E+02  0.83893845298E+02  0.17770000000E+01 0. -1.
         15    1    3    3    0    0 -0.53305589807E+01  0.50494364693E+02 -0.10173963406E+01  0.50816223286E+02  0.17770000000E+01 0.  1.
</event>
<event>
 7    1  0.9281110E-008  0.1546619E+03  0.7546771E-02  0.1093064E+00
        -11   -1    0    0    0    0  0.00000000000E+00  0.00000000000E+00  0.18250000000E+03  0.18250000000E+03  0.00000000000E+00 0. -1.
         11   -1    0    0    0    0 -0.00000000000E+00 -0.00000000000E+00 -0.18250000000E+03  0.18250000000E+03  0.00000000000E+00 0. -1.
         23    2    1    2    0    0  0.27947198639E+02  0.64940653135E+02  0.56566163377E+02  0.12736472979E+03  0.89575159577E+02 0.  0.
        -11    1    1    2    0    0 -0.62380114111E+02 -0.12498968917E+03 -0.84196779122E+02  0.16310364389E+03  0.00000000000E+00 0. -1.
         11    1    1    2    0    0  0.34432915472E+02  0.60049036032E+02  0.27630615745E+02  0.74531626326E+02  0.00000000000E+00 0. -1.
        -15    1    3    3    0    0  0.24944378012E+02  0.11642518946E+02 -0.19955119821E+02  0.34046068465E+02  0.17770000000E+01 0. -1.
         15    1    3    3    0    0  0.30028206267E+01  0.53298134189E+02  0.76521283198E+02  0.93318661323E+02  0.17770000000E+01 0.  1.
</event>
<event>
 7    1  0.9281110E-008  0.1666886E+03  0.7546771E-02  0.1081787E+00
        -11   -1    0    0    0    0  0.00000000000E+00  0.00000000000E+00  0.18250000000E+03  0.18250000000E+03  0.00000000000E+00 0. -1.
         11   -1    0    0    0    0 -0.00000000000E+00 -0.00000000000E+00 -0.18250000000E+03  0.18250000000E+03  0.00000000000E+00 0. -1.
         23    2    1    2    0    0 -0.84364236653E+01  0.28021189549E+01 -0.14602072738E+03  0.17240402879E+03  0.91225386842E+02 0.  0.
        -11    1    1    2    0    0  0.50461331982E+02  0.12435972675E+02  0.14900374655E+02  0.54064966537E+02  0.00000000000E+00 0. -1.
         11    1    1    2    0    0 -0.42024908317E+02 -0.15238091630E+02  0.13112035273E+03  0.13853100467E+03  0.00000000000E+00 0. -1.
        -15    1    3    3    0    0 -0.87520907243E+01  0.24740069113E+02 -0.14798516461E+03  0.15030448026E+03  0.17770000000E+01 0. -1.
         15    1    3    3    0    0  0.31566705902E+00 -0.21937950158E+02  0.19644372297E+01  0.22099548535E+02  0.17770000000E+01 0.  1.
</event>
<event>
 7    1  0.9281110E-008  0.1564284E+03  0.7546771E-02  0.1091338E+00
        -11   -1    0    0    0    0  0.00000000000E+00  0.00000000000E+00  0.18250000000E+03  0.18250000000E+03  0.00000000000E+00 0.  1.
         11   -1    0    0    0    0 -0.00000000000E+00 -0.00000000000E+00 -0.18250000000E+03  0.18250000000E+03  0.00000000000E+00 0. -1.
         23    2    1    2    0    0  0.96488001780E+02  0.24946614675E+02  0.66474735365E+02  0.15179349601E+03  0.93220742952E+02 0.  0.
        -11    1    1    2    0    0 -0.13324904206E+03  0.28025996712E+02 -0.31135983066E+02  0.13967896457E+03  0.00000000000E+00 0.  1.
         11    1    1    2    0    0  0.36761040281E+02 -0.52972611387E+02 -0.35338752299E+02  0.73527539424E+02  0.00000000000E+00 0. -1.
        -15    1    3    3    0    0  0.97915280742E+02  0.30690889513E+02  0.19562239192E+02  0.10447569972E+03  0.17770000000E+01 0. -1.
         15    1    3    3    0    0 -0.14272789611E+01 -0.57442748385E+01  0.46912496173E+02  0.47317796281E+02  0.17770000000E+01 0.  1.
</event>
<event>
 7    1  0.9281110E-008  0.1843967E+03  0.7546771E-02  0.1066955E+00
        -11   -1    0    0    0    0  0.00000000000E+00  0.00000000000E+00  0.18250000000E+03  0.18250000000E+03  0.00000000000E+00 0. -1.
         11   -1    0    0    0    0 -0.00000000000E+00 -0.00000000000E+00 -0.18250000000E+03  0.18250000000E+03  0.00000000000E+00 0.  1.
         23    2    1    2    0    0  0.96018248660E+02  0.12041800465E+03  0.45822576041E+02  0.17872826110E+03  0.78256520006E+02 0.  0.
        -11    1    1    2    0    0  0.26849534307E+01  0.12379595030E+02  0.43126416292E+01  0.13381413447E+02  0.00000000000E+00 0. -1.
         11    1    1    2    0    0 -0.98703202091E+02 -0.13279759968E+03 -0.50135217671E+02  0.17289032545E+03  0.00000000000E+00 0.  1.
        -15    1    3    3    0    0  0.58780446624E+02  0.70275371307E+02  0.66156162655E+02  0.11302019423E+03  0.17770000000E+01 0.  1.
         15    1    3    3    0    0  0.37237802036E+02  0.50142633339E+02 -0.20333586614E+02  0.65708066873E+02  0.17770000000E+01 0. -1.
</event>
<event>
 7    1  0.9281110E-008  0.1386910E+03  0.7546771E-02  0.1109911E+00
        -11   -1    0    0    0    0  0.00000000000E+00  0.00000000000E+00  0.18250000000E+03  0.18250000000E+03  0.00000000000E+00 0.  1.
         11   -1    0    0    0    0 -0.00000000000E+00 -0.00000000000E+00 -0.18250000000E+03  0.18250000000E+03  0.00000000000E+00 0. -1.
         23    2    1    2    0    0  0.14774765367E+02 -0.77765411506E+01  0.71976604225E+02  0.11724654253E+03  0.91034893831E+02 0.  0.
        -11    1    1    2    0    0  0.79122690491E+02 -0.61196609596E+02  0.16603994065E+02  0.10139584703E+03  0.00000000000E+00 0.  1.
         11    1    1    2    0    0 -0.93897455858E+02  0.68973150747E+02 -0.88580598289E+02  0.14635761044E+03  0.00000000000E+00 0. -1.
        -15    1    3    3    0    0  0.16690329328E+02  0.26241682066E+02 -0.63683979179E+01  0.31794766736E+02  0.17770000000E+01 0.  1.
         15    1    3    3    0    0 -0.19155639606E+01 -0.34018223217E+02  0.78345002142E+02  0.85451775791E+02  0.17770000000E+01 0. -1.
</event>
<event>
 7    1  0.9281110E-008  0.1290856E+03  0.7546771E-02  0.1121299E+00
        -11   -1    0    0    0    0  0.00000000000E+00  0.00000000000E+00  0.18250000000E+03  0.18250000000E+03  0.00000000000E+00 0.  1.
         11   -1    0    0    0    0 -0.00000000000E+00 -0.00000000000E+00 -0.18250000000E+03  0.18250000000E+03  0.00000000000E+00 0.  1.
         23    2    1    2    0    0 -0.44073601492E+02 -0.39615456178E+02  0.51752360891E+02  0.12023626880E+03  0.90920771893E+02 0.  0.
        -11    1    1    2    0    0  0.79418305423E+02  0.90676754178E+02  0.45946532922E+02  0.12899854601E+03  0.00000000000E+00 0.  1.
         11    1    1    2    0    0 -0.35344703931E+02 -0.51061297999E+02 -0.97698893813E+02  0.11576518519E+03  0.00000000000E+00 0.  1.
        -15    1    3    3    0    0 -0.24710277823E+02 -0.28997199317E+02 -0.21448254322E+02  0.43756379429E+02  0.17770000000E+01 0.  1.
         15    1    3    3    0    0 -0.19363323668E+02 -0.10618256862E+02  0.73200615213E+02  0.76479889375E+02  0.17770000000E+01 0. -1.
</event>
<event>
 7    1  0.9281110E-008  0.2108275E+03  0.7546771E-02  0.1047905E+00
        -11   -1    0    0    0    0  0.00000000000E+00  0.00000000000E+00  0.18250000000E+03  0.18250000000E+03  0.00000000000E+00 0.  1.
         11   -1    0    0    0    0 -0.00000000000E+00 -0.00000000000E+00 -0.18250000000E+03  0.18250000000E+03  0.00000000000E+00 0. -1.
         23    2    1    2    0    0 -0.30634928071E+02  0.13136377052E+01  0.63661350786E+02  0.11694226635E+03  0.93179942123E+02 0.  0.
        -11    1    1    2    0    0  0.53777624975E+02 -0.64149241522E+02 -0.12946816590E+03  0.15417251414E+03  0.00000000000E+00 0. -1.
         11    1    1    2    0    0 -0.23142696904E+02  0.62835603816E+02  0.65806815110E+02  0.93885219507E+02  0.00000000000E+00 0.  1.
        -15    1    3    3    0    0 -0.60319920452E+02 -0.91571926575E+01  0.22406505685E+02  0.65019660155E+02  0.17770000000E+01 0.  1.
         15    1    3    3    0    0  0.29684992381E+02  0.10470830363E+02  0.41254845101E+02  0.51922606199E+02  0.17770000000E+01 0. -1.
</event>
<event>
 7    1  0.9281110E-008  0.1464773E+03  0.7546771E-02  0.1101402E+00
        -11   -1    0    0    0    0  0.00000000000E+00  0.00000000000E+00  0.18250000000E+03  0.18250000000E+03  0.00000000000E+00 0.  1.
         11   -1    0    0    0    0 -0.00000000000E+00 -0.00000000000E+00 -0.18250000000E+03  0.18250000000E+03  0.00000000000E+00 0. -1.
         23    2    1    2    0    0  0.12416644640E+01  0.42557788372E+02 -0.76069749455E+02  0.12656516060E+03  0.91757430290E+02 0.  0.
        -11    1    1    2    0    0  0.74420124971E+02 -0.85561661508E+02  0.96658773650E+02  0.14900359541E+03  0.00000000000E+00 0.  1.
         11    1    1    2    0    0 -0.75661789435E+02  0.43003873135E+02 -0.20589024195E+02  0.89431243995E+02  0.00000000000E+00 0. -1.
        -15    1    3    3    0    0 -0.10946621002E+02  0.10511238642E+01  0.19042955250E+02  0.22061850476E+02  0.17770000000E+01 0.  1.
         15    1    3    3    0    0  0.12188285466E+02  0.41506664508E+02 -0.95112704706E+02  0.10450331012E+03  0.17770000000E+01 0. -1.
</event>
<event>
 7    1  0.9281110E-008  0.1447845E+03  0.7546771E-02  0.1103202E+00
        -11   -1    0    0    0    0  0.00000000000E+00  0.00000000000E+00  0.18250000000E+03  0.18250000000E+03  0.00000000000E+00 0.  1.
         11   -1    0    0    0    0 -0.00000000000E+00 -0.00000000000E+00 -0.18250000000E+03  0.18250000000E+03  0.00000000000E+00 0.  1.
         23    2    1    2    0    0  0.17589161143E+02 -0.20439580007E+02 -0.11227004149E+03  0.14871999576E+03  0.93733237974E+02 0.  0.
        -11    1    1    2    0    0 -0.89208393060E+02 -0.29502431992E+02  0.79294589419E+02  0.12294780517E+03  0.00000000000E+00 0.  1.
         11    1    1    2    0    0  0.71619231917E+02  0.49942012000E+02  0.32975452075E+02  0.93332199066E+02  0.00000000000E+00 0.  1.
        -15    1    3    3    0    0  0.38722868158E+02 -0.43039781457E+02 -0.99639560232E+02  0.11525225811E+03  0.17770000000E+01 0. -1.
         15    1    3    3    0    0 -0.21133707015E+02  0.22600201450E+02 -0.12630481263E+02  0.33467737654E+02  0.17770000000E+01 0.  1.
</event>
<event>
 7    1  0.9281110E-008  0.1241603E+03  0.7546771E-02  0.1127571E+00
        -11   -1    0    0    0    0  0.00000000000E+00  0.00000000000E+00  0.18250000000E+03  0.18250000000E+03  0.00000000000E+00 0. -1.
         11   -1    0    0    0    0 -0.00000000000E+00 -0.00000000000E+00 -0.18250000000E+03  0.18250000000E+03  0.00000000000E+00 0. -1.
         23    2    1    2    0    0  0.58000563485E+02 -0.10336851185E+02 -0.74883163861E+02  0.12357899156E+03  0.78697922897E+02 0.  0.
        -11    1    1    2    0    0 -0.36626623299E+02  0.11573814018E+03  0.31194429707E+02  0.12533921601E+03  0.00000000000E+00 0. -1.
         11    1    1    2    0    0 -0.21373940186E+02 -0.10540128899E+03  0.43688734153E+02  0.11608179242E+03  0.00000000000E+00 0. -1.
        -15    1    3    3    0    0  0.17617347692E+02 -0.32885554977E+02 -0.66885250071E+02  0.76606951851E+02  0.17770000000E+01 0. -1.
         15    1    3    3    0    0  0.40383215794E+02  0.22548703792E+02 -0.79979137898E+01  0.46972039710E+02  0.17770000000E+01 0.  1.
</event>
<event>
 7    1  0.9281110E-008  0.1851661E+03  0.7546771E-02  0.1066352E+00
        -11   -1    0    0    0    0  0.00000000000E+00  0.00000000000E+00  0.18250000000E+03  0.18250000000E+03  0.00000000000E+00 0.  1.
         11   -1    0    0    0    0 -0.00000000000E+00 -0.00000000000E+00 -0.18250000000E+03  0.18250000000E+03  0.00000000000E+00 0. -1.
         23    2    1    2    0    0 -0.13671309301E+03 -0.27635619007E+02 -0.78809560514E+02  0.18515341446E+03  0.92825873666E+02 0.  0.
        -11    1    1    2    0    0  0.69266886887E+01  0.10353453369E+02 -0.14463863242E+02  0.19088644602E+02  0.00000000000E+00 0. -1.
         11    1    1    2    0    0  0.12978640432E+03  0.17282165638E+02  0.93273423756E+02  0.16075794094E+03  0.00000000000E+00 0.  1.
        -15    1    3    3    0    0 -0.11995737965E+00  0.18067294631E+02 -0.26041549630E+02  0.31745260453E+02  0.17770000000E+01 0.  1.
         15    1    3    3    0    0 -0.13659313563E+03 -0.45702913639E+02 -0.52768010884E+02  0.15340815401E+03  0.17770000000E+01 0. -1.
</event>
<event>
 7    1  0.9281110E-008  0.1422134E+03  0.7546771E-02  0.1105988E+00
        -11   -1    0    0    0    0  0.00000000000E+00  0.00000000000E+00  0.18250000000E+03  0.18250000000E+03  0.00000000000E+00 0.  1.
         11   -1    0    0    0    0 -0.00000000000E+00 -0.00000000000E+00 -0.18250000000E+03  0.18250000000E+03  0.00000000000E+00 0.  1.
         23    2    1    2    0    0  0.64878398671E+02  0.14512635087E+02  0.11632490001E+03  0.15571276977E+03  0.79342051367E+02 0.  0.
        -11    1    1    2    0    0 -0.86258617478E+02  0.24151969678E+02 -0.52293923704E+01  0.89728553276E+02  0.00000000000E+00 0.  1.
         11    1    1    2    0    0  0.21380218806E+02 -0.38664604766E+02 -0.11109550764E+03  0.11955867696E+03  0.00000000000E+00 0.  1.
        -15    1    3    3    0    0  0.29385458813E+02 -0.24914017714E+02  0.15103035961E+02  0.41418267619E+02  0.17770000000E+01 0. -1.
         15    1    3    3    0    0  0.35492939859E+02  0.39426652802E+02  0.10122186405E+03  0.11429450215E+03  0.17770000000E+01 0.  1.
</event>
<event>
 7    1  0.9281110E-008  0.1307564E+03  0.7546771E-02  0.1119241E+00
        -11   -1    0    0    0    0  0.00000000000E+00  0.00000000000E+00  0.18250000000E+03  0.18250000000E+03  0.00000000000E+00 0.  1.
         11   -1    0    0    0    0 -0.00000000000E+00 -0.00000000000E+00 -0.18250000000E+03  0.18250000000E+03  0.00000000000E+00 0.  1.
         23    2    1    2    0    0 -0.13333791186E+02 -0.28715346144E+02  0.72009419907E+02  0.12020314558E+03  0.90890475632E+02 0.  0.
        -11    1    1    2    0    0 -0.71707959129E+00 -0.78641509867E+02 -0.10538662590E+03  0.13149654823E+03  0.00000000000E+00 0.  1.
         11    1    1    2    0    0  0.14050870777E+02  0.10735685601E+03  0.33377205998E+02  0.11330030619E+03  0.00000000000E+00 0.  1.
        -15    1    3    3    0    0 -0.40151042832E+02  0.58128624296E+01  0.60593154248E+01  0.41058112993E+02  0.17770000000E+01 0.  1.
         15    1    3    3    0    0  0.26817251646E+02 -0.34528208574E+02  0.65950104482E+02  0.79145032588E+02  0.17770000000E+01 0. -1.
</event>
<event>
 7    1  0.9281110E-008  0.1765249E+03  0.7546771E-02  0.1073313E+00
        -11   -1    0    0    0    0  0.00000000000E+00  0.00000000000E+00  0.18250000000E+03  0.18250000000E+03  0.00000000000E+00 0. -1.
         11   -1    0    0    0    0 -0.00000000000E+00 -0.00000000000E+00 -0.18250000000E+03  0.18250000000E+03  0.00000000000E+00 0. -1.
         23    2    1    2    0    0 -0.16644867130E+02 -0.21125451809E+02 -0.13993347236E+03  0.17014419971E+03  0.92974919704E+02 0.  0.
        -11    1    1    2    0    0 -0.27342878758E+02  0.20638252553E+02 -0.12296317743E+02  0.36397388880E+02  0.00000000000E+00 0. -1.
         11    1    1    2    0    0  0.43987745888E+02  0.48719925574E+00  0.15222979010E+03  0.15845841141E+03  0.00000000000E+00 0. -1.
        -15    1    3    3    0    0  0.16874126852E+02  0.97912508440E+01 -0.11781357128E+03  0.11943115195E+03  0.17770000000E+01 0.  1.
         15    1    3    3    0    0 -0.33518993981E+02 -0.30916702653E+02 -0.22119901078E+02  0.50713047760E+02  0.17770000000E+01 0. -1.
</event>
<event>
 7    1  0.9281110E-008  0.1539813E+03  0.7546771E-02  0.1093735E+00
        -11   -1    0    0    0    0  0.00000000000E+00  0.00000000000E+00  0.18250000000E+03  0.18250000000E+03  0.00000000000E+00 0.  1.
         11   -1    0    0    0    0 -0.00000000000E+00 -0.00000000000E+00 -0.18250000000E+03  0.18250000000E+03  0.00000000000E+00 0. -1.
         23    2    1    2    0    0 -0.82671946209E+02 -0.88168766377E+02 -0.51490903390E+02  0.15970767890E+03  0.90812155098E+02 0.  0.
        -11    1    1    2    0    0  0.11507851378E+03  0.19089960036E+02  0.54877311573E+02  0.12891474018E+03  0.00000000000E+00 0.  1.
         11    1    1    2    0    0 -0.32406567575E+02  0.69078806340E+02 -0.33864081835E+01  0.76377580924E+02  0.00000000000E+00 0. -1.
        -15    1    3    3    0    0  0.13385881508E+02 -0.10353815633E+02  0.11905101987E+02  0.20767101488E+02  0.17770000000E+01 0.  1.
         15    1    3    3    0    0 -0.96057827718E+02 -0.77814950744E+02 -0.63396005376E+02  0.13894057741E+03  0.17770000000E+01 0. -1.
</event>
<event>
 6    1  0.9281110E-008  0.1124839E+03  0.7546771E-02  0.1143822E+00
        -11   -1    0    0    0    0  0.00000000000E+00  0.00000000000E+00  0.18250000000E+03  0.18250000000E+03  0.00000000000E+00 0. -1.
         11   -1    0    0    0    0 -0.00000000000E+00 -0.00000000000E+00 -0.18250000000E+03  0.18250000000E+03  0.00000000000E+00 0. -1.
        -11    1    1    2    0    0  0.69421534166E+02 -0.99937317121E+02 -0.35620533233E+02  0.12678974386E+03  0.00000000000E+00 0. -1.
         11    1    1    2    0    0 -0.47088982156E+02  0.89187002729E+02 -0.71372913798E+02  0.12355479157E+03  0.00000000000E+00 0. -1.
        -15    1    1    2    0    0 -0.25410908785E+02  0.15679991789E+02  0.10330023159E+03  0.10754381435E+03  0.17770000000E+01 0. -1.
         15    1    1    2    0    0  0.30783567750E+01 -0.49296773972E+01  0.36932154370E+01  0.71116502261E+01  0.17770000000E+01 0.  1.
</event>
<event>
 7    1  0.9281110E-008  0.1327904E+03  0.7546771E-02  0.1116781E+00
        -11   -1    0    0    0    0  0.00000000000E+00  0.00000000000E+00  0.18250000000E+03  0.18250000000E+03  0.00000000000E+00 0. -1.
         11   -1    0    0    0    0 -0.00000000000E+00 -0.00000000000E+00 -0.18250000000E+03  0.18250000000E+03  0.00000000000E+00 0.  1.
         23    2    1    2    0    0  0.24048608392E+02 -0.21342809498E+01  0.21438836013E+02  0.97463604441E+02  0.91959990106E+02 0.  0.
        -11    1    1    2    0    0 -0.12042257561E+03  0.21069741421E+02  0.63433827248E+02  0.13772937653E+03  0.00000000000E+00 0. -1.
         11    1    1    2    0    0  0.96373967216E+02 -0.18935460471E+02 -0.84872663262E+02  0.12980701903E+03  0.00000000000E+00 0.  1.
        -15    1    3    3    0    0  0.23859452655E+02  0.32982567034E+02  0.40514323001E+02  0.57460345512E+02  0.17770000000E+01 0. -1.
         15    1    3    3    0    0  0.18915573716E+00 -0.35116847983E+02 -0.19075486987E+02  0.40003258930E+02  0.17770000000E+01 0.  1.
</event>
<event>
 7    1  0.9281110E-008  0.2144931E+03  0.7546771E-02  0.1045504E+00
        -11   -1    0    0    0    0  0.00000000000E+00  0.00000000000E+00  0.18250000000E+03  0.18250000000E+03  0.00000000000E+00 0. -1.
         11   -1    0    0    0    0 -0.00000000000E+00 -0.00000000000E+00 -0.18250000000E+03  0.18250000000E+03  0.00000000000E+00 0.  1.
         23    2    1    2    0    0  0.44618496885E+02 -0.76457959142E+01  0.64222470490E+02  0.12133857091E+03  0.92462179380E+02 0.  0.
        -11    1    1    2    0    0 -0.66735882943E+02 -0.64959156482E+02 -0.11823267859E+03  0.15050693130E+03  0.00000000000E+00 0.  1.
         11    1    1    2    0    0  0.22117386058E+02  0.72604952396E+02  0.54010208102E+02  0.93154497786E+02  0.00000000000E+00 0. -1.
        -15    1    3    3    0    0  0.51993871068E+02  0.13752276350E+02  0.78015649651E+02  0.94773873261E+02  0.17770000000E+01 0. -1.
         15    1    3    3    0    0 -0.73753741827E+01 -0.21398072264E+02 -0.13793179161E+02  0.26564697651E+02  0.17770000000E+01 0.  1.
</event>
<event>
 7    1  0.9281110E-008  0.2191177E+03  0.7546771E-02  0.1042548E+00
        -11   -1    0    0    0    0  0.00000000000E+00  0.00000000000E+00  0.18250000000E+03  0.18250000000E+03  0.00000000000E+00 0.  1.
         11   -1    0    0    0    0 -0.00000000000E+00 -0.00000000000E+00 -0.18250000000E+03  0.18250000000E+03  0.00000000000E+00 0. -1.
         23    2    1    2    0    0  0.32369762487E+02 -0.91791623935E+01 -0.29109046813E+02  0.10191132720E+03  0.91687095376E+02 0.  0.
        -11    1    1    2    0    0 -0.14370984403E+03  0.24757048007E+02 -0.40276923632E+01  0.14588232587E+03  0.00000000000E+00 0. -1.
         11    1    1    2    0    0  0.11134008154E+03 -0.15577885614E+02  0.33136739176E+02  0.11720634693E+03  0.00000000000E+00 0.  1.
        -15    1    3    3    0    0  0.37475168223E+02  0.10084729640E+02  0.23652945852E+02  0.45483069176E+02  0.17770000000E+01 0.  1.
         15    1    3    3    0    0 -0.51054057352E+01 -0.19263892034E+02 -0.52761992665E+02  0.56428258019E+02  0.17770000000E+01 0. -1.
</event>
<event>
 7    1  0.9281110E-008  0.1496149E+03  0.7546771E-02  0.1098136E+00
        -11   -1    0    0    0    0  0.00000000000E+00  0.00000000000E+00  0.18250000000E+03  0.18250000000E+03  0.00000000000E+00 0. -1.
         11   -1    0    0    0    0 -0.00000000000E+00 -0.00000000000E+00 -0.18250000000E+03  0.18250000000E+03  0.00000000000E+00 0.  1.
         23    2    1    2    0    0 -0.57669553725E+02 -0.29819318132E+02  0.60570025445E+02  0.12968340821E+03  0.94520311161E+02 0.  0.
        -11    1    1    2    0    0  0.79644461210E+01 -0.81491678835E+02  0.25876840240E+02  0.85871630835E+02  0.00000000000E+00 0. -1.
         11    1    1    2    0    0  0.49705107604E+02  0.11131099697E+03 -0.86446865685E+02  0.14944496095E+03  0.00000000000E+00 0.  1.
        -15    1    3    3    0    0 -0.14782310615E+02 -0.10130675585E+02  0.77463012063E+02  0.79528757451E+02  0.17770000000E+01 0. -1.
         15    1    3    3    0    0 -0.42887243110E+02 -0.19688642548E+02 -0.16892986617E+02  0.50154650759E+02  0.17770000000E+01 0.  1.
</event>
<event>
 7    1  0.9281110E-008  0.1889947E+03  0.7546771E-02  0.1063399E+00
        -11   -1    0    0    0    0  0.00000000000E+00  0.00000000000E+00  0.18250000000E+03  0.18250000000E+03  0.00000000000E+00 0.  1.
         11   -1    0    0    0    0 -0.00000000000E+00 -0.00000000000E+00 -0.18250000000E+03  0.18250000000E+03  0.00000000000E+00 0. -1.
         23    2    1    2    0    0 -0.30695720522E+02  0.74107211404E+02 -0.14316107495E+03  0.18899471656E+03  0.93753951739E+02 0.  0.
        -11    1    1    2    0    0  0.49941171372E+02 -0.44933965586E+02  0.88158188198E+02  0.11083793578E+03  0.00000000000E+00 0. -1.
         11    1    1    2    0    0 -0.19245450851E+02 -0.29173245819E+02  0.55002886752E+02  0.65167347660E+02  0.00000000000E+00 0.  1.
        -15    1    3    3    0    0 -0.50842643395E+02  0.43359190045E+02 -0.36495165216E+02  0.76158049882E+02  0.17770000000E+01 0.  1.
         15    1    3    3    0    0  0.20146922873E+02  0.30748021359E+02 -0.10666590973E+03  0.11283666668E+03  0.17770000000E+01 0. -1.
</event>
<event>
 7    1  0.9281110E-008  0.1300698E+03  0.7546771E-02  0.1120082E+00
        -11   -1    0    0    0    0  0.00000000000E+00  0.00000000000E+00  0.18250000000E+03  0.18250000000E+03  0.00000000000E+00 0. -1.
         11   -1    0    0    0    0 -0.00000000000E+00 -0.00000000000E+00 -0.18250000000E+03  0.18250000000E+03  0.00000000000E+00 0.  1.
         23    2    1    2    0    0  0.31449101047E+02  0.25339859165E+02  0.15219924922E+02  0.10130425774E+03  0.91650161502E+02 0.  0.
        -11    1    1    2    0    0 -0.14161909876E+03  0.53243456025E+01  0.22036175921E+02  0.14342214208E+03  0.00000000000E+00 0. -1.
         11    1    1    2    0    0  0.11016999771E+03 -0.30664204768E+02 -0.37256100843E+02  0.12027360018E+03  0.00000000000E+00 0.  1.
        -15    1    3    3    0    0  0.57415601650E+01 -0.13543098974E+01 -0.36853422831E+02  0.37364852091E+02  0.17770000000E+01 0.  1.
         15    1    3    3    0    0  0.25707540882E+02  0.26694169063E+02  0.52073347753E+02  0.63939405654E+02  0.17770000000E+01 0. -1.
</event>
<event>
 7    1  0.9281110E-008  0.1282833E+03  0.7546771E-02  0.1122299E+00
        -11   -1    0    0    0    0  0.00000000000E+00  0.00000000000E+00  0.18250000000E+03  0.18250000000E+03  0.00000000000E+00 0.  1.
         11   -1    0    0    0    0 -0.00000000000E+00 -0.00000000000E+00 -0.18250000000E+03  0.18250000000E+03  0.00000000000E+00 0.  1.
         23    2    1    2    0    0 -0.20229283393E+02 -0.18395235507E+02 -0.79119588702E+02  0.12236252931E+03  0.89247244586E+02 0.  0.
        -11    1    1    2    0    0 -0.87206542931E+02  0.60771192720E+02  0.68954815665E+02  0.12669998263E+03  0.00000000000E+00 0.  1.
         11    1    1    2    0    0  0.10743582632E+03 -0.42375957213E+02  0.10164773037E+02  0.11593748806E+03  0.00000000000E+00 0.  1.
        -15    1    3    3    0    0 -0.44913350851E+02  0.18027806726E+02 -0.33044174953E+02  0.58628373057E+02  0.17770000000E+01 0. -1.
         15    1    3    3    0    0  0.24684067458E+02 -0.36423042233E+02 -0.46075413750E+02  0.63734156251E+02  0.17770000000E+01 0.  1.
</event>
<event>
 7    1  0.9281110E-008  0.1836424E+03  0.7546771E-02  0.1067549E+00
        -11   -1    0    0    0    0  0.00000000000E+00  0.00000000000E+00  0.18250000000E+03  0.18250000000E+03  0.00000000000E+00 0. -1.
         11   -1    0    0    0    0 -0.00000000000E+00 -0.00000000000E+00 -0.18250000000E+03  0.18250000000E+03  0.00000000000E+00 0.  1.
         23    2    1    2    0    0  0.37972735598E+02 -0.82700590951E+02 -0.12474125267E+03  0.17896461931E+03  0.90480044525E+02 0.  0.
        -11    1    1    2    0    0 -0.58138872157E+02  0.83149481289E+02  0.13027134507E+03  0.16511992018E+03  0.00000000000E+00 0. -1.
         11    1    1    2    0    0  0.20166136558E+02 -0.44889033805E+00 -0.55300924004E+01  0.20915460506E+02  0.00000000000E+00 0.  1.
        -15    1    3    3    0    0  0.14832843129E+02 -0.94009944463E+02 -0.11922740857E+03  0.15256544686E+03  0.17770000000E+01 0.  1.
         15    1    3    3    0    0  0.23139892469E+02  0.11309353512E+02 -0.55138440944E+01  0.26399172450E+02  0.17770000000E+01 0. -1.
</event>
<event>
 7    1  0.9281110E-008  0.1463894E+03  0.7546771E-02  0.1101495E+00
        -11   -1    0    0    0    0  0.00000000000E+00  0.00000000000E+00  0.18250000000E+03  0.18250000000E+03  0.00000000000E+00 0. -1.
         11   -1    0    0    0    0 -0.00000000000E+00 -0.00000000000E+00 -0.18250000000E+03  0.18250000000E+03  0.00000000000E+00 0. -1.
         23    2    1    2    0    0 -0.40965769857E+02  0.59273130231E+02  0.29518049462E+01  0.11653347067E+03  0.91541457098E+02 0.  0.
        -11    1    1    2    0    0  0.81508527594E+02 -0.13150976260E+03 -0.36709437733E+02  0.15901584999E+03  0.00000000000E+00 0. -1.
         11    1    1    2    0    0 -0.40542757737E+02  0.72236632373E+02  0.33757632787E+02  0.89450679332E+02  0.00000000000E+00 0. -1.
        -15    1    3    3    0    0 -0.13540283923E+02  0.18452424988E+02  0.45833498585E+02  0.51261082687E+02  0.17770000000E+01 0.  1.
         15    1    3    3    0    0 -0.27425485934E+02  0.40820705243E+02 -0.42881693639E+02  0.65272387987E+02  0.17770000000E+01 0. -1.
</event>
<event>
 7    1  0.9281110E-008  0.1485492E+03  0.7546771E-02  0.1099236E+00
        -11   -1    0    0    0    0  0.00000000000E+00  0.00000000000E+00  0.18250000000E+03  0.18250000000E+03  0.00000000000E+00 0. -1.
         11   -1    0    0    0    0 -0.00000000000E+00 -0.00000000000E+00 -0.18250000000E+03  0.18250000000E+03  0.00000000000E+00 0. -1.
         23    2    1    2    0    0 -0.36883804962E+02  0.23070152630E+02 -0.12243252375E+03  0.15766050233E+03  0.89299855055E+02 0.  0.
        -11    1    1    2    0    0  0.49495386677E+02 -0.88040063870E+02  0.69650021374E+02  0.12268647695E+03  0.00000000000E+00 0. -1.
         11    1    1    2    0    0 -0.12611581715E+02  0.64969911239E+02  0.52782502377E+02  0.84653020720E+02  0.00000000000E+00 0. -1.
        -15    1    3    3    0    0 -0.25519952536E+02 -0.33192540180E+02 -0.51461258487E+02  0.66365891504E+02  0.17770000000E+01 0.  1.
         15    1    3    3    0    0 -0.11363852426E+02  0.56262692810E+02 -0.70971265263E+02  0.91294610828E+02  0.17770000000E+01 0. -1.
</event>
<event>
 7    1  0.9281110E-008  0.1351353E+03  0.7546771E-02  0.1114005E+00
        -11   -1    0    0    0    0  0.00000000000E+00  0.00000000000E+00  0.18250000000E+03  0.18250000000E+03  0.00000000000E+00 0.  1.
         11   -1    0    0    0    0 -0.00000000000E+00 -0.00000000000E+00 -0.18250000000E+03  0.18250000000E+03  0.00000000000E+00 0. -1.
         23    2    1    2    0    0 -0.34139152253E+02  0.44490673000E+02  0.45224291690E+02  0.11595468303E+03  0.90858958041E+02 0.  0.
        -11    1    1    2    0    0  0.12960857271E+03 -0.58750840183E+02  0.34047570873E+00  0.14230305431E+03  0.00000000000E+00 0.  1.
         11    1    1    2    0    0 -0.95469420457E+02  0.14260167183E+02 -0.45564767399E+02  0.10674226266E+03  0.00000000000E+00 0. -1.
        -15    1    3    3    0    0 -0.13728508633E+02 -0.18524882579E+02  0.43969727400E+02  0.49680357089E+02  0.17770000000E+01 0.  1.
         15    1    3    3    0    0 -0.20410643620E+02  0.63015555579E+02  0.12545642901E+01  0.66274325937E+02  0.17770000000E+01 0. -1.
</event>
<event>
 7    1  0.9281110E-008  0.1723861E+03  0.7546771E-02  0.1076803E+00
        -11   -1    0    0    0    0  0.00000000000E+00  0.00000000000E+00  0.18250000000E+03  0.18250000000E+03  0.00000000000E+00 0.  1.
         11   -1    0    0    0    0 -0.00000000000E+00 -0.00000000000E+00 -0.18250000000E+03  0.18250000000E+03  0.00000000000E+00 0.  1.
         23    2    1    2    0    0  0.34828040397E+01  0.67551986952E+01  0.13451237107E+03  0.16479081054E+03  0.94892943018E+02 0.  0.
        -11    1    1    2    0    0 -0.47001362820E+02 -0.10452627248E+02 -0.14708065370E+03  0.15476144293E+03  0.00000000000E+00 0.  1.
         11    1    1    2    0    0  0.43518558780E+02  0.36974285529E+01  0.12568282633E+02  0.45447746529E+02  0.00000000000E+00 0.  1.
        -15    1    3    3    0    0  0.33109462854E+02 -0.10928218295E+02  0.11099858487E+02  0.36633687680E+02  0.17770000000E+01 0.  1.
         15    1    3    3    0    0 -0.29626658815E+02  0.17683416990E+02  0.12341251258E+03  0.12815712286E+03  0.17770000000E+01 0. -1.
</event>
<event>
 7    1  0.9281110E-008  0.1637221E+03  0.7546771E-02  0.1084469E+00
        -11   -1    0    0    0    0  0.00000000000E+00  0.00000000000E+00  0.18250000000E+03  0.18250000000E+03  0.00000000000E+00 0.  1.
         11   -1    0    0    0    0 -0.00000000000E+00 -0.00000000000E+00 -0.18250000000E+03  0.18250000000E+03  0.00000000000E+00 0.  1.
         23    2    1    2    0    0 -0.10335492532E+03 -0.67328754962E+02  0.75251472076E+02  0.17159357457E+03  0.92553600422E+02 0.  0.
        -11    1    1    2    0    0 -0.35812015701E+01 -0.10427191201E+02 -0.59200959004E+02  0.60218808258E+02  0.00000000000E+00 0.  1.
         11    1    1    2    0    0  0.10693612689E+03  0.77755946163E+02 -0.16050513072E+02  0.13318761717E+03  0.00000000000E+00 0.  1.
        -15    1    3    3    0    0 -0.11822939371E+03 -0.54120887692E+02  0.77680550057E+02  0.15147503296E+03  0.17770000000E+01 0.  1.
         15    1    3    3    0    0  0.14874468393E+02 -0.13207867270E+02 -0.24290779818E+01  0.20118541613E+02  0.17770000000E+01 0. -1.
</event>
<event>
 7    1  0.9281110E-008  0.1442434E+03  0.7546771E-02  0.1103783E+00
        -11   -1    0    0    0    0  0.00000000000E+00  0.00000000000E+00  0.18250000000E+03  0.18250000000E+03  0.00000000000E+00 0. -1.
         11   -1    0    0    0    0 -0.00000000000E+00 -0.00000000000E+00 -0.18250000000E+03  0.18250000000E+03  0.00000000000E+00 0. -1.
         23    2    1    2    0    0 -0.61025065857E+02 -0.57466562420E+02  0.82484968494E+02  0.14862949477E+03  0.90887250092E+02 0.  0.
        -11    1    1    2    0    0 -0.24655454602E+02  0.41970039461E+02 -0.11385292877E+03  0.12382190858E+03  0.00000000000E+00 0. -1.
         11    1    1    2    0    0  0.85680520459E+02  0.15496522959E+02  0.31367960278E+02  0.92548596650E+02  0.00000000000E+00 0. -1.
        -15    1    3    3    0    0 -0.65796252043E+02 -0.75172404941E+02  0.83449851431E+02  0.13018092287E+03  0.17770000000E+01 0.  1.
         15    1    3    3    0    0  0.47711861862E+01  0.17705842520E+02 -0.96488293692E+00  0.18448571897E+02  0.17770000000E+01 0. -1.
</event>
<event>
 7    1  0.9281110E-008  0.1511730E+03  0.7546771E-02  0.1096547E+00
        -11   -1    0    0    0    0  0.00000000000E+00  0.00000000000E+00  0.18250000000E+03  0.18250000000E+03  0.00000000000E+00 0. -1.
         11   -1    0    0    0    0 -0.00000000000E+00 -0.00000000000E+00 -0.18250000000E+03  0.18250000000E+03  0.00000000000E+00 0.  1.
         23    2    1    2    0    0  0.22491883412E+01  0.24152438917E+02  0.95842138039E+02  0.13294718302E+03  0.88886663203E+02 0.  0.
        -11    1    1    2    0    0 -0.59047694920E+02  0.47717378614E+02  0.25436756957E+02  0.80066266939E+02  0.00000000000E+00 0. -1.
         11    1    1    2    0    0  0.56798506578E+02 -0.71869817531E+02 -0.12127889500E+03  0.15198655004E+03  0.00000000000E+00 0.  1.
        -15    1    3    3    0    0  0.22728623982E+02  0.31988807053E+02  0.10265747341E+03  0.10991628041E+03  0.17770000000E+01 0. -1.
         15    1    3    3    0    0 -0.20479435641E+02 -0.78363681359E+01 -0.68153353673E+01  0.23030902607E+02  0.17770000000E+01 0.  1.
</event>
<event>
 7    1  0.9281110E-008  0.1400558E+03  0.7546771E-02  0.1108376E+00
        -11   -1    0    0    0    0  0.00000000000E+00  0.00000000000E+00  0.18250000000E+03  0.18250000000E+03  0.00000000000E+00 0.  1.
         11   -1    0    0    0    0 -0.00000000000E+00 -0.00000000000E+00 -0.18250000000E+03  0.18250000000E+03  0.00000000000E+00 0. -1.
         23    2    1    2    0    0 -0.83110125909E+02 -0.81724680224E+02 -0.14242399823E+02  0.14623698872E+03  0.87156150272E+02 0.  0.
        -11    1    1    2    0    0  0.67335851992E+02 -0.48376994293E+01 -0.69786729997E+02  0.97096385015E+02  0.00000000000E+00 0. -1.
         11    1    1    2    0    0  0.15774273917E+02  0.86562379653E+02  0.84029129820E+02  0.12166662627E+03  0.00000000000E+00 0.  1.
        -15    1    3    3    0    0 -0.95151889100E+02 -0.48644556278E+02 -0.24247686875E+02  0.10959599857E+03  0.17770000000E+01 0. -1.
         15    1    3    3    0    0  0.12041763191E+02 -0.33080123946E+02  0.10005287052E+02  0.36640990148E+02  0.17770000000E+01 0.  1.
</event>
<event>
 7    1  0.1441167E-007  0.1341151E+03  0.7546771E-02  0.1115205E+00
        -11   -1    0    0    0    0  0.00000000000E+00  0.00000000000E+00  0.18250000000E+03  0.18250000000E+03  0.00000000000E+00 0. -1.
         11   -1    0    0    0    0 -0.00000000000E+00 -0.00000000000E+00 -0.18250000000E+03  0.18250000000E+03  0.00000000000E+00 0.  1.
         23    2    1    2    0    0 -0.28663278447E+02  0.13489146769E+02  0.22376108911E+02  0.93980313570E+02  0.85604138199E+02 0.  0.
        -11    1    1    2    0    0 -0.10510979432E+03 -0.67155729923E+02 -0.23252946941E+02  0.12688049679E+03  0.00000000000E+00 0. -1.
         11    1    1    2    0    0  0.13377307277E+03  0.53666583154E+02  0.87683803020E+00  0.14413918964E+03  0.00000000000E+00 0.  1.
        -15    1    3    3    0    0 -0.86868473945E+01 -0.64527365349E+00 -0.32593136042E+02  0.33783841431E+02  0.17770000000E+01 0.  1.
         15    1    3    3    0    0 -0.19976431053E+02  0.14134420422E+02  0.54969244953E+02  0.60196472139E+02  0.17770000000E+01 0. -1.
</event>
<event>
 7    1  0.9281110E-008  0.1315132E+03  0.7546771E-02  0.1118320E+00
        -11   -1    0    0    0    0  0.00000000000E+00  0.00000000000E+00  0.18250000000E+03  0.18250000000E+03  0.00000000000E+00 0. -1.
         11   -1    0    0    0    0 -0.00000000000E+00 -0.00000000000E+00 -0.18250000000E+03  0.18250000000E+03  0.00000000000E+00 0. -1.
         23    2    1    2    0    0  0.25336879019E+02  0.19063197871E+02 -0.83644731421E+02  0.12895311224E+03  0.92882189409E+02 0.  0.
        -11    1    1    2    0    0  0.96744380142E+01  0.88780723346E+02  0.84084345005E+02  0.12266127614E+03  0.00000000000E+00 0. -1.
         11    1    1    2    0    0 -0.35011317033E+02 -0.10784392122E+03 -0.43961358394E+00  0.11338561163E+03  0.00000000000E+00 0. -1.
        -15    1    3    3    0    0 -0.20856876829E+02  0.27658923099E+02 -0.20099366017E+01  0.34745113501E+02  0.17770000000E+01 0.  1.
         15    1    3    3    0    0  0.46193755847E+02 -0.85957252275E+01 -0.81634794820E+02  0.94207998735E+02  0.17770000000E+01 0. -1.
</event>
<event>
 7    1  0.9281110E-008  0.1545917E+03  0.7546771E-02  0.1093133E+00
        -11   -1    0    0    0    0  0.00000000000E+00  0.00000000000E+00  0.18250000000E+03  0.18250000000E+03  0.00000000000E+00 0. -1.
         11   -1    0    0    0    0 -0.00000000000E+00 -0.00000000000E+00 -0.18250000000E+03  0.18250000000E+03  0.00000000000E+00 0. -1.
         23    2    1    2    0    0  0.13871206354E+02 -0.10887193195E+03 -0.21501386472E+02  0.15255917806E+03  0.10376167529E+03 0.  0.
        -11    1    1    2    0    0 -0.38617315972E+02  0.21599646510E+02 -0.70502547361E+02  0.83237317392E+02  0.00000000000E+00 0. -1.
         11    1    1    2    0    0  0.24746109618E+02  0.87272285436E+02  0.92003933833E+02  0.12920350455E+03  0.00000000000E+00 0. -1.
        -15    1    3    3    0    0 -0.90112414343E+01  0.42452682569E+01 -0.34923030660E+02  0.36359325822E+02  0.17770000000E+01 0.  1.
         15    1    3    3    0    0  0.22882447788E+02 -0.11311720020E+03  0.13421644188E+02  0.11619985224E+03  0.17770000000E+01 0. -1.
</event>
<event>
 7    1  0.1011474E-007  0.1691701E+03  0.7546771E-02  0.1079590E+00
        -11   -1    0    0    0    0  0.00000000000E+00  0.00000000000E+00  0.18250000000E+03  0.18250000000E+03  0.00000000000E+00 0.  1.
         11   -1    0    0    0    0 -0.00000000000E+00 -0.00000000000E+00 -0.18250000000E+03  0.18250000000E+03  0.00000000000E+00 0. -1.
         23    2    1    2    0    0 -0.15836121092E+02  0.47184998250E+00  0.14506908252E+03  0.17151622019E+03  0.90120861688E+02 0.  0.
        -11    1    1    2    0    0 -0.46087619089E+02 -0.72034797440E+01 -0.14550732264E+02  0.48863918827E+02  0.00000000000E+00 0.  1.
         11    1    1    2    0    0  0.61923740181E+02  0.67316297615E+01 -0.13051835026E+03  0.14461986098E+03  0.00000000000E+00 0. -1.
        -15    1    3    3    0    0 -0.29539538779E+02  0.62349594095E+01  0.50047132058E+01  0.30653938628E+02  0.17770000000E+01 0. -1.
         15    1    3    3    0    0  0.13703417687E+02 -0.57631094270E+01  0.14006436931E+03  0.14086228156E+03  0.17770000000E+01 0.  1.
</event>
<event>
 7    1  0.9281110E-008  0.1262520E+03  0.7546771E-02  0.1124869E+00
        -11   -1    0    0    0    0  0.00000000000E+00  0.00000000000E+00  0.18250000000E+03  0.18250000000E+03  0.00000000000E+00 0.  1.
         11   -1    0    0    0    0 -0.00000000000E+00 -0.00000000000E+00 -0.18250000000E+03  0.18250000000E+03  0.00000000000E+00 0. -1.
         23    2    1    2    0    0 -0.31179958219E+02 -0.12113131052E+02  0.75329613448E+02  0.12256449361E+03  0.90711557660E+02 0.  0.
        -11    1    1    2    0    0  0.83366139303E+02  0.85565245036E+02  0.79680509003E+01  0.11972808432E+03  0.00000000000E+00 0.  1.
         11    1    1    2    0    0 -0.52186181084E+02 -0.73452113984E+02 -0.83297664348E+02  0.12270742207E+03  0.00000000000E+00 0. -1.
        -15    1    3    3    0    0  0.30346728992E+01 -0.45812039393E+02  0.51189393763E+02  0.68785637714E+02  0.17770000000E+01 0.  1.
         15    1    3    3    0    0 -0.34214631118E+02  0.33698908341E+02  0.24140219685E+02  0.53778855895E+02  0.17770000000E+01 0. -1.
</event>
<event>
 7    1  0.9281110E-008  0.1832471E+03  0.7546771E-02  0.1067862E+00
        -11   -1    0    0    0    0  0.00000000000E+00  0.00000000000E+00  0.18250000000E+03  0.18250000000E+03  0.00000000000E+00 0.  1.
         11   -1    0    0    0    0 -0.00000000000E+00 -0.00000000000E+00 -0.18250000000E+03  0.18250000000E+03  0.00000000000E+00 0. -1.
         23    2    1    2    0    0 -0.13246672301E+03  0.12307613974E+02 -0.22883313796E+02  0.17680264505E+03  0.11417801532E+03 0.  0.
        -11    1    1    2    0    0  0.15164374606E+03  0.65726969482E+01 -0.16302791832E+01  0.15179487434E+03  0.00000000000E+00 0. -1.
         11    1    1    2    0    0 -0.19177023056E+02 -0.18880310922E+02  0.24513592979E+02  0.36402480609E+02  0.00000000000E+00 0.  1.
        -15    1    3    3    0    0 -0.13251056955E+03  0.46582859008E+02 -0.12918546970E+02  0.14106402936E+03  0.17770000000E+01 0.  1.
         15    1    3    3    0    0  0.43846539608E-01 -0.34275245034E+02 -0.99647668253E+01  0.35738615692E+02  0.17770000000E+01 0. -1.
</event>
<event>
 7    1  0.9281110E-008  0.1900410E+03  0.7546771E-02  0.1062606E+00
        -11   -1    0    0    0    0  0.00000000000E+00  0.00000000000E+00  0.18250000000E+03  0.18250000000E+03  0.00000000000E+00 0.  1.
         11   -1    0    0    0    0 -0.00000000000E+00 -0.00000000000E+00 -0.18250000000E+03  0.18250000000E+03  0.00000000000E+00 0. -1.
         23    2    1    2    0    0 -0.15134534538E+03 -0.40330481985E+01 -0.71838936408E+02  0.19004102516E+03  0.89627447883E+02 0.  0.
        -11    1    1    2    0    0  0.13842358479E+03  0.12496603397E+02  0.76725269692E+02  0.15875774290E+03  0.00000000000E+00 0.  1.
         11    1    1    2    0    0  0.12921760593E+02 -0.84635551981E+01 -0.48863332844E+01  0.16201231941E+02  0.00000000000E+00 0. -1.
        -15    1    3    3    0    0 -0.15304814703E+03  0.15145641744E+02 -0.73819975778E+02  0.17060384616E+03  0.17770000000E+01 0. -1.
         15    1    3    3    0    0  0.17028016497E+01 -0.19178689942E+02  0.19810393706E+01  0.19437178997E+02  0.17770000000E+01 0.  1.
</event>
<event>
 7    1  0.9281110E-008  0.1853985E+03  0.7546771E-02  0.1066171E+00
        -11   -1    0    0    0    0  0.00000000000E+00  0.00000000000E+00  0.18250000000E+03  0.18250000000E+03  0.00000000000E+00 0. -1.
         11   -1    0    0    0    0 -0.00000000000E+00 -0.00000000000E+00 -0.18250000000E+03  0.18250000000E+03  0.00000000000E+00 0.  1.
         23    2    1    2    0    0 -0.37570328891E+02  0.84553478729E+02  0.13337660197E+03  0.18789632149E+03  0.94630276857E+02 0.  0.
        -11    1    1    2    0    0  0.19249247974E+02 -0.37295515553E+01  0.54349661170E+00  0.19614751870E+02  0.00000000000E+00 0. -1.
         11    1    1    2    0    0  0.18321080917E+02 -0.80823927174E+02 -0.13392009858E+03  0.15748892664E+03  0.00000000000E+00 0.  1.
        -15    1    3    3    0    0 -0.63311217724E+02  0.73226174744E+02  0.12575107181E+03  0.15870372632E+03  0.17770000000E+01 0. -1.
         15    1    3    3    0    0  0.25740888832E+02  0.11327303985E+02  0.76255301569E+01  0.29192595168E+02  0.17770000000E+01 0.  1.
</event>
<event>
 7    1  0.9281110E-008  0.2111738E+03  0.7546771E-02  0.1047676E+00
        -11   -1    0    0    0    0  0.00000000000E+00  0.00000000000E+00  0.18250000000E+03  0.18250000000E+03  0.00000000000E+00 0. -1.
         11   -1    0    0    0    0 -0.00000000000E+00 -0.00000000000E+00 -0.18250000000E+03  0.18250000000E+03  0.00000000000E+00 0. -1.
         23    2    1    2    0    0  0.25606611399E+01  0.62627356286E+02 -0.23542812621E+02  0.11282565223E+03  0.90810908129E+02 0.  0.
        -11    1    1    2    0    0 -0.61742976650E+02 -0.14035828173E+03  0.12241899488E+02  0.15382622182E+03  0.00000000000E+00 0. -1.
         11    1    1    2    0    0  0.59182315511E+02  0.77730925444E+02  0.11300913133E+02  0.98348125947E+02  0.00000000000E+00 0. -1.
        -15    1    3    3    0    0 -0.18831251826E+02  0.18366387849E+02  0.30119379902E+02  0.40028427681E+02  0.17770000000E+01 0.  1.
         15    1    3    3    0    0  0.21391912966E+02  0.44260968437E+02 -0.53662192523E+02  0.72797224554E+02  0.17770000000E+01 0. -1.
</event>
<event>
 7    1  0.9281110E-008  0.1456504E+03  0.7546771E-02  0.1102278E+00
        -11   -1    0    0    0    0  0.00000000000E+00  0.00000000000E+00  0.18250000000E+03  0.18250000000E+03  0.00000000000E+00 0. -1.
         11   -1    0    0    0    0 -0.00000000000E+00 -0.00000000000E+00 -0.18250000000E+03  0.18250000000E+03  0.00000000000E+00 0.  1.
         23    2    1    2    0    0  0.43245400553E+02  0.44325222693E+02  0.52978237723E+02  0.12327004392E+03  0.92487404662E+02 0.  0.
        -11    1    1    2    0    0 -0.58105003022E+02 -0.15019029875E+02 -0.13805116865E+03  0.15053201586E+03  0.00000000000E+00 0.  1.
         11    1    1    2    0    0  0.14859602468E+02 -0.29306192818E+02  0.85072930925E+02  0.91197940213E+02  0.00000000000E+00 0. -1.
        -15    1    3    3    0    0 -0.56159227669E+01 -0.22706872897E+02 -0.23026358649E+01  0.23571179992E+02  0.17770000000E+01 0.  1.
         15    1    3    3    0    0  0.48861323320E+02  0.67032095590E+02  0.55280873588E+02  0.99698863933E+02  0.17770000000E+01 0. -1.
</event>
<event>
 7    1  0.9281110E-008  0.1452857E+03  0.7546771E-02  0.1102666E+00
        -11   -1    0    0    0    0  0.00000000000E+00  0.00000000000E+00  0.18250000000E+03  0.18250000000E+03  0.00000000000E+00 0. -1.
         11   -1    0    0    0    0 -0.00000000000E+00 -0.00000000000E+00 -0.18250000000E+03  0.18250000000E+03  0.00000000000E+00 0. -1.
         23    2    1    2    0    0  0.85242856379E+02 -0.43150784311E+01 -0.57494629662E+02  0.13775610851E+03  0.91575916733E+02 0.  0.
        -11    1    1    2    0    0 -0.12992097562E+03  0.37258480064E+02 -0.14944369348E+02  0.13598157382E+03  0.00000000000E+00 0. -1.
         11    1    1    2    0    0  0.44678119240E+02 -0.32943401633E+02  0.72438999010E+02  0.91262317676E+02  0.00000000000E+00 0. -1.
        -15    1    3    3    0    0  0.58809951175E+02  0.29668531805E+02 -0.66628403812E+02  0.93708772589E+02  0.17770000000E+01 0. -1.
         15    1    3    3    0    0  0.26432905204E+02 -0.33983610236E+02  0.91337741504E+01  0.44047335918E+02  0.17770000000E+01 0.  1.
</event>
<event>
 7    1  0.9281110E-008  0.1791444E+03  0.7546771E-02  0.1071158E+00
        -11   -1    0    0    0    0  0.00000000000E+00  0.00000000000E+00  0.18250000000E+03  0.18250000000E+03  0.00000000000E+00 0. -1.
         11   -1    0    0    0    0 -0.00000000000E+00 -0.00000000000E+00 -0.18250000000E+03  0.18250000000E+03  0.00000000000E+00 0. -1.
         23    2    1    2    0    0  0.86628629855E+01  0.28395524839E+02  0.14897127003E+03  0.17732139830E+03  0.91482719537E+02 0.  0.
        -11    1    1    2    0    0 -0.27347091291E+02  0.13293441415E+02  0.14813122616E+01  0.30442951117E+02  0.00000000000E+00 0. -1.
         11    1    1    2    0    0  0.18684228305E+02 -0.41688966254E+02 -0.15045258230E+03  0.15723565058E+03  0.00000000000E+00 0. -1.
        -15    1    3    3    0    0 -0.40157856062E+02  0.26578588110E+01  0.73368730484E+02  0.83700931648E+02  0.17770000000E+01 0.  1.
         15    1    3    3    0    0  0.48820719047E+02  0.25737666028E+02  0.75602539550E+02  0.93620466653E+02  0.17770000000E+01 0. -1.
</event>
<event>
 7    1  0.9281110E-008  0.1619132E+03  0.7546771E-02  0.1086136E+00
        -11   -1    0    0    0    0  0.00000000000E+00  0.00000000000E+00  0.18250000000E+03  0.18250000000E+03  0.00000000000E+00 0. -1.
         11   -1    0    0    0    0 -0.00000000000E+00 -0.00000000000E+00 -0.18250000000E+03  0.18250000000E+03  0.00000000000E+00 0. -1.
         23    2    1    2    0    0  0.30221610238E+02  0.26953047804E+02 -0.11298693453E+03  0.15081129880E+03  0.91313678926E+02 0.  0.
        -11    1    1    2    0    0 -0.51475405936E+02  0.21350742039E+02 -0.28921338706E+02  0.62785471523E+02  0.00000000000E+00 0. -1.
         11    1    1    2    0    0  0.21253795698E+02 -0.48303789842E+02  0.14190827324E+03  0.15140322968E+03  0.00000000000E+00 0. -1.
        -15    1    3    3    0    0  0.32378561140E+02 -0.27665148425E+02 -0.66733583232E+02  0.79184976598E+02  0.17770000000E+01 0. -1.
         15    1    3    3    0    0 -0.21569509017E+01  0.54618196228E+02 -0.46253351298E+02  0.71626322199E+02  0.17770000000E+01 0.  1.
</event>
<event>
 7    1  0.9281110E-008  0.1695365E+03  0.7546771E-02  0.1079269E+00
        -11   -1    0    0    0    0  0.00000000000E+00  0.00000000000E+00  0.18250000000E+03  0.18250000000E+03  0.00000000000E+00 0.  1.
         11   -1    0    0    0    0 -0.00000000000E+00 -0.00000000000E+00 -0.18250000000E+03  0.18250000000E+03  0.00000000000E+00 0. -1.
         23    2    1    2    0    0  0.79736852753E+02  0.15649802110E+02 -0.11146397795E+03  0.16567287319E+03  0.91762740465E+02 0.  0.
        -11    1    1    2    0    0 -0.25352825137E+02 -0.31599906304E+02 -0.27691699966E+02  0.49072905639E+02  0.00000000000E+00 0. -1.
         11    1    1    2    0    0 -0.54384027616E+02  0.15950104195E+02  0.13915567792E+03  0.15025422117E+03  0.00000000000E+00 0.  1.
        -15    1    3    3    0    0 -0.14010367508E+02  0.24388096593E+02 -0.29933409426E+02  0.41112484503E+02  0.17770000000E+01 0.  1.
         15    1    3    3    0    0  0.93747220261E+02 -0.87382944831E+01 -0.81530568523E+02  0.12456038869E+03  0.17770000000E+01 0. -1.
</event>
<event>
 7    1  0.9281110E-008  0.1898685E+03  0.7546771E-02  0.1062736E+00
        -11   -1    0    0    0    0  0.00000000000E+00  0.00000000000E+00  0.18250000000E+03  0.18250000000E+03  0.00000000000E+00 0. -1.
         11   -1    0    0    0    0 -0.00000000000E+00 -0.00000000000E+00 -0.18250000000E+03  0.18250000000E+03  0.00000000000E+00 0.  1.
         23    2    1    2    0    0  0.88800083539E+02 -0.30007171079E+02  0.13317567813E+03  0.18986852229E+03  0.97613571579E+02 0.  0.
        -11    1    1    2    0    0 -0.11750780216E+02  0.28109072103E+02 -0.14786418375E+02  0.33865010535E+02  0.00000000000E+00 0. -1.
         11    1    1    2    0    0 -0.77049303323E+02  0.18980989764E+01 -0.11838925976E+03  0.14126646718E+03  0.00000000000E+00 0.  1.
        -15    1    3    3    0    0  0.69550238423E+02 -0.29523076142E+02  0.14754563338E+03  0.16577611212E+03  0.17770000000E+01 0. -1.
         15    1    3    3    0    0  0.19249845116E+02 -0.48409493748E+00 -0.14369955249E+02  0.24092410169E+02  0.17770000000E+01 0.  1.
</event>
<event>
 7    1  0.9281110E-008  0.1508676E+03  0.7546771E-02  0.1096857E+00
        -11   -1    0    0    0    0  0.00000000000E+00  0.00000000000E+00  0.18250000000E+03  0.18250000000E+03  0.00000000000E+00 0.  1.
         11   -1    0    0    0    0 -0.00000000000E+00 -0.00000000000E+00 -0.18250000000E+03  0.18250000000E+03  0.00000000000E+00 0.  1.
         23    2    1    2    0    0  0.42252636604E+02 -0.24819789501E+01 -0.89488923439E+02  0.13294339495E+03  0.88736876906E+02 0.  0.
        -11    1    1    2    0    0  0.28981826895E+02 -0.71891574737E+02 -0.21708434092E+02  0.80495968340E+02  0.00000000000E+00 0.  1.
         11    1    1    2    0    0 -0.71234463499E+02  0.74373553687E+02  0.11119735753E+03  0.15156063671E+03  0.00000000000E+00 0.  1.
        -15    1    3    3    0    0  0.70197695406E+02 -0.12955749412E+01 -0.61926449578E+02  0.93634597458E+02  0.17770000000E+01 0.  1.
         15    1    3    3    0    0 -0.27945058802E+02 -0.11864040089E+01 -0.27562473861E+02  0.39308797492E+02  0.17770000000E+01 0. -1.
</event>
<event>
 7    1  0.9281110E-008  0.1757791E+03  0.7546771E-02  0.1073934E+00
        -11   -1    0    0    0    0  0.00000000000E+00  0.00000000000E+00  0.18250000000E+03  0.18250000000E+03  0.00000000000E+00 0. -1.
         11   -1    0    0    0    0 -0.00000000000E+00 -0.00000000000E+00 -0.18250000000E+03  0.18250000000E+03  0.00000000000E+00 0. -1.
         23    2    1    2    0    0  0.12026103179E+03  0.61667508080E+02  0.47162662874E+02  0.16979660911E+03  0.91328935047E+02 0.  0.
        -11    1    1    2    0    0 -0.93704206544E+01  0.23689066153E+02  0.26754910622E+02  0.36943225101E+02  0.00000000000E+00 0. -1.
         11    1    1    2    0    0 -0.11089061114E+03 -0.85356574233E+02 -0.73917573496E+02  0.15826016579E+03  0.00000000000E+00 0. -1.
        -15    1    3    3    0    0  0.13447280128E+03  0.46609863873E+02  0.41374899307E+02  0.14822433577E+03  0.17770000000E+01 0. -1.
         15    1    3    3    0    0 -0.14211769486E+02  0.15057644206E+02  0.57877635667E+01  0.21572273340E+02  0.17770000000E+01 0.  1.
</event>
<event>
 7    1  0.9281110E-008  0.1869873E+03  0.7546771E-02  0.1064938E+00
        -11   -1    0    0    0    0  0.00000000000E+00  0.00000000000E+00  0.18250000000E+03  0.18250000000E+03  0.00000000000E+00 0.  1.
         11   -1    0    0    0    0 -0.00000000000E+00 -0.00000000000E+00 -0.18250000000E+03  0.18250000000E+03  0.00000000000E+00 0. -1.
         23    2    1    2    0    0 -0.19002185109E+02  0.47544636154E+02 -0.15764994680E+03  0.18698726179E+03  0.86539903388E+02 0.  0.
        -11    1    1    2    0    0 -0.79083767942E+01 -0.53511278496E+02  0.11699287056E+03  0.12889271164E+03  0.00000000000E+00 0.  1.
         11    1    1    2    0    0  0.26910561903E+02  0.59666423425E+01  0.40657076237E+02  0.49120026577E+02  0.00000000000E+00 0. -1.
        -15    1    3    3    0    0  0.84989719161E+01 -0.13687641566E+02 -0.64063873665E+00  0.16221966659E+02  0.17770000000E+01 0.  1.
         15    1    3    3    0    0 -0.27501157025E+02  0.61232277720E+02 -0.15700930806E+03  0.17076529513E+03  0.17770000000E+01 0. -1.
</event>
<event>
 7    1  0.9281110E-008  0.1357552E+03  0.7546771E-02  0.1113281E+00
        -11   -1    0    0    0    0  0.00000000000E+00  0.00000000000E+00  0.18250000000E+03  0.18250000000E+03  0.00000000000E+00 0. -1.
         11   -1    0    0    0    0 -0.00000000000E+00 -0.00000000000E+00 -0.18250000000E+03  0.18250000000E+03  0.00000000000E+00 0.  1.
         23    2    1    2    0    0  0.82452480482E+01  0.15357630779E+02 -0.52034006574E+01  0.92880980758E+02  0.91082162192E+02 0.  0.
        -11    1    1    2    0    0 -0.58704369235E+02  0.62829531107E+02  0.10496870029E+03  0.13569149194E+03  0.00000000000E+00 0. -1.
         11    1    1    2    0    0  0.50459121187E+02 -0.78187161887E+02 -0.99765299628E+02  0.13642752730E+03  0.00000000000E+00 0.  1.
        -15    1    3    3    0    0  0.24315668649E+02  0.48032212173E+02  0.72614638267E+01  0.54352844764E+02  0.17770000000E+01 0. -1.
         15    1    3    3    0    0 -0.16070420600E+02 -0.32674581394E+02 -0.12464864484E+02  0.38528135994E+02  0.17770000000E+01 0.  1.
</event>
<event>
 7    1  0.9281110E-008  0.1436733E+03  0.7546771E-02  0.1104398E+00
        -11   -1    0    0    0    0  0.00000000000E+00  0.00000000000E+00  0.18250000000E+03  0.18250000000E+03  0.00000000000E+00 0. -1.
         11   -1    0    0    0    0 -0.00000000000E+00 -0.00000000000E+00 -0.18250000000E+03  0.18250000000E+03  0.00000000000E+00 0. -1.
         23    2    1    2    0    0  0.32709860054E+02  0.68040486734E+02 -0.42307425414E+02  0.12632595188E+03  0.92026545597E+02 0.  0.
        -11    1    1    2    0    0  0.30097802088E+02 -0.13750392430E+03  0.32911220516E+02  0.14455571702E+03  0.00000000000E+00 0. -1.
         11    1    1    2    0    0 -0.62807662141E+02  0.69463437563E+02  0.93962048988E+01  0.94118331096E+02  0.00000000000E+00 0. -1.
        -15    1    3    3    0    0  0.21626547896E+02  0.53109181029E+01  0.25074425454E+02  0.33582703373E+02  0.17770000000E+01 0.  1.
         15    1    3    3    0    0  0.11083312158E+02  0.62729568631E+02 -0.67381850868E+02  0.92743248511E+02  0.17770000000E+01 0. -1.
</event>
<event>
 7    1  0.9281110E-008  0.1616588E+03  0.7546771E-02  0.1086372E+00
        -11   -1    0    0    0    0  0.00000000000E+00  0.00000000000E+00  0.18250000000E+03  0.18250000000E+03  0.00000000000E+00 0.  1.
         11   -1    0    0    0    0 -0.00000000000E+00 -0.00000000000E+00 -0.18250000000E+03  0.18250000000E+03  0.00000000000E+00 0.  1.
         23    2    1    2    0    0 -0.16152834580E+02 -0.94741590543E+02  0.50194370924E+02  0.14106973382E+03  0.90245841359E+02 0.  0.
        -11    1    1    2    0    0 -0.16989790767E+02  0.14116046167E+03 -0.76125141805E+02  0.16127605571E+03  0.00000000000E+00 0.  1.
         11    1    1    2    0    0  0.33142625347E+02 -0.46418871130E+02  0.25930770881E+02  0.62654210476E+02  0.00000000000E+00 0.  1.
        -15    1    3    3    0    0 -0.28076478634E+02 -0.10928691086E+03  0.41080110440E+02  0.12009434100E+03  0.17770000000E+01 0.  1.
         15    1    3    3    0    0  0.11923644054E+02  0.14545320315E+02  0.91142604846E+01  0.20975392816E+02  0.17770000000E+01 0. -1.
</event>
<event>
 7    1  0.9281110E-008  0.1449955E+03  0.7546771E-02  0.1102976E+00
        -11   -1    0    0    0    0  0.00000000000E+00  0.00000000000E+00  0.18250000000E+03  0.18250000000E+03  0.00000000000E+00 0. -1.
         11   -1    0    0    0    0 -0.00000000000E+00 -0.00000000000E+00 -0.18250000000E+03  0.18250000000E+03  0.00000000000E+00 0.  1.
         23    2    1    2    0    0  0.36529579475E+01 -0.11126203658E+03  0.47895554279E+02  0.15582180650E+03  0.97948284186E+02 0.  0.
        -11    1    1    2    0    0 -0.40960567676E+02  0.69667308980E+02  0.51019068373E+02  0.95573256628E+02  0.00000000000E+00 0. -1.
         11    1    1    2    0    0  0.37307609728E+02  0.41594727600E+02 -0.98914622652E+02  0.11360493687E+03  0.00000000000E+00 0.  1.
        -15    1    3    3    0    0  0.19864988832E+02 -0.12460270273E+03  0.47239672765E+02  0.13474121760E+03  0.17770000000E+01 0. -1.
         15    1    3    3    0    0 -0.16212030885E+02  0.13340666149E+02  0.65588151394E+00  0.21080588897E+02  0.17770000000E+01 0.  1.
</event>
<event>
 7    1  0.9281110E-008  0.1367647E+03  0.7546771E-02  0.1112112E+00
        -11   -1    0    0    0    0  0.00000000000E+00  0.00000000000E+00  0.18250000000E+03  0.18250000000E+03  0.00000000000E+00 0.  1.
         11   -1    0    0    0    0 -0.00000000000E+00 -0.00000000000E+00 -0.18250000000E+03  0.18250000000E+03  0.00000000000E+00 0.  1.
         23    2    1    2    0    0 -0.20878492677E+02 -0.69325335378E+02 -0.93285331736E+02  0.14945544306E+03  0.91612568804E+02 0.  0.
        -11    1    1    2    0    0 -0.76956593829E+02  0.52660407812E+02  0.59921223803E+02  0.11084218036E+03  0.00000000000E+00 0.  1.
         11    1    1    2    0    0  0.97835086506E+02  0.16664927566E+02  0.33364107934E+02  0.10470237658E+03  0.00000000000E+00 0.  1.
        -15    1    3    3    0    0 -0.56540119315E+02 -0.52928522835E+02 -0.62756248834E+02  0.99698134979E+02  0.17770000000E+01 0.  1.
         15    1    3    3    0    0  0.35661626638E+02 -0.16396812542E+02 -0.30529082903E+02  0.49757308085E+02  0.17770000000E+01 0. -1.
</event>
<event>
 7    1  0.9281110E-008  0.1738436E+03  0.7546771E-02  0.1075562E+00
        -11   -1    0    0    0    0  0.00000000000E+00  0.00000000000E+00  0.18250000000E+03  0.18250000000E+03  0.00000000000E+00 0. -1.
         11   -1    0    0    0    0 -0.00000000000E+00 -0.00000000000E+00 -0.18250000000E+03  0.18250000000E+03  0.00000000000E+00 0.  1.
         23    2    1    2    0    0 -0.31675335174E+02  0.21159933951E+02 -0.12744511157E+03  0.16112782623E+03  0.90933218676E+02 0.  0.
        -11    1    1    2    0    0  0.66870121389E+02 -0.23017112786E+02  0.14731662557E+03  0.16341232752E+03  0.00000000000E+00 0. -1.
         11    1    1    2    0    0 -0.35194786215E+02  0.18571788352E+01 -0.19871513997E+02  0.40459846249E+02  0.00000000000E+00 0.  1.
        -15    1    3    3    0    0  0.29385419773E+02 -0.37499018440E+01 -0.22800991330E+02  0.37424692299E+02  0.17770000000E+01 0. -1.
         15    1    3    3    0    0 -0.61060754946E+02  0.24909835795E+02 -0.10464412024E+03  0.12370313393E+03  0.17770000000E+01 0.  1.
</event>
<event>
 7    1  0.9281110E-008  0.1511369E+03  0.7546771E-02  0.1096584E+00
        -11   -1    0    0    0    0  0.00000000000E+00  0.00000000000E+00  0.18250000000E+03  0.18250000000E+03  0.00000000000E+00 0. -1.
         11   -1    0    0    0    0 -0.00000000000E+00 -0.00000000000E+00 -0.18250000000E+03  0.18250000000E+03  0.00000000000E+00 0. -1.
         23    2    1    2    0    0 -0.15783263782E+02  0.15588393836E+02 -0.99890702432E+02  0.13541289353E+03  0.88692670859E+02 0.  0.
        -11    1    1    2    0    0  0.65379454310E+02  0.32478482476E+02 -0.32773237414E+02  0.80021309414E+02  0.00000000000E+00 0. -1.
         11    1    1    2    0    0 -0.49596190528E+02 -0.48066876312E+02  0.13266393985E+03  0.14956579706E+03  0.00000000000E+00 0. -1.
        -15    1    3    3    0    0 -0.47934653164E+02  0.26066248803E+02 -0.77573962652E+02  0.94858092492E+02  0.17770000000E+01 0.  1.
         15    1    3    3    0    0  0.32151389382E+02 -0.10477854967E+02 -0.22316739780E+02  0.40554801039E+02  0.17770000000E+01 0. -1.
</event>
<event>
 7    1  0.9281110E-008  0.1546941E+03  0.7546771E-02  0.1093032E+00
        -11   -1    0    0    0    0  0.00000000000E+00  0.00000000000E+00  0.18250000000E+03  0.18250000000E+03  0.00000000000E+00 0. -1.
         11   -1    0    0    0    0 -0.00000000000E+00 -0.00000000000E+00 -0.18250000000E+03  0.18250000000E+03  0.00000000000E+00 0.  1.
         23    2    1    2    0    0  0.22338886025E+02  0.32981911245E+02  0.81876300961E+02  0.12937023808E+03  0.91902652535E+02 0.  0.
        -11    1    1    2    0    0  0.76657851408E+01  0.61580281839E+02  0.43475376290E+02  0.75769411484E+02  0.00000000000E+00 0. -1.
         11    1    1    2    0    0 -0.30004671166E+02 -0.94562193084E+02 -0.12535167725E+03  0.15986035044E+03  0.00000000000E+00 0.  1.
        -15    1    3    3    0    0 -0.10578528313E+01 -0.88329137957E+01  0.80905032470E+02  0.81412047184E+02  0.17770000000E+01 0. -1.
         15    1    3    3    0    0  0.23396738856E+02  0.41814825041E+02  0.97126849142E+00  0.47958190894E+02  0.17770000000E+01 0.  1.
</event>
<event>
 7    1  0.9281110E-008  0.1202499E+03  0.7546771E-02  0.1132785E+00
        -11   -1    0    0    0    0  0.00000000000E+00  0.00000000000E+00  0.18250000000E+03  0.18250000000E+03  0.00000000000E+00 0. -1.
         11   -1    0    0    0    0 -0.00000000000E+00 -0.00000000000E+00 -0.18250000000E+03  0.18250000000E+03  0.00000000000E+00 0.  1.
         23    2    1    2    0    0  0.10807914405E+02  0.57957123895E+02 -0.35413397448E+02  0.11485978083E+03  0.91993593855E+02 0.  0.
        -11    1    1    2    0    0  0.11035812194E+03 -0.29891719510E+02  0.50239551376E+02  0.12488571774E+03  0.00000000000E+00 0. -1.
         11    1    1    2    0    0 -0.12116603635E+03 -0.28065404385E+02 -0.14826153927E+02  0.12525450142E+03  0.00000000000E+00 0.  1.
        -15    1    3    3    0    0  0.41518918116E+02  0.46308626190E+02  0.53836371590E+01  0.62453588361E+02  0.17770000000E+01 0. -1.
         15    1    3    3    0    0 -0.30711003711E+02  0.11648497705E+02 -0.40797034607E+02  0.52406192472E+02  0.17770000000E+01 0.  1.
</event>
<event>
 7    1  0.9281110E-008  0.1206998E+03  0.7546771E-02  0.1132174E+00
        -11   -1    0    0    0    0  0.00000000000E+00  0.00000000000E+00  0.18250000000E+03  0.18250000000E+03  0.00000000000E+00 0.  1.
         11   -1    0    0    0    0 -0.00000000000E+00 -0.00000000000E+00 -0.18250000000E+03  0.18250000000E+03  0.00000000000E+00 0. -1.
         23    2    1    2    0    0  0.71270295955E+02  0.50462173100E+02 -0.15666359667E+02  0.10781320769E+03  0.61256566411E+02 0.  0.
        -11    1    1    2    0    0 -0.10491113074E+01 -0.76460641050E+02  0.11172714291E+03  0.13538938188E+03  0.00000000000E+00 0.  1.
         11    1    1    2    0    0 -0.70221184648E+02  0.25998467950E+02 -0.96060783241E+02  0.12179741042E+03  0.00000000000E+00 0. -1.
        -15    1    3    3    0    0  0.40719090710E+02 -0.71923223800E+01 -0.54263492774E+01  0.41741787754E+02  0.17770000000E+01 0.  1.
         15    1    3    3    0    0  0.30551205246E+02  0.57654495480E+02 -0.10240010390E+02  0.66071419940E+02  0.17770000000E+01 0. -1.
</event>
<event>
 7    1  0.9281110E-008  0.1416954E+03  0.7546771E-02  0.1106557E+00
        -11   -1    0    0    0    0  0.00000000000E+00  0.00000000000E+00  0.18250000000E+03  0.18250000000E+03  0.00000000000E+00 0.  1.
         11   -1    0    0    0    0 -0.00000000000E+00 -0.00000000000E+00 -0.18250000000E+03  0.18250000000E+03  0.00000000000E+00 0. -1.
         23    2    1    2    0    0 -0.26717481899E+02 -0.11593656653E+03 -0.40756863205E+02  0.15347330026E+03  0.87964883316E+02 0.  0.
        -11    1    1    2    0    0 -0.28885294273E+02  0.61200570402E+02  0.94899181793E+02  0.11655781719E+03  0.00000000000E+00 0.  1.
         11    1    1    2    0    0  0.55602776172E+02  0.54735996131E+02 -0.54142318589E+02  0.94968882549E+02  0.00000000000E+00 0. -1.
        -15    1    3    3    0    0 -0.43443492816E+02 -0.83099459932E+02 -0.60520606821E+02  0.11161881064E+03  0.17770000000E+01 0. -1.
         15    1    3    3    0    0  0.16726010917E+02 -0.32837106600E+02  0.19763743616E+02  0.41854489625E+02  0.17770000000E+01 0.  1.
</event>
<event>
 7    1  0.9281110E-008  0.2133516E+03  0.7546771E-02  0.1046246E+00
        -11   -1    0    0    0    0  0.00000000000E+00  0.00000000000E+00  0.18250000000E+03  0.18250000000E+03  0.00000000000E+00 0. -1.
         11   -1    0    0    0    0 -0.00000000000E+00 -0.00000000000E+00 -0.18250000000E+03  0.18250000000E+03  0.00000000000E+00 0. -1.
         23    2    1    2    0    0 -0.87788896256E+01  0.38687594241E+01  0.21165435450E+02  0.74740404708E+02  0.71036020691E+02 0.  0.
        -11    1    1    2    0    0  0.11125965073E+03  0.75757659006E+02 -0.69852050238E+02  0.15164841476E+03  0.00000000000E+00 0. -1.
         11    1    1    2    0    0 -0.10248076110E+03 -0.79626418430E+02  0.48686614788E+02  0.13861118053E+03  0.00000000000E+00 0. -1.
        -15    1    3    3    0    0 -0.31342770730E+01  0.26101081940E+02 -0.16148957279E+02  0.30903668413E+02  0.17770000000E+01 0. -1.
         15    1    3    3    0    0 -0.56446125526E+01 -0.22232322515E+02  0.37314392729E+02  0.43836736295E+02  0.17770000000E+01 0.  1.
</event>
<event>
 7    1  0.9281110E-008  0.1537464E+03  0.7546771E-02  0.1093968E+00
        -11   -1    0    0    0    0  0.00000000000E+00  0.00000000000E+00  0.18250000000E+03  0.18250000000E+03  0.00000000000E+00 0.  1.
         11   -1    0    0    0    0 -0.00000000000E+00 -0.00000000000E+00 -0.18250000000E+03  0.18250000000E+03  0.00000000000E+00 0. -1.
         23    2    1    2    0    0 -0.46565974524E+02  0.10110552813E+02  0.90448694940E+02  0.13830098713E+03  0.93142811663E+02 0.  0.
        -11    1    1    2    0    0  0.24318078989E+02  0.64993363300E+02  0.35831002411E+02  0.78098444111E+02  0.00000000000E+00 0.  1.
         11    1    1    2    0    0  0.22247895535E+02 -0.75103916113E+02 -0.12627969735E+03  0.14860056876E+03  0.00000000000E+00 0. -1.
        -15    1    3    3    0    0 -0.72227201889E+02  0.70323574495E+01  0.43354780299E+02  0.84551862473E+02  0.17770000000E+01 0. -1.
         15    1    3    3    0    0  0.25661227365E+02  0.30781953636E+01  0.47093914641E+02  0.53749124661E+02  0.17770000000E+01 0.  1.
</event>
<event>
 7    1  0.9281110E-008  0.1597358E+03  0.7546771E-02  0.1088173E+00
        -11   -1    0    0    0    0  0.00000000000E+00  0.00000000000E+00  0.18250000000E+03  0.18250000000E+03  0.00000000000E+00 0. -1.
         11   -1    0    0    0    0 -0.00000000000E+00 -0.00000000000E+00 -0.18250000000E+03  0.18250000000E+03  0.00000000000E+00 0. -1.
         23    2    1    2    0    0 -0.46878370134E+02  0.79951335664E+01 -0.13503936505E+03  0.16950078351E+03  0.90737984053E+02 0.  0.
        -11    1    1    2    0    0  0.83600196315E+02 -0.39963481762E+02  0.89976287380E+02  0.12915806204E+03  0.00000000000E+00 0. -1.
         11    1    1    2    0    0 -0.36721826181E+02  0.31968348195E+02  0.45063077674E+02  0.66341154451E+02  0.00000000000E+00 0. -1.
        -15    1    3    3    0    0 -0.38860425495E+02  0.10399997620E+02 -0.14832722480E+03  0.15369585539E+03  0.17770000000E+01 0. -1.
         15    1    3    3    0    0 -0.80179446391E+01 -0.24048640534E+01  0.13287859742E+02  0.15804928120E+02  0.17770000000E+01 0.  1.
</event>
<event>
 7    1  0.9281110E-008  0.1391773E+03  0.7546771E-02  0.1109362E+00
        -11   -1    0    0    0    0  0.00000000000E+00  0.00000000000E+00  0.18250000000E+03  0.18250000000E+03  0.00000000000E+00 0.  1.
         11   -1    0    0    0    0 -0.00000000000E+00 -0.00000000000E+00 -0.18250000000E+03  0.18250000000E+03  0.00000000000E+00 0. -1.
         23    2    1    2    0    0  0.32925927536E+02  0.21368177075E+02 -0.86647723212E+02  0.13338703654E+03  0.93506993762E+02 0.  0.
        -11    1    1    2    0    0 -0.10129504813E+03  0.50629059621E+02  0.62845006701E+02  0.12951248327E+03  0.00000000000E+00 0.  1.
         11    1    1    2    0    0  0.68369120598E+02 -0.71997236696E+02  0.23802716511E+02  0.10210048020E+03  0.00000000000E+00 0. -1.
        -15    1    3    3    0    0 -0.12345141441E+02  0.32914617270E+02 -0.30662830264E+00  0.35199805356E+02  0.17770000000E+01 0.  1.
         15    1    3    3    0    0  0.45271068977E+02 -0.11546440195E+02 -0.86341094909E+02  0.98187231179E+02  0.17770000000E+01 0. -1.
</event>
<event>
 7    1  0.9281110E-008  0.1165045E+03  0.7546771E-02  0.1137989E+00
        -11   -1    0    0    0    0  0.00000000000E+00  0.00000000000E+00  0.18250000000E+03  0.18250000000E+03  0.00000000000E+00 0. -1.
         11   -1    0    0    0    0 -0.00000000000E+00 -0.00000000000E+00 -0.18250000000E+03  0.18250000000E+03  0.00000000000E+00 0. -1.
         23    2    1    2    0    0  0.15265508727E+02  0.36890412037E+02 -0.65537750569E+02  0.11967903766E+03  0.91836469050E+02 0.  0.
        -11    1    1    2    0    0  0.10343841906E+03 -0.53645119921E+02  0.32862876734E+02  0.12106722965E+03  0.00000000000E+00 0. -1.
         11    1    1    2    0    0 -0.11870392778E+03  0.16754707884E+02  0.32674873835E+02  0.12425373269E+03  0.00000000000E+00 0. -1.
        -15    1    3    3    0    0 -0.63246324318E+01  0.32444694864E+02 -0.84370382204E+02  0.90632104259E+02  0.17770000000E+01 0. -1.
         15    1    3    3    0    0  0.21590141159E+02  0.44457171737E+01  0.18832631635E+02  0.29046933397E+02  0.17770000000E+01 0.  1.
</event>
<event>
 7    1  0.9281110E-008  0.1417513E+03  0.7546771E-02  0.1106495E+00
        -11   -1    0    0    0    0  0.00000000000E+00  0.00000000000E+00  0.18250000000E+03  0.18250000000E+03  0.00000000000E+00 0. -1.
         11   -1    0    0    0    0 -0.00000000000E+00 -0.00000000000E+00 -0.18250000000E+03  0.18250000000E+03  0.00000000000E+00 0.  1.
         23    2    1    2    0    0  0.40721510504E+02 -0.53247660643E+01 -0.77962312148E+02  0.12712378363E+03  0.91628269096E+02 0.  0.
        -11    1    1    2    0    0 -0.65299928257E+02 -0.53419903673E+02 -0.47759531286E+02  0.96947096746E+02  0.00000000000E+00 0.  1.
         11    1    1    2    0    0  0.24578417753E+02  0.58744669737E+02  0.12572184343E+03  0.14092911962E+03  0.00000000000E+00 0. -1.
        -15    1    3    3    0    0  0.11507326979E+02 -0.43914635816E+02 -0.15328945111E+02  0.47948389966E+02  0.17770000000E+01 0.  1.
         15    1    3    3    0    0  0.29214183525E+02  0.38589869752E+02 -0.62633367037E+02  0.79175393664E+02  0.17770000000E+01 0. -1.
</event>
<event>
 7    1  0.9281110E-008  0.1374972E+03  0.7546771E-02  0.1111270E+00
        -11   -1    0    0    0    0  0.00000000000E+00  0.00000000000E+00  0.18250000000E+03  0.18250000000E+03  0.00000000000E+00 0.  1.
         11   -1    0    0    0    0 -0.00000000000E+00 -0.00000000000E+00 -0.18250000000E+03  0.18250000000E+03  0.00000000000E+00 0.  1.
         23    2    1    2    0    0  0.37407796978E+02 -0.39935891012E+02 -0.79079258859E+02  0.13520990285E+03  0.95047198707E+02 0.  0.
        -11    1    1    2    0    0  0.45773384034E+02  0.10086693652E+03  0.56044346237E+02  0.12413827094E+03  0.00000000000E+00 0.  1.
         11    1    1    2    0    0 -0.83181181011E+02 -0.60931045503E+02  0.23034912622E+02  0.10565182620E+03  0.00000000000E+00 0.  1.
        -15    1    3    3    0    0 -0.27457417959E+02  0.80886973082E+01 -0.24961553257E+02  0.38020700876E+02  0.17770000000E+01 0. -1.
         15    1    3    3    0    0  0.64865214937E+02 -0.48024588320E+02 -0.54117705603E+02  0.97189201977E+02  0.17770000000E+01 0.  1.
</event>
<event>
 7    1  0.9281110E-008  0.1705059E+03  0.7546771E-02  0.1078424E+00
        -11   -1    0    0    0    0  0.00000000000E+00  0.00000000000E+00  0.18250000000E+03  0.18250000000E+03  0.00000000000E+00 0.  1.
         11   -1    0    0    0    0 -0.00000000000E+00 -0.00000000000E+00 -0.18250000000E+03  0.18250000000E+03  0.00000000000E+00 0.  1.
         23    2    1    2    0    0  0.79401495268E+02 -0.37242900468E+01 -0.11526429325E+03  0.16740433041E+03  0.91759930002E+02 0.  0.
        -11    1    1    2    0    0  0.35351685978E+02 -0.22573750024E+02  0.21758158814E+02  0.47251808078E+02  0.00000000000E+00 0.  1.
         11    1    1    2    0    0 -0.11475318125E+03  0.26298040071E+02  0.93506134436E+02  0.15034386151E+03  0.00000000000E+00 0.  1.
        -15    1    3    3    0    0  0.93359737118E+02  0.57498664194E+01 -0.11760863747E+03  0.15027990823E+03  0.17770000000E+01 0.  1.
         15    1    3    3    0    0 -0.13958241850E+02 -0.94741564662E+01  0.23443442244E+01  0.17124422184E+02  0.17770000000E+01 0. -1.
</event>
<event>
 7    1  0.9281110E-008  0.1875298E+03  0.7546771E-02  0.1064520E+00
        -11   -1    0    0    0    0  0.00000000000E+00  0.00000000000E+00  0.18250000000E+03  0.18250000000E+03  0.00000000000E+00 0.  1.
         11   -1    0    0    0    0 -0.00000000000E+00 -0.00000000000E+00 -0.18250000000E+03  0.18250000000E+03  0.00000000000E+00 0. -1.
         23    2    1    2    0    0  0.72686105535E+01  0.11467679766E+03  0.11716558587E+03  0.18752978382E+03  0.90752656644E+02 0.  0.
        -11    1    1    2    0    0  0.30022506192E+00 -0.66436335305E+02 -0.10944705664E+03  0.12803333547E+03  0.00000000000E+00 0. -1.
         11    1    1    2    0    0 -0.75688356155E+01 -0.48240462356E+02 -0.77185292264E+01  0.49436880709E+02  0.00000000000E+00 0.  1.
        -15    1    3    3    0    0  0.68515429592E+01 -0.13748240766E+02  0.25182742329E+02  0.29551412915E+02  0.17770000000E+01 0. -1.
         15    1    3    3    0    0  0.41706759436E+00  0.12842503843E+03  0.91982843538E+02  0.15797837091E+03  0.17770000000E+01 0.  1.
</event>
<event>
 7    1  0.9281110E-008  0.2089289E+03  0.7546771E-02  0.1049170E+00
        -11   -1    0    0    0    0  0.00000000000E+00  0.00000000000E+00  0.18250000000E+03  0.18250000000E+03  0.00000000000E+00 0.  1.
         11   -1    0    0    0    0 -0.00000000000E+00 -0.00000000000E+00 -0.18250000000E+03  0.18250000000E+03  0.00000000000E+00 0. -1.
         23    2    1    2    0    0 -0.55357839748E+02 -0.15315162571E+02 -0.19924892668E+02  0.10693022532E+03  0.87966056601E+02 0.  0.
        -11    1    1    2    0    0 -0.53130034456E+02 -0.53603347603E+02 -0.68612084208E+02  0.10199871340E+03  0.00000000000E+00 0. -1.
         11    1    1    2    0    0  0.10848787420E+03  0.68918510175E+02  0.88536976875E+02  0.15607106128E+03  0.00000000000E+00 0.  1.
        -15    1    3    3    0    0 -0.70503405581E+02 -0.99083437952E+01  0.10966885980E+02  0.72057864196E+02  0.17770000000E+01 0. -1.
         15    1    3    3    0    0  0.15145565833E+02 -0.54068187759E+01 -0.30891778648E+02  0.34872361129E+02  0.17770000000E+01 0.  1.
</event>
<event>
 7    1  0.9281110E-008  0.1416819E+03  0.7546771E-02  0.1106572E+00
        -11   -1    0    0    0    0  0.00000000000E+00  0.00000000000E+00  0.18250000000E+03  0.18250000000E+03  0.00000000000E+00 0. -1.
         11   -1    0    0    0    0 -0.00000000000E+00 -0.00000000000E+00 -0.18250000000E+03  0.18250000000E+03  0.00000000000E+00 0. -1.
         23    2    1    2    0    0 -0.31537103988E+02  0.76742969456E+01 -0.72759267210E+02  0.12212446053E+03  0.92558031172E+02 0.  0.
        -11    1    1    2    0    0 -0.89829098463E+02  0.37527760154E+02  0.69416180602E+01  0.97600132039E+02  0.00000000000E+00 0. -1.
         11    1    1    2    0    0  0.12136620245E+03 -0.45202057099E+02  0.65817649150E+02  0.14527540743E+03  0.00000000000E+00 0. -1.
        -15    1    3    3    0    0 -0.46046561992E+02 -0.14521732845E+02 -0.40854739250E+01  0.48487270724E+02  0.17770000000E+01 0.  1.
         15    1    3    3    0    0  0.14509458004E+02  0.22196029790E+02 -0.68673793285E+02  0.73637189810E+02  0.17770000000E+01 0. -1.
</event>
<event>
 7    1  0.9281110E-008  0.1908772E+03  0.7546771E-02  0.1061975E+00
        -11   -1    0    0    0    0  0.00000000000E+00  0.00000000000E+00  0.18250000000E+03  0.18250000000E+03  0.00000000000E+00 0.  1.
         11   -1    0    0    0    0 -0.00000000000E+00 -0.00000000000E+00 -0.18250000000E+03  0.18250000000E+03  0.00000000000E+00 0. -1.
         23    2    1    2    0    0 -0.10658741607E+03  0.12566001723E+02  0.96261670254E+02  0.18762222946E+03  0.12007085476E+03 0.  0.
        -11    1    1    2    0    0 -0.19869691531E+02  0.69038969010E+01 -0.13199668703E+02  0.24833438904E+02  0.00000000000E+00 0.  1.
         11    1    1    2    0    0  0.12645710760E+03 -0.19469898624E+02 -0.83062001550E+02  0.15254433164E+03  0.00000000000E+00 0. -1.
        -15    1    3    3    0    0 -0.12724770522E+03  0.13536548143E+02  0.50886266555E+02  0.13772358721E+03  0.17770000000E+01 0.  1.
         15    1    3    3    0    0  0.20660289157E+02 -0.97054641981E+00  0.45375403698E+02  0.49898642248E+02  0.17770000000E+01 0. -1.
</event>
<event>
 7    1  0.1255218E-007  0.1876734E+03  0.7546771E-02  0.1064410E+00
        -11   -1    0    0    0    0  0.00000000000E+00  0.00000000000E+00  0.18250000000E+03  0.18250000000E+03  0.00000000000E+00 0.  1.
         11   -1    0    0    0    0 -0.00000000000E+00 -0.00000000000E+00 -0.18250000000E+03  0.18250000000E+03  0.00000000000E+00 0. -1.
         23    2    1    2    0    0  0.42822514111E+01  0.81718141842E+01 -0.16621213612E+03  0.18767343655E+03  0.86658688925E+02 0.  0.
        -11    1    1    2    0    0  0.97119458294E+01 -0.26088420285E+02  0.13949716254E+03  0.14224762184E+03  0.00000000000E+00 0.  1.
         11    1    1    2    0    0 -0.13994197241E+02  0.17916606101E+02  0.26714973588E+02  0.35078941609E+02  0.00000000000E+00 0. -1.
        -15    1    3    3    0    0 -0.32722794177E+02  0.10782763392E+02 -0.13444610630E+03  0.13880188209E+03  0.17770000000E+01 0. -1.
         15    1    3    3    0    0  0.37005045588E+02 -0.26109492079E+01 -0.31766029826E+02  0.48871554453E+02  0.17770000000E+01 0.  1.
</event>
<event>
 7    1  0.9281110E-008  0.1594041E+03  0.7546771E-02  0.1088487E+00
        -11   -1    0    0    0    0  0.00000000000E+00  0.00000000000E+00  0.18250000000E+03  0.18250000000E+03  0.00000000000E+00 0. -1.
         11   -1    0    0    0    0 -0.00000000000E+00 -0.00000000000E+00 -0.18250000000E+03  0.18250000000E+03  0.00000000000E+00 0.  1.
         23    2    1    2    0    0  0.34574814303E+02 -0.78653749549E+00  0.11200121480E+03  0.14664706952E+03  0.88119546392E+02 0.  0.
        -11    1    1    2    0    0  0.11726693753E+02 -0.61355190409E+02  0.19738869082E+02  0.65510286896E+02  0.00000000000E+00 0. -1.
         11    1    1    2    0    0 -0.46301508056E+02  0.62141727905E+02 -0.13174008389E+03  0.15284264358E+03  0.00000000000E+00 0.  1.
        -15    1    3    3    0    0  0.64274876947E+02  0.25707006593E+01  0.70240927611E+02  0.95261817897E+02  0.17770000000E+01 0.  1.
         15    1    3    3    0    0 -0.29700062644E+02 -0.33572381548E+01  0.41760287192E+02  0.51385251624E+02  0.17770000000E+01 0. -1.
</event>
<event>
 7    1  0.9281110E-008  0.1895334E+03  0.7546771E-02  0.1062990E+00
        -11   -1    0    0    0    0  0.00000000000E+00  0.00000000000E+00  0.18250000000E+03  0.18250000000E+03  0.00000000000E+00 0.  1.
         11   -1    0    0    0    0 -0.00000000000E+00 -0.00000000000E+00 -0.18250000000E+03  0.18250000000E+03  0.00000000000E+00 0. -1.
         23    2    1    2    0    0 -0.13376100034E+03 -0.87696572894E+02  0.37429448911E+02  0.19063477907E+03  0.96736555846E+02 0.  0.
        -11    1    1    2    0    0 -0.42637120418E+01  0.11498138906E+02  0.24353724074E+00  0.12265632844E+02  0.00000000000E+00 0.  1.
         11    1    1    2    0    0  0.13802471238E+03  0.76198433988E+02 -0.37672986152E+02  0.16209958808E+03  0.00000000000E+00 0. -1.
        -15    1    3    3    0    0 -0.10071364710E+03 -0.79715281713E+02  0.67589676142E+02  0.14515263312E+03  0.17770000000E+01 0.  1.
         15    1    3    3    0    0 -0.33047353238E+02 -0.79812911811E+01 -0.30160227231E+02  0.45482145954E+02  0.17770000000E+01 0. -1.
</event>
<event>
 7    1  0.9281110E-008  0.1784954E+03  0.7546771E-02  0.1071688E+00
        -11   -1    0    0    0    0  0.00000000000E+00  0.00000000000E+00  0.18250000000E+03  0.18250000000E+03  0.00000000000E+00 0.  1.
         11   -1    0    0    0    0 -0.00000000000E+00 -0.00000000000E+00 -0.18250000000E+03  0.18250000000E+03  0.00000000000E+00 0.  1.
         23    2    1    2    0    0  0.54970187667E+02 -0.10358853852E+03 -0.91509414517E+02  0.17662321563E+03  0.95233820187E+02 0.  0.
        -11    1    1    2    0    0 -0.87048723640E+02  0.96958590905E+02  0.83146123724E+02  0.15456948770E+03  0.00000000000E+00 0.  1.
         11    1    1    2    0    0  0.32078535973E+02  0.66299476163E+01  0.83632907930E+01  0.33807296674E+02  0.00000000000E+00 0.  1.
        -15    1    3    3    0    0  0.48944839461E+02 -0.10389790446E+03 -0.35445761902E+02  0.12020786841E+03  0.17770000000E+01 0. -1.
         15    1    3    3    0    0  0.60253482064E+01  0.30936593814E+00 -0.56063652615E+02  0.56415347219E+02  0.17770000000E+01 0.  1.
</event>
<event>
 7    1  0.9281110E-008  0.1450037E+03  0.7546771E-02  0.1102967E+00
        -11   -1    0    0    0    0  0.00000000000E+00  0.00000000000E+00  0.18250000000E+03  0.18250000000E+03  0.00000000000E+00 0. -1.
         11   -1    0    0    0    0 -0.00000000000E+00 -0.00000000000E+00 -0.18250000000E+03  0.18250000000E+03  0.00000000000E+00 0. -1.
         23    2    1    2    0    0  0.30066700603E+01  0.30745883759E+02 -0.12232924891E+03  0.15763686949E+03  0.94501788611E+02 0.  0.
        -11    1    1    2    0    0  0.70048483367E+02  0.26206710462E+02  0.56006954182E+02  0.93436398753E+02  0.00000000000E+00 0. -1.
         11    1    1    2    0    0 -0.73055153427E+02 -0.56952594220E+02  0.66322294729E+02  0.11392673176E+03  0.00000000000E+00 0. -1.
        -15    1    3    3    0    0 -0.12822168049E+02  0.62312828454E+02 -0.71537794296E+02  0.95750249739E+02  0.17770000000E+01 0. -1.
         15    1    3    3    0    0  0.15828838109E+02 -0.31566944695E+02 -0.50791454615E+02  0.61886619751E+02  0.17770000000E+01 0.  1.
</event>
<event>
 7    1  0.9281110E-008  0.1516316E+03  0.7546771E-02  0.1096083E+00
        -11   -1    0    0    0    0  0.00000000000E+00  0.00000000000E+00  0.18250000000E+03  0.18250000000E+03  0.00000000000E+00 0.  1.
         11   -1    0    0    0    0 -0.00000000000E+00 -0.00000000000E+00 -0.18250000000E+03  0.18250000000E+03  0.00000000000E+00 0.  1.
         23    2    1    2    0    0 -0.56246424857E+01  0.13303456827E+03 -0.69100802842E+01  0.16136615858E+03  0.90892546264E+02 0.  0.
        -11    1    1    2    0    0 -0.68526814327E+02 -0.10240639591E+03  0.15873007309E+01  0.12322951646E+03  0.00000000000E+00 0.  1.
         11    1    1    2    0    0  0.74151456813E+02 -0.30628172366E+02  0.53227795533E+01  0.80404324959E+02  0.00000000000E+00 0.  1.
        -15    1    3    3    0    0  0.42320686103E+02  0.72424238159E+02 -0.46991164904E+01  0.84033030232E+02  0.17770000000E+01 0.  1.
         15    1    3    3    0    0 -0.47945328589E+02  0.60610330113E+02 -0.22109637938E+01  0.77333128346E+02  0.17770000000E+01 0. -1.
</event>
<event>
 7    1  0.9281110E-008  0.1877486E+03  0.7546771E-02  0.1064352E+00
        -11   -1    0    0    0    0  0.00000000000E+00  0.00000000000E+00  0.18250000000E+03  0.18250000000E+03  0.00000000000E+00 0. -1.
         11   -1    0    0    0    0 -0.00000000000E+00 -0.00000000000E+00 -0.18250000000E+03  0.18250000000E+03  0.00000000000E+00 0.  1.
         23    2    1    2    0    0  0.23226617223E+02 -0.13444324998E+03  0.89292594553E+02  0.18774856510E+03  0.93069291619E+02 0.  0.
        -11    1    1    2    0    0 -0.27415255945E+02  0.11110176503E+02 -0.20222094505E+02  0.35832462749E+02  0.00000000000E+00 0. -1.
         11    1    1    2    0    0  0.41886387216E+01  0.12333307348E+03 -0.69070500048E+02  0.14141897215E+03  0.00000000000E+00 0.  1.
        -15    1    3    3    0    0 -0.33457189445E+02 -0.53837295137E+02  0.17396375873E+02  0.65754311613E+02  0.17770000000E+01 0.  1.
         15    1    3    3    0    0  0.56683806668E+02 -0.80605954842E+02  0.71896218680E+02  0.12199425349E+03  0.17770000000E+01 0. -1.
</event>
<event>
 7    1  0.9281110E-008  0.1270500E+03  0.7546771E-02  0.1123853E+00
        -11   -1    0    0    0    0  0.00000000000E+00  0.00000000000E+00  0.18250000000E+03  0.18250000000E+03  0.00000000000E+00 0. -1.
         11   -1    0    0    0    0 -0.00000000000E+00 -0.00000000000E+00 -0.18250000000E+03  0.18250000000E+03  0.00000000000E+00 0.  1.
         23    2    1    2    0    0  0.23939675624E+02  0.45052413428E+02 -0.11163590740E+02  0.10558863613E+03  0.91768765362E+02 0.  0.
        -11    1    1    2    0    0 -0.91421852366E+02  0.71893077318E+02  0.36786278948E+02  0.12198278557E+03  0.00000000000E+00 0. -1.
         11    1    1    2    0    0  0.67482176743E+02 -0.11694549075E+03 -0.25622688209E+02  0.13742857830E+03  0.00000000000E+00 0.  1.
        -15    1    3    3    0    0  0.25567525090E+02  0.37769017661E+01  0.35046462245E+02  0.43581826156E+02  0.17770000000E+01 0. -1.
         15    1    3    3    0    0 -0.16278494663E+01  0.41275511662E+02 -0.46210052985E+02  0.62006809970E+02  0.17770000000E+01 0.  1.
</event>
<event>
 7    1  0.9281110E-008  0.1606579E+03  0.7546771E-02  0.1087306E+00
        -11   -1    0    0    0    0  0.00000000000E+00  0.00000000000E+00  0.18250000000E+03  0.18250000000E+03  0.00000000000E+00 0.  1.
         11   -1    0    0    0    0 -0.00000000000E+00 -0.00000000000E+00 -0.18250000000E+03  0.18250000000E+03  0.00000000000E+00 0. -1.
         23    2    1    2    0    0 -0.89349707520E+02  0.10297521678E+03 -0.69105725887E+02  0.17919428456E+03  0.93529272235E+02 0.  0.
        -11    1    1    2    0    0  0.61467838159E+02 -0.10212351100E+03  0.89905107411E+01  0.11953382748E+03  0.00000000000E+00 0. -1.
         11    1    1    2    0    0  0.27881869361E+02 -0.85170577640E+00  0.60115215146E+02  0.66271887960E+02  0.00000000000E+00 0.  1.
        -15    1    3    3    0    0  0.18685858848E+02  0.62705842276E+01 -0.37553428402E+01  0.20143035429E+02  0.17770000000E+01 0.  1.
         15    1    3    3    0    0 -0.10803556637E+03  0.96704632553E+02 -0.65350383047E+02  0.15905124913E+03  0.17770000000E+01 0. -1.
</event>
<event>
 7    1  0.9281110E-008  0.1376766E+03  0.7546771E-02  0.1111065E+00
        -11   -1    0    0    0    0  0.00000000000E+00  0.00000000000E+00  0.18250000000E+03  0.18250000000E+03  0.00000000000E+00 0.  1.
         11   -1    0    0    0    0 -0.00000000000E+00 -0.00000000000E+00 -0.18250000000E+03  0.18250000000E+03  0.00000000000E+00 0.  1.
         23    2    1    2    0    0  0.28356249463E+02 -0.15882972731E+02  0.86602280782E+02  0.13053924146E+03  0.92109678194E+02 0.  0.
        -11    1    1    2    0    0  0.73131977556E+02  0.15705810356E+02 -0.10738309233E+03  0.13086667696E+03  0.00000000000E+00 0.  1.
         11    1    1    2    0    0 -0.10148822702E+03  0.17716237540E+00  0.20780811550E+02  0.10359408158E+03  0.00000000000E+00 0.  1.
        -15    1    3    3    0    0  0.44754337603E+02 -0.37308252481E+02  0.25314204626E+02  0.63551735793E+02  0.17770000000E+01 0.  1.
         15    1    3    3    0    0 -0.16398088140E+02  0.21425279750E+02  0.61288076157E+02  0.66987505664E+02  0.17770000000E+01 0. -1.
</event>
<event>
 7    1  0.9281110E-008  0.1357491E+03  0.7546771E-02  0.1113288E+00
        -11   -1    0    0    0    0  0.00000000000E+00  0.00000000000E+00  0.18250000000E+03  0.18250000000E+03  0.00000000000E+00 0. -1.
         11   -1    0    0    0    0 -0.00000000000E+00 -0.00000000000E+00 -0.18250000000E+03  0.18250000000E+03  0.00000000000E+00 0.  1.
         23    2    1    2    0    0  0.50818239104E+02 -0.53796039554E+01  0.72965509031E+02  0.12694915894E+03  0.90447166259E+02 0.  0.
        -11    1    1    2    0    0 -0.10465607619E+03 -0.75112561807E+02 -0.30920974731E+02  0.13247980187E+03  0.00000000000E+00 0. -1.
         11    1    1    2    0    0  0.53837837084E+02  0.80492165762E+02 -0.42044534299E+02  0.10557103919E+03  0.00000000000E+00 0.  1.
        -15    1    3    3    0    0  0.15712466803E+02  0.32563264722E+02 -0.15607238553E+01  0.36233153469E+02  0.17770000000E+01 0. -1.
         15    1    3    3    0    0  0.35105772301E+02 -0.37942868677E+02  0.74526232886E+02  0.90716005476E+02  0.17770000000E+01 0.  1.
</event>
<event>
 7    1  0.9281110E-008  0.1647215E+03  0.7546771E-02  0.1083559E+00
        -11   -1    0    0    0    0  0.00000000000E+00  0.00000000000E+00  0.18250000000E+03  0.18250000000E+03  0.00000000000E+00 0.  1.
         11   -1    0    0    0    0 -0.00000000000E+00 -0.00000000000E+00 -0.18250000000E+03  0.18250000000E+03  0.00000000000E+00 0.  1.
         23    2    1    2    0    0  0.10200591170E+03  0.26234601029E+02  0.80068148211E+02  0.15728953243E+03  0.85062496670E+02 0.  0.
        -11    1    1    2    0    0  0.29743205722E+02  0.34172494328E+02 -0.30143856423E+02  0.54415712210E+02  0.00000000000E+00 0.  1.
         11    1    1    2    0    0 -0.13174911742E+03 -0.60407095358E+02 -0.49924291788E+02  0.15329475536E+03  0.00000000000E+00 0.  1.
        -15    1    3    3    0    0  0.42508550764E+02  0.15512134383E+01 -0.12617829311E+02  0.44404397268E+02  0.17770000000E+01 0. -1.
         15    1    3    3    0    0  0.59497360938E+02  0.24683387591E+02  0.92685977523E+02  0.11288513516E+03  0.17770000000E+01 0.  1.
</event>
<event>
 7    1  0.9281110E-008  0.2113662E+03  0.7546771E-02  0.1047549E+00
        -11   -1    0    0    0    0  0.00000000000E+00  0.00000000000E+00  0.18250000000E+03  0.18250000000E+03  0.00000000000E+00 0.  1.
         11   -1    0    0    0    0 -0.00000000000E+00 -0.00000000000E+00 -0.18250000000E+03  0.18250000000E+03  0.00000000000E+00 0.  1.
         23    2    1    2    0    0 -0.80289575341E+01 -0.67252796364E+01 -0.48300244751E+02  0.91928334420E+02  0.77512653683E+02 0.  0.
        -11    1    1    2    0    0  0.85161494734E+02 -0.54975264200E+02  0.11544948081E+03  0.15363379341E+03  0.00000000000E+00 0.  1.
         11    1    1    2    0    0 -0.77132537200E+02  0.61700543836E+02 -0.67149236058E+02  0.11943787217E+03  0.00000000000E+00 0.  1.
        -15    1    3    3    0    0  0.11296499551E+02 -0.38440330383E+02 -0.32104706628E+02  0.51372559005E+02  0.17770000000E+01 0.  1.
         15    1    3    3    0    0 -0.19325457085E+02  0.31715050746E+02 -0.16195538123E+02  0.40555775415E+02  0.17770000000E+01 0. -1.
</event>
<event>
 7    1  0.9281110E-008  0.1541603E+03  0.7546771E-02  0.1093558E+00
        -11   -1    0    0    0    0  0.00000000000E+00  0.00000000000E+00  0.18250000000E+03  0.18250000000E+03  0.00000000000E+00 0.  1.
         11   -1    0    0    0    0 -0.00000000000E+00 -0.00000000000E+00 -0.18250000000E+03  0.18250000000E+03  0.00000000000E+00 0. -1.
         23    2    1    2    0    0  0.15808035399E+02  0.61689959697E+02 -0.97438734120E+02  0.14889912601E+03  0.92849866500E+02 0.  0.
        -11    1    1    2    0    0 -0.46563868258E+02 -0.11859695119E+03  0.55259997071E+02  0.13887799658E+03  0.00000000000E+00 0.  1.
         11    1    1    2    0    0  0.30755832859E+02  0.56906991494E+02  0.42178737049E+02  0.77222877406E+02  0.00000000000E+00 0. -1.
        -15    1    3    3    0    0  0.10499350300E+02 -0.16915243028E+02  0.40635518305E+01  0.20396862158E+02  0.17770000000E+01 0.  1.
         15    1    3    3    0    0  0.53086850990E+01  0.78605202725E+02 -0.10150228595E+03  0.12850226385E+03  0.17770000000E+01 0. -1.
</event>
<event>
 7    1  0.9281110E-008  0.2115731E+03  0.7546771E-02  0.1047413E+00
        -11   -1    0    0    0    0  0.00000000000E+00  0.00000000000E+00  0.18250000000E+03  0.18250000000E+03  0.00000000000E+00 0.  1.
         11   -1    0    0    0    0 -0.00000000000E+00 -0.00000000000E+00 -0.18250000000E+03  0.18250000000E+03  0.00000000000E+00 0.  1.
         23    2    1    2    0    0 -0.25425537333E+02  0.37125629251E+02 -0.12515459654E+02  0.97690190659E+02  0.85801901638E+02 0.  0.
        -11    1    1    2    0    0 -0.13869595236E+02  0.74964234094E+02 -0.84600864593E+02  0.11388287121E+03  0.00000000000E+00 0.  1.
         11    1    1    2    0    0  0.39295132569E+02 -0.11208986335E+03  0.97116324247E+02  0.15342693813E+03  0.00000000000E+00 0.  1.
        -15    1    3    3    0    0 -0.99724507650E+01 -0.25069326866E+02  0.11292262361E+02  0.29301771994E+02  0.17770000000E+01 0.  1.
         15    1    3    3    0    0 -0.15453086568E+02  0.62194956117E+02 -0.23807722015E+02  0.68388418665E+02  0.17770000000E+01 0. -1.
</event>
<event>
 7    1  0.9281110E-008  0.1358837E+03  0.7546771E-02  0.1113132E+00
        -11   -1    0    0    0    0  0.00000000000E+00  0.00000000000E+00  0.18250000000E+03  0.18250000000E+03  0.00000000000E+00 0. -1.
         11   -1    0    0    0    0 -0.00000000000E+00 -0.00000000000E+00 -0.18250000000E+03  0.18250000000E+03  0.00000000000E+00 0. -1.
         23    2    1    2    0    0 -0.93319000889E+00 -0.11205303148E+02  0.80293339232E+02  0.13093515370E+03  0.10281325054E+03 0.  0.
        -11    1    1    2    0    0  0.69045676035E+01 -0.10101967472E+03 -0.65783864145E+02  0.12074835203E+03  0.00000000000E+00 0. -1.
         11    1    1    2    0    0 -0.59713775946E+01  0.11222497787E+03 -0.14509475087E+02  0.11331649428E+03  0.00000000000E+00 0. -1.
        -15    1    3    3    0    0 -0.35416242806E+02  0.23074373126E+02  0.68811234377E+01  0.42863090630E+02  0.17770000000E+01 0. -1.
         15    1    3    3    0    0  0.34483052797E+02 -0.34279676274E+02  0.73412215794E+02  0.88072063065E+02  0.17770000000E+01 0.  1.
</event>
<event>
 7    1  0.9281110E-008  0.1355559E+03  0.7546771E-02  0.1113513E+00
        -11   -1    0    0    0    0  0.00000000000E+00  0.00000000000E+00  0.18250000000E+03  0.18250000000E+03  0.00000000000E+00 0.  1.
         11   -1    0    0    0    0 -0.00000000000E+00 -0.00000000000E+00 -0.18250000000E+03  0.18250000000E+03  0.00000000000E+00 0. -1.
         23    2    1    2    0    0  0.11144400817E+02 -0.11188176283E+02 -0.44960797563E+01  0.93391429190E+02  0.91936779119E+02 0.  0.
        -11    1    1    2    0    0 -0.11153175111E+03 -0.52677011419E+02  0.63576957659E+02  0.13876681370E+03  0.00000000000E+00 0.  1.
         11    1    1    2    0    0  0.10038735029E+03  0.63865187702E+02 -0.59080877903E+02  0.13284175711E+03  0.00000000000E+00 0. -1.
        -15    1    3    3    0    0 -0.79228912874E+01 -0.48959731680E+02 -0.10183670324E+02  0.50662534508E+02  0.17770000000E+01 0. -1.
         15    1    3    3    0    0  0.19067292104E+02  0.37771555397E+02  0.56875905677E+01  0.42728894682E+02  0.17770000000E+01 0.  1.
</event>
<event>
 7    1  0.9281110E-008  0.1299694E+03  0.7546771E-02  0.1120206E+00
        -11   -1    0    0    0    0  0.00000000000E+00  0.00000000000E+00  0.18250000000E+03  0.18250000000E+03  0.00000000000E+00 0.  1.
         11   -1    0    0    0    0 -0.00000000000E+00 -0.00000000000E+00 -0.18250000000E+03  0.18250000000E+03  0.00000000000E+00 0.  1.
         23    2    1    2    0    0 -0.64820148673E+01  0.12162540852E+02 -0.85019737044E+02  0.12369367056E+03  0.88779640302E+02 0.  0.
        -11    1    1    2    0    0  0.10294962105E+03 -0.46422518352E+02  0.80326775567E+01  0.11321748360E+03  0.00000000000E+00 0.  1.
         11    1    1    2    0    0 -0.96467606181E+02  0.34259977499E+02  0.76987059488E+02  0.12808884584E+03  0.00000000000E+00 0.  1.
        -15    1    3    3    0    0 -0.43224760933E+01 -0.34675852370E+02 -0.12179308092E+02  0.37048506201E+02  0.17770000000E+01 0.  1.
         15    1    3    3    0    0 -0.21595387740E+01  0.46838393222E+02 -0.72840428953E+02  0.86645164356E+02  0.17770000000E+01 0. -1.
</event>
<event>
 7    1  0.9281110E-008  0.1808251E+03  0.7546771E-02  0.1069796E+00
        -11   -1    0    0    0    0  0.00000000000E+00  0.00000000000E+00  0.18250000000E+03  0.18250000000E+03  0.00000000000E+00 0.  1.
         11   -1    0    0    0    0 -0.00000000000E+00 -0.00000000000E+00 -0.18250000000E+03  0.18250000000E+03  0.00000000000E+00 0. -1.
         23    2    1    2    0    0 -0.90100679741E+02 -0.76841813031E+02 -0.96863228564E+02  0.17734012444E+03  0.89689675940E+02 0.  0.
        -11    1    1    2    0    0  0.75434629416E+02  0.96967514856E+02  0.10484416007E+03  0.16150969059E+03  0.00000000000E+00 0.  1.
         11    1    1    2    0    0  0.14666050325E+02 -0.20125701824E+02 -0.79809315104E+01  0.26150184967E+02  0.00000000000E+00 0. -1.
        -15    1    3    3    0    0  0.50940169434E+01 -0.24044802355E+02  0.82704899035E+01  0.25993465740E+02  0.17770000000E+01 0.  1.
         15    1    3    3    0    0 -0.95194696684E+02 -0.52797010676E+02 -0.10513371847E+03  0.15134665870E+03  0.17770000000E+01 0. -1.
</event>
<event>
 7    1  0.9281110E-008  0.1599555E+03  0.7546771E-02  0.1087966E+00
        -11   -1    0    0    0    0  0.00000000000E+00  0.00000000000E+00  0.18250000000E+03  0.18250000000E+03  0.00000000000E+00 0.  1.
         11   -1    0    0    0    0 -0.00000000000E+00 -0.00000000000E+00 -0.18250000000E+03  0.18250000000E+03  0.00000000000E+00 0. -1.
         23    2    1    2    0    0 -0.10870428124E+03 -0.23572715397E+02  0.11175015829E+02  0.14404540530E+03  0.90839991963E+02 0.  0.
        -11    1    1    2    0    0  0.12941959904E+03  0.53741952252E+02 -0.66110106930E+02  0.15494572045E+03  0.00000000000E+00 0. -1.
         11    1    1    2    0    0 -0.20715317806E+02 -0.30169236855E+02  0.54935091101E+02  0.66008874241E+02  0.00000000000E+00 0.  1.
        -15    1    3    3    0    0 -0.84403812117E+02 -0.49312750298E+02  0.32077866297E+02  0.10289751249E+03  0.17770000000E+01 0.  1.
         15    1    3    3    0    0 -0.24300469122E+02  0.25740034901E+02 -0.20902850468E+02  0.41147892813E+02  0.17770000000E+01 0. -1.
</event>
<event>
 7    1  0.9281110E-008  0.1355453E+03  0.7546771E-02  0.1113526E+00
        -11   -1    0    0    0    0  0.00000000000E+00  0.00000000000E+00  0.18250000000E+03  0.18250000000E+03  0.00000000000E+00 0.  1.
         11   -1    0    0    0    0 -0.00000000000E+00 -0.00000000000E+00 -0.18250000000E+03  0.18250000000E+03  0.00000000000E+00 0. -1.
         23    2    1    2    0    0 -0.10391707759E+03 -0.32156958613E+02  0.20178384845E+02  0.14235116532E+03  0.89575990372E+02 0.  0.
        -11    1    1    2    0    0  0.71065708429E+02  0.50890807013E+02  0.78180283807E+02  0.11727048192E+03  0.00000000000E+00 0.  1.
         11    1    1    2    0    0  0.32851369162E+02 -0.18733848400E+02 -0.98358668652E+02  0.10537835276E+03  0.00000000000E+00 0. -1.
        -15    1    3    3    0    0  0.23835575214E+01 -0.60871360179E+01  0.31575751938E+02  0.32294278299E+02  0.17770000000E+01 0.  1.
         15    1    3    3    0    0 -0.10630063511E+03 -0.26069822595E+02 -0.11397367093E+02  0.11005688702E+03  0.17770000000E+01 0. -1.
</event>
<event>
 7    1  0.9281110E-008  0.1424312E+03  0.7546771E-02  0.1105749E+00
        -11   -1    0    0    0    0  0.00000000000E+00  0.00000000000E+00  0.18250000000E+03  0.18250000000E+03  0.00000000000E+00 0.  1.
         11   -1    0    0    0    0 -0.00000000000E+00 -0.00000000000E+00 -0.18250000000E+03  0.18250000000E+03  0.00000000000E+00 0.  1.
         23    2    1    2    0    0 -0.26081469505E+02  0.41099580907E+02 -0.10957863870E+03  0.14870197450E+03  0.87951012272E+02 0.  0.
        -11    1    1    2    0    0  0.86224448904E+02  0.25829505971E+02  0.83091491174E+02  0.12249904029E+03  0.00000000000E+00 0.  1.
         11    1    1    2    0    0 -0.60142979399E+02 -0.66929086878E+02  0.26487147524E+02  0.93798985204E+02  0.00000000000E+00 0.  1.
        -15    1    3    3    0    0 -0.32456692079E+02  0.46471680550E+02 -0.22189607748E+02  0.60898196811E+02  0.17770000000E+01 0. -1.
         15    1    3    3    0    0  0.63752225740E+01 -0.53720996435E+01 -0.87389030950E+02  0.87803777691E+02  0.17770000000E+01 0.  1.
</event>
<event>
 7    1  0.9281110E-008  0.1398023E+03  0.7546771E-02  0.1108660E+00
        -11   -1    0    0    0    0  0.00000000000E+00  0.00000000000E+00  0.18250000000E+03  0.18250000000E+03  0.00000000000E+00 0.  1.
         11   -1    0    0    0    0 -0.00000000000E+00 -0.00000000000E+00 -0.18250000000E+03  0.18250000000E+03  0.00000000000E+00 0. -1.
         23    2    1    2    0    0  0.13943639829E+01  0.51996087544E+02  0.52196900758E+02  0.11887332658E+03  0.93278153678E+02 0.  0.
        -11    1    1    2    0    0 -0.90708435036E+02 -0.54649853735E+02 -0.99252444893E+02  0.14514018919E+03  0.00000000000E+00 0. -1.
         11    1    1    2    0    0  0.89314071053E+02  0.26537661915E+01  0.47055544135E+02  0.10098648423E+03  0.00000000000E+00 0.  1.
        -15    1    3    3    0    0  0.12683909112E+02  0.77496930933E+02  0.42398864244E+02  0.89260726372E+02  0.17770000000E+01 0. -1.
         15    1    3    3    0    0 -0.11289545129E+02 -0.25500843389E+02  0.97980365144E+01  0.29612600212E+02  0.17770000000E+01 0.  1.
</event>
<event>
 7    1  0.9281110E-008  0.1619943E+03  0.7546771E-02  0.1086061E+00
        -11   -1    0    0    0    0  0.00000000000E+00  0.00000000000E+00  0.18250000000E+03  0.18250000000E+03  0.00000000000E+00 0.  1.
         11   -1    0    0    0    0 -0.00000000000E+00 -0.00000000000E+00 -0.18250000000E+03  0.18250000000E+03  0.00000000000E+00 0.  1.
         23    2    1    2    0    0 -0.11443788236E+02 -0.77265831965E+02  0.73299249713E+02  0.14173717503E+03  0.92820674956E+02 0.  0.
        -11    1    1    2    0    0  0.57243963994E+02  0.99250940913E+02 -0.11136507755E+03  0.15978047810E+03  0.00000000000E+00 0.  1.
         11    1    1    2    0    0 -0.45800175758E+02 -0.21985108948E+02  0.38065827832E+02  0.63482346865E+02  0.00000000000E+00 0.  1.
        -15    1    3    3    0    0 -0.35141505121E+02 -0.88200312478E+02  0.54109577245E+02  0.10929421111E+03  0.17770000000E+01 0.  1.
         15    1    3    3    0    0  0.23697716885E+02  0.10934480514E+02  0.19189672468E+02  0.32442963923E+02  0.17770000000E+01 0. -1.
</event>
<event>
 7    1  0.9281110E-008  0.1678524E+03  0.7546771E-02  0.1080752E+00
        -11   -1    0    0    0    0  0.00000000000E+00  0.00000000000E+00  0.18250000000E+03  0.18250000000E+03  0.00000000000E+00 0. -1.
         11   -1    0    0    0    0 -0.00000000000E+00 -0.00000000000E+00 -0.18250000000E+03  0.18250000000E+03  0.00000000000E+00 0. -1.
         23    2    1    2    0    0 -0.72877737139E+02 -0.76808302395E+01 -0.11168454138E+03  0.16039815938E+03  0.88791739614E+02 0.  0.
        -11    1    1    2    0    0 -0.13815954094E+02  0.47823825710E+02 -0.90967642163E+01  0.50603853730E+02  0.00000000000E+00 0. -1.
         11    1    1    2    0    0  0.86693691233E+02 -0.40142995471E+02  0.12078130560E+03  0.15399798689E+03  0.00000000000E+00 0. -1.
        -15    1    3    3    0    0  0.18051984871E+02 -0.13507600709E+02 -0.32943417360E+02  0.39959428312E+02  0.17770000000E+01 0.  1.
         15    1    3    3    0    0 -0.90929722010E+02  0.58267704695E+01 -0.78741124024E+02  0.12043873106E+03  0.17770000000E+01 0. -1.
</event>
<event>
 7    1  0.9281110E-008  0.1350456E+03  0.7546771E-02  0.1114110E+00
        -11   -1    0    0    0    0  0.00000000000E+00  0.00000000000E+00  0.18250000000E+03  0.18250000000E+03  0.00000000000E+00 0. -1.
         11   -1    0    0    0    0 -0.00000000000E+00 -0.00000000000E+00 -0.18250000000E+03  0.18250000000E+03  0.00000000000E+00 0.  1.
         23    2    1    2    0    0 -0.22503025822E+02 -0.22418266887E+02  0.69994750582E+02  0.12042889210E+03  0.92708619238E+02 0.  0.
        -11    1    1    2    0    0 -0.83606429520E+02  0.68273979767E+02  0.27782829433E+01  0.10797726717E+03  0.00000000000E+00 0. -1.
         11    1    1    2    0    0  0.10610945534E+03 -0.45855712880E+02 -0.72773033525E+02  0.13659384073E+03  0.00000000000E+00 0.  1.
        -15    1    3    3    0    0 -0.18038083347E+02 -0.57415714267E+02  0.56639712056E+02  0.82662878043E+02  0.17770000000E+01 0. -1.
         15    1    3    3    0    0 -0.44649424754E+01  0.34997447379E+02  0.13355038526E+02  0.37766014053E+02  0.17770000000E+01 0.  1.
</event>
<event>
 7    1  0.9281110E-008  0.1526575E+03  0.7546771E-02  0.1095052E+00
        -11   -1    0    0    0    0  0.00000000000E+00  0.00000000000E+00  0.18250000000E+03  0.18250000000E+03  0.00000000000E+00 0.  1.
         11   -1    0    0    0    0 -0.00000000000E+00 -0.00000000000E+00 -0.18250000000E+03  0.18250000000E+03  0.00000000000E+00 0. -1.
         23    2    1    2    0    0 -0.48798630326E+02 -0.81028382735E+02  0.10207951804E+03  0.16675251388E+03  0.91865487265E+02 0.  0.
        -11    1    1    2    0    0  0.69741535153E+02  0.37008848542E+02  0.65073458020E+01  0.79220465445E+02  0.00000000000E+00 0.  1.
         11    1    1    2    0    0 -0.20942904827E+02  0.44019534193E+02 -0.10858686384E+03  0.11902702068E+03  0.00000000000E+00 0. -1.
        -15    1    3    3    0    0 -0.10225112020E+02 -0.17811295223E+02 -0.16859863444E+02  0.26630957131E+02  0.17770000000E+01 0. -1.
         15    1    3    3    0    0 -0.38573518306E+02 -0.63217087512E+02  0.11893938148E+03  0.14012155674E+03  0.17770000000E+01 0.  1.
</event>
<event>
 7    1  0.9281110E-008  0.1302428E+03  0.7546771E-02  0.1119870E+00
        -11   -1    0    0    0    0  0.00000000000E+00  0.00000000000E+00  0.18250000000E+03  0.18250000000E+03  0.00000000000E+00 0. -1.
         11   -1    0    0    0    0 -0.00000000000E+00 -0.00000000000E+00 -0.18250000000E+03  0.18250000000E+03  0.00000000000E+00 0. -1.
         23    2    1    2    0    0 -0.10350413277E+02  0.17973153143E+02 -0.54475083188E+02  0.98072297248E+02  0.78869991190E+02 0.  0.
        -11    1    1    2    0    0 -0.89550297285E+02 -0.55380093373E+02 -0.50930272280E+02  0.11696197297E+03  0.00000000000E+00 0. -1.
         11    1    1    2    0    0  0.99900710562E+02  0.37406940230E+02  0.10540535547E+03  0.14996572978E+03  0.00000000000E+00 0. -1.
        -15    1    3    3    0    0  0.35744430701E+01  0.28903983243E+02 -0.69121407297E+02  0.75027618690E+02  0.17770000000E+01 0. -1.
         15    1    3    3    0    0 -0.13924856347E+02 -0.10930830101E+02  0.14646324108E+02  0.23044678558E+02  0.17770000000E+01 0.  1.
</event>
<event>
 7    1  0.9281110E-008  0.1518121E+03  0.7546771E-02  0.1095901E+00
        -11   -1    0    0    0    0  0.00000000000E+00  0.00000000000E+00  0.18250000000E+03  0.18250000000E+03  0.00000000000E+00 0.  1.
         11   -1    0    0    0    0 -0.00000000000E+00 -0.00000000000E+00 -0.18250000000E+03  0.18250000000E+03  0.00000000000E+00 0.  1.
         23    2    1    2    0    0  0.82914543211E+02 -0.84525873106E+01  0.28382499003E+01  0.13643231961E+03  0.10797895380E+03 0.  0.
        -11    1    1    2    0    0 -0.11363466342E+03 -0.53250002615E+02  0.56492768872E+02  0.13762206380E+03  0.00000000000E+00 0.  1.
         11    1    1    2    0    0  0.30720120209E+02  0.61702589926E+02 -0.59331018773E+02  0.90945616595E+02  0.00000000000E+00 0.  1.
        -15    1    3    3    0    0  0.10409113902E+03  0.14432590556E+02  0.40300183105E+01  0.10517919789E+03  0.17770000000E+01 0.  1.
         15    1    3    3    0    0 -0.21176595809E+02 -0.22885177866E+02 -0.11917684103E+01  0.31253121716E+02  0.17770000000E+01 0. -1.
</event>
<event>
 7    1  0.1126673E-007  0.1721420E+03  0.7546771E-02  0.1077012E+00
        -11   -1    0    0    0    0  0.00000000000E+00  0.00000000000E+00  0.18250000000E+03  0.18250000000E+03  0.00000000000E+00 0.  1.
         11   -1    0    0    0    0 -0.00000000000E+00 -0.00000000000E+00 -0.18250000000E+03  0.18250000000E+03  0.00000000000E+00 0.  1.
         23    2    1    2    0    0 -0.27201656191E+02 -0.27890724419E+02  0.13361915130E+03  0.16613253297E+03  0.90708975907E+02 0.  0.
        -11    1    1    2    0    0  0.12224260973E+01 -0.43531493381E+02  0.17928932394E+01  0.43585544711E+02  0.00000000000E+00 0.  1.
         11    1    1    2    0    0  0.25979230094E+02  0.71422217800E+02 -0.13541204454E+03  0.15528192232E+03  0.00000000000E+00 0.  1.
        -15    1    3    3    0    0  0.10071270403E+02 -0.97405551440E+00 -0.10594346094E+02  0.14757275150E+02  0.17770000000E+01 0. -1.
         15    1    3    3    0    0 -0.37272926594E+02 -0.26916668904E+02  0.14421349739E+03  0.15137525782E+03  0.17770000000E+01 0.  1.
</event>
<event>
 7    1  0.9281110E-008  0.1533649E+03  0.7546771E-02  0.1094347E+00
        -11   -1    0    0    0    0  0.00000000000E+00  0.00000000000E+00  0.18250000000E+03  0.18250000000E+03  0.00000000000E+00 0.  1.
         11   -1    0    0    0    0 -0.00000000000E+00 -0.00000000000E+00 -0.18250000000E+03  0.18250000000E+03  0.00000000000E+00 0.  1.
         23    2    1    2    0    0 -0.28890246618E+02 -0.46809336300E+02 -0.96485950687E+02  0.14566585322E+03  0.94250951193E+02 0.  0.
        -11    1    1    2    0    0  0.52451087186E+02  0.11415247746E+03  0.61657687417E+02  0.13994132726E+03  0.00000000000E+00 0.  1.
         11    1    1    2    0    0 -0.23560840567E+02 -0.67343141157E+02  0.34828263270E+02  0.79392819521E+02  0.00000000000E+00 0.  1.
        -15    1    3    3    0    0 -0.48827014913E+02 -0.36040188920E+02 -0.10508628315E+03  0.12136415137E+03  0.17770000000E+01 0.  1.
         15    1    3    3    0    0  0.19936768295E+02 -0.10769147381E+02  0.86003324648E+01  0.24301701851E+02  0.17770000000E+01 0. -1.
</event>
<event>
 7    1  0.9281110E-008  0.2221588E+03  0.7546771E-02  0.1040647E+00
        -11   -1    0    0    0    0  0.00000000000E+00  0.00000000000E+00  0.18250000000E+03  0.18250000000E+03  0.00000000000E+00 0. -1.
         11   -1    0    0    0    0 -0.00000000000E+00 -0.00000000000E+00 -0.18250000000E+03  0.18250000000E+03  0.00000000000E+00 0.  1.
         23    2    1    2    0    0 -0.12043218716E+02 -0.88439426821E+00 -0.61979415489E+01  0.91393475966E+02  0.90379929738E+02 0.  0.
        -11    1    1    2    0    0  0.12068205087E+03  0.66638249134E+02  0.37400520050E+02  0.14284121447E+03  0.00000000000E+00 0. -1.
         11    1    1    2    0    0 -0.10863883215E+03 -0.65753854866E+02 -0.31202578501E+02  0.13076530957E+03  0.00000000000E+00 0.  1.
        -15    1    3    3    0    0 -0.30127589218E+02  0.24492121971E+02 -0.32431666464E+02  0.50621204938E+02  0.17770000000E+01 0. -1.
         15    1    3    3    0    0  0.18084370502E+02 -0.25376516239E+02  0.26233724915E+02  0.40772271028E+02  0.17770000000E+01 0.  1.
</event>
<event>
 7    1  0.9281110E-008  0.1538618E+03  0.7546771E-02  0.1093853E+00
        -11   -1    0    0    0    0  0.00000000000E+00  0.00000000000E+00  0.18250000000E+03  0.18250000000E+03  0.00000000000E+00 0.  1.
         11   -1    0    0    0    0 -0.00000000000E+00 -0.00000000000E+00 -0.18250000000E+03  0.18250000000E+03  0.00000000000E+00 0.  1.
         23    2    1    2    0    0  0.79577651989E+02  0.40515970969E+01  0.96085215310E+02  0.15485288101E+03  0.91640755240E+02 0.  0.
        -11    1    1    2    0    0 -0.98946367272E+02 -0.67906623364E+02 -0.57569939295E+02  0.13310143126E+03  0.00000000000E+00 0.  1.
         11    1    1    2    0    0  0.19368715283E+02  0.63855026267E+02 -0.38515276015E+02  0.77045687730E+02  0.00000000000E+00 0.  1.
        -15    1    3    3    0    0  0.56274452680E+02 -0.30041631149E+02  0.93806699590E+02  0.11345557828E+03  0.17770000000E+01 0.  1.
         15    1    3    3    0    0  0.23303199309E+02  0.34093228246E+02  0.22785157204E+01  0.41397302728E+02  0.17770000000E+01 0. -1.
</event>
<event>
 7    1  0.9281110E-008  0.1406658E+03  0.7546771E-02  0.1107696E+00
        -11   -1    0    0    0    0  0.00000000000E+00  0.00000000000E+00  0.18250000000E+03  0.18250000000E+03  0.00000000000E+00 0. -1.
         11   -1    0    0    0    0 -0.00000000000E+00 -0.00000000000E+00 -0.18250000000E+03  0.18250000000E+03  0.00000000000E+00 0. -1.
         23    2    1    2    0    0  0.40690134959E+02  0.12123868287E+02  0.10544552906E+03  0.14576250437E+03  0.91242932963E+02 0.  0.
        -11    1    1    2    0    0 -0.60020946560E+02  0.74422720426E+02 -0.23413507537E+02  0.98434992136E+02  0.00000000000E+00 0. -1.
         11    1    1    2    0    0  0.19330811601E+02 -0.86546588713E+02 -0.82032021526E+02  0.12080250349E+03  0.00000000000E+00 0. -1.
        -15    1    3    3    0    0  0.58440599028E+01  0.49106652711E+02  0.57713843568E+02  0.76024087269E+02  0.17770000000E+01 0. -1.
         15    1    3    3    0    0  0.34846075056E+02 -0.36982784424E+02  0.47731685495E+02  0.69738417101E+02  0.17770000000E+01 0.  1.
</event>
<event>
 7    1  0.9281110E-008  0.1780795E+03  0.7546771E-02  0.1072029E+00
        -11   -1    0    0    0    0  0.00000000000E+00  0.00000000000E+00  0.18250000000E+03  0.18250000000E+03  0.00000000000E+00 0.  1.
         11   -1    0    0    0    0 -0.00000000000E+00 -0.00000000000E+00 -0.18250000000E+03  0.18250000000E+03  0.00000000000E+00 0.  1.
         23    2    1    2    0    0  0.11895439047E+03  0.17683959753E+02 -0.91808232192E+02  0.17649727495E+03  0.90882710803E+02 0.  0.
        -11    1    1    2    0    0 -0.13587553628E+03  0.54080923174E+01  0.77035319201E+02  0.15628771298E+03  0.00000000000E+00 0.  1.
         11    1    1    2    0    0  0.16921145813E+02 -0.23092052070E+02  0.14772912990E+02  0.32215012070E+02  0.00000000000E+00 0.  1.
        -15    1    3    3    0    0  0.11077993732E+03  0.46536653836E+02 -0.79171603243E+02  0.14390675854E+03  0.17770000000E+01 0.  1.
         15    1    3    3    0    0  0.81744531490E+01 -0.28852694083E+02 -0.12636628948E+02  0.32590516417E+02  0.17770000000E+01 0. -1.
</event>
<event>
 7    1  0.9281110E-008  0.1345839E+03  0.7546771E-02  0.1114652E+00
        -11   -1    0    0    0    0  0.00000000000E+00  0.00000000000E+00  0.18250000000E+03  0.18250000000E+03  0.00000000000E+00 0. -1.
         11   -1    0    0    0    0 -0.00000000000E+00 -0.00000000000E+00 -0.18250000000E+03  0.18250000000E+03  0.00000000000E+00 0. -1.
         23    2    1    2    0    0 -0.14928609063E+02  0.35847192308E+01 -0.10684953769E+03  0.13573548251E+03  0.82289634386E+02 0.  0.
        -11    1    1    2    0    0 -0.81575276491E+02 -0.34999939181E+02  0.89957432216E+02  0.12637982864E+03  0.00000000000E+00 0. -1.
         11    1    1    2    0    0  0.96503885553E+02  0.31415219951E+02  0.16892105474E+02  0.10288468885E+03  0.00000000000E+00 0. -1.
        -15    1    3    3    0    0 -0.19995856554E+02 -0.33079065371E+02 -0.25490669720E+02  0.46335632260E+02  0.17770000000E+01 0. -1.
         15    1    3    3    0    0  0.50672474910E+01  0.36663784602E+02 -0.81358867970E+02  0.89399850251E+02  0.17770000000E+01 0.  1.
</event>
<event>
 7    1  0.9281110E-008  0.1750319E+03  0.7546771E-02  0.1074560E+00
        -11   -1    0    0    0    0  0.00000000000E+00  0.00000000000E+00  0.18250000000E+03  0.18250000000E+03  0.00000000000E+00 0.  1.
         11   -1    0    0    0    0 -0.00000000000E+00 -0.00000000000E+00 -0.18250000000E+03  0.18250000000E+03  0.00000000000E+00 0. -1.
         23    2    1    2    0    0  0.80515378087E+02  0.20311619124E+02  0.12200168770E+03  0.17215087570E+03  0.88635344078E+02 0.  0.
        -11    1    1    2    0    0 -0.10859555529E+03 -0.37611054572E+02 -0.10534162629E+03  0.15589882708E+03  0.00000000000E+00 0. -1.
         11    1    1    2    0    0  0.28080177205E+02  0.17299435448E+02 -0.16660061412E+02  0.36950297224E+02  0.00000000000E+00 0.  1.
        -15    1    3    3    0    0  0.90845934935E+02 -0.71821334098E+01  0.82842753958E+02  0.12316917856E+03  0.17770000000E+01 0.  1.
         15    1    3    3    0    0 -0.10330556848E+02  0.27493752534E+02  0.39158933747E+02  0.48981697136E+02  0.17770000000E+01 0. -1.
</event>
<event>
 7    1  0.9281110E-008  0.1484980E+03  0.7546771E-02  0.1099289E+00
        -11   -1    0    0    0    0  0.00000000000E+00  0.00000000000E+00  0.18250000000E+03  0.18250000000E+03  0.00000000000E+00 0.  1.
         11   -1    0    0    0    0 -0.00000000000E+00 -0.00000000000E+00 -0.18250000000E+03  0.18250000000E+03  0.00000000000E+00 0.  1.
         23    2    1    2    0    0 -0.34867730951E+01  0.37535128940E+02  0.11650433643E+03  0.15006192361E+03  0.86742590573E+02 0.  0.
        -11    1    1    2    0    0 -0.78131694140E+02  0.12483544796E+02 -0.26223411169E+02  0.83355070711E+02  0.00000000000E+00 0.  1.
         11    1    1    2    0    0  0.81618467235E+02 -0.50018673736E+02 -0.90280925265E+02  0.13158300568E+03  0.00000000000E+00 0.  1.
        -15    1    3    3    0    0  0.16417519661E+02  0.23369097041E+02 -0.23486139288E+01  0.28711032109E+02  0.17770000000E+01 0. -1.
         15    1    3    3    0    0 -0.19904292757E+02  0.14166031899E+02  0.11885295036E+03  0.12135089150E+03  0.17770000000E+01 0.  1.
</event>
<event>
 7    1  0.9281110E-008  0.1420359E+03  0.7546771E-02  0.1106182E+00
        -11   -1    0    0    0    0  0.00000000000E+00  0.00000000000E+00  0.18250000000E+03  0.18250000000E+03  0.00000000000E+00 0.  1.
         11   -1    0    0    0    0 -0.00000000000E+00 -0.00000000000E+00 -0.18250000000E+03  0.18250000000E+03  0.00000000000E+00 0. -1.
         23    2    1    2    0    0 -0.13769671081E+03  0.32165624988E+02 -0.29097593969E+01  0.16837273403E+03  0.91355893441E+02 0.  0.
        -11    1    1    2    0    0  0.60287012533E+02 -0.34767285065E+02  0.66617705354E+02  0.96339019393E+02  0.00000000000E+00 0.  1.
         11    1    1    2    0    0  0.77409698279E+02  0.26016600767E+01 -0.63707945957E+02  0.10028824657E+03  0.00000000000E+00 0. -1.
        -15    1    3    3    0    0  0.13145406686E+02  0.60711386160E+01 -0.45164960729E+01  0.15271440889E+02  0.17770000000E+01 0. -1.
         15    1    3    3    0    0 -0.15084211750E+03  0.26094486373E+02  0.16067366760E+01  0.15310129314E+03  0.17770000000E+01 0.  1.
</event>
<event>
 7    1  0.9281110E-008  0.1407923E+03  0.7546771E-02  0.1107555E+00
        -11   -1    0    0    0    0  0.00000000000E+00  0.00000000000E+00  0.18250000000E+03  0.18250000000E+03  0.00000000000E+00 0. -1.
         11   -1    0    0    0    0 -0.00000000000E+00 -0.00000000000E+00 -0.18250000000E+03  0.18250000000E+03  0.00000000000E+00 0. -1.
         23    2    1    2    0    0 -0.86483056879E+02  0.40580072325E+02 -0.54649942995E+02  0.14321742867E+03  0.91643626119E+02 0.  0.
        -11    1    1    2    0    0 -0.25961417052E+02 -0.87766603528E+02  0.36319241367E+02  0.98468569421E+02  0.00000000000E+00 0. -1.
         11    1    1    2    0    0  0.11244447393E+03  0.47186531203E+02  0.18330701628E+02  0.12331400191E+03  0.00000000000E+00 0. -1.
        -15    1    3    3    0    0 -0.22824703386E+02  0.58569256975E+02 -0.10729370993E+02  0.63793432876E+02  0.17770000000E+01 0.  1.
         15    1    3    3    0    0 -0.63658353493E+02 -0.17989184650E+02 -0.43920572002E+02  0.79423995793E+02  0.17770000000E+01 0. -1.
</event>
<event>
 7    1  0.9281110E-008  0.2191578E+03  0.7546771E-02  0.1042523E+00
        -11   -1    0    0    0    0  0.00000000000E+00  0.00000000000E+00  0.18250000000E+03  0.18250000000E+03  0.00000000000E+00 0.  1.
         11   -1    0    0    0    0 -0.00000000000E+00 -0.00000000000E+00 -0.18250000000E+03  0.18250000000E+03  0.00000000000E+00 0. -1.
         23    2    1    2    0    0  0.21185082623E+02  0.14057754056E+02 -0.16466493701E+02  0.96406207872E+02  0.91523676317E+02 0.  0.
        -11    1    1    2    0    0 -0.53334164460E+02 -0.14799552292E+02  0.13493102386E+03  0.14584217856E+03  0.00000000000E+00 0.  1.
         11    1    1    2    0    0  0.32149081837E+02  0.74179823618E+00 -0.11846453016E+03  0.12275161357E+03  0.00000000000E+00 0. -1.
        -15    1    3    3    0    0 -0.24087047469E+02 -0.87722005720E+01 -0.34097674424E+02  0.42695977431E+02  0.17770000000E+01 0. -1.
         15    1    3    3    0    0  0.45272130091E+02  0.22829954628E+02  0.17631180723E+02  0.53710230441E+02  0.17770000000E+01 0.  1.
</event>
<event>
 7    1  0.9281110E-008  0.1351894E+03  0.7546771E-02  0.1113941E+00
        -11   -1    0    0    0    0  0.00000000000E+00  0.00000000000E+00  0.18250000000E+03  0.18250000000E+03  0.00000000000E+00 0.  1.
         11   -1    0    0    0    0 -0.00000000000E+00 -0.00000000000E+00 -0.18250000000E+03  0.18250000000E+03  0.00000000000E+00 0. -1.
         23    2    1    2    0    0 -0.36488292267E+02  0.23808696330E+02  0.50306724186E+02  0.11350738680E+03  0.91950589267E+02 0.  0.
        -11    1    1    2    0    0 -0.90096311055E+02  0.44137070619E+02 -0.38063829334E+02  0.10730461953E+03  0.00000000000E+00 0.  1.
         11    1    1    2    0    0  0.12658460332E+03 -0.67945766949E+02 -0.12242894852E+02  0.14418799367E+03  0.00000000000E+00 0. -1.
        -15    1    3    3    0    0  0.74161036421E-01 -0.27952361702E+02 -0.60815834954E+01  0.28661531909E+02  0.17770000000E+01 0. -1.
         15    1    3    3    0    0 -0.36562453303E+02  0.51761058032E+02  0.56388307682E+02  0.84845854892E+02  0.17770000000E+01 0.  1.
</event>
<event>
 7    1  0.9281110E-008  0.1718601E+03  0.7546771E-02  0.1077254E+00
        -11   -1    0    0    0    0  0.00000000000E+00  0.00000000000E+00  0.18250000000E+03  0.18250000000E+03  0.00000000000E+00 0. -1.
         11   -1    0    0    0    0 -0.00000000000E+00 -0.00000000000E+00 -0.18250000000E+03  0.18250000000E+03  0.00000000000E+00 0.  1.
         23    2    1    2    0    0 -0.15101474311E+02  0.21924975462E+02 -0.14079568395E+03  0.17007721439E+03  0.91619185549E+02 0.  0.
        -11    1    1    2    0    0  0.59170586038E+02 -0.26554856862E+02  0.13559443896E+03  0.15030692117E+03  0.00000000000E+00 0. -1.
         11    1    1    2    0    0 -0.44069111727E+02  0.46298814002E+01  0.52012449877E+01  0.44615864439E+02  0.00000000000E+00 0.  1.
        -15    1    3    3    0    0  0.33434530189E+02  0.47155110899E+01 -0.21342778081E+02  0.39984694060E+02  0.17770000000E+01 0. -1.
         15    1    3    3    0    0 -0.48536004500E+02  0.17209464372E+02 -0.11945290587E+03  0.13009252033E+03  0.17770000000E+01 0.  1.
</event>
<event>
 7    1  0.9281110E-008  0.1613665E+03  0.7546771E-02  0.1086644E+00
        -11   -1    0    0    0    0  0.00000000000E+00  0.00000000000E+00  0.18250000000E+03  0.18250000000E+03  0.00000000000E+00 0. -1.
         11   -1    0    0    0    0 -0.00000000000E+00 -0.00000000000E+00 -0.18250000000E+03  0.18250000000E+03  0.00000000000E+00 0.  1.
         23    2    1    2    0    0 -0.52140373901E+02 -0.60788948040E+02 -0.83299465884E+02  0.14766404574E+03  0.91934512529E+02 0.  0.
        -11    1    1    2    0    0  0.27783329443E+02 -0.56448413795E+02 -0.12308729664E+02  0.64108046615E+02  0.00000000000E+00 0. -1.
         11    1    1    2    0    0  0.24357044458E+02  0.11723736184E+03  0.95608195548E+02  0.15322790764E+03  0.00000000000E+00 0.  1.
        -15    1    3    3    0    0 -0.19739717550E+02  0.21734367953E+01  0.16087336631E+02  0.25619141386E+02  0.17770000000E+01 0. -1.
         15    1    3    3    0    0 -0.32400656351E+02 -0.62962384835E+02 -0.99386802515E+02  0.12204490436E+03  0.17770000000E+01 0.  1.
</event>
<event>
 7    1  0.9281110E-008  0.1366328E+03  0.7546771E-02  0.1112264E+00
        -11   -1    0    0    0    0  0.00000000000E+00  0.00000000000E+00  0.18250000000E+03  0.18250000000E+03  0.00000000000E+00 0.  1.
         11   -1    0    0    0    0 -0.00000000000E+00 -0.00000000000E+00 -0.18250000000E+03  0.18250000000E+03  0.00000000000E+00 0. -1.
         23    2    1    2    0    0 -0.40426544033E+02  0.75469415758E+02 -0.54045939951E+02  0.13686858824E+03  0.92098363959E+02 0.  0.
        -11    1    1    2    0    0 -0.59530883116E+02 -0.10184726980E+03  0.34602915528E+02  0.12293963630E+03  0.00000000000E+00 0.  1.
         11    1    1    2    0    0  0.99957427149E+02  0.26377854043E+02  0.19443024423E+02  0.10519177546E+03  0.00000000000E+00 0. -1.
        -15    1    3    3    0    0 -0.19940835564E+02  0.86108987300E+02 -0.12469704990E+02  0.89280713978E+02  0.17770000000E+01 0.  1.
         15    1    3    3    0    0 -0.20485708469E+02 -0.10639571543E+02 -0.41576234961E+02  0.47587874260E+02  0.17770000000E+01 0. -1.
</event>
<event>
 7    1  0.9281110E-008  0.1791285E+03  0.7546771E-02  0.1071171E+00
        -11   -1    0    0    0    0  0.00000000000E+00  0.00000000000E+00  0.18250000000E+03  0.18250000000E+03  0.00000000000E+00 0.  1.
         11   -1    0    0    0    0 -0.00000000000E+00 -0.00000000000E+00 -0.18250000000E+03  0.18250000000E+03  0.00000000000E+00 0. -1.
         23    2    1    2    0    0  0.13134869759E+03 -0.79495418273E+02 -0.41575946626E+02  0.18280777919E+03  0.90100626582E+02 0.  0.
        -11    1    1    2    0    0 -0.13845152673E+03  0.60749328824E+02  0.19618993364E+02  0.15246052311E+03  0.00000000000E+00 0. -1.
         11    1    1    2    0    0  0.71028291422E+01  0.18746089449E+02  0.21956953262E+02  0.29731697698E+02  0.00000000000E+00 0.  1.
        -15    1    3    3    0    0  0.52449432716E+01  0.17438401060E+02 -0.92101946356E+01  0.20483961425E+02  0.17770000000E+01 0. -1.
         15    1    3    3    0    0  0.12610375432E+03 -0.96933819333E+02 -0.32365751991E+02  0.16232381777E+03  0.17770000000E+01 0.  1.
</event>
<event>
 7    1  0.9281110E-008  0.1416027E+03  0.7546771E-02  0.1106659E+00
        -11   -1    0    0    0    0  0.00000000000E+00  0.00000000000E+00  0.18250000000E+03  0.18250000000E+03  0.00000000000E+00 0. -1.
         11   -1    0    0    0    0 -0.00000000000E+00 -0.00000000000E+00 -0.18250000000E+03  0.18250000000E+03  0.00000000000E+00 0. -1.
         23    2    1    2    0    0 -0.36563672077E+02 -0.33041847864E+02 -0.76023516585E+02  0.12910201745E+03  0.91973311401E+02 0.  0.
        -11    1    1    2    0    0  0.11611441621E+03 -0.22979995099E+02  0.71943078646E+02  0.13851514138E+03  0.00000000000E+00 0. -1.
         11    1    1    2    0    0 -0.79550744130E+02  0.56021842963E+02  0.40804379388E+01  0.97382841170E+02  0.00000000000E+00 0. -1.
        -15    1    3    3    0    0 -0.47856094888E+02 -0.32497411195E+02 -0.92456672767E+02  0.10907649435E+03  0.17770000000E+01 0. -1.
         15    1    3    3    0    0  0.11292422810E+02 -0.54443666831E+00  0.16433156183E+02  0.20025523098E+02  0.17770000000E+01 0.  1.
</event>
<event>
 7    1  0.9281110E-008  0.2126127E+03  0.7546771E-02  0.1046729E+00
        -11   -1    0    0    0    0  0.00000000000E+00  0.00000000000E+00  0.18250000000E+03  0.18250000000E+03  0.00000000000E+00 0.  1.
         11   -1    0    0    0    0 -0.00000000000E+00 -0.00000000000E+00 -0.18250000000E+03  0.18250000000E+03  0.00000000000E+00 0. -1.
         23    2    1    2    0    0  0.30203886745E+02  0.32845550838E+02 -0.34562782755E+02  0.10788622439E+03  0.91944257447E+02 0.  0.
        -11    1    1    2    0    0 -0.10854275541E+03 -0.10227258278E+03  0.31315798683E+02  0.15238730324E+03  0.00000000000E+00 0.  1.
         11    1    1    2    0    0  0.78338868668E+02  0.69427031944E+02  0.32469840720E+01  0.10472647237E+03  0.00000000000E+00 0. -1.
        -15    1    3    3    0    0  0.80593573074E+01  0.13100343751E+02  0.31690937579E+02  0.35271029192E+02  0.17770000000E+01 0.  1.
         15    1    3    3    0    0  0.22144529438E+02  0.19745207087E+02 -0.66253720334E+02  0.72615195201E+02  0.17770000000E+01 0. -1.
</event>
<event>
 7    1  0.9281110E-008  0.1300611E+03  0.7546771E-02  0.1120093E+00
        -11   -1    0    0    0    0  0.00000000000E+00  0.00000000000E+00  0.18250000000E+03  0.18250000000E+03  0.00000000000E+00 0. -1.
         11   -1    0    0    0    0 -0.00000000000E+00 -0.00000000000E+00 -0.18250000000E+03  0.18250000000E+03  0.00000000000E+00 0. -1.
         23    2    1    2    0    0 -0.24225422047E+02  0.50417221221E+01  0.86409174472E+02  0.13017808217E+03  0.94167391435E+02 0.  0.
        -11    1    1    2    0    0  0.86220516564E+02 -0.76611815205E+02 -0.15180560214E+02  0.11633484909E+03  0.00000000000E+00 0. -1.
         11    1    1    2    0    0 -0.61995094517E+02  0.71570093082E+02 -0.71228614258E+02  0.11848706873E+03  0.00000000000E+00 0. -1.
        -15    1    3    3    0    0 -0.92338655822E+01 -0.39606749526E+02  0.12616278373E+02  0.42617919829E+02  0.17770000000E+01 0. -1.
         15    1    3    3    0    0 -0.14991556465E+02  0.44648471648E+02  0.73792896099E+02  0.87560162342E+02  0.17770000000E+01 0.  1.
</event>
<event>
 7    1  0.9281110E-008  0.1293847E+03  0.7546771E-02  0.1120928E+00
        -11   -1    0    0    0    0  0.00000000000E+00  0.00000000000E+00  0.18250000000E+03  0.18250000000E+03  0.00000000000E+00 0. -1.
         11   -1    0    0    0    0 -0.00000000000E+00 -0.00000000000E+00 -0.18250000000E+03  0.18250000000E+03  0.00000000000E+00 0.  1.
         23    2    1    2    0    0 -0.15302078674E+02  0.24404601465E+02 -0.79015515865E+02  0.12426484673E+03  0.91479845867E+02 0.  0.
        -11    1    1    2    0    0  0.37354228029E+02 -0.10896730077E+03 -0.10456422005E+02  0.11566567230E+03  0.00000000000E+00 0. -1.
         11    1    1    2    0    0 -0.22052149355E+02  0.84562699302E+02  0.89471937870E+02  0.12506948097E+03  0.00000000000E+00 0.  1.
        -15    1    3    3    0    0 -0.44929106923E+02 -0.85445854972E+00 -0.71660373640E+02  0.84603319247E+02  0.17770000000E+01 0.  1.
         15    1    3    3    0    0  0.29627028250E+02  0.25259060015E+02 -0.73551422248E+01  0.39661527478E+02  0.17770000000E+01 0. -1.
</event>
<event>
 7    1  0.9281110E-008  0.1478791E+03  0.7546771E-02  0.1099932E+00
        -11   -1    0    0    0    0  0.00000000000E+00  0.00000000000E+00  0.18250000000E+03  0.18250000000E+03  0.00000000000E+00 0. -1.
         11   -1    0    0    0    0 -0.00000000000E+00 -0.00000000000E+00 -0.18250000000E+03  0.18250000000E+03  0.00000000000E+00 0. -1.
         23    2    1    2    0    0  0.11725214718E+03 -0.10444089332E+02  0.34421964306E+02  0.14372200707E+03  0.74926621898E+02 0.  0.
        -11    1    1    2    0    0 -0.91338144013E+02  0.47439586610E+02 -0.98777053703E+02  0.14265369700E+03  0.00000000000E+00 0. -1.
         11    1    1    2    0    0 -0.25914003169E+02 -0.36995497277E+02  0.64355089397E+02  0.78624295929E+02  0.00000000000E+00 0. -1.
        -15    1    3    3    0    0  0.12389178950E+03  0.31073241228E+01  0.33995664988E+02  0.12852118088E+03  0.17770000000E+01 0. -1.
         15    1    3    3    0    0 -0.66396423164E+01 -0.13551413455E+02  0.42629931790E+00  0.15200826189E+02  0.17770000000E+01 0.  1.
</event>
<event>
 7    1  0.9281110E-008  0.1709295E+03  0.7546771E-02  0.1078057E+00
        -11   -1    0    0    0    0  0.00000000000E+00  0.00000000000E+00  0.18250000000E+03  0.18250000000E+03  0.00000000000E+00 0.  1.
         11   -1    0    0    0    0 -0.00000000000E+00 -0.00000000000E+00 -0.18250000000E+03  0.18250000000E+03  0.00000000000E+00 0.  1.
         23    2    1    2    0    0 -0.45868163868E+01  0.81280227456E+02 -0.97197306105E+02  0.15611866558E+03  0.91094495825E+02 0.  0.
        -11    1    1    2    0    0  0.30572048880E+02 -0.11771904472E+03  0.10820711698E+03  0.16279190345E+03  0.00000000000E+00 0.  1.
         11    1    1    2    0    0 -0.25985232493E+02  0.36438817267E+02 -0.11009810874E+02  0.46089430968E+02  0.00000000000E+00 0.  1.
        -15    1    3    3    0    0 -0.31823029400E+02 -0.14799939354E+01 -0.11554243025E+02  0.33934552350E+02  0.17770000000E+01 0. -1.
         15    1    3    3    0    0  0.27236213014E+02  0.82760221392E+02 -0.85643063080E+02  0.12218411323E+03  0.17770000000E+01 0.  1.
</event>
<event>
 7    1  0.9281110E-008  0.1384660E+03  0.7546771E-02  0.1110166E+00
        -11   -1    0    0    0    0  0.00000000000E+00  0.00000000000E+00  0.18250000000E+03  0.18250000000E+03  0.00000000000E+00 0.  1.
         11   -1    0    0    0    0 -0.00000000000E+00 -0.00000000000E+00 -0.18250000000E+03  0.18250000000E+03  0.00000000000E+00 0.  1.
         23    2    1    2    0    0  0.44868149611E+01  0.21449838527E+02 -0.67645667111E+02  0.11612767224E+03  0.91812160957E+02 0.  0.
        -11    1    1    2    0    0 -0.27446029638E+02  0.97226853093E+02 -0.15432425462E+02  0.10219836232E+03  0.00000000000E+00 0.  1.
         11    1    1    2    0    0  0.22959214677E+02 -0.11867669162E+03  0.83078092573E+02  0.14667396544E+03  0.00000000000E+00 0.  1.
        -15    1    3    3    0    0  0.26643283156E+02  0.31429559554E+02 -0.79099029715E+02  0.89204797976E+02  0.17770000000E+01 0.  1.
         15    1    3    3    0    0 -0.22156468195E+02 -0.99797210264E+01  0.11453362604E+02  0.26922874263E+02  0.17770000000E+01 0. -1.
</event>
<event>
 7    1  0.1173952E-007  0.1414012E+03  0.7546771E-02  0.1106881E+00
        -11   -1    0    0    0    0  0.00000000000E+00  0.00000000000E+00  0.18250000000E+03  0.18250000000E+03  0.00000000000E+00 0. -1.
         11   -1    0    0    0    0 -0.00000000000E+00 -0.00000000000E+00 -0.18250000000E+03  0.18250000000E+03  0.00000000000E+00 0.  1.
         23    2    1    2    0    0  0.20006663005E+02  0.44693069961E+02 -0.25717632293E+02  0.12674382420E+03  0.11403886747E+03 0.  0.
        -11    1    1    2    0    0 -0.12299907638E+03  0.20665142148E+01  0.22780573091E+02  0.12510794452E+03  0.00000000000E+00 0. -1.
         11    1    1    2    0    0  0.10299241338E+03 -0.46759584176E+02  0.29370592023E+01  0.11314823128E+03  0.00000000000E+00 0.  1.
        -15    1    3    3    0    0  0.33882932777E+02 -0.31693158136E+02 -0.10761253549E+02  0.47659959223E+02  0.17770000000E+01 0. -1.
         15    1    3    3    0    0 -0.13876269772E+02  0.76386228097E+02 -0.14956378744E+02  0.79083864977E+02  0.17770000000E+01 0.  1.
</event>
<event>
 7    1  0.9281110E-008  0.2176611E+03  0.7546771E-02  0.1043471E+00
        -11   -1    0    0    0    0  0.00000000000E+00  0.00000000000E+00  0.18250000000E+03  0.18250000000E+03  0.00000000000E+00 0.  1.
         11   -1    0    0    0    0 -0.00000000000E+00 -0.00000000000E+00 -0.18250000000E+03  0.18250000000E+03  0.00000000000E+00 0. -1.
         23    2    1    2    0    0  0.60559972833E+01 -0.50155208656E+01  0.32391411763E+02  0.95649474796E+02  0.89653711134E+02 0.  0.
        -11    1    1    2    0    0  0.10095529043E+03 -0.77530585765E+01  0.68079007036E+02  0.12201160511E+03  0.00000000000E+00 0.  1.
         11    1    1    2    0    0 -0.10701128772E+03  0.12768579442E+02 -0.10047041880E+03  0.14733892009E+03  0.00000000000E+00 0. -1.
        -15    1    3    3    0    0 -0.21511456011E+02  0.33477681237E+02  0.26643764098E+02  0.47922288917E+02  0.17770000000E+01 0.  1.
         15    1    3    3    0    0  0.27567453295E+02 -0.38493202102E+02  0.57476476651E+01  0.47727185879E+02  0.17770000000E+01 0. -1.
</event>
<event>
 7    1  0.9281110E-008  0.2106143E+03  0.7546771E-02  0.1048046E+00
        -11   -1    0    0    0    0  0.00000000000E+00  0.00000000000E+00  0.18250000000E+03  0.18250000000E+03  0.00000000000E+00 0.  1.
         11   -1    0    0    0    0 -0.00000000000E+00 -0.00000000000E+00 -0.18250000000E+03  0.18250000000E+03  0.00000000000E+00 0. -1.
         23    2    1    2    0    0  0.20077969315E+02 -0.16899371134E+02  0.68654777700E+02  0.11740180759E+03  0.91547759821E+02 0.  0.
        -11    1    1    2    0    0  0.16004753201E+02 -0.78981877896E+02  0.46843135559E+02  0.93212491170E+02  0.00000000000E+00 0.  1.
         11    1    1    2    0    0 -0.36082722516E+02  0.95881249030E+02 -0.11549791326E+03  0.15438570124E+03  0.00000000000E+00 0. -1.
        -15    1    3    3    0    0  0.20068664154E+02  0.17521429377E+01  0.88104516924E+02  0.90395712936E+02  0.17770000000E+01 0.  1.
         15    1    3    3    0    0  0.93051608073E-02 -0.18651514071E+02 -0.19449739223E+02  0.27006094656E+02  0.17770000000E+01 0. -1.
</event>
<event>
 7    1  0.9281110E-008  0.2200500E+03  0.7546771E-02  0.1041962E+00
        -11   -1    0    0    0    0  0.00000000000E+00  0.00000000000E+00  0.18250000000E+03  0.18250000000E+03  0.00000000000E+00 0.  1.
         11   -1    0    0    0    0 -0.00000000000E+00 -0.00000000000E+00 -0.18250000000E+03  0.18250000000E+03  0.00000000000E+00 0. -1.
         23    2    1    2    0    0 -0.25641612395E+02  0.37881643905E+01 -0.36456911301E+00  0.94251569769E+02  0.90616681784E+02 0.  0.
        -11    1    1    2    0    0  0.12114043081E+03  0.52631606307E+02  0.59711176181E+02  0.14495004147E+03  0.00000000000E+00 0.  1.
         11    1    1    2    0    0 -0.95498818420E+02 -0.56419770698E+02 -0.59346607068E+02  0.12579838876E+03  0.00000000000E+00 0. -1.
        -15    1    3    3    0    0  0.12907023257E+01 -0.29922134549E+02 -0.29564657813E+02  0.42121571304E+02  0.17770000000E+01 0.  1.
         15    1    3    3    0    0 -0.26932314721E+02  0.33710298940E+02  0.29200088700E+02  0.52129998465E+02  0.17770000000E+01 0. -1.
</event>
<event>
 7    1  0.9281110E-008  0.1885191E+03  0.7546771E-02  0.1063762E+00
        -11   -1    0    0    0    0  0.00000000000E+00  0.00000000000E+00  0.18250000000E+03  0.18250000000E+03  0.00000000000E+00 0.  1.
         11   -1    0    0    0    0 -0.00000000000E+00 -0.00000000000E+00 -0.18250000000E+03  0.18250000000E+03  0.00000000000E+00 0. -1.
         23    2    1    2    0    0 -0.50170829982E+02  0.39807513363E+02 -0.15014644296E+03  0.18851914272E+03  0.94306747045E+02 0.  0.
        -11    1    1    2    0    0  0.47644935790E+02 -0.10145584674E+02  0.13407538816E+03  0.14265056083E+03  0.00000000000E+00 0.  1.
         11    1    1    2    0    0  0.25258941925E+01 -0.29661928689E+02  0.16071054800E+02  0.33830296443E+02  0.00000000000E+00 0. -1.
        -15    1    3    3    0    0 -0.21179905466E+02  0.62655822221E+02 -0.53625978254E+02  0.85165977517E+02  0.17770000000E+01 0. -1.
         15    1    3    3    0    0 -0.28990924517E+02 -0.22848308858E+02 -0.96520464708E+02  0.10335316521E+03  0.17770000000E+01 0.  1.
</event>
<event>
 7    1  0.9281110E-008  0.2147887E+03  0.7546771E-02  0.1045313E+00
        -11   -1    0    0    0    0  0.00000000000E+00  0.00000000000E+00  0.18250000000E+03  0.18250000000E+03  0.00000000000E+00 0. -1.
         11   -1    0    0    0    0 -0.00000000000E+00 -0.00000000000E+00 -0.18250000000E+03  0.18250000000E+03  0.00000000000E+00 0.  1.
         23    2    1    2    0    0 -0.50989348776E+02 -0.93184104115E+01 -0.13962389394E+02  0.10522988872E+03  0.90507649960E+02 0.  0.
        -11    1    1    2    0    0  0.11068958413E+03  0.10108241422E+03  0.96739187290E+01  0.15021126190E+03  0.00000000000E+00 0. -1.
         11    1    1    2    0    0 -0.59700235357E+02 -0.91764003804E+02  0.42884706647E+01  0.10955884938E+03  0.00000000000E+00 0.  1.
        -15    1    3    3    0    0 -0.66368299871E+02  0.10204205728E+02  0.13107763108E+02  0.68438645698E+02  0.17770000000E+01 0.  1.
         15    1    3    3    0    0  0.15378951094E+02 -0.19522616139E+02 -0.27070152501E+02  0.36791243022E+02  0.17770000000E+01 0. -1.
</event>
<event>
 7    1  0.9281110E-008  0.1582577E+03  0.7546771E-02  0.1089577E+00
        -11   -1    0    0    0    0  0.00000000000E+00  0.00000000000E+00  0.18250000000E+03  0.18250000000E+03  0.00000000000E+00 0. -1.
         11   -1    0    0    0    0 -0.00000000000E+00 -0.00000000000E+00 -0.18250000000E+03  0.18250000000E+03  0.00000000000E+00 0. -1.
         23    2    1    2    0    0 -0.55606690892E+02  0.21202098558E+01 -0.12064030795E+03  0.16138244964E+03  0.91616656728E+02 0.  0.
        -11    1    1    2    0    0 -0.11443308349E+02 -0.15414881063E+02  0.13280738421E+03  0.13418781303E+03  0.00000000000E+00 0. -1.
         11    1    1    2    0    0  0.67049999241E+02  0.13294671208E+02 -0.12167076264E+02  0.69429737329E+02  0.00000000000E+00 0. -1.
        -15    1    3    3    0    0 -0.52515960348E+01  0.22403617194E+02 -0.10103366199E+03  0.10363619015E+03  0.17770000000E+01 0. -1.
         15    1    3    3    0    0 -0.50355094857E+02 -0.20283407338E+02 -0.19606645959E+02  0.57746259498E+02  0.17770000000E+01 0.  1.
</event>
<event>
 7    1  0.9281110E-008  0.1321535E+03  0.7546771E-02  0.1117546E+00
        -11   -1    0    0    0    0  0.00000000000E+00  0.00000000000E+00  0.18250000000E+03  0.18250000000E+03  0.00000000000E+00 0.  1.
         11   -1    0    0    0    0 -0.00000000000E+00 -0.00000000000E+00 -0.18250000000E+03  0.18250000000E+03  0.00000000000E+00 0. -1.
         23    2    1    2    0    0 -0.51043859245E+00 -0.30755335413E+02  0.22396705418E+02  0.97968201542E+02  0.90277377542E+02 0.  0.
        -11    1    1    2    0    0 -0.11192161852E+03 -0.46723283779E+02  0.22388787597E+02  0.12333195753E+03  0.00000000000E+00 0.  1.
         11    1    1    2    0    0  0.11243205711E+03  0.77478619191E+02 -0.44785493015E+02  0.14369984093E+03  0.00000000000E+00 0. -1.
        -15    1    3    3    0    0  0.83562937047E+01  0.15012093867E+02  0.43470938906E+02  0.46776819742E+02  0.17770000000E+01 0. -1.
         15    1    3    3    0    0 -0.88667322972E+01 -0.45767429279E+02 -0.21074233488E+02  0.51191381800E+02  0.17770000000E+01 0.  1.
</event>
<event>
 7    1  0.9281110E-008  0.1411179E+03  0.7546771E-02  0.1107195E+00
        -11   -1    0    0    0    0  0.00000000000E+00  0.00000000000E+00  0.18250000000E+03  0.18250000000E+03  0.00000000000E+00 0. -1.
         11   -1    0    0    0    0 -0.00000000000E+00 -0.00000000000E+00 -0.18250000000E+03  0.18250000000E+03  0.00000000000E+00 0. -1.
         23    2    1    2    0    0  0.20319928537E+02 -0.92342645047E+02 -0.62900411194E+02  0.15116889611E+03  0.99777301184E+02 0.  0.
        -11    1    1    2    0    0  0.76082952964E+02  0.37855448359E+02  0.58192983182E+02  0.10299550473E+03  0.00000000000E+00 0. -1.
         11    1    1    2    0    0 -0.96402881501E+02  0.54487196687E+02  0.47074280124E+01  0.11083559917E+03  0.00000000000E+00 0. -1.
        -15    1    3    3    0    0  0.35683098015E+02  0.61380888569E+01 -0.71440299974E+01  0.36947997406E+02  0.17770000000E+01 0.  1.
         15    1    3    3    0    0 -0.15363169477E+02 -0.98480733904E+02 -0.55756381197E+02  0.11422089870E+03  0.17770000000E+01 0. -1.
</event>
<event>
 7    1  0.9281110E-008  0.1514256E+03  0.7546771E-02  0.1096291E+00
        -11   -1    0    0    0    0  0.00000000000E+00  0.00000000000E+00  0.18250000000E+03  0.18250000000E+03  0.00000000000E+00 0. -1.
         11   -1    0    0    0    0 -0.00000000000E+00 -0.00000000000E+00 -0.18250000000E+03  0.18250000000E+03  0.00000000000E+00 0. -1.
         23    2    1    2    0    0 -0.44824837696E+02  0.90426967189E+00  0.10535136265E+03  0.14605877966E+03  0.90687230230E+02 0.  0.
        -11    1    1    2    0    0 -0.50539319644E+02 -0.58355059645E+02 -0.23293540134E+02  0.80635754031E+02  0.00000000000E+00 0. -1.
         11    1    1    2    0    0  0.95364157340E+02  0.57450789973E+02 -0.82057822516E+02  0.13830546630E+03  0.00000000000E+00 0. -1.
        -15    1    3    3    0    0 -0.71177353640E+02  0.13949271155E+01  0.58029087531E+02  0.91862365643E+02  0.17770000000E+01 0. -1.
         15    1    3    3    0    0  0.26352515944E+02 -0.49065744366E+00  0.47322275119E+02  0.54196414022E+02  0.17770000000E+01 0.  1.
</event>
<event>
 7    1  0.9281110E-008  0.1861532E+03  0.7546771E-02  0.1065584E+00
        -11   -1    0    0    0    0  0.00000000000E+00  0.00000000000E+00  0.18250000000E+03  0.18250000000E+03  0.00000000000E+00 0. -1.
         11   -1    0    0    0    0 -0.00000000000E+00 -0.00000000000E+00 -0.18250000000E+03  0.18250000000E+03  0.00000000000E+00 0.  1.
         23    2    1    2    0    0  0.33630225784E+01  0.75391109010E+02  0.14092733141E+03  0.18477516215E+03  0.92661850683E+02 0.  0.
        -11    1    1    2    0    0 -0.80263052621E+01 -0.90770242936E+02 -0.13544424495E+03  0.16324460809E+03  0.00000000000E+00 0.  1.
         11    1    1    2    0    0  0.46632826837E+01  0.15379133926E+02 -0.54830864506E+01  0.16980229760E+02  0.00000000000E+00 0. -1.
        -15    1    3    3    0    0 -0.16922387249E+02  0.79339259097E+02  0.14248952466E+03  0.16397410646E+03  0.17770000000E+01 0. -1.
         15    1    3    3    0    0  0.20285409827E+02 -0.39481500873E+01 -0.15621932511E+01  0.20801055688E+02  0.17770000000E+01 0.  1.
</event>
<event>
 7    1  0.9281110E-008  0.1549082E+03  0.7546771E-02  0.1092821E+00
        -11   -1    0    0    0    0  0.00000000000E+00  0.00000000000E+00  0.18250000000E+03  0.18250000000E+03  0.00000000000E+00 0. -1.
         11   -1    0    0    0    0 -0.00000000000E+00 -0.00000000000E+00 -0.18250000000E+03  0.18250000000E+03  0.00000000000E+00 0. -1.
         23    2    1    2    0    0  0.63891520607E+02  0.22628191813E+01 -0.90775431036E+02  0.14438946417E+03  0.92308676338E+02 0.  0.
        -11    1    1    2    0    0 -0.24203966291E+02 -0.62546792609E+02 -0.34960626705E+02  0.75631862793E+02  0.00000000000E+00 0. -1.
         11    1    1    2    0    0 -0.39687554316E+02  0.60283973428E+02  0.12573605774E+03  0.14497867304E+03  0.00000000000E+00 0. -1.
        -15    1    3    3    0    0  0.40474631758E+02 -0.43807254357E+02 -0.39447876202E+02  0.71530161583E+02  0.17770000000E+01 0.  1.
         15    1    3    3    0    0  0.23416888849E+02  0.46070073538E+02 -0.51327554834E+02  0.72859302587E+02  0.17770000000E+01 0. -1.
</event>
<event>
 7    1  0.9281110E-008  0.1652149E+03  0.7546771E-02  0.1083112E+00
        -11   -1    0    0    0    0  0.00000000000E+00  0.00000000000E+00  0.18250000000E+03  0.18250000000E+03  0.00000000000E+00 0. -1.
         11   -1    0    0    0    0 -0.00000000000E+00 -0.00000000000E+00 -0.18250000000E+03  0.18250000000E+03  0.00000000000E+00 0. -1.
         23    2    1    2    0    0  0.96427936043E+01 -0.21550722241E+02  0.13602111889E+03  0.16601106936E+03  0.92198228120E+02 0.  0.
        -11    1    1    2    0    0 -0.29028376735E+02 -0.47442955135E+02 -0.13798504744E+02  0.57305142710E+02  0.00000000000E+00 0. -1.
         11    1    1    2    0    0  0.19385583131E+02  0.68993677376E+02 -0.12222261415E+03  0.14168378793E+03  0.00000000000E+00 0. -1.
        -15    1    3    3    0    0  0.15826933430E+02  0.13769855406E+02 -0.40261387104E+01  0.21435210790E+02  0.17770000000E+01 0.  1.
         15    1    3    3    0    0 -0.61841398261E+01 -0.35320577647E+02  0.14004725761E+03  0.14457585857E+03  0.17770000000E+01 0. -1.
</event>
<event>
 7    1  0.9281110E-008  0.1346543E+03  0.7546771E-02  0.1114569E+00
        -11   -1    0    0    0    0  0.00000000000E+00  0.00000000000E+00  0.18250000000E+03  0.18250000000E+03  0.00000000000E+00 0.  1.
         11   -1    0    0    0    0 -0.00000000000E+00 -0.00000000000E+00 -0.18250000000E+03  0.18250000000E+03  0.00000000000E+00 0.  1.
         23    2    1    2    0    0  0.15145284368E+02 -0.10936882451E+01 -0.80370823270E+02  0.12215317513E+03  0.90726805133E+02 0.  0.
        -11    1    1    2    0    0  0.91545536334E+02 -0.53447223881E+02  0.17202075448E+02  0.10739228260E+03  0.00000000000E+00 0.  1.
         11    1    1    2    0    0 -0.10669082070E+03  0.54540912126E+02  0.63168747822E+02  0.13545454226E+03  0.00000000000E+00 0.  1.
        -15    1    3    3    0    0  0.14450592068E+02 -0.44213409724E+02 -0.55127029562E+02  0.72151176899E+02  0.17770000000E+01 0. -1.
         15    1    3    3    0    0  0.69469229994E+00  0.43119721479E+02 -0.25243793708E+02  0.50001998236E+02  0.17770000000E+01 0.  1.
</event>
<event>
 7    1  0.9281110E-008  0.1594527E+03  0.7546771E-02  0.1088441E+00
        -11   -1    0    0    0    0  0.00000000000E+00  0.00000000000E+00  0.18250000000E+03  0.18250000000E+03  0.00000000000E+00 0.  1.
         11   -1    0    0    0    0 -0.00000000000E+00 -0.00000000000E+00 -0.18250000000E+03  0.18250000000E+03  0.00000000000E+00 0.  1.
         23    2    1    2    0    0  0.44816419036E+02 -0.59994257077E+02  0.85423955741E+02  0.14564986763E+03  0.91152670990E+02 0.  0.
        -11    1    1    2    0    0  0.58246099005E+02 -0.28677819511E+02 -0.16834291103E+02  0.67070252260E+02  0.00000000000E+00 0.  1.
         11    1    1    2    0    0 -0.10306251804E+03  0.88672076588E+02 -0.68589664637E+02  0.15227988011E+03  0.00000000000E+00 0.  1.
        -15    1    3    3    0    0 -0.44267881681E+01  0.20327454524E+02  0.43202531102E+01  0.21321917757E+02  0.17770000000E+01 0. -1.
         15    1    3    3    0    0  0.49243207204E+02 -0.80321711600E+02  0.81103702630E+02  0.12432794987E+03  0.17770000000E+01 0.  1.
</event>
<event>
 7    1  0.9281110E-008  0.1284455E+03  0.7546771E-02  0.1122096E+00
        -11   -1    0    0    0    0  0.00000000000E+00  0.00000000000E+00  0.18250000000E+03  0.18250000000E+03  0.00000000000E+00 0.  1.
         11   -1    0    0    0    0 -0.00000000000E+00 -0.00000000000E+00 -0.18250000000E+03  0.18250000000E+03  0.00000000000E+00 0. -1.
         23    2    1    2    0    0  0.46025377674E+02 -0.17902724134E+02  0.77240201934E+01  0.10329112711E+03  0.90391114223E+02 0.  0.
        -11    1    1    2    0    0  0.66896853736E+01 -0.58200896936E+02 -0.10946266810E+03  0.12415382395E+03  0.00000000000E+00 0. -1.
         11    1    1    2    0    0 -0.52715063048E+02  0.76103621070E+02  0.10173864790E+03  0.13755504894E+03  0.00000000000E+00 0.  1.
        -15    1    3    3    0    0  0.52445966975E+02  0.85420969886E+01 -0.26602074013E+02  0.59450609280E+02  0.17770000000E+01 0. -1.
         15    1    3    3    0    0 -0.64205893015E+01 -0.26444821123E+02  0.34326094207E+02  0.43840517831E+02  0.17770000000E+01 0.  1.
</event>
<event>
 7    1  0.9281110E-008  0.1894902E+03  0.7546771E-02  0.1063023E+00
        -11   -1    0    0    0    0  0.00000000000E+00  0.00000000000E+00  0.18250000000E+03  0.18250000000E+03  0.00000000000E+00 0.  1.
         11   -1    0    0    0    0 -0.00000000000E+00 -0.00000000000E+00 -0.18250000000E+03  0.18250000000E+03  0.00000000000E+00 0. -1.
         23    2    1    2    0    0  0.46558913984E+02  0.14963908776E+03 -0.52442923152E+02  0.18949021584E+03  0.92718351231E+02 0.  0.
        -11    1    1    2    0    0 -0.41985619334E+00 -0.24950207527E+02 -0.12085140851E+02  0.27726156680E+02  0.00000000000E+00 0. -1.
         11    1    1    2    0    0 -0.46139057791E+02 -0.12468888023E+03  0.64528064003E+02  0.14778362748E+03  0.00000000000E+00 0.  1.
        -15    1    3    3    0    0 -0.59167503075E+01 -0.10692319482E+02 -0.89894350960E+01  0.15274203824E+02  0.17770000000E+01 0.  1.
         15    1    3    3    0    0  0.52475664291E+02  0.16033140724E+03 -0.43453488056E+02  0.17421601202E+03  0.17770000000E+01 0. -1.
</event>
<event>
 7    1  0.9281110E-008  0.1829003E+03  0.7546771E-02  0.1068137E+00
        -11   -1    0    0    0    0  0.00000000000E+00  0.00000000000E+00  0.18250000000E+03  0.18250000000E+03  0.00000000000E+00 0. -1.
         11   -1    0    0    0    0 -0.00000000000E+00 -0.00000000000E+00 -0.18250000000E+03  0.18250000000E+03  0.00000000000E+00 0.  1.
         23    2    1    2    0    0 -0.95454199602E+02 -0.23886732081E+02 -0.12733894127E+03  0.18294358652E+03  0.87011893978E+02 0.  0.
        -11    1    1    2    0    0  0.15563387503E+02 -0.10303174360E+02 -0.87303512082E+01  0.20605665839E+02  0.00000000000E+00 0.  1.
         11    1    1    2    0    0  0.79890812100E+02  0.34189906440E+02  0.13606929247E+03  0.16145074764E+03  0.00000000000E+00 0. -1.
        -15    1    3    3    0    0  0.84445465780E+00  0.23765617289E+02 -0.25017693119E+02  0.34562412630E+02  0.17770000000E+01 0.  1.
         15    1    3    3    0    0 -0.96298654260E+02 -0.47652349369E+02 -0.10232124815E+03  0.14838117389E+03  0.17770000000E+01 0. -1.
</event>
<event>
 7    1  0.9281110E-008  0.1585773E+03  0.7546771E-02  0.1089272E+00
        -11   -1    0    0    0    0  0.00000000000E+00  0.00000000000E+00  0.18250000000E+03  0.18250000000E+03  0.00000000000E+00 0. -1.
         11   -1    0    0    0    0 -0.00000000000E+00 -0.00000000000E+00 -0.18250000000E+03  0.18250000000E+03  0.00000000000E+00 0.  1.
         23    2    1    2    0    0 -0.61429191602E+02 -0.38775693802E+02 -0.93989229404E+02  0.14947018216E+03  0.90720780974E+02 0.  0.
        -11    1    1    2    0    0  0.85693390718E+02 -0.20521408415E+02  0.11785999775E+03  0.14715795761E+03  0.00000000000E+00 0. -1.
         11    1    1    2    0    0 -0.24264199117E+02  0.59297102217E+02 -0.23870768350E+02  0.68371860233E+02  0.00000000000E+00 0.  1.
        -15    1    3    3    0    0 -0.53714707355E+02 -0.13419772431E+02 -0.38829592425E+01  0.55530128578E+02  0.17770000000E+01 0. -1.
         15    1    3    3    0    0 -0.77144842462E+01 -0.25355921371E+02 -0.90106270162E+02  0.93940053583E+02  0.17770000000E+01 0.  1.
</event>
<event>
 7    1  0.9281110E-008  0.1444433E+03  0.7546771E-02  0.1103568E+00
        -11   -1    0    0    0    0  0.00000000000E+00  0.00000000000E+00  0.18250000000E+03  0.18250000000E+03  0.00000000000E+00 0. -1.
         11   -1    0    0    0    0 -0.00000000000E+00 -0.00000000000E+00 -0.18250000000E+03  0.18250000000E+03  0.00000000000E+00 0.  1.
         23    2    1    2    0    0 -0.14103637313E+03  0.21605915317E+02 -0.43472914403E+02  0.17179664693E+03  0.85241536175E+02 0.  0.
        -11    1    1    2    0    0  0.72884326875E+02 -0.72393100992E+02  0.16585145466E+02  0.10405745156E+03  0.00000000000E+00 0. -1.
         11    1    1    2    0    0  0.68152046251E+02  0.50787185675E+02  0.26887768938E+02  0.89145901506E+02  0.00000000000E+00 0.  1.
        -15    1    3    3    0    0 -0.13900030330E+03 -0.52859538394E+01 -0.38174189208E+02  0.14425481648E+03  0.17770000000E+01 0.  1.
         15    1    3    3    0    0 -0.20360698211E+01  0.26891869156E+02 -0.52987251959E+01  0.27541830454E+02  0.17770000000E+01 0. -1.
</event>
<event>
 7    1  0.9281110E-008  0.2063387E+03  0.7546771E-02  0.1050919E+00
        -11   -1    0    0    0    0  0.00000000000E+00  0.00000000000E+00  0.18250000000E+03  0.18250000000E+03  0.00000000000E+00 0.  1.
         11   -1    0    0    0    0 -0.00000000000E+00 -0.00000000000E+00 -0.18250000000E+03  0.18250000000E+03  0.00000000000E+00 0. -1.
         23    2    1    2    0    0  0.13885872838E+02  0.70348667420E+00 -0.77556953788E+02  0.11793255545E+03  0.87747901382E+02 0.  0.
        -11    1    1    2    0    0  0.57766028878E+02 -0.25753511976E+02 -0.61769660954E+02  0.88406156380E+02  0.00000000000E+00 0. -1.
         11    1    1    2    0    0 -0.71651901716E+02  0.25050025302E+02  0.13932661474E+03  0.15866128817E+03  0.00000000000E+00 0.  1.
        -15    1    3    3    0    0 -0.24553587718E+02 -0.20151400878E+02 -0.36294961260E+01  0.32020128018E+02  0.17770000000E+01 0.  1.
         15    1    3    3    0    0  0.38439460556E+02  0.20854887552E+02 -0.73927457662E+02  0.85912427436E+02  0.17770000000E+01 0. -1.
</event>
<event>
 7    1  0.9281110E-008  0.1691185E+03  0.7546771E-02  0.1079635E+00
        -11   -1    0    0    0    0  0.00000000000E+00  0.00000000000E+00  0.18250000000E+03  0.18250000000E+03  0.00000000000E+00 0.  1.
         11   -1    0    0    0    0 -0.00000000000E+00 -0.00000000000E+00 -0.18250000000E+03  0.18250000000E+03  0.00000000000E+00 0.  1.
         23    2    1    2    0    0 -0.99233045581E+02 -0.45014797945E+02  0.29217990978E+02  0.15877075679E+03  0.11171809542E+03 0.  0.
        -11    1    1    2    0    0 -0.32418595867E+02 -0.78835357110E+01 -0.52744096909E+02  0.62410377759E+02  0.00000000000E+00 0.  1.
         11    1    1    2    0    0  0.13165164145E+03  0.52898333656E+02  0.23526105930E+02  0.14381886545E+03  0.00000000000E+00 0.  1.
        -15    1    3    3    0    0 -0.80126636940E+02 -0.60187778754E+02  0.62008621876E+02  0.11786039867E+03  0.17770000000E+01 0.  1.
         15    1    3    3    0    0 -0.19106408641E+02  0.15172980809E+02 -0.32790630898E+02  0.40910358119E+02  0.17770000000E+01 0. -1.
</event>
<event>
 7    1  0.9281110E-008  0.1294073E+03  0.7546771E-02  0.1120900E+00
        -11   -1    0    0    0    0  0.00000000000E+00  0.00000000000E+00  0.18250000000E+03  0.18250000000E+03  0.00000000000E+00 0.  1.
         11   -1    0    0    0    0 -0.00000000000E+00 -0.00000000000E+00 -0.18250000000E+03  0.18250000000E+03  0.00000000000E+00 0. -1.
         23    2    1    2    0    0 -0.12977515038E+02  0.41320878857E+02 -0.67215254674E+01  0.10250044864E+03  0.92657067408E+02 0.  0.
        -11    1    1    2    0    0 -0.17842181716E+02  0.22700536729E+02 -0.11662803625E+03  0.12014889369E+03  0.00000000000E+00 0. -1.
         11    1    1    2    0    0  0.30819696754E+02 -0.64021415586E+02  0.12334956172E+03  0.14235065767E+03  0.00000000000E+00 0.  1.
        -15    1    3    3    0    0  0.35536804155E+02  0.78873605820E+01  0.15366793069E+02  0.39552129712E+02  0.17770000000E+01 0.  1.
         15    1    3    3    0    0 -0.48514319193E+02  0.33433518275E+02 -0.22088318537E+02  0.62948318928E+02  0.17770000000E+01 0. -1.
</event>
<event>
 7    1  0.9281110E-008  0.1278682E+03  0.7546771E-02  0.1122820E+00
        -11   -1    0    0    0    0  0.00000000000E+00  0.00000000000E+00  0.18250000000E+03  0.18250000000E+03  0.00000000000E+00 0.  1.
         11   -1    0    0    0    0 -0.00000000000E+00 -0.00000000000E+00 -0.18250000000E+03  0.18250000000E+03  0.00000000000E+00 0. -1.
         23    2    1    2    0    0 -0.55554461897E+02  0.60622959324E+02  0.34867120140E+02  0.12480825347E+03  0.87177649847E+02 0.  0.
        -11    1    1    2    0    0 -0.12521117792E+02 -0.26261667650E+02 -0.12140923132E+03  0.12484652590E+03  0.00000000000E+00 0. -1.
         11    1    1    2    0    0  0.68075579689E+02 -0.34361291674E+02  0.86542111182E+02  0.11534522064E+03  0.00000000000E+00 0.  1.
        -15    1    3    3    0    0 -0.25321593854E+02  0.73509706110E+02  0.45646152770E+02  0.90175323672E+02  0.17770000000E+01 0.  1.
         15    1    3    3    0    0 -0.30232868043E+02 -0.12886746786E+02 -0.10779032630E+02  0.34632929796E+02  0.17770000000E+01 0. -1.
</event>
<event>
 7    1  0.9281110E-008  0.1588284E+03  0.7546771E-02  0.1089033E+00
        -11   -1    0    0    0    0  0.00000000000E+00  0.00000000000E+00  0.18250000000E+03  0.18250000000E+03  0.00000000000E+00 0. -1.
         11   -1    0    0    0    0 -0.00000000000E+00 -0.00000000000E+00 -0.18250000000E+03  0.18250000000E+03  0.00000000000E+00 0. -1.
         23    2    1    2    0    0  0.59234722865E+02  0.83649611572E+01 -0.88215927452E+02  0.14115301864E+03  0.92538639745E+02 0.  0.
        -11    1    1    2    0    0  0.55646766836E+02 -0.39188081617E+02 -0.11013420842E+02  0.68946093717E+02  0.00000000000E+00 0. -1.
         11    1    1    2    0    0 -0.11488148970E+03  0.30823120460E+02  0.99229348294E+02  0.15490088765E+03  0.00000000000E+00 0. -1.
        -15    1    3    3    0    0 -0.18299758003E+02  0.16151696945E+02 -0.14465239289E+01  0.24515477105E+02  0.17770000000E+01 0.  1.
         15    1    3    3    0    0  0.77534480869E+02 -0.77867357880E+01 -0.86769403523E+02  0.11663754153E+03  0.17770000000E+01 0. -1.
</event>
<event>
 6    1  0.9281110E-008  0.1989316E+03  0.7546771E-02  0.1056079E+00
        -11   -1    0    0    0    0  0.00000000000E+00  0.00000000000E+00  0.18250000000E+03  0.18250000000E+03  0.00000000000E+00 0. -1.
         11   -1    0    0    0    0 -0.00000000000E+00 -0.00000000000E+00 -0.18250000000E+03  0.18250000000E+03  0.00000000000E+00 0. -1.
        -11    1    1    2    0    0 -0.15175635496E+02  0.21604396505E+02 -0.16395627176E+03  0.16606838624E+03  0.00000000000E+00 0. -1.
         11    1    1    2    0    0 -0.22475749505E+02 -0.20403297535E+02  0.11851134047E+03  0.12233720483E+03  0.00000000000E+00 0. -1.
        -15    1    1    2    0    0  0.68112508731E+01 -0.79847660920E+01  0.43635780225E+02  0.44915350081E+02  0.17770000000E+01 0.  1.
         15    1    1    2    0    0  0.30840134128E+02  0.67836671217E+01  0.18091510579E+01  0.31679058843E+02  0.17770000000E+01 0. -1.
</event>
<event>
 7    1  0.9281110E-008  0.1683919E+03  0.7546771E-02  0.1080275E+00
        -11   -1    0    0    0    0  0.00000000000E+00  0.00000000000E+00  0.18250000000E+03  0.18250000000E+03  0.00000000000E+00 0.  1.
         11   -1    0    0    0    0 -0.00000000000E+00 -0.00000000000E+00 -0.18250000000E+03  0.18250000000E+03  0.00000000000E+00 0. -1.
         23    2    1    2    0    0  0.39071519143E+02  0.57116163930E+02 -0.99844136568E+02  0.15399604552E+03  0.94641907408E+02 0.  0.
        -11    1    1    2    0    0 -0.26153346351E+02 -0.10629003964E+03  0.11418630833E+03  0.15817737848E+03  0.00000000000E+00 0.  1.
         11    1    1    2    0    0 -0.12918172793E+02  0.49173875714E+02 -0.14342171765E+02  0.52826576001E+02  0.00000000000E+00 0. -1.
        -15    1    3    3    0    0  0.15038478715E+02  0.81409903567E+02 -0.66302207270E+02  0.10607953930E+03  0.17770000000E+01 0.  1.
         15    1    3    3    0    0  0.24033040428E+02 -0.24293739637E+02 -0.33541929298E+02  0.47916506215E+02  0.17770000000E+01 0. -1.
</event>
<event>
 7    1  0.9281110E-008  0.1507214E+03  0.7546771E-02  0.1097006E+00
        -11   -1    0    0    0    0  0.00000000000E+00  0.00000000000E+00  0.18250000000E+03  0.18250000000E+03  0.00000000000E+00 0. -1.
         11   -1    0    0    0    0 -0.00000000000E+00 -0.00000000000E+00 -0.18250000000E+03  0.18250000000E+03  0.00000000000E+00 0. -1.
         23    2    1    2    0    0 -0.72038429097E+01  0.78404578055E+02  0.10339714336E+03  0.15643334422E+03  0.87070366459E+02 0.  0.
        -11    1    1    2    0    0  0.80303258308E+02 -0.50932009823E+02 -0.86756219527E+02  0.12872188837E+03  0.00000000000E+00 0. -1.
         11    1    1    2    0    0 -0.73099415398E+02 -0.27472568233E+02 -0.16640923834E+02  0.79844767411E+02  0.00000000000E+00 0. -1.
        -15    1    3    3    0    0 -0.22825910470E+02 -0.81795124389E+01  0.57482560546E+01  0.24982529680E+02  0.17770000000E+01 0.  1.
         15    1    3    3    0    0  0.15622067560E+02  0.86584090494E+02  0.97648887306E+02  0.13145081454E+03  0.17770000000E+01 0. -1.
</event>
<event>
 7    1  0.9281110E-008  0.1215961E+03  0.7546771E-02  0.1130965E+00
        -11   -1    0    0    0    0  0.00000000000E+00  0.00000000000E+00  0.18250000000E+03  0.18250000000E+03  0.00000000000E+00 0.  1.
         11   -1    0    0    0    0 -0.00000000000E+00 -0.00000000000E+00 -0.18250000000E+03  0.18250000000E+03  0.00000000000E+00 0. -1.
         23    2    1    2    0    0 -0.42942374112E+02  0.40938101410E+02 -0.22746092839E+02  0.11364407822E+03  0.94221102380E+02 0.  0.
        -11    1    1    2    0    0  0.36906037635E+02  0.19898447939E+02  0.12520773321E+03  0.13204158550E+03  0.00000000000E+00 0.  1.
         11    1    1    2    0    0  0.60363364768E+01 -0.60836549349E+02 -0.10246164037E+03  0.11931433628E+03  0.00000000000E+00 0. -1.
        -15    1    3    3    0    0 -0.65708519885E+02  0.43498120069E+02  0.33252378929E+01  0.78891767448E+02  0.17770000000E+01 0. -1.
         15    1    3    3    0    0  0.22766145773E+02 -0.25600186584E+01 -0.26071330732E+02  0.34752310772E+02  0.17770000000E+01 0.  1.
</event>
<event>
 7    1  0.9281110E-008  0.1365178E+03  0.7546771E-02  0.1112397E+00
        -11   -1    0    0    0    0  0.00000000000E+00  0.00000000000E+00  0.18250000000E+03  0.18250000000E+03  0.00000000000E+00 0. -1.
         11   -1    0    0    0    0 -0.00000000000E+00 -0.00000000000E+00 -0.18250000000E+03  0.18250000000E+03  0.00000000000E+00 0. -1.
         23    2    1    2    0    0  0.58292453793E+02  0.62607040445E+02  0.11453674273E+03  0.16487457014E+03  0.82141991454E+02 0.  0.
        -11    1    1    2    0    0 -0.43750664956E+02  0.31545213933E+02 -0.84475750988E+02  0.10022661179E+03  0.00000000000E+00 0. -1.
         11    1    1    2    0    0 -0.14541788836E+02 -0.94152254377E+02 -0.30060991746E+02  0.99898818069E+02  0.00000000000E+00 0. -1.
        -15    1    3    3    0    0  0.40036233195E+02  0.66204359122E+02  0.38239636699E+02  0.86321171673E+02  0.17770000000E+01 0.  1.
         15    1    3    3    0    0  0.18256220598E+02 -0.35973186769E+01  0.76297106036E+02  0.78553398466E+02  0.17770000000E+01 0. -1.
</event>
<event>
 7    1  0.9281110E-008  0.1381237E+03  0.7546771E-02  0.1110555E+00
        -11   -1    0    0    0    0  0.00000000000E+00  0.00000000000E+00  0.18250000000E+03  0.18250000000E+03  0.00000000000E+00 0.  1.
         11   -1    0    0    0    0 -0.00000000000E+00 -0.00000000000E+00 -0.18250000000E+03  0.18250000000E+03  0.00000000000E+00 0. -1.
         23    2    1    2    0    0 -0.14753881825E+02  0.28699180800E+02  0.23994796279E+02  0.85841140837E+02  0.75839509520E+02 0.  0.
        -11    1    1    2    0    0  0.74324667143E+02 -0.12152171102E+03  0.44608238996E+02  0.14927014900E+03  0.00000000000E+00 0.  1.
         11    1    1    2    0    0 -0.59570785319E+02  0.92822530219E+02 -0.68603035275E+02  0.12988871017E+03  0.00000000000E+00 0. -1.
        -15    1    3    3    0    0 -0.27088630927E+02  0.10005375172E+02 -0.20864310159E+02  0.35670416668E+02  0.17770000000E+01 0. -1.
         15    1    3    3    0    0  0.12334749103E+02  0.18693805628E+02  0.44859106438E+02  0.50170724169E+02  0.17770000000E+01 0.  1.
</event>
<event>
 7    1  0.9281110E-008  0.1745841E+03  0.7546771E-02  0.1074936E+00
        -11   -1    0    0    0    0  0.00000000000E+00  0.00000000000E+00  0.18250000000E+03  0.18250000000E+03  0.00000000000E+00 0.  1.
         11   -1    0    0    0    0 -0.00000000000E+00 -0.00000000000E+00 -0.18250000000E+03  0.18250000000E+03  0.00000000000E+00 0. -1.
         23    2    1    2    0    0 -0.35891632439E+02  0.44659507742E+01  0.13094419683E+03  0.16388179588E+03  0.91666277031E+02 0.  0.
        -11    1    1    2    0    0 -0.11150962262E+02 -0.31177150400E+02  0.21419765118E+02  0.39435580434E+02  0.00000000000E+00 0.  1.
         11    1    1    2    0    0  0.47042594701E+02  0.26711199626E+02 -0.15236396194E+03  0.16168262368E+03  0.00000000000E+00 0. -1.
        -15    1    3    3    0    0 -0.62280296932E+02  0.20214676394E+02  0.10433621084E+03  0.12319363275E+03  0.17770000000E+01 0.  1.
         15    1    3    3    0    0  0.26388664494E+02 -0.15748725620E+02  0.26607985985E+02  0.40688163139E+02  0.17770000000E+01 0. -1.
</event>
<event>
 7    1  0.9281110E-008  0.1512336E+03  0.7546771E-02  0.1096486E+00
        -11   -1    0    0    0    0  0.00000000000E+00  0.00000000000E+00  0.18250000000E+03  0.18250000000E+03  0.00000000000E+00 0. -1.
         11   -1    0    0    0    0 -0.00000000000E+00 -0.00000000000E+00 -0.18250000000E+03  0.18250000000E+03  0.00000000000E+00 0. -1.
         23    2    1    2    0    0  0.60863972334E+02 -0.75746327870E+02 -0.28172645646E+01  0.13442779223E+03  0.92849152017E+02 0.  0.
        -11    1    1    2    0    0  0.73013999767E+02  0.21443146604E+02 -0.31042081370E+02  0.82185543218E+02  0.00000000000E+00 0. -1.
         11    1    1    2    0    0 -0.13387797210E+03  0.54303181266E+02  0.33859345935E+02  0.14838666455E+03  0.00000000000E+00 0. -1.
        -15    1    3    3    0    0 -0.20609441563E+02 -0.30951178905E+02  0.14287293017E+02  0.39874917277E+02  0.17770000000E+01 0.  1.
         15    1    3    3    0    0  0.81473413897E+02 -0.44795148966E+02 -0.17104557582E+02  0.94552874954E+02  0.17770000000E+01 0. -1.
</event>
<event>
 7    1  0.9281110E-008  0.1301289E+03  0.7546771E-02  0.1120010E+00
        -11   -1    0    0    0    0  0.00000000000E+00  0.00000000000E+00  0.18250000000E+03  0.18250000000E+03  0.00000000000E+00 0.  1.
         11   -1    0    0    0    0 -0.00000000000E+00 -0.00000000000E+00 -0.18250000000E+03  0.18250000000E+03  0.00000000000E+00 0.  1.
         23    2    1    2    0    0  0.63391212210E+02  0.43713958195E+02  0.31617540841E+02  0.12479759387E+03  0.92980721770E+02 0.  0.
        -11    1    1    2    0    0  0.31509228119E+02 -0.11015354884E+03  0.14558076524E+02  0.11549274163E+03  0.00000000000E+00 0.  1.
         11    1    1    2    0    0 -0.94900440330E+02  0.66439590641E+02 -0.46175617365E+02  0.12470966449E+03  0.00000000000E+00 0.  1.
        -15    1    3    3    0    0 -0.90410125889E+01 -0.12342154390E+02  0.29369161160E+02  0.33162841252E+02  0.17770000000E+01 0. -1.
         15    1    3    3    0    0  0.72432224799E+02  0.56056112585E+02  0.22483796807E+01  0.91634752620E+02  0.17770000000E+01 0.  1.
</event>
<event>
 7    1  0.9281110E-008  0.1695083E+03  0.7546771E-02  0.1079294E+00
        -11   -1    0    0    0    0  0.00000000000E+00  0.00000000000E+00  0.18250000000E+03  0.18250000000E+03  0.00000000000E+00 0. -1.
         11   -1    0    0    0    0 -0.00000000000E+00 -0.00000000000E+00 -0.18250000000E+03  0.18250000000E+03  0.00000000000E+00 0.  1.
         23    2    1    2    0    0  0.78618380310E+02 -0.13630796325E+02  0.10539598741E+03  0.16176898223E+03  0.93242914570E+02 0.  0.
        -11    1    1    2    0    0 -0.46001053848E+01 -0.47729677264E+02  0.13984583244E+02  0.49948489765E+02  0.00000000000E+00 0. -1.
         11    1    1    2    0    0 -0.74018274925E+02  0.61360473589E+02 -0.11938057066E+03  0.15328252801E+03  0.00000000000E+00 0.  1.
        -15    1    3    3    0    0  0.48481187558E+02 -0.17085020719E+02 -0.66748192555E+00  0.51438572503E+02  0.17770000000E+01 0.  1.
         15    1    3    3    0    0  0.30137192752E+02  0.34542243937E+01  0.10606346934E+03  0.11033040973E+03  0.17770000000E+01 0. -1.
</event>
<event>
 7    1  0.9281110E-008  0.1982265E+03  0.7546771E-02  0.1056583E+00
        -11   -1    0    0    0    0  0.00000000000E+00  0.00000000000E+00  0.18250000000E+03  0.18250000000E+03  0.00000000000E+00 0.  1.
         11   -1    0    0    0    0 -0.00000000000E+00 -0.00000000000E+00 -0.18250000000E+03  0.18250000000E+03  0.00000000000E+00 0.  1.
         23    2    1    2    0    0 -0.36853740254E+02  0.60661805236E+02 -0.54942169316E+02  0.10766132199E+03  0.59449688807E+02 0.  0.
        -11    1    1    2    0    0  0.87218170423E+02 -0.13514287179E+03  0.44077064975E+02  0.16677347722E+03  0.00000000000E+00 0.  1.
         11    1    1    2    0    0 -0.50364430169E+02  0.74481066552E+02  0.10865104340E+02  0.90565200786E+02  0.00000000000E+00 0.  1.
        -15    1    3    3    0    0 -0.12661843433E+02  0.57201877686E+02 -0.14507805677E+02  0.60382209668E+02  0.17770000000E+01 0.  1.
         15    1    3    3    0    0 -0.24191896821E+02  0.34599275507E+01 -0.40434363639E+02  0.47279112326E+02  0.17770000000E+01 0. -1.
</event>
<event>
 7    1  0.9281110E-008  0.1539834E+03  0.7546771E-02  0.1093733E+00
        -11   -1    0    0    0    0  0.00000000000E+00  0.00000000000E+00  0.18250000000E+03  0.18250000000E+03  0.00000000000E+00 0. -1.
         11   -1    0    0    0    0 -0.00000000000E+00 -0.00000000000E+00 -0.18250000000E+03  0.18250000000E+03  0.00000000000E+00 0. -1.
         23    2    1    2    0    0  0.50368121675E+02  0.49366527350E+02 -0.82388039530E+02  0.14178881786E+03  0.91336072332E+02 0.  0.
        -11    1    1    2    0    0 -0.19011289771E+02 -0.11932556560E+03  0.82917049008E+02  0.14654438495E+03  0.00000000000E+00 0. -1.
         11    1    1    2    0    0 -0.31356831904E+02  0.69959038251E+02 -0.52900947802E+00  0.76666797188E+02  0.00000000000E+00 0. -1.
        -15    1    3    3    0    0 -0.36849035776E+01  0.15464872569E+02  0.17207605344E+02  0.23494684689E+02  0.17770000000E+01 0.  1.
         15    1    3    3    0    0  0.54053025253E+02  0.33901654780E+02 -0.99595644874E+02  0.11829413317E+03  0.17770000000E+01 0. -1.
</event>
<event>
 7    1  0.9281110E-008  0.1239139E+03  0.7546771E-02  0.1127893E+00
        -11   -1    0    0    0    0  0.00000000000E+00  0.00000000000E+00  0.18250000000E+03  0.18250000000E+03  0.00000000000E+00 0.  1.
         11   -1    0    0    0    0 -0.00000000000E+00 -0.00000000000E+00 -0.18250000000E+03  0.18250000000E+03  0.00000000000E+00 0. -1.
         23    2    1    2    0    0  0.61532861757E+02 -0.75163371557E+01  0.44005796685E+01  0.10949893429E+03  0.90154662162E+02 0.  0.
        -11    1    1    2    0    0  0.15680142292E+02 -0.96564570810E+02  0.55780871470E+02  0.11261478065E+03  0.00000000000E+00 0.  1.
         11    1    1    2    0    0 -0.77213004050E+02  0.10408090797E+03 -0.60181451138E+02  0.14288628506E+03  0.00000000000E+00 0. -1.
        -15    1    3    3    0    0  0.10419387193E+02 -0.21943233264E+02  0.39076627129E+02  0.46045734138E+02  0.17770000000E+01 0.  1.
         15    1    3    3    0    0  0.51113474564E+02  0.14426896108E+02 -0.34676047461E+02  0.63453200155E+02  0.17770000000E+01 0. -1.
</event>
<event>
 7    1  0.9281110E-008  0.2150423E+03  0.7546771E-02  0.1045149E+00
        -11   -1    0    0    0    0  0.00000000000E+00  0.00000000000E+00  0.18250000000E+03  0.18250000000E+03  0.00000000000E+00 0.  1.
         11   -1    0    0    0    0 -0.00000000000E+00 -0.00000000000E+00 -0.18250000000E+03  0.18250000000E+03  0.00000000000E+00 0. -1.
         23    2    1    2    0    0  0.32274998872E+02 -0.49767388012E+02  0.33888999501E+02  0.11470777409E+03  0.92146300451E+02 0.  0.
        -11    1    1    2    0    0 -0.18797838308E+02 -0.97889505798E+02 -0.11458405715E+02  0.10033448625E+03  0.00000000000E+00 0.  1.
         11    1    1    2    0    0 -0.13477160564E+02  0.14765689381E+03 -0.22430593786E+02  0.14995773966E+03  0.00000000000E+00 0. -1.
        -15    1    3    3    0    0  0.12029684040E+02 -0.49558689573E+02  0.61822973562E+02  0.80162427604E+02  0.17770000000E+01 0. -1.
         15    1    3    3    0    0  0.20245314832E+02 -0.20869843950E+00 -0.27933974061E+02  0.34545346482E+02  0.17770000000E+01 0.  1.
</event>
<event>
 7    1  0.9281110E-008  0.1352166E+03  0.7546771E-02  0.1113910E+00
        -11   -1    0    0    0    0  0.00000000000E+00  0.00000000000E+00  0.18250000000E+03  0.18250000000E+03  0.00000000000E+00 0. -1.
         11   -1    0    0    0    0 -0.00000000000E+00 -0.00000000000E+00 -0.18250000000E+03  0.18250000000E+03  0.00000000000E+00 0. -1.
         23    2    1    2    0    0  0.31784727819E+02 -0.34336054647E+02 -0.53970847357E+02  0.11571952792E+03  0.91043523692E+02 0.  0.
        -11    1    1    2    0    0  0.17740579585E+02  0.75658791132E+02 -0.73155467683E+02  0.10672723781E+03  0.00000000000E+00 0. -1.
         11    1    1    2    0    0 -0.49525307404E+02 -0.41322736486E+02  0.12712631504E+03  0.14255323427E+03  0.00000000000E+00 0. -1.
        -15    1    3    3    0    0  0.52130849907E+02 -0.52730458688E+02 -0.45246199502E+02  0.86882121773E+02  0.17770000000E+01 0. -1.
         15    1    3    3    0    0 -0.20346122088E+02  0.18394404041E+02 -0.87246478548E+01  0.28837406146E+02  0.17770000000E+01 0.  1.
</event>
<event>
 7    1  0.9281110E-008  0.1904840E+03  0.7546771E-02  0.1062271E+00
        -11   -1    0    0    0    0  0.00000000000E+00  0.00000000000E+00  0.18250000000E+03  0.18250000000E+03  0.00000000000E+00 0.  1.
         11   -1    0    0    0    0 -0.00000000000E+00 -0.00000000000E+00 -0.18250000000E+03  0.18250000000E+03  0.00000000000E+00 0. -1.
         23    2    1    2    0    0  0.30772243885E+02 -0.31065348557E+02 -0.16253062880E+03  0.19048399459E+03  0.89196188377E+02 0.  0.
        -11    1    1    2    0    0 -0.37071386601E+02  0.21687736873E+02  0.15523791658E+03  0.16106972521E+03  0.00000000000E+00 0.  1.
         11    1    1    2    0    0  0.62991427165E+01  0.93776116835E+01  0.72927122198E+01  0.13446280206E+02  0.00000000000E+00 0. -1.
        -15    1    3    3    0    0  0.51483847000E+02 -0.26114197758E+02 -0.15855714665E+03  0.16874852387E+03  0.17770000000E+01 0. -1.
         15    1    3    3    0    0 -0.20711603115E+02 -0.49511507987E+01 -0.39734821515E+01  0.21735470716E+02  0.17770000000E+01 0.  1.
</event>
<event>
 7    1  0.9281110E-008  0.1836056E+03  0.7546771E-02  0.1067578E+00
        -11   -1    0    0    0    0  0.00000000000E+00  0.00000000000E+00  0.18250000000E+03  0.18250000000E+03  0.00000000000E+00 0. -1.
         11   -1    0    0    0    0 -0.00000000000E+00 -0.00000000000E+00 -0.18250000000E+03  0.18250000000E+03  0.00000000000E+00 0.  1.
         23    2    1    2    0    0 -0.32113999397E+02 -0.14700460390E+03 -0.49102006082E+02  0.18199484546E+03  0.89830141092E+02 0.  0.
        -11    1    1    2    0    0  0.45742368369E+02  0.14211178687E+03  0.63817521744E+02  0.16236009459E+03  0.00000000000E+00 0. -1.
         11    1    1    2    0    0 -0.13628368972E+02  0.48928170259E+01 -0.14715515662E+02  0.20645059953E+02  0.00000000000E+00 0.  1.
        -15    1    3    3    0    0  0.82430842525E+01  0.93967851918E+01  0.15145933211E+01  0.12716120944E+02  0.17770000000E+01 0. -1.
         15    1    3    3    0    0 -0.40357083650E+02 -0.15640138909E+03 -0.50616599403E+02  0.16927872452E+03  0.17770000000E+01 0.  1.
</event>
<event>
 7    1  0.9281110E-008  0.1475313E+03  0.7546771E-02  0.1100295E+00
        -11   -1    0    0    0    0  0.00000000000E+00  0.00000000000E+00  0.18250000000E+03  0.18250000000E+03  0.00000000000E+00 0.  1.
         11   -1    0    0    0    0 -0.00000000000E+00 -0.00000000000E+00 -0.18250000000E+03  0.18250000000E+03  0.00000000000E+00 0.  1.
         23    2    1    2    0    0 -0.73250586871E+02  0.22772383956E+02  0.18775099010E+02  0.12051124502E+03  0.91028709122E+02 0.  0.
        -11    1    1    2    0    0 -0.65203419601E+02  0.51166233937E+02 -0.27394775501E+02  0.87292285728E+02  0.00000000000E+00 0.  1.
         11    1    1    2    0    0  0.13845400647E+03 -0.73938617893E+02  0.86196764917E+01  0.15719646926E+03  0.00000000000E+00 0.  1.
        -15    1    3    3    0    0 -0.53068538593E+02 -0.27031115981E+02  0.28209070000E+02  0.65923139935E+02  0.17770000000E+01 0. -1.
         15    1    3    3    0    0 -0.20182048278E+02  0.49803499937E+02 -0.94339709903E+01  0.54588105081E+02  0.17770000000E+01 0.  1.
</event>
<event>
 7    1  0.9281110E-008  0.1199723E+03  0.7546771E-02  0.1133163E+00
        -11   -1    0    0    0    0  0.00000000000E+00  0.00000000000E+00  0.18250000000E+03  0.18250000000E+03  0.00000000000E+00 0.  1.
         11   -1    0    0    0    0 -0.00000000000E+00 -0.00000000000E+00 -0.18250000000E+03  0.18250000000E+03  0.00000000000E+00 0. -1.
         23    2    1    2    0    0  0.57185823556E+02  0.36898282946E+02 -0.13336225889E+02  0.11523410610E+03  0.92029031216E+02 0.  0.
        -11    1    1    2    0    0 -0.73200292512E+02  0.85860459272E+02 -0.33038113521E+02  0.11756622914E+03  0.00000000000E+00 0. -1.
         11    1    1    2    0    0  0.16014468956E+02 -0.12275874222E+03  0.46374339411E+02  0.13219966476E+03  0.00000000000E+00 0.  1.
        -15    1    3    3    0    0  0.68267457135E+02  0.47538415482E+02  0.13465895463E+02  0.84290181633E+02  0.17770000000E+01 0.  1.
         15    1    3    3    0    0 -0.11081633578E+02 -0.10640132536E+02 -0.26802121353E+02  0.30943924463E+02  0.17770000000E+01 0. -1.
</event>
<event>
 7    1  0.9281110E-008  0.1455230E+03  0.7546771E-02  0.1102413E+00
        -11   -1    0    0    0    0  0.00000000000E+00  0.00000000000E+00  0.18250000000E+03  0.18250000000E+03  0.00000000000E+00 0. -1.
         11   -1    0    0    0    0 -0.00000000000E+00 -0.00000000000E+00 -0.18250000000E+03  0.18250000000E+03  0.00000000000E+00 0. -1.
         23    2    1    2    0    0  0.34246111216E+02 -0.83078909650E+02 -0.25425192948E+01  0.12432438448E+03  0.85878907829E+02 0.  0.
        -11    1    1    2    0    0 -0.46039985111E+02 -0.63559964123E+02 -0.39238603380E+02  0.87745183706E+02  0.00000000000E+00 0. -1.
         11    1    1    2    0    0  0.11793873895E+02  0.14663887377E+03  0.41781122675E+02  0.15293043181E+03  0.00000000000E+00 0. -1.
        -15    1    3    3    0    0 -0.25170932589E+02 -0.67123444121E+01 -0.82439875185E+01  0.27381608319E+02  0.17770000000E+01 0.  1.
         15    1    3    3    0    0  0.59417043806E+02 -0.76366565238E+02  0.57014682238E+01  0.96942776161E+02  0.17770000000E+01 0. -1.
</event>
<event>
 7    1  0.9281110E-008  0.1267379E+03  0.7546771E-02  0.1124249E+00
        -11   -1    0    0    0    0  0.00000000000E+00  0.00000000000E+00  0.18250000000E+03  0.18250000000E+03  0.00000000000E+00 0.  1.
         11   -1    0    0    0    0 -0.00000000000E+00 -0.00000000000E+00 -0.18250000000E+03  0.18250000000E+03  0.00000000000E+00 0. -1.
         23    2    1    2    0    0  0.15641845878E+02  0.68460316597E+01 -0.50649997608E+02  0.10594988617E+03  0.91479072085E+02 0.  0.
        -11    1    1    2    0    0  0.63515239021E+02  0.98635305656E+02 -0.12577333870E+01  0.11732301992E+03  0.00000000000E+00 0.  1.
         11    1    1    2    0    0 -0.79157084899E+02 -0.10548133732E+03  0.51907730995E+02  0.14172709391E+03  0.00000000000E+00 0. -1.
        -15    1    3    3    0    0  0.37258107299E+02 -0.22800064928E+01  0.11820188552E+02  0.39194892212E+02  0.17770000000E+01 0. -1.
         15    1    3    3    0    0 -0.21616261421E+02  0.91260381525E+01 -0.62470186160E+02  0.66754993956E+02  0.17770000000E+01 0.  1.
</event>
<event>
 7    1  0.9281110E-008  0.1514619E+03  0.7546771E-02  0.1096255E+00
        -11   -1    0    0    0    0  0.00000000000E+00  0.00000000000E+00  0.18250000000E+03  0.18250000000E+03  0.00000000000E+00 0. -1.
         11   -1    0    0    0    0 -0.00000000000E+00 -0.00000000000E+00 -0.18250000000E+03  0.18250000000E+03  0.00000000000E+00 0. -1.
         23    2    1    2    0    0 -0.12161316969E+02  0.87244716165E+02  0.26223989676E+02  0.13173288573E+03  0.94373287632E+02 0.  0.
        -11    1    1    2    0    0  0.47850508961E+02 -0.10267953836E+03 -0.99200876769E+02  0.15057746431E+03  0.00000000000E+00 0. -1.
         11    1    1    2    0    0 -0.35689191993E+02  0.15434822195E+02  0.72976887094E+02  0.82689649964E+02  0.00000000000E+00 0. -1.
        -15    1    3    3    0    0 -0.42942955896E+02  0.39656677012E+02  0.43014323571E+02  0.72595724764E+02  0.17770000000E+01 0.  1.
         15    1    3    3    0    0  0.30781638927E+02  0.47588039153E+02 -0.16790333896E+02  0.59137160964E+02  0.17770000000E+01 0. -1.
</event>
<event>
 7    1  0.9281110E-008  0.2193537E+03  0.7546771E-02  0.1042399E+00
        -11   -1    0    0    0    0  0.00000000000E+00  0.00000000000E+00  0.18250000000E+03  0.18250000000E+03  0.00000000000E+00 0.  1.
         11   -1    0    0    0    0 -0.00000000000E+00 -0.00000000000E+00 -0.18250000000E+03  0.18250000000E+03  0.00000000000E+00 0. -1.
         23    2    1    2    0    0 -0.10625837564E+02 -0.15253288816E+02  0.10066848301E+02  0.92524014794E+02  0.90076526550E+02 0.  0.
        -11    1    1    2    0    0  0.57873495607E+02  0.65513158642E+02 -0.11649694518E+03  0.14564633084E+03  0.00000000000E+00 0. -1.
         11    1    1    2    0    0 -0.47247658043E+02 -0.50259869826E+02  0.10643009688E+03  0.12682965437E+03  0.00000000000E+00 0.  1.
        -15    1    3    3    0    0  0.10690255954E+02  0.24325849900E+02 -0.24189964161E+02  0.35976945963E+02  0.17770000000E+01 0. -1.
         15    1    3    3    0    0 -0.21316093517E+02 -0.39579138716E+02  0.34256812462E+02  0.56547068831E+02  0.17770000000E+01 0.  1.
</event>
<event>
 7    1  0.9281110E-008  0.1805321E+03  0.7546771E-02  0.1070032E+00
        -11   -1    0    0    0    0  0.00000000000E+00  0.00000000000E+00  0.18250000000E+03  0.18250000000E+03  0.00000000000E+00 0. -1.
         11   -1    0    0    0    0 -0.00000000000E+00 -0.00000000000E+00 -0.18250000000E+03  0.18250000000E+03  0.00000000000E+00 0. -1.
         23    2    1    2    0    0 -0.54486444107E+02 -0.30535722206E+02  0.13830804839E+03  0.17784258120E+03  0.92723592021E+02 0.  0.
        -11    1    1    2    0    0 -0.27764409199E+02  0.16601324221E+01 -0.55884848018E+01  0.28369871698E+02  0.00000000000E+00 0. -1.
         11    1    1    2    0    0  0.82250853305E+02  0.28875589784E+02 -0.13271956359E+03  0.15878754710E+03  0.00000000000E+00 0. -1.
        -15    1    3    3    0    0 -0.54155723500E+02 -0.39660911040E+02  0.38102454215E+02  0.77206120214E+02  0.17770000000E+01 0.  1.
         15    1    3    3    0    0 -0.33072060685E+00  0.91251888340E+01  0.10020559417E+03  0.10063646099E+03  0.17770000000E+01 0. -1.
</event>
<event>
 7    1  0.9281110E-008  0.1208594E+03  0.7546771E-02  0.1131958E+00
        -11   -1    0    0    0    0  0.00000000000E+00  0.00000000000E+00  0.18250000000E+03  0.18250000000E+03  0.00000000000E+00 0.  1.
         11   -1    0    0    0    0 -0.00000000000E+00 -0.00000000000E+00 -0.18250000000E+03  0.18250000000E+03  0.00000000000E+00 0. -1.
         23    2    1    2    0    0 -0.27825293547E+02 -0.47321382570E+02  0.42144832617E+02  0.11356859016E+03  0.90044864075E+02 0.  0.
        -11    1    1    2    0    0  0.10464977024E+03 -0.47493811707E+02  0.16391531563E+02  0.11608582544E+03  0.00000000000E+00 0.  1.
         11    1    1    2    0    0 -0.76824476689E+02  0.94815194277E+02 -0.58536364179E+02  0.13534558440E+03  0.00000000000E+00 0. -1.
        -15    1    3    3    0    0 -0.81597174305E+01 -0.43761843721E+02 -0.19580278948E+02  0.48664412121E+02  0.17770000000E+01 0. -1.
         15    1    3    3    0    0 -0.19665576117E+02 -0.35595388490E+01  0.61725111564E+02  0.64904178043E+02  0.17770000000E+01 0.  1.
</event>
<event>
 7    1  0.9281110E-008  0.1515868E+03  0.7546771E-02  0.1096129E+00
        -11   -1    0    0    0    0  0.00000000000E+00  0.00000000000E+00  0.18250000000E+03  0.18250000000E+03  0.00000000000E+00 0.  1.
         11   -1    0    0    0    0 -0.00000000000E+00 -0.00000000000E+00 -0.18250000000E+03  0.18250000000E+03  0.00000000000E+00 0. -1.
         23    2    1    2    0    0 -0.82316903921E+02 -0.59950153808E+02 -0.22258982757E+02  0.13490032842E+03  0.85630267318E+02 0.  0.
        -11    1    1    2    0    0  0.14728563519E+03  0.19201655447E+02  0.34376267771E+02  0.15245815718E+03  0.00000000000E+00 0.  1.
         11    1    1    2    0    0 -0.64968731273E+02  0.40748498361E+02 -0.12117285014E+02  0.77641514398E+02  0.00000000000E+00 0. -1.
        -15    1    3    3    0    0 -0.50579683112E+02 -0.73132987069E+02 -0.38421115441E+02  0.96881773219E+02  0.17770000000E+01 0. -1.
         15    1    3    3    0    0 -0.31737220809E+02  0.13182833261E+02  0.16162132685E+02  0.38018555198E+02  0.17770000000E+01 0.  1.
</event>
<event>
 7    1  0.9281110E-008  0.1347969E+03  0.7546771E-02  0.1114401E+00
        -11   -1    0    0    0    0  0.00000000000E+00  0.00000000000E+00  0.18250000000E+03  0.18250000000E+03  0.00000000000E+00 0.  1.
         11   -1    0    0    0    0 -0.00000000000E+00 -0.00000000000E+00 -0.18250000000E+03  0.18250000000E+03  0.00000000000E+00 0.  1.
         23    2    1    2    0    0 -0.28166401239E+01 -0.19212369432E+02  0.10079258834E+03  0.13769410504E+03  0.91779475363E+02 0.  0.
        -11    1    1    2    0    0  0.65815982916E+02 -0.64660277391E+02 -0.75957488298E+02  0.11950830560E+03  0.00000000000E+00 0.  1.
         11    1    1    2    0    0 -0.62999342792E+02  0.83872646824E+02 -0.24835100040E+02  0.10779758936E+03  0.00000000000E+00 0.  1.
        -15    1    3    3    0    0 -0.22771423097E+02  0.29544351765E+01 -0.83789591174E+01  0.24507775949E+02  0.17770000000E+01 0.  1.
         15    1    3    3    0    0  0.19954782974E+02 -0.22166804609E+02  0.10917154745E+03  0.11318632909E+03  0.17770000000E+01 0. -1.
</event>
<event>
 7    1  0.9281110E-008  0.1635263E+03  0.7546771E-02  0.1084649E+00
        -11   -1    0    0    0    0  0.00000000000E+00  0.00000000000E+00  0.18250000000E+03  0.18250000000E+03  0.00000000000E+00 0.  1.
         11   -1    0    0    0    0 -0.00000000000E+00 -0.00000000000E+00 -0.18250000000E+03  0.18250000000E+03  0.00000000000E+00 0.  1.
         23    2    1    2    0    0  0.54755655860E+02 -0.14071902176E+02 -0.13555483754E+03  0.17424930601E+03  0.93763033154E+02 0.  0.
        -11    1    1    2    0    0 -0.49941176684E+02  0.34606919646E+02  0.77906916541E+01  0.61257284403E+02  0.00000000000E+00 0.  1.
         11    1    1    2    0    0 -0.48144791757E+01 -0.20535017470E+02  0.12776414588E+03  0.12949340958E+03  0.00000000000E+00 0.  1.
        -15    1    3    3    0    0  0.70682924648E+02 -0.35236527616E+02 -0.78742228704E+02  0.11154006018E+03  0.17770000000E+01 0. -1.
         15    1    3    3    0    0 -0.15927268788E+02  0.21164625440E+02 -0.56812608834E+02  0.62709245830E+02  0.17770000000E+01 0.  1.
</event>
