<event>
 7    1  0.4133533E-006  0.4165406E+03  0.7546771E-02  0.9608753E-01
        -11   -1    0    0    0    0  0.00000000000E+00  0.00000000000E+00  0.50000000000E+03  0.50000000000E+03  0.00000000000E+00 0. -1.
         11   -1    0    0    0    0 -0.00000000000E+00 -0.00000000000E+00 -0.50000000000E+03  0.50000000000E+03  0.00000000000E+00 0. -1.
         23    2    1    2    0    0 -0.10178960905E+03 -0.33200392940E+02 -0.39570376872E+03  0.41887582767E+03  0.86093529527E+02 0.  0.
        -11    1    1    2    0    0 -0.34670247668E+02  0.11730480997E+03  0.40250757949E+03  0.42068372450E+03  0.00000000000E+00 0. -1.
         11    1    1    2    0    0  0.13645985671E+03 -0.84104417031E+02 -0.68038107677E+01  0.16044044783E+03  0.00000000000E+00 0. -1.
        -15    1    3    3    0    0 -0.78228026301E+02 -0.46860544182E+02 -0.37105431633E+03  0.38209946100E+03  0.17770000000E+01 0. -1.
         15    1    3    3    0    0 -0.23561582745E+02  0.13660151242E+02 -0.24649452391E+02  0.36776366672E+02  0.17770000000E+01 0.  1.
</event>
<event>
 7    1  0.4133533E-006  0.3943832E+03  0.7546771E-02  0.9673144E-01
        -11   -1    0    0    0    0  0.00000000000E+00  0.00000000000E+00  0.50000000000E+03  0.50000000000E+03  0.00000000000E+00 0. -1.
         11   -1    0    0    0    0 -0.00000000000E+00 -0.00000000000E+00 -0.50000000000E+03  0.50000000000E+03  0.00000000000E+00 0.  1.
         23    2    1    2    0    0 -0.75467505206E+02  0.84917346328E+02 -0.12671843459E+03  0.19308214173E+03  0.91196774844E+02 0.  0.
        -11    1    1    2    0    0 -0.11407414346E+03  0.78068422888E+02  0.40789789654E+03  0.43068350661E+03  0.00000000000E+00 0. -1.
         11    1    1    2    0    0  0.18954164866E+03 -0.16298576922E+03 -0.28117946196E+03  0.37623435166E+03  0.00000000000E+00 0.  1.
        -15    1    3    3    0    0 -0.30210152916E+02 -0.12047459985E+02 -0.56071934656E+02  0.64846080964E+02  0.17770000000E+01 0. -1.
         15    1    3    3    0    0 -0.45257352289E+02  0.96964806313E+02 -0.70646499932E+02  0.12823606077E+03  0.17770000000E+01 0.  1.
</event>
<event>
 7    1  0.4133533E-006  0.3858569E+03  0.7546771E-02  0.9699137E-01
        -11   -1    0    0    0    0  0.00000000000E+00  0.00000000000E+00  0.50000000000E+03  0.50000000000E+03  0.00000000000E+00 0. -1.
         11   -1    0    0    0    0 -0.00000000000E+00 -0.00000000000E+00 -0.50000000000E+03  0.50000000000E+03  0.00000000000E+00 0.  1.
         23    2    1    2    0    0 -0.57056074018E+02 -0.13679085218E+03 -0.34626134029E+03  0.38793445025E+03  0.92892890402E+02 0.  0.
        -11    1    1    2    0    0  0.84095198054E+02 -0.68544300542E+02  0.38619367751E+03  0.40114321634E+03  0.00000000000E+00 0. -1.
         11    1    1    2    0    0 -0.27039124036E+02  0.20533515273E+03 -0.39932337211E+02  0.21092233340E+03  0.00000000000E+00 0.  1.
        -15    1    3    3    0    0  0.22113033002E+02 -0.17094251031E+02 -0.32473071364E+02  0.42881904571E+02  0.17770000000E+01 0. -1.
         15    1    3    3    0    0 -0.79169107021E+02 -0.11969660115E+03 -0.31378826893E+03  0.34505254568E+03  0.17770000000E+01 0.  1.
</event>
<event>
 7    1  0.4133533E-006  0.4991285E+03  0.7546771E-02  0.9401762E-01
        -11   -1    0    0    0    0  0.00000000000E+00  0.00000000000E+00  0.50000000000E+03  0.50000000000E+03  0.00000000000E+00 0. -1.
         11   -1    0    0    0    0 -0.00000000000E+00 -0.00000000000E+00 -0.50000000000E+03  0.50000000000E+03  0.00000000000E+00 0.  1.
         23    2    1    2    0    0  0.10797452790E+03  0.16258971683E+02 -0.47911596292E+03  0.49976574304E+03  0.91054045260E+02 0.  0.
        -11    1    1    2    0    0 -0.98680003300E+02 -0.12485918568E+02  0.47996871443E+03  0.49016691856E+03  0.00000000000E+00 0. -1.
         11    1    1    2    0    0 -0.92945245982E+01 -0.37730531148E+01 -0.85275151544E+00  0.10067338400E+02  0.00000000000E+00 0.  1.
        -15    1    3    3    0    0  0.46275773549E+01 -0.11301354747E+02 -0.43305691879E+01  0.13078480408E+02  0.17770000000E+01 0. -1.
         15    1    3    3    0    0  0.10334695054E+03  0.27560326430E+02 -0.47478539373E+03  0.48668726263E+03  0.17770000000E+01 0.  1.
</event>
<event>
 7    1  0.4133533E-006  0.5132110E+03  0.7546771E-02  0.9370725E-01
        -11   -1    0    0    0    0  0.00000000000E+00  0.00000000000E+00  0.50000000000E+03  0.50000000000E+03  0.00000000000E+00 0. -1.
         11   -1    0    0    0    0 -0.00000000000E+00 -0.00000000000E+00 -0.50000000000E+03  0.50000000000E+03  0.00000000000E+00 0.  1.
         23    2    1    2    0    0  0.14559931500E+01 -0.53904590183E+00 -0.22017962009E+03  0.23916200795E+03  0.93364824515E+02 0.  0.
        -11    1    1    2    0    0  0.87842488506E+02  0.24279122947E+02  0.47818167576E+03  0.48678896211E+03  0.00000000000E+00 0. -1.
         11    1    1    2    0    0 -0.89298481656E+02 -0.23740077045E+02 -0.25800205567E+03  0.27404902995E+03  0.00000000000E+00 0.  1.
        -15    1    3    3    0    0  0.43117284482E+02  0.13020515516E+00 -0.16153840641E+03  0.16720326447E+03  0.17770000000E+01 0. -1.
         15    1    3    3    0    0 -0.41661291332E+02 -0.66925105700E+00 -0.58641213681E+02  0.71958743481E+02  0.17770000000E+01 0.  1.
</event>
<event>
 7    1  0.8694885E-006  0.4784775E+03  0.7546771E-02  0.9449299E-01
        -11   -1    0    0    0    0  0.00000000000E+00  0.00000000000E+00  0.50000000000E+03  0.50000000000E+03  0.00000000000E+00 0.  1.
         11   -1    0    0    0    0 -0.00000000000E+00 -0.00000000000E+00 -0.50000000000E+03  0.50000000000E+03  0.00000000000E+00 0. -1.
         23    2    1    2    0    0  0.54958697579E+02 -0.34953523412E+02  0.44259536386E+03  0.45595839724E+03  0.88120353263E+02 0.  0.
        -11    1    1    2    0    0  0.22782067493E+02 -0.98149910959E+01  0.43317180385E+02  0.49917279232E+02  0.00000000000E+00 0.  1.
         11    1    1    2    0    0 -0.77740765072E+02  0.44768514508E+02 -0.48591254425E+03  0.49412432353E+03  0.00000000000E+00 0. -1.
        -15    1    3    3    0    0  0.63911764109E+02  0.87679692286E+01  0.24265007276E+03  0.25108525727E+03  0.17770000000E+01 0. -1.
         15    1    3    3    0    0 -0.89530665301E+01 -0.43721492641E+02  0.19994529110E+03  0.20487313997E+03  0.17770000000E+01 0.  1.
</event>
<event>
 7    1  0.4133533E-006  0.5121806E+03  0.7546771E-02  0.9372960E-01
        -11   -1    0    0    0    0  0.00000000000E+00  0.00000000000E+00  0.50000000000E+03  0.50000000000E+03  0.00000000000E+00 0. -1.
         11   -1    0    0    0    0 -0.00000000000E+00 -0.00000000000E+00 -0.50000000000E+03  0.50000000000E+03  0.00000000000E+00 0. -1.
         23    2    1    2    0    0 -0.38405912612E+02 -0.52788313263E+02 -0.37460978806E+03  0.39130793840E+03  0.92346029707E+02 0.  0.
        -11    1    1    2    0    0  0.79017412630E+02  0.12813327696E+02  0.48120668209E+03  0.48781943765E+03  0.00000000000E+00 0. -1.
         11    1    1    2    0    0 -0.40611500018E+02  0.39974985567E+02 -0.10659689403E+03  0.12087262395E+03  0.00000000000E+00 0. -1.
        -15    1    3    3    0    0 -0.10879409815E+02  0.25829562572E+02 -0.67785215859E+02  0.73372481753E+02  0.17770000000E+01 0.  1.
         15    1    3    3    0    0 -0.27526502798E+02 -0.78617875835E+02 -0.30682457220E+03  0.31793545664E+03  0.17770000000E+01 0. -1.
</event>
<event>
 7    1  0.4133533E-006  0.5179521E+03  0.7546771E-02  0.9360513E-01
        -11   -1    0    0    0    0  0.00000000000E+00  0.00000000000E+00  0.50000000000E+03  0.50000000000E+03  0.00000000000E+00 0. -1.
         11   -1    0    0    0    0 -0.00000000000E+00 -0.00000000000E+00 -0.50000000000E+03  0.50000000000E+03  0.00000000000E+00 0. -1.
         23    2    1    2    0    0 -0.31706216639E+00 -0.25808984111E+02 -0.13123890719E+03  0.16114838947E+03  0.89882971007E+02 0.  0.
        -11    1    1    2    0    0  0.81315565056E+02 -0.30245348507E+02  0.47417629698E+03  0.48204788439E+03  0.00000000000E+00 0. -1.
         11    1    1    2    0    0 -0.80998502889E+02  0.56054332618E+02 -0.34293738979E+03  0.35680372614E+03  0.00000000000E+00 0. -1.
        -15    1    3    3    0    0 -0.34734588382E+02 -0.42746673996E+02 -0.76403656796E+02  0.94204279460E+02  0.17770000000E+01 0. -1.
         15    1    3    3    0    0  0.34417526215E+02  0.16937689885E+02 -0.54835250397E+02  0.66944110006E+02  0.17770000000E+01 0.  1.
</event>
<event>
 7    1  0.4133533E-006  0.5227032E+03  0.7546771E-02  0.9350395E-01
        -11   -1    0    0    0    0  0.00000000000E+00  0.00000000000E+00  0.50000000000E+03  0.50000000000E+03  0.00000000000E+00 0.  1.
         11   -1    0    0    0    0 -0.00000000000E+00 -0.00000000000E+00 -0.50000000000E+03  0.50000000000E+03  0.00000000000E+00 0. -1.
         23    2    1    2    0    0  0.54382404583E+02 -0.12095923239E+03 -0.36809667188E+03  0.40164782467E+03  0.90759205531E+02 0.  0.
        -11    1    1    2    0    0  0.17482826485E+01  0.20926482872E+03  0.42897251826E+03  0.47729681169E+03  0.00000000000E+00 0.  1.
         11    1    1    2    0    0 -0.56130687231E+02 -0.88305596330E+02 -0.60875846384E+02  0.12105536364E+03  0.00000000000E+00 0. -1.
        -15    1    3    3    0    0 -0.73513980190E+01  0.91708063705E+01 -0.95460413938E+01  0.15245700299E+02  0.17770000000E+01 0.  1.
         15    1    3    3    0    0  0.61733802602E+02 -0.13013003876E+03 -0.35855063048E+03  0.38640212437E+03  0.17770000000E+01 0. -1.
</event>
<event>
 7    1  0.4133533E-006  0.5137038E+03  0.7546771E-02  0.9369658E-01
        -11   -1    0    0    0    0  0.00000000000E+00  0.00000000000E+00  0.50000000000E+03  0.50000000000E+03  0.00000000000E+00 0.  1.
         11   -1    0    0    0    0 -0.00000000000E+00 -0.00000000000E+00 -0.50000000000E+03  0.50000000000E+03  0.00000000000E+00 0. -1.
         23    2    1    2    0    0 -0.19436346377E+03 -0.61290578604E+02  0.15024440813E+03  0.26905356001E+03  0.91009586897E+02 0.  0.
        -11    1    1    2    0    0 -0.13876732767E+03  0.14706234509E+02  0.20095042623E+03  0.24465019592E+03  0.00000000000E+00 0.  1.
         11    1    1    2    0    0  0.33313079143E+03  0.46584344095E+02 -0.35119483436E+03  0.48629624407E+03  0.00000000000E+00 0. -1.
        -15    1    3    3    0    0 -0.82171735057E+02  0.11871016686E+02  0.27802862022E+02  0.87574379502E+02  0.17770000000E+01 0. -1.
         15    1    3    3    0    0 -0.11219172871E+03 -0.73161595289E+02  0.12244154611E+03  0.18147918051E+03  0.17770000000E+01 0.  1.
</event>
<event>
 7    1  0.4133533E-006  0.5151997E+03  0.7546771E-02  0.9366427E-01
        -11   -1    0    0    0    0  0.00000000000E+00  0.00000000000E+00  0.50000000000E+03  0.50000000000E+03  0.00000000000E+00 0. -1.
         11   -1    0    0    0    0 -0.00000000000E+00 -0.00000000000E+00 -0.50000000000E+03  0.50000000000E+03  0.00000000000E+00 0. -1.
         23    2    1    2    0    0  0.36001521874E+02 -0.34722074581E+02 -0.29858841204E+03  0.31599619936E+03  0.90536325131E+02 0.  0.
        -11    1    1    2    0    0 -0.12201778057E+03  0.13028601895E+03  0.45074220180E+03  0.48480028671E+03  0.00000000000E+00 0. -1.
         11    1    1    2    0    0  0.86016258694E+02 -0.95563944372E+02 -0.15215378976E+03  0.19920351393E+03  0.00000000000E+00 0. -1.
        -15    1    3    3    0    0 -0.29777470522E+02 -0.11504975148E+02 -0.12203445427E+03  0.12615319243E+03  0.17770000000E+01 0. -1.
         15    1    3    3    0    0  0.65778992396E+02 -0.23217099433E+02 -0.17655395777E+03  0.18984300693E+03  0.17770000000E+01 0.  1.
</event>
<event>
 7    1  0.4133533E-006  0.4108855E+03  0.7546771E-02  0.9624773E-01
        -11   -1    0    0    0    0  0.00000000000E+00  0.00000000000E+00  0.50000000000E+03  0.50000000000E+03  0.00000000000E+00 0.  1.
         11   -1    0    0    0    0 -0.00000000000E+00 -0.00000000000E+00 -0.50000000000E+03  0.50000000000E+03  0.00000000000E+00 0.  1.
         23    2    1    2    0    0  0.46564483797E+02  0.32564334219E+01 -0.13073457474E+03  0.16658659388E+03  0.92090763479E+02 0.  0.
        -11    1    1    2    0    0  0.26709920048E+03 -0.16025359715E+03  0.31003485960E+03  0.43948243704E+03  0.00000000000E+00 0.  1.
         11    1    1    2    0    0 -0.31366368428E+03  0.15699716372E+03 -0.17930028486E+03  0.39393096908E+03  0.00000000000E+00 0.  1.
        -15    1    3    3    0    0  0.14539101683E+02  0.39372398837E+02 -0.10217180732E+03  0.11047084325E+03  0.17770000000E+01 0. -1.
         15    1    3    3    0    0  0.32025382114E+02 -0.36115965415E+02 -0.28562767424E+02  0.56115750635E+02  0.17770000000E+01 0.  1.
</event>
<event>
 6    1  0.1175105E-005  0.5476700E+03  0.7546771E-02  0.9299040E-01
        -11   -1    0    0    0    0  0.00000000000E+00  0.00000000000E+00  0.50000000000E+03  0.50000000000E+03  0.00000000000E+00 0. -1.
         11   -1    0    0    0    0 -0.00000000000E+00 -0.00000000000E+00 -0.50000000000E+03  0.50000000000E+03  0.00000000000E+00 0.  1.
        -11    1    1    2    0    0  0.40178319844E+02  0.31864471960E+02  0.26062811027E+03  0.26562502484E+03  0.00000000000E+00 0. -1.
         11    1    1    2    0    0 -0.45960832923E+02 -0.20433664493E+03 -0.40091966397E+03  0.45233001181E+03  0.00000000000E+00 0.  1.
        -15    1    1    2    0    0 -0.15666504768E+02  0.11246034575E+02  0.11597515733E+03  0.11758106783E+03  0.17770000000E+01 0.  1.
         15    1    1    2    0    0  0.21449017846E+02  0.16122613839E+03  0.24316396364E+02  0.16446389552E+03  0.17770000000E+01 0. -1.
</event>
<event>
 7    1  0.4133533E-006  0.5228498E+03  0.7546771E-02  0.9350085E-01
        -11   -1    0    0    0    0  0.00000000000E+00  0.00000000000E+00  0.50000000000E+03  0.50000000000E+03  0.00000000000E+00 0. -1.
         11   -1    0    0    0    0 -0.00000000000E+00 -0.00000000000E+00 -0.50000000000E+03  0.50000000000E+03  0.00000000000E+00 0. -1.
         23    2    1    2    0    0  0.11834437038E+02  0.87633649436E+02 -0.24345731753E+03  0.27362435010E+03  0.88199257917E+02 0.  0.
        -11    1    1    2    0    0 -0.18112169387E+03 -0.13845883508E+03  0.41916150975E+03  0.47715017370E+03  0.00000000000E+00 0. -1.
         11    1    1    2    0    0  0.16928725683E+03  0.50825185640E+02 -0.17570419223E+03  0.24922547620E+03  0.00000000000E+00 0. -1.
        -15    1    3    3    0    0 -0.96912195687E+01  0.97971787383E+02 -0.21470190665E+03  0.23620427030E+03  0.17770000000E+01 0. -1.
         15    1    3    3    0    0  0.21525656607E+02 -0.10338137947E+02 -0.28755410875E+02  0.37420079799E+02  0.17770000000E+01 0.  1.
</event>
<event>
 7    1  0.4133533E-006  0.5231771E+03  0.7546771E-02  0.9349392E-01
        -11   -1    0    0    0    0  0.00000000000E+00  0.00000000000E+00  0.50000000000E+03  0.50000000000E+03  0.00000000000E+00 0. -1.
         11   -1    0    0    0    0 -0.00000000000E+00 -0.00000000000E+00 -0.50000000000E+03  0.50000000000E+03  0.00000000000E+00 0.  1.
         23    2    1    2    0    0  0.17169450282E+01  0.38559811509E+02 -0.38292034515E+03  0.39539353288E+03  0.90654553930E+02 0.  0.
        -11    1    1    2    0    0  0.14049888268E+02 -0.14315897336E+03  0.45460768055E+03  0.47682285414E+03  0.00000000000E+00 0. -1.
         11    1    1    2    0    0 -0.15766833296E+02  0.10459916185E+03 -0.71687335399E+02  0.12778361299E+03  0.00000000000E+00 0.  1.
        -15    1    3    3    0    0  0.45605576269E+02  0.17430323502E+02 -0.21880070241E+03  0.22418873716E+03  0.17770000000E+01 0.  1.
         15    1    3    3    0    0 -0.43888631241E+02  0.21129488007E+02 -0.16411964274E+03  0.17120479572E+03  0.17770000000E+01 0. -1.
</event>
<event>
 7    1  0.4133533E-006  0.4883296E+03  0.7546771E-02  0.9426309E-01
        -11   -1    0    0    0    0  0.00000000000E+00  0.00000000000E+00  0.50000000000E+03  0.50000000000E+03  0.00000000000E+00 0. -1.
         11   -1    0    0    0    0 -0.00000000000E+00 -0.00000000000E+00 -0.50000000000E+03  0.50000000000E+03  0.00000000000E+00 0.  1.
         23    2    1    2    0    0 -0.14656937845E+03 -0.82412966391E+02 -0.44911514919E+03  0.48862852445E+03  0.93695986785E+02 0.  0.
        -11    1    1    2    0    0  0.11720704833E+03  0.93073034959E+02  0.45552583142E+03  0.47948291430E+03  0.00000000000E+00 0. -1.
         11    1    1    2    0    0  0.29362330122E+02 -0.10660068568E+02 -0.64106822301E+01  0.31888561252E+02  0.00000000000E+00 0.  1.
        -15    1    3    3    0    0 -0.87504972411E+02  0.42134325187E+01 -0.20238130314E+03  0.22053621653E+03  0.17770000000E+01 0. -1.
         15    1    3    3    0    0 -0.59064406041E+02 -0.86626398909E+02 -0.24673384605E+03  0.26809230792E+03  0.17770000000E+01 0.  1.
</event>
<event>
 7    1  0.4133533E-006  0.5347892E+03  0.7546771E-02  0.9325164E-01
        -11   -1    0    0    0    0  0.00000000000E+00  0.00000000000E+00  0.50000000000E+03  0.50000000000E+03  0.00000000000E+00 0.  1.
         11   -1    0    0    0    0 -0.00000000000E+00 -0.00000000000E+00 -0.50000000000E+03  0.50000000000E+03  0.00000000000E+00 0. -1.
         23    2    1    2    0    0 -0.20777906294E+02 -0.68078822637E+02 -0.22609495493E+03  0.25394862785E+03  0.91129191051E+02 0.  0.
        -11    1    1    2    0    0  0.23017340464E+02 -0.94800316792E+02  0.45486726979E+03  0.46521084591E+03  0.00000000000E+00 0.  1.
         11    1    1    2    0    0 -0.22394341695E+01  0.16287913943E+03 -0.22877231487E+03  0.28084052624E+03  0.00000000000E+00 0. -1.
        -15    1    3    3    0    0  0.11735706244E+02  0.12779141084E+02 -0.94540556358E+02  0.96135881820E+02  0.17770000000E+01 0. -1.
         15    1    3    3    0    0 -0.32513612539E+02 -0.80857963721E+02 -0.13155439857E+03  0.15781274603E+03  0.17770000000E+01 0.  1.
</event>
<event>
 7    1  0.4133533E-006  0.3852326E+03  0.7546771E-02  0.9701069E-01
        -11   -1    0    0    0    0  0.00000000000E+00  0.00000000000E+00  0.50000000000E+03  0.50000000000E+03  0.00000000000E+00 0.  1.
         11   -1    0    0    0    0 -0.00000000000E+00 -0.00000000000E+00 -0.50000000000E+03  0.50000000000E+03  0.00000000000E+00 0.  1.
         23    2    1    2    0    0 -0.10348920357E+03 -0.78974449944E+02 -0.13324329353E+03  0.20733518840E+03  0.91033653544E+02 0.  0.
        -11    1    1    2    0    0  0.45095963569E+02 -0.15391512609E+03  0.40168113844E+03  0.43251733948E+03  0.00000000000E+00 0.  1.
         11    1    1    2    0    0  0.58393239997E+02  0.23288957603E+03 -0.26843784491E+03  0.36014747213E+03  0.00000000000E+00 0.  1.
        -15    1    3    3    0    0 -0.11837239944E+03 -0.81218558587E+02 -0.11797429815E+03  0.18582134420E+03  0.17770000000E+01 0.  1.
         15    1    3    3    0    0  0.14883195874E+02  0.22441086432E+01 -0.15268995384E+02  0.21513844195E+02  0.17770000000E+01 0. -1.
</event>
<event>
 7    1  0.4133533E-006  0.5122505E+03  0.7546771E-02  0.9372808E-01
        -11   -1    0    0    0    0  0.00000000000E+00  0.00000000000E+00  0.50000000000E+03  0.50000000000E+03  0.00000000000E+00 0.  1.
         11   -1    0    0    0    0 -0.00000000000E+00 -0.00000000000E+00 -0.50000000000E+03  0.50000000000E+03  0.00000000000E+00 0.  1.
         23    2    1    2    0    0 -0.15986322084E+03  0.86489953970E+02  0.17295269560E+03  0.26685775177E+03  0.90904693206E+02 0.  0.
        -11    1    1    2    0    0 -0.13201783948E+03  0.16197188218E+03  0.12866244120E+03  0.24539279601E+03  0.00000000000E+00 0.  1.
         11    1    1    2    0    0  0.29188106032E+03 -0.24846183615E+03 -0.30161513681E+03  0.48774945222E+03  0.00000000000E+00 0.  1.
        -15    1    3    3    0    0 -0.75993126465E+02  0.34109699766E+02  0.21622077308E+02  0.86076122381E+02  0.17770000000E+01 0. -1.
         15    1    3    3    0    0 -0.83870094375E+02  0.52380254204E+02  0.15133061829E+03  0.18078162939E+03  0.17770000000E+01 0.  1.
</event>
<event>
 7    1  0.4133533E-006  0.3435377E+03  0.7546771E-02  0.9839722E-01
        -11   -1    0    0    0    0  0.00000000000E+00  0.00000000000E+00  0.50000000000E+03  0.50000000000E+03  0.00000000000E+00 0.  1.
         11   -1    0    0    0    0 -0.00000000000E+00 -0.00000000000E+00 -0.50000000000E+03  0.50000000000E+03  0.00000000000E+00 0. -1.
         23    2    1    2    0    0 -0.84196906711E+02 -0.90332034734E+02 -0.21967724105E+03  0.26816682449E+03  0.91686203571E+02 0.  0.
        -11    1    1    2    0    0 -0.14019155920E+03 -0.12258257424E+03  0.34977558870E+03  0.39626143293E+03  0.00000000000E+00 0.  1.
         11    1    1    2    0    0  0.22438846592E+03  0.21291460898E+03 -0.13009834766E+03  0.33557174257E+03  0.00000000000E+00 0. -1.
        -15    1    3    3    0    0 -0.34645429353E+02 -0.96553466599E+02 -0.16304903339E+03  0.19264221424E+03  0.17770000000E+01 0. -1.
         15    1    3    3    0    0 -0.49551477358E+02  0.62214318653E+01 -0.56628207652E+02  0.75524610252E+02  0.17770000000E+01 0.  1.
</event>
<event>
 7    1  0.4133533E-006  0.5276741E+03  0.7546771E-02  0.9339931E-01
        -11   -1    0    0    0    0  0.00000000000E+00  0.00000000000E+00  0.50000000000E+03  0.50000000000E+03  0.00000000000E+00 0. -1.
         11   -1    0    0    0    0 -0.00000000000E+00 -0.00000000000E+00 -0.50000000000E+03  0.50000000000E+03  0.00000000000E+00 0. -1.
         23    2    1    2    0    0  0.95589467296E+02 -0.14661081058E+02  0.15584539520E+03  0.20429588554E+03  0.89981820873E+02 0.  0.
        -11    1    1    2    0    0  0.27271689504E+03  0.12838230360E+03  0.11711926050E+03  0.32337817165E+03  0.00000000000E+00 0. -1.
         11    1    1    2    0    0 -0.36830636234E+03 -0.11372122254E+03 -0.27296465570E+03  0.47232594281E+03  0.00000000000E+00 0. -1.
        -15    1    3    3    0    0  0.11625629736E+02  0.22614549380E+02  0.26088012096E+01  0.25622971787E+02  0.17770000000E+01 0.  1.
         15    1    3    3    0    0  0.83963837560E+02 -0.37275630438E+02  0.15323659399E+03  0.17867291375E+03  0.17770000000E+01 0. -1.
</event>
<event>
 7    1  0.4133533E-006  0.3421121E+03  0.7546771E-02  0.9844832E-01
        -11   -1    0    0    0    0  0.00000000000E+00  0.00000000000E+00  0.50000000000E+03  0.50000000000E+03  0.00000000000E+00 0. -1.
         11   -1    0    0    0    0 -0.00000000000E+00 -0.00000000000E+00 -0.50000000000E+03  0.50000000000E+03  0.00000000000E+00 0. -1.
         23    2    1    2    0    0 -0.25652399206E+02  0.53541851797E+02 -0.24751141680E+03  0.26996610520E+03  0.89972334794E+02 0.  0.
        -11    1    1    2    0    0  0.26964922377E+03  0.15592233715E+03  0.26360671313E+03  0.40805756739E+03  0.00000000000E+00 0. -1.
         11    1    1    2    0    0 -0.24399682456E+03 -0.20946418895E+03 -0.16095296321E+02  0.32197632741E+03  0.00000000000E+00 0. -1.
        -15    1    3    3    0    0 -0.56758076630E+02  0.38876580747E+02 -0.19830818085E+03  0.20990988570E+03  0.17770000000E+01 0. -1.
         15    1    3    3    0    0  0.31105677425E+02  0.14665271050E+02 -0.49203235952E+02  0.60056219496E+02  0.17770000000E+01 0.  1.
</event>
<event>
 7    1  0.4133533E-006  0.5204563E+03  0.7546771E-02  0.9355166E-01
        -11   -1    0    0    0    0  0.00000000000E+00  0.00000000000E+00  0.50000000000E+03  0.50000000000E+03  0.00000000000E+00 0. -1.
         11   -1    0    0    0    0 -0.00000000000E+00 -0.00000000000E+00 -0.50000000000E+03  0.50000000000E+03  0.00000000000E+00 0.  1.
         23    2    1    2    0    0  0.34489741048E+02 -0.98986272008E+02 -0.11254944893E+03  0.17861521110E+03  0.90819551307E+02 0.  0.
        -11    1    1    2    0    0 -0.23761528044E+03  0.18203150772E+03  0.37465406945E+03  0.47954370297E+03  0.00000000000E+00 0. -1.
         11    1    1    2    0    0  0.20312553939E+03 -0.83045235712E+02 -0.26210462052E+03  0.34184108593E+03  0.00000000000E+00 0.  1.
        -15    1    3    3    0    0  0.22640864777E+01  0.12623535286E+02 -0.39038858771E+02  0.41129915558E+02  0.17770000000E+01 0. -1.
         15    1    3    3    0    0  0.32225654570E+02 -0.11160980729E+03 -0.73510590157E+02  0.13748529554E+03  0.17770000000E+01 0.  1.
</event>
<event>
 7    1  0.4133533E-006  0.5195947E+03  0.7546771E-02  0.9357002E-01
        -11   -1    0    0    0    0  0.00000000000E+00  0.00000000000E+00  0.50000000000E+03  0.50000000000E+03  0.00000000000E+00 0.  1.
         11   -1    0    0    0    0 -0.00000000000E+00 -0.00000000000E+00 -0.50000000000E+03  0.50000000000E+03  0.00000000000E+00 0. -1.
         23    2    1    2    0    0  0.25931312193E+02  0.35413246910E+02 -0.14769329996E+03  0.17872454361E+03  0.90568320225E+02 0.  0.
        -11    1    1    2    0    0 -0.17051615615E+03  0.38054997712E+02  0.44751010346E+03  0.48040528208E+03  0.00000000000E+00 0.  1.
         11    1    1    2    0    0  0.14458484396E+03 -0.73468244621E+02 -0.29981680350E+03  0.34087017430E+03  0.00000000000E+00 0. -1.
        -15    1    3    3    0    0  0.26180414623E+02  0.63729962748E+02 -0.12353230572E+03  0.14145780483E+03  0.17770000000E+01 0. -1.
         15    1    3    3    0    0 -0.24910243015E+00 -0.28316715839E+02 -0.24160994234E+02  0.37266738780E+02  0.17770000000E+01 0.  1.
</event>
<event>
 7    1  0.4133533E-006  0.3772053E+03  0.7546771E-02  0.9726258E-01
        -11   -1    0    0    0    0  0.00000000000E+00  0.00000000000E+00  0.50000000000E+03  0.50000000000E+03  0.00000000000E+00 0.  1.
         11   -1    0    0    0    0 -0.00000000000E+00 -0.00000000000E+00 -0.50000000000E+03  0.50000000000E+03  0.00000000000E+00 0. -1.
         23    2    1    2    0    0 -0.31240465374E+03  0.15768394776E+03 -0.22992504545E+03  0.42863729614E+03  0.91670660837E+02 0.  0.
        -11    1    1    2    0    0  0.11413005094E+03 -0.96152147558E+02  0.31378273940E+03  0.34746296429E+03  0.00000000000E+00 0.  1.
         11    1    1    2    0    0  0.19827460279E+03 -0.61531800201E+02 -0.83857693942E+02  0.22389973958E+03  0.00000000000E+00 0. -1.
        -15    1    3    3    0    0 -0.17470985824E+03  0.13081145877E+03 -0.11180432417E+03  0.24523159858E+03  0.17770000000E+01 0. -1.
         15    1    3    3    0    0 -0.13769479550E+03  0.26872488991E+02 -0.11812072128E+03  0.18340569755E+03  0.17770000000E+01 0.  1.
</event>
<event>
 7    1  0.4133533E-006  0.5092160E+03  0.7546771E-02  0.9379421E-01
        -11   -1    0    0    0    0  0.00000000000E+00  0.00000000000E+00  0.50000000000E+03  0.50000000000E+03  0.00000000000E+00 0.  1.
         11   -1    0    0    0    0 -0.00000000000E+00 -0.00000000000E+00 -0.50000000000E+03  0.50000000000E+03  0.00000000000E+00 0. -1.
         23    2    1    2    0    0  0.18984434407E+01  0.77343737768E+02 -0.25712790837E+03  0.28355791980E+03  0.91129988269E+02 0.  0.
        -11    1    1    2    0    0 -0.55957379506E+02 -0.14343615283E+03  0.46600829289E+03  0.49078395175E+03  0.00000000000E+00 0.  1.
         11    1    1    2    0    0  0.54058936065E+02  0.66092415061E+02 -0.20888038452E+03  0.22565812845E+03  0.00000000000E+00 0. -1.
        -15    1    3    3    0    0 -0.59549235560E+01  0.87003109567E+02 -0.25654663931E+03  0.27096925667E+03  0.17770000000E+01 0. -1.
         15    1    3    3    0    0  0.78533669967E+01 -0.96593717991E+01 -0.58126905458E+00  0.12588663132E+02  0.17770000000E+01 0.  1.
</event>
<event>
 7    1  0.4133533E-006  0.4770742E+03  0.7546771E-02  0.9452622E-01
        -11   -1    0    0    0    0  0.00000000000E+00  0.00000000000E+00  0.50000000000E+03  0.50000000000E+03  0.00000000000E+00 0.  1.
         11   -1    0    0    0    0 -0.00000000000E+00 -0.00000000000E+00 -0.50000000000E+03  0.50000000000E+03  0.00000000000E+00 0.  1.
         23    2    1    2    0    0 -0.90612575048E+01  0.56340121300E+02 -0.46277593113E+03  0.47482256074E+03  0.89658162524E+02 0.  0.
        -11    1    1    2    0    0  0.61767685327E+02 -0.52916818889E+02  0.46524612220E+03  0.47230222411E+03  0.00000000000E+00 0.  1.
         11    1    1    2    0    0 -0.52706427822E+02 -0.34233024103E+01 -0.24701910750E+01  0.52875215149E+02  0.00000000000E+00 0.  1.
        -15    1    3    3    0    0  0.33056684834E+02  0.54844894904E+02 -0.28489717949E+03  0.29201073186E+03  0.17770000000E+01 0.  1.
         15    1    3    3    0    0 -0.42117942338E+02  0.14952263958E+01 -0.17787875163E+03  0.18281182888E+03  0.17770000000E+01 0. -1.
</event>
<event>
 6    1  0.4133533E-006  0.4276400E+03  0.7546771E-02  0.9578084E-01
        -11   -1    0    0    0    0  0.00000000000E+00  0.00000000000E+00  0.50000000000E+03  0.50000000000E+03  0.00000000000E+00 0. -1.
         11   -1    0    0    0    0 -0.00000000000E+00 -0.00000000000E+00 -0.50000000000E+03  0.50000000000E+03  0.00000000000E+00 0. -1.
        -11    1    1    2    0    0  0.41287752383E+01 -0.11700869704E+03  0.42458371089E+03  0.44043093615E+03  0.00000000000E+00 0. -1.
         11    1    1    2    0    0 -0.11327513712E+03  0.84377367111E+02 -0.58333913398E+02  0.15281898515E+03  0.00000000000E+00 0. -1.
        -15    1    1    2    0    0  0.58564421026E+02  0.60658263133E+02 -0.85474393539E+02  0.12007600083E+03  0.17770000000E+01 0.  1.
         15    1    1    2    0    0  0.50581940851E+02 -0.28026933206E+02 -0.28077540395E+03  0.28667407787E+03  0.17770000000E+01 0. -1.
</event>
<event>
 7    1  0.4133533E-006  0.4771912E+03  0.7546771E-02  0.9452344E-01
        -11   -1    0    0    0    0  0.00000000000E+00  0.00000000000E+00  0.50000000000E+03  0.50000000000E+03  0.00000000000E+00 0. -1.
         11   -1    0    0    0    0 -0.00000000000E+00 -0.00000000000E+00 -0.50000000000E+03  0.50000000000E+03  0.00000000000E+00 0.  1.
         23    2    1    2    0    0  0.10072129819E+03  0.10297600521E+03  0.42498394182E+03  0.45877356385E+03  0.95462005678E+02 0.  0.
        -11    1    1    2    0    0 -0.15832059914E+01 -0.27269043048E+02  0.46276519760E+02  0.53736612575E+02  0.00000000000E+00 0. -1.
         11    1    1    2    0    0 -0.99138092201E+02 -0.75706962162E+02 -0.47126046158E+03  0.48748982358E+03  0.00000000000E+00 0.  1.
        -15    1    3    3    0    0  0.72297496224E+02  0.11675119133E+03  0.30156299224E+03  0.33136258790E+03  0.17770000000E+01 0. -1.
         15    1    3    3    0    0  0.28423801968E+02 -0.13775186123E+02  0.12342094957E+03  0.12741097595E+03  0.17770000000E+01 0.  1.
</event>
<event>
 7    1  0.4133533E-006  0.4378338E+03  0.7546771E-02  0.9550779E-01
        -11   -1    0    0    0    0  0.00000000000E+00  0.00000000000E+00  0.50000000000E+03  0.50000000000E+03  0.00000000000E+00 0. -1.
         11   -1    0    0    0    0 -0.00000000000E+00 -0.00000000000E+00 -0.50000000000E+03  0.50000000000E+03  0.00000000000E+00 0.  1.
         23    2    1    2    0    0 -0.37043277114E+02  0.65563339669E+01  0.73214705596E+02  0.12047201585E+03  0.87965468191E+02 0.  0.
        -11    1    1    2    0    0  0.33253120676E+03  0.13060632507E+03  0.23777202536E+03  0.42915096605E+03  0.00000000000E+00 0. -1.
         11    1    1    2    0    0 -0.29548792964E+03 -0.13716265903E+03 -0.31098673096E+03  0.45037701810E+03  0.00000000000E+00 0.  1.
        -15    1    3    3    0    0 -0.39325360947E+01 -0.38967324697E+02  0.26786214053E+02  0.47482378063E+02  0.17770000000E+01 0.  1.
         15    1    3    3    0    0 -0.33110741019E+02  0.45523658664E+02  0.46428491543E+02  0.72989637792E+02  0.17770000000E+01 0. -1.
</event>
<event>
 7    1  0.4133533E-006  0.5301897E+03  0.7546771E-02  0.9334681E-01
        -11   -1    0    0    0    0  0.00000000000E+00  0.00000000000E+00  0.50000000000E+03  0.50000000000E+03  0.00000000000E+00 0.  1.
         11   -1    0    0    0    0 -0.00000000000E+00 -0.00000000000E+00 -0.50000000000E+03  0.50000000000E+03  0.00000000000E+00 0. -1.
         23    2    1    2    0    0 -0.12753507520E+02  0.28579311381E+02 -0.32237330946E+03  0.33665044237E+03  0.91812530207E+02 0.  0.
        -11    1    1    2    0    0  0.97798675815E+02 -0.16641558974E+03  0.42832578707E+03  0.46981029083E+03  0.00000000000E+00 0.  1.
         11    1    1    2    0    0 -0.85045168295E+02  0.13783627836E+03 -0.10595247761E+03  0.19353926680E+03  0.00000000000E+00 0. -1.
        -15    1    3    3    0    0  0.36898164095E+02  0.28303119690E+02 -0.17727145618E+03  0.18327811654E+03  0.17770000000E+01 0.  1.
         15    1    3    3    0    0 -0.49651671615E+02  0.27619169049E+00 -0.14510185328E+03  0.15337232583E+03  0.17770000000E+01 0. -1.
</event>
<event>
 7    1  0.4133533E-006  0.4347651E+03  0.7546771E-02  0.9558915E-01
        -11   -1    0    0    0    0  0.00000000000E+00  0.00000000000E+00  0.50000000000E+03  0.50000000000E+03  0.00000000000E+00 0. -1.
         11   -1    0    0    0    0 -0.00000000000E+00 -0.00000000000E+00 -0.50000000000E+03  0.50000000000E+03  0.00000000000E+00 0.  1.
         23    2    1    2    0    0  0.44733542570E+02 -0.71943451163E+02  0.24647466026E+02  0.12600501318E+03  0.89960078747E+02 0.  0.
        -11    1    1    2    0    0 -0.74049203480E+02 -0.55859699387E+02  0.40981306564E+03  0.42017893726E+03  0.00000000000E+00 0. -1.
         11    1    1    2    0    0  0.29315660910E+02  0.12780315055E+03 -0.43446053166E+03  0.45381604956E+03  0.00000000000E+00 0.  1.
        -15    1    3    3    0    0  0.40333780729E+02 -0.24763859028E+01  0.37549043674E+02  0.55190893858E+02  0.17770000000E+01 0.  1.
         15    1    3    3    0    0  0.43997618416E+01 -0.69467065260E+02 -0.12901577648E+02  0.70814119319E+02  0.17770000000E+01 0. -1.
</event>
<event>
 7    1  0.4133533E-006  0.4667564E+03  0.7546771E-02  0.9477430E-01
        -11   -1    0    0    0    0  0.00000000000E+00  0.00000000000E+00  0.50000000000E+03  0.50000000000E+03  0.00000000000E+00 0.  1.
         11   -1    0    0    0    0 -0.00000000000E+00 -0.00000000000E+00 -0.50000000000E+03  0.50000000000E+03  0.00000000000E+00 0. -1.
         23    2    1    2    0    0  0.19453546567E+03  0.84910511513E+02  0.37293381789E+03  0.43889397649E+03  0.92165328094E+02 0.  0.
        -11    1    1    2    0    0  0.57415607040E+01  0.51737204866E+02  0.50912846714E+02  0.72813610315E+02  0.00000000000E+00 0.  1.
         11    1    1    2    0    0 -0.20027702637E+03 -0.13664771638E+03 -0.42384666461E+03  0.48829241319E+03  0.00000000000E+00 0. -1.
        -15    1    3    3    0    0 -0.39180608588E+01  0.22993455520E+02  0.42074676280E+02  0.48140277426E+02  0.17770000000E+01 0. -1.
         15    1    3    3    0    0  0.19845352653E+03  0.61917055994E+02  0.33085914161E+03  0.39075369906E+03  0.17770000000E+01 0.  1.
</event>
<event>
 7    1  0.4133533E-006  0.4270274E+03  0.7546771E-02  0.9579750E-01
        -11   -1    0    0    0    0  0.00000000000E+00  0.00000000000E+00  0.50000000000E+03  0.50000000000E+03  0.00000000000E+00 0. -1.
         11   -1    0    0    0    0 -0.00000000000E+00 -0.00000000000E+00 -0.50000000000E+03  0.50000000000E+03  0.00000000000E+00 0.  1.
         23    2    1    2    0    0  0.48269239174E+02 -0.43202768253E+02 -0.84039327855E+02  0.13937896479E+03  0.90374158717E+02 0.  0.
        -11    1    1    2    0    0  0.28137635911E+03 -0.52622465995E+02  0.33108802108E+03  0.43767688664E+03  0.00000000000E+00 0. -1.
         11    1    1    2    0    0 -0.32964559829E+03  0.95825234249E+02 -0.24704869322E+03  0.42294414857E+03  0.00000000000E+00 0.  1.
        -15    1    3    3    0    0  0.29572440636E+02 -0.67153003483E+02 -0.34184250248E+02  0.80967745528E+02  0.17770000000E+01 0. -1.
         15    1    3    3    0    0  0.18696798538E+02  0.23950235229E+02 -0.49855077607E+02  0.58411219259E+02  0.17770000000E+01 0.  1.
</event>
<event>
 7    1  0.4133533E-006  0.4637596E+03  0.7546771E-02  0.9484764E-01
        -11   -1    0    0    0    0  0.00000000000E+00  0.00000000000E+00  0.50000000000E+03  0.50000000000E+03  0.00000000000E+00 0.  1.
         11   -1    0    0    0    0 -0.00000000000E+00 -0.00000000000E+00 -0.50000000000E+03  0.50000000000E+03  0.00000000000E+00 0.  1.
         23    2    1    2    0    0  0.44070041700E+00  0.47514105344E+02  0.41941837589E+03  0.43224294055E+03  0.93082765353E+02 0.  0.
        -11    1    1    2    0    0 -0.38311997624E+02  0.28630092804E+02  0.62327021974E+02  0.78563025935E+02  0.00000000000E+00 0.  1.
         11    1    1    2    0    0  0.37871297207E+02 -0.76144198148E+02 -0.48174539786E+03  0.48919403351E+03  0.00000000000E+00 0.  1.
        -15    1    3    3    0    0 -0.37454510333E+02  0.42706862437E+02  0.33196267224E+03  0.33679235433E+03  0.17770000000E+01 0.  1.
         15    1    3    3    0    0  0.37895210750E+02  0.48072429073E+01  0.87455703646E+02  0.95450586228E+02  0.17770000000E+01 0. -1.
</event>
<event>
 7    1  0.4133533E-006  0.4060401E+03  0.7546771E-02  0.9638721E-01
        -11   -1    0    0    0    0  0.00000000000E+00  0.00000000000E+00  0.50000000000E+03  0.50000000000E+03  0.00000000000E+00 0.  1.
         11   -1    0    0    0    0 -0.00000000000E+00 -0.00000000000E+00 -0.50000000000E+03  0.50000000000E+03  0.00000000000E+00 0. -1.
         23    2    1    2    0    0  0.10347390002E+03  0.12411862066E+02 -0.10729702162E+03  0.17425924714E+03  0.89402080851E+02 0.  0.
        -11    1    1    2    0    0  0.11874937093E+03 -0.10306979288E+03  0.41018521713E+03  0.43929114224E+03  0.00000000000E+00 0.  1.
         11    1    1    2    0    0 -0.22222327095E+03  0.90657930811E+02 -0.30288819551E+03  0.38644961062E+03  0.00000000000E+00 0. -1.
        -15    1    3    3    0    0  0.84980818384E+01  0.37772058672E+02 -0.25852652635E+02  0.46588230150E+02  0.17770000000E+01 0. -1.
         15    1    3    3    0    0  0.94975818182E+02 -0.25360196606E+02 -0.81444368981E+02  0.12767101699E+03  0.17770000000E+01 0.  1.
</event>
<event>
 7    1  0.4133533E-006  0.4601508E+03  0.7546771E-02  0.9493674E-01
        -11   -1    0    0    0    0  0.00000000000E+00  0.00000000000E+00  0.50000000000E+03  0.50000000000E+03  0.00000000000E+00 0. -1.
         11   -1    0    0    0    0 -0.00000000000E+00 -0.00000000000E+00 -0.50000000000E+03  0.50000000000E+03  0.00000000000E+00 0.  1.
         23    2    1    2    0    0  0.13963478923E+02  0.88020658317E+02 -0.41513821654E+03  0.43335797044E+03  0.86699346457E+02 0.  0.
        -11    1    1    2    0    0  0.95408919012E+01 -0.15763749637E+03  0.45599573041E+03  0.48256887077E+03  0.00000000000E+00 0. -1.
         11    1    1    2    0    0 -0.23504370824E+02  0.69616838056E+02 -0.40857513870E+02  0.84073158787E+02  0.00000000000E+00 0.  1.
        -15    1    3    3    0    0  0.44018546586E+02  0.28505066934E+02 -0.12340420887E+03  0.13409671055E+03  0.17770000000E+01 0.  1.
         15    1    3    3    0    0 -0.30055067663E+02  0.59515591383E+02 -0.29173400767E+03  0.29926125989E+03  0.17770000000E+01 0. -1.
</event>
<event>
 7    1  0.4133533E-006  0.5369874E+03  0.7546771E-02  0.9320650E-01
        -11   -1    0    0    0    0  0.00000000000E+00  0.00000000000E+00  0.50000000000E+03  0.50000000000E+03  0.00000000000E+00 0. -1.
         11   -1    0    0    0    0 -0.00000000000E+00 -0.00000000000E+00 -0.50000000000E+03  0.50000000000E+03  0.00000000000E+00 0.  1.
         23    2    1    2    0    0 -0.98935086670E+02 -0.22346339586E+02 -0.16890526642E+03  0.21695614098E+03  0.90848598339E+02 0.  0.
        -11    1    1    2    0    0  0.23359484854E+03  0.29428350814E+03  0.27057594045E+03  0.46301260888E+03  0.00000000000E+00 0. -1.
         11    1    1    2    0    0 -0.13465976187E+03 -0.27193716855E+03 -0.10167067404E+03  0.32003125014E+03  0.00000000000E+00 0.  1.
        -15    1    3    3    0    0 -0.24948876713E+02 -0.24682560022E+02 -0.29885621929E+01  0.35267044836E+02  0.17770000000E+01 0. -1.
         15    1    3    3    0    0 -0.73986209957E+02  0.23362204357E+01 -0.16591670422E+03  0.18168909615E+03  0.17770000000E+01 0.  1.
</event>
<event>
 7    1  0.4133533E-006  0.5358042E+03  0.7546771E-02  0.9323077E-01
        -11   -1    0    0    0    0  0.00000000000E+00  0.00000000000E+00  0.50000000000E+03  0.50000000000E+03  0.00000000000E+00 0.  1.
         11   -1    0    0    0    0 -0.00000000000E+00 -0.00000000000E+00 -0.50000000000E+03  0.50000000000E+03  0.00000000000E+00 0. -1.
         23    2    1    2    0    0  0.53427189609E+01  0.74063621400E+02 -0.93417135656E+02  0.14980757125E+03  0.90562588899E+02 0.  0.
        -11    1    1    2    0    0 -0.13250533233E+03  0.24845210758E+02  0.44418783058E+03  0.46419583844E+03  0.00000000000E+00 0.  1.
         11    1    1    2    0    0  0.12716261337E+03 -0.98908832158E+02 -0.35077069492E+03  0.38599659031E+03  0.00000000000E+00 0. -1.
        -15    1    3    3    0    0  0.42608754420E+02  0.49130201465E+02 -0.28822323736E+02  0.71155932456E+02  0.17770000000E+01 0.  1.
         15    1    3    3    0    0 -0.37266035459E+02  0.24933419935E+02 -0.64594811921E+02  0.78651638791E+02  0.17770000000E+01 0. -1.
</event>
<event>
 7    1  0.4133533E-006  0.3173032E+03  0.7546771E-02  0.9938273E-01
        -11   -1    0    0    0    0  0.00000000000E+00  0.00000000000E+00  0.50000000000E+03  0.50000000000E+03  0.00000000000E+00 0.  1.
         11   -1    0    0    0    0 -0.00000000000E+00 -0.00000000000E+00 -0.50000000000E+03  0.50000000000E+03  0.00000000000E+00 0. -1.
         23    2    1    2    0    0 -0.27695698605E+03 -0.30220277675E+02 -0.21771975377E+03  0.36882602980E+03  0.10493956245E+03 0.  0.
        -11    1    1    2    0    0  0.70694503467E+00 -0.72640411933E+02  0.31304677407E+03  0.32136492026E+03  0.00000000000E+00 0.  1.
         11    1    1    2    0    0  0.27625004102E+03  0.10286068961E+03 -0.95327020296E+02  0.30980904994E+03  0.00000000000E+00 0. -1.
        -15    1    3    3    0    0 -0.25500537620E+02 -0.37038255907E+02 -0.21957076278E+02  0.50073753077E+02  0.17770000000E+01 0.  1.
         15    1    3    3    0    0 -0.25145644843E+03  0.68179782322E+01 -0.19576267750E+03  0.31875227672E+03  0.17770000000E+01 0. -1.
</event>
<event>
 7    1  0.4133533E-006  0.4164718E+03  0.7546771E-02  0.9608946E-01
        -11   -1    0    0    0    0  0.00000000000E+00  0.00000000000E+00  0.50000000000E+03  0.50000000000E+03  0.00000000000E+00 0. -1.
         11   -1    0    0    0    0 -0.00000000000E+00 -0.00000000000E+00 -0.50000000000E+03  0.50000000000E+03  0.00000000000E+00 0.  1.
         23    2    1    2    0    0  0.30461698542E+02  0.27890222344E+02 -0.12147167133E+03  0.15723311107E+03  0.90890619437E+02 0.  0.
        -11    1    1    2    0    0 -0.39190136615E+03  0.51303245420E+02  0.22983451600E+03  0.45721177645E+03  0.00000000000E+00 0. -1.
         11    1    1    2    0    0  0.36143966760E+03 -0.79193467764E+02 -0.10836284467E+03  0.38555511248E+03  0.00000000000E+00 0.  1.
        -15    1    3    3    0    0  0.34199003717E+02  0.41378381315E+02 -0.13006120225E+03  0.14071537355E+03  0.17770000000E+01 0. -1.
         15    1    3    3    0    0 -0.37373051751E+01 -0.13488158971E+02  0.85895309170E+01  0.16517737520E+02  0.17770000000E+01 0.  1.
</event>
<event>
 7    1  0.4133533E-006  0.4650957E+03  0.7546771E-02  0.9481487E-01
        -11   -1    0    0    0    0  0.00000000000E+00  0.00000000000E+00  0.50000000000E+03  0.50000000000E+03  0.00000000000E+00 0. -1.
         11   -1    0    0    0    0 -0.00000000000E+00 -0.00000000000E+00 -0.50000000000E+03  0.50000000000E+03  0.00000000000E+00 0.  1.
         23    2    1    2    0    0  0.37773357274E+00 -0.20878556340E+03 -0.39262233761E+03  0.45399746283E+03  0.91486841117E+02 0.  0.
        -11    1    1    2    0    0  0.40974268694E+02  0.16484041817E+03  0.43846899172E+03  0.47021942841E+03  0.00000000000E+00 0. -1.
         11    1    1    2    0    0 -0.41352002267E+02  0.43945145223E+02 -0.45846654108E+02  0.75783108758E+02  0.00000000000E+00 0.  1.
        -15    1    3    3    0    0  0.23243559984E+01 -0.10905570026E+03 -0.29453439562E+03  0.31408950368E+03  0.17770000000E+01 0. -1.
         15    1    3    3    0    0 -0.19466224256E+01 -0.99729863133E+02 -0.98087941991E+02  0.13990795915E+03  0.17770000000E+01 0.  1.
</event>
<event>
 7    1  0.4133533E-006  0.4773869E+03  0.7546771E-02  0.9451880E-01
        -11   -1    0    0    0    0  0.00000000000E+00  0.00000000000E+00  0.50000000000E+03  0.50000000000E+03  0.00000000000E+00 0. -1.
         11   -1    0    0    0    0 -0.00000000000E+00 -0.00000000000E+00 -0.50000000000E+03  0.50000000000E+03  0.00000000000E+00 0.  1.
         23    2    1    2    0    0 -0.43139747856E+02 -0.34862716493E+02 -0.47879567055E+03  0.49077059579E+03  0.92379850150E+02 0.  0.
        -11    1    1    2    0    0  0.82394234491E+02  0.48626242178E+02  0.44631194180E+03  0.45645117011E+03  0.00000000000E+00 0. -1.
         11    1    1    2    0    0 -0.39254486636E+02 -0.13763525686E+02  0.32483728751E+02  0.52778234092E+02  0.00000000000E+00 0.  1.
        -15    1    3    3    0    0  0.53536825537E+01 -0.52724462374E+02 -0.29990310439E+03  0.30455469230E+03  0.17770000000E+01 0.  1.
         15    1    3    3    0    0 -0.48493430409E+02  0.17861745881E+02 -0.17889256616E+03  0.18621590350E+03  0.17770000000E+01 0. -1.
</event>
<event>
 7    1  0.4133533E-006  0.3567549E+03  0.7546771E-02  0.9793582E-01
        -11   -1    0    0    0    0  0.00000000000E+00  0.00000000000E+00  0.50000000000E+03  0.50000000000E+03  0.00000000000E+00 0. -1.
         11   -1    0    0    0    0 -0.00000000000E+00 -0.00000000000E+00 -0.50000000000E+03  0.50000000000E+03  0.00000000000E+00 0.  1.
         23    2    1    2    0    0 -0.12698250160E+03  0.19771418769E+03  0.15937631399E+03  0.29562553190E+03  0.82329763310E+02 0.  0.
        -11    1    1    2    0    0  0.11589793522E+02 -0.40932134934E+02  0.24866363623E+03  0.25227637021E+03  0.00000000000E+00 0. -1.
         11    1    1    2    0    0  0.11539270808E+03 -0.15678205275E+03 -0.40803995022E+03  0.45209809789E+03  0.00000000000E+00 0.  1.
        -15    1    3    3    0    0 -0.25031358527E+02  0.89671470509E+02  0.97119119705E+02  0.13454673045E+03  0.17770000000E+01 0.  1.
         15    1    3    3    0    0 -0.10195114307E+03  0.10804271718E+03  0.62257194282E+02  0.16107880145E+03  0.17770000000E+01 0. -1.
</event>
<event>
 7    1  0.4133533E-006  0.3939574E+03  0.7546771E-02  0.9674425E-01
        -11   -1    0    0    0    0  0.00000000000E+00  0.00000000000E+00  0.50000000000E+03  0.50000000000E+03  0.00000000000E+00 0.  1.
         11   -1    0    0    0    0 -0.00000000000E+00 -0.00000000000E+00 -0.50000000000E+03  0.50000000000E+03  0.00000000000E+00 0.  1.
         23    2    1    2    0    0 -0.12936842654E+03  0.79068965817E+01  0.11171011058E+03  0.19371995133E+03  0.90827099142E+02 0.  0.
        -11    1    1    2    0    0  0.17752570254E+03 -0.99943079137E+02  0.31056188688E+03  0.37141981599E+03  0.00000000000E+00 0.  1.
         11    1    1    2    0    0 -0.48157276004E+02  0.92036182555E+02 -0.42227199746E+03  0.43486023268E+03  0.00000000000E+00 0.  1.
        -15    1    3    3    0    0 -0.13832887768E+03  0.13255787552E+02  0.80145834603E+02  0.16042788672E+03  0.17770000000E+01 0. -1.
         15    1    3    3    0    0  0.89604511401E+01 -0.53488909706E+01  0.31564275973E+02  0.33292064610E+02  0.17770000000E+01 0.  1.
</event>
<event>
 7    1  0.4133533E-006  0.5274237E+03  0.7546771E-02  0.9340455E-01
        -11   -1    0    0    0    0  0.00000000000E+00  0.00000000000E+00  0.50000000000E+03  0.50000000000E+03  0.00000000000E+00 0.  1.
         11   -1    0    0    0    0 -0.00000000000E+00 -0.00000000000E+00 -0.50000000000E+03  0.50000000000E+03  0.00000000000E+00 0. -1.
         23    2    1    2    0    0 -0.13497693752E+03 -0.23607146946E+02 -0.17572286676E+03  0.23991576750E+03  0.88909946251E+02 0.  0.
        -11    1    1    2    0    0  0.11674080785E+03 -0.35091685879E+02  0.45658351905E+03  0.47257629278E+03  0.00000000000E+00 0.  1.
         11    1    1    2    0    0  0.18236129667E+02  0.58698832825E+02 -0.28086065229E+03  0.28750793972E+03  0.00000000000E+00 0. -1.
        -15    1    3    3    0    0 -0.34816488988E+01  0.20174140721E+02 -0.73314964075E+01  0.21818029275E+02  0.17770000000E+01 0. -1.
         15    1    3    3    0    0 -0.13149528862E+03 -0.43781287667E+02 -0.16839137035E+03  0.21809773822E+03  0.17770000000E+01 0.  1.
</event>
<event>
 7    1  0.4133533E-006  0.3683125E+03  0.7546771E-02  0.9754958E-01
        -11   -1    0    0    0    0  0.00000000000E+00  0.00000000000E+00  0.50000000000E+03  0.50000000000E+03  0.00000000000E+00 0.  1.
         11   -1    0    0    0    0 -0.00000000000E+00 -0.00000000000E+00 -0.50000000000E+03  0.50000000000E+03  0.00000000000E+00 0. -1.
         23    2    1    2    0    0  0.26746565743E+02  0.15963163283E+03 -0.24232139275E+03  0.30672756589E+03  0.95731422816E+02 0.  0.
        -11    1    1    2    0    0 -0.10016672341E+03 -0.51562708572E+02  0.44117891004E+03  0.45533604739E+03  0.00000000000E+00 0.  1.
         11    1    1    2    0    0  0.73420157671E+02 -0.10806892426E+03 -0.19885751729E+03  0.23793638672E+03  0.00000000000E+00 0. -1.
        -15    1    3    3    0    0 -0.22752995772E+02  0.16045193122E+02 -0.10982510539E+02  0.29981999694E+02  0.17770000000E+01 0.  1.
         15    1    3    3    0    0  0.49499561514E+02  0.14358643971E+03 -0.23133888221E+03  0.27674556620E+03  0.17770000000E+01 0. -1.
</event>
<event>
 7    1  0.4133533E-006  0.5129603E+03  0.7546771E-02  0.9371268E-01
        -11   -1    0    0    0    0  0.00000000000E+00  0.00000000000E+00  0.50000000000E+03  0.50000000000E+03  0.00000000000E+00 0.  1.
         11   -1    0    0    0    0 -0.00000000000E+00 -0.00000000000E+00 -0.50000000000E+03  0.50000000000E+03  0.00000000000E+00 0.  1.
         23    2    1    2    0    0  0.90843817424E+02  0.25870199190E+02 -0.29562165617E+03  0.32369241547E+03  0.91993205520E+02 0.  0.
        -11    1    1    2    0    0 -0.21440636106E+03 -0.72156807345E+02  0.43131311106E+03  0.48703972352E+03  0.00000000000E+00 0.  1.
         11    1    1    2    0    0  0.12356254363E+03  0.46286608155E+02 -0.13569145489E+03  0.18926786102E+03  0.00000000000E+00 0.  1.
        -15    1    3    3    0    0  0.86526017496E+02 -0.17083035417E+02 -0.18582194742E+03  0.20569768029E+03  0.17770000000E+01 0.  1.
         15    1    3    3    0    0  0.43177999290E+01  0.42953234607E+02 -0.10979970875E+03  0.11799473518E+03  0.17770000000E+01 0. -1.
</event>
<event>
 7    1  0.4133533E-006  0.5332052E+03  0.7546771E-02  0.9328430E-01
        -11   -1    0    0    0    0  0.00000000000E+00  0.00000000000E+00  0.50000000000E+03  0.50000000000E+03  0.00000000000E+00 0.  1.
         11   -1    0    0    0    0 -0.00000000000E+00 -0.00000000000E+00 -0.50000000000E+03  0.50000000000E+03  0.00000000000E+00 0. -1.
         23    2    1    2    0    0  0.43785998155E+01 -0.42156562957E+02 -0.27466650907E+03  0.29239549099E+03  0.90868498460E+02 0.  0.
        -11    1    1    2    0    0 -0.16763215657E+03  0.16302567565E+03  0.40400427871E+03  0.46679478152E+03  0.00000000000E+00 0.  1.
         11    1    1    2    0    0  0.16325355675E+03 -0.12086911270E+03 -0.12933776965E+03  0.24080972749E+03  0.00000000000E+00 0. -1.
        -15    1    3    3    0    0  0.22088943583E+02 -0.60507440675E+02 -0.24452225495E+03  0.25287024874E+03  0.17770000000E+01 0. -1.
         15    1    3    3    0    0 -0.17710343767E+02  0.18350877719E+02 -0.30144254121E+02  0.39525242250E+02  0.17770000000E+01 0.  1.
</event>
<event>
 7    1  0.4133533E-006  0.5135392E+03  0.7546771E-02  0.9370014E-01
        -11   -1    0    0    0    0  0.00000000000E+00  0.00000000000E+00  0.50000000000E+03  0.50000000000E+03  0.00000000000E+00 0. -1.
         11   -1    0    0    0    0 -0.00000000000E+00 -0.00000000000E+00 -0.50000000000E+03  0.50000000000E+03  0.00000000000E+00 0. -1.
         23    2    1    2    0    0  0.15179336021E+02 -0.30624531939E+02 -0.22360090149E+03  0.24487985264E+03  0.93811006193E+02 0.  0.
        -11    1    1    2    0    0 -0.80543257038E+02 -0.19313792109E+02  0.47935776083E+03  0.48646079152E+03  0.00000000000E+00 0. -1.
         11    1    1    2    0    0  0.65363921017E+02  0.49938324047E+02 -0.25575685934E+03  0.26865935584E+03  0.00000000000E+00 0. -1.
        -15    1    3    3    0    0  0.28314181377E+02  0.26457941195E+02 -0.63742694463E+02  0.74619061544E+02  0.17770000000E+01 0.  1.
         15    1    3    3    0    0 -0.13134845355E+02 -0.57082473133E+02 -0.15985820703E+03  0.17026079109E+03  0.17770000000E+01 0. -1.
</event>
<event>
 7    1  0.4133533E-006  0.5186626E+03  0.7546771E-02  0.9358992E-01
        -11   -1    0    0    0    0  0.00000000000E+00  0.00000000000E+00  0.50000000000E+03  0.50000000000E+03  0.00000000000E+00 0.  1.
         11   -1    0    0    0    0 -0.00000000000E+00 -0.00000000000E+00 -0.50000000000E+03  0.50000000000E+03  0.00000000000E+00 0. -1.
         23    2    1    2    0    0 -0.18184772360E+02 -0.21451215291E+01 -0.21954836876E+03  0.24347614899E+03  0.10365259963E+03 0.  0.
        -11    1    1    2    0    0  0.16460725913E+03 -0.10768775051E+02  0.45218818274E+03  0.48133737532E+03  0.00000000000E+00 0.  1.
         11    1    1    2    0    0 -0.14642248677E+03  0.12913896580E+02 -0.23263981398E+03  0.27518647569E+03  0.00000000000E+00 0. -1.
        -15    1    3    3    0    0  0.15224276406E+02  0.22348017298E+02 -0.85114436767E+01  0.28404486824E+02  0.17770000000E+01 0.  1.
         15    1    3    3    0    0 -0.33409048766E+02 -0.24493138827E+02 -0.21103692508E+03  0.21507166216E+03  0.17770000000E+01 0. -1.
</event>
<event>
 7    1  0.4133533E-006  0.5113250E+03  0.7546771E-02  0.9374820E-01
        -11   -1    0    0    0    0  0.00000000000E+00  0.00000000000E+00  0.50000000000E+03  0.50000000000E+03  0.00000000000E+00 0.  1.
         11   -1    0    0    0    0 -0.00000000000E+00 -0.00000000000E+00 -0.50000000000E+03  0.50000000000E+03  0.00000000000E+00 0.  1.
         23    2    1    2    0    0 -0.11146473681E+03 -0.13924562962E+01  0.21427114848E+03  0.25795685379E+03  0.90571998231E+02 0.  0.
        -11    1    1    2    0    0 -0.42968470320E+02 -0.20850875109E+02  0.24882594046E+03  0.25336810588E+03  0.00000000000E+00 0.  1.
         11    1    1    2    0    0  0.15443320713E+03  0.22243331406E+02 -0.46309708893E+03  0.48867504032E+03  0.00000000000E+00 0.  1.
        -15    1    3    3    0    0 -0.54830291964E+02  0.34408240365E+02  0.54292335984E+02  0.84505049538E+02  0.17770000000E+01 0.  1.
         15    1    3    3    0    0 -0.56634444847E+02 -0.35800696661E+02  0.15997881249E+03  0.17345180426E+03  0.17770000000E+01 0. -1.
</event>
<event>
 7    1  0.4133533E-006  0.5004326E+03  0.7546771E-02  0.9398842E-01
        -11   -1    0    0    0    0  0.00000000000E+00  0.00000000000E+00  0.50000000000E+03  0.50000000000E+03  0.00000000000E+00 0. -1.
         11   -1    0    0    0    0 -0.00000000000E+00 -0.00000000000E+00 -0.50000000000E+03  0.50000000000E+03  0.00000000000E+00 0.  1.
         23    2    1    2    0    0 -0.11190206972E+03  0.55375980220E+02 -0.47491644051E+03  0.49956740178E+03  0.91833496372E+02 0.  0.
        -11    1    1    2    0    0  0.78325555291E+02 -0.30759340271E+02  0.43391461416E+03  0.44199878055E+03  0.00000000000E+00 0. -1.
         11    1    1    2    0    0  0.33576514432E+02 -0.24616639950E+02  0.41001826357E+02  0.58433817678E+02  0.00000000000E+00 0.  1.
        -15    1    3    3    0    0 -0.84379434907E+02  0.81161403569E+02 -0.34967038324E+03  0.36875411470E+03  0.17770000000E+01 0.  1.
         15    1    3    3    0    0 -0.27522634816E+02 -0.25785423349E+02 -0.12524605727E+03  0.13081328707E+03  0.17770000000E+01 0. -1.
</event>
<event>
 7    1  0.4133533E-006  0.3280807E+03  0.7546771E-02  0.9896591E-01
        -11   -1    0    0    0    0  0.00000000000E+00  0.00000000000E+00  0.50000000000E+03  0.50000000000E+03  0.00000000000E+00 0.  1.
         11   -1    0    0    0    0 -0.00000000000E+00 -0.00000000000E+00 -0.50000000000E+03  0.50000000000E+03  0.00000000000E+00 0.  1.
         23    2    1    2    0    0  0.17486533876E+02  0.85382998596E+01  0.27277315088E+03  0.28913313491E+03  0.93883419367E+02 0.  0.
        -11    1    1    2    0    0 -0.16139022067E+02 -0.33059800247E+03 -0.10212984400E+03  0.34638997143E+03  0.00000000000E+00 0.  1.
         11    1    1    2    0    0 -0.13475118087E+01  0.32205970261E+03 -0.17064330688E+03  0.36447689366E+03  0.00000000000E+00 0.  1.
        -15    1    3    3    0    0 -0.35137829454E+02 -0.98357890486E+01  0.14837929316E+03  0.15281028163E+03  0.17770000000E+01 0.  1.
         15    1    3    3    0    0  0.52624363329E+02  0.18374088908E+02  0.12439385771E+03  0.13632285328E+03  0.17770000000E+01 0. -1.
</event>
<event>
 7    1  0.4133533E-006  0.5268353E+03  0.7546771E-02  0.9341688E-01
        -11   -1    0    0    0    0  0.00000000000E+00  0.00000000000E+00  0.50000000000E+03  0.50000000000E+03  0.00000000000E+00 0. -1.
         11   -1    0    0    0    0 -0.00000000000E+00 -0.00000000000E+00 -0.50000000000E+03  0.50000000000E+03  0.00000000000E+00 0.  1.
         23    2    1    2    0    0 -0.27946677059E+02 -0.73609933926E+00  0.26203796764E+03  0.27899225041E+03  0.91603606400E+02 0.  0.
        -11    1    1    2    0    0  0.15866480378E+02 -0.17100762050E+03  0.17869205292E+03  0.24784309804E+03  0.00000000000E+00 0. -1.
         11    1    1    2    0    0  0.12080196681E+02  0.17174371984E+03 -0.44073002056E+03  0.47316465155E+03  0.00000000000E+00 0.  1.
        -15    1    3    3    0    0 -0.48480136042E+02 -0.28351053217E+02  0.11530174744E+03  0.12826440076E+03  0.17770000000E+01 0. -1.
         15    1    3    3    0    0  0.20533458984E+02  0.27614953878E+02  0.14673622020E+03  0.15072784966E+03  0.17770000000E+01 0.  1.
</event>
<event>
 7    1  0.4133533E-006  0.4689560E+03  0.7546771E-02  0.9472085E-01
        -11   -1    0    0    0    0  0.00000000000E+00  0.00000000000E+00  0.50000000000E+03  0.50000000000E+03  0.00000000000E+00 0. -1.
         11   -1    0    0    0    0 -0.00000000000E+00 -0.00000000000E+00 -0.50000000000E+03  0.50000000000E+03  0.00000000000E+00 0. -1.
         23    2    1    2    0    0  0.13071522010E+02  0.58739270203E+02 -0.42567773024E+03  0.43976410353E+03  0.92573053179E+02 0.  0.
        -11    1    1    2    0    0  0.15120642585E+02 -0.80110191507E+02  0.48465404350E+03  0.49146293705E+03  0.00000000000E+00 0. -1.
         11    1    1    2    0    0 -0.28192164595E+02  0.21370921304E+02 -0.58976313259E+02  0.68772959421E+02  0.00000000000E+00 0. -1.
        -15    1    3    3    0    0  0.19466151554E+02 -0.21982677767E+02 -0.11452648689E+03  0.11824399818E+03  0.17770000000E+01 0.  1.
         15    1    3    3    0    0 -0.63946295436E+01  0.80721947971E+02 -0.31115124335E+03  0.32152010534E+03  0.17770000000E+01 0. -1.
</event>
<event>
 7    1  0.4133533E-006  0.5339391E+03  0.7546771E-02  0.9326915E-01
        -11   -1    0    0    0    0  0.00000000000E+00  0.00000000000E+00  0.50000000000E+03  0.50000000000E+03  0.00000000000E+00 0. -1.
         11   -1    0    0    0    0 -0.00000000000E+00 -0.00000000000E+00 -0.50000000000E+03  0.50000000000E+03  0.00000000000E+00 0.  1.
         23    2    1    2    0    0  0.68292675232E+02  0.81346711574E+01 -0.10839361404E+03  0.17238987582E+03  0.11506098973E+03 0.  0.
        -11    1    1    2    0    0 -0.35057366619E+02  0.75447384086E+02  0.45857542996E+03  0.46606088839E+03  0.00000000000E+00 0. -1.
         11    1    1    2    0    0 -0.33235308613E+02 -0.83582055243E+02 -0.35018181592E+03  0.36154923579E+03  0.00000000000E+00 0.  1.
        -15    1    3    3    0    0  0.19737916778E+02 -0.52205647150E+02 -0.36587408570E+02  0.66759352513E+02  0.17770000000E+01 0. -1.
         15    1    3    3    0    0  0.48554758454E+02  0.60340318308E+02 -0.71806205467E+02  0.10563052331E+03  0.17770000000E+01 0.  1.
</event>
<event>
 7    1  0.4133533E-006  0.3508894E+03  0.7546771E-02  0.9813789E-01
        -11   -1    0    0    0    0  0.00000000000E+00  0.00000000000E+00  0.50000000000E+03  0.50000000000E+03  0.00000000000E+00 0. -1.
         11   -1    0    0    0    0 -0.00000000000E+00 -0.00000000000E+00 -0.50000000000E+03  0.50000000000E+03  0.00000000000E+00 0.  1.
         23    2    1    2    0    0 -0.39109206646E+02 -0.23043018949E+03  0.52222236855E+02  0.25848252700E+03  0.97254575561E+02 0.  0.
        -11    1    1    2    0    0  0.85363074301E+02  0.14596558734E+02  0.30750450482E+03  0.31946664062E+03  0.00000000000E+00 0. -1.
         11    1    1    2    0    0 -0.46253867655E+02  0.21583363076E+03 -0.35972674168E+03  0.42205083239E+03  0.00000000000E+00 0.  1.
        -15    1    3    3    0    0 -0.44788369441E+02 -0.37152929574E+02  0.24386333472E+02  0.63120434111E+02  0.17770000000E+01 0. -1.
         15    1    3    3    0    0  0.56791627947E+01 -0.19327725992E+03  0.27835903383E+02  0.19536209289E+03  0.17770000000E+01 0.  1.
</event>
<event>
 7    1  0.4133533E-006  0.3534657E+03  0.7546771E-02  0.9804862E-01
        -11   -1    0    0    0    0  0.00000000000E+00  0.00000000000E+00  0.50000000000E+03  0.50000000000E+03  0.00000000000E+00 0. -1.
         11   -1    0    0    0    0 -0.00000000000E+00 -0.00000000000E+00 -0.50000000000E+03  0.50000000000E+03  0.00000000000E+00 0. -1.
         23    2    1    2    0    0 -0.41388643594E+02 -0.65008761788E+01 -0.28721970433E+03  0.30373388289E+03  0.89464137204E+02 0.  0.
        -11    1    1    2    0    0 -0.24166199675E+03 -0.84048077484E+02 -0.34634843035E+02  0.25819405949E+03  0.00000000000E+00 0. -1.
         11    1    1    2    0    0  0.28305064035E+03  0.90548953662E+02  0.32185454737E+03  0.43807205763E+03  0.00000000000E+00 0. -1.
        -15    1    3    3    0    0 -0.54865205996E+02  0.25673113543E+02 -0.14233846985E+03  0.15470196287E+03  0.17770000000E+01 0. -1.
         15    1    3    3    0    0  0.13476562402E+02 -0.32173989721E+02 -0.14488123448E+03  0.14903192002E+03  0.17770000000E+01 0.  1.
</event>
<event>
 7    1  0.4133533E-006  0.4341428E+03  0.7546771E-02  0.9560573E-01
        -11   -1    0    0    0    0  0.00000000000E+00  0.00000000000E+00  0.50000000000E+03  0.50000000000E+03  0.00000000000E+00 0. -1.
         11   -1    0    0    0    0 -0.00000000000E+00 -0.00000000000E+00 -0.50000000000E+03  0.50000000000E+03  0.00000000000E+00 0.  1.
         23    2    1    2    0    0 -0.13595688095E+03  0.60828591381E+02 -0.41187516113E+03  0.44744431066E+03  0.91547101403E+02 0.  0.
        -11    1    1    2    0    0  0.71848534151E+01 -0.87319009049E+02  0.41187152718E+03  0.42108714818E+03  0.00000000000E+00 0. -1.
         11    1    1    2    0    0  0.12877202753E+03  0.26490417668E+02  0.36339582549E-02  0.13146854117E+03  0.00000000000E+00 0.  1.
        -15    1    3    3    0    0 -0.25999464280E+02  0.47605924771E+02 -0.73254997738E+02  0.91168792022E+02  0.17770000000E+01 0. -1.
         15    1    3    3    0    0 -0.10995741667E+03  0.13222666609E+02 -0.33862016340E+03  0.35627551864E+03  0.17770000000E+01 0.  1.
</event>
<event>
 7    1  0.4133533E-006  0.3334335E+03  0.7546771E-02  0.9876523E-01
        -11   -1    0    0    0    0  0.00000000000E+00  0.00000000000E+00  0.50000000000E+03  0.50000000000E+03  0.00000000000E+00 0.  1.
         11   -1    0    0    0    0 -0.00000000000E+00 -0.00000000000E+00 -0.50000000000E+03  0.50000000000E+03  0.00000000000E+00 0. -1.
         23    2    1    2    0    0 -0.23476915837E+03  0.79782864019E+02  0.98995735801E+02  0.28167305024E+03  0.89764627858E+02 0.  0.
        -11    1    1    2    0    0  0.75533110368E+02  0.11640752961E+03  0.25090902231E+03  0.28672513177E+03  0.00000000000E+00 0.  1.
         11    1    1    2    0    0  0.15923604800E+03 -0.19619039363E+03 -0.34990475811E+03  0.43160181798E+03  0.00000000000E+00 0. -1.
        -15    1    3    3    0    0 -0.23301358357E+03  0.56065211482E+02  0.93006616732E+02  0.25708369562E+03  0.17770000000E+01 0.  1.
         15    1    3    3    0    0 -0.17555747975E+01  0.23717652537E+02  0.59891190692E+01  0.24589354626E+02  0.17770000000E+01 0. -1.
</event>
<event>
 7    1  0.4133533E-006  0.4404754E+03  0.7546771E-02  0.9543833E-01
        -11   -1    0    0    0    0  0.00000000000E+00  0.00000000000E+00  0.50000000000E+03  0.50000000000E+03  0.00000000000E+00 0.  1.
         11   -1    0    0    0    0 -0.00000000000E+00 -0.00000000000E+00 -0.50000000000E+03  0.50000000000E+03  0.00000000000E+00 0. -1.
         23    2    1    2    0    0  0.33610765246E+02 -0.74245353097E+02 -0.40198294529E+03  0.42195813794E+03  0.99077373156E+02 0.  0.
        -11    1    1    2    0    0 -0.11629483838E+03 -0.62547341463E+01  0.44108258444E+03  0.45619892309E+03  0.00000000000E+00 0.  1.
         11    1    1    2    0    0  0.82684073135E+02  0.80500087243E+02 -0.39099639145E+02  0.12184293897E+03  0.00000000000E+00 0. -1.
        -15    1    3    3    0    0  0.19278190313E+02  0.22338547910E+02 -0.11826307257E+03  0.12190148239E+03  0.17770000000E+01 0.  1.
         15    1    3    3    0    0  0.14332574933E+02 -0.96583901007E+02 -0.28371987272E+03  0.30005665555E+03  0.17770000000E+01 0. -1.
</event>
<event>
 7    1  0.4133533E-006  0.5405427E+03  0.7546771E-02  0.9313399E-01
        -11   -1    0    0    0    0  0.00000000000E+00  0.00000000000E+00  0.50000000000E+03  0.50000000000E+03  0.00000000000E+00 0.  1.
         11   -1    0    0    0    0 -0.00000000000E+00 -0.00000000000E+00 -0.50000000000E+03  0.50000000000E+03  0.00000000000E+00 0. -1.
         23    2    1    2    0    0 -0.23823603467E+02  0.95428787329E+02 -0.25632564440E+03  0.28894720734E+03  0.90074608627E+02 0.  0.
        -11    1    1    2    0    0  0.46927033861E+02  0.59568955595E+02  0.45315606505E+03  0.45945731714E+03  0.00000000000E+00 0.  1.
         11    1    1    2    0    0 -0.23103430394E+02 -0.15499774292E+03 -0.19683042065E+03  0.25159547552E+03  0.00000000000E+00 0. -1.
        -15    1    3    3    0    0  0.11059367638E+02 -0.13297403939E+02 -0.52579650984E+02  0.55379671276E+02  0.17770000000E+01 0.  1.
         15    1    3    3    0    0 -0.34882971105E+02  0.10872619127E+03 -0.20374599342E+03  0.23356753607E+03  0.17770000000E+01 0. -1.
</event>
<event>
 7    1  0.4133533E-006  0.3969612E+03  0.7546771E-02  0.9665422E-01
        -11   -1    0    0    0    0  0.00000000000E+00  0.00000000000E+00  0.50000000000E+03  0.50000000000E+03  0.00000000000E+00 0.  1.
         11   -1    0    0    0    0 -0.00000000000E+00 -0.00000000000E+00 -0.50000000000E+03  0.50000000000E+03  0.00000000000E+00 0. -1.
         23    2    1    2    0    0 -0.14320826120E+03 -0.18336838155E+03  0.25217787958E+03  0.35414093175E+03  0.87690063076E+02 0.  0.
        -11    1    1    2    0    0 -0.82681786535E+01  0.96929105500E+02  0.16620454687E+03  0.19258132223E+03  0.00000000000E+00 0.  1.
         11    1    1    2    0    0  0.15147643985E+03  0.86439276051E+02 -0.41838242645E+03  0.45327774602E+03  0.00000000000E+00 0. -1.
        -15    1    3    3    0    0 -0.10088211706E+03 -0.11722695098E+03  0.10384648559E+03  0.18629710110E+03  0.17770000000E+01 0.  1.
         15    1    3    3    0    0 -0.42326144133E+02 -0.66141430568E+02  0.14833139399E+03  0.16784383065E+03  0.17770000000E+01 0. -1.
</event>
<event>
 7    1  0.4133533E-006  0.3886860E+03  0.7546771E-02  0.9690434E-01
        -11   -1    0    0    0    0  0.00000000000E+00  0.00000000000E+00  0.50000000000E+03  0.50000000000E+03  0.00000000000E+00 0.  1.
         11   -1    0    0    0    0 -0.00000000000E+00 -0.00000000000E+00 -0.50000000000E+03  0.50000000000E+03  0.00000000000E+00 0.  1.
         23    2    1    2    0    0 -0.62678832422E+01  0.18599632697E+02 -0.45063559497E+03  0.46018724825E+03  0.91184600129E+02 0.  0.
        -11    1    1    2    0    0 -0.13803174185E+03 -0.12892166566E+02  0.30342249381E+03  0.33359283486E+03  0.00000000000E+00 0.  1.
         11    1    1    2    0    0  0.14429962509E+03 -0.57074661312E+01  0.14721310116E+03  0.20621991689E+03  0.00000000000E+00 0.  1.
        -15    1    3    3    0    0 -0.30202860740E+02  0.47072578507E+02 -0.27964665415E+03  0.28519019856E+03  0.17770000000E+01 0.  1.
         15    1    3    3    0    0  0.23934977498E+02 -0.28472945809E+02 -0.17098894082E+03  0.17499704969E+03  0.17770000000E+01 0. -1.
</event>
<event>
 7    1  0.4133533E-006  0.5231404E+03  0.7546771E-02  0.9349470E-01
        -11   -1    0    0    0    0  0.00000000000E+00  0.00000000000E+00  0.50000000000E+03  0.50000000000E+03  0.00000000000E+00 0.  1.
         11   -1    0    0    0    0 -0.00000000000E+00 -0.00000000000E+00 -0.50000000000E+03  0.50000000000E+03  0.00000000000E+00 0. -1.
         23    2    1    2    0    0 -0.28099460375E+02  0.14691881500E+03  0.22620720736E+03  0.28594296011E+03  0.90658468439E+02 0.  0.
        -11    1    1    2    0    0 -0.16984183466E+03  0.65468080146E+02  0.15208650511E+03  0.23719743539E+03  0.00000000000E+00 0.  1.
         11    1    1    2    0    0  0.19794129503E+03 -0.21238689515E+03 -0.37829371247E+03  0.47685960450E+03  0.00000000000E+00 0. -1.
        -15    1    3    3    0    0  0.22267460907E+02  0.76081670158E+02  0.15284663993E+03  0.17219034066E+03  0.17770000000E+01 0.  1.
         15    1    3    3    0    0 -0.50366921283E+02  0.70837144846E+02  0.73360567427E+02  0.11375261945E+03  0.17770000000E+01 0. -1.
</event>
<event>
 7    1  0.4133533E-006  0.4581227E+03  0.7546771E-02  0.9498720E-01
        -11   -1    0    0    0    0  0.00000000000E+00  0.00000000000E+00  0.50000000000E+03  0.50000000000E+03  0.00000000000E+00 0. -1.
         11   -1    0    0    0    0 -0.00000000000E+00 -0.00000000000E+00 -0.50000000000E+03  0.50000000000E+03  0.00000000000E+00 0.  1.
         23    2    1    2    0    0  0.18623660491E+02  0.76306081899E+02 -0.42843886809E+03  0.44523340857E+03  0.92214237230E+02 0.  0.
        -11    1    1    2    0    0  0.62066014714E+02 -0.54720071592E+02  0.45856676636E+03  0.46597205455E+03  0.00000000000E+00 0. -1.
         11    1    1    2    0    0 -0.80689675205E+02 -0.21586010307E+02 -0.30127898265E+02  0.88794536879E+02  0.00000000000E+00 0.  1.
        -15    1    3    3    0    0 -0.54568334388E+00 -0.21118728625E+02 -0.59564565418E+02  0.63224944852E+02  0.17770000000E+01 0. -1.
         15    1    3    3    0    0  0.19169343835E+02  0.97424810523E+02 -0.36887430267E+03  0.38200846372E+03  0.17770000000E+01 0.  1.
</event>
<event>
 7    1  0.4133533E-006  0.4666700E+03  0.7546771E-02  0.9477641E-01
        -11   -1    0    0    0    0  0.00000000000E+00  0.00000000000E+00  0.50000000000E+03  0.50000000000E+03  0.00000000000E+00 0.  1.
         11   -1    0    0    0    0 -0.00000000000E+00 -0.00000000000E+00 -0.50000000000E+03  0.50000000000E+03  0.00000000000E+00 0. -1.
         23    2    1    2    0    0 -0.12210448039E+02  0.29208377463E+02 -0.43333414886E+03  0.44226848502E+03  0.82587553052E+02 0.  0.
        -11    1    1    2    0    0  0.15621771146E+01 -0.82573172271E+02  0.47938330124E+03  0.48644539127E+03  0.00000000000E+00 0.  1.
         11    1    1    2    0    0  0.10648270924E+02  0.53364794808E+02 -0.46049152388E+02  0.71286123715E+02  0.00000000000E+00 0. -1.
        -15    1    3    3    0    0 -0.23430635313E+02 -0.23901703667E+02 -0.14071990734E+03  0.14465661464E+03  0.17770000000E+01 0. -1.
         15    1    3    3    0    0  0.11220187275E+02  0.53110081130E+02 -0.29261424152E+03  0.29761187038E+03  0.17770000000E+01 0.  1.
</event>
<event>
 7    1  0.4133533E-006  0.3842853E+03  0.7546771E-02  0.9704007E-01
        -11   -1    0    0    0    0  0.00000000000E+00  0.00000000000E+00  0.50000000000E+03  0.50000000000E+03  0.00000000000E+00 0. -1.
         11   -1    0    0    0    0 -0.00000000000E+00 -0.00000000000E+00 -0.50000000000E+03  0.50000000000E+03  0.00000000000E+00 0.  1.
         23    2    1    2    0    0  0.37553806438E+02 -0.10481620519E+03 -0.15134535741E+03  0.20879651522E+03  0.91070534814E+02 0.  0.
        -11    1    1    2    0    0 -0.12250096448E+03 -0.30373783084E+03  0.17856243754E+03  0.37302506656E+03  0.00000000000E+00 0. -1.
         11    1    1    2    0    0  0.84947158039E+02  0.40855403603E+03 -0.27217080127E+02  0.41817841822E+03  0.00000000000E+00 0.  1.
        -15    1    3    3    0    0  0.34105424731E+02 -0.11769771950E+02 -0.90790803429E+02  0.97713024946E+02  0.17770000000E+01 0.  1.
         15    1    3    3    0    0  0.34483817077E+01 -0.93046433242E+02 -0.60554553979E+02  0.11108349028E+03  0.17770000000E+01 0. -1.
</event>
<event>
 7    1  0.4133533E-006  0.5242807E+03  0.7546771E-02  0.9347061E-01
        -11   -1    0    0    0    0  0.00000000000E+00  0.00000000000E+00  0.50000000000E+03  0.50000000000E+03  0.00000000000E+00 0. -1.
         11   -1    0    0    0    0 -0.00000000000E+00 -0.00000000000E+00 -0.50000000000E+03  0.50000000000E+03  0.00000000000E+00 0.  1.
         23    2    1    2    0    0  0.43215538735E+02 -0.19747681773E+03 -0.17574681841E+03  0.28135968578E+03  0.86090953496E+02 0.  0.
        -11    1    1    2    0    0 -0.15330262981E+03  0.22404362306E+03  0.39065533046E+03  0.47571927495E+03  0.00000000000E+00 0. -1.
         11    1    1    2    0    0  0.11008709108E+03 -0.26566805332E+02 -0.21490851205E+03  0.24292103927E+03  0.00000000000E+00 0.  1.
        -15    1    3    3    0    0 -0.13774485895E+02 -0.19336688903E+01 -0.31299011755E+01  0.14367656296E+02  0.17770000000E+01 0.  1.
         15    1    3    3    0    0  0.56990024630E+02 -0.19554314884E+03 -0.17261691723E+03  0.26699202948E+03  0.17770000000E+01 0. -1.
</event>
<event>
 7    1  0.4133533E-006  0.4272621E+03  0.7546771E-02  0.9579111E-01
        -11   -1    0    0    0    0  0.00000000000E+00  0.00000000000E+00  0.50000000000E+03  0.50000000000E+03  0.00000000000E+00 0. -1.
         11   -1    0    0    0    0 -0.00000000000E+00 -0.00000000000E+00 -0.50000000000E+03  0.50000000000E+03  0.00000000000E+00 0.  1.
         23    2    1    2    0    0 -0.63476059834E+02 -0.23497001554E+03  0.30699721316E+03  0.40203621847E+03  0.90253607686E+02 0.  0.
        -11    1    1    2    0    0 -0.99090914102E+02  0.63238410469E+02  0.81581867424E+02  0.14308636171E+03  0.00000000000E+00 0. -1.
         11    1    1    2    0    0  0.16256697394E+03  0.17173160507E+03 -0.38857908058E+03  0.45487741982E+03  0.00000000000E+00 0.  1.
        -15    1    3    3    0    0 -0.58690143024E+01 -0.37033074743E+02  0.11255199988E+03  0.11864655225E+03  0.17770000000E+01 0.  1.
         15    1    3    3    0    0 -0.57607045531E+02 -0.19793694080E+03  0.19444521327E+03  0.28338966622E+03  0.17770000000E+01 0. -1.
</event>
<event>
 7    1  0.4133533E-006  0.3564342E+03  0.7546771E-02  0.9794677E-01
        -11   -1    0    0    0    0  0.00000000000E+00  0.00000000000E+00  0.50000000000E+03  0.50000000000E+03  0.00000000000E+00 0.  1.
         11   -1    0    0    0    0 -0.00000000000E+00 -0.00000000000E+00 -0.50000000000E+03  0.50000000000E+03  0.00000000000E+00 0. -1.
         23    2    1    2    0    0 -0.55029136706E+02 -0.16844349512E+03 -0.41093925554E+03  0.45707997465E+03  0.93003303952E+02 0.  0.
        -11    1    1    2    0    0  0.10216803252E+03 -0.36328134326E+02  0.26711439016E+03  0.28828482035E+03  0.00000000000E+00 0.  1.
         11    1    1    2    0    0 -0.47138895818E+02  0.20477162945E+03  0.14382486537E+03  0.25463520500E+03  0.00000000000E+00 0. -1.
        -15    1    3    3    0    0  0.79180929582E+01 -0.41447034953E+02 -0.33521786040E+02  0.53920504178E+02  0.17770000000E+01 0.  1.
         15    1    3    3    0    0 -0.62947229664E+02 -0.12699646017E+03 -0.37741746950E+03  0.40315947047E+03  0.17770000000E+01 0. -1.
</event>
<event>
 7    1  0.4133533E-006  0.4698293E+03  0.7546771E-02  0.9469971E-01
        -11   -1    0    0    0    0  0.00000000000E+00  0.00000000000E+00  0.50000000000E+03  0.50000000000E+03  0.00000000000E+00 0.  1.
         11   -1    0    0    0    0 -0.00000000000E+00 -0.00000000000E+00 -0.50000000000E+03  0.50000000000E+03  0.00000000000E+00 0. -1.
         23    2    1    2    0    0 -0.47073238719E+02  0.98921786781E+02  0.41645269371E+03  0.44059558207E+03  0.93221301948E+02 0.  0.
        -11    1    1    2    0    0  0.20893698324E+02  0.62026141725E+01  0.63625264852E+02  0.67254690392E+02  0.00000000000E+00 0.  1.
         11    1    1    2    0    0  0.26179540395E+02 -0.10512440095E+03 -0.48007795857E+03  0.49214972753E+03  0.00000000000E+00 0. -1.
        -15    1    3    3    0    0 -0.68163583276E+02  0.89891066358E+02  0.38761628637E+03  0.40370313485E+03  0.17770000000E+01 0.  1.
         15    1    3    3    0    0  0.21090344557E+02  0.90307204224E+01  0.28836407345E+02  0.36892447228E+02  0.17770000000E+01 0. -1.
</event>
<event>
 7    1  0.4133533E-006  0.4055286E+03  0.7546771E-02  0.9640205E-01
        -11   -1    0    0    0    0  0.00000000000E+00  0.00000000000E+00  0.50000000000E+03  0.50000000000E+03  0.00000000000E+00 0.  1.
         11   -1    0    0    0    0 -0.00000000000E+00 -0.00000000000E+00 -0.50000000000E+03  0.50000000000E+03  0.00000000000E+00 0. -1.
         23    2    1    2    0    0 -0.11188344521E+03  0.58701062865E+02 -0.83961117802E+02  0.17487752248E+03  0.86999761347E+02 0.  0.
        -11    1    1    2    0    0  0.13809233502E+03  0.38609837873E+02  0.43598410376E+03  0.45895789710E+03  0.00000000000E+00 0.  1.
         11    1    1    2    0    0 -0.26208889812E+02 -0.97310900737E+02 -0.35202298596E+03  0.36616458042E+03  0.00000000000E+00 0. -1.
        -15    1    3    3    0    0 -0.93272593596E+02  0.51034113959E+02 -0.10232493964E+03  0.14757306159E+03  0.17770000000E+01 0.  1.
         15    1    3    3    0    0 -0.18610851614E+02  0.76669489057E+01  0.18363821842E+02  0.27304460899E+02  0.17770000000E+01 0. -1.
</event>
<event>
 7    1  0.4133533E-006  0.5131184E+03  0.7546771E-02  0.9370925E-01
        -11   -1    0    0    0    0  0.00000000000E+00  0.00000000000E+00  0.50000000000E+03  0.50000000000E+03  0.00000000000E+00 0. -1.
         11   -1    0    0    0    0 -0.00000000000E+00 -0.00000000000E+00 -0.50000000000E+03  0.50000000000E+03  0.00000000000E+00 0. -1.
         23    2    1    2    0    0 -0.18829679686E+02  0.31472249653E+02 -0.30066844190E+03  0.31592617861E+03  0.89792978812E+02 0.  0.
        -11    1    1    2    0    0  0.11744225260E+03 -0.66489011883E+02  0.46780360439E+03  0.48688159102E+03  0.00000000000E+00 0. -1.
         11    1    1    2    0    0 -0.98612572913E+02  0.35016762230E+02 -0.16713516249E+03  0.19719223036E+03  0.00000000000E+00 0. -1.
        -15    1    3    3    0    0 -0.44269022844E+02  0.15634668994E+02 -0.26577999859E+03  0.26990063845E+03  0.17770000000E+01 0. -1.
         15    1    3    3    0    0  0.25439343158E+02  0.15837580659E+02 -0.34888443308E+02  0.46025540158E+02  0.17770000000E+01 0.  1.
</event>
<event>
 7    1  0.4133533E-006  0.4259402E+03  0.7546771E-02  0.9582716E-01
        -11   -1    0    0    0    0  0.00000000000E+00  0.00000000000E+00  0.50000000000E+03  0.50000000000E+03  0.00000000000E+00 0.  1.
         11   -1    0    0    0    0 -0.00000000000E+00 -0.00000000000E+00 -0.50000000000E+03  0.50000000000E+03  0.00000000000E+00 0. -1.
         23    2    1    2    0    0  0.28642832318E+03  0.12028138594E+03  0.22159690682E+03  0.39190000968E+03  0.89283998278E+02 0.  0.
        -11    1    1    2    0    0  0.15824037168E+02 -0.71083686812E+02  0.12557846612E+03  0.14516625585E+03  0.00000000000E+00 0.  1.
         11    1    1    2    0    0 -0.30225236035E+03 -0.49197699130E+02 -0.34717537294E+03  0.46293373447E+03  0.00000000000E+00 0. -1.
        -15    1    3    3    0    0  0.54398803030E+02 -0.86319294250E+01  0.58433796993E+02  0.80320647013E+02  0.17770000000E+01 0. -1.
         15    1    3    3    0    0  0.23202952015E+03  0.12891331537E+03  0.16316310982E+03  0.31157936266E+03  0.17770000000E+01 0.  1.
</event>
<event>
 7    1  0.4133533E-006  0.5107731E+03  0.7546771E-02  0.9376021E-01
        -11   -1    0    0    0    0  0.00000000000E+00  0.00000000000E+00  0.50000000000E+03  0.50000000000E+03  0.00000000000E+00 0.  1.
         11   -1    0    0    0    0 -0.00000000000E+00 -0.00000000000E+00 -0.50000000000E+03  0.50000000000E+03  0.00000000000E+00 0. -1.
         23    2    1    2    0    0  0.10073188377E+01 -0.68211819468E+02  0.19322676401E+03  0.22514068474E+03  0.93262417883E+02 0.  0.
        -11    1    1    2    0    0  0.39923554011E+02 -0.77374419725E+02  0.27203899171E+03  0.28563246314E+03  0.00000000000E+00 0.  1.
         11    1    1    2    0    0 -0.40930872849E+02  0.14558623919E+03 -0.46526575571E+03  0.48922685212E+03  0.00000000000E+00 0. -1.
        -15    1    3    3    0    0 -0.13761732438E+02 -0.86989943707E+02  0.12572592813E+03  0.15351482768E+03  0.17770000000E+01 0. -1.
         15    1    3    3    0    0  0.14769051275E+02  0.18778124240E+02  0.67500835876E+02  0.71625857052E+02  0.17770000000E+01 0.  1.
</event>
<event>
 7    1  0.4133533E-006  0.5367997E+03  0.7546771E-02  0.9321035E-01
        -11   -1    0    0    0    0  0.00000000000E+00  0.00000000000E+00  0.50000000000E+03  0.50000000000E+03  0.00000000000E+00 0.  1.
         11   -1    0    0    0    0 -0.00000000000E+00 -0.00000000000E+00 -0.50000000000E+03  0.50000000000E+03  0.00000000000E+00 0. -1.
         23    2    1    2    0    0 -0.99050730337E+02  0.85924805197E+02 -0.19017368716E+03  0.24919696030E+03  0.93482481821E+02 0.  0.
        -11    1    1    2    0    0  0.34930577145E+03 -0.17464204605E+01  0.30419887568E+03  0.46320031079E+03  0.00000000000E+00 0.  1.
         11    1    1    2    0    0 -0.25025504111E+03 -0.84178384737E+02 -0.11402518852E+03  0.28760272891E+03  0.00000000000E+00 0. -1.
        -15    1    3    3    0    0  0.16453191983E+02  0.54317250910E+01 -0.38445201824E+02  0.42206663410E+02  0.17770000000E+01 0. -1.
         15    1    3    3    0    0 -0.11550392232E+03  0.80493080106E+02 -0.15172848533E+03  0.20699029689E+03  0.17770000000E+01 0.  1.
</event>
<event>
 7    1  0.4133533E-006  0.4729968E+03  0.7546771E-02  0.9462345E-01
        -11   -1    0    0    0    0  0.00000000000E+00  0.00000000000E+00  0.50000000000E+03  0.50000000000E+03  0.00000000000E+00 0. -1.
         11   -1    0    0    0    0 -0.00000000000E+00 -0.00000000000E+00 -0.50000000000E+03  0.50000000000E+03  0.00000000000E+00 0.  1.
         23    2    1    2    0    0 -0.15110888312E+02 -0.91584087662E+02 -0.45407394763E+03  0.47193518203E+03  0.89015066518E+02 0.  0.
        -11    1    1    2    0    0  0.64987241025E+02  0.57744983313E+02  0.45940408269E+03  0.46755741443E+03  0.00000000000E+00 0. -1.
         11    1    1    2    0    0 -0.49876352714E+02  0.33839104349E+02 -0.53301350655E+01  0.60507403538E+02  0.00000000000E+00 0.  1.
        -15    1    3    3    0    0 -0.34047406706E+02 -0.63090741898E+02 -0.40942320311E+03  0.41565632990E+03  0.17770000000E+01 0.  1.
         15    1    3    3    0    0  0.18936518395E+02 -0.28493345764E+02 -0.44650744519E+02  0.56278852128E+02  0.17770000000E+01 0. -1.
</event>
<event>
 7    1  0.4133533E-006  0.5008069E+03  0.7546771E-02  0.9398006E-01
        -11   -1    0    0    0    0  0.00000000000E+00  0.00000000000E+00  0.50000000000E+03  0.50000000000E+03  0.00000000000E+00 0.  1.
         11   -1    0    0    0    0 -0.00000000000E+00 -0.00000000000E+00 -0.50000000000E+03  0.50000000000E+03  0.00000000000E+00 0. -1.
         23    2    1    2    0    0  0.80124218565E+02 -0.81236865541E+02 -0.47857906810E+03  0.50080691187E+03  0.93543144215E+02 0.  0.
        -11    1    1    2    0    0 -0.38407859368E+02  0.89831332095E+02  0.29577491834E+03  0.31149259094E+03  0.00000000000E+00 0.  1.
         11    1    1    2    0    0 -0.41716359197E+02 -0.85944665538E+01  0.18280414976E+03  0.18770049720E+03  0.00000000000E+00 0. -1.
        -15    1    3    3    0    0  0.28548444977E+02 -0.58945881519E+02 -0.39294648393E+03  0.39837134387E+03  0.17770000000E+01 0. -1.
         15    1    3    3    0    0  0.51575773589E+02 -0.22290984022E+02 -0.85632584172E+02  0.10243556800E+03  0.17770000000E+01 0.  1.
</event>
<event>
 7    1  0.4133533E-006  0.3498364E+03  0.7546771E-02  0.9817462E-01
        -11   -1    0    0    0    0  0.00000000000E+00  0.00000000000E+00  0.50000000000E+03  0.50000000000E+03  0.00000000000E+00 0. -1.
         11   -1    0    0    0    0 -0.00000000000E+00 -0.00000000000E+00 -0.50000000000E+03  0.50000000000E+03  0.00000000000E+00 0. -1.
         23    2    1    2    0    0  0.11152698102E+03 -0.16210797332E+03 -0.32616065514E+03  0.39197862879E+03  0.92461937876E+02 0.  0.
        -11    1    1    2    0    0  0.27366610128E+02 -0.61948311966E+02  0.33743670077E+03  0.34416573294E+03  0.00000000000E+00 0. -1.
         11    1    1    2    0    0 -0.13889359115E+03  0.22405628529E+03 -0.11276045630E+02  0.26385563827E+03  0.00000000000E+00 0. -1.
        -15    1    3    3    0    0  0.12693195259E+03 -0.15494549496E+03 -0.29907714088E+03  0.35995849889E+03  0.17770000000E+01 0. -1.
         15    1    3    3    0    0 -0.15404971565E+02 -0.71624783629E+01 -0.27083514257E+02  0.32020129898E+02  0.17770000000E+01 0.  1.
</event>
<event>
 7    1  0.4133533E-006  0.3115403E+03  0.7546771E-02  0.9961298E-01
        -11   -1    0    0    0    0  0.00000000000E+00  0.00000000000E+00  0.50000000000E+03  0.50000000000E+03  0.00000000000E+00 0.  1.
         11   -1    0    0    0    0 -0.00000000000E+00 -0.00000000000E+00 -0.50000000000E+03  0.50000000000E+03  0.00000000000E+00 0.  1.
         23    2    1    2    0    0  0.35116389910E+03 -0.70976902345E+01 -0.10566839143E+03  0.37334588832E+03  0.69676984286E+02 0.  0.
        -11    1    1    2    0    0 -0.98759975436E+02  0.54685780214E+02  0.28954225756E+03  0.31077127638E+03  0.00000000000E+00 0.  1.
         11    1    1    2    0    0 -0.25240392367E+03 -0.47588089980E+02 -0.18387386613E+03  0.31588283530E+03  0.00000000000E+00 0.  1.
        -15    1    3    3    0    0  0.30264935936E+03  0.17174664875E+02 -0.97642744324E+02  0.31847899001E+03  0.17770000000E+01 0.  1.
         15    1    3    3    0    0  0.48514539748E+02 -0.24272355109E+02 -0.80256471070E+01  0.54866898308E+02  0.17770000000E+01 0. -1.
</event>
<event>
 7    1  0.4133533E-006  0.5385546E+03  0.7546771E-02  0.9317447E-01
        -11   -1    0    0    0    0  0.00000000000E+00  0.00000000000E+00  0.50000000000E+03  0.50000000000E+03  0.00000000000E+00 0. -1.
         11   -1    0    0    0    0 -0.00000000000E+00 -0.00000000000E+00 -0.50000000000E+03  0.50000000000E+03  0.00000000000E+00 0. -1.
         23    2    1    2    0    0 -0.12741956365E+03  0.16343678888E+02 -0.27381303027E+03  0.31542118922E+03  0.89521450103E+02 0.  0.
        -11    1    1    2    0    0  0.14912315192E+02 -0.87787121315E+02  0.45277245434E+03  0.46144539354E+03  0.00000000000E+00 0. -1.
         11    1    1    2    0    0  0.11250724845E+03  0.71443442427E+02 -0.17895942408E+03  0.22313341723E+03  0.00000000000E+00 0. -1.
        -15    1    3    3    0    0 -0.11539491910E+03  0.37493643487E+02 -0.17053580777E+03  0.20930212640E+03  0.17770000000E+01 0.  1.
         15    1    3    3    0    0 -0.12024644550E+02 -0.21149964599E+02 -0.10327722249E+03  0.10611906282E+03  0.17770000000E+01 0. -1.
</event>
<event>
 6    1  0.4133533E-006  0.5638979E+03  0.7546771E-02  0.9267191E-01
        -11   -1    0    0    0    0  0.00000000000E+00  0.00000000000E+00  0.50000000000E+03  0.50000000000E+03  0.00000000000E+00 0.  1.
         11   -1    0    0    0    0 -0.00000000000E+00 -0.00000000000E+00 -0.50000000000E+03  0.50000000000E+03  0.00000000000E+00 0.  1.
        -11    1    1    2    0    0  0.25463192311E+03  0.18588824027E+03  0.21968613157E+03  0.38425753153E+03  0.00000000000E+00 0.  1.
         11    1    1    2    0    0 -0.25261948567E+03 -0.21362616795E+03 -0.28413425050E+03  0.43610207117E+03  0.00000000000E+00 0.  1.
        -15    1    1    2    0    0 -0.10054127187E+02  0.97191927240E+02  0.38718992192E+02  0.10511743090E+03  0.17770000000E+01 0.  1.
         15    1    1    2    0    0  0.80416897486E+01 -0.69453999555E+02  0.25729126741E+02  0.74522966393E+02  0.17770000000E+01 0. -1.
</event>
<event>
 7    1  0.4133533E-006  0.5352919E+03  0.7546771E-02  0.9324129E-01
        -11   -1    0    0    0    0  0.00000000000E+00  0.00000000000E+00  0.50000000000E+03  0.50000000000E+03  0.00000000000E+00 0.  1.
         11   -1    0    0    0    0 -0.00000000000E+00 -0.00000000000E+00 -0.50000000000E+03  0.50000000000E+03  0.00000000000E+00 0. -1.
         23    2    1    2    0    0 -0.12864008116E+03  0.22605012281E+02  0.16939093141E+03  0.23595753969E+03  0.99616343196E+02 0.  0.
        -11    1    1    2    0    0  0.71274555180E+02  0.65004142665E+02  0.28336449935E+03  0.29933432859E+03  0.00000000000E+00 0.  1.
         11    1    1    2    0    0  0.57365525982E+02 -0.87609154946E+02 -0.45275543076E+03  0.46470813172E+03  0.00000000000E+00 0. -1.
        -15    1    3    3    0    0 -0.12469056664E+03 -0.67019367218E+01  0.98264011779E+02  0.15890760556E+03  0.17770000000E+01 0.  1.
         15    1    3    3    0    0 -0.39495145244E+01  0.29306949003E+02  0.71126919630E+02  0.77049934133E+02  0.17770000000E+01 0. -1.
</event>
<event>
 7    1  0.4133533E-006  0.5354656E+03  0.7546771E-02  0.9323772E-01
        -11   -1    0    0    0    0  0.00000000000E+00  0.00000000000E+00  0.50000000000E+03  0.50000000000E+03  0.00000000000E+00 0.  1.
         11   -1    0    0    0    0 -0.00000000000E+00 -0.00000000000E+00 -0.50000000000E+03  0.50000000000E+03  0.00000000000E+00 0.  1.
         23    2    1    2    0    0  0.32229620734E+02  0.32997748405E+02  0.88493573424E+02  0.13445008954E+03  0.90100578175E+02 0.  0.
        -11    1    1    2    0    0  0.15887641459E+03  0.36309320969E+03  0.61114824093E+02  0.40101548070E+03  0.00000000000E+00 0.  1.
         11    1    1    2    0    0 -0.19110603533E+03 -0.39609095810E+03 -0.14960839752E+03  0.46453442976E+03  0.00000000000E+00 0.  1.
        -15    1    3    3    0    0  0.41492832613E+02 -0.20901662752E+02  0.39776645246E+02  0.61187203728E+02  0.17770000000E+01 0.  1.
         15    1    3    3    0    0 -0.92632118795E+01  0.53899411157E+02  0.48716928178E+02  0.73262885812E+02  0.17770000000E+01 0. -1.
</event>
<event>
 7    1  0.4133533E-006  0.5246632E+03  0.7546771E-02  0.9346254E-01
        -11   -1    0    0    0    0  0.00000000000E+00  0.00000000000E+00  0.50000000000E+03  0.50000000000E+03  0.00000000000E+00 0. -1.
         11   -1    0    0    0    0 -0.00000000000E+00 -0.00000000000E+00 -0.50000000000E+03  0.50000000000E+03  0.00000000000E+00 0. -1.
         23    2    1    2    0    0  0.29355484048E+02 -0.24444820250E+02 -0.32055157389E+03  0.33510848764E+03  0.89917146755E+02 0.  0.
        -11    1    1    2    0    0 -0.13058372516E+03 -0.67096452906E+02  0.45209629814E+03  0.47533683432E+03  0.00000000000E+00 0. -1.
         11    1    1    2    0    0  0.10122824112E+03  0.91541273156E+02 -0.13154472425E+03  0.18955467804E+03  0.00000000000E+00 0. -1.
        -15    1    3    3    0    0  0.57621430377E+01 -0.51451850144E+02 -0.11087893627E+03  0.12238378738E+03  0.17770000000E+01 0.  1.
         15    1    3    3    0    0  0.23593341010E+02  0.27007029894E+02 -0.20967263762E+03  0.21272470025E+03  0.17770000000E+01 0. -1.
</event>
<event>
 7    1  0.4133533E-006  0.4048593E+03  0.7546771E-02  0.9642151E-01
        -11   -1    0    0    0    0  0.00000000000E+00  0.00000000000E+00  0.50000000000E+03  0.50000000000E+03  0.00000000000E+00 0.  1.
         11   -1    0    0    0    0 -0.00000000000E+00 -0.00000000000E+00 -0.50000000000E+03  0.50000000000E+03  0.00000000000E+00 0. -1.
         23    2    1    2    0    0  0.26607292503E+03 -0.23706351979E+03  0.11570567035E+03  0.38570229379E+03  0.91567152598E+02 0.  0.
        -11    1    1    2    0    0  0.24384441830E+02  0.74904354996E+02  0.16253430721E+03  0.18061745325E+03  0.00000000000E+00 0.  1.
         11    1    1    2    0    0 -0.29045736686E+03  0.16215916480E+03 -0.27823997756E+03  0.43368025295E+03  0.00000000000E+00 0. -1.
        -15    1    3    3    0    0  0.26736933857E+03 -0.21128342857E+03  0.98863528045E+02  0.35482982583E+03  0.17770000000E+01 0.  1.
         15    1    3    3    0    0 -0.12964135371E+01 -0.25780091221E+02  0.16842142304E+02  0.30872467958E+02  0.17770000000E+01 0. -1.
</event>
<event>
 7    1  0.4133533E-006  0.4504194E+03  0.7546771E-02  0.9518141E-01
        -11   -1    0    0    0    0  0.00000000000E+00  0.00000000000E+00  0.50000000000E+03  0.50000000000E+03  0.00000000000E+00 0. -1.
         11   -1    0    0    0    0 -0.00000000000E+00 -0.00000000000E+00 -0.50000000000E+03  0.50000000000E+03  0.00000000000E+00 0. -1.
         23    2    1    2    0    0  0.12827819663E+03  0.11742496557E+03 -0.40498038017E+03  0.44973929953E+03  0.89512071508E+02 0.  0.
        -11    1    1    2    0    0 -0.59722296227E+02 -0.50623154677E+02  0.44106874537E+03  0.44796327371E+03  0.00000000000E+00 0. -1.
         11    1    1    2    0    0 -0.68555900401E+02 -0.66801810895E+02 -0.36088365196E+02  0.10229742676E+03  0.00000000000E+00 0. -1.
        -15    1    3    3    0    0  0.82638709528E+02  0.73164782627E+02 -0.34532475588E+03  0.36253908269E+03  0.17770000000E+01 0. -1.
         15    1    3    3    0    0  0.45639487100E+02  0.44260182944E+02 -0.59655624296E+02  0.87200216836E+02  0.17770000000E+01 0.  1.
</event>
<event>
 7    1  0.4133533E-006  0.5297216E+03  0.7546771E-02  0.9335656E-01
        -11   -1    0    0    0    0  0.00000000000E+00  0.00000000000E+00  0.50000000000E+03  0.50000000000E+03  0.00000000000E+00 0. -1.
         11   -1    0    0    0    0 -0.00000000000E+00 -0.00000000000E+00 -0.50000000000E+03  0.50000000000E+03  0.00000000000E+00 0.  1.
         23    2    1    2    0    0  0.59937582911E+02  0.80765543659E+02 -0.24618555667E+03  0.28128417106E+03  0.91639891370E+02 0.  0.
        -11    1    1    2    0    0  0.80760291133E+02 -0.12505808144E+03  0.44609415914E+03  0.47027837201E+03  0.00000000000E+00 0. -1.
         11    1    1    2    0    0 -0.14069787404E+03  0.44292537783E+02 -0.19990860247E+03  0.24843745693E+03  0.00000000000E+00 0.  1.
        -15    1    3    3    0    0 -0.13861736700E+01  0.52490308405E+02 -0.45390274533E+02  0.69430459490E+02  0.17770000000E+01 0. -1.
         15    1    3    3    0    0  0.61323756581E+02  0.28275235254E+02 -0.20079528213E+03  0.21185371157E+03  0.17770000000E+01 0.  1.
</event>
<event>
 7    1  0.4133533E-006  0.5291208E+03  0.7546771E-02  0.9336908E-01
        -11   -1    0    0    0    0  0.00000000000E+00  0.00000000000E+00  0.50000000000E+03  0.50000000000E+03  0.00000000000E+00 0.  1.
         11   -1    0    0    0    0 -0.00000000000E+00 -0.00000000000E+00 -0.50000000000E+03  0.50000000000E+03  0.00000000000E+00 0. -1.
         23    2    1    2    0    0  0.20926831467E+03  0.64088630577E+02 -0.22144655615E+03  0.32425649583E+03  0.90571064706E+02 0.  0.
        -11    1    1    2    0    0 -0.18421470455E+03 -0.13930984559E+03  0.41034728359E+03  0.47087916029E+03  0.00000000000E+00 0.  1.
         11    1    1    2    0    0 -0.25053610122E+02  0.75221215017E+02 -0.18890072743E+03  0.20486434388E+03  0.00000000000E+00 0. -1.
        -15    1    3    3    0    0  0.18207511478E+03  0.79900316597E+02 -0.16007262859E+03  0.25526811819E+03  0.17770000000E+01 0. -1.
         15    1    3    3    0    0  0.27193199888E+02 -0.15811686019E+02 -0.61373927565E+02  0.68988377635E+02  0.17770000000E+01 0.  1.
</event>
<event>
 7    1  0.4133533E-006  0.4026205E+03  0.7546771E-02  0.9648689E-01
        -11   -1    0    0    0    0  0.00000000000E+00  0.00000000000E+00  0.50000000000E+03  0.50000000000E+03  0.00000000000E+00 0.  1.
         11   -1    0    0    0    0 -0.00000000000E+00 -0.00000000000E+00 -0.50000000000E+03  0.50000000000E+03  0.00000000000E+00 0. -1.
         23    2    1    2    0    0 -0.90866906195E+02  0.33234566146E+01 -0.43643002656E+03  0.45493787909E+03  0.90716402817E+02 0.  0.
        -11    1    1    2    0    0 -0.32860510286E+02 -0.10367964446E+03  0.34421120577E+03  0.36098564513E+03  0.00000000000E+00 0.  1.
         11    1    1    2    0    0  0.12372741648E+03  0.10035618785E+03  0.92218820790E+02  0.18407647578E+03  0.00000000000E+00 0. -1.
        -15    1    3    3    0    0 -0.19282642833E+02 -0.36987291186E+02 -0.95186498073E+02  0.10393992096E+03  0.17770000000E+01 0.  1.
         15    1    3    3    0    0 -0.71584263361E+02  0.40310747800E+02 -0.34124352849E+03  0.35099795813E+03  0.17770000000E+01 0. -1.
</event>
<event>
 7    1  0.4133533E-006  0.3253058E+03  0.7546771E-02  0.9907156E-01
        -11   -1    0    0    0    0  0.00000000000E+00  0.00000000000E+00  0.50000000000E+03  0.50000000000E+03  0.00000000000E+00 0.  1.
         11   -1    0    0    0    0 -0.00000000000E+00 -0.00000000000E+00 -0.50000000000E+03  0.50000000000E+03  0.00000000000E+00 0.  1.
         23    2    1    2    0    0  0.51475051753E+02 -0.97136602431E+02 -0.27054865151E+03  0.30530211318E+03  0.89037110206E+02 0.  0.
        -11    1    1    2    0    0  0.99810173722E+02 -0.14202891399E+03  0.35852643256E+03  0.39834091684E+03  0.00000000000E+00 0.  1.
         11    1    1    2    0    0 -0.15128522547E+03  0.23916551643E+03 -0.87977781045E+02  0.29635696997E+03  0.00000000000E+00 0.  1.
        -15    1    3    3    0    0  0.66184285565E+02 -0.10485986926E+03 -0.24754153266E+03  0.27686805514E+03  0.17770000000E+01 0.  1.
         15    1    3    3    0    0 -0.14709233812E+02  0.77232668285E+01 -0.23007118853E+02  0.28434058043E+02  0.17770000000E+01 0. -1.
</event>
<event>
 7    1  0.4133533E-006  0.4498114E+03  0.7546771E-02  0.9519692E-01
        -11   -1    0    0    0    0  0.00000000000E+00  0.00000000000E+00  0.50000000000E+03  0.50000000000E+03  0.00000000000E+00 0. -1.
         11   -1    0    0    0    0 -0.00000000000E+00 -0.00000000000E+00 -0.50000000000E+03  0.50000000000E+03  0.00000000000E+00 0. -1.
         23    2    1    2    0    0 -0.58153718051E+02 -0.13936987757E+03 -0.42545922650E+03  0.46142329889E+03  0.95341961633E+02 0.  0.
        -11    1    1    2    0    0  0.72983495040E+02  0.35950199333E+02  0.42640285210E+03  0.43409492010E+03  0.00000000000E+00 0. -1.
         11    1    1    2    0    0 -0.14829776989E+02  0.10341967824E+03 -0.94362559283E+00  0.10448178101E+03  0.00000000000E+00 0. -1.
        -15    1    3    3    0    0  0.58198565169E+01  0.12215697428E+02 -0.25093761247E+02  0.28564813601E+02  0.17770000000E+01 0.  1.
         15    1    3    3    0    0 -0.63973574568E+02 -0.15158557500E+03 -0.40036546526E+03  0.43285848529E+03  0.17770000000E+01 0. -1.
</event>
<event>
 7    1  0.4133533E-006  0.4861002E+03  0.7546771E-02  0.9431460E-01
        -11   -1    0    0    0    0  0.00000000000E+00  0.00000000000E+00  0.50000000000E+03  0.50000000000E+03  0.00000000000E+00 0. -1.
         11   -1    0    0    0    0 -0.00000000000E+00 -0.00000000000E+00 -0.50000000000E+03  0.50000000000E+03  0.00000000000E+00 0. -1.
         23    2    1    2    0    0 -0.15220504036E+03 -0.74877306296E+02 -0.45105785812E+03  0.49101202870E+03  0.94162814567E+02 0.  0.
        -11    1    1    2    0    0  0.12034425798E+03  0.91998797530E+02  0.44773482555E+03  0.47266583670E+03  0.00000000000E+00 0. -1.
         11    1    1    2    0    0  0.31860782378E+02 -0.17121491234E+02  0.33230325730E+01  0.36322134592E+02  0.00000000000E+00 0. -1.
        -15    1    3    3    0    0 -0.22692393034E+02  0.22271078824E+02 -0.65188500604E+02  0.72550975138E+02  0.17770000000E+01 0.  1.
         15    1    3    3    0    0 -0.12951264733E+03 -0.97148385120E+02 -0.38586935752E+03  0.41846105357E+03  0.17770000000E+01 0. -1.
</event>
<event>
 7    1  0.4133533E-006  0.5184288E+03  0.7546771E-02  0.9359492E-01
        -11   -1    0    0    0    0  0.00000000000E+00  0.00000000000E+00  0.50000000000E+03  0.50000000000E+03  0.00000000000E+00 0.  1.
         11   -1    0    0    0    0 -0.00000000000E+00 -0.00000000000E+00 -0.50000000000E+03  0.50000000000E+03  0.00000000000E+00 0.  1.
         23    2    1    2    0    0 -0.44432144500E+02 -0.42266373327E+02 -0.16821180376E+03  0.20115191515E+03  0.91685441946E+02 0.  0.
        -11    1    1    2    0    0  0.73429304021E+02 -0.34528354386E+02  0.47468591255E+03  0.48157116350E+03  0.00000000000E+00 0.  1.
         11    1    1    2    0    0 -0.28997159522E+02  0.76794727713E+02 -0.30647410878E+03  0.31727692135E+03  0.00000000000E+00 0.  1.
        -15    1    3    3    0    0 -0.43782606223E+02 -0.11704339397E+02 -0.19583614929E+02  0.49402265850E+02  0.17770000000E+01 0. -1.
         15    1    3    3    0    0 -0.64953827620E+00 -0.30562033930E+02 -0.14862818884E+03  0.15174964930E+03  0.17770000000E+01 0.  1.
</event>
<event>
 7    1  0.4133533E-006  0.5090967E+03  0.7546771E-02  0.9379682E-01
        -11   -1    0    0    0    0  0.00000000000E+00  0.00000000000E+00  0.50000000000E+03  0.50000000000E+03  0.00000000000E+00 0.  1.
         11   -1    0    0    0    0 -0.00000000000E+00 -0.00000000000E+00 -0.50000000000E+03  0.50000000000E+03  0.00000000000E+00 0. -1.
         23    2    1    2    0    0 -0.62186061180E+02 -0.58577159537E+02  0.22335641414E+03  0.25605672207E+03  0.91534514575E+02 0.  0.
        -11    1    1    2    0    0 -0.96067808504E+02 -0.42733994743E+02  0.23016079164E+03  0.25303993389E+03  0.00000000000E+00 0.  1.
         11    1    1    2    0    0  0.15825386968E+03  0.10131115428E+03 -0.45351720577E+03  0.49090334403E+03  0.00000000000E+00 0. -1.
        -15    1    3    3    0    0 -0.16735365437E+02 -0.73546822362E+02  0.15742334868E+03  0.17456940160E+03  0.17770000000E+01 0. -1.
         15    1    3    3    0    0 -0.45450695743E+02  0.14969662824E+02  0.65933065453E+02  0.81487320472E+02  0.17770000000E+01 0.  1.
</event>
<event>
 7    1  0.4133533E-006  0.5202431E+03  0.7546771E-02  0.9355620E-01
        -11   -1    0    0    0    0  0.00000000000E+00  0.00000000000E+00  0.50000000000E+03  0.50000000000E+03  0.00000000000E+00 0.  1.
         11   -1    0    0    0    0 -0.00000000000E+00 -0.00000000000E+00 -0.50000000000E+03  0.50000000000E+03  0.00000000000E+00 0. -1.
         23    2    1    2    0    0 -0.30436912711E+02 -0.27650037997E+02  0.15874139441E+03  0.18720278073E+03  0.90305706117E+02 0.  0.
        -11    1    1    2    0    0 -0.14749422379E+03 -0.19123435396E+03  0.22932667442E+03  0.33304030955E+03  0.00000000000E+00 0.  1.
         11    1    1    2    0    0  0.17793113650E+03  0.21888439196E+03 -0.38806806883E+03  0.47975690972E+03  0.00000000000E+00 0. -1.
        -15    1    3    3    0    0  0.27668112676E+02  0.72467381958E+00  0.83455456302E+02  0.87943280168E+02  0.17770000000E+01 0. -1.
         15    1    3    3    0    0 -0.58105025387E+02 -0.28374711817E+02  0.75285938104E+02  0.99259500559E+02  0.17770000000E+01 0.  1.
</event>
<event>
 7    1  0.4133533E-006  0.4685623E+03  0.7546771E-02  0.9473039E-01
        -11   -1    0    0    0    0  0.00000000000E+00  0.00000000000E+00  0.50000000000E+03  0.50000000000E+03  0.00000000000E+00 0. -1.
         11   -1    0    0    0    0 -0.00000000000E+00 -0.00000000000E+00 -0.50000000000E+03  0.50000000000E+03  0.00000000000E+00 0.  1.
         23    2    1    2    0    0 -0.54880023129E+01 -0.17964227387E+02 -0.46237114731E+03  0.47222974948E+03  0.94133027102E+02 0.  0.
        -11    1    1    2    0    0  0.74231185529E+02  0.12109577459E+02  0.45174656482E+03  0.45796492180E+03  0.00000000000E+00 0. -1.
         11    1    1    2    0    0 -0.68743183217E+02  0.58546499283E+01  0.10624582494E+02  0.69805328720E+02  0.00000000000E+00 0.  1.
        -15    1    3    3    0    0  0.41086529944E+02 -0.25340195377E+02 -0.25781390003E+03  0.26230019676E+03  0.17770000000E+01 0. -1.
         15    1    3    3    0    0 -0.46574532257E+02  0.73759679893E+01 -0.20455724729E+03  0.20992955272E+03  0.17770000000E+01 0.  1.
</event>
<event>
 7    1  0.4133533E-006  0.3496593E+03  0.7546771E-02  0.9818081E-01
        -11   -1    0    0    0    0  0.00000000000E+00  0.00000000000E+00  0.50000000000E+03  0.50000000000E+03  0.00000000000E+00 0.  1.
         11   -1    0    0    0    0 -0.00000000000E+00 -0.00000000000E+00 -0.50000000000E+03  0.50000000000E+03  0.00000000000E+00 0. -1.
         23    2    1    2    0    0 -0.17779998948E+03 -0.13234494844E+03  0.99294600850E+02  0.25970690307E+03  0.91979541793E+02 0.  0.
        -11    1    1    2    0    0  0.22276999170E+03  0.39041545641E+03  0.25302047133E+02  0.45021205158E+03  0.00000000000E+00 0.  1.
         11    1    1    2    0    0 -0.44970002219E+02 -0.25807050796E+03 -0.12459664798E+03  0.29008104534E+03  0.00000000000E+00 0. -1.
        -15    1    3    3    0    0 -0.15574153181E+03 -0.10508977319E+03  0.42023918527E+02  0.19253169250E+03  0.17770000000E+01 0. -1.
         15    1    3    3    0    0 -0.22058457670E+02 -0.27255175251E+02  0.57270682322E+02  0.67175210572E+02  0.17770000000E+01 0.  1.
</event>
<event>
 7    1  0.4133533E-006  0.5118004E+03  0.7546771E-02  0.9373786E-01
        -11   -1    0    0    0    0  0.00000000000E+00  0.00000000000E+00  0.50000000000E+03  0.50000000000E+03  0.00000000000E+00 0.  1.
         11   -1    0    0    0    0 -0.00000000000E+00 -0.00000000000E+00 -0.50000000000E+03  0.50000000000E+03  0.00000000000E+00 0. -1.
         23    2    1    2    0    0 -0.37866350515E+02 -0.16658189590E+02  0.17456893658E+03  0.20176909654E+03  0.92331462225E+02 0.  0.
        -11    1    1    2    0    0 -0.70734812805E+02  0.16588727882E+02  0.30139810202E+03  0.31003131380E+03  0.00000000000E+00 0.  1.
         11    1    1    2    0    0  0.10860116332E+03  0.69461707910E-01 -0.47596703861E+03  0.48819958966E+03  0.00000000000E+00 0. -1.
        -15    1    3    3    0    0 -0.46387245317E+02 -0.49107930170E+02  0.11725927620E+03  0.13533758132E+03  0.17770000000E+01 0.  1.
         15    1    3    3    0    0  0.85208948026E+01  0.32449740580E+02  0.57309660387E+02  0.66431515222E+02  0.17770000000E+01 0. -1.
</event>
<event>
 7    1  0.4133533E-006  0.5308573E+03  0.7546771E-02  0.9333294E-01
        -11   -1    0    0    0    0  0.00000000000E+00  0.00000000000E+00  0.50000000000E+03  0.50000000000E+03  0.00000000000E+00 0. -1.
         11   -1    0    0    0    0 -0.00000000000E+00 -0.00000000000E+00 -0.50000000000E+03  0.50000000000E+03  0.00000000000E+00 0.  1.
         23    2    1    2    0    0 -0.18159116171E+03  0.74843289424E+02  0.20164684997E+03  0.29555256904E+03  0.90072198708E+02 0.  0.
        -11    1    1    2    0    0 -0.21351254487E+03  0.97512263380E+02 -0.16494159053E+02  0.23530470801E+03  0.00000000000E+00 0. -1.
         11    1    1    2    0    0  0.39510370659E+03 -0.17235555280E+03 -0.18515269092E+03  0.46914272295E+03  0.00000000000E+00 0.  1.
        -15    1    3    3    0    0 -0.16637711179E+03  0.94344346657E+02  0.17769391412E+03  0.26107562873E+03  0.17770000000E+01 0. -1.
         15    1    3    3    0    0 -0.15214049926E+02 -0.19501057233E+02  0.23952935850E+02  0.34476940311E+02  0.17770000000E+01 0.  1.
</event>
<event>
 7    1  0.4133533E-006  0.5128963E+03  0.7546771E-02  0.9371407E-01
        -11   -1    0    0    0    0  0.00000000000E+00  0.00000000000E+00  0.50000000000E+03  0.50000000000E+03  0.00000000000E+00 0.  1.
         11   -1    0    0    0    0 -0.00000000000E+00 -0.00000000000E+00 -0.50000000000E+03  0.50000000000E+03  0.00000000000E+00 0. -1.
         23    2    1    2    0    0 -0.44361859805E+02 -0.88685053879E+02  0.24788571615E+03  0.28208982111E+03  0.91073187675E+02 0.  0.
        -11    1    1    2    0    0 -0.71658906875E+02  0.12589993697E+02  0.21903907134E+03  0.23080645929E+03  0.00000000000E+00 0.  1.
         11    1    1    2    0    0  0.11602076668E+03  0.76095060182E+02 -0.46692478749E+03  0.48710371961E+03  0.00000000000E+00 0. -1.
        -15    1    3    3    0    0 -0.62409414168E+02 -0.76555194604E+02  0.13597018303E+03  0.16806749001E+03  0.17770000000E+01 0. -1.
         15    1    3    3    0    0  0.18047554364E+02 -0.12129859274E+02  0.11191553313E+03  0.11402233109E+03  0.17770000000E+01 0.  1.
</event>
<event>
 7    1  0.4133533E-006  0.3484741E+03  0.7546771E-02  0.9822234E-01
        -11   -1    0    0    0    0  0.00000000000E+00  0.00000000000E+00  0.50000000000E+03  0.50000000000E+03  0.00000000000E+00 0.  1.
         11   -1    0    0    0    0 -0.00000000000E+00 -0.00000000000E+00 -0.50000000000E+03  0.50000000000E+03  0.00000000000E+00 0. -1.
         23    2    1    2    0    0 -0.68386575253E+02 -0.13315211561E+03 -0.23008745523E+03  0.28919381421E+03  0.91030849487E+02 0.  0.
        -11    1    1    2    0    0  0.73498071663E+02 -0.31799844427E+02  0.43805482415E+03  0.44531474892E+03  0.00000000000E+00 0.  1.
         11    1    1    2    0    0 -0.51114964098E+01  0.16495196003E+03 -0.20796736892E+03  0.26549143687E+03  0.00000000000E+00 0. -1.
        -15    1    3    3    0    0 -0.63735608736E+02 -0.46612989328E+02 -0.15725615360E+03  0.17597628866E+03  0.17770000000E+01 0. -1.
         15    1    3    3    0    0 -0.46509665166E+01 -0.86539126278E+02 -0.72831301629E+02  0.11321752555E+03  0.17770000000E+01 0.  1.
</event>
<event>
 7    1  0.4133533E-006  0.3296518E+03  0.7546771E-02  0.9890659E-01
        -11   -1    0    0    0    0  0.00000000000E+00  0.00000000000E+00  0.50000000000E+03  0.50000000000E+03  0.00000000000E+00 0. -1.
         11   -1    0    0    0    0 -0.00000000000E+00 -0.00000000000E+00 -0.50000000000E+03  0.50000000000E+03  0.00000000000E+00 0. -1.
         23    2    1    2    0    0  0.26562547615E+03  0.44998519358E+02 -0.37690126714E+02  0.28677951489E+03  0.90775460256E+02 0.  0.
        -11    1    1    2    0    0 -0.53453011910E+02  0.12105160368E+03  0.30575173550E+03  0.33315887951E+03  0.00000000000E+00 0. -1.
         11    1    1    2    0    0 -0.21217246424E+03 -0.16605012304E+03 -0.26806160879E+03  0.38006160560E+03  0.00000000000E+00 0. -1.
        -15    1    3    3    0    0  0.25628311315E+03  0.22699798286E+02 -0.22733542839E+02  0.25829496051E+03  0.17770000000E+01 0. -1.
         15    1    3    3    0    0  0.93423630021E+01  0.22298721072E+02 -0.14956583875E+02  0.28484554378E+02  0.17770000000E+01 0.  1.
</event>
<event>
 7    1  0.4133533E-006  0.3588751E+03  0.7546771E-02  0.9786381E-01
        -11   -1    0    0    0    0  0.00000000000E+00  0.00000000000E+00  0.50000000000E+03  0.50000000000E+03  0.00000000000E+00 0. -1.
         11   -1    0    0    0    0 -0.00000000000E+00 -0.00000000000E+00 -0.50000000000E+03  0.50000000000E+03  0.00000000000E+00 0. -1.
         23    2    1    2    0    0 -0.25163828566E+03 -0.75462048665E+02 -0.26351707552E+03  0.38331858608E+03  0.92062705502E+02 0.  0.
        -11    1    1    2    0    0  0.22665187050E+02  0.15228673716E+03  0.33172805966E+03  0.36571637451E+03  0.00000000000E+00 0. -1.
         11    1    1    2    0    0  0.22897309861E+03 -0.76824688500E+02 -0.68210984142E+02  0.25096503941E+03  0.00000000000E+00 0. -1.
        -15    1    3    3    0    0 -0.72439977282E+02 -0.39734335705E+02 -0.32583142110E+02  0.88832351208E+02  0.17770000000E+01 0.  1.
         15    1    3    3    0    0 -0.17919830838E+03 -0.35727712960E+02 -0.23093393341E+03  0.29448623487E+03  0.17770000000E+01 0. -1.
</event>
<event>
 7    1  0.4133533E-006  0.5148314E+03  0.7546771E-02  0.9367221E-01
        -11   -1    0    0    0    0  0.00000000000E+00  0.00000000000E+00  0.50000000000E+03  0.50000000000E+03  0.00000000000E+00 0.  1.
         11   -1    0    0    0    0 -0.00000000000E+00 -0.00000000000E+00 -0.50000000000E+03  0.50000000000E+03  0.00000000000E+00 0. -1.
         23    2    1    2    0    0 -0.76806798224E+02  0.23893448301E+03 -0.40570336930E+03  0.48516855941E+03  0.88342151631E+02 0.  0.
        -11    1    1    2    0    0  0.66383815208E+01 -0.17846747129E+03  0.37813642242E+03  0.41818878557E+03  0.00000000000E+00 0.  1.
         11    1    1    2    0    0  0.70168416703E+02 -0.60467011720E+02  0.27566946878E+02  0.96642655019E+02  0.00000000000E+00 0. -1.
        -15    1    3    3    0    0 -0.56003668538E+02  0.82806530563E+02 -0.22002640147E+03  0.24167769336E+03  0.17770000000E+01 0. -1.
         15    1    3    3    0    0 -0.20803129685E+02  0.15612795244E+03 -0.18567696783E+03  0.24349086605E+03  0.17770000000E+01 0.  1.
</event>
<event>
 7    1  0.4133533E-006  0.4913338E+03  0.7546771E-02  0.9419413E-01
        -11   -1    0    0    0    0  0.00000000000E+00  0.00000000000E+00  0.50000000000E+03  0.50000000000E+03  0.00000000000E+00 0.  1.
         11   -1    0    0    0    0 -0.00000000000E+00 -0.00000000000E+00 -0.50000000000E+03  0.50000000000E+03  0.00000000000E+00 0.  1.
         23    2    1    2    0    0  0.97945610390E+02 -0.17293218957E+02 -0.46071202896E+03  0.48740514424E+03  0.12416039215E+03 0.  0.
        -11    1    1    2    0    0 -0.75867353956E+02  0.38505493930E+02  0.47226731564E+03  0.47986971761E+03  0.00000000000E+00 0.  1.
         11    1    1    2    0    0 -0.22078256434E+02 -0.21212274973E+02 -0.11555286678E+02  0.32725138149E+02  0.00000000000E+00 0.  1.
        -15    1    3    3    0    0 -0.62750907369E+01  0.36407035914E+02 -0.66141445032E+02  0.75780587935E+02  0.17770000000E+01 0. -1.
         15    1    3    3    0    0  0.10422070113E+03 -0.53700254871E+02 -0.39457058393E+03  0.41162455630E+03  0.17770000000E+01 0.  1.
</event>
<event>
 7    1  0.4133533E-006  0.4524435E+03  0.7546771E-02  0.9512998E-01
        -11   -1    0    0    0    0  0.00000000000E+00  0.00000000000E+00  0.50000000000E+03  0.50000000000E+03  0.00000000000E+00 0. -1.
         11   -1    0    0    0    0 -0.00000000000E+00 -0.00000000000E+00 -0.50000000000E+03  0.50000000000E+03  0.00000000000E+00 0.  1.
         23    2    1    2    0    0  0.11543635857E+03 -0.10597788486E+02 -0.41093074353E+03  0.43652414235E+03  0.90837133791E+02 0.  0.
        -11    1    1    2    0    0 -0.20261275886E+03 -0.35733927725E+02  0.41655383378E+03  0.46459222989E+03  0.00000000000E+00 0. -1.
         11    1    1    2    0    0  0.87176400289E+02  0.46331716211E+02 -0.56230902403E+01  0.98883627756E+02  0.00000000000E+00 0.  1.
        -15    1    3    3    0    0  0.12754960120E+03 -0.16180670245E+02 -0.39633812855E+03  0.41667467493E+03  0.17770000000E+01 0.  1.
         15    1    3    3    0    0 -0.12113242637E+02  0.55828817590E+01 -0.14592614988E+02  0.19849467426E+02  0.17770000000E+01 0. -1.
</event>
<event>
 7    1  0.4133533E-006  0.5223571E+03  0.7546771E-02  0.9351128E-01
        -11   -1    0    0    0    0  0.00000000000E+00  0.00000000000E+00  0.50000000000E+03  0.50000000000E+03  0.00000000000E+00 0.  1.
         11   -1    0    0    0    0 -0.00000000000E+00 -0.00000000000E+00 -0.50000000000E+03  0.50000000000E+03  0.00000000000E+00 0. -1.
         23    2    1    2    0    0 -0.40452893613E+02  0.39082398259E+02 -0.38089044060E+03  0.39622366405E+03  0.93551022233E+02 0.  0.
        -11    1    1    2    0    0 -0.43805622471E+02 -0.64565980694E+02  0.47122718713E+03  0.47764292134E+03  0.00000000000E+00 0.  1.
         11    1    1    2    0    0  0.84258516084E+02  0.25483582436E+02 -0.90336746529E+02  0.12613341460E+03  0.00000000000E+00 0. -1.
        -15    1    3    3    0    0  0.11255372462E+02 -0.23858697736E+02 -0.69782919061E+02  0.74623953183E+02  0.17770000000E+01 0.  1.
         15    1    3    3    0    0 -0.51708266076E+02  0.62941095995E+02 -0.31110752154E+03  0.32159971087E+03  0.17770000000E+01 0. -1.
</event>
<event>
 7    1  0.4133533E-006  0.5247254E+03  0.7546771E-02  0.9346123E-01
        -11   -1    0    0    0    0  0.00000000000E+00  0.00000000000E+00  0.50000000000E+03  0.50000000000E+03  0.00000000000E+00 0. -1.
         11   -1    0    0    0    0 -0.00000000000E+00 -0.00000000000E+00 -0.50000000000E+03  0.50000000000E+03  0.00000000000E+00 0. -1.
         23    2    1    2    0    0  0.34307520428E+00 -0.55307950367E+01  0.71432487468E+02  0.11536866953E+03  0.90424677208E+02 0.  0.
        -11    1    1    2    0    0 -0.83153488475E+02  0.12129738206E+03  0.38202802460E+03  0.40935677485E+03  0.00000000000E+00 0. -1.
         11    1    1    2    0    0  0.82810413271E+02 -0.11576658703E+03 -0.45346051206E+03  0.47527455562E+03  0.00000000000E+00 0. -1.
        -15    1    3    3    0    0  0.28484411377E+02  0.31681662336E+02  0.24548224291E+02  0.49202260768E+02  0.17770000000E+01 0. -1.
         15    1    3    3    0    0 -0.28141336173E+02 -0.37212457373E+02  0.46884263177E+02  0.66166408758E+02  0.17770000000E+01 0.  1.
</event>
<event>
 7    1  0.4133533E-006  0.3400478E+03  0.7546771E-02  0.9852278E-01
        -11   -1    0    0    0    0  0.00000000000E+00  0.00000000000E+00  0.50000000000E+03  0.50000000000E+03  0.00000000000E+00 0.  1.
         11   -1    0    0    0    0 -0.00000000000E+00 -0.00000000000E+00 -0.50000000000E+03  0.50000000000E+03  0.00000000000E+00 0. -1.
         23    2    1    2    0    0  0.13067551071E+03  0.23584565373E+03 -0.16281895045E+03  0.32783015840E+03  0.90902918809E+02 0.  0.
        -11    1    1    2    0    0 -0.91626089049E+02 -0.66408689962E+02  0.37854271044E+03  0.39509497329E+03  0.00000000000E+00 0.  1.
         11    1    1    2    0    0 -0.39049421661E+02 -0.16943696377E+03 -0.21572375998E+03  0.27707486830E+03  0.00000000000E+00 0. -1.
        -15    1    3    3    0    0  0.62798698865E+02  0.16587495006E+03 -0.62828934769E+02  0.18817228385E+03  0.17770000000E+01 0. -1.
         15    1    3    3    0    0  0.67876811845E+02  0.69970703672E+02 -0.99990015684E+02  0.13965787455E+03  0.17770000000E+01 0.  1.
</event>
<event>
 7    1  0.4133533E-006  0.4656817E+03  0.7546771E-02  0.9480053E-01
        -11   -1    0    0    0    0  0.00000000000E+00  0.00000000000E+00  0.50000000000E+03  0.50000000000E+03  0.00000000000E+00 0. -1.
         11   -1    0    0    0    0 -0.00000000000E+00 -0.00000000000E+00 -0.50000000000E+03  0.50000000000E+03  0.00000000000E+00 0.  1.
         23    2    1    2    0    0 -0.50700214763E+02 -0.16577705433E+03  0.41300855843E+03  0.45656310233E+03  0.88437851338E+02 0.  0.
        -11    1    1    2    0    0  0.65292035919E+02  0.15710523668E+02  0.31410479509E+02  0.74138308123E+02  0.00000000000E+00 0. -1.
         11    1    1    2    0    0 -0.14591821156E+02  0.15006653066E+03 -0.44441903794E+03  0.46929858955E+03  0.00000000000E+00 0.  1.
        -15    1    3    3    0    0  0.17752216513E+02 -0.46058792793E+02  0.17125443412E+03  0.17823521683E+03  0.17770000000E+01 0.  1.
         15    1    3    3    0    0 -0.68452431276E+02 -0.11971826154E+03  0.24175412431E+03  0.27832788550E+03  0.17770000000E+01 0. -1.
</event>
<event>
 7    1  0.4133533E-006  0.4054158E+03  0.7546771E-02  0.9640533E-01
        -11   -1    0    0    0    0  0.00000000000E+00  0.00000000000E+00  0.50000000000E+03  0.50000000000E+03  0.00000000000E+00 0. -1.
         11   -1    0    0    0    0 -0.00000000000E+00 -0.00000000000E+00 -0.50000000000E+03  0.50000000000E+03  0.00000000000E+00 0. -1.
         23    2    1    2    0    0 -0.12035343729E+03 -0.12736435839E+03 -0.36123071540E+03  0.41157773039E+03  0.90564721311E+02 0.  0.
        -11    1    1    2    0    0  0.10671021148E+03 -0.49041095628E+02  0.39166365069E+03  0.40889181157E+03  0.00000000000E+00 0. -1.
         11    1    1    2    0    0  0.13643225812E+02  0.17640545401E+03 -0.30432935288E+02  0.17953045805E+03  0.00000000000E+00 0. -1.
        -15    1    3    3    0    0 -0.13862797771E+02  0.12161158304E+02 -0.16848532731E+02  0.25041999072E+02  0.17770000000E+01 0.  1.
         15    1    3    3    0    0 -0.10649063952E+03 -0.13952551669E+03 -0.34438218267E+03  0.38653573131E+03  0.17770000000E+01 0. -1.
</event>
<event>
 7    1  0.4133533E-006  0.5200183E+03  0.7546771E-02  0.9356099E-01
        -11   -1    0    0    0    0  0.00000000000E+00  0.00000000000E+00  0.50000000000E+03  0.50000000000E+03  0.00000000000E+00 0.  1.
         11   -1    0    0    0    0 -0.00000000000E+00 -0.00000000000E+00 -0.50000000000E+03  0.50000000000E+03  0.00000000000E+00 0. -1.
         23    2    1    2    0    0 -0.22518762030E+03  0.40328805244E+02 -0.32816081012E+03  0.41115937992E+03  0.95008639216E+02 0.  0.
        -11    1    1    2    0    0  0.29380600829E+03 -0.11835177621E+03  0.36062910401E+03  0.47998173309E+03  0.00000000000E+00 0.  1.
         11    1    1    2    0    0 -0.68618387991E+02  0.78022970965E+02 -0.32468293888E+02  0.10885888699E+03  0.00000000000E+00 0. -1.
        -15    1    3    3    0    0 -0.99864876718E+01  0.12826160377E+02  0.15968692295E+01  0.16430095750E+02  0.17770000000E+01 0.  1.
         15    1    3    3    0    0 -0.21520113263E+03  0.27502644867E+02 -0.32975767935E+03  0.39472928417E+03  0.17770000000E+01 0. -1.
</event>
<event>
 7    1  0.4133533E-006  0.3381129E+03  0.7546771E-02  0.9859309E-01
        -11   -1    0    0    0    0  0.00000000000E+00  0.00000000000E+00  0.50000000000E+03  0.50000000000E+03  0.00000000000E+00 0. -1.
         11   -1    0    0    0    0 -0.00000000000E+00 -0.00000000000E+00 -0.50000000000E+03  0.50000000000E+03  0.00000000000E+00 0. -1.
         23    2    1    2    0    0  0.25468607395E+03 -0.34852605915E+02 -0.37494420251E+02  0.27559209232E+03  0.92007985511E+02 0.  0.
        -11    1    1    2    0    0  0.52939940758E+02  0.37794556354E+02  0.30797625466E+03  0.31477045486E+03  0.00000000000E+00 0. -1.
         11    1    1    2    0    0 -0.30762601471E+03 -0.29419504393E+01 -0.27048183441E+03  0.40963745281E+03  0.00000000000E+00 0. -1.
        -15    1    3    3    0    0  0.24179681538E+03 -0.41274290761E+02 -0.11195438397E+02  0.24555602736E+03  0.17770000000E+01 0. -1.
         15    1    3    3    0    0  0.12889258576E+02  0.64216848464E+01 -0.26298981854E+02  0.30036064963E+02  0.17770000000E+01 0.  1.
</event>
<event>
 7    1  0.4133533E-006  0.5263405E+03  0.7546771E-02  0.9342726E-01
        -11   -1    0    0    0    0  0.00000000000E+00  0.00000000000E+00  0.50000000000E+03  0.50000000000E+03  0.00000000000E+00 0.  1.
         11   -1    0    0    0    0 -0.00000000000E+00 -0.00000000000E+00 -0.50000000000E+03  0.50000000000E+03  0.00000000000E+00 0. -1.
         23    2    1    2    0    0 -0.12013855384E+02  0.44324633969E+02 -0.17030929120E+03  0.19840022064E+03  0.90820630831E+02 0.  0.
        -11    1    1    2    0    0  0.24605790352E+03 -0.13243761331E+03  0.38245146638E+03  0.47365951637E+03  0.00000000000E+00 0.  1.
         11    1    1    2    0    0 -0.23404404814E+03  0.88112979341E+02 -0.21214217519E+03  0.32794026299E+03  0.00000000000E+00 0. -1.
        -15    1    3    3    0    0 -0.25377012950E+02  0.44138401108E+02 -0.17639787032E+03  0.18360707400E+03  0.17770000000E+01 0.  1.
         15    1    3    3    0    0  0.13363157566E+02  0.18623286069E+00  0.60885791259E+01  0.14793146642E+02  0.17770000000E+01 0. -1.
</event>
<event>
 7    1  0.4133533E-006  0.5202695E+03  0.7546771E-02  0.9355563E-01
        -11   -1    0    0    0    0  0.00000000000E+00  0.00000000000E+00  0.50000000000E+03  0.50000000000E+03  0.00000000000E+00 0. -1.
         11   -1    0    0    0    0 -0.00000000000E+00 -0.00000000000E+00 -0.50000000000E+03  0.50000000000E+03  0.00000000000E+00 0. -1.
         23    2    1    2    0    0 -0.44133329196E+02  0.38270252776E+02 -0.20046714954E+03  0.22878696161E+03  0.93509533022E+02 0.  0.
        -11    1    1    2    0    0 -0.60386911654E+02 -0.10739450266E+03  0.46363904441E+03  0.47973046787E+03  0.00000000000E+00 0. -1.
         11    1    1    2    0    0  0.10452024085E+03  0.69124249889E+02 -0.26317189487E+03  0.29148257052E+03  0.00000000000E+00 0. -1.
        -15    1    3    3    0    0 -0.28583707418E+02 -0.22850632344E+02 -0.31127638121E+02  0.48075641569E+02  0.17770000000E+01 0.  1.
         15    1    3    3    0    0 -0.15549621778E+02  0.61120885120E+02 -0.16933951142E+03  0.18071132004E+03  0.17770000000E+01 0. -1.
</event>
<event>
 7    1  0.4133533E-006  0.5254718E+03  0.7546771E-02  0.9344552E-01
        -11   -1    0    0    0    0  0.00000000000E+00  0.00000000000E+00  0.50000000000E+03  0.50000000000E+03  0.00000000000E+00 0.  1.
         11   -1    0    0    0    0 -0.00000000000E+00 -0.00000000000E+00 -0.50000000000E+03  0.50000000000E+03  0.00000000000E+00 0. -1.
         23    2    1    2    0    0  0.35249145922E+01 -0.99822491605E+02 -0.23781006643E+03  0.27493536220E+03  0.95178100633E+02 0.  0.
        -11    1    1    2    0    0  0.77224760191E+02  0.37660170926E+02  0.46668520810E+03  0.47452822415E+03  0.00000000000E+00 0.  1.
         11    1    1    2    0    0 -0.80749674783E+02  0.62162320680E+02 -0.22887514166E+03  0.25053641364E+03  0.00000000000E+00 0. -1.
        -15    1    3    3    0    0  0.15133940314E+02 -0.11588611781E+03 -0.21457051880E+03  0.24434052819E+03  0.17770000000E+01 0. -1.
         15    1    3    3    0    0 -0.11609025722E+02  0.16063626203E+02 -0.23239547630E+02  0.30594834009E+02  0.17770000000E+01 0.  1.
</event>
<event>
 7    1  0.4133533E-006  0.5302437E+03  0.7546771E-02  0.9334569E-01
        -11   -1    0    0    0    0  0.00000000000E+00  0.00000000000E+00  0.50000000000E+03  0.50000000000E+03  0.00000000000E+00 0. -1.
         11   -1    0    0    0    0 -0.00000000000E+00 -0.00000000000E+00 -0.50000000000E+03  0.50000000000E+03  0.00000000000E+00 0. -1.
         23    2    1    2    0    0 -0.21663485955E+03  0.11271362583E+03  0.29320383394E+03  0.39242036307E+03  0.91598194824E+02 0.  0.
        -11    1    1    2    0    0  0.10043417183E+02 -0.57153663696E+02  0.12501146045E+03  0.13782335341E+03  0.00000000000E+00 0. -1.
         11    1    1    2    0    0  0.20659144237E+03 -0.55559962134E+02 -0.41821529438E+03  0.46975628352E+03  0.00000000000E+00 0. -1.
        -15    1    3    3    0    0 -0.93954960870E+01  0.37006615143E+02  0.27706160348E+02  0.47207562543E+02  0.17770000000E+01 0.  1.
         15    1    3    3    0    0 -0.20723936346E+03  0.75707010686E+02  0.26549767359E+03  0.34521280052E+03  0.17770000000E+01 0. -1.
</event>
<event>
 7    1  0.4133533E-006  0.4965838E+03  0.7546771E-02  0.9407486E-01
        -11   -1    0    0    0    0  0.00000000000E+00  0.00000000000E+00  0.50000000000E+03  0.50000000000E+03  0.00000000000E+00 0.  1.
         11   -1    0    0    0    0 -0.00000000000E+00 -0.00000000000E+00 -0.50000000000E+03  0.50000000000E+03  0.00000000000E+00 0. -1.
         23    2    1    2    0    0  0.31712506529E+01 -0.80557892127E+02 -0.47826603362E+03  0.49330133388E+03  0.90045412335E+02 0.  0.
        -11    1    1    2    0    0 -0.16375579312E+02  0.84313051503E+02  0.48418883528E+03  0.49174757596E+03  0.00000000000E+00 0.  1.
         11    1    1    2    0    0  0.13204328659E+02 -0.37551593758E+01 -0.59228016677E+01  0.14951090156E+02  0.00000000000E+00 0. -1.
        -15    1    3    3    0    0  0.41662259855E+02 -0.39334819565E+02 -0.32415421045E+03  0.32918396347E+03  0.17770000000E+01 0. -1.
         15    1    3    3    0    0 -0.38491009202E+02 -0.41223072562E+02 -0.15411182317E+03  0.16411737041E+03  0.17770000000E+01 0.  1.
</event>
<event>
 6    1  0.4133533E-006  0.3584708E+03  0.7546771E-02  0.9787750E-01
        -11   -1    0    0    0    0  0.00000000000E+00  0.00000000000E+00  0.50000000000E+03  0.50000000000E+03  0.00000000000E+00 0.  1.
         11   -1    0    0    0    0 -0.00000000000E+00 -0.00000000000E+00 -0.50000000000E+03  0.50000000000E+03  0.00000000000E+00 0.  1.
        -11    1    1    2    0    0  0.24842456557E+03  0.37907904274E+02  0.12392256559E+03  0.28019381907E+03  0.00000000000E+00 0.  1.
         11    1    1    2    0    0 -0.32815708771E+03 -0.14425310525E+03  0.12547817928E+03  0.37979047653E+03  0.00000000000E+00 0.  1.
        -15    1    1    2    0    0  0.65998545943E+02  0.12518359739E+03 -0.27255544312E+03  0.30710970096E+03  0.17770000000E+01 0.  1.
         15    1    1    2    0    0  0.13733976202E+02 -0.18838396414E+02  0.23154698256E+02  0.32906003435E+02  0.17770000000E+01 0. -1.
</event>
<event>
 7    1  0.4133533E-006  0.5094419E+03  0.7546771E-02  0.9378927E-01
        -11   -1    0    0    0    0  0.00000000000E+00  0.00000000000E+00  0.50000000000E+03  0.50000000000E+03  0.00000000000E+00 0.  1.
         11   -1    0    0    0    0 -0.00000000000E+00 -0.00000000000E+00 -0.50000000000E+03  0.50000000000E+03  0.00000000000E+00 0.  1.
         23    2    1    2    0    0  0.69294060052E+02  0.16112691642E+02 -0.38691120672E+03  0.40392266295E+03  0.91607587950E+02 0.  0.
        -11    1    1    2    0    0 -0.94412266703E+02 -0.65017300471E+02  0.47697627128E+03  0.49055814011E+03  0.00000000000E+00 0.  1.
         11    1    1    2    0    0  0.25118206651E+02  0.48904608829E+02 -0.90065064556E+02  0.10551919694E+03  0.00000000000E+00 0.  1.
        -15    1    3    3    0    0  0.24402569171E+01  0.15517629619E+02 -0.55699588594E+01  0.16761081514E+02  0.17770000000E+01 0. -1.
         15    1    3    3    0    0  0.66853803135E+02  0.59506202233E+00 -0.38134124786E+03  0.38716158144E+03  0.17770000000E+01 0.  1.
</event>
<event>
 7    1  0.4133533E-006  0.4366317E+03  0.7546771E-02  0.9553958E-01
        -11   -1    0    0    0    0  0.00000000000E+00  0.00000000000E+00  0.50000000000E+03  0.50000000000E+03  0.00000000000E+00 0.  1.
         11   -1    0    0    0    0 -0.00000000000E+00 -0.00000000000E+00 -0.50000000000E+03  0.50000000000E+03  0.00000000000E+00 0.  1.
         23    2    1    2    0    0  0.78350246088E+02 -0.20816445695E+03 -0.37107183337E+03  0.44193637059E+03  0.90234405447E+02 0.  0.
        -11    1    1    2    0    0  0.30527182430E+02  0.15115570342E+03  0.40265231227E+03  0.43117147415E+03  0.00000000000E+00 0.  1.
         11    1    1    2    0    0 -0.10887742852E+03  0.57008753534E+02 -0.31580478896E+02  0.12689215526E+03  0.00000000000E+00 0.  1.
        -15    1    3    3    0    0  0.66929226867E+02 -0.21409849835E+03 -0.36274953379E+03  0.42650682339E+03  0.17770000000E+01 0.  1.
         15    1    3    3    0    0  0.11421019222E+02  0.59340413985E+01 -0.83222995807E+01  0.15429547197E+02  0.17770000000E+01 0. -1.
</event>
<event>
 7    1  0.4133533E-006  0.4127020E+03  0.7546771E-02  0.9619597E-01
        -11   -1    0    0    0    0  0.00000000000E+00  0.00000000000E+00  0.50000000000E+03  0.50000000000E+03  0.00000000000E+00 0. -1.
         11   -1    0    0    0    0 -0.00000000000E+00 -0.00000000000E+00 -0.50000000000E+03  0.50000000000E+03  0.00000000000E+00 0.  1.
         23    2    1    2    0    0  0.11975560414E+03 -0.54950929118E+02  0.47034129007E+02  0.16282313648E+03  0.83295588998E+02 0.  0.
        -11    1    1    2    0    0 -0.52576677557E+02  0.28795341205E+03  0.29652139862E+03  0.41666103054E+03  0.00000000000E+00 0. -1.
         11    1    1    2    0    0 -0.67178926583E+02 -0.23300248293E+03 -0.34355552762E+03  0.42051583298E+03  0.00000000000E+00 0.  1.
        -15    1    3    3    0    0  0.47691089048E+02 -0.21398553587E+02  0.62836965344E+02  0.81755611507E+02  0.17770000000E+01 0. -1.
         15    1    3    3    0    0  0.72064515093E+02 -0.33552375531E+02 -0.15802836338E+02  0.81067524969E+02  0.17770000000E+01 0.  1.
</event>
<event>
 7    1  0.4133533E-006  0.5267422E+03  0.7546771E-02  0.9341883E-01
        -11   -1    0    0    0    0  0.00000000000E+00  0.00000000000E+00  0.50000000000E+03  0.50000000000E+03  0.00000000000E+00 0. -1.
         11   -1    0    0    0    0 -0.00000000000E+00 -0.00000000000E+00 -0.50000000000E+03  0.50000000000E+03  0.00000000000E+00 0.  1.
         23    2    1    2    0    0 -0.21713204149E+02  0.18349220702E+03  0.30605925508E+03  0.36906664704E+03  0.91635522934E+02 0.  0.
        -11    1    1    2    0    0 -0.43333280822E+02 -0.49727328161E+02  0.14321664469E+03  0.15767557740E+03  0.00000000000E+00 0. -1.
         11    1    1    2    0    0  0.65046484970E+02 -0.13376487886E+03 -0.44927589976E+03  0.47325777557E+03  0.00000000000E+00 0.  1.
        -15    1    3    3    0    0  0.71743908586E+01  0.17061413185E+03  0.22831864344E+03  0.28511964952E+03  0.17770000000E+01 0. -1.
         15    1    3    3    0    0 -0.28887595008E+02  0.12878075177E+02  0.77740611638E+02  0.83946997519E+02  0.17770000000E+01 0.  1.
</event>
<event>
 7    1  0.4133533E-006  0.3881344E+03  0.7546771E-02  0.9692124E-01
        -11   -1    0    0    0    0  0.00000000000E+00  0.00000000000E+00  0.50000000000E+03  0.50000000000E+03  0.00000000000E+00 0. -1.
         11   -1    0    0    0    0 -0.00000000000E+00 -0.00000000000E+00 -0.50000000000E+03  0.50000000000E+03  0.00000000000E+00 0.  1.
         23    2    1    2    0    0  0.78722499538E+02 -0.82532778534E+02 -0.14116422636E+03  0.20279892408E+03  0.90505101173E+02 0.  0.
        -11    1    1    2    0    0 -0.13504125331E+03 -0.98975751633E+02  0.42433355558E+03  0.45617025977E+03  0.00000000000E+00 0. -1.
         11    1    1    2    0    0  0.56318753775E+02  0.18150853017E+03 -0.28316932922E+03  0.34103081615E+03  0.00000000000E+00 0.  1.
        -15    1    3    3    0    0  0.87616369709E+02 -0.56594762432E+02 -0.14090511806E+03  0.17531972336E+03  0.17770000000E+01 0.  1.
         15    1    3    3    0    0 -0.88938701713E+01 -0.25938016102E+02 -0.25910829909E+00  0.27479200717E+02  0.17770000000E+01 0. -1.
</event>
<event>
 7    1  0.4133533E-006  0.4838435E+03  0.7546771E-02  0.9436705E-01
        -11   -1    0    0    0    0  0.00000000000E+00  0.00000000000E+00  0.50000000000E+03  0.50000000000E+03  0.00000000000E+00 0.  1.
         11   -1    0    0    0    0 -0.00000000000E+00 -0.00000000000E+00 -0.50000000000E+03  0.50000000000E+03  0.00000000000E+00 0. -1.
         23    2    1    2    0    0 -0.10927738776E+03 -0.46976124345E+02 -0.46255325376E+03  0.48627452621E+03  0.91428105875E+02 0.  0.
        -11    1    1    2    0    0  0.11070248830E+03  0.85820356341E+02  0.45234667651E+03  0.47353742220E+03  0.00000000000E+00 0.  1.
         11    1    1    2    0    0 -0.14251005355E+01 -0.38844231996E+02  0.10206577255E+02  0.40188051584E+02  0.00000000000E+00 0. -1.
        -15    1    3    3    0    0 -0.79553253061E+02  0.49962989590E+01 -0.34788427825E+03  0.35690378516E+03  0.17770000000E+01 0. -1.
         15    1    3    3    0    0 -0.29724134704E+02 -0.51972423304E+02 -0.11466897551E+03  0.12937074106E+03  0.17770000000E+01 0.  1.
</event>
<event>
 7    1  0.4133533E-006  0.4608328E+03  0.7546771E-02  0.9491984E-01
        -11   -1    0    0    0    0  0.00000000000E+00  0.00000000000E+00  0.50000000000E+03  0.50000000000E+03  0.00000000000E+00 0. -1.
         11   -1    0    0    0    0 -0.00000000000E+00 -0.00000000000E+00 -0.50000000000E+03  0.50000000000E+03  0.00000000000E+00 0.  1.
         23    2    1    2    0    0 -0.23207253636E+03  0.69657304223E+02 -0.36882871454E+03  0.45066014342E+03  0.91379111581E+02 0.  0.
        -11    1    1    2    0    0  0.17162698125E+03 -0.74287768189E+02  0.42647950615E+03  0.46568150313E+03  0.00000000000E+00 0. -1.
         11    1    1    2    0    0  0.60445555107E+02  0.46304639658E+01 -0.57650791607E+02  0.83658353448E+02  0.00000000000E+00 0.  1.
        -15    1    3    3    0    0 -0.18433932409E+03  0.56030833070E+02 -0.34592018290E+03  0.39596006280E+03  0.17770000000E+01 0.  1.
         15    1    3    3    0    0 -0.47733212267E+02  0.13626471153E+02 -0.22908531638E+02  0.54700080623E+02  0.17770000000E+01 0. -1.
</event>
<event>
 7    1  0.4133533E-006  0.5202914E+03  0.7546771E-02  0.9355517E-01
        -11   -1    0    0    0    0  0.00000000000E+00  0.00000000000E+00  0.50000000000E+03  0.50000000000E+03  0.00000000000E+00 0.  1.
         11   -1    0    0    0    0 -0.00000000000E+00 -0.00000000000E+00 -0.50000000000E+03  0.50000000000E+03  0.00000000000E+00 0.  1.
         23    2    1    2    0    0 -0.20399605242E+01 -0.11596518528E+02 -0.23122058279E+03  0.24586669769E+03  0.82757685116E+02 0.  0.
        -11    1    1    2    0    0  0.16762637117E+03  0.49757480945E+02  0.44670563120E+03  0.47970858671E+03  0.00000000000E+00 0.  1.
         11    1    1    2    0    0 -0.16558641065E+03 -0.38160962417E+02 -0.21548504841E+03  0.27442471560E+03  0.00000000000E+00 0.  1.
        -15    1    3    3    0    0  0.24361647003E+02 -0.27098122343E+02 -0.19510687621E+03  0.19848841012E+03  0.17770000000E+01 0.  1.
         15    1    3    3    0    0 -0.26401607527E+02  0.15501603815E+02 -0.36113706580E+02  0.47378287568E+02  0.17770000000E+01 0. -1.
</event>
<event>
 7    1  0.4133533E-006  0.5382526E+03  0.7546771E-02  0.9318063E-01
        -11   -1    0    0    0    0  0.00000000000E+00  0.00000000000E+00  0.50000000000E+03  0.50000000000E+03  0.00000000000E+00 0. -1.
         11   -1    0    0    0    0 -0.00000000000E+00 -0.00000000000E+00 -0.50000000000E+03  0.50000000000E+03  0.00000000000E+00 0.  1.
         23    2    1    2    0    0 -0.57880913687E+02  0.40627756639E+02 -0.26586642373E+03  0.28972576853E+03  0.90858411332E+02 0.  0.
        -11    1    1    2    0    0  0.76145894812E+01  0.12464215549E+03  0.44454136175E+03  0.46174741061E+03  0.00000000000E+00 0. -1.
         11    1    1    2    0    0  0.50266324206E+02 -0.16526991213E+03 -0.17867493803E+03  0.24852682085E+03  0.00000000000E+00 0.  1.
        -15    1    3    3    0    0  0.59592119422E+00 -0.24777733558E+02 -0.87215857288E+02  0.90686573944E+02  0.17770000000E+01 0.  1.
         15    1    3    3    0    0 -0.58476834881E+02  0.65405490197E+02 -0.17865056644E+03  0.19903919459E+03  0.17770000000E+01 0. -1.
</event>
<event>
 7    1  0.4133533E-006  0.5140287E+03  0.7546771E-02  0.9368955E-01
        -11   -1    0    0    0    0  0.00000000000E+00  0.00000000000E+00  0.50000000000E+03  0.50000000000E+03  0.00000000000E+00 0. -1.
         11   -1    0    0    0    0 -0.00000000000E+00 -0.00000000000E+00 -0.50000000000E+03  0.50000000000E+03  0.00000000000E+00 0.  1.
         23    2    1    2    0    0 -0.71810805805E+02 -0.48860782665E+02  0.25679727346E+03  0.28645105205E+03  0.92548353043E+02 0.  0.
        -11    1    1    2    0    0  0.41822733725E+02 -0.48771676400E+02  0.21832032458E+03  0.22757763862E+03  0.00000000000E+00 0. -1.
         11    1    1    2    0    0  0.29988072080E+02  0.97632459065E+02 -0.47511759804E+03  0.48597130933E+03  0.00000000000E+00 0.  1.
        -15    1    3    3    0    0  0.22255138170E+02 -0.14920850700E+02  0.51053228323E+02  0.57684597699E+02  0.17770000000E+01 0.  1.
         15    1    3    3    0    0 -0.94065943975E+02 -0.33939931965E+02  0.20574404514E+03  0.22876645435E+03  0.17770000000E+01 0. -1.
</event>
<event>
 7    1  0.4810212E-006  0.5115058E+03  0.7546771E-02  0.9374426E-01
        -11   -1    0    0    0    0  0.00000000000E+00  0.00000000000E+00  0.50000000000E+03  0.50000000000E+03  0.00000000000E+00 0.  1.
         11   -1    0    0    0    0 -0.00000000000E+00 -0.00000000000E+00 -0.50000000000E+03  0.50000000000E+03  0.00000000000E+00 0. -1.
         23    2    1    2    0    0  0.97305224822E+01  0.63449130428E+00  0.21863805384E+03  0.23719255811E+03  0.91447391375E+02 0.  0.
        -11    1    1    2    0    0  0.64979137595E+02  0.53678833998E+02  0.26104420172E+03  0.27431328950E+03  0.00000000000E+00 0.  1.
         11    1    1    2    0    0 -0.74709660077E+02 -0.54313325302E+02 -0.47968225557E+03  0.48849415239E+03  0.00000000000E+00 0. -1.
        -15    1    3    3    0    0 -0.74028340259E+01  0.38677418793E+02  0.16257151802E+03  0.16728239858E+03  0.17770000000E+01 0.  1.
         15    1    3    3    0    0  0.17133356508E+02 -0.38042927489E+02  0.56066535825E+02  0.69910159530E+02  0.17770000000E+01 0. -1.
</event>
<event>
 7    1  0.4133533E-006  0.5178771E+03  0.7546771E-02  0.9360673E-01
        -11   -1    0    0    0    0  0.00000000000E+00  0.00000000000E+00  0.50000000000E+03  0.50000000000E+03  0.00000000000E+00 0. -1.
         11   -1    0    0    0    0 -0.00000000000E+00 -0.00000000000E+00 -0.50000000000E+03  0.50000000000E+03  0.00000000000E+00 0.  1.
         23    2    1    2    0    0  0.49621969303E+01 -0.55123050201E+02 -0.14526934437E+03  0.18047548307E+03  0.91679024402E+02 0.  0.
        -11    1    1    2    0    0 -0.13498706731E+03  0.82752595932E+02  0.45538223074E+03  0.48212288532E+03  0.00000000000E+00 0. -1.
         11    1    1    2    0    0  0.13002487038E+03 -0.27629545731E+02 -0.31011288637E+03  0.33740163160E+03  0.00000000000E+00 0.  1.
        -15    1    3    3    0    0  0.15928976893E+02 -0.18364537371E+01  0.78700260647E+01  0.17949927756E+02  0.17770000000E+01 0.  1.
         15    1    3    3    0    0 -0.10966779962E+02 -0.53286596463E+02 -0.15313937043E+03  0.16252555532E+03  0.17770000000E+01 0. -1.
</event>
<event>
 7    1  0.4133533E-006  0.4115943E+03  0.7546771E-02  0.9622750E-01
        -11   -1    0    0    0    0  0.00000000000E+00  0.00000000000E+00  0.50000000000E+03  0.50000000000E+03  0.00000000000E+00 0.  1.
         11   -1    0    0    0    0 -0.00000000000E+00 -0.00000000000E+00 -0.50000000000E+03  0.50000000000E+03  0.00000000000E+00 0. -1.
         23    2    1    2    0    0 -0.12530145591E+03  0.29267160625E+02 -0.49628216087E+02  0.16533874746E+03  0.91197149266E+02 0.  0.
        -11    1    1    2    0    0 -0.14508357303E+03 -0.98480105254E+02  0.37019146168E+03  0.40962091328E+03  0.00000000000E+00 0.  1.
         11    1    1    2    0    0  0.27038502894E+03  0.69212944629E+02 -0.32056324559E+03  0.42504033927E+03  0.00000000000E+00 0. -1.
        -15    1    3    3    0    0 -0.78433900878E+02  0.59051403103E+02 -0.13627205978E+02  0.99135278721E+02  0.17770000000E+01 0. -1.
         15    1    3    3    0    0 -0.46867555034E+02 -0.29784242478E+02 -0.36001010109E+02  0.66203468736E+02  0.17770000000E+01 0.  1.
</event>
<event>
 7    1  0.4133533E-006  0.5083675E+03  0.7546771E-02  0.9381279E-01
        -11   -1    0    0    0    0  0.00000000000E+00  0.00000000000E+00  0.50000000000E+03  0.50000000000E+03  0.00000000000E+00 0.  1.
         11   -1    0    0    0    0 -0.00000000000E+00 -0.00000000000E+00 -0.50000000000E+03  0.50000000000E+03  0.00000000000E+00 0. -1.
         23    2    1    2    0    0  0.86348928903E+02 -0.11870238150E+03  0.20612360004E+03  0.26822678691E+03  0.88950985525E+02 0.  0.
        -11    1    1    2    0    0  0.72771427965E+02 -0.80623651942E+02  0.21417676879E+03  0.24014067184E+03  0.00000000000E+00 0.  1.
         11    1    1    2    0    0 -0.15912035687E+03  0.19932603344E+03 -0.42030036883E+03  0.49163254125E+03  0.00000000000E+00 0. -1.
        -15    1    3    3    0    0  0.34071587314E+02 -0.13472655245E+02  0.11141885007E+03  0.11730176206E+03  0.17770000000E+01 0. -1.
         15    1    3    3    0    0  0.52277341589E+02 -0.10522972625E+03  0.94704749971E+02  0.15092502485E+03  0.17770000000E+01 0.  1.
</event>
<event>
 7    1  0.4133533E-006  0.3344813E+03  0.7546771E-02  0.9872642E-01
        -11   -1    0    0    0    0  0.00000000000E+00  0.00000000000E+00  0.50000000000E+03  0.50000000000E+03  0.00000000000E+00 0.  1.
         11   -1    0    0    0    0 -0.00000000000E+00 -0.00000000000E+00 -0.50000000000E+03  0.50000000000E+03  0.00000000000E+00 0. -1.
         23    2    1    2    0    0  0.81303012745E+02 -0.20809366380E+03 -0.14229085971E+03  0.28050653405E+03  0.92325912374E+02 0.  0.
        -11    1    1    2    0    0  0.99304606682E+02  0.17488067390E+03  0.37351778157E+03  0.42421714741E+03  0.00000000000E+00 0.  1.
         11    1    1    2    0    0 -0.18060761943E+03  0.33212989903E+02 -0.23122692186E+03  0.29527631853E+03  0.00000000000E+00 0. -1.
        -15    1    3    3    0    0 -0.12957776153E+02 -0.13379529023E+02  0.42790646709E+01  0.19193329132E+02  0.17770000000E+01 0.  1.
         15    1    3    3    0    0  0.94260788898E+02 -0.19471413478E+03 -0.14656992438E+03  0.26131320492E+03  0.17770000000E+01 0. -1.
</event>
<event>
 7    1  0.4133533E-006  0.5209033E+03  0.7546771E-02  0.9354215E-01
        -11   -1    0    0    0    0  0.00000000000E+00  0.00000000000E+00  0.50000000000E+03  0.50000000000E+03  0.00000000000E+00 0. -1.
         11   -1    0    0    0    0 -0.00000000000E+00 -0.00000000000E+00 -0.50000000000E+03  0.50000000000E+03  0.00000000000E+00 0.  1.
         23    2    1    2    0    0  0.34823607433E+01 -0.49784328525E+02 -0.94605255491E+02  0.14211348507E+03  0.93570732979E+02 0.  0.
        -11    1    1    2    0    0 -0.16204368152E+03  0.22053193371E+03  0.39324435831E+03  0.47909666441E+03  0.00000000000E+00 0. -1.
         11    1    1    2    0    0  0.15856132077E+03 -0.17074760518E+03 -0.29863910282E+03  0.37878985052E+03  0.00000000000E+00 0.  1.
        -15    1    3    3    0    0  0.12208276680E+02  0.71306373662E+01 -0.81888696822E+02  0.83119218024E+02  0.17770000000E+01 0.  1.
         15    1    3    3    0    0 -0.87259159366E+01 -0.56914965891E+02 -0.12716558668E+02  0.58994267049E+02  0.17770000000E+01 0. -1.
</event>
<event>
 7    1  0.4133533E-006  0.4949619E+03  0.7546771E-02  0.9411154E-01
        -11   -1    0    0    0    0  0.00000000000E+00  0.00000000000E+00  0.50000000000E+03  0.50000000000E+03  0.00000000000E+00 0.  1.
         11   -1    0    0    0    0 -0.00000000000E+00 -0.00000000000E+00 -0.50000000000E+03  0.50000000000E+03  0.00000000000E+00 0. -1.
         23    2    1    2    0    0 -0.15271309558E+02  0.66681956811E+02 -0.47609872965E+03  0.48968536107E+03  0.91880662865E+02 0.  0.
        -11    1    1    2    0    0  0.71325052216E+01 -0.80651785801E+02  0.48509968959E+03  0.49181021952E+03  0.00000000000E+00 0.  1.
         11    1    1    2    0    0  0.81388043364E+01  0.13969828990E+02 -0.90009599357E+01  0.18504419413E+02  0.00000000000E+00 0. -1.
        -15    1    3    3    0    0  0.19769967461E+01 -0.13126981091E+02 -0.10611190676E+02  0.17087458713E+02  0.17770000000E+01 0.  1.
         15    1    3    3    0    0 -0.17248306304E+02  0.79808937902E+02 -0.46548753898E+03  0.47259790236E+03  0.17770000000E+01 0. -1.
</event>
<event>
 7    1  0.4133533E-006  0.4639488E+03  0.7546771E-02  0.9484299E-01
        -11   -1    0    0    0    0  0.00000000000E+00  0.00000000000E+00  0.50000000000E+03  0.50000000000E+03  0.00000000000E+00 0.  1.
         11   -1    0    0    0    0 -0.00000000000E+00 -0.00000000000E+00 -0.50000000000E+03  0.50000000000E+03  0.00000000000E+00 0. -1.
         23    2    1    2    0    0  0.51478115835E+02  0.35585186755E+02 -0.41477071792E+03  0.42971852373E+03  0.93311088678E+02 0.  0.
        -11    1    1    2    0    0 -0.77640464568E+02 -0.67819167017E+02  0.48110569209E+03  0.49202659289E+03  0.00000000000E+00 0.  1.
         11    1    1    2    0    0  0.26162348733E+02  0.32233980262E+02 -0.66334974166E+02  0.78254883378E+02  0.00000000000E+00 0. -1.
        -15    1    3    3    0    0 -0.27245284887E+02  0.14030114065E+02 -0.11658490700E+03  0.12055848340E+03  0.17770000000E+01 0.  1.
         15    1    3    3    0    0  0.78723400721E+02  0.21555072690E+02 -0.29818581092E+03  0.30916004034E+03  0.17770000000E+01 0. -1.
</event>
<event>
 7    1  0.4133533E-006  0.5224043E+03  0.7546771E-02  0.9351028E-01
        -11   -1    0    0    0    0  0.00000000000E+00  0.00000000000E+00  0.50000000000E+03  0.50000000000E+03  0.00000000000E+00 0.  1.
         11   -1    0    0    0    0 -0.00000000000E+00 -0.00000000000E+00 -0.50000000000E+03  0.50000000000E+03  0.00000000000E+00 0. -1.
         23    2    1    2    0    0 -0.89063930111E+02 -0.25282950305E+02 -0.36933057326E+03  0.39174950309E+03  0.92146565880E+02 0.  0.
        -11    1    1    2    0    0  0.95342092581E+02 -0.65145627117E+02  0.46342591837E+03  0.47759569635E+03  0.00000000000E+00 0.  1.
         11    1    1    2    0    0 -0.62781624700E+01  0.90428577422E+02 -0.94095345116E+02  0.13065480057E+03  0.00000000000E+00 0. -1.
        -15    1    3    3    0    0  0.15766005769E+02  0.72980416289E+01 -0.26239913657E+02  0.31520138756E+02  0.17770000000E+01 0.  1.
         15    1    3    3    0    0 -0.10482993588E+03 -0.32580991933E+02 -0.34309065960E+03  0.36022936433E+03  0.17770000000E+01 0. -1.
</event>
<event>
 7    1  0.4133533E-006  0.5426155E+03  0.7546771E-02  0.9309199E-01
        -11   -1    0    0    0    0  0.00000000000E+00  0.00000000000E+00  0.50000000000E+03  0.50000000000E+03  0.00000000000E+00 0. -1.
         11   -1    0    0    0    0 -0.00000000000E+00 -0.00000000000E+00 -0.50000000000E+03  0.50000000000E+03  0.00000000000E+00 0.  1.
         23    2    1    2    0    0 -0.69305030005E+02  0.14200115100E+03 -0.16507223030E+03  0.24590933804E+03  0.90857290566E+02 0.  0.
        -11    1    1    2    0    0  0.11798410364E+03 -0.41478792861E+02  0.43995433016E+03  0.45738446803E+03  0.00000000000E+00 0. -1.
         11    1    1    2    0    0 -0.48679073638E+02 -0.10052235814E+03 -0.27488209986E+03  0.29670619394E+03  0.00000000000E+00 0.  1.
        -15    1    3    3    0    0 -0.75063660669E+02  0.11686979048E+03 -0.17006585475E+03  0.21958746266E+03  0.17770000000E+01 0.  1.
         15    1    3    3    0    0  0.57586306640E+01  0.25131360523E+02  0.49936244530E+01  0.26321875370E+02  0.17770000000E+01 0. -1.
</event>
<event>
 7    1  0.4133533E-006  0.5147898E+03  0.7546771E-02  0.9367311E-01
        -11   -1    0    0    0    0  0.00000000000E+00  0.00000000000E+00  0.50000000000E+03  0.50000000000E+03  0.00000000000E+00 0. -1.
         11   -1    0    0    0    0 -0.00000000000E+00 -0.00000000000E+00 -0.50000000000E+03  0.50000000000E+03  0.00000000000E+00 0.  1.
         23    2    1    2    0    0  0.92946352856E+02  0.17121996028E+03 -0.43460874961E+03  0.48521022954E+03  0.92676330864E+02 0.  0.
        -11    1    1    2    0    0 -0.83969270702E+02 -0.40699222370E+02  0.34199774280E+03  0.35449925417E+03  0.00000000000E+00 0. -1.
         11    1    1    2    0    0 -0.89770821549E+01 -0.13052073791E+03  0.92611006810E+02  0.16029051629E+03  0.00000000000E+00 0.  1.
        -15    1    3    3    0    0  0.68725903005E+02  0.14217360874E+03 -0.41171916020E+03  0.44096758313E+03  0.17770000000E+01 0.  1.
         15    1    3    3    0    0  0.24220449851E+02  0.29046351541E+02 -0.22889589410E+02  0.44242646408E+02  0.17770000000E+01 0. -1.
</event>
<event>
 7    1  0.4133533E-006  0.3536324E+03  0.7546771E-02  0.9804287E-01
        -11   -1    0    0    0    0  0.00000000000E+00  0.00000000000E+00  0.50000000000E+03  0.50000000000E+03  0.00000000000E+00 0.  1.
         11   -1    0    0    0    0 -0.00000000000E+00 -0.00000000000E+00 -0.50000000000E+03  0.50000000000E+03  0.00000000000E+00 0. -1.
         23    2    1    2    0    0  0.15636784032E+03  0.15879250667E+03 -0.78525913397E+02  0.25430856875E+03  0.94024291560E+02 0.  0.
        -11    1    1    2    0    0  0.83197711721E+02 -0.36430211670E+02  0.35114229117E+03  0.36269812270E+03  0.00000000000E+00 0.  1.
         11    1    1    2    0    0 -0.23956555204E+03 -0.12236229500E+03 -0.27261637778E+03  0.38299330855E+03  0.00000000000E+00 0. -1.
        -15    1    3    3    0    0  0.96642544334E+01 -0.12606019244E+02 -0.83362359103E+01  0.18026649525E+02  0.17770000000E+01 0.  1.
         15    1    3    3    0    0  0.14670358589E+03  0.17139852592E+03 -0.70189677487E+02  0.23628191923E+03  0.17770000000E+01 0. -1.
</event>
<event>
 7    1  0.4133533E-006  0.3462080E+03  0.7546771E-02  0.9830223E-01
        -11   -1    0    0    0    0  0.00000000000E+00  0.00000000000E+00  0.50000000000E+03  0.50000000000E+03  0.00000000000E+00 0. -1.
         11   -1    0    0    0    0 -0.00000000000E+00 -0.00000000000E+00 -0.50000000000E+03  0.50000000000E+03  0.00000000000E+00 0.  1.
         23    2    1    2    0    0  0.34567098660E+03 -0.37694877276E+02 -0.22791365677E+03  0.42555804620E+03  0.90805732183E+02 0.  0.
        -11    1    1    2    0    0 -0.86569210698E+02  0.10216112998E+02  0.29315726279E+03  0.30584273398E+03  0.00000000000E+00 0. -1.
         11    1    1    2    0    0 -0.25910177590E+03  0.27478764277E+02 -0.65243606014E+02  0.26859921981E+03  0.00000000000E+00 0.  1.
        -15    1    3    3    0    0  0.71528789794E+02 -0.45755500573E+02 -0.59754292964E+02  0.10384443586E+03  0.17770000000E+01 0.  1.
         15    1    3    3    0    0  0.27414219680E+03  0.80606232976E+01 -0.16815936381E+03  0.32171361034E+03  0.17770000000E+01 0. -1.
</event>
<event>
 7    1  0.4133533E-006  0.5143133E+03  0.7546771E-02  0.9368340E-01
        -11   -1    0    0    0    0  0.00000000000E+00  0.00000000000E+00  0.50000000000E+03  0.50000000000E+03  0.00000000000E+00 0.  1.
         11   -1    0    0    0    0 -0.00000000000E+00 -0.00000000000E+00 -0.50000000000E+03  0.50000000000E+03  0.00000000000E+00 0. -1.
         23    2    1    2    0    0  0.41922733183E+02  0.93307577392E+02 -0.27880753578E+03  0.31134936993E+03  0.93493147319E+02 0.  0.
        -11    1    1    2    0    0  0.60242228725E+00 -0.90175147547E+02  0.47724175362E+03  0.48568674220E+03  0.00000000000E+00 0.  1.
         11    1    1    2    0    0 -0.42525155471E+02 -0.31324298443E+01 -0.19843421785E+03  0.20296388787E+03  0.00000000000E+00 0. -1.
        -15    1    3    3    0    0  0.45925769098E+02  0.42278564603E+02 -0.23743467850E+03  0.24550975047E+03  0.17770000000E+01 0. -1.
         15    1    3    3    0    0 -0.40030359145E+01  0.51029012789E+02 -0.41372857272E+02  0.65839619459E+02  0.17770000000E+01 0.  1.
</event>
<event>
 7    1  0.4133533E-006  0.5150264E+03  0.7546771E-02  0.9366801E-01
        -11   -1    0    0    0    0  0.00000000000E+00  0.00000000000E+00  0.50000000000E+03  0.50000000000E+03  0.00000000000E+00 0.  1.
         11   -1    0    0    0    0 -0.00000000000E+00 -0.00000000000E+00 -0.50000000000E+03  0.50000000000E+03  0.00000000000E+00 0. -1.
         23    2    1    2    0    0  0.56426185793E+02 -0.69075861537E+02 -0.33411136686E+03  0.35792825060E+03  0.92340879451E+02 0.  0.
        -11    1    1    2    0    0 -0.11521044685E+03  0.16970000848E+03  0.43946318961E+03  0.48497364358E+03  0.00000000000E+00 0.  1.
         11    1    1    2    0    0  0.58784261052E+02 -0.10062414695E+03 -0.10535182275E+03  0.15709810582E+03  0.00000000000E+00 0. -1.
        -15    1    3    3    0    0  0.10542965550E+02  0.32816179791E+01  0.17376167007E+01  0.11318135003E+02  0.17770000000E+01 0.  1.
         15    1    3    3    0    0  0.45883220243E+02 -0.72357479516E+02 -0.33584898356E+03  0.34661011559E+03  0.17770000000E+01 0. -1.
</event>
<event>
 7    1  0.4133533E-006  0.4641951E+03  0.7546771E-02  0.9483694E-01
        -11   -1    0    0    0    0  0.00000000000E+00  0.00000000000E+00  0.50000000000E+03  0.50000000000E+03  0.00000000000E+00 0.  1.
         11   -1    0    0    0    0 -0.00000000000E+00 -0.00000000000E+00 -0.50000000000E+03  0.50000000000E+03  0.00000000000E+00 0. -1.
         23    2    1    2    0    0 -0.31929693209E+02 -0.71493912932E+02 -0.41804236593E+03  0.43504376479E+03  0.91502856103E+02 0.  0.
        -11    1    1    2    0    0  0.69266363951E+02  0.44850319323E+02  0.48046145195E+03  0.48749624320E+03  0.00000000000E+00 0.  1.
         11    1    1    2    0    0 -0.37336670742E+02  0.26643593610E+02 -0.62419086023E+02  0.77459992011E+02  0.00000000000E+00 0. -1.
        -15    1    3    3    0    0  0.21071561503E+02 -0.19750979997E+02 -0.37553827186E+02  0.47408433641E+02  0.17770000000E+01 0.  1.
         15    1    3    3    0    0 -0.53001254712E+02 -0.51742932935E+02 -0.38048853875E+03  0.38763533115E+03  0.17770000000E+01 0. -1.
</event>
<event>
 7    1  0.4133533E-006  0.4424462E+03  0.7546771E-02  0.9538684E-01
        -11   -1    0    0    0    0  0.00000000000E+00  0.00000000000E+00  0.50000000000E+03  0.50000000000E+03  0.00000000000E+00 0.  1.
         11   -1    0    0    0    0 -0.00000000000E+00 -0.00000000000E+00 -0.50000000000E+03  0.50000000000E+03  0.00000000000E+00 0. -1.
         23    2    1    2    0    0 -0.57014191608E+02 -0.33106148295E+02 -0.29720627616E+01  0.11265008205E+03  0.91293881110E+02 0.  0.
        -11    1    1    2    0    0 -0.19256406690E+02  0.10890713533E+03  0.43154565449E+03  0.44549211580E+03  0.00000000000E+00 0.  1.
         11    1    1    2    0    0  0.76270598298E+02 -0.75800987032E+02 -0.42857359173E+03  0.44185780216E+03  0.00000000000E+00 0. -1.
        -15    1    3    3    0    0 -0.20592636464E+02  0.31555625884E+02  0.47252761260E+01  0.38017103584E+02  0.17770000000E+01 0.  1.
         15    1    3    3    0    0 -0.36421555144E+02 -0.64661774179E+02 -0.76973388876E+01  0.74632978461E+02  0.17770000000E+01 0. -1.
</event>
<event>
 7    1  0.4133533E-006  0.5268628E+03  0.7546771E-02  0.9341630E-01
        -11   -1    0    0    0    0  0.00000000000E+00  0.00000000000E+00  0.50000000000E+03  0.50000000000E+03  0.00000000000E+00 0.  1.
         11   -1    0    0    0    0 -0.00000000000E+00 -0.00000000000E+00 -0.50000000000E+03  0.50000000000E+03  0.00000000000E+00 0.  1.
         23    2    1    2    0    0 -0.25801076969E+02 -0.86287631756E+02 -0.14534578125E+03  0.19873248459E+03  0.10128155477E+03 0.  0.
        -11    1    1    2    0    0  0.97822081651E+02  0.36051071577E+02  0.46150835493E+03  0.47313719056E+03  0.00000000000E+00 0.  1.
         11    1    1    2    0    0 -0.72021004682E+02  0.50236560179E+02 -0.31616257368E+03  0.32813032485E+03  0.00000000000E+00 0.  1.
        -15    1    3    3    0    0  0.17224658679E+01  0.17412026719E+02  0.58513189254E+00  0.17596751730E+02  0.17770000000E+01 0. -1.
         15    1    3    3    0    0 -0.27523542837E+02 -0.10369965847E+03 -0.14593091315E+03  0.18113573286E+03  0.17770000000E+01 0.  1.
</event>
<event>
 7    1  0.4133533E-006  0.5205422E+03  0.7546771E-02  0.9354983E-01
        -11   -1    0    0    0    0  0.00000000000E+00  0.00000000000E+00  0.50000000000E+03  0.50000000000E+03  0.00000000000E+00 0.  1.
         11   -1    0    0    0    0 -0.00000000000E+00 -0.00000000000E+00 -0.50000000000E+03  0.50000000000E+03  0.00000000000E+00 0.  1.
         23    2    1    2    0    0 -0.47474212464E+02 -0.47995864515E+02 -0.22409406076E+03  0.25188336368E+03  0.93111100154E+02 0.  0.
        -11    1    1    2    0    0 -0.57073917880E+02  0.75107586503E+02  0.47008636994E+03  0.47945779466E+03  0.00000000000E+00 0.  1.
         11    1    1    2    0    0  0.10454813034E+03 -0.27111721988E+02 -0.24599230918E+03  0.26865884166E+03  0.00000000000E+00 0.  1.
        -15    1    3    3    0    0 -0.70512962677E+02 -0.56286096847E+02 -0.18230309335E+03  0.20341528502E+03  0.17770000000E+01 0.  1.
         15    1    3    3    0    0  0.23038750213E+02  0.82902323323E+01 -0.41790967405E+02  0.48468078662E+02  0.17770000000E+01 0. -1.
</event>
<event>
 7    1  0.4133533E-006  0.4820012E+03  0.7546771E-02  0.9441009E-01
        -11   -1    0    0    0    0  0.00000000000E+00  0.00000000000E+00  0.50000000000E+03  0.50000000000E+03  0.00000000000E+00 0.  1.
         11   -1    0    0    0    0 -0.00000000000E+00 -0.00000000000E+00 -0.50000000000E+03  0.50000000000E+03  0.00000000000E+00 0.  1.
         23    2    1    2    0    0 -0.33921575240E+02 -0.64170774065E+02 -0.45794236990E+03  0.47280470085E+03  0.92544635099E+02 0.  0.
        -11    1    1    2    0    0  0.38288909924E+01  0.91622056202E+02  0.47446028532E+03  0.48324095846E+03  0.00000000000E+00 0.  1.
         11    1    1    2    0    0  0.30092684247E+02 -0.27451282138E+02 -0.16517915417E+02  0.43954340695E+02  0.00000000000E+00 0.  1.
        -15    1    3    3    0    0 -0.23647544580E+02 -0.88134927203E+02 -0.34378197202E+03  0.35569112130E+03  0.17770000000E+01 0.  1.
         15    1    3    3    0    0 -0.10274030659E+02  0.23964153138E+02 -0.11416039788E+03  0.11711357955E+03  0.17770000000E+01 0. -1.
</event>
<event>
 7    1  0.4133533E-006  0.5088850E+03  0.7546771E-02  0.9380145E-01
        -11   -1    0    0    0    0  0.00000000000E+00  0.00000000000E+00  0.50000000000E+03  0.50000000000E+03  0.00000000000E+00 0.  1.
         11   -1    0    0    0    0 -0.00000000000E+00 -0.00000000000E+00 -0.50000000000E+03  0.50000000000E+03  0.00000000000E+00 0. -1.
         23    2    1    2    0    0 -0.96526645884E+01 -0.58817544647E+02  0.26396847875E+03  0.28761420097E+03  0.97416083547E+02 0.  0.
        -11    1    1    2    0    0 -0.31509010978E+02 -0.54920064547E+02  0.21201827278E+03  0.22127082785E+03  0.00000000000E+00 0.  1.
         11    1    1    2    0    0  0.41161675566E+02  0.11373760919E+03 -0.47598675154E+03  0.49111497118E+03  0.00000000000E+00 0. -1.
        -15    1    3    3    0    0  0.23058858199E+02 -0.73713361711E+02  0.16192291260E+03  0.17940891279E+03  0.17770000000E+01 0.  1.
         15    1    3    3    0    0 -0.32711522788E+02  0.14895817064E+02  0.10204556615E+03  0.10820528818E+03  0.17770000000E+01 0. -1.
</event>
<event>
 7    1  0.4133533E-006  0.5122500E+03  0.7546771E-02  0.9372809E-01
        -11   -1    0    0    0    0  0.00000000000E+00  0.00000000000E+00  0.50000000000E+03  0.50000000000E+03  0.00000000000E+00 0.  1.
         11   -1    0    0    0    0 -0.00000000000E+00 -0.00000000000E+00 -0.50000000000E+03  0.50000000000E+03  0.00000000000E+00 0. -1.
         23    2    1    2    0    0  0.62366464246E+02  0.65660921343E+02 -0.33689712564E+03  0.36021534530E+03  0.89746806469E+02 0.  0.
        -11    1    1    2    0    0 -0.15232432220E+03 -0.60700151413E+02  0.45936139918E+03  0.48775004108E+03  0.00000000000E+00 0.  1.
         11    1    1    2    0    0  0.89957857953E+02 -0.49607699295E+01 -0.12246427354E+03  0.15203461363E+03  0.00000000000E+00 0. -1.
        -15    1    3    3    0    0  0.15157750153E+02  0.14290064956E+02 -0.55965161211E+01  0.21643522538E+02  0.17770000000E+01 0.  1.
         15    1    3    3    0    0  0.47208714093E+02  0.51370856386E+02 -0.33130060951E+03  0.33857182276E+03  0.17770000000E+01 0. -1.
</event>
<event>
 7    1  0.4133533E-006  0.5031542E+03  0.7546771E-02  0.9392779E-01
        -11   -1    0    0    0    0  0.00000000000E+00  0.00000000000E+00  0.50000000000E+03  0.50000000000E+03  0.00000000000E+00 0. -1.
         11   -1    0    0    0    0 -0.00000000000E+00 -0.00000000000E+00 -0.50000000000E+03  0.50000000000E+03  0.00000000000E+00 0.  1.
         23    2    1    2    0    0  0.36832284125E+02 -0.15721469880E+03 -0.45989473983E+03  0.49684577762E+03  0.96330038637E+02 0.  0.
        -11    1    1    2    0    0 -0.11462044989E+01  0.11114959282E+03  0.41490471206E+03  0.42953633823E+03  0.00000000000E+00 0. -1.
         11    1    1    2    0    0 -0.35686079626E+02  0.46065105972E+02  0.44990027774E+02  0.73617884148E+02  0.00000000000E+00 0.  1.
        -15    1    3    3    0    0  0.30146018474E+02 -0.72359568152E+02 -0.10030172864E+03  0.12731175920E+03  0.17770000000E+01 0. -1.
         15    1    3    3    0    0  0.66862656509E+01 -0.84855130644E+02 -0.35959301119E+03  0.36953401842E+03  0.17770000000E+01 0.  1.
</event>
<event>
 7    1  0.4133533E-006  0.5259051E+03  0.7546771E-02  0.9343641E-01
        -11   -1    0    0    0    0  0.00000000000E+00  0.00000000000E+00  0.50000000000E+03  0.50000000000E+03  0.00000000000E+00 0.  1.
         11   -1    0    0    0    0 -0.00000000000E+00 -0.00000000000E+00 -0.50000000000E+03  0.50000000000E+03  0.00000000000E+00 0. -1.
         23    2    1    2    0    0  0.49393743911E+02 -0.11294327840E+03 -0.31783719372E+03  0.35627382444E+03  0.10351149788E+03 0.  0.
        -11    1    1    2    0    0  0.29017880017E+02  0.84650361675E+02  0.46557306639E+03  0.47409492851E+03  0.00000000000E+00 0.  1.
         11    1    1    2    0    0 -0.78411623929E+02  0.28292916720E+02 -0.14773587267E+03  0.16963124705E+03  0.00000000000E+00 0. -1.
        -15    1    3    3    0    0  0.12706888196E+02  0.16199080166E+02 -0.16728301886E+02  0.26587008460E+02  0.17770000000E+01 0.  1.
         15    1    3    3    0    0  0.36686855715E+02 -0.12914235856E+03 -0.30110889184E+03  0.32968681598E+03  0.17770000000E+01 0. -1.
</event>
<event>
 7    1  0.4133533E-006  0.5388537E+03  0.7546771E-02  0.9316837E-01
        -11   -1    0    0    0    0  0.00000000000E+00  0.00000000000E+00  0.50000000000E+03  0.50000000000E+03  0.00000000000E+00 0.  1.
         11   -1    0    0    0    0 -0.00000000000E+00 -0.00000000000E+00 -0.50000000000E+03  0.50000000000E+03  0.00000000000E+00 0.  1.
         23    2    1    2    0    0  0.10131732293E+03 -0.62854584738E+02 -0.24354876246E+03  0.28403995829E+03  0.84538745297E+02 0.  0.
        -11    1    1    2    0    0 -0.53519860684E+02 -0.76220914981E+02  0.45164356757E+03  0.46114630595E+03  0.00000000000E+00 0.  1.
         11    1    1    2    0    0 -0.47797462250E+02  0.13907549972E+03 -0.20809480511E+03  0.25481373576E+03  0.00000000000E+00 0.  1.
        -15    1    3    3    0    0  0.76939392488E+02 -0.34023986214E+02 -0.22824541631E+03  0.24326205941E+03  0.17770000000E+01 0.  1.
         15    1    3    3    0    0  0.24377930446E+02 -0.28830598524E+02 -0.15303346156E+02  0.40777898875E+02  0.17770000000E+01 0. -1.
</event>
<event>
 7    1  0.4133533E-006  0.4788944E+03  0.7546771E-02  0.9448314E-01
        -11   -1    0    0    0    0  0.00000000000E+00  0.00000000000E+00  0.50000000000E+03  0.50000000000E+03  0.00000000000E+00 0.  1.
         11   -1    0    0    0    0 -0.00000000000E+00 -0.00000000000E+00 -0.50000000000E+03  0.50000000000E+03  0.00000000000E+00 0. -1.
         23    2    1    2    0    0 -0.82986915199E+01 -0.16876783026E+03 -0.43473009413E+03  0.47529089992E+03  0.91431591866E+02 0.  0.
        -11    1    1    2    0    0 -0.21312775097E+02  0.13440201623E+03  0.45507982188E+03  0.47499029531E+03  0.00000000000E+00 0.  1.
         11    1    1    2    0    0  0.29611466617E+02  0.34365814026E+02 -0.20349727754E+02  0.49718804778E+02  0.00000000000E+00 0. -1.
        -15    1    3    3    0    0 -0.44076721164E+02 -0.81566299436E+02 -0.16117364430E+03  0.18594601339E+03  0.17770000000E+01 0.  1.
         15    1    3    3    0    0  0.35778029644E+02 -0.87201530825E+02 -0.27355644983E+03  0.28934488652E+03  0.17770000000E+01 0. -1.
</event>
<event>
 7    1  0.4133533E-006  0.4569083E+03  0.7546771E-02  0.9501754E-01
        -11   -1    0    0    0    0  0.00000000000E+00  0.00000000000E+00  0.50000000000E+03  0.50000000000E+03  0.00000000000E+00 0.  1.
         11   -1    0    0    0    0 -0.00000000000E+00 -0.00000000000E+00 -0.50000000000E+03  0.50000000000E+03  0.00000000000E+00 0.  1.
         23    2    1    2    0    0 -0.93872884534E+02 -0.51601195834E+02 -0.43931670628E+03  0.46083759383E+03  0.88866853240E+02 0.  0.
        -11    1    1    2    0    0  0.73383458106E+02  0.13767716209E+03  0.42076490783E+03  0.44875744066E+03  0.00000000000E+00 0.  1.
         11    1    1    2    0    0  0.20489426429E+02 -0.86075966260E+02  0.18551798451E+02  0.90404965510E+02  0.00000000000E+00 0.  1.
        -15    1    3    3    0    0 -0.10906311919E+03 -0.43374479184E+02 -0.41259692572E+03  0.42897026733E+03  0.17770000000E+01 0.  1.
         15    1    3    3    0    0  0.15190234657E+02 -0.82267166505E+01 -0.26719780565E+02  0.31867326499E+02  0.17770000000E+01 0. -1.
</event>
<event>
 7    1  0.4133533E-006  0.5139814E+03  0.7546771E-02  0.9369058E-01
        -11   -1    0    0    0    0  0.00000000000E+00  0.00000000000E+00  0.50000000000E+03  0.50000000000E+03  0.00000000000E+00 0.  1.
         11   -1    0    0    0    0 -0.00000000000E+00 -0.00000000000E+00 -0.50000000000E+03  0.50000000000E+03  0.00000000000E+00 0. -1.
         23    2    1    2    0    0  0.32522612329E+02  0.14701750438E+02  0.12466036693E+03  0.15753804941E+03  0.89466016731E+02 0.  0.
        -11    1    1    2    0    0  0.98925513374E+02  0.27845114550E+02  0.34130665409E+03  0.35644331910E+03  0.00000000000E+00 0.  1.
         11    1    1    2    0    0 -0.13144812570E+03 -0.42546864988E+02 -0.46596702103E+03  0.48601863149E+03  0.00000000000E+00 0. -1.
        -15    1    3    3    0    0  0.30736105021E+02  0.42554301484E+02  0.33771690473E+02  0.62444067237E+02  0.17770000000E+01 0. -1.
         15    1    3    3    0    0  0.17865073080E+01 -0.27852551046E+02  0.90888676459E+02  0.95093982174E+02  0.17770000000E+01 0.  1.
</event>
<event>
 7    1  0.4133533E-006  0.5019954E+03  0.7546771E-02  0.9395356E-01
        -11   -1    0    0    0    0  0.00000000000E+00  0.00000000000E+00  0.50000000000E+03  0.50000000000E+03  0.00000000000E+00 0. -1.
         11   -1    0    0    0    0 -0.00000000000E+00 -0.00000000000E+00 -0.50000000000E+03  0.50000000000E+03  0.00000000000E+00 0. -1.
         23    2    1    2    0    0 -0.10139543475E+03  0.51314206032E+02 -0.47623590683E+03  0.49800462851E+03  0.91070242883E+02 0.  0.
        -11    1    1    2    0    0 -0.46910813953E+01  0.26469846920E+02  0.93237578361E+02  0.97035586561E+02  0.00000000000E+00 0. -1.
         11    1    1    2    0    0  0.10608651615E+03 -0.77784052952E+02  0.38299832846E+03  0.40495978493E+03  0.00000000000E+00 0. -1.
        -15    1    3    3    0    0 -0.23018034594E+02  0.27710102553E+02 -0.38806798892E+02  0.52979289060E+02  0.17770000000E+01 0.  1.
         15    1    3    3    0    0 -0.78377400158E+02  0.23604103479E+02 -0.43742910793E+03  0.44502533945E+03  0.17770000000E+01 0. -1.
</event>
<event>
 7    1  0.4133533E-006  0.5187653E+03  0.7546771E-02  0.9358773E-01
        -11   -1    0    0    0    0  0.00000000000E+00  0.00000000000E+00  0.50000000000E+03  0.50000000000E+03  0.00000000000E+00 0.  1.
         11   -1    0    0    0    0 -0.00000000000E+00 -0.00000000000E+00 -0.50000000000E+03  0.50000000000E+03  0.00000000000E+00 0.  1.
         23    2    1    2    0    0 -0.86010010968E+02 -0.54510348748E+02 -0.33782189317E+03  0.36429640969E+03  0.90659486518E+02 0.  0.
        -11    1    1    2    0    0  0.18762077212E+02  0.88677091743E+02  0.47262165555E+03  0.48123473631E+03  0.00000000000E+00 0.  1.
         11    1    1    2    0    0  0.67247933756E+02 -0.34166742995E+02 -0.13479976237E+03  0.15446885400E+03  0.00000000000E+00 0.  1.
        -15    1    3    3    0    0 -0.74810225630E+02 -0.15934161716E+01 -0.25160226855E+03  0.26249946305E+03  0.17770000000E+01 0.  1.
         15    1    3    3    0    0 -0.11199785338E+02 -0.52916932576E+02 -0.86219624621E+02  0.10179694663E+03  0.17770000000E+01 0. -1.
</event>
<event>
 7    1  0.4133533E-006  0.5129185E+03  0.7546771E-02  0.9371359E-01
        -11   -1    0    0    0    0  0.00000000000E+00  0.00000000000E+00  0.50000000000E+03  0.50000000000E+03  0.00000000000E+00 0.  1.
         11   -1    0    0    0    0 -0.00000000000E+00 -0.00000000000E+00 -0.50000000000E+03  0.50000000000E+03  0.00000000000E+00 0. -1.
         23    2    1    2    0    0  0.17876715396E+02  0.94529874815E+01 -0.29852883169E+03  0.31195834092E+03  0.88258751383E+02 0.  0.
        -11    1    1    2    0    0 -0.11900342391E+03 -0.11660372781E+02  0.47217646354E+03  0.48708150439E+03  0.00000000000E+00 0.  1.
         11    1    1    2    0    0  0.10112670852E+03  0.22073852990E+01 -0.17364763185E+03  0.20096015469E+03  0.00000000000E+00 0. -1.
        -15    1    3    3    0    0  0.39094575418E+02 -0.26049726660E+02 -0.19191378809E+03  0.19758804082E+03  0.17770000000E+01 0. -1.
         15    1    3    3    0    0 -0.21217860023E+02  0.35502714142E+02 -0.10661504360E+03  0.11437030011E+03  0.17770000000E+01 0.  1.
</event>
<event>
 7    1  0.4133533E-006  0.5390681E+03  0.7546771E-02  0.9316400E-01
        -11   -1    0    0    0    0  0.00000000000E+00  0.00000000000E+00  0.50000000000E+03  0.50000000000E+03  0.00000000000E+00 0.  1.
         11   -1    0    0    0    0 -0.00000000000E+00 -0.00000000000E+00 -0.50000000000E+03  0.50000000000E+03  0.00000000000E+00 0. -1.
         23    2    1    2    0    0  0.15052198273E+03  0.86068419734E+02  0.14754720965E+03  0.23702928342E+03  0.65939835933E+02 0.  0.
        -11    1    1    2    0    0 -0.52262303527E+02 -0.14799942012E+02  0.29711453995E+03  0.30203879967E+03  0.00000000000E+00 0.  1.
         11    1    1    2    0    0 -0.98259679207E+02 -0.71268477722E+02 -0.44466174960E+03  0.46093191691E+03  0.00000000000E+00 0. -1.
        -15    1    3    3    0    0  0.11575553409E+03  0.51164138678E+02  0.68629978188E+02  0.14398036114E+03  0.17770000000E+01 0.  1.
         15    1    3    3    0    0  0.34766448643E+02  0.34904281056E+02  0.78917231458E+02  0.93048922279E+02  0.17770000000E+01 0. -1.
</event>
<event>
 7    1  0.4133533E-006  0.5333756E+03  0.7546771E-02  0.9328078E-01
        -11   -1    0    0    0    0  0.00000000000E+00  0.00000000000E+00  0.50000000000E+03  0.50000000000E+03  0.00000000000E+00 0. -1.
         11   -1    0    0    0    0 -0.00000000000E+00 -0.00000000000E+00 -0.50000000000E+03  0.50000000000E+03  0.00000000000E+00 0. -1.
         23    2    1    2    0    0  0.85375281413E+02  0.59511777814E+02 -0.30398083684E+02  0.14182745940E+03  0.91435192197E+02 0.  0.
        -11    1    1    2    0    0  0.24645999847E+03  0.20418913930E+03  0.22555313834E+03  0.39154814988E+03  0.00000000000E+00 0. -1.
         11    1    1    2    0    0 -0.33183527989E+03 -0.26370091711E+03 -0.19515505466E+03  0.46662439073E+03  0.00000000000E+00 0. -1.
        -15    1    3    3    0    0  0.50477413518E+02  0.77861773720E+02 -0.13451249215E+01  0.92819136886E+02  0.17770000000E+01 0.  1.
         15    1    3    3    0    0  0.34897867895E+02 -0.18349995906E+02 -0.29052958762E+02  0.49008322510E+02  0.17770000000E+01 0. -1.
</event>
<event>
 7    1  0.4133533E-006  0.5417786E+03  0.7546771E-02  0.9310892E-01
        -11   -1    0    0    0    0  0.00000000000E+00  0.00000000000E+00  0.50000000000E+03  0.50000000000E+03  0.00000000000E+00 0.  1.
         11   -1    0    0    0    0 -0.00000000000E+00 -0.00000000000E+00 -0.50000000000E+03  0.50000000000E+03  0.00000000000E+00 0.  1.
         23    2    1    2    0    0 -0.77034222545E+02 -0.34104852933E+02 -0.18312245473E+03  0.22055213139E+03  0.89509758119E+02 0.  0.
        -11    1    1    2    0    0 -0.44917742798E+02 -0.11153862462E+03  0.44216328209E+03  0.45822138364E+03  0.00000000000E+00 0.  1.
         11    1    1    2    0    0  0.12195196534E+03  0.14564347756E+03 -0.25904082736E+03  0.32122648497E+03  0.00000000000E+00 0.  1.
        -15    1    3    3    0    0 -0.36113297902E+01  0.26433050065E+02 -0.52682888811E+02  0.59079542492E+02  0.17770000000E+01 0.  1.
         15    1    3    3    0    0 -0.73422892755E+02 -0.60537902999E+02 -0.13043956592E+03  0.16147258890E+03  0.17770000000E+01 0. -1.
</event>
<event>
 7    1  0.4133533E-006  0.4595016E+03  0.7546771E-02  0.9495286E-01
        -11   -1    0    0    0    0  0.00000000000E+00  0.00000000000E+00  0.50000000000E+03  0.50000000000E+03  0.00000000000E+00 0.  1.
         11   -1    0    0    0    0 -0.00000000000E+00 -0.00000000000E+00 -0.50000000000E+03  0.50000000000E+03  0.00000000000E+00 0. -1.
         23    2    1    2    0    0  0.21104624657E+03  0.26721519864E+02  0.35307589306E+03  0.42195030207E+03  0.90138301160E+02 0.  0.
        -11    1    1    2    0    0  0.24459497318E+02 -0.22910633111E+02  0.79072424943E+02  0.85881386254E+02  0.00000000000E+00 0.  1.
         11    1    1    2    0    0 -0.23550574389E+03 -0.38108867534E+01 -0.43214831801E+03  0.49216831168E+03  0.00000000000E+00 0. -1.
        -15    1    3    3    0    0  0.11751555759E+03  0.55259426550E+02  0.16515757969E+03  0.21010400842E+03  0.17770000000E+01 0.  1.
         15    1    3    3    0    0  0.93530688982E+02 -0.28537906686E+02  0.18791831338E+03  0.21184629364E+03  0.17770000000E+01 0. -1.
</event>
<event>
 7    1  0.4133533E-006  0.5093899E+03  0.7546771E-02  0.9379041E-01
        -11   -1    0    0    0    0  0.00000000000E+00  0.00000000000E+00  0.50000000000E+03  0.50000000000E+03  0.00000000000E+00 0.  1.
         11   -1    0    0    0    0 -0.00000000000E+00 -0.00000000000E+00 -0.50000000000E+03  0.50000000000E+03  0.00000000000E+00 0. -1.
         23    2    1    2    0    0  0.62523236631E+02  0.29482269360E+01  0.23658202312E+03  0.26124905578E+03  0.91444892266E+02 0.  0.
        -11    1    1    2    0    0  0.39579849504E+02 -0.37934493112E+02  0.24200883795E+03  0.24814082272E+03  0.00000000000E+00 0.  1.
         11    1    1    2    0    0 -0.10210308613E+03  0.34986266176E+02 -0.47859086107E+03  0.49061012150E+03  0.00000000000E+00 0. -1.
        -15    1    3    3    0    0 -0.87561586019E+01 -0.30424652271E+02  0.78070825729E+02  0.84264709922E+02  0.17770000000E+01 0.  1.
         15    1    3    3    0    0  0.71279395232E+02  0.33372879207E+02  0.15851119739E+03  0.17698434586E+03  0.17770000000E+01 0. -1.
</event>
<event>
 7    1  0.4133533E-006  0.3972926E+03  0.7546771E-02  0.9664434E-01
        -11   -1    0    0    0    0  0.00000000000E+00  0.00000000000E+00  0.50000000000E+03  0.50000000000E+03  0.00000000000E+00 0.  1.
         11   -1    0    0    0    0 -0.00000000000E+00 -0.00000000000E+00 -0.50000000000E+03  0.50000000000E+03  0.00000000000E+00 0. -1.
         23    2    1    2    0    0  0.12634441239E+03 -0.22263391304E+02 -0.10468637769E+03  0.18834527702E+03  0.89755983472E+02 0.  0.
        -11    1    1    2    0    0  0.62784684886E+02  0.71435215648E+02  0.42550591591E+03  0.43600480636E+03  0.00000000000E+00 0.  1.
         11    1    1    2    0    0 -0.18912909728E+03 -0.49171824344E+02 -0.32081953823E+03  0.37564991662E+03  0.00000000000E+00 0. -1.
        -15    1    3    3    0    0  0.72565340837E+02 -0.19948312291E+02 -0.54990937894E+01  0.75478881918E+02  0.17770000000E+01 0.  1.
         15    1    3    3    0    0  0.53779071554E+02 -0.23150790123E+01 -0.99187283898E+02  0.11286639511E+03  0.17770000000E+01 0. -1.
</event>
<event>
 7    1  0.4133533E-006  0.3960438E+03  0.7546771E-02  0.9668163E-01
        -11   -1    0    0    0    0  0.00000000000E+00  0.00000000000E+00  0.50000000000E+03  0.50000000000E+03  0.00000000000E+00 0. -1.
         11   -1    0    0    0    0 -0.00000000000E+00 -0.00000000000E+00 -0.50000000000E+03  0.50000000000E+03  0.00000000000E+00 0.  1.
         23    2    1    2    0    0 -0.27692781877E+02 -0.77091381802E+01 -0.33438507162E+03  0.34794117761E+03  0.91778897217E+02 0.  0.
        -11    1    1    2    0    0 -0.13355954246E+03 -0.32009224467E+02  0.43616634943E+03  0.45727871830E+03  0.00000000000E+00 0. -1.
         11    1    1    2    0    0  0.16125232434E+03  0.39718362647E+02 -0.10178127781E+03  0.19478010409E+03  0.00000000000E+00 0.  1.
        -15    1    3    3    0    0 -0.16141410405E+02 -0.46467343367E+02 -0.24383811267E+03  0.24875679297E+03  0.17770000000E+01 0.  1.
         15    1    3    3    0    0 -0.11551371472E+02  0.38758205187E+02 -0.90546958959E+02  0.99184384647E+02  0.17770000000E+01 0. -1.
</event>
<event>
 7    1  0.4133533E-006  0.5104634E+03  0.7546771E-02  0.9376697E-01
        -11   -1    0    0    0    0  0.00000000000E+00  0.00000000000E+00  0.50000000000E+03  0.50000000000E+03  0.00000000000E+00 0.  1.
         11   -1    0    0    0    0 -0.00000000000E+00 -0.00000000000E+00 -0.50000000000E+03  0.50000000000E+03  0.00000000000E+00 0. -1.
         23    2    1    2    0    0 -0.13102829827E+02  0.16392214279E+02 -0.31236785386E+03  0.32784358711E+03  0.97300321932E+02 0.  0.
        -11    1    1    2    0    0  0.78575192182E+02 -0.18516217595E+02  0.48283447634E+03  0.48953655909E+03  0.00000000000E+00 0.  1.
         11    1    1    2    0    0 -0.65472362355E+02  0.21240033166E+01 -0.17046662248E+03  0.18261985380E+03  0.00000000000E+00 0. -1.
        -15    1    3    3    0    0  0.14876591361E+01 -0.33402510038E+02 -0.48618163567E+02  0.59032400969E+02  0.17770000000E+01 0.  1.
         15    1    3    3    0    0 -0.14590488963E+02  0.49794724316E+02 -0.26374969029E+03  0.26881118614E+03  0.17770000000E+01 0. -1.
</event>
<event>
 7    1  0.4133533E-006  0.5191854E+03  0.7546771E-02  0.9357875E-01
        -11   -1    0    0    0    0  0.00000000000E+00  0.00000000000E+00  0.50000000000E+03  0.50000000000E+03  0.00000000000E+00 0. -1.
         11   -1    0    0    0    0 -0.00000000000E+00 -0.00000000000E+00 -0.50000000000E+03  0.50000000000E+03  0.00000000000E+00 0.  1.
         23    2    1    2    0    0 -0.53883841761E+01  0.25564075285E+02 -0.28923691924E+03  0.30469417530E+03  0.92184534401E+02 0.  0.
        -11    1    1    2    0    0 -0.51351496720E+02  0.69399184787E+02  0.47300048690E+03  0.48081460426E+03  0.00000000000E+00 0. -1.
         11    1    1    2    0    0  0.56739880896E+02 -0.94963260073E+02 -0.18376356766E+03  0.21449122044E+03  0.00000000000E+00 0.  1.
        -15    1    3    3    0    0 -0.20002135052E+02 -0.29507412228E+02 -0.75914692752E+02  0.83886656195E+02  0.17770000000E+01 0. -1.
         15    1    3    3    0    0  0.14613750876E+02  0.55071487513E+02 -0.21332222649E+03  0.22080751911E+03  0.17770000000E+01 0.  1.
</event>
<event>
 7    1  0.4133533E-006  0.3936310E+03  0.7546771E-02  0.9675409E-01
        -11   -1    0    0    0    0  0.00000000000E+00  0.00000000000E+00  0.50000000000E+03  0.50000000000E+03  0.00000000000E+00 0.  1.
         11   -1    0    0    0    0 -0.00000000000E+00 -0.00000000000E+00 -0.50000000000E+03  0.50000000000E+03  0.00000000000E+00 0. -1.
         23    2    1    2    0    0 -0.15174181651E+03 -0.67413490226E+02  0.45290029695E+02  0.19414475777E+03  0.89837868619E+02 0.  0.
        -11    1    1    2    0    0 -0.99852587050E+02  0.12461794362E+03  0.32058434102E+03  0.35815428340E+03  0.00000000000E+00 0.  1.
         11    1    1    2    0    0  0.25159440356E+03 -0.57204453397E+02 -0.36587437071E+03  0.44770095883E+03  0.00000000000E+00 0. -1.
        -15    1    3    3    0    0 -0.14096798472E+03 -0.54385100666E+02  0.68062827843E+02  0.16572693853E+03  0.17770000000E+01 0.  1.
         15    1    3    3    0    0 -0.10773831783E+02 -0.13028389560E+02 -0.22772798147E+02  0.28417819239E+02  0.17770000000E+01 0. -1.
</event>
<event>
 7    1  0.4133533E-006  0.5062170E+03  0.7546771E-02  0.9386005E-01
        -11   -1    0    0    0    0  0.00000000000E+00  0.00000000000E+00  0.50000000000E+03  0.50000000000E+03  0.00000000000E+00 0. -1.
         11   -1    0    0    0    0 -0.00000000000E+00 -0.00000000000E+00 -0.50000000000E+03  0.50000000000E+03  0.00000000000E+00 0. -1.
         23    2    1    2    0    0  0.77324791882E+02 -0.79711401846E+02 -0.47250487043E+03  0.49378299373E+03  0.90707007983E+02 0.  0.
        -11    1    1    2    0    0 -0.11063157318E+03  0.58172139465E+02  0.43120180349E+03  0.44895248983E+03  0.00000000000E+00 0. -1.
         11    1    1    2    0    0  0.33306781299E+02  0.21539262381E+02  0.41303066934E+02  0.57264516435E+02  0.00000000000E+00 0. -1.
        -15    1    3    3    0    0  0.58308017891E+02 -0.99463532816E+02 -0.36243212778E+03  0.38033278098E+03  0.17770000000E+01 0. -1.
         15    1    3    3    0    0  0.19016773991E+02  0.19752130970E+02 -0.11007274264E+03  0.11345021275E+03  0.17770000000E+01 0.  1.
</event>
<event>
 7    1  0.4133533E-006  0.4929093E+03  0.7546771E-02  0.9415817E-01
        -11   -1    0    0    0    0  0.00000000000E+00  0.00000000000E+00  0.50000000000E+03  0.50000000000E+03  0.00000000000E+00 0.  1.
         11   -1    0    0    0    0 -0.00000000000E+00 -0.00000000000E+00 -0.50000000000E+03  0.50000000000E+03  0.00000000000E+00 0. -1.
         23    2    1    2    0    0 -0.47894253174E+02 -0.81719869872E+02 -0.46979671256E+03  0.48889326436E+03  0.96621302973E+02 0.  0.
        -11    1    1    2    0    0  0.70237358352E+02  0.78412461784E+02  0.47614644983E+03  0.48764458610E+03  0.00000000000E+00 0.  1.
         11    1    1    2    0    0 -0.22343105178E+02  0.33074080874E+01 -0.63497372688E+01  0.23462149532E+02  0.00000000000E+00 0. -1.
        -15    1    3    3    0    0 -0.69604870894E+02 -0.77186689737E+02 -0.43746158860E+03  0.44964254953E+03  0.17770000000E+01 0. -1.
         15    1    3    3    0    0  0.21710617719E+02 -0.45331801346E+01 -0.32335123965E+02  0.39250714831E+02  0.17770000000E+01 0.  1.
</event>
<event>
 7    1  0.4133533E-006  0.4032837E+03  0.7546771E-02  0.9646748E-01
        -11   -1    0    0    0    0  0.00000000000E+00  0.00000000000E+00  0.50000000000E+03  0.50000000000E+03  0.00000000000E+00 0.  1.
         11   -1    0    0    0    0 -0.00000000000E+00 -0.00000000000E+00 -0.50000000000E+03  0.50000000000E+03  0.00000000000E+00 0. -1.
         23    2    1    2    0    0  0.56547066122E+02  0.74024727858E+02 -0.33191797016E+03  0.35770345316E+03  0.95420073709E+02 0.  0.
        -11    1    1    2    0    0 -0.21862352873E+03 -0.15008469675E+03  0.37391206873E+03  0.45840146014E+03  0.00000000000E+00 0.  1.
         11    1    1    2    0    0  0.16207646261E+03  0.76059968892E+02 -0.41994098573E+02  0.18389508671E+03  0.00000000000E+00 0. -1.
        -15    1    3    3    0    0  0.54481275359E+01  0.81476216204E+02 -0.20222679619E+03  0.21809835104E+03  0.17770000000E+01 0. -1.
         15    1    3    3    0    0  0.51098938586E+02 -0.74514883456E+01 -0.12969117397E+03  0.13960510212E+03  0.17770000000E+01 0.  1.
</event>
<event>
 7    1  0.4133533E-006  0.4486502E+03  0.7546771E-02  0.9522660E-01
        -11   -1    0    0    0    0  0.00000000000E+00  0.00000000000E+00  0.50000000000E+03  0.50000000000E+03  0.00000000000E+00 0.  1.
         11   -1    0    0    0    0 -0.00000000000E+00 -0.00000000000E+00 -0.50000000000E+03  0.50000000000E+03  0.00000000000E+00 0.  1.
         23    2    1    2    0    0  0.17539591144E+03  0.12494111911E+03 -0.36628655546E+03  0.43424008253E+03  0.89580129291E+02 0.  0.
        -11    1    1    2    0    0 -0.11862336201E+03 -0.73269862384E+02  0.43864246111E+03  0.46026859923E+03  0.00000000000E+00 0.  1.
         11    1    1    2    0    0 -0.56772549432E+02 -0.51671256731E+02 -0.72355905651E+02  0.10549131824E+03  0.00000000000E+00 0.  1.
        -15    1    3    3    0    0  0.73450767502E+02  0.10449352722E+03 -0.17716403890E+03  0.21841283590E+03  0.17770000000E+01 0.  1.
         15    1    3    3    0    0  0.10194514394E+03  0.20447591899E+02 -0.18912251656E+03  0.21582724663E+03  0.17770000000E+01 0. -1.
</event>
<event>
 7    1  0.4133533E-006  0.3718596E+03  0.7546771E-02  0.9743408E-01
        -11   -1    0    0    0    0  0.00000000000E+00  0.00000000000E+00  0.50000000000E+03  0.50000000000E+03  0.00000000000E+00 0.  1.
         11   -1    0    0    0    0 -0.00000000000E+00 -0.00000000000E+00 -0.50000000000E+03  0.50000000000E+03  0.00000000000E+00 0.  1.
         23    2    1    2    0    0  0.17274414177E+03  0.52471405206E+02  0.10412553703E+03  0.22763078119E+03  0.91541565420E+02 0.  0.
        -11    1    1    2    0    0 -0.43182993202E+02  0.43214389898E+02  0.31630092351E+03  0.32214675011E+03  0.00000000000E+00 0.  1.
         11    1    1    2    0    0 -0.12956114857E+03 -0.95685795104E+02 -0.42042646054E+03  0.45022246870E+03  0.00000000000E+00 0.  1.
        -15    1    3    3    0    0  0.11239805133E+03  0.38283277465E+02  0.15933514099E+02  0.11981638401E+03  0.17770000000E+01 0.  1.
         15    1    3    3    0    0  0.60346090444E+02  0.14188127741E+02  0.88192022935E+02  0.10781439718E+03  0.17770000000E+01 0. -1.
</event>
<event>
 7    1  0.4133533E-006  0.5360167E+03  0.7546771E-02  0.9322640E-01
        -11   -1    0    0    0    0  0.00000000000E+00  0.00000000000E+00  0.50000000000E+03  0.50000000000E+03  0.00000000000E+00 0.  1.
         11   -1    0    0    0    0 -0.00000000000E+00 -0.00000000000E+00 -0.50000000000E+03  0.50000000000E+03  0.00000000000E+00 0. -1.
         23    2    1    2    0    0 -0.47271555777E+02  0.41055811424E+02 -0.11106272440E+03  0.15705556157E+03  0.91713363440E+02 0.  0.
        -11    1    1    2    0    0 -0.49467747134E+02  0.94046692757E+02  0.45165101621E+03  0.46398327434E+03  0.00000000000E+00 0.  1.
         11    1    1    2    0    0  0.96739302910E+02 -0.13510250418E+03 -0.34058829181E+03  0.37896116408E+03  0.00000000000E+00 0. -1.
        -15    1    3    3    0    0 -0.40637319574E+02  0.23441742010E+02 -0.26666576504E+01  0.47023141140E+02  0.17770000000E+01 0.  1.
         15    1    3    3    0    0 -0.66342362026E+01  0.17614069414E+02 -0.10839606675E+03  0.11003242043E+03  0.17770000000E+01 0. -1.
</event>
<event>
 7    1  0.4133533E-006  0.3477096E+03  0.7546771E-02  0.9824921E-01
        -11   -1    0    0    0    0  0.00000000000E+00  0.00000000000E+00  0.50000000000E+03  0.50000000000E+03  0.00000000000E+00 0. -1.
         11   -1    0    0    0    0 -0.00000000000E+00 -0.00000000000E+00 -0.50000000000E+03  0.50000000000E+03  0.00000000000E+00 0.  1.
         23    2    1    2    0    0 -0.19933104590E+03 -0.66206412171E+02 -0.12850119254E+03  0.26227601855E+03  0.90332710288E+02 0.  0.
        -11    1    1    2    0    0 -0.16725109646E+02  0.19958474475E+03  0.34837553287E+03  0.40184488492E+03  0.00000000000E+00 0. -1.
         11    1    1    2    0    0  0.21605615555E+03 -0.13337833258E+03 -0.21987434033E+03  0.33587909654E+03  0.00000000000E+00 0.  1.
        -15    1    3    3    0    0 -0.13642283840E+03 -0.80508422911E+02 -0.11647404448E+03  0.19662695075E+03  0.17770000000E+01 0.  1.
         15    1    3    3    0    0 -0.62908207505E+02  0.14302010740E+02 -0.12027148057E+02  0.65649067793E+02  0.17770000000E+01 0. -1.
</event>
<event>
 7    1  0.4133533E-006  0.3518470E+03  0.7546771E-02  0.9810461E-01
        -11   -1    0    0    0    0  0.00000000000E+00  0.00000000000E+00  0.50000000000E+03  0.50000000000E+03  0.00000000000E+00 0.  1.
         11   -1    0    0    0    0 -0.00000000000E+00 -0.00000000000E+00 -0.50000000000E+03  0.50000000000E+03  0.00000000000E+00 0.  1.
         23    2    1    2    0    0 -0.10359152643E+03 -0.11242376194E+03 -0.30198201892E+03  0.35092623425E+03  0.92659460058E+02 0.  0.
        -11    1    1    2    0    0  0.26667626401E+03 -0.88516653610E+02  0.26757302056E+03  0.38800354262E+03  0.00000000000E+00 0.  1.
         11    1    1    2    0    0 -0.16308473758E+03  0.20094041555E+03  0.34408998359E+02  0.26107022312E+03  0.00000000000E+00 0.  1.
        -15    1    3    3    0    0 -0.32577547090E+02  0.12592076189E+02 -0.58327216386E+02  0.68007932313E+02  0.17770000000E+01 0. -1.
         15    1    3    3    0    0 -0.71013979343E+02 -0.12501583813E+03 -0.24365480253E+03  0.28291830194E+03  0.17770000000E+01 0.  1.
</event>
<event>
 7    1  0.4133533E-006  0.5170851E+03  0.7546771E-02  0.9362372E-01
        -11   -1    0    0    0    0  0.00000000000E+00  0.00000000000E+00  0.50000000000E+03  0.50000000000E+03  0.00000000000E+00 0.  1.
         11   -1    0    0    0    0 -0.00000000000E+00 -0.00000000000E+00 -0.50000000000E+03  0.50000000000E+03  0.00000000000E+00 0. -1.
         23    2    1    2    0    0 -0.29159519587E+02  0.29466065830E+01  0.14444586976E+03  0.17736691393E+03  0.98668398157E+02 0.  0.
        -11    1    1    2    0    0  0.18726133128E+01  0.74605613946E+02  0.33141955749E+03  0.33971815877E+03  0.00000000000E+00 0.  1.
         11    1    1    2    0    0  0.27286906275E+02 -0.77552220529E+02 -0.47586542724E+03  0.48291492730E+03  0.00000000000E+00 0. -1.
        -15    1    3    3    0    0 -0.40118421482E+02  0.43448111279E+02  0.67918230941E+02  0.90073691714E+02  0.17770000000E+01 0.  1.
         15    1    3    3    0    0  0.10958901895E+02 -0.40501504696E+02  0.76527638816E+02  0.87293222218E+02  0.17770000000E+01 0. -1.
</event>
<event>
 7    1  0.4133533E-006  0.5101377E+03  0.7546771E-02  0.9377407E-01
        -11   -1    0    0    0    0  0.00000000000E+00  0.00000000000E+00  0.50000000000E+03  0.50000000000E+03  0.00000000000E+00 0. -1.
         11   -1    0    0    0    0 -0.00000000000E+00 -0.00000000000E+00 -0.50000000000E+03  0.50000000000E+03  0.00000000000E+00 0. -1.
         23    2    1    2    0    0  0.84449699342E+01  0.26029320446E+02 -0.21331111890E+03  0.23377149704E+03  0.91644074232E+02 0.  0.
        -11    1    1    2    0    0  0.14238228185E+02 -0.88002188561E+02  0.48168238567E+03  0.48986225921E+03  0.00000000000E+00 0. -1.
         11    1    1    2    0    0 -0.22683198119E+02  0.61972868115E+02 -0.26837126676E+03  0.27636624375E+03  0.00000000000E+00 0. -1.
        -15    1    3    3    0    0  0.22857245689E+02  0.49557598949E+02 -0.75277715739E+02  0.92996244601E+02  0.17770000000E+01 0.  1.
         15    1    3    3    0    0 -0.14412275755E+02 -0.23528278504E+02 -0.13803340317E+03  0.14077525244E+03  0.17770000000E+01 0. -1.
</event>
<event>
 7    1  0.4133533E-006  0.5130260E+03  0.7546771E-02  0.9371126E-01
        -11   -1    0    0    0    0  0.00000000000E+00  0.00000000000E+00  0.50000000000E+03  0.50000000000E+03  0.00000000000E+00 0. -1.
         11   -1    0    0    0    0 -0.00000000000E+00 -0.00000000000E+00 -0.50000000000E+03  0.50000000000E+03  0.00000000000E+00 0.  1.
         23    2    1    2    0    0 -0.22467236068E+02  0.76735268719E+02 -0.31325110405E+03  0.33608467333E+03  0.91834499500E+02 0.  0.
        -11    1    1    2    0    0 -0.31475889939E+02 -0.16387395217E+03  0.45749127081E+03  0.48697398977E+03  0.00000000000E+00 0. -1.
         11    1    1    2    0    0  0.53943126007E+02  0.87138683451E+02 -0.14424016676E+03  0.17694133690E+03  0.00000000000E+00 0.  1.
        -15    1    3    3    0    0 -0.90109743163E+01  0.88959862524E+02 -0.30121001241E+03  0.31420643549E+03  0.17770000000E+01 0.  1.
         15    1    3    3    0    0 -0.13456261752E+02 -0.12224593805E+02 -0.12041091630E+02  0.21878237833E+02  0.17770000000E+01 0. -1.
</event>
<event>
 7    1  0.4133533E-006  0.5109555E+03  0.7546771E-02  0.9375624E-01
        -11   -1    0    0    0    0  0.00000000000E+00  0.00000000000E+00  0.50000000000E+03  0.50000000000E+03  0.00000000000E+00 0. -1.
         11   -1    0    0    0    0 -0.00000000000E+00 -0.00000000000E+00 -0.50000000000E+03  0.50000000000E+03  0.00000000000E+00 0. -1.
         23    2    1    2    0    0  0.10407463428E+03 -0.57712082544E+02  0.25141229896E+03  0.29290687168E+03  0.91782773110E+02 0.  0.
        -11    1    1    2    0    0  0.11634743554E+02 -0.68585561427E+02  0.20665399653E+03  0.21804866607E+03  0.00000000000E+00 0. -1.
         11    1    1    2    0    0 -0.11570937783E+03  0.12629764397E+03 -0.45806629549E+03  0.48904446225E+03  0.00000000000E+00 0. -1.
        -15    1    3    3    0    0  0.10332939340E+03 -0.37349643319E+02  0.13198851083E+03  0.17174424041E+03  0.17770000000E+01 0. -1.
         15    1    3    3    0    0  0.74524087921E+00 -0.20362439225E+02  0.11942378813E+03  0.12116263127E+03  0.17770000000E+01 0.  1.
</event>
<event>
 7    1  0.4133533E-006  0.5018940E+03  0.7546771E-02  0.9395582E-01
        -11   -1    0    0    0    0  0.00000000000E+00  0.00000000000E+00  0.50000000000E+03  0.50000000000E+03  0.00000000000E+00 0.  1.
         11   -1    0    0    0    0 -0.00000000000E+00 -0.00000000000E+00 -0.50000000000E+03  0.50000000000E+03  0.00000000000E+00 0. -1.
         23    2    1    2    0    0 -0.56198895777E+02  0.23783503685E+03 -0.42491991514E+03  0.49810602897E+03  0.88480852023E+02 0.  0.
        -11    1    1    2    0    0  0.38874553654E+02 -0.12023763483E+03  0.31733613568E+03  0.34157069951E+03  0.00000000000E+00 0.  1.
         11    1    1    2    0    0  0.17324342122E+02 -0.11759740202E+03  0.10758377946E+03  0.16032327153E+03  0.00000000000E+00 0. -1.
        -15    1    3    3    0    0  0.17681149209E+02  0.10363917271E+03 -0.14665717824E+03  0.18045826891E+03  0.17770000000E+01 0. -1.
         15    1    3    3    0    0 -0.73880044986E+02  0.13419586413E+03 -0.27826273690E+03  0.31764776006E+03  0.17770000000E+01 0.  1.
</event>
<event>
 7    1  0.4133533E-006  0.5193158E+03  0.7546771E-02  0.9357597E-01
        -11   -1    0    0    0    0  0.00000000000E+00  0.00000000000E+00  0.50000000000E+03  0.50000000000E+03  0.00000000000E+00 0. -1.
         11   -1    0    0    0    0 -0.00000000000E+00 -0.00000000000E+00 -0.50000000000E+03  0.50000000000E+03  0.00000000000E+00 0. -1.
         23    2    1    2    0    0  0.78482933966E+02 -0.28233960736E+02 -0.21711678887E+03  0.25019624396E+03  0.92204842705E+02 0.  0.
        -11    1    1    2    0    0 -0.16039796264E+02  0.80408088570E+02  0.47363974395E+03  0.48068424441E+03  0.00000000000E+00 0. -1.
         11    1    1    2    0    0 -0.62443137702E+02 -0.52174127834E+02 -0.25652295508E+03  0.26911951164E+03  0.00000000000E+00 0. -1.
        -15    1    3    3    0    0  0.99208556420E+02 -0.17022755952E+02 -0.17374832480E+03  0.20080774385E+03  0.17770000000E+01 0. -1.
         15    1    3    3    0    0 -0.20725622454E+02 -0.11211204784E+02 -0.43368464065E+02  0.49388500110E+02  0.17770000000E+01 0.  1.
</event>
<event>
 7    1  0.6092383E-006  0.5284445E+03  0.7546771E-02  0.9338320E-01
        -11   -1    0    0    0    0  0.00000000000E+00  0.00000000000E+00  0.50000000000E+03  0.50000000000E+03  0.00000000000E+00 0. -1.
         11   -1    0    0    0    0 -0.00000000000E+00 -0.00000000000E+00 -0.50000000000E+03  0.50000000000E+03  0.00000000000E+00 0. -1.
         23    2    1    2    0    0 -0.59452153585E+02  0.15264114301E+03  0.25684873646E+03  0.33009813738E+03  0.12712053246E+03 0.  0.
        -11    1    1    2    0    0 -0.24129694065E+02 -0.38691490840E+02  0.19303365953E+03  0.19834633173E+03  0.00000000000E+00 0. -1.
         11    1    1    2    0    0  0.83581847650E+02 -0.11394965217E+03 -0.44988239600E+03  0.47155553089E+03  0.00000000000E+00 0. -1.
        -15    1    3    3    0    0 -0.44037441061E+02  0.41015096347E+02  0.18944188314E+03  0.19877856816E+03  0.17770000000E+01 0. -1.
         15    1    3    3    0    0 -0.15414712524E+02  0.11162604666E+03  0.67406853320E+02  0.13131956921E+03  0.17770000000E+01 0.  1.
</event>
<event>
 7    1  0.4133533E-006  0.5087183E+03  0.7546771E-02  0.9380510E-01
        -11   -1    0    0    0    0  0.00000000000E+00  0.00000000000E+00  0.50000000000E+03  0.50000000000E+03  0.00000000000E+00 0.  1.
         11   -1    0    0    0    0 -0.00000000000E+00 -0.00000000000E+00 -0.50000000000E+03  0.50000000000E+03  0.00000000000E+00 0.  1.
         23    2    1    2    0    0  0.38569907664E+02  0.28776091556E+02 -0.35067441399E+03  0.36549627087E+03  0.91100374155E+02 0.  0.
        -11    1    1    2    0    0 -0.26108208409E+02 -0.79171501600E+02  0.48415689242E+03  0.49128165210E+03  0.00000000000E+00 0.  1.
         11    1    1    2    0    0 -0.12461699255E+02  0.50395410044E+02 -0.13348247843E+03  0.14322207703E+03  0.00000000000E+00 0.  1.
        -15    1    3    3    0    0  0.67396726291E+02  0.23428955793E+02 -0.28015948936E+03  0.28910851231E+03  0.17770000000E+01 0.  1.
         15    1    3    3    0    0 -0.28826818627E+02  0.53471357633E+01 -0.70514924631E+02  0.76387758560E+02  0.17770000000E+01 0. -1.
</event>
<event>
 7    1  0.4133533E-006  0.4088419E+03  0.7546771E-02  0.9630631E-01
        -11   -1    0    0    0    0  0.00000000000E+00  0.00000000000E+00  0.50000000000E+03  0.50000000000E+03  0.00000000000E+00 0.  1.
         11   -1    0    0    0    0 -0.00000000000E+00 -0.00000000000E+00 -0.50000000000E+03  0.50000000000E+03  0.00000000000E+00 0.  1.
         23    2    1    2    0    0 -0.63708473145E+01  0.54287349563E+02  0.13249267596E+03  0.16985014700E+03  0.91143070137E+02 0.  0.
        -11    1    1    2    0    0 -0.17178281093E+03 -0.28155792218E+03  0.20315788020E+03  0.38737232988E+03  0.00000000000E+00 0.  1.
         11    1    1    2    0    0  0.17815365824E+03  0.22727057262E+03 -0.33565055617E+03  0.44277752312E+03  0.00000000000E+00 0.  1.
        -15    1    3    3    0    0  0.13990553742E+02  0.72237181192E+02  0.69474374856E+02  0.10121162202E+03  0.17770000000E+01 0.  1.
         15    1    3    3    0    0 -0.20361401056E+02 -0.17949831629E+02  0.63018301109E+02  0.68638524985E+02  0.17770000000E+01 0. -1.
</event>
<event>
 7    1  0.4133533E-006  0.5218316E+03  0.7546771E-02  0.9352243E-01
        -11   -1    0    0    0    0  0.00000000000E+00  0.00000000000E+00  0.50000000000E+03  0.50000000000E+03  0.00000000000E+00 0.  1.
         11   -1    0    0    0    0 -0.00000000000E+00 -0.00000000000E+00 -0.50000000000E+03  0.50000000000E+03  0.00000000000E+00 0. -1.
         23    2    1    2    0    0 -0.47978792177E+02  0.32742538642E+02 -0.17726140624E+03  0.21028312977E+03  0.97073941864E+02 0.  0.
        -11    1    1    2    0    0 -0.51988119078E+02 -0.85172296500E+02  0.46764080400E+03  0.47816838685E+03  0.00000000000E+00 0.  1.
         11    1    1    2    0    0  0.99966911256E+02  0.52429757858E+02 -0.29037939776E+03  0.31154848338E+03  0.00000000000E+00 0. -1.
        -15    1    3    3    0    0 -0.32413258008E+02 -0.12158355287E+02 -0.95440777922E+01  0.35954026866E+02  0.17770000000E+01 0.  1.
         15    1    3    3    0    0 -0.15565534170E+02  0.44900893929E+02 -0.16771732845E+03  0.17432910290E+03  0.17770000000E+01 0. -1.
</event>
<event>
 7    1  0.4133533E-006  0.3372389E+03  0.7546771E-02  0.9862501E-01
        -11   -1    0    0    0    0  0.00000000000E+00  0.00000000000E+00  0.50000000000E+03  0.50000000000E+03  0.00000000000E+00 0. -1.
         11   -1    0    0    0    0 -0.00000000000E+00 -0.00000000000E+00 -0.50000000000E+03  0.50000000000E+03  0.00000000000E+00 0.  1.
         23    2    1    2    0    0  0.96920686174E+02  0.21736554659E+03 -0.10775982494E+03  0.27669242391E+03  0.91132416445E+02 0.  0.
        -11    1    1    2    0    0  0.43109358047E+02  0.58947039293E+02  0.33261156656E+03  0.34053432191E+03  0.00000000000E+00 0. -1.
         11    1    1    2    0    0 -0.14003004422E+03 -0.27631258588E+03 -0.22485174162E+03  0.38277325417E+03  0.00000000000E+00 0.  1.
        -15    1    3    3    0    0  0.11426223976E+03  0.19445645787E+03 -0.89838203572E+02  0.24278227693E+03  0.17770000000E+01 0. -1.
         15    1    3    3    0    0 -0.17341553586E+02  0.22909088718E+02 -0.17921621371E+02  0.33910146981E+02  0.17770000000E+01 0.  1.
</event>
<event>
 7    1  0.4133533E-006  0.5092486E+03  0.7546771E-02  0.9379350E-01
        -11   -1    0    0    0    0  0.00000000000E+00  0.00000000000E+00  0.50000000000E+03  0.50000000000E+03  0.00000000000E+00 0. -1.
         11   -1    0    0    0    0 -0.00000000000E+00 -0.00000000000E+00 -0.50000000000E+03  0.50000000000E+03  0.00000000000E+00 0. -1.
         23    2    1    2    0    0 -0.78289712236E+02  0.38642902373E+02 -0.36916046530E+03  0.39024653511E+03  0.91598886867E+02 0.  0.
        -11    1    1    2    0    0  0.11012121606E+03 -0.32447048813E+01  0.47822562500E+03  0.49075142256E+03  0.00000000000E+00 0. -1.
         11    1    1    2    0    0 -0.31831503826E+02 -0.35398197491E+02 -0.10906515969E+03  0.11900204234E+03  0.00000000000E+00 0. -1.
        -15    1    3    3    0    0  0.12833478756E+02 -0.15535463606E+02 -0.69341037640E+02  0.72231475386E+02  0.17770000000E+01 0.  1.
         15    1    3    3    0    0 -0.91123190992E+02  0.54178365979E+02 -0.29981942766E+03  0.31801505972E+03  0.17770000000E+01 0. -1.
</event>
<event>
 7    1  0.4133533E-006  0.3538035E+03  0.7546771E-02  0.9803698E-01
        -11   -1    0    0    0    0  0.00000000000E+00  0.00000000000E+00  0.50000000000E+03  0.50000000000E+03  0.00000000000E+00 0.  1.
         11   -1    0    0    0    0 -0.00000000000E+00 -0.00000000000E+00 -0.50000000000E+03  0.50000000000E+03  0.00000000000E+00 0. -1.
         23    2    1    2    0    0  0.86253947509E+02  0.32596273547E+02 -0.30078135870E+03  0.32673303404E+03  0.88220118342E+02 0.  0.
        -11    1    1    2    0    0  0.12941224900E+03  0.78346767312E+02  0.38727718485E+03  0.41577561742E+03  0.00000000000E+00 0.  1.
         11    1    1    2    0    0 -0.21566619650E+03 -0.11094304086E+03 -0.86495826146E+02  0.25749134854E+03  0.00000000000E+00 0. -1.
        -15    1    3    3    0    0  0.76566161693E+02 -0.85544859304E+01 -0.24425911145E+03  0.25612736597E+03  0.17770000000E+01 0. -1.
         15    1    3    3    0    0  0.96877858157E+01  0.41150759477E+02 -0.56522247258E+02  0.70605668070E+02  0.17770000000E+01 0.  1.
</event>
<event>
 7    1  0.4133533E-006  0.5142894E+03  0.7546771E-02  0.9368392E-01
        -11   -1    0    0    0    0  0.00000000000E+00  0.00000000000E+00  0.50000000000E+03  0.50000000000E+03  0.00000000000E+00 0.  1.
         11   -1    0    0    0    0 -0.00000000000E+00 -0.00000000000E+00 -0.50000000000E+03  0.50000000000E+03  0.00000000000E+00 0. -1.
         23    2    1    2    0    0  0.23745582268E+02 -0.41208682455E+02 -0.21481330370E+03  0.23771453796E+03  0.90007988101E+02 0.  0.
        -11    1    1    2    0    0 -0.92172956606E+02 -0.15977424970E+02  0.47661686869E+03  0.48571058415E+03  0.00000000000E+00 0.  1.
         11    1    1    2    0    0  0.68427374338E+02  0.57186107425E+02 -0.26180356499E+03  0.27657487789E+03  0.00000000000E+00 0. -1.
        -15    1    3    3    0    0  0.17150615618E+02  0.23023664610E+02 -0.28379933262E+02  0.40408057229E+02  0.17770000000E+01 0. -1.
         15    1    3    3    0    0  0.65949666507E+01 -0.64232347064E+02 -0.18643337044E+03  0.19730648073E+03  0.17770000000E+01 0.  1.
</event>
<event>
 7    1  0.4133533E-006  0.5175849E+03  0.7546771E-02  0.9361300E-01
        -11   -1    0    0    0    0  0.00000000000E+00  0.00000000000E+00  0.50000000000E+03  0.50000000000E+03  0.00000000000E+00 0. -1.
         11   -1    0    0    0    0 -0.00000000000E+00 -0.00000000000E+00 -0.50000000000E+03  0.50000000000E+03  0.00000000000E+00 0.  1.
         23    2    1    2    0    0  0.23396205914E+02  0.46849727686E+01 -0.37324322778E+03  0.39190624098E+03  0.11709254126E+03 0.  0.
        -11    1    1    2    0    0 -0.99681543204E+02  0.11046759183E+02  0.47187483178E+03  0.48241506797E+03  0.00000000000E+00 0. -1.
         11    1    1    2    0    0  0.76285337289E+02 -0.15731731952E+02 -0.98631603999E+02  0.12567869105E+03  0.00000000000E+00 0.  1.
        -15    1    3    3    0    0 -0.25448945471E+02 -0.24204436870E+02 -0.37551105006E+02  0.51446543188E+02  0.17770000000E+01 0.  1.
         15    1    3    3    0    0  0.48845151386E+02  0.28889409639E+02 -0.33569212277E+03  0.34045969779E+03  0.17770000000E+01 0.  1.
</event>
<event>
 7    1  0.4133533E-006  0.5175015E+03  0.7546771E-02  0.9361478E-01
        -11   -1    0    0    0    0  0.00000000000E+00  0.00000000000E+00  0.50000000000E+03  0.50000000000E+03  0.00000000000E+00 0. -1.
         11   -1    0    0    0    0 -0.00000000000E+00 -0.00000000000E+00 -0.50000000000E+03  0.50000000000E+03  0.00000000000E+00 0. -1.
         23    2    1    2    0    0  0.33642208148E+02  0.74600435702E+01 -0.38318502342E+03  0.39542887291E+03  0.91355245812E+02 0.  0.
        -11    1    1    2    0    0 -0.62241048007E+02 -0.88056529304E+02  0.47029443818E+03  0.48249845491E+03  0.00000000000E+00 0. -1.
         11    1    1    2    0    0  0.28598839859E+02  0.80596485733E+02 -0.87109414756E+02  0.12207267218E+03  0.00000000000E+00 0. -1.
        -15    1    3    3    0    0 -0.30721353161E+02 -0.70706330419E+01 -0.11777859660E+03  0.12193748783E+03  0.17770000000E+01 0.  1.
         15    1    3    3    0    0  0.64363561309E+02  0.14530676612E+02 -0.26540642682E+03  0.27349138508E+03  0.17770000000E+01 0. -1.
</event>
<event>
 7    1  0.4133533E-006  0.3467366E+03  0.7546771E-02  0.9828353E-01
        -11   -1    0    0    0    0  0.00000000000E+00  0.00000000000E+00  0.50000000000E+03  0.50000000000E+03  0.00000000000E+00 0. -1.
         11   -1    0    0    0    0 -0.00000000000E+00 -0.00000000000E+00 -0.50000000000E+03  0.50000000000E+03  0.00000000000E+00 0.  1.
         23    2    1    2    0    0  0.19165569159E+03 -0.72233646848E+02  0.16780278676E+03  0.28058659449E+03  0.92851806166E+02 0.  0.
        -11    1    1    2    0    0  0.62682362041E+01  0.13257503187E+03  0.23311401150E+03  0.26824908615E+03  0.00000000000E+00 0. -1.
         11    1    1    2    0    0 -0.19792392779E+03 -0.60341385025E+02 -0.40091679826E+03  0.45116431936E+03  0.00000000000E+00 0.  1.
        -15    1    3    3    0    0  0.15953300675E+03 -0.40057139881E+02  0.16794807926E+03  0.23508523934E+03  0.17770000000E+01 0. -1.
         15    1    3    3    0    0  0.32122684837E+02 -0.32176506967E+02 -0.14529250156E+00  0.45501355152E+02  0.17770000000E+01 0.  1.
</event>
<event>
 7    1  0.4133533E-006  0.5304680E+03  0.7546771E-02  0.9334103E-01
        -11   -1    0    0    0    0  0.00000000000E+00  0.00000000000E+00  0.50000000000E+03  0.50000000000E+03  0.00000000000E+00 0.  1.
         11   -1    0    0    0    0 -0.00000000000E+00 -0.00000000000E+00 -0.50000000000E+03  0.50000000000E+03  0.00000000000E+00 0. -1.
         23    2    1    2    0    0  0.74923295251E+02 -0.14400884430E+02 -0.36314538520E+03  0.38047113377E+03  0.84040628279E+02 0.  0.
        -11    1    1    2    0    0 -0.17617622358E+03 -0.74710092269E+02  0.42876646165E+03  0.46953204180E+03  0.00000000000E+00 0.  1.
         11    1    1    2    0    0  0.10125292833E+03  0.89110976699E+02 -0.65621076452E+02  0.14999682443E+03  0.00000000000E+00 0. -1.
        -15    1    3    3    0    0  0.63114714326E+02 -0.14768931075E+01 -0.35586874122E+03  0.36142961567E+03  0.17770000000E+01 0. -1.
         15    1    3    3    0    0  0.11808580925E+02 -0.12923991322E+02 -0.72766439805E+01  0.19041518106E+02  0.17770000000E+01 0.  1.
</event>
<event>
 7    1  0.4133533E-006  0.4189137E+03  0.7546771E-02  0.9602111E-01
        -11   -1    0    0    0    0  0.00000000000E+00  0.00000000000E+00  0.50000000000E+03  0.50000000000E+03  0.00000000000E+00 0. -1.
         11   -1    0    0    0    0 -0.00000000000E+00 -0.00000000000E+00 -0.50000000000E+03  0.50000000000E+03  0.00000000000E+00 0. -1.
         23    2    1    2    0    0  0.91105602756E+02 -0.18490839050E+02 -0.39197015310E+02  0.15612017695E+03  0.11914261059E+03 0.  0.
        -11    1    1    2    0    0 -0.29265741269E+02  0.16977682318E+03  0.40669369905E+03  0.44167908956E+03  0.00000000000E+00 0. -1.
         11    1    1    2    0    0 -0.61839861487E+02 -0.15128598413E+03 -0.36749668375E+03  0.40220073350E+03  0.00000000000E+00 0. -1.
        -15    1    3    3    0    0  0.28263625535E+02  0.29277712201E+02  0.30433573706E+02  0.50846603599E+02  0.17770000000E+01 0.  1.
         15    1    3    3    0    0  0.62841977222E+02 -0.47768551250E+02 -0.69630589015E+02  0.10527357335E+03  0.17770000000E+01 0. -1.
</event>
<event>
 7    1  0.4133533E-006  0.5233629E+03  0.7546771E-02  0.9348999E-01
        -11   -1    0    0    0    0  0.00000000000E+00  0.00000000000E+00  0.50000000000E+03  0.50000000000E+03  0.00000000000E+00 0.  1.
         11   -1    0    0    0    0 -0.00000000000E+00 -0.00000000000E+00 -0.50000000000E+03  0.50000000000E+03  0.00000000000E+00 0. -1.
         23    2    1    2    0    0 -0.30558112337E+02  0.25990009500E+01 -0.31917750000E+03  0.33350194790E+03  0.91699071495E+02 0.  0.
        -11    1    1    2    0    0 -0.77256322103E+02 -0.51965959422E+02  0.46745472317E+03  0.47663709304E+03  0.00000000000E+00 0.  1.
         11    1    1    2    0    0  0.10781443444E+03  0.49366958472E+02 -0.14827722318E+03  0.18986095906E+03  0.00000000000E+00 0. -1.
        -15    1    3    3    0    0 -0.57488541901E+02  0.23627100901E+02 -0.19308205038E+03  0.20284725350E+03  0.17770000000E+01 0.  1.
         15    1    3    3    0    0  0.26930429564E+02 -0.21028099951E+02 -0.12609544962E+03  0.13065469440E+03  0.17770000000E+01 0. -1.
</event>
<event>
 7    1  0.4133533E-006  0.5276737E+03  0.7546771E-02  0.9339932E-01
        -11   -1    0    0    0    0  0.00000000000E+00  0.00000000000E+00  0.50000000000E+03  0.50000000000E+03  0.00000000000E+00 0. -1.
         11   -1    0    0    0    0 -0.00000000000E+00 -0.00000000000E+00 -0.50000000000E+03  0.50000000000E+03  0.00000000000E+00 0.  1.
         23    2    1    2    0    0 -0.89804280245E+01 -0.74404222115E+02 -0.38840325606E+03  0.40477920216E+03  0.85863128469E+02 0.  0.
        -11    1    1    2    0    0 -0.95419898353E+01  0.18719848719E+03  0.43354105872E+03  0.47232634139E+03  0.00000000000E+00 0. -1.
         11    1    1    2    0    0  0.18522417860E+02 -0.11279426508E+03 -0.45137802657E+02  0.12289445645E+03  0.00000000000E+00 0.  1.
        -15    1    3    3    0    0  0.32681470475E+02 -0.58385152296E+01 -0.13122016464E+03  0.13536637733E+03  0.17770000000E+01 0.  1.
         15    1    3    3    0    0 -0.41661898499E+02 -0.68565706885E+02 -0.25718309142E+03  0.26941282484E+03  0.17770000000E+01 0. -1.
</event>
<event>
 7    1  0.4133533E-006  0.4717508E+03  0.7546771E-02  0.9465337E-01
        -11   -1    0    0    0    0  0.00000000000E+00  0.00000000000E+00  0.50000000000E+03  0.50000000000E+03  0.00000000000E+00 0. -1.
         11   -1    0    0    0    0 -0.00000000000E+00 -0.00000000000E+00 -0.50000000000E+03  0.50000000000E+03  0.00000000000E+00 0.  1.
         23    2    1    2    0    0 -0.54226075919E+01  0.12904089970E+03  0.41720470533E+03  0.44652966146E+03  0.92994698485E+02 0.  0.
        -11    1    1    2    0    0 -0.11619052131E+02 -0.18481071902E+02  0.59728933365E+02  0.63593221903E+02  0.00000000000E+00 0. -1.
         11    1    1    2    0    0  0.17041659722E+02 -0.11055982780E+03 -0.47693363869E+03  0.48987711664E+03  0.00000000000E+00 0.  1.
        -15    1    3    3    0    0 -0.29356003612E+02  0.13125372354E+03  0.33957003810E+03  0.36524003531E+03  0.17770000000E+01 0. -1.
         15    1    3    3    0    0  0.23933396020E+02 -0.22128238395E+01  0.77634667227E+02  0.81289626145E+02  0.17770000000E+01 0.  1.
</event>
<event>
 7    1  0.4133533E-006  0.5304788E+03  0.7546771E-02  0.9334080E-01
        -11   -1    0    0    0    0  0.00000000000E+00  0.00000000000E+00  0.50000000000E+03  0.50000000000E+03  0.00000000000E+00 0.  1.
         11   -1    0    0    0    0 -0.00000000000E+00 -0.00000000000E+00 -0.50000000000E+03  0.50000000000E+03  0.00000000000E+00 0. -1.
         23    2    1    2    0    0  0.31704472050E+02  0.55788384823E+02 -0.21941525740E+03  0.24417693864E+03  0.85800960107E+02 0.  0.
        -11    1    1    2    0    0  0.54326489220E+02  0.71902480820E+02  0.46079149232E+03  0.46952117479E+03  0.00000000000E+00 0.  1.
         11    1    1    2    0    0 -0.86030961270E+02 -0.12769086564E+03 -0.24137623493E+03  0.28630188657E+03  0.00000000000E+00 0. -1.
        -15    1    3    3    0    0  0.55083795759E+02  0.13070445120E+02 -0.95629541025E+02  0.11114507608E+03  0.17770000000E+01 0.  1.
         15    1    3    3    0    0 -0.23379323709E+02  0.42717939703E+02 -0.12378571637E+03  0.13303186256E+03  0.17770000000E+01 0. -1.
</event>
<event>
 7    1  0.4133533E-006  0.5310731E+03  0.7546771E-02  0.9332845E-01
        -11   -1    0    0    0    0  0.00000000000E+00  0.00000000000E+00  0.50000000000E+03  0.50000000000E+03  0.00000000000E+00 0.  1.
         11   -1    0    0    0    0 -0.00000000000E+00 -0.00000000000E+00 -0.50000000000E+03  0.50000000000E+03  0.00000000000E+00 0. -1.
         23    2    1    2    0    0  0.51952979109E+02  0.61514193334E+02 -0.84926974878E+02  0.14743172791E+03  0.89668362944E+02 0.  0.
        -11    1    1    2    0    0  0.60941870586E+02 -0.14301373791E+03  0.44240884550E+03  0.46892688918E+03  0.00000000000E+00 0.  1.
         11    1    1    2    0    0 -0.11289484969E+03  0.81499544578E+02 -0.35748187062E+03  0.38364138291E+03  0.00000000000E+00 0. -1.
        -15    1    3    3    0    0  0.24878230918E+02  0.51084816821E+02  0.85874366465E+00  0.56854903508E+02  0.17770000000E+01 0. -1.
         15    1    3    3    0    0  0.27074748190E+02  0.10429376513E+02 -0.85785718543E+02  0.90576824403E+02  0.17770000000E+01 0.  1.
</event>
<event>
 7    1  0.4133533E-006  0.5237852E+03  0.7546771E-02  0.9348107E-01
        -11   -1    0    0    0    0  0.00000000000E+00  0.00000000000E+00  0.50000000000E+03  0.50000000000E+03  0.00000000000E+00 0.  1.
         11   -1    0    0    0    0 -0.00000000000E+00 -0.00000000000E+00 -0.50000000000E+03  0.50000000000E+03  0.00000000000E+00 0. -1.
         23    2    1    2    0    0 -0.35033128802E+02 -0.68164110766E+01 -0.74272308406E+02  0.12320442615E+03  0.91592419189E+02 0.  0.
        -11    1    1    2    0    0  0.63657468931E+02  0.14629154798E+03  0.44869487041E+03  0.47621484342E+03  0.00000000000E+00 0.  1.
         11    1    1    2    0    0 -0.28624340129E+02 -0.13947513690E+03 -0.37442256200E+03  0.40058073044E+03  0.00000000000E+00 0. -1.
        -15    1    3    3    0    0  0.20407550999E+02  0.22399743053E+02 -0.68094545606E+01  0.31108568386E+02  0.17770000000E+01 0. -1.
         15    1    3    3    0    0 -0.55440679801E+02 -0.29216154130E+02 -0.67462853845E+02  0.92095857762E+02  0.17770000000E+01 0.  1.
</event>
<event>
 7    1  0.4133533E-006  0.5272962E+03  0.7546771E-02  0.9340722E-01
        -11   -1    0    0    0    0  0.00000000000E+00  0.00000000000E+00  0.50000000000E+03  0.50000000000E+03  0.00000000000E+00 0.  1.
         11   -1    0    0    0    0 -0.00000000000E+00 -0.00000000000E+00 -0.50000000000E+03  0.50000000000E+03  0.00000000000E+00 0.  1.
         23    2    1    2    0    0 -0.13470995318E+03  0.11578246382E+03  0.32455185068E+03  0.38116709311E+03  0.91662962403E+02 0.  0.
        -11    1    1    2    0    0  0.69869233320E+02  0.32455253630E+01  0.12830229730E+03  0.14612913019E+03  0.00000000000E+00 0.  1.
         11    1    1    2    0    0  0.64840719861E+02 -0.11902798919E+03 -0.45285414798E+03  0.47270377669E+03  0.00000000000E+00 0.  1.
        -15    1    3    3    0    0 -0.88008198111E+02  0.29553309937E+02  0.10184851306E+03  0.13782277898E+03  0.17770000000E+01 0.  1.
         15    1    3    3    0    0 -0.46701755070E+02  0.86229153887E+02  0.22270333762E+03  0.24334431414E+03  0.17770000000E+01 0. -1.
</event>
<event>
 7    1  0.4133533E-006  0.5112940E+03  0.7546771E-02  0.9374887E-01
        -11   -1    0    0    0    0  0.00000000000E+00  0.00000000000E+00  0.50000000000E+03  0.50000000000E+03  0.00000000000E+00 0. -1.
         11   -1    0    0    0    0 -0.00000000000E+00 -0.00000000000E+00 -0.50000000000E+03  0.50000000000E+03  0.00000000000E+00 0.  1.
         23    2    1    2    0    0  0.80110358380E+02  0.42629812884E+02  0.25135352045E+03  0.28275918877E+03  0.92407770936E+02 0.  0.
        -11    1    1    2    0    0  0.23685801401E+02  0.98387585182E+02  0.20490736745E+03  0.22853481866E+03  0.00000000000E+00 0. -1.
         11    1    1    2    0    0 -0.10379615978E+03 -0.14101739807E+03 -0.45626088790E+03  0.48870599256E+03  0.00000000000E+00 0.  1.
        -15    1    3    3    0    0  0.25069985293E+02  0.55943950430E+02  0.71535177618E+02  0.94226690051E+02  0.17770000000E+01 0.  1.
         15    1    3    3    0    0  0.55040373087E+02 -0.13314137546E+02  0.17981834283E+03  0.18853249872E+03  0.17770000000E+01 0. -1.
</event>
<event>
 7    1  0.4133533E-006  0.5147680E+03  0.7546771E-02  0.9367358E-01
        -11   -1    0    0    0    0  0.00000000000E+00  0.00000000000E+00  0.50000000000E+03  0.50000000000E+03  0.00000000000E+00 0.  1.
         11   -1    0    0    0    0 -0.00000000000E+00 -0.00000000000E+00 -0.50000000000E+03  0.50000000000E+03  0.00000000000E+00 0. -1.
         23    2    1    2    0    0  0.10021920019E+03  0.16205559636E+03  0.33937435190E+03  0.40002351081E+03  0.92401050216E+02 0.  0.
        -11    1    1    2    0    0 -0.34527340882E+02  0.12036010824E+02  0.10876261293E+03  0.11474453711E+03  0.00000000000E+00 0.  1.
         11    1    1    2    0    0 -0.65691859304E+02 -0.17409160718E+03 -0.44813696483E+03  0.48523195208E+03  0.00000000000E+00 0. -1.
        -15    1    3    3    0    0  0.11704810971E+03  0.14077621201E+03  0.30974860212E+03  0.35981322391E+03  0.17770000000E+01 0.  1.
         15    1    3    3    0    0 -0.16828909528E+02  0.21279384346E+02  0.29625749783E+02  0.40210286909E+02  0.17770000000E+01 0. -1.
</event>
<event>
 7    1  0.4133533E-006  0.4154609E+03  0.7546771E-02  0.9611790E-01
        -11   -1    0    0    0    0  0.00000000000E+00  0.00000000000E+00  0.50000000000E+03  0.50000000000E+03  0.00000000000E+00 0. -1.
         11   -1    0    0    0    0 -0.00000000000E+00 -0.00000000000E+00 -0.50000000000E+03  0.50000000000E+03  0.00000000000E+00 0.  1.
         23    2    1    2    0    0  0.83989709402E+02  0.67760063057E+01 -0.97379409628E+02  0.15915873648E+03  0.93533782298E+02 0.  0.
        -11    1    1    2    0    0  0.56100239771E+02  0.85812293519E+02  0.44400226866E+03  0.45568519967E+03  0.00000000000E+00 0. -1.
         11    1    1    2    0    0 -0.14008994917E+03 -0.92588299825E+02 -0.34662285903E+03  0.38515606386E+03  0.00000000000E+00 0.  1.
        -15    1    3    3    0    0  0.47608585776E+02  0.88623375076E+01 -0.11028291096E+03  0.12045993792E+03  0.17770000000E+01 0.  1.
         15    1    3    3    0    0  0.36381123627E+02 -0.20863312019E+01  0.12903501329E+02  0.38698798557E+02  0.17770000000E+01 0. -1.
</event>
<event>
 7    1  0.4133533E-006  0.4586102E+03  0.7546771E-02  0.9497505E-01
        -11   -1    0    0    0    0  0.00000000000E+00  0.00000000000E+00  0.50000000000E+03  0.50000000000E+03  0.00000000000E+00 0. -1.
         11   -1    0    0    0    0 -0.00000000000E+00 -0.00000000000E+00 -0.50000000000E+03  0.50000000000E+03  0.00000000000E+00 0.  1.
         23    2    1    2    0    0  0.10877250809E+02 -0.21431470933E+02 -0.44299854087E+03  0.45134271236E+03  0.82975383440E+02 0.  0.
        -11    1    1    2    0    0 -0.73360579654E+02 -0.36815157848E+02  0.45504684799E+03  0.46239027278E+03  0.00000000000E+00 0. -1.
         11    1    1    2    0    0  0.62483328845E+02  0.58246628780E+02 -0.12048307125E+02  0.86267014857E+02  0.00000000000E+00 0.  1.
        -15    1    3    3    0    0  0.31417953463E+02 -0.44840702669E+02 -0.30284426213E+03  0.30775896616E+03  0.17770000000E+01 0.  1.
         15    1    3    3    0    0 -0.20540702654E+02  0.23409231736E+02 -0.14015427874E+03  0.14358374620E+03  0.17770000000E+01 0. -1.
</event>
<event>
 7    1  0.4133533E-006  0.5001360E+03  0.7546771E-02  0.9399505E-01
        -11   -1    0    0    0    0  0.00000000000E+00  0.00000000000E+00  0.50000000000E+03  0.50000000000E+03  0.00000000000E+00 0.  1.
         11   -1    0    0    0    0 -0.00000000000E+00 -0.00000000000E+00 -0.50000000000E+03  0.50000000000E+03  0.00000000000E+00 0. -1.
         23    2    1    2    0    0  0.22332486751E+03 -0.29009454267E+02 -0.43708137061E+03  0.49986395291E+03  0.90046110429E+02 0.  0.
        -11    1    1    2    0    0  0.29618975406E+01 -0.11099495943E+02  0.37056526909E+02  0.38796363667E+02  0.00000000000E+00 0. -1.
         11    1    1    2    0    0 -0.22628676505E+03  0.40108950210E+02  0.40002484370E+03  0.46133968342E+03  0.00000000000E+00 0.  1.
        -15    1    3    3    0    0  0.10497630079E+03  0.12172253016E+02 -0.12583215620E+03  0.16433221454E+03  0.17770000000E+01 0.  1.
         15    1    3    3    0    0  0.11834856671E+03 -0.41181707283E+02 -0.31124921441E+03  0.33553173837E+03  0.17770000000E+01 0. -1.
</event>
<event>
 7    1  0.4133533E-006  0.5243748E+03  0.7546771E-02  0.9346862E-01
        -11   -1    0    0    0    0  0.00000000000E+00  0.00000000000E+00  0.50000000000E+03  0.50000000000E+03  0.00000000000E+00 0.  1.
         11   -1    0    0    0    0 -0.00000000000E+00 -0.00000000000E+00 -0.50000000000E+03  0.50000000000E+03  0.00000000000E+00 0. -1.
         23    2    1    2    0    0  0.31768640541E+02 -0.21801248173E+02  0.78751121726E+02  0.12616579407E+03  0.90727765740E+02 0.  0.
        -11    1    1    2    0    0 -0.65036125479E+02 -0.12669730218E+03  0.37187158560E+03  0.39820896546E+03  0.00000000000E+00 0.  1.
         11    1    1    2    0    0  0.33267484938E+02  0.14849855035E+03 -0.45062270733E+03  0.47562524047E+03  0.00000000000E+00 0. -1.
        -15    1    3    3    0    0  0.60088486127E+02  0.11746789810E+00  0.34860473275E+02  0.69491368455E+02  0.17770000000E+01 0.  1.
         15    1    3    3    0    0 -0.28319845586E+02 -0.21918716071E+02  0.43890648451E+02  0.56674425614E+02  0.17770000000E+01 0. -1.
</event>
<event>
 7    1  0.4133533E-006  0.4588587E+03  0.7546771E-02  0.9496886E-01
        -11   -1    0    0    0    0  0.00000000000E+00  0.00000000000E+00  0.50000000000E+03  0.50000000000E+03  0.00000000000E+00 0. -1.
         11   -1    0    0    0    0 -0.00000000000E+00 -0.00000000000E+00 -0.50000000000E+03  0.50000000000E+03  0.00000000000E+00 0.  1.
         23    2    1    2    0    0  0.19695681461E+02 -0.67985771282E+01 -0.44538162477E+03  0.45562414421E+03  0.93778614768E+02 0.  0.
        -11    1    1    2    0    0 -0.85856286961E+02 -0.50827903631E+02  0.44560372370E+03  0.45663711673E+03  0.00000000000E+00 0. -1.
         11    1    1    2    0    0  0.66160605500E+02  0.57626480759E+02 -0.22209893324E+00  0.87738739065E+02  0.00000000000E+00 0.  1.
        -15    1    3    3    0    0  0.49855248059E+02  0.20777097940E+02 -0.28715163985E+03  0.29219249744E+03  0.17770000000E+01 0.  1.
         15    1    3    3    0    0 -0.30159566598E+02 -0.27575675068E+02 -0.15822998491E+03  0.16343164677E+03  0.17770000000E+01 0. -1.
</event>
<event>
 7    1  0.4133533E-006  0.5236542E+03  0.7546771E-02  0.9348384E-01
        -11   -1    0    0    0    0  0.00000000000E+00  0.00000000000E+00  0.50000000000E+03  0.50000000000E+03  0.00000000000E+00 0.  1.
         11   -1    0    0    0    0 -0.00000000000E+00 -0.00000000000E+00 -0.50000000000E+03  0.50000000000E+03  0.00000000000E+00 0. -1.
         23    2    1    2    0    0  0.81745916590E+02 -0.39616273730E+02  0.22316963235E+03  0.25675392807E+03  0.88690759112E+02 0.  0.
        -11    1    1    2    0    0  0.17635357526E+03 -0.15532593005E+03  0.12652672069E+03  0.26690024185E+03  0.00000000000E+00 0.  1.
         11    1    1    2    0    0 -0.25809949185E+03  0.19494220378E+03 -0.34969635304E+03  0.47634583008E+03  0.00000000000E+00 0. -1.
        -15    1    3    3    0    0  0.66613058968E+02 -0.54131224739E+02  0.21910033369E+03  0.23532021390E+03  0.17770000000E+01 0.  1.
         15    1    3    3    0    0  0.15132857623E+02  0.14514951009E+02  0.40692986614E+01  0.21433714172E+02  0.17770000000E+01 0. -1.
</event>
<event>
 7    1  0.4133533E-006  0.5299632E+03  0.7546771E-02  0.9335153E-01
        -11   -1    0    0    0    0  0.00000000000E+00  0.00000000000E+00  0.50000000000E+03  0.50000000000E+03  0.00000000000E+00 0.  1.
         11   -1    0    0    0    0 -0.00000000000E+00 -0.00000000000E+00 -0.50000000000E+03  0.50000000000E+03  0.00000000000E+00 0.  1.
         23    2    1    2    0    0  0.74612359429E+02  0.12813522362E+03  0.21813594551E+03  0.27932660629E+03  0.91947933885E+02 0.  0.
        -11    1    1    2    0    0 -0.17355166970E+02 -0.58297807188E+02  0.24314372427E+03  0.25063660306E+03  0.00000000000E+00 0.  1.
         11    1    1    2    0    0 -0.57257192460E+02 -0.69837416428E+02 -0.46127966977E+03  0.47003679065E+03  0.00000000000E+00 0.  1.
        -15    1    3    3    0    0  0.90937049006E+02  0.10891861883E+03  0.14920861740E+03  0.20591061566E+03  0.17770000000E+01 0. -1.
         15    1    3    3    0    0 -0.16324689576E+02  0.19216604791E+02  0.68927328111E+02  0.73415990622E+02  0.17770000000E+01 0.  1.
</event>
<event>
 7    1  0.4133533E-006  0.3607624E+03  0.7546771E-02  0.9780015E-01
        -11   -1    0    0    0    0  0.00000000000E+00  0.00000000000E+00  0.50000000000E+03  0.50000000000E+03  0.00000000000E+00 0.  1.
         11   -1    0    0    0    0 -0.00000000000E+00 -0.00000000000E+00 -0.50000000000E+03  0.50000000000E+03  0.00000000000E+00 0. -1.
         23    2    1    2    0    0 -0.96872321526E+02  0.14044519513E+03 -0.14926547243E+03  0.24370159092E+03  0.89449341212E+02 0.  0.
        -11    1    1    2    0    0  0.16860599899E+03  0.41756268102E+02  0.40121615370E+03  0.43720243688E+03  0.00000000000E+00 0.  1.
         11    1    1    2    0    0 -0.71733677467E+02 -0.18220146323E+03 -0.25195068127E+03  0.31909597220E+03  0.00000000000E+00 0. -1.
        -15    1    3    3    0    0 -0.35397806257E+02  0.65439826519E+02 -0.11633492513E+02  0.75325105110E+02  0.17770000000E+01 0.  1.
         15    1    3    3    0    0 -0.61474515269E+02  0.75005368606E+02 -0.13763197992E+03  0.16837648581E+03  0.17770000000E+01 0. -1.
</event>
<event>
 7    1  0.4133533E-006  0.4220214E+03  0.7546771E-02  0.9593483E-01
        -11   -1    0    0    0    0  0.00000000000E+00  0.00000000000E+00  0.50000000000E+03  0.50000000000E+03  0.00000000000E+00 0.  1.
         11   -1    0    0    0    0 -0.00000000000E+00 -0.00000000000E+00 -0.50000000000E+03  0.50000000000E+03  0.00000000000E+00 0. -1.
         23    2    1    2    0    0  0.34509996086E+02 -0.11137454601E+03 -0.37619358096E+03  0.40442174242E+03  0.91870049857E+02 0.  0.
        -11    1    1    2    0    0 -0.95787604923E+02 -0.16156504932E+02  0.43251663233E+03  0.44329102760E+03  0.00000000000E+00 0.  1.
         11    1    1    2    0    0  0.61277608838E+02  0.12753105094E+03 -0.56323051374E+02  0.15228722998E+03  0.00000000000E+00 0. -1.
        -15    1    3    3    0    0  0.17437332854E+02 -0.48751279820E+02 -0.29942910752E+03  0.30387776493E+03  0.17770000000E+01 0.  1.
         15    1    3    3    0    0  0.17072663231E+02 -0.62623266189E+02 -0.76764473435E+02  0.10054397749E+03  0.17770000000E+01 0. -1.
</event>
<event>
 7    1  0.4133533E-006  0.4113665E+03  0.7546771E-02  0.9623400E-01
        -11   -1    0    0    0    0  0.00000000000E+00  0.00000000000E+00  0.50000000000E+03  0.50000000000E+03  0.00000000000E+00 0.  1.
         11   -1    0    0    0    0 -0.00000000000E+00 -0.00000000000E+00 -0.50000000000E+03  0.50000000000E+03  0.00000000000E+00 0. -1.
         23    2    1    2    0    0  0.23208084390E+03  0.57590108727E+02 -0.38358642192E+03  0.46133328581E+03  0.92258976749E+02 0.  0.
        -11    1    1    2    0    0 -0.12277177953E+03 -0.16299952400E+03  0.30689347213E+03  0.36854491980E+03  0.00000000000E+00 0.  1.
         11    1    1    2    0    0 -0.10930906437E+03  0.10540941527E+03  0.76692949783E+02  0.17012179439E+03  0.00000000000E+00 0. -1.
        -15    1    3    3    0    0  0.64243108719E+02 -0.13521505321E+02 -0.55406179107E+02  0.85924446674E+02  0.17770000000E+01 0.  1.
         15    1    3    3    0    0  0.16783773518E+03  0.71111614048E+02 -0.32818024281E+03  0.37540883914E+03  0.17770000000E+01 0. -1.
</event>
<event>
 7    1  0.4133533E-006  0.5227691E+03  0.7546771E-02  0.9350256E-01
        -11   -1    0    0    0    0  0.00000000000E+00  0.00000000000E+00  0.50000000000E+03  0.50000000000E+03  0.00000000000E+00 0. -1.
         11   -1    0    0    0    0 -0.00000000000E+00 -0.00000000000E+00 -0.50000000000E+03  0.50000000000E+03  0.00000000000E+00 0.  1.
         23    2    1    2    0    0  0.28661455602E+02  0.33667207997E+02 -0.29219910862E+03  0.30724387034E+03  0.84044731267E+02 0.  0.
        -11    1    1    2    0    0  0.74037809007E+02  0.30573642282E+02  0.47046041337E+03  0.47723091404E+03  0.00000000000E+00 0. -1.
         11    1    1    2    0    0 -0.10269926461E+03 -0.64240850279E+02 -0.17826130475E+03  0.21552521562E+03  0.00000000000E+00 0.  1.
        -15    1    3    3    0    0 -0.24603235700E+02  0.96353203889E+01 -0.37416990287E+02  0.45840456990E+02  0.17770000000E+01 0.  1.
         15    1    3    3    0    0  0.53264691302E+02  0.24031887609E+02 -0.25478211833E+03  0.26140341335E+03  0.17770000000E+01 0. -1.
</event>
<event>
 6    1  0.4133533E-006  0.4368597E+03  0.7546771E-02  0.9553354E-01
        -11   -1    0    0    0    0  0.00000000000E+00  0.00000000000E+00  0.50000000000E+03  0.50000000000E+03  0.00000000000E+00 0.  1.
         11   -1    0    0    0    0 -0.00000000000E+00 -0.00000000000E+00 -0.50000000000E+03  0.50000000000E+03  0.00000000000E+00 0. -1.
        -11    1    1    2    0    0 -0.49886344528E+02 -0.76285213962E+02  0.43929044666E+03  0.44864705255E+03  0.00000000000E+00 0.  1.
         11    1    1    2    0    0  0.41451966850E+02  0.47031598204E+02 -0.96159908319E+01  0.63424790619E+02  0.00000000000E+00 0. -1.
        -15    1    1    2    0    0 -0.14594811666E+02 -0.58730739144E+02 -0.13634143944E+02  0.62059293083E+02  0.17770000000E+01 0.  1.
         15    1    1    2    0    0  0.23029189344E+02  0.87984354903E+02 -0.41604031188E+03  0.42586886375E+03  0.17770000000E+01 0. -1.
</event>
<event>
 7    1  0.4133533E-006  0.5289347E+03  0.7546771E-02  0.9337296E-01
        -11   -1    0    0    0    0  0.00000000000E+00  0.00000000000E+00  0.50000000000E+03  0.50000000000E+03  0.00000000000E+00 0. -1.
         11   -1    0    0    0    0 -0.00000000000E+00 -0.00000000000E+00 -0.50000000000E+03  0.50000000000E+03  0.00000000000E+00 0. -1.
         23    2    1    2    0    0  0.10820986239E+03  0.17652645200E+03  0.28367952418E+03  0.36267051708E+03  0.90470265540E+02 0.  0.
        -11    1    1    2    0    0 -0.92539583456E+01 -0.48569313607E+02  0.15874245612E+03  0.16626419141E+03  0.00000000000E+00 0. -1.
         11    1    1    2    0    0 -0.98955904047E+02 -0.12795713839E+03 -0.44242198030E+03  0.47106529151E+03  0.00000000000E+00 0. -1.
        -15    1    3    3    0    0  0.22783142306E+02 -0.56040368430E+01  0.42703409919E+02  0.48756699540E+02  0.17770000000E+01 0.  1.
         15    1    3    3    0    0  0.85426720087E+02  0.18213048884E+03  0.24097611427E+03  0.31391381754E+03  0.17770000000E+01 0. -1.
</event>
<event>
 7    1  0.4133533E-006  0.5116914E+03  0.7546771E-02  0.9374023E-01
        -11   -1    0    0    0    0  0.00000000000E+00  0.00000000000E+00  0.50000000000E+03  0.50000000000E+03  0.00000000000E+00 0. -1.
         11   -1    0    0    0    0 -0.00000000000E+00 -0.00000000000E+00 -0.50000000000E+03  0.50000000000E+03  0.00000000000E+00 0.  1.
         23    2    1    2    0    0  0.11017856612E+03  0.58590930147E+02  0.31619780991E+03  0.34912523117E+03  0.79593709053E+02 0.  0.
        -11    1    1    2    0    0  0.40932306363E+01 -0.37662624226E+02  0.15809030292E+03  0.16256620706E+03  0.00000000000E+00 0. -1.
         11    1    1    2    0    0 -0.11427179676E+03 -0.20928305920E+02 -0.47428811283E+03  0.48830856177E+03  0.00000000000E+00 0.  1.
        -15    1    3    3    0    0  0.36279884963E+02  0.57342493507E+02  0.20186528678E+03  0.21297216567E+03  0.17770000000E+01 0. -1.
         15    1    3    3    0    0  0.73898681159E+02  0.12484366392E+01  0.11433252313E+03  0.13615306550E+03  0.17770000000E+01 0.  1.
</event>
<event>
 7    1  0.4133533E-006  0.5090023E+03  0.7546771E-02  0.9379889E-01
        -11   -1    0    0    0    0  0.00000000000E+00  0.00000000000E+00  0.50000000000E+03  0.50000000000E+03  0.00000000000E+00 0. -1.
         11   -1    0    0    0    0 -0.00000000000E+00 -0.00000000000E+00 -0.50000000000E+03  0.50000000000E+03  0.00000000000E+00 0. -1.
         23    2    1    2    0    0 -0.37596542458E+02  0.36397710958E+02 -0.48023816206E+03  0.49099766146E+03  0.87816387403E+02 0.  0.
        -11    1    1    2    0    0 -0.39164028468E+02  0.35021343729E+02  0.25771307413E+03  0.26301396202E+03  0.00000000000E+00 0. -1.
         11    1    1    2    0    0  0.76760570926E+02 -0.71419054687E+02  0.22252508793E+03  0.24598837651E+03  0.00000000000E+00 0. -1.
        -15    1    3    3    0    0  0.28196863056E+02  0.36348913508E+01 -0.14896846495E+03  0.15166752058E+03  0.17770000000E+01 0.  1.
         15    1    3    3    0    0 -0.65793405514E+02  0.32762819607E+02 -0.33126969711E+03  0.33933014088E+03  0.17770000000E+01 0. -1.
</event>
<event>
 7    1  0.4133533E-006  0.5194075E+03  0.7546771E-02  0.9357401E-01
        -11   -1    0    0    0    0  0.00000000000E+00  0.00000000000E+00  0.50000000000E+03  0.50000000000E+03  0.00000000000E+00 0. -1.
         11   -1    0    0    0    0 -0.00000000000E+00 -0.00000000000E+00 -0.50000000000E+03  0.50000000000E+03  0.00000000000E+00 0.  1.
         23    2    1    2    0    0  0.84427125584E+02 -0.81110106820E+02 -0.21590084291E+03  0.26204116849E+03  0.91354316009E+02 0.  0.
        -11    1    1    2    0    0 -0.22426769528E+03  0.24308585347E+02  0.42436098436E+03  0.48059250048E+03  0.00000000000E+00 0. -1.
         11    1    1    2    0    0  0.13984056970E+03  0.56801521473E+02 -0.20846014145E+03  0.25736633103E+03  0.00000000000E+00 0.  1.
        -15    1    3    3    0    0  0.68339391093E+02 -0.84745795207E+02 -0.21954043455E+03  0.24505771221E+03  0.17770000000E+01 0.  1.
         15    1    3    3    0    0  0.16087734491E+02  0.36356883865E+01  0.36395916422E+01  0.16983456286E+02  0.17770000000E+01 0. -1.
</event>
<event>
 7    1  0.4133533E-006  0.5349311E+03  0.7546771E-02  0.9324871E-01
        -11   -1    0    0    0    0  0.00000000000E+00  0.00000000000E+00  0.50000000000E+03  0.50000000000E+03  0.00000000000E+00 0.  1.
         11   -1    0    0    0    0 -0.00000000000E+00 -0.00000000000E+00 -0.50000000000E+03  0.50000000000E+03  0.00000000000E+00 0. -1.
         23    2    1    2    0    0  0.92089243736E+02  0.77395719672E+02 -0.16620440573E+03  0.22520449688E+03  0.92858142870E+02 0.  0.
        -11    1    1    2    0    0  0.31471764611E+02 -0.13113626553E+03  0.44508642059E+03  0.46506893457E+03  0.00000000000E+00 0.  1.
         11    1    1    2    0    0 -0.12356100835E+03  0.53740545855E+02 -0.27888201486E+03  0.30972656855E+03  0.00000000000E+00 0. -1.
        -15    1    3    3    0    0  0.10880093097E+03  0.67295449814E+02 -0.15951792496E+03  0.20448825457E+03  0.17770000000E+01 0. -1.
         15    1    3    3    0    0 -0.16711687235E+02  0.10100269857E+02 -0.66864807735E+01  0.20716242313E+02  0.17770000000E+01 0.  1.
</event>
<event>
 7    1  0.4133533E-006  0.4251094E+03  0.7546771E-02  0.9584988E-01
        -11   -1    0    0    0    0  0.00000000000E+00  0.00000000000E+00  0.50000000000E+03  0.50000000000E+03  0.00000000000E+00 0.  1.
         11   -1    0    0    0    0 -0.00000000000E+00 -0.00000000000E+00 -0.50000000000E+03  0.50000000000E+03  0.00000000000E+00 0. -1.
         23    2    1    2    0    0  0.10024197168E+03  0.25670714739E+02  0.39186476562E+02  0.14261146830E+03  0.89972287201E+02 0.  0.
        -11    1    1    2    0    0  0.25719908053E+02  0.75417501943E+02  0.39039765861E+03  0.39844653985E+03  0.00000000000E+00 0.  1.
         11    1    1    2    0    0 -0.12596187973E+03 -0.10108821668E+03 -0.42958413517E+03  0.45894199185E+03  0.00000000000E+00 0. -1.
        -15    1    3    3    0    0  0.80516524283E+01  0.40190035857E+02 -0.86950532576E+00  0.41036348004E+02  0.17770000000E+01 0. -1.
         15    1    3    3    0    0  0.92190319250E+02 -0.14519321118E+02  0.40055981888E+02  0.10157512030E+03  0.17770000000E+01 0.  1.
</event>
<event>
 7    1  0.4133533E-006  0.5375332E+03  0.7546771E-02  0.9319533E-01
        -11   -1    0    0    0    0  0.00000000000E+00  0.00000000000E+00  0.50000000000E+03  0.50000000000E+03  0.00000000000E+00 0.  1.
         11   -1    0    0    0    0 -0.00000000000E+00 -0.00000000000E+00 -0.50000000000E+03  0.50000000000E+03  0.00000000000E+00 0. -1.
         23    2    1    2    0    0  0.32527841625E+02  0.78409623358E+02 -0.13474376604E+03  0.18450111202E+03  0.93159263279E+02 0.  0.
        -11    1    1    2    0    0  0.19945508753E+03 -0.13526111104E+03  0.39471205433E+03  0.46246676198E+03  0.00000000000E+00 0.  1.
         11    1    1    2    0    0 -0.23198292916E+03  0.56851487682E+02 -0.25996828829E+03  0.35303212600E+03  0.00000000000E+00 0. -1.
        -15    1    3    3    0    0 -0.55866667477E+01  0.86175484372E+02 -0.83448784341E+02  0.12010113359E+03  0.17770000000E+01 0. -1.
         15    1    3    3    0    0  0.38114508372E+02 -0.77658610138E+01 -0.51294981702E+02  0.64399978436E+02  0.17770000000E+01 0.  1.
</event>
<event>
 7    1  0.4133533E-006  0.5159115E+03  0.7546771E-02  0.9364894E-01
        -11   -1    0    0    0    0  0.00000000000E+00  0.00000000000E+00  0.50000000000E+03  0.50000000000E+03  0.00000000000E+00 0.  1.
         11   -1    0    0    0    0 -0.00000000000E+00 -0.00000000000E+00 -0.50000000000E+03  0.50000000000E+03  0.00000000000E+00 0. -1.
         23    2    1    2    0    0  0.13723615903E+02  0.66640010859E+02  0.12967278045E+03  0.17308463713E+03  0.92271517492E+02 0.  0.
        -11    1    1    2    0    0  0.68066978448E+01  0.56199198537E+02  0.33812066121E+03  0.34282686971E+03  0.00000000000E+00 0.  1.
         11    1    1    2    0    0 -0.20530313747E+02 -0.12283920940E+03 -0.46779344167E+03  0.48408849316E+03  0.00000000000E+00 0. -1.
        -15    1    3    3    0    0 -0.20855442268E+00  0.82575038146E+02  0.65275250097E+02  0.10527438636E+03  0.17770000000E+01 0. -1.
         15    1    3    3    0    0  0.13932170325E+02 -0.15935027288E+02  0.64397530354E+02  0.67810250768E+02  0.17770000000E+01 0.  1.
</event>
<event>
 7    1  0.4133533E-006  0.5218592E+03  0.7546771E-02  0.9352184E-01
        -11   -1    0    0    0    0  0.00000000000E+00  0.00000000000E+00  0.50000000000E+03  0.50000000000E+03  0.00000000000E+00 0. -1.
         11   -1    0    0    0    0 -0.00000000000E+00 -0.00000000000E+00 -0.50000000000E+03  0.50000000000E+03  0.00000000000E+00 0.  1.
         23    2    1    2    0    0  0.19145889386E+03  0.16705815235E+03  0.26378753184E+03  0.37760422448E+03  0.91848538846E+02 0.  0.
        -11    1    1    2    0    0  0.19253258225E+02  0.13769934743E+03  0.38440719321E+02  0.14425493800E+03  0.00000000000E+00 0. -1.
         11    1    1    2    0    0 -0.21071215208E+03 -0.30475749978E+03 -0.30222825116E+03  0.47814083752E+03  0.00000000000E+00 0.  1.
        -15    1    3    3    0    0  0.32659580375E+02  0.73570909912E+02  0.47602051181E+02  0.93533095646E+02  0.17770000000E+01 0.  1.
         15    1    3    3    0    0  0.15879931348E+03  0.93487242441E+02  0.21618548065E+03  0.28407112883E+03  0.17770000000E+01 0. -1.
</event>
<event>
 7    1  0.4133533E-006  0.4656493E+03  0.7546771E-02  0.9480133E-01
        -11   -1    0    0    0    0  0.00000000000E+00  0.00000000000E+00  0.50000000000E+03  0.50000000000E+03  0.00000000000E+00 0.  1.
         11   -1    0    0    0    0 -0.00000000000E+00 -0.00000000000E+00 -0.50000000000E+03  0.50000000000E+03  0.00000000000E+00 0.  1.
         23    2    1    2    0    0 -0.51584414595E+02  0.14108131533E+02 -0.43081699863E+03  0.44276931286E+03  0.87071159975E+02 0.  0.
        -11    1    1    2    0    0  0.42191934052E+02 -0.71873440231E+02  0.47603348741E+03  0.48327407528E+03  0.00000000000E+00 0.  1.
         11    1    1    2    0    0  0.93924805429E+01  0.57765308698E+02 -0.45216488774E+02  0.73956611853E+02  0.00000000000E+00 0.  1.
        -15    1    3    3    0    0 -0.69540664501E+02  0.30865904217E+02 -0.35453100333E+03  0.36260722291E+03  0.17770000000E+01 0.  1.
         15    1    3    3    0    0  0.17956249907E+02 -0.16757772684E+02 -0.76285995306E+02  0.80162089949E+02  0.17770000000E+01 0. -1.
</event>
<event>
 7    1  0.4133533E-006  0.5143310E+03  0.7546771E-02  0.9368302E-01
        -11   -1    0    0    0    0  0.00000000000E+00  0.00000000000E+00  0.50000000000E+03  0.50000000000E+03  0.00000000000E+00 0.  1.
         11   -1    0    0    0    0 -0.00000000000E+00 -0.00000000000E+00 -0.50000000000E+03  0.50000000000E+03  0.00000000000E+00 0. -1.
         23    2    1    2    0    0  0.60324875874E+02  0.12866577175E+02  0.13509477306E+03  0.17114722051E+03  0.85065468445E+02 0.  0.
        -11    1    1    2    0    0  0.11820139108E+03 -0.84966930945E+02  0.31077994603E+03  0.34318380361E+03  0.00000000000E+00 0.  1.
         11    1    1    2    0    0 -0.17852626696E+03  0.72100353770E+02 -0.44587471909E+03  0.48566897588E+03  0.00000000000E+00 0. -1.
        -15    1    3    3    0    0  0.71430858754E+02  0.29367806223E+02  0.74408032708E+02  0.10725925920E+03  0.17770000000E+01 0.  1.
         15    1    3    3    0    0 -0.11105982880E+02 -0.16501229048E+02  0.60686740352E+02  0.63887961302E+02  0.17770000000E+01 0. -1.
</event>
<event>
 7    1  0.4133533E-006  0.5336572E+03  0.7546771E-02  0.9327497E-01
        -11   -1    0    0    0    0  0.00000000000E+00  0.00000000000E+00  0.50000000000E+03  0.50000000000E+03  0.00000000000E+00 0.  1.
         11   -1    0    0    0    0 -0.00000000000E+00 -0.00000000000E+00 -0.50000000000E+03  0.50000000000E+03  0.00000000000E+00 0. -1.
         23    2    1    2    0    0 -0.38207438793E+02  0.56077021656E+02 -0.26020153171E+03  0.28386116606E+03  0.90927904165E+02 0.  0.
        -11    1    1    2    0    0  0.26435363906E+02  0.10026099938E+03  0.45466972043E+03  0.46634284720E+03  0.00000000000E+00 0.  1.
         11    1    1    2    0    0  0.11772074886E+02 -0.15633802104E+03 -0.19446818872E+03  0.24979598674E+03  0.00000000000E+00 0. -1.
        -15    1    3    3    0    0  0.85088144709E+01  0.62693715452E+02 -0.17987169661E+03  0.19068268629E+03  0.17770000000E+01 0.  1.
         15    1    3    3    0    0 -0.46716253264E+02 -0.66166937963E+01 -0.80329835095E+02  0.93178479764E+02  0.17770000000E+01 0. -1.
</event>
<event>
 7    1  0.4133533E-006  0.3522694E+03  0.7546771E-02  0.9808997E-01
        -11   -1    0    0    0    0  0.00000000000E+00  0.00000000000E+00  0.50000000000E+03  0.50000000000E+03  0.00000000000E+00 0. -1.
         11   -1    0    0    0    0 -0.00000000000E+00 -0.00000000000E+00 -0.50000000000E+03  0.50000000000E+03  0.00000000000E+00 0. -1.
         23    2    1    2    0    0  0.16552792179E+03  0.96068899663E+02 -0.27131862448E+03  0.34487879068E+03  0.93267668021E+02 0.  0.
        -11    1    1    2    0    0  0.80315600139E-01  0.67307529055E+02  0.38874700050E+03  0.39453078500E+03  0.00000000000E+00 0. -1.
         11    1    1    2    0    0 -0.16560823739E+03 -0.16337642872E+03 -0.11742837602E+03  0.26059042432E+03  0.00000000000E+00 0. -1.
        -15    1    3    3    0    0  0.38902485666E+02  0.32886421775E+02 -0.15016380261E+03  0.15857883047E+03  0.17770000000E+01 0.  1.
         15    1    3    3    0    0  0.12662543612E+03  0.63182477889E+02 -0.12115482187E+03  0.18629996021E+03  0.17770000000E+01 0. -1.
</event>
<event>
 7    1  0.4133533E-006  0.5153999E+03  0.7546771E-02  0.9365996E-01
        -11   -1    0    0    0    0  0.00000000000E+00  0.00000000000E+00  0.50000000000E+03  0.50000000000E+03  0.00000000000E+00 0.  1.
         11   -1    0    0    0    0 -0.00000000000E+00 -0.00000000000E+00 -0.50000000000E+03  0.50000000000E+03  0.00000000000E+00 0. -1.
         23    2    1    2    0    0  0.77519445061E+02 -0.27877686614E+02  0.23604567528E+03  0.26628021778E+03  0.91657862674E+02 0.  0.
        -11    1    1    2    0    0  0.59393478423E+02  0.89740599875E+02  0.22467672852E+03  0.24911963568E+03  0.00000000000E+00 0.  1.
         11    1    1    2    0    0 -0.13691292348E+03 -0.61862913261E+02 -0.46072240380E+03  0.48460014653E+03  0.00000000000E+00 0. -1.
        -15    1    3    3    0    0  0.25062661352E+02  0.20664260617E+02  0.15425577960E+03  0.15764882471E+03  0.17770000000E+01 0.  1.
         15    1    3    3    0    0  0.52456783709E+02 -0.48541947230E+02  0.81789895680E+02  0.10863139308E+03  0.17770000000E+01 0. -1.
</event>
<event>
 7    1  0.4133533E-006  0.4611570E+03  0.7546771E-02  0.9491181E-01
        -11   -1    0    0    0    0  0.00000000000E+00  0.00000000000E+00  0.50000000000E+03  0.50000000000E+03  0.00000000000E+00 0.  1.
         11   -1    0    0    0    0 -0.00000000000E+00 -0.00000000000E+00 -0.50000000000E+03  0.50000000000E+03  0.00000000000E+00 0. -1.
         23    2    1    2    0    0  0.10515245105E+03 -0.59246203421E+02 -0.40222115162E+03  0.42893065692E+03  0.87364197787E+02 0.  0.
        -11    1    1    2    0    0 -0.16027686773E+03  0.95029331720E+02  0.45181996175E+03  0.48873359415E+03  0.00000000000E+00 0.  1.
         11    1    1    2    0    0  0.55124416680E+02 -0.35783128299E+02 -0.49598810133E+02  0.82335748930E+02  0.00000000000E+00 0. -1.
        -15    1    3    3    0    0 -0.12565540992E+02 -0.90785274255E+01 -0.92579863726E+02  0.93885575981E+02  0.17770000000E+01 0.  1.
         15    1    3    3    0    0  0.11771799204E+03 -0.50167675996E+02 -0.30964128789E+03  0.33504508094E+03  0.17770000000E+01 0. -1.
</event>
<event>
 7    1  0.4133533E-006  0.3822864E+03  0.7546771E-02  0.9710237E-01
        -11   -1    0    0    0    0  0.00000000000E+00  0.00000000000E+00  0.50000000000E+03  0.50000000000E+03  0.00000000000E+00 0. -1.
         11   -1    0    0    0    0 -0.00000000000E+00 -0.00000000000E+00 -0.50000000000E+03  0.50000000000E+03  0.00000000000E+00 0. -1.
         23    2    1    2    0    0  0.26438845039E+02  0.11382167713E+03 -0.35643572031E+03  0.38597783859E+03  0.90983968147E+02 0.  0.
        -11    1    1    2    0    0  0.11730100687E+03 -0.25634441051E+03  0.28090534992E+03  0.39796959510E+03  0.00000000000E+00 0. -1.
         11    1    1    2    0    0 -0.14373985191E+03  0.14252273337E+03  0.75530370393E+02  0.21605256631E+03  0.00000000000E+00 0. -1.
        -15    1    3    3    0    0 -0.22737219883E+02  0.82748515975E+00 -0.82433854158E+02  0.85534577453E+02  0.17770000000E+01 0.  1.
         15    1    3    3    0    0  0.49176064921E+02  0.11299419198E+03 -0.27400186615E+03  0.30044326114E+03  0.17770000000E+01 0. -1.
</event>
<event>
 7    1  0.4133533E-006  0.4775488E+03  0.7546771E-02  0.9451497E-01
        -11   -1    0    0    0    0  0.00000000000E+00  0.00000000000E+00  0.50000000000E+03  0.50000000000E+03  0.00000000000E+00 0.  1.
         11   -1    0    0    0    0 -0.00000000000E+00 -0.00000000000E+00 -0.50000000000E+03  0.50000000000E+03  0.00000000000E+00 0. -1.
         23    2    1    2    0    0  0.32094637267E+02 -0.44224082641E+02 -0.45666963291E+03  0.46912154215E+03  0.92423116516E+02 0.  0.
        -11    1    1    2    0    0 -0.13127429610E+02  0.91470619343E+02  0.46939181244E+03  0.47840137667E+03  0.00000000000E+00 0.  1.
         11    1    1    2    0    0 -0.18967207657E+02 -0.47246536702E+02 -0.12722179536E+02  0.52477081176E+02  0.00000000000E+00 0. -1.
        -15    1    3    3    0    0  0.25277045311E+02  0.21213343890E+02 -0.77035957605E+02  0.83825005051E+02  0.17770000000E+01 0.  1.
         15    1    3    3    0    0  0.68175919562E+01 -0.65437426531E+02 -0.37963367530E+03  0.38529653710E+03  0.17770000000E+01 0. -1.
</event>
<event>
 7    1  0.4133533E-006  0.5240114E+03  0.7546771E-02  0.9347629E-01
        -11   -1    0    0    0    0  0.00000000000E+00  0.00000000000E+00  0.50000000000E+03  0.50000000000E+03  0.00000000000E+00 0.  1.
         11   -1    0    0    0    0 -0.00000000000E+00 -0.00000000000E+00 -0.50000000000E+03  0.50000000000E+03  0.00000000000E+00 0.  1.
         23    2    1    2    0    0 -0.99417383449E+02 -0.38360408180E+02 -0.27363410500E+03  0.30538741280E+03  0.83848145073E+02 0.  0.
        -11    1    1    2    0    0  0.25162281462E+02  0.13234174155E+03  0.45652786426E+03  0.47598862152E+03  0.00000000000E+00 0.  1.
         11    1    1    2    0    0  0.74255101987E+02 -0.93981333374E+02 -0.18289375926E+03  0.21862396568E+03  0.00000000000E+00 0.  1.
        -15    1    3    3    0    0 -0.97799915947E+02 -0.77724149091E+01 -0.24284751422E+03  0.26192232987E+03  0.17770000000E+01 0.  1.
         15    1    3    3    0    0 -0.16174675019E+01 -0.30587993270E+02 -0.30786590773E+02  0.43465082927E+02  0.17770000000E+01 0. -1.
</event>
<event>
 7    1  0.4133533E-006  0.5207127E+03  0.7546771E-02  0.9354620E-01
        -11   -1    0    0    0    0  0.00000000000E+00  0.00000000000E+00  0.50000000000E+03  0.50000000000E+03  0.00000000000E+00 0. -1.
         11   -1    0    0    0    0 -0.00000000000E+00 -0.00000000000E+00 -0.50000000000E+03  0.50000000000E+03  0.00000000000E+00 0.  1.
         23    2    1    2    0    0 -0.36714706182E+02  0.28740703303E+02  0.11369094806E+03  0.15815140483E+03  0.99560220491E+02 0.  0.
        -11    1    1    2    0    0 -0.67808353390E+02 -0.39841198207E+02  0.35392855218E+03  0.36256132434E+03  0.00000000000E+00 0. -1.
         11    1    1    2    0    0  0.10452305957E+03  0.11100494904E+02 -0.46761950024E+03  0.47928727082E+03  0.00000000000E+00 0.  1.
        -15    1    3    3    0    0  0.18196487600E+02  0.16898406800E+02  0.96082782039E+02  0.99255866560E+02  0.17770000000E+01 0. -1.
         15    1    3    3    0    0 -0.54911193781E+02  0.11842296503E+02  0.17608166020E+02  0.58895538274E+02  0.17770000000E+01 0.  1.
</event>
<event>
 7    1  0.4133533E-006  0.5278647E+03  0.7546771E-02  0.9339532E-01
        -11   -1    0    0    0    0  0.00000000000E+00  0.00000000000E+00  0.50000000000E+03  0.50000000000E+03  0.00000000000E+00 0. -1.
         11   -1    0    0    0    0 -0.00000000000E+00 -0.00000000000E+00 -0.50000000000E+03  0.50000000000E+03  0.00000000000E+00 0.  1.
         23    2    1    2    0    0  0.58385447899E+02  0.57852739625E+02 -0.20537630855E+03  0.23891163343E+03  0.90241567272E+02 0.  0.
        -11    1    1    2    0    0  0.71856890805E+02 -0.55667123417E+02  0.46330276819E+03  0.47213525223E+03  0.00000000000E+00 0. -1.
         11    1    1    2    0    0 -0.13024233870E+03 -0.21856162081E+01 -0.25792645963E+03  0.28895311434E+03  0.00000000000E+00 0.  1.
        -15    1    3    3    0    0  0.42394952504E+02  0.27456774446E+02 -0.27098906222E+02  0.57347318231E+02  0.17770000000E+01 0. -1.
         15    1    3    3    0    0  0.15990495395E+02  0.30395965179E+02 -0.17827740233E+03  0.18156431520E+03  0.17770000000E+01 0.  1.
</event>
<event>
 7    1  0.4133533E-006  0.4790695E+03  0.7546771E-02  0.9447901E-01
        -11   -1    0    0    0    0  0.00000000000E+00  0.00000000000E+00  0.50000000000E+03  0.50000000000E+03  0.00000000000E+00 0.  1.
         11   -1    0    0    0    0 -0.00000000000E+00 -0.00000000000E+00 -0.50000000000E+03  0.50000000000E+03  0.00000000000E+00 0. -1.
         23    2    1    2    0    0  0.12063014363E+03 -0.13260433836E+02  0.43372882758E+03  0.45952541223E+03  0.91189023202E+02 0.  0.
        -11    1    1    2    0    0  0.27101789086E+02 -0.24533720260E+02  0.33134493581E+02  0.49338677185E+02  0.00000000000E+00 0.  1.
         11    1    1    2    0    0 -0.14773193272E+03  0.37794154095E+02 -0.46686332116E+03  0.49113591059E+03  0.00000000000E+00 0. -1.
        -15    1    3    3    0    0  0.10017440418E+03  0.24820063216E+02  0.35489429868E+03  0.36959987521E+03  0.17770000000E+01 0.  1.
         15    1    3    3    0    0  0.20455739452E+02 -0.38080497052E+02  0.78834528896E+02  0.89925537015E+02  0.17770000000E+01 0. -1.
</event>
<event>
 7    1  0.4133533E-006  0.4846902E+03  0.7546771E-02  0.9434733E-01
        -11   -1    0    0    0    0  0.00000000000E+00  0.00000000000E+00  0.50000000000E+03  0.50000000000E+03  0.00000000000E+00 0.  1.
         11   -1    0    0    0    0 -0.00000000000E+00 -0.00000000000E+00 -0.50000000000E+03  0.50000000000E+03  0.00000000000E+00 0. -1.
         23    2    1    2    0    0  0.96835732514E+02 -0.50799227693E+02 -0.47111336739E+03  0.49204770593E+03  0.90583769821E+02 0.  0.
        -11    1    1    2    0    0 -0.11813433161E+03  0.73356950879E+02  0.44849674603E+03  0.46955968071E+03  0.00000000000E+00 0.  1.
         11    1    1    2    0    0  0.21298599093E+02 -0.22557723186E+02  0.22616621361E+02  0.38392613358E+02  0.00000000000E+00 0. -1.
        -15    1    3    3    0    0  0.99103609980E+02 -0.68974586430E+02 -0.36803493769E+03  0.38733950505E+03  0.17770000000E+01 0. -1.
         15    1    3    3    0    0 -0.22678774660E+01  0.18175358737E+02 -0.10307842970E+03  0.10470820088E+03  0.17770000000E+01 0.  1.
</event>
<event>
 7    1  0.4133533E-006  0.4107719E+03  0.7546771E-02  0.9625098E-01
        -11   -1    0    0    0    0  0.00000000000E+00  0.00000000000E+00  0.50000000000E+03  0.50000000000E+03  0.00000000000E+00 0. -1.
         11   -1    0    0    0    0 -0.00000000000E+00 -0.00000000000E+00 -0.50000000000E+03  0.50000000000E+03  0.00000000000E+00 0.  1.
         23    2    1    2    0    0 -0.10016458531E+03  0.60526217292E+02 -0.74219228851E+02  0.16684993308E+03  0.92919530276E+02 0.  0.
        -11    1    1    2    0    0 -0.19011985591E+03 -0.14486442676E+02  0.36995748833E+03  0.41620182580E+03  0.00000000000E+00 0. -1.
         11    1    1    2    0    0  0.29028444122E+03 -0.46039774616E+02 -0.29573825947E+03  0.41694824112E+03  0.00000000000E+00 0.  1.
        -15    1    3    3    0    0 -0.29554401493E+01 -0.11233107879E+02 -0.39369318525E+02  0.41085499988E+02  0.17770000000E+01 0. -1.
         15    1    3    3    0    0 -0.97209145158E+02  0.71759325170E+02 -0.34849910326E+02  0.12576443309E+03  0.17770000000E+01 0.  1.
</event>
<event>
 7    1  0.4133533E-006  0.5245645E+03  0.7546771E-02  0.9346462E-01
        -11   -1    0    0    0    0  0.00000000000E+00  0.00000000000E+00  0.50000000000E+03  0.50000000000E+03  0.00000000000E+00 0. -1.
         11   -1    0    0    0    0 -0.00000000000E+00 -0.00000000000E+00 -0.50000000000E+03  0.50000000000E+03  0.00000000000E+00 0. -1.
         23    2    1    2    0    0 -0.35030527036E+02  0.93953366992E+01  0.25059399357E+03  0.26924385007E+03  0.91539559817E+02 0.  0.
        -11    1    1    2    0    0 -0.19355445867E+03  0.21080923863E+02  0.16516923463E+03  0.25532060217E+03  0.00000000000E+00 0. -1.
         11    1    1    2    0    0  0.22858498571E+03 -0.30476260562E+02 -0.41576322820E+03  0.47543554776E+03  0.00000000000E+00 0. -1.
        -15    1    3    3    0    0 -0.34821588021E+02  0.42314460300E+02  0.90683366537E+02  0.10597021864E+03  0.17770000000E+01 0. -1.
         15    1    3    3    0    0 -0.20893901502E+00 -0.32919123601E+02  0.15991062703E+03  0.16327363143E+03  0.17770000000E+01 0.  1.
</event>
<event>
 7    1  0.4133533E-006  0.5020127E+03  0.7546771E-02  0.9395317E-01
        -11   -1    0    0    0    0  0.00000000000E+00  0.00000000000E+00  0.50000000000E+03  0.50000000000E+03  0.00000000000E+00 0. -1.
         11   -1    0    0    0    0 -0.00000000000E+00 -0.00000000000E+00 -0.50000000000E+03  0.50000000000E+03  0.00000000000E+00 0. -1.
         23    2    1    2    0    0  0.15822830675E+03 -0.26442992008E+01 -0.46293579986E+03  0.49798726280E+03  0.92943906425E+02 0.  0.
        -11    1    1    2    0    0 -0.12137188411E+03 -0.15549009301E+02  0.43606132869E+03  0.45290439203E+03  0.00000000000E+00 0. -1.
         11    1    1    2    0    0 -0.36856422637E+02  0.18193308502E+02  0.26874471172E+02  0.49108345163E+02  0.00000000000E+00 0. -1.
        -15    1    3    3    0    0  0.13881201640E+03 -0.88435290849E+01 -0.45542095102E+03  0.47619154157E+03  0.17770000000E+01 0. -1.
         15    1    3    3    0    0  0.19416290347E+02  0.61992298842E+01 -0.75148488474E+01  0.21795721236E+02  0.17770000000E+01 0.  1.
</event>
<event>
 7    1  0.4133533E-006  0.5120243E+03  0.7546771E-02  0.9373299E-01
        -11   -1    0    0    0    0  0.00000000000E+00  0.00000000000E+00  0.50000000000E+03  0.50000000000E+03  0.00000000000E+00 0.  1.
         11   -1    0    0    0    0 -0.00000000000E+00 -0.00000000000E+00 -0.50000000000E+03  0.50000000000E+03  0.00000000000E+00 0.  1.
         23    2    1    2    0    0  0.63373283652E+02  0.46697172280E+02  0.26974553383E+03  0.29520649975E+03  0.90484393637E+02 0.  0.
        -11    1    1    2    0    0  0.99178552898E+02 -0.32025648652E+02  0.19012610250E+03  0.21681780918E+03  0.00000000000E+00 0.  1.
         11    1    1    2    0    0 -0.16255183655E+03 -0.14671523629E+02 -0.45987163633E+03  0.48797569107E+03  0.00000000000E+00 0.  1.
        -15    1    3    3    0    0  0.39624764054E+02  0.68299246556E+02  0.23476163685E+03  0.24769152765E+03  0.17770000000E+01 0. -1.
         15    1    3    3    0    0  0.23748519598E+02 -0.21602074275E+02  0.34983896982E+02  0.47514972094E+02  0.17770000000E+01 0.  1.
</event>
<event>
 7    1  0.4133533E-006  0.4262405E+03  0.7546771E-02  0.9581896E-01
        -11   -1    0    0    0    0  0.00000000000E+00  0.00000000000E+00  0.50000000000E+03  0.50000000000E+03  0.00000000000E+00 0.  1.
         11   -1    0    0    0    0 -0.00000000000E+00 -0.00000000000E+00 -0.50000000000E+03  0.50000000000E+03  0.00000000000E+00 0. -1.
         23    2    1    2    0    0  0.18249088422E+03  0.13475015000E+03 -0.35476392824E+03  0.43107568956E+03  0.92240336102E+02 0.  0.
        -11    1    1    2    0    0 -0.54365014800E+02 -0.93990566856E+02  0.40957881348E+03  0.42372701819E+03  0.00000000000E+00 0.  1.
         11    1    1    2    0    0 -0.12812586942E+03 -0.40759583141E+02 -0.54814885240E+02  0.14519729225E+03  0.00000000000E+00 0. -1.
        -15    1    3    3    0    0  0.13732690437E+03  0.54634001611E+02 -0.25954952210E+03  0.29868489240E+03  0.17770000000E+01 0.  1.
         15    1    3    3    0    0  0.45163979848E+02  0.80116148386E+02 -0.95214406139E+02  0.13239079716E+03  0.17770000000E+01 0. -1.
</event>
<event>
 7    1  0.4133533E-006  0.5208836E+03  0.7546771E-02  0.9354256E-01
        -11   -1    0    0    0    0  0.00000000000E+00  0.00000000000E+00  0.50000000000E+03  0.50000000000E+03  0.00000000000E+00 0.  1.
         11   -1    0    0    0    0 -0.00000000000E+00 -0.00000000000E+00 -0.50000000000E+03  0.50000000000E+03  0.00000000000E+00 0. -1.
         23    2    1    2    0    0 -0.14477881562E+03 -0.52945754775E+02  0.27843896147E+03  0.33191908990E+03  0.94222441998E+02 0.  0.
        -11    1    1    2    0    0  0.40619795490E+02 -0.48037313187E+02  0.17818541698E+03  0.18896453125E+03  0.00000000000E+00 0.  1.
         11    1    1    2    0    0  0.10415902013E+03  0.10098306796E+03 -0.45662437845E+03  0.47911637885E+03  0.00000000000E+00 0. -1.
        -15    1    3    3    0    0 -0.30543247767E+02 -0.72241682888E+01  0.15300250023E+03  0.15619859602E+03  0.17770000000E+01 0.  1.
         15    1    3    3    0    0 -0.11423556786E+03 -0.45721586486E+02  0.12543646123E+03  0.17572049388E+03  0.17770000000E+01 0. -1.
</event>
<event>
 7    1  0.4133533E-006  0.4819263E+03  0.7546771E-02  0.9441184E-01
        -11   -1    0    0    0    0  0.00000000000E+00  0.00000000000E+00  0.50000000000E+03  0.50000000000E+03  0.00000000000E+00 0.  1.
         11   -1    0    0    0    0 -0.00000000000E+00 -0.00000000000E+00 -0.50000000000E+03  0.50000000000E+03  0.00000000000E+00 0. -1.
         23    2    1    2    0    0  0.14749247019E+03 -0.11493621333E+03 -0.43281755380E+03  0.48013064588E+03  0.90719569778E+02 0.  0.
        -11    1    1    2    0    0 -0.17815971769E+03  0.83725908713E+02  0.43350675878E+03  0.47610820483E+03  0.00000000000E+00 0.  1.
         11    1    1    2    0    0  0.30667247503E+02  0.31210304613E+02 -0.68920498186E+00  0.43761149287E+02  0.00000000000E+00 0. -1.
        -15    1    3    3    0    0  0.96107707981E+01 -0.45353557013E+02 -0.54959897880E+02  0.71923988718E+02  0.17770000000E+01 0.  1.
         15    1    3    3    0    0  0.13788169939E+03 -0.69582656313E+02 -0.37785765592E+03  0.40820665716E+03  0.17770000000E+01 0. -1.
</event>
<event>
 7    1  0.4133533E-006  0.4951857E+03  0.7546771E-02  0.9410647E-01
        -11   -1    0    0    0    0  0.00000000000E+00  0.00000000000E+00  0.50000000000E+03  0.50000000000E+03  0.00000000000E+00 0.  1.
         11   -1    0    0    0    0 -0.00000000000E+00 -0.00000000000E+00 -0.50000000000E+03  0.50000000000E+03  0.00000000000E+00 0. -1.
         23    2    1    2    0    0  0.13833033221E+02  0.98843266811E+02 -0.47177493736E+03  0.49230154130E+03  0.99135623451E+02 0.  0.
        -11    1    1    2    0    0 -0.26684386659E+02 -0.86601280590E+02  0.47975482372E+03  0.48823818897E+03  0.00000000000E+00 0.  1.
         11    1    1    2    0    0  0.12851353438E+02 -0.12241986221E+02 -0.79798863551E+01  0.19460269733E+02  0.00000000000E+00 0. -1.
        -15    1    3    3    0    0  0.55127071878E+01 -0.14712124244E+02 -0.15914708578E+02  0.22433729482E+02  0.17770000000E+01 0.  1.
         15    1    3    3    0    0  0.83203260330E+01  0.11355539106E+03 -0.45586022878E+03  0.46986781181E+03  0.17770000000E+01 0. -1.
</event>
<event>
 7    1  0.4133533E-006  0.5194581E+03  0.7546771E-02  0.9357293E-01
        -11   -1    0    0    0    0  0.00000000000E+00  0.00000000000E+00  0.50000000000E+03  0.50000000000E+03  0.00000000000E+00 0. -1.
         11   -1    0    0    0    0 -0.00000000000E+00 -0.00000000000E+00 -0.50000000000E+03  0.50000000000E+03  0.00000000000E+00 0.  1.
         23    2    1    2    0    0 -0.31431019257E+02 -0.97004265949E+02 -0.38079610594E+03  0.40627423356E+03  0.98261599671E+02 0.  0.
        -11    1    1    2    0    0 -0.32511649392E+02  0.15566273346E+03  0.45346733322E+03  0.48054189852E+03  0.00000000000E+00 0. -1.
         11    1    1    2    0    0  0.63942668649E+02 -0.58658467514E+02 -0.72671227278E+02  0.11318386793E+03  0.00000000000E+00 0.  1.
        -15    1    3    3    0    0 -0.41352061724E+02 -0.44192894857E+02 -0.78004959872E+02  0.98746830118E+02  0.17770000000E+01 0. -1.
         15    1    3    3    0    0  0.99210424673E+01 -0.52811371093E+02 -0.30279114607E+03  0.30752740344E+03  0.17770000000E+01 0.  1.
</event>
<event>
 7    1  0.4133533E-006  0.3742651E+03  0.7546771E-02  0.9735653E-01
        -11   -1    0    0    0    0  0.00000000000E+00  0.00000000000E+00  0.50000000000E+03  0.50000000000E+03  0.00000000000E+00 0. -1.
         11   -1    0    0    0    0 -0.00000000000E+00 -0.00000000000E+00 -0.50000000000E+03  0.50000000000E+03  0.00000000000E+00 0.  1.
         23    2    1    2    0    0  0.52062717010E+02  0.13751561614E+03 -0.14257622131E+03  0.22395449026E+03  0.90590085775E+02 0.  0.
        -11    1    1    2    0    0 -0.14596075160E+03  0.56464116360E+02  0.40633845156E+03  0.43543504069E+03  0.00000000000E+00 0. -1.
         11    1    1    2    0    0  0.93898034589E+02 -0.19397973250E+03 -0.26376223025E+03  0.34061046905E+03  0.00000000000E+00 0.  1.
        -15    1    3    3    0    0  0.61798573872E+02  0.14377631277E+03 -0.11567205102E+03  0.19461210898E+03  0.17770000000E+01 0. -1.
         15    1    3    3    0    0 -0.97358568619E+01 -0.62606966322E+01 -0.26904170287E+02  0.29342381277E+02  0.17770000000E+01 0.  1.
</event>
<event>
 7    1  0.4133533E-006  0.4850730E+03  0.7546771E-02  0.9433844E-01
        -11   -1    0    0    0    0  0.00000000000E+00  0.00000000000E+00  0.50000000000E+03  0.50000000000E+03  0.00000000000E+00 0. -1.
         11   -1    0    0    0    0 -0.00000000000E+00 -0.00000000000E+00 -0.50000000000E+03  0.50000000000E+03  0.00000000000E+00 0. -1.
         23    2    1    2    0    0 -0.60021660754E+02 -0.44798583453E+03 -0.13205281414E+03  0.47946856975E+03  0.90323064373E+02 0.  0.
        -11    1    1    2    0    0 -0.90643091071E+01 -0.19181219383E+02  0.31046360770E+02  0.37602624824E+02  0.00000000000E+00 0. -1.
         11    1    1    2    0    0  0.69085969861E+02  0.46716705391E+03  0.10100645337E+03  0.48292880543E+03  0.00000000000E+00 0. -1.
        -15    1    3    3    0    0  0.15091136977E+02 -0.15369134955E+02 -0.93909835244E+01  0.23564826014E+02  0.17770000000E+01 0.  1.
         15    1    3    3    0    0 -0.75112797731E+02 -0.43261669957E+03 -0.12266183062E+03  0.45590374373E+03  0.17770000000E+01 0. -1.
</event>
<event>
 6    1  0.4133533E-006  0.3863434E+03  0.7546771E-02  0.9697635E-01
        -11   -1    0    0    0    0  0.00000000000E+00  0.00000000000E+00  0.50000000000E+03  0.50000000000E+03  0.00000000000E+00 0.  1.
         11   -1    0    0    0    0 -0.00000000000E+00 -0.00000000000E+00 -0.50000000000E+03  0.50000000000E+03  0.00000000000E+00 0. -1.
        -11    1    1    2    0    0  0.45902122382E+02 -0.12702599609E+03  0.34991489795E+03  0.37507738445E+03  0.00000000000E+00 0.  1.
         11    1    1    2    0    0  0.10873010971E+03  0.83556447464E+02 -0.39195167712E+03  0.41524695528E+03  0.00000000000E+00 0. -1.
        -15    1    1    2    0    0 -0.94760263699E+02  0.75533992521E+02  0.65544633770E+02  0.13778297554E+03  0.17770000000E+01 0.  1.
         15    1    1    2    0    0 -0.59871968392E+02 -0.32064443890E+02 -0.23507854594E+02  0.71892684731E+02  0.17770000000E+01 0. -1.
</event>
<event>
 7    1  0.4133533E-006  0.4186268E+03  0.7546771E-02  0.9602911E-01
        -11   -1    0    0    0    0  0.00000000000E+00  0.00000000000E+00  0.50000000000E+03  0.50000000000E+03  0.00000000000E+00 0. -1.
         11   -1    0    0    0    0 -0.00000000000E+00 -0.00000000000E+00 -0.50000000000E+03  0.50000000000E+03  0.00000000000E+00 0.  1.
         23    2    1    2    0    0  0.11537096395E+03  0.36851005317E+02 -0.21352332036E+02  0.15376238217E+03  0.92295677969E+02 0.  0.
        -11    1    1    2    0    0  0.36788836027E+02  0.82713993830E+02  0.40583098256E+03  0.41580501397E+03  0.00000000000E+00 0. -1.
         11    1    1    2    0    0 -0.15215979998E+03 -0.11956499915E+03 -0.38447865053E+03  0.43043260386E+03  0.00000000000E+00 0.  1.
        -15    1    3    3    0    0  0.56654617696E+02 -0.14594001429E+01 -0.52270028085E+02  0.77118020721E+02  0.17770000000E+01 0.  1.
         15    1    3    3    0    0  0.58716346259E+02  0.38310405459E+02  0.30917696049E+02  0.76644361453E+02  0.17770000000E+01 0. -1.
</event>
<event>
 7    1  0.4133533E-006  0.5251165E+03  0.7546771E-02  0.9345299E-01
        -11   -1    0    0    0    0  0.00000000000E+00  0.00000000000E+00  0.50000000000E+03  0.50000000000E+03  0.00000000000E+00 0.  1.
         11   -1    0    0    0    0 -0.00000000000E+00 -0.00000000000E+00 -0.50000000000E+03  0.50000000000E+03  0.00000000000E+00 0. -1.
         23    2    1    2    0    0  0.13369747291E+02  0.17566763430E+03  0.36256038765E+03  0.41364536078E+03  0.92814772106E+02 0.  0.
        -11    1    1    2    0    0 -0.87968735366E+02  0.11382224635E+02  0.67511274125E+02  0.11147118719E+03  0.00000000000E+00 0.  1.
         11    1    1    2    0    0  0.74598988075E+02 -0.18704985894E+03 -0.43007166177E+03  0.47488345203E+03  0.00000000000E+00 0. -1.
        -15    1    3    3    0    0 -0.19610858888E+02  0.13790781413E+03  0.20160217457E+03  0.24505049582E+03  0.17770000000E+01 0.  1.
         15    1    3    3    0    0  0.32980606179E+02  0.37759820175E+02  0.16095821308E+03  0.16859486496E+03  0.17770000000E+01 0. -1.
</event>
<event>
 7    1  0.4133533E-006  0.5142599E+03  0.7546771E-02  0.9368456E-01
        -11   -1    0    0    0    0  0.00000000000E+00  0.00000000000E+00  0.50000000000E+03  0.50000000000E+03  0.00000000000E+00 0. -1.
         11   -1    0    0    0    0 -0.00000000000E+00 -0.00000000000E+00 -0.50000000000E+03  0.50000000000E+03  0.00000000000E+00 0. -1.
         23    2    1    2    0    0 -0.16206543931E+02 -0.20151716435E+03  0.26663417950E+03  0.34672798364E+03  0.90855321073E+02 0.  0.
        -11    1    1    2    0    0 -0.25351135990E+02 -0.18136835495E+02  0.16460652952E+03  0.16753189087E+03  0.00000000000E+00 0. -1.
         11    1    1    2    0    0  0.41557679921E+02  0.21965399984E+03 -0.43124070902E+03  0.48574012550E+03  0.00000000000E+00 0. -1.
        -15    1    3    3    0    0 -0.47125595919E+02 -0.16777065534E+03  0.19326490984E+03  0.26023508159E+03  0.17770000000E+01 0. -1.
         15    1    3    3    0    0  0.30919051989E+02 -0.33746509011E+02  0.73369269655E+02  0.86492902050E+02  0.17770000000E+01 0.  1.
</event>
<event>
 7    1  0.4133533E-006  0.3736692E+03  0.7546771E-02  0.9737568E-01
        -11   -1    0    0    0    0  0.00000000000E+00  0.00000000000E+00  0.50000000000E+03  0.50000000000E+03  0.00000000000E+00 0.  1.
         11   -1    0    0    0    0 -0.00000000000E+00 -0.00000000000E+00 -0.50000000000E+03  0.50000000000E+03  0.00000000000E+00 0.  1.
         23    2    1    2    0    0 -0.96362332582E+01  0.14273967800E+03 -0.30887391505E+03  0.35264132276E+03  0.92115875131E+02 0.  0.
        -11    1    1    2    0    0 -0.18118864617E+03 -0.34282019447E+02  0.37519732011E+03  0.41806412352E+03  0.00000000000E+00 0.  1.
         11    1    1    2    0    0  0.19082487943E+03 -0.10845765855E+03 -0.66323405058E+02  0.22929455372E+03  0.00000000000E+00 0.  1.
        -15    1    3    3    0    0 -0.18214681121E+02  0.11507753166E+03 -0.30071232182E+03  0.32249910252E+03  0.17770000000E+01 0.  1.
         15    1    3    3    0    0  0.85784478623E+01  0.27662146337E+02 -0.81615932250E+01  0.30142220235E+02  0.17770000000E+01 0. -1.
</event>
<event>
 7    1  0.4133533E-006  0.5373025E+03  0.7546771E-02  0.9320005E-01
        -11   -1    0    0    0    0  0.00000000000E+00  0.00000000000E+00  0.50000000000E+03  0.50000000000E+03  0.00000000000E+00 0.  1.
         11   -1    0    0    0    0 -0.00000000000E+00 -0.00000000000E+00 -0.50000000000E+03  0.50000000000E+03  0.00000000000E+00 0. -1.
         23    2    1    2    0    0  0.34163064491E+02 -0.77330000576E+02  0.92286971774E+02  0.15387382054E+03  0.89516610319E+02 0.  0.
        -11    1    1    2    0    0  0.34330364573E+03  0.21452523481E+02  0.16941053985E+03  0.38342865692E+03  0.00000000000E+00 0.  1.
         11    1    1    2    0    0 -0.37746671022E+03  0.55877477095E+02 -0.26169751163E+03  0.46269752254E+03  0.00000000000E+00 0. -1.
        -15    1    3    3    0    0  0.69433070172E+01 -0.91682895447E+02  0.73960159480E+02  0.11801366764E+03  0.17770000000E+01 0. -1.
         15    1    3    3    0    0  0.27219757474E+02  0.14352894871E+02  0.18326812294E+02  0.35860152900E+02  0.17770000000E+01 0.  1.
</event>
<event>
 7    1  0.4133533E-006  0.5051241E+03  0.7546771E-02  0.9388417E-01
        -11   -1    0    0    0    0  0.00000000000E+00  0.00000000000E+00  0.50000000000E+03  0.50000000000E+03  0.00000000000E+00 0.  1.
         11   -1    0    0    0    0 -0.00000000000E+00 -0.00000000000E+00 -0.50000000000E+03  0.50000000000E+03  0.00000000000E+00 0. -1.
         23    2    1    2    0    0 -0.14272891516E+03 -0.14095891827E+02 -0.46491916378E+03  0.49487592701E+03  0.90455054564E+02 0.  0.
        -11    1    1    2    0    0  0.10890822084E+03  0.42647628587E+02  0.43793824270E+03  0.45328768482E+03  0.00000000000E+00 0.  1.
         11    1    1    2    0    0  0.33820694321E+02 -0.28551736760E+02  0.26980921076E+02  0.51836388169E+02  0.00000000000E+00 0. -1.
        -15    1    3    3    0    0  0.11712918506E+02  0.65975249318E+01 -0.43693634595E+02  0.45749439650E+02  0.17770000000E+01 0.  1.
         15    1    3    3    0    0 -0.15444183367E+03 -0.20693416759E+02 -0.42122552918E+03  0.44912648736E+03  0.17770000000E+01 0. -1.
</event>
<event>
 7    1  0.4133533E-006  0.4256268E+03  0.7546771E-02  0.9583572E-01
        -11   -1    0    0    0    0  0.00000000000E+00  0.00000000000E+00  0.50000000000E+03  0.50000000000E+03  0.00000000000E+00 0.  1.
         11   -1    0    0    0    0 -0.00000000000E+00 -0.00000000000E+00 -0.50000000000E+03  0.50000000000E+03  0.00000000000E+00 0. -1.
         23    2    1    2    0    0 -0.45572871557E+02  0.60940174897E+02 -0.44251252658E+03  0.45776353740E+03  0.89104031630E+02 0.  0.
        -11    1    1    2    0    0 -0.65553511943E+02  0.17715260689E+02  0.39071182908E+03  0.39656881720E+03  0.00000000000E+00 0.  1.
         11    1    1    2    0    0  0.11112638350E+03 -0.78655435586E+02  0.51800697496E+02  0.14566764541E+03  0.00000000000E+00 0. -1.
        -15    1    3    3    0    0  0.26786832560E+02  0.21900332541E+02 -0.14635276111E+03  0.15039763089E+03  0.17770000000E+01 0. -1.
         15    1    3    3    0    0 -0.72359704116E+02  0.39039842356E+02 -0.29615976547E+03  0.30736590651E+03  0.17770000000E+01 0.  1.
</event>
<event>
 7    1  0.4133533E-006  0.4096992E+03  0.7546771E-02  0.9628169E-01
        -11   -1    0    0    0    0  0.00000000000E+00  0.00000000000E+00  0.50000000000E+03  0.50000000000E+03  0.00000000000E+00 0.  1.
         11   -1    0    0    0    0 -0.00000000000E+00 -0.00000000000E+00 -0.50000000000E+03  0.50000000000E+03  0.00000000000E+00 0. -1.
         23    2    1    2    0    0  0.90454757773E+02 -0.19159879382E+03 -0.31813401683E+03  0.39330317735E+03  0.92660539907E+02 0.  0.
        -11    1    1    2    0    0  0.33787927057E+01  0.91999907314E+02  0.42387907986E+03  0.43376130939E+03  0.00000000000E+00 0.  1.
         11    1    1    2    0    0 -0.93833550479E+02  0.99598886507E+02 -0.10574506303E+03  0.17293551325E+03  0.00000000000E+00 0. -1.
        -15    1    3    3    0    0  0.52481641888E+02 -0.18529576928E+03 -0.26012017760E+03  0.32365801299E+03  0.17770000000E+01 0.  1.
         15    1    3    3    0    0  0.37973115885E+02 -0.63030245410E+01 -0.58013839231E+02  0.69645164367E+02  0.17770000000E+01 0. -1.
</event>
<event>
 7    1  0.4133533E-006  0.5136412E+03  0.7546771E-02  0.9369793E-01
        -11   -1    0    0    0    0  0.00000000000E+00  0.00000000000E+00  0.50000000000E+03  0.50000000000E+03  0.00000000000E+00 0.  1.
         11   -1    0    0    0    0 -0.00000000000E+00 -0.00000000000E+00 -0.50000000000E+03  0.50000000000E+03  0.00000000000E+00 0. -1.
         23    2    1    2    0    0  0.22450475613E+02  0.51715709933E+02 -0.24361336298E+03  0.27369143641E+03  0.11126991162E+03 0.  0.
        -11    1    1    2    0    0  0.12953940808E+02 -0.88322672557E+02  0.47809646343E+03  0.48635884634E+03  0.00000000000E+00 0.  1.
         11    1    1    2    0    0 -0.35404416421E+02  0.36606962624E+02 -0.23448310045E+03  0.23994971725E+03  0.00000000000E+00 0. -1.
        -15    1    3    3    0    0  0.27707395203E+02  0.35604504914E+01 -0.28950705988E+01  0.28140997129E+02  0.17770000000E+01 0.  1.
         15    1    3    3    0    0 -0.52569195895E+01  0.48155259442E+02 -0.24071829238E+03  0.24555043928E+03  0.17770000000E+01 0. -1.
</event>
<event>
 7    1  0.4133533E-006  0.3795272E+03  0.7546771E-02  0.9718904E-01
        -11   -1    0    0    0    0  0.00000000000E+00  0.00000000000E+00  0.50000000000E+03  0.50000000000E+03  0.00000000000E+00 0. -1.
         11   -1    0    0    0    0 -0.00000000000E+00 -0.00000000000E+00 -0.50000000000E+03  0.50000000000E+03  0.00000000000E+00 0. -1.
         23    2    1    2    0    0  0.57438470722E+02 -0.19018761457E+03 -0.23762654173E+03  0.32365357294E+03  0.93886928224E+02 0.  0.
        -11    1    1    2    0    0  0.91314941798E+01  0.12525362871E+03  0.43789082147E+03  0.45554388068E+03  0.00000000000E+00 0. -1.
         11    1    1    2    0    0 -0.66569964901E+02  0.64933985859E+02 -0.20026427975E+03  0.22080254638E+03  0.00000000000E+00 0. -1.
        -15    1    3    3    0    0  0.50578682641E+02 -0.11685211331E+03 -0.20873978888E+03  0.24451600502E+03  0.17770000000E+01 0. -1.
         15    1    3    3    0    0  0.68597880811E+01 -0.73335501255E+02 -0.28886752849E+02  0.79137567918E+02  0.17770000000E+01 0.  1.
</event>
<event>
 7    1  0.4133533E-006  0.5120822E+03  0.7546771E-02  0.9373174E-01
        -11   -1    0    0    0    0  0.00000000000E+00  0.00000000000E+00  0.50000000000E+03  0.50000000000E+03  0.00000000000E+00 0.  1.
         11   -1    0    0    0    0 -0.00000000000E+00 -0.00000000000E+00 -0.50000000000E+03  0.50000000000E+03  0.00000000000E+00 0. -1.
         23    2    1    2    0    0  0.13178048808E+03  0.60043648147E+01  0.36913923118E+03  0.40243306634E+03  0.91029948104E+02 0.  0.
        -11    1    1    2    0    0 -0.23118988914E+02  0.15684704421E+02  0.10603030281E+03  0.10964908898E+03  0.00000000000E+00 0.  1.
         11    1    1    2    0    0 -0.10866149917E+03 -0.21689069236E+02 -0.47516953399E+03  0.48791784468E+03  0.00000000000E+00 0. -1.
        -15    1    3    3    0    0  0.13757145107E+03  0.20724652205E+02  0.35442289818E+03  0.38075472925E+03  0.17770000000E+01 0.  1.
         15    1    3    3    0    0 -0.57909629908E+01 -0.14720287390E+02  0.14716332997E+02  0.21678337093E+02  0.17770000000E+01 0. -1.
</event>
<event>
 7    1  0.4133533E-006  0.5185397E+03  0.7546771E-02  0.9359255E-01
        -11   -1    0    0    0    0  0.00000000000E+00  0.00000000000E+00  0.50000000000E+03  0.50000000000E+03  0.00000000000E+00 0. -1.
         11   -1    0    0    0    0 -0.00000000000E+00 -0.00000000000E+00 -0.50000000000E+03  0.50000000000E+03  0.00000000000E+00 0. -1.
         23    2    1    2    0    0 -0.18169456238E+03 -0.10929915675E+03 -0.33221574859E+03  0.40568173820E+03  0.96182895708E+02 0.  0.
        -11    1    1    2    0    0 -0.60565245372E+02 -0.89151837262E+02 -0.33477264954E+02  0.11285799176E+03  0.00000000000E+00 0. -1.
         11    1    1    2    0    0  0.24225980776E+03  0.19845099402E+03  0.36569301354E+03  0.48146027005E+03  0.00000000000E+00 0. -1.
        -15    1    3    3    0    0 -0.14781715035E+03 -0.95618152336E+02 -0.19081850841E+03  0.25962973997E+03  0.17770000000E+01 0. -1.
         15    1    3    3    0    0 -0.33877412038E+02 -0.13681004418E+02 -0.14139724018E+03  0.14605199823E+03  0.17770000000E+01 0.  1.
</event>
<event>
 7    1  0.4133533E-006  0.5129620E+03  0.7546771E-02  0.9371264E-01
        -11   -1    0    0    0    0  0.00000000000E+00  0.00000000000E+00  0.50000000000E+03  0.50000000000E+03  0.00000000000E+00 0.  1.
         11   -1    0    0    0    0 -0.00000000000E+00 -0.00000000000E+00 -0.50000000000E+03  0.50000000000E+03  0.00000000000E+00 0. -1.
         23    2    1    2    0    0  0.49197142393E+02  0.88928017771E+02 -0.34812288355E+03  0.37464690188E+03  0.94033014830E+02 0.  0.
        -11    1    1    2    0    0 -0.35566190310E+02 -0.18035407632E+03  0.45101380869E+03  0.48703798863E+03  0.00000000000E+00 0.  1.
         11    1    1    2    0    0 -0.13630952083E+02  0.91426058551E+02 -0.10289092514E+03  0.13831510949E+03  0.00000000000E+00 0. -1.
        -15    1    3    3    0    0 -0.17774666081E+02  0.64612100943E+02 -0.17748227303E+03  0.18972026068E+03  0.17770000000E+01 0.  1.
         15    1    3    3    0    0  0.66971808474E+02  0.24315916828E+02 -0.17064061052E+03  0.18492664121E+03  0.17770000000E+01 0. -1.
</event>
<event>
 7    1  0.4133533E-006  0.5280073E+03  0.7546771E-02  0.9339234E-01
        -11   -1    0    0    0    0  0.00000000000E+00  0.00000000000E+00  0.50000000000E+03  0.50000000000E+03  0.00000000000E+00 0. -1.
         11   -1    0    0    0    0 -0.00000000000E+00 -0.00000000000E+00 -0.50000000000E+03  0.50000000000E+03  0.00000000000E+00 0.  1.
         23    2    1    2    0    0  0.95496396930E+02  0.41429913323E+02 -0.23344460103E+03  0.27269229525E+03  0.95019506383E+02 0.  0.
        -11    1    1    2    0    0  0.45362625780E+01 -0.77794825600E+02  0.46551530358E+03  0.47199270168E+03  0.00000000000E+00 0. -1.
         11    1    1    2    0    0 -0.10003265951E+03  0.36364912277E+02 -0.23207070255E+03  0.25531500308E+03  0.00000000000E+00 0.  1.
        -15    1    3    3    0    0  0.13887534265E+02 -0.11240993168E+02  0.19296653012E+01  0.18058374028E+02  0.17770000000E+01 0. -1.
         15    1    3    3    0    0  0.81608862665E+02  0.52670906491E+02 -0.23537426633E+03  0.25463392122E+03  0.17770000000E+01 0.  1.
</event>
<event>
 7    1  0.4133533E-006  0.5201327E+03  0.7546771E-02  0.9355855E-01
        -11   -1    0    0    0    0  0.00000000000E+00  0.00000000000E+00  0.50000000000E+03  0.50000000000E+03  0.00000000000E+00 0.  1.
         11   -1    0    0    0    0 -0.00000000000E+00 -0.00000000000E+00 -0.50000000000E+03  0.50000000000E+03  0.00000000000E+00 0. -1.
         23    2    1    2    0    0  0.84618285763E+02 -0.10053523380E+02  0.24593090087E+03  0.27579095702E+03  0.91199322110E+02 0.  0.
        -11    1    1    2    0    0 -0.57999206461E+02 -0.72382770922E+02  0.22605246716E+03  0.24434175122E+03  0.00000000000E+00 0.  1.
         11    1    1    2    0    0 -0.26619079301E+02  0.82436294302E+02 -0.47198336804E+03  0.47986729176E+03  0.00000000000E+00 0. -1.
        -15    1    3    3    0    0 -0.36599409470E+01 -0.32268487373E+02  0.48738666484E+02  0.58594076362E+02  0.17770000000E+01 0. -1.
         15    1    3    3    0    0  0.88278226710E+02  0.22214963994E+02  0.19719223439E+03  0.21719688066E+03  0.17770000000E+01 0.  1.
</event>
<event>
 7    1  0.4133533E-006  0.5096037E+03  0.7546771E-02  0.9378573E-01
        -11   -1    0    0    0    0  0.00000000000E+00  0.00000000000E+00  0.50000000000E+03  0.50000000000E+03  0.00000000000E+00 0. -1.
         11   -1    0    0    0    0 -0.00000000000E+00 -0.00000000000E+00 -0.50000000000E+03  0.50000000000E+03  0.00000000000E+00 0.  1.
         23    2    1    2    0    0  0.10670615949E+03  0.69411070551E+02 -0.24004333831E+03  0.28718298601E+03  0.93000870956E+02 0.  0.
        -11    1    1    2    0    0 -0.14945934065E+03 -0.15800881998E+03  0.43952661810E+03  0.49039629864E+03  0.00000000000E+00 0. -1.
         11    1    1    2    0    0  0.42753181158E+02  0.88597749427E+02 -0.19948327979E+03  0.22242071536E+03  0.00000000000E+00 0.  1.
        -15    1    3    3    0    0  0.66188958359E+02  0.54949067948E+02 -0.67535269328E+02  0.10938257909E+03  0.17770000000E+01 0.  1.
         15    1    3    3    0    0  0.40517201128E+02  0.14462002603E+02 -0.17250806898E+03  0.17780040691E+03  0.17770000000E+01 0. -1.
</event>
<event>
 7    1  0.4133533E-006  0.5301901E+03  0.7546771E-02  0.9334681E-01
        -11   -1    0    0    0    0  0.00000000000E+00  0.00000000000E+00  0.50000000000E+03  0.50000000000E+03  0.00000000000E+00 0.  1.
         11   -1    0    0    0    0 -0.00000000000E+00 -0.00000000000E+00 -0.50000000000E+03  0.50000000000E+03  0.00000000000E+00 0. -1.
         23    2    1    2    0    0  0.31218380418E+02  0.18040387284E+02 -0.70607470431E+02  0.12049236526E+03  0.90735617902E+02 0.  0.
        -11    1    1    2    0    0  0.11494453081E+03 -0.13188312618E+03  0.43602290305E+03  0.46980993617E+03  0.00000000000E+00 0.  1.
         11    1    1    2    0    0 -0.14616291123E+03  0.11384273890E+03 -0.36541543262E+03  0.40969769857E+03  0.00000000000E+00 0. -1.
        -15    1    3    3    0    0  0.46977918389E+02  0.41935458607E+02 -0.27550006724E+02  0.68758040287E+02  0.17770000000E+01 0.  1.
         15    1    3    3    0    0 -0.15759537970E+02 -0.23895071322E+02 -0.43057463707E+02  0.51734324973E+02  0.17770000000E+01 0. -1.
</event>
<event>
 7    1  0.4133533E-006  0.5183236E+03  0.7546771E-02  0.9359718E-01
        -11   -1    0    0    0    0  0.00000000000E+00  0.00000000000E+00  0.50000000000E+03  0.50000000000E+03  0.00000000000E+00 0.  1.
         11   -1    0    0    0    0 -0.00000000000E+00 -0.00000000000E+00 -0.50000000000E+03  0.50000000000E+03  0.00000000000E+00 0. -1.
         23    2    1    2    0    0  0.23933839859E+02 -0.13881186128E+02 -0.27484635396E+03  0.29954024985E+03  0.11583750244E+03 0.  0.
        -11    1    1    2    0    0 -0.44150320524E+02 -0.74960222597E+02  0.47375504101E+03  0.48167636921E+03  0.00000000000E+00 0.  1.
         11    1    1    2    0    0  0.20216480665E+02  0.88841408725E+02 -0.19890868705E+03  0.21878338094E+03  0.00000000000E+00 0. -1.
        -15    1    3    3    0    0 -0.25128749492E+02  0.34902904418E+02 -0.15776842972E+03  0.16353501745E+03  0.17770000000E+01 0.  1.
         15    1    3    3    0    0  0.49062589351E+02 -0.48784090545E+02 -0.11707792424E+03  0.13600523239E+03  0.17770000000E+01 0. -1.
</event>
<event>
 7    1  0.4133533E-006  0.3384860E+03  0.7546771E-02  0.9857949E-01
        -11   -1    0    0    0    0  0.00000000000E+00  0.00000000000E+00  0.50000000000E+03  0.50000000000E+03  0.00000000000E+00 0. -1.
         11   -1    0    0    0    0 -0.00000000000E+00 -0.00000000000E+00 -0.50000000000E+03  0.50000000000E+03  0.00000000000E+00 0.  1.
         23    2    1    2    0    0 -0.56765289054E+02 -0.15638129746E+03 -0.22126507632E+03  0.29162803135E+03  0.91712956728E+02 0.  0.
        -11    1    1    2    0    0  0.10699814011E+03 -0.39931714721E+02  0.41354599388E+03  0.42902614475E+03  0.00000000000E+00 0. -1.
         11    1    1    2    0    0 -0.50232851061E+02  0.19631301218E+03 -0.19228091755E+03  0.27934582390E+03  0.00000000000E+00 0.  1.
        -15    1    3    3    0    0 -0.28763262029E+02 -0.54530582876E+02 -0.20907950213E+02  0.65124571572E+02  0.17770000000E+01 0.  1.
         15    1    3    3    0    0 -0.28002027024E+02 -0.10185071458E+03 -0.20035712611E+03  0.22650345978E+03  0.17770000000E+01 0. -1.
</event>
<event>
 7    1  0.4133533E-006  0.4613458E+03  0.7546771E-02  0.9490714E-01
        -11   -1    0    0    0    0  0.00000000000E+00  0.00000000000E+00  0.50000000000E+03  0.50000000000E+03  0.00000000000E+00 0.  1.
         11   -1    0    0    0    0 -0.00000000000E+00 -0.00000000000E+00 -0.50000000000E+03  0.50000000000E+03  0.00000000000E+00 0. -1.
         23    2    1    2    0    0  0.41594509841E+02 -0.18927262599E+02 -0.44644345152E+03  0.45768584817E+03  0.89867879047E+02 0.  0.
        -11    1    1    2    0    0 -0.23575885206E+02  0.99345488963E+02  0.44840063839E+03  0.45987876777E+03  0.00000000000E+00 0.  1.
         11    1    1    2    0    0 -0.18018624635E+02 -0.80418226364E+02 -0.19571868620E+01  0.82435384064E+02  0.00000000000E+00 0. -1.
        -15    1    3    3    0    0  0.45774303649E+02 -0.50022885594E+02 -0.34002793007E+03  0.34672716495E+03  0.17770000000E+01 0. -1.
         15    1    3    3    0    0 -0.41797938084E+01  0.31095622995E+02 -0.10641552146E+03  0.11095868322E+03  0.17770000000E+01 0.  1.
</event>
<event>
 7    1  0.4133533E-006  0.4020884E+03  0.7546771E-02  0.9650250E-01
        -11   -1    0    0    0    0  0.00000000000E+00  0.00000000000E+00  0.50000000000E+03  0.50000000000E+03  0.00000000000E+00 0.  1.
         11   -1    0    0    0    0 -0.00000000000E+00 -0.00000000000E+00 -0.50000000000E+03  0.50000000000E+03  0.00000000000E+00 0. -1.
         23    2    1    2    0    0  0.13589274546E+03  0.28291978612E+03 -0.30837700349E+03  0.45814550333E+03  0.12763417371E+03 0.  0.
        -11    1    1    2    0    0 -0.36353422297E+02 -0.11832564730E+03  0.32598736907E+03  0.34869799958E+03  0.00000000000E+00 0.  1.
         11    1    1    2    0    0 -0.99539323160E+02 -0.16459413882E+03 -0.17610365584E+02  0.19315649708E+03  0.00000000000E+00 0. -1.
        -15    1    3    3    0    0 -0.15191686197E+02  0.26084875128E+02 -0.13166422914E+01  0.30267132601E+02  0.17770000000E+01 0.  1.
         15    1    3    3    0    0  0.15108443165E+03  0.25683491099E+03 -0.30706036119E+03  0.42787837073E+03  0.17770000000E+01 0. -1.
</event>
<event>
 7    1  0.4133533E-006  0.5265597E+03  0.7546771E-02  0.9342266E-01
        -11   -1    0    0    0    0  0.00000000000E+00  0.00000000000E+00  0.50000000000E+03  0.50000000000E+03  0.00000000000E+00 0.  1.
         11   -1    0    0    0    0 -0.00000000000E+00 -0.00000000000E+00 -0.50000000000E+03  0.50000000000E+03  0.00000000000E+00 0. -1.
         23    2    1    2    0    0  0.20754838971E+02 -0.79663397544E+01  0.18788303393E+03  0.20904947473E+03  0.88923689409E+02 0.  0.
        -11    1    1    2    0    0  0.80347253204E+02  0.20064362846E+03  0.23259234433E+03  0.31751022878E+03  0.00000000000E+00 0.  1.
         11    1    1    2    0    0 -0.10110209217E+03 -0.19267728871E+03 -0.42047537825E+03  0.47344029649E+03  0.00000000000E+00 0. -1.
        -15    1    3    3    0    0  0.43391190076E+02  0.22292279272E+02  0.13843792265E+03  0.14679222475E+03  0.17770000000E+01 0.  1.
         15    1    3    3    0    0 -0.22636351105E+02 -0.30258619026E+02  0.49445111279E+02  0.62257249980E+02  0.17770000000E+01 0. -1.
</event>
<event>
 7    1  0.4133533E-006  0.4820039E+03  0.7546771E-02  0.9441003E-01
        -11   -1    0    0    0    0  0.00000000000E+00  0.00000000000E+00  0.50000000000E+03  0.50000000000E+03  0.00000000000E+00 0.  1.
         11   -1    0    0    0    0 -0.00000000000E+00 -0.00000000000E+00 -0.50000000000E+03  0.50000000000E+03  0.00000000000E+00 0. -1.
         23    2    1    2    0    0 -0.16386622639E+03 -0.14906774105E+02 -0.44428856882E+03  0.48278154254E+03  0.92797270300E+02 0.  0.
        -11    1    1    2    0    0  0.18870574420E+03  0.48786735142E+02  0.43121807154E+03  0.47322196551E+03  0.00000000000E+00 0.  1.
         11    1    1    2    0    0 -0.24839517807E+02 -0.33879961036E+02  0.13070497281E+02  0.43996491950E+02  0.00000000000E+00 0. -1.
        -15    1    3    3    0    0 -0.43659142418E+02 -0.13513856143E+02 -0.39230858683E+02  0.60257472786E+02  0.17770000000E+01 0.  1.
         15    1    3    3    0    0 -0.12020708397E+03 -0.13929179622E+01 -0.40505771013E+03  0.42252406976E+03  0.17770000000E+01 0. -1.
</event>
<event>
 7    1  0.4133533E-006  0.4591529E+03  0.7546771E-02  0.9496153E-01
        -11   -1    0    0    0    0  0.00000000000E+00  0.00000000000E+00  0.50000000000E+03  0.50000000000E+03  0.00000000000E+00 0. -1.
         11   -1    0    0    0    0 -0.00000000000E+00 -0.00000000000E+00 -0.50000000000E+03  0.50000000000E+03  0.00000000000E+00 0.  1.
         23    2    1    2    0    0  0.17596993163E+02 -0.25363639584E+02 -0.45351835410E+03  0.46369916981E+03  0.91569941522E+02 0.  0.
        -11    1    1    2    0    0 -0.11227016631E+02  0.11005821349E+03  0.43569007134E+03  0.44951606703E+03  0.00000000000E+00 0. -1.
         11    1    1    2    0    0 -0.63699765319E+01 -0.84694573904E+02  0.17828282766E+02  0.86784763157E+02  0.00000000000E+00 0.  1.
        -15    1    3    3    0    0 -0.15603976751E+02  0.27832104356E+02 -0.11212900093E+03  0.11659408519E+03  0.17770000000E+01 0. -1.
         15    1    3    3    0    0  0.33200969914E+02 -0.53195743939E+02 -0.34138935318E+03  0.34710508462E+03  0.17770000000E+01 0.  1.
</event>
<event>
 7    1  0.4133533E-006  0.4544422E+03  0.7546771E-02  0.9507948E-01
        -11   -1    0    0    0    0  0.00000000000E+00  0.00000000000E+00  0.50000000000E+03  0.50000000000E+03  0.00000000000E+00 0. -1.
         11   -1    0    0    0    0 -0.00000000000E+00 -0.00000000000E+00 -0.50000000000E+03  0.50000000000E+03  0.00000000000E+00 0.  1.
         23    2    1    2    0    0 -0.16222956348E+03 -0.12926429343E+03 -0.39929016389E+03  0.45863836958E+03  0.88819087165E+02 0.  0.
        -11    1    1    2    0    0  0.88954318096E+02  0.77715054702E+02  0.43056104159E+03  0.44646983209E+03  0.00000000000E+00 0. -1.
         11    1    1    2    0    0  0.73275245382E+02  0.51549238724E+02 -0.31270877694E+02  0.94891798331E+02  0.00000000000E+00 0.  1.
        -15    1    3    3    0    0 -0.15827670740E+03 -0.97808314237E+02 -0.37512396539E+03  0.41873515445E+03  0.17770000000E+01 0.  1.
         15    1    3    3    0    0 -0.39528560815E+01 -0.31455979189E+02 -0.24166198505E+02  0.39903215122E+02  0.17770000000E+01 0. -1.
</event>
<event>
 7    1  0.4133533E-006  0.4903341E+03  0.7546771E-02  0.9421702E-01
        -11   -1    0    0    0    0  0.00000000000E+00  0.00000000000E+00  0.50000000000E+03  0.50000000000E+03  0.00000000000E+00 0. -1.
         11   -1    0    0    0    0 -0.00000000000E+00 -0.00000000000E+00 -0.50000000000E+03  0.50000000000E+03  0.00000000000E+00 0.  1.
         23    2    1    2    0    0  0.39136546246E+01  0.87021154142E+02 -0.47560798109E+03  0.49056225854E+03  0.82827410077E+02 0.  0.
        -11    1    1    2    0    0 -0.29913734939E+02 -0.86127326209E+02  0.47473161558E+03  0.48340754513E+03  0.00000000000E+00 0. -1.
         11    1    1    2    0    0  0.26000080315E+02 -0.89382793330E+00  0.87636551713E+00  0.26030196336E+02  0.00000000000E+00 0.  1.
        -15    1    3    3    0    0  0.18559451311E+02  0.99046097834E+02 -0.38468831502E+03  0.39767177442E+03  0.17770000000E+01 0.  1.
         15    1    3    3    0    0 -0.14645796686E+02 -0.12024943692E+02 -0.90919666079E+02  0.92890484121E+02  0.17770000000E+01 0. -1.
</event>
<event>
 6    1  0.4133533E-006  0.4577652E+03  0.7546771E-02  0.9499612E-01
        -11   -1    0    0    0    0  0.00000000000E+00  0.00000000000E+00  0.50000000000E+03  0.50000000000E+03  0.00000000000E+00 0.  1.
         11   -1    0    0    0    0 -0.00000000000E+00 -0.00000000000E+00 -0.50000000000E+03  0.50000000000E+03  0.00000000000E+00 0.  1.
        -11    1    1    2    0    0  0.11942728617E+03 -0.33501127867E+02  0.41280833638E+03  0.43104051415E+03  0.00000000000E+00 0.  1.
         11    1    1    2    0    0  0.42738854809E+02  0.10053508141E+03 -0.36675597536E+02  0.11523459446E+03  0.00000000000E+00 0.  1.
        -15    1    1    2    0    0 -0.52770729088E+02 -0.39182650631E+02 -0.51600452284E+01  0.65953117855E+02  0.17770000000E+01 0. -1.
         15    1    1    2    0    0 -0.10939541189E+03 -0.27851302915E+02 -0.37097269362E+03  0.38777177354E+03  0.17770000000E+01 0.  1.
</event>
<event>
 7    1  0.4133533E-006  0.5120012E+03  0.7546771E-02  0.9373349E-01
        -11   -1    0    0    0    0  0.00000000000E+00  0.00000000000E+00  0.50000000000E+03  0.50000000000E+03  0.00000000000E+00 0.  1.
         11   -1    0    0    0    0 -0.00000000000E+00 -0.00000000000E+00 -0.50000000000E+03  0.50000000000E+03  0.00000000000E+00 0. -1.
         23    2    1    2    0    0 -0.50347013405E+02 -0.35615039079E+02 -0.25470609266E+03  0.27796535976E+03  0.92662262133E+02 0.  0.
        -11    1    1    2    0    0  0.15245032487E+03  0.11925347295E+03  0.44797355903E+03  0.48799877249E+03  0.00000000000E+00 0.  1.
         11    1    1    2    0    0 -0.10210331146E+03 -0.83638433866E+02 -0.19326746638E+03  0.23403586774E+03  0.00000000000E+00 0. -1.
        -15    1    3    3    0    0 -0.47003072464E+02 -0.27815294945E+01 -0.23458683915E+03  0.23927216419E+03  0.17770000000E+01 0. -1.
         15    1    3    3    0    0 -0.33439409410E+01 -0.32833509585E+02 -0.20119253512E+02  0.38693195572E+02  0.17770000000E+01 0.  1.
</event>
<event>
 7    1  0.4133533E-006  0.3611769E+03  0.7546771E-02  0.9778622E-01
        -11   -1    0    0    0    0  0.00000000000E+00  0.00000000000E+00  0.50000000000E+03  0.50000000000E+03  0.00000000000E+00 0. -1.
         11   -1    0    0    0    0 -0.00000000000E+00 -0.00000000000E+00 -0.50000000000E+03  0.50000000000E+03  0.00000000000E+00 0.  1.
         23    2    1    2    0    0  0.22327996519E+03 -0.33108617726E+02  0.13627561099E+02  0.24307809393E+03  0.89169086050E+02 0.  0.
        -11    1    1    2    0    0 -0.14064716294E+03 -0.33004847518E+03  0.90878427624E+02  0.37009797219E+03  0.00000000000E+00 0. -1.
         11    1    1    2    0    0 -0.82632802244E+02  0.36315709291E+03 -0.10450598872E+03  0.38682393387E+03  0.00000000000E+00 0.  1.
        -15    1    3    3    0    0  0.13146920104E+02 -0.29457844520E+02  0.53141294684E+01  0.32741469316E+02  0.17770000000E+01 0.  1.
         15    1    3    3    0    0  0.21013304508E+03 -0.36507732063E+01  0.83134316304E+01  0.21033662462E+03  0.17770000000E+01 0. -1.
</event>
<event>
 7    1  0.4133533E-006  0.5326782E+03  0.7546771E-02  0.9329519E-01
        -11   -1    0    0    0    0  0.00000000000E+00  0.00000000000E+00  0.50000000000E+03  0.50000000000E+03  0.00000000000E+00 0. -1.
         11   -1    0    0    0    0 -0.00000000000E+00 -0.00000000000E+00 -0.50000000000E+03  0.50000000000E+03  0.00000000000E+00 0.  1.
         23    2    1    2    0    0 -0.73660306049E+02 -0.59123445726E+02 -0.21636644646E+03  0.25439121532E+03  0.94757737193E+02 0.  0.
        -11    1    1    2    0    0 -0.59571847606E+02  0.51996049734E+02  0.46058363077E+03  0.46732181112E+03  0.00000000000E+00 0. -1.
         11    1    1    2    0    0  0.13323215366E+03  0.71273959917E+01 -0.24421718431E+03  0.27828697356E+03  0.00000000000E+00 0.  1.
        -15    1    3    3    0    0 -0.93837632548E+01  0.14555560962E+02 -0.51060923827E+00  0.17416596066E+02  0.17770000000E+01 0. -1.
         15    1    3    3    0    0 -0.64276542794E+02 -0.73679006688E+02 -0.21585583722E+03  0.23697461926E+03  0.17770000000E+01 0.  1.
</event>
<event>
 7    1  0.4133533E-006  0.5099738E+03  0.7546771E-02  0.9377765E-01
        -11   -1    0    0    0    0  0.00000000000E+00  0.00000000000E+00  0.50000000000E+03  0.50000000000E+03  0.00000000000E+00 0.  1.
         11   -1    0    0    0    0 -0.00000000000E+00 -0.00000000000E+00 -0.50000000000E+03  0.50000000000E+03  0.00000000000E+00 0.  1.
         23    2    1    2    0    0  0.91494714989E+02 -0.53159050689E+02 -0.37884162412E+03  0.40398888772E+03  0.92135105630E+02 0.  0.
        -11    1    1    2    0    0 -0.66642339275E+02  0.72757050246E+02  0.47999046550E+03  0.49002615921E+03  0.00000000000E+00 0.  1.
         11    1    1    2    0    0 -0.24852375714E+02 -0.19597999556E+02 -0.10114884138E+03  0.10598495307E+03  0.00000000000E+00 0.  1.
        -15    1    3    3    0    0  0.32084246478E+02  0.16142217890E+02 -0.19982868356E+03  0.20303849529E+03  0.17770000000E+01 0.  1.
         15    1    3    3    0    0  0.59410468511E+02 -0.69301268580E+02 -0.17901294056E+03  0.20095039242E+03  0.17770000000E+01 0. -1.
</event>
<event>
 7    1  0.4133533E-006  0.3907178E+03  0.7546771E-02  0.9684232E-01
        -11   -1    0    0    0    0  0.00000000000E+00  0.00000000000E+00  0.50000000000E+03  0.50000000000E+03  0.00000000000E+00 0. -1.
         11   -1    0    0    0    0 -0.00000000000E+00 -0.00000000000E+00 -0.50000000000E+03  0.50000000000E+03  0.00000000000E+00 0.  1.
         23    2    1    2    0    0 -0.25044925951E+02  0.22800542874E+03 -0.31109196790E+03  0.39814315498E+03  0.95530285868E+02 0.  0.
        -11    1    1    2    0    0  0.72877261449E+02 -0.45599059914E+02  0.38858550493E+03  0.39798123591E+03  0.00000000000E+00 0. -1.
         11    1    1    2    0    0 -0.47832335499E+02 -0.18240636882E+03 -0.77493537026E+02  0.20387560910E+03  0.00000000000E+00 0.  1.
        -15    1    3    3    0    0  0.39345884596E+01  0.47596322023E+02 -0.14792726461E+02  0.50028725165E+02  0.17770000000E+01 0. -1.
         15    1    3    3    0    0 -0.28979514410E+02  0.18040910671E+03 -0.29629924144E+03  0.34811442982E+03  0.17770000000E+01 0.  1.
</event>
<event>
 7    1  0.4133533E-006  0.5093979E+03  0.7546771E-02  0.9379023E-01
        -11   -1    0    0    0    0  0.00000000000E+00  0.00000000000E+00  0.50000000000E+03  0.50000000000E+03  0.00000000000E+00 0.  1.
         11   -1    0    0    0    0 -0.00000000000E+00 -0.00000000000E+00 -0.50000000000E+03  0.50000000000E+03  0.00000000000E+00 0. -1.
         23    2    1    2    0    0 -0.12410933919E+03 -0.38483662072E+02  0.28216330176E+03  0.32384579129E+03  0.91519655560E+02 0.  0.
        -11    1    1    2    0    0 -0.67469025519E+02  0.34044291244E+02  0.16946534763E+03  0.18555211456E+03  0.00000000000E+00 0.  1.
         11    1    1    2    0    0  0.19157836471E+03  0.44393708285E+01 -0.45162864939E+03  0.49060209415E+03  0.00000000000E+00 0. -1.
        -15    1    3    3    0    0 -0.70938744498E+02 -0.48662828754E+02  0.24074573531E+03  0.25566001481E+03  0.17770000000E+01 0.  1.
         15    1    3    3    0    0 -0.53170594694E+02  0.10179166682E+02  0.41417566451E+02  0.68185776480E+02  0.17770000000E+01 0. -1.
</event>
<event>
 7    1  0.4133533E-006  0.4688914E+03  0.7546771E-02  0.9472241E-01
        -11   -1    0    0    0    0  0.00000000000E+00  0.00000000000E+00  0.50000000000E+03  0.50000000000E+03  0.00000000000E+00 0.  1.
         11   -1    0    0    0    0 -0.00000000000E+00 -0.00000000000E+00 -0.50000000000E+03  0.50000000000E+03  0.00000000000E+00 0.  1.
         23    2    1    2    0    0  0.25032693572E+02 -0.51341363960E+02 -0.44426496677E+03  0.45724926669E+03  0.91885579867E+02 0.  0.
        -11    1    1    2    0    0 -0.90735531144E+02  0.43892379928E+02  0.46314370338E+03  0.47398477571E+03  0.00000000000E+00 0.  1.
         11    1    1    2    0    0  0.65702837572E+02  0.74489840317E+01 -0.18878736607E+02  0.68765957595E+02  0.00000000000E+00 0.  1.
        -15    1    3    3    0    0 -0.17341825783E+02 -0.61448290266E+02 -0.28933663458E+03  0.29630301575E+03  0.17770000000E+01 0.  1.
         15    1    3    3    0    0  0.42374519355E+02  0.10106926306E+02 -0.15492833219E+03  0.16094625095E+03  0.17770000000E+01 0. -1.
</event>
<event>
 7    1  0.4133533E-006  0.4199759E+03  0.7546771E-02  0.9599153E-01
        -11   -1    0    0    0    0  0.00000000000E+00  0.00000000000E+00  0.50000000000E+03  0.50000000000E+03  0.00000000000E+00 0. -1.
         11   -1    0    0    0    0 -0.00000000000E+00 -0.00000000000E+00 -0.50000000000E+03  0.50000000000E+03  0.00000000000E+00 0.  1.
         23    2    1    2    0    0  0.24729384073E+03 -0.30964386309E+03 -0.23371514478E+03  0.46945263168E+03  0.93431466232E+02 0.  0.
        -11    1    1    2    0    0 -0.73953891837E+02 -0.79968711231E+01  0.13715241482E+03  0.15602535997E+03  0.00000000000E+00 0. -1.
         11    1    1    2    0    0 -0.17333994889E+03  0.31764073421E+03  0.96562729968E+02  0.37452200834E+03  0.00000000000E+00 0.  1.
        -15    1    3    3    0    0  0.22502700836E+03 -0.23252234868E+03 -0.20991243875E+03  0.38570738494E+03  0.17770000000E+01 0.  1.
         15    1    3    3    0    0  0.22266832372E+02 -0.77121514407E+02 -0.23802706029E+02  0.83745246740E+02  0.17770000000E+01 0. -1.
</event>
<event>
 7    1  0.4133533E-006  0.3857119E+03  0.7546771E-02  0.9699586E-01
        -11   -1    0    0    0    0  0.00000000000E+00  0.00000000000E+00  0.50000000000E+03  0.50000000000E+03  0.00000000000E+00 0. -1.
         11   -1    0    0    0    0 -0.00000000000E+00 -0.00000000000E+00 -0.50000000000E+03  0.50000000000E+03  0.00000000000E+00 0. -1.
         23    2    1    2    0    0  0.67179315144E+02 -0.14133470960E+03 -0.66137548209E+02  0.21009017936E+03  0.12359266831E+03 0.  0.
        -11    1    1    2    0    0  0.38434835465E+02  0.80753395660E+02  0.41285751704E+03  0.42243304424E+03  0.00000000000E+00 0. -1.
         11    1    1    2    0    0 -0.10561415061E+03  0.60581313935E+02 -0.34671996883E+03  0.36747677640E+03  0.00000000000E+00 0. -1.
        -15    1    3    3    0    0  0.33493302465E+02 -0.49848519589E+02  0.35057856505E+02  0.69562110713E+02  0.17770000000E+01 0.  1.
         15    1    3    3    0    0  0.33686012679E+02 -0.91486190007E+02 -0.10119540471E+03  0.14052806864E+03  0.17770000000E+01 0.  1.
</event>
<event>
 7    1  0.4133533E-006  0.5254563E+03  0.7546771E-02  0.9344584E-01
        -11   -1    0    0    0    0  0.00000000000E+00  0.00000000000E+00  0.50000000000E+03  0.50000000000E+03  0.00000000000E+00 0.  1.
         11   -1    0    0    0    0 -0.00000000000E+00 -0.00000000000E+00 -0.50000000000E+03  0.50000000000E+03  0.00000000000E+00 0. -1.
         23    2    1    2    0    0 -0.70013028211E+01  0.14191227863E+03 -0.23499789302E+03  0.28979014356E+03  0.92553792534E+02 0.  0.
        -11    1    1    2    0    0  0.10628216360E+03 -0.11745062826E+03  0.44732664536E+03  0.47454365028E+03  0.00000000000E+00 0.  1.
         11    1    1    2    0    0 -0.99280860775E+02 -0.24461650372E+02 -0.21232875234E+03  0.23566620616E+03  0.00000000000E+00 0. -1.
        -15    1    3    3    0    0 -0.38922765729E+02  0.36488557747E+02 -0.43480263135E+02  0.68848293731E+02  0.17770000000E+01 0. -1.
         15    1    3    3    0    0  0.31921462907E+02  0.10542372088E+03 -0.19151762989E+03  0.22094184983E+03  0.17770000000E+01 0.  1.
</event>
<event>
 7    1  0.4133533E-006  0.4955734E+03  0.7546771E-02  0.9409769E-01
        -11   -1    0    0    0    0  0.00000000000E+00  0.00000000000E+00  0.50000000000E+03  0.50000000000E+03  0.00000000000E+00 0. -1.
         11   -1    0    0    0    0 -0.00000000000E+00 -0.00000000000E+00 -0.50000000000E+03  0.50000000000E+03  0.00000000000E+00 0.  1.
         23    2    1    2    0    0 -0.10294106574E+03  0.15264515321E+03 -0.45571774813E+03  0.49985192232E+03  0.90971822429E+02 0.  0.
        -11    1    1    2    0    0  0.88085268681E+02 -0.15681328468E+03  0.44828724902E+03  0.48302264796E+03  0.00000000000E+00 0. -1.
         11    1    1    2    0    0  0.14855797056E+02  0.41681314734E+01  0.74304991056E+01  0.17125429721E+02  0.00000000000E+00 0.  1.
        -15    1    3    3    0    0 -0.74646417327E+02  0.15762135524E+03 -0.41325795694E+03  0.44855532095E+03  0.17770000000E+01 0.  1.
         15    1    3    3    0    0 -0.28294648410E+02 -0.49762020385E+01 -0.42459791181E+02  0.51296601364E+02  0.17770000000E+01 0. -1.
</event>
<event>
 7    1  0.4133533E-006  0.5115189E+03  0.7546771E-02  0.9374398E-01
        -11   -1    0    0    0    0  0.00000000000E+00  0.00000000000E+00  0.50000000000E+03  0.50000000000E+03  0.00000000000E+00 0.  1.
         11   -1    0    0    0    0 -0.00000000000E+00 -0.00000000000E+00 -0.50000000000E+03  0.50000000000E+03  0.00000000000E+00 0. -1.
         23    2    1    2    0    0  0.86517129162E+02  0.14787124016E+03  0.33284221583E+03  0.38537895823E+03  0.91552626934E+02 0.  0.
        -11    1    1    2    0    0 -0.23933285775E+02  0.17085475731E+02  0.12266445779E+03  0.12613994154E+03  0.00000000000E+00 0.  1.
         11    1    1    2    0    0 -0.62583843387E+02 -0.16495671589E+03 -0.45550667362E+03  0.48848110023E+03  0.00000000000E+00 0. -1.
        -15    1    3    3    0    0  0.37944643289E+02  0.17164107051E+01  0.91360464037E+02  0.98957739152E+02  0.17770000000E+01 0.  1.
         15    1    3    3    0    0  0.48572485873E+02  0.14615482945E+03  0.24148175180E+03  0.28642121907E+03  0.17770000000E+01 0. -1.
</event>
<event>
 7    1  0.4133533E-006  0.5093109E+03  0.7546771E-02  0.9379214E-01
        -11   -1    0    0    0    0  0.00000000000E+00  0.00000000000E+00  0.50000000000E+03  0.50000000000E+03  0.00000000000E+00 0. -1.
         11   -1    0    0    0    0 -0.00000000000E+00 -0.00000000000E+00 -0.50000000000E+03  0.50000000000E+03  0.00000000000E+00 0.  1.
         23    2    1    2    0    0 -0.43726493450E+02  0.69655361723E+02 -0.23672458854E+03  0.26700830256E+03  0.92146769710E+02 0.  0.
        -11    1    1    2    0    0  0.11421846861E+03 -0.10077983437E+03  0.46644763615E+03  0.49068913872E+03  0.00000000000E+00 0. -1.
         11    1    1    2    0    0 -0.70491975163E+02  0.31124472645E+02 -0.22972304761E+03  0.24230255872E+03  0.00000000000E+00 0.  1.
        -15    1    3    3    0    0 -0.41108460454E+02  0.82865253151E+02 -0.23590658236E+03  0.25340013620E+03  0.17770000000E+01 0.  1.
         15    1    3    3    0    0 -0.26180329958E+01 -0.13209891428E+02 -0.81800618430E+00  0.13608166351E+02  0.17770000000E+01 0. -1.
</event>
<event>
 7    1  0.4133533E-006  0.5307847E+03  0.7546771E-02  0.9333445E-01
        -11   -1    0    0    0    0  0.00000000000E+00  0.00000000000E+00  0.50000000000E+03  0.50000000000E+03  0.00000000000E+00 0.  1.
         11   -1    0    0    0    0 -0.00000000000E+00 -0.00000000000E+00 -0.50000000000E+03  0.50000000000E+03  0.00000000000E+00 0. -1.
         23    2    1    2    0    0  0.10001338031E+03 -0.41677872983E+01  0.81969350620E+02  0.15204369830E+03  0.79864041104E+02 0.  0.
        -11    1    1    2    0    0 -0.88866677029E+01 -0.61751487070E+02  0.37356726127E+03  0.37874096387E+03  0.00000000000E+00 0.  1.
         11    1    1    2    0    0 -0.91126712604E+02  0.65919274368E+02 -0.45553661189E+03  0.46921533783E+03  0.00000000000E+00 0. -1.
        -15    1    3    3    0    0  0.78921395976E+01  0.24624799165E+02  0.81797256267E+00  0.25932477889E+02  0.17770000000E+01 0.  1.
         15    1    3    3    0    0  0.92121240709E+02 -0.28792586463E+02  0.81151378057E+02  0.12611122042E+03  0.17770000000E+01 0. -1.
</event>
<event>
 7    1  0.4133533E-006  0.4707942E+03  0.7546771E-02  0.9467641E-01
        -11   -1    0    0    0    0  0.00000000000E+00  0.00000000000E+00  0.50000000000E+03  0.50000000000E+03  0.00000000000E+00 0. -1.
         11   -1    0    0    0    0 -0.00000000000E+00 -0.00000000000E+00 -0.50000000000E+03  0.50000000000E+03  0.00000000000E+00 0.  1.
         23    2    1    2    0    0  0.82912331256E+02 -0.73853682781E+02 -0.43079432692E+03  0.45441392169E+03  0.92625261057E+02 0.  0.
        -11    1    1    2    0    0 -0.88035329304E+02  0.23062026006E+02  0.47155737828E+03  0.48025871909E+03  0.00000000000E+00 0. -1.
         11    1    1    2    0    0  0.51229980472E+01  0.50791656775E+02 -0.40763051357E+02  0.65327359222E+02  0.00000000000E+00 0.  1.
        -15    1    3    3    0    0  0.89156282508E+02 -0.30956981764E+02 -0.35230934808E+03  0.36473581111E+03  0.17770000000E+01 0.  1.
         15    1    3    3    0    0 -0.62439512512E+01 -0.42896701017E+02 -0.78484978836E+02  0.89678110581E+02  0.17770000000E+01 0. -1.
</event>
<event>
 7    1  0.4133533E-006  0.5238020E+03  0.7546771E-02  0.9348071E-01
        -11   -1    0    0    0    0  0.00000000000E+00  0.00000000000E+00  0.50000000000E+03  0.50000000000E+03  0.00000000000E+00 0. -1.
         11   -1    0    0    0    0 -0.00000000000E+00 -0.00000000000E+00 -0.50000000000E+03  0.50000000000E+03  0.00000000000E+00 0.  1.
         23    2    1    2    0    0 -0.31035429960E+02 -0.27385733516E+02 -0.78140472041E+02  0.12545131141E+03  0.88988324242E+02 0.  0.
        -11    1    1    2    0    0  0.93057903004E+02 -0.45818851893E+02  0.46476378646E+03  0.47619798162E+03  0.00000000000E+00 0. -1.
         11    1    1    2    0    0 -0.62022473044E+02  0.73204585409E+02 -0.38662331442E+03  0.39835070696E+03  0.00000000000E+00 0.  1.
        -15    1    3    3    0    0  0.13611372446E+02 -0.42561361937E+01  0.14256680636E+02  0.20243389709E+02  0.17770000000E+01 0.  1.
         15    1    3    3    0    0 -0.44646802407E+02 -0.23129597322E+02 -0.92397152677E+02  0.10520792170E+03  0.17770000000E+01 0. -1.
</event>
<event>
 7    1  0.4133533E-006  0.4480866E+03  0.7546771E-02  0.9524104E-01
        -11   -1    0    0    0    0  0.00000000000E+00  0.00000000000E+00  0.50000000000E+03  0.50000000000E+03  0.00000000000E+00 0. -1.
         11   -1    0    0    0    0 -0.00000000000E+00 -0.00000000000E+00 -0.50000000000E+03  0.50000000000E+03  0.00000000000E+00 0. -1.
         23    2    1    2    0    0  0.14200475211E+03 -0.40846566857E+01 -0.45094272073E+03  0.48144111458E+03  0.90852492457E+02 0.  0.
        -11    1    1    2    0    0 -0.14522207490E+02  0.81710366585E+02  0.67117352995E+02  0.10673433183E+03  0.00000000000E+00 0. -1.
         11    1    1    2    0    0 -0.12748254462E+03 -0.77625709899E+02  0.38382536774E+03  0.41182455359E+03  0.00000000000E+00 0. -1.
        -15    1    3    3    0    0 -0.12058354812E+02 -0.40516750074E+01 -0.19856310882E+02  0.23648484137E+02  0.17770000000E+01 0.  1.
         15    1    3    3    0    0  0.15406310692E+03 -0.32981678348E-01 -0.43108640985E+03  0.45779263044E+03  0.17770000000E+01 0. -1.
</event>
<event>
 7    1  0.4133533E-006  0.5370852E+03  0.7546771E-02  0.9320450E-01
        -11   -1    0    0    0    0  0.00000000000E+00  0.00000000000E+00  0.50000000000E+03  0.50000000000E+03  0.00000000000E+00 0.  1.
         11   -1    0    0    0    0 -0.00000000000E+00 -0.00000000000E+00 -0.50000000000E+03  0.50000000000E+03  0.00000000000E+00 0. -1.
         23    2    1    2    0    0  0.77610031838E+02  0.55285477064E+02 -0.13488199406E+03  0.18935541237E+03  0.92641885001E+02 0.  0.
        -11    1    1    2    0    0  0.75303716089E+02 -0.12511555701E+03  0.43927841124E+03  0.46291475980E+03  0.00000000000E+00 0.  1.
         11    1    1    2    0    0 -0.15291374793E+03  0.69830079943E+02 -0.30439641718E+03  0.34772982783E+03  0.00000000000E+00 0. -1.
        -15    1    3    3    0    0  0.26351758062E+02 -0.16229522494E+02 -0.34645852779E+01  0.31192525282E+02  0.17770000000E+01 0.  1.
         15    1    3    3    0    0  0.51258273776E+02  0.71514999558E+02 -0.13141740878E+03  0.15816288709E+03  0.17770000000E+01 0. -1.
</event>
<event>
 7    1  0.4133533E-006  0.5185978E+03  0.7546771E-02  0.9359131E-01
        -11   -1    0    0    0    0  0.00000000000E+00  0.00000000000E+00  0.50000000000E+03  0.50000000000E+03  0.00000000000E+00 0. -1.
         11   -1    0    0    0    0 -0.00000000000E+00 -0.00000000000E+00 -0.50000000000E+03  0.50000000000E+03  0.00000000000E+00 0. -1.
         23    2    1    2    0    0  0.38708977958E+02  0.22951136019E+02 -0.13668773718E+03  0.17004073654E+03  0.90582420854E+02 0.  0.
        -11    1    1    2    0    0 -0.81874365962E+02  0.74848664981E+02  0.46844669192E+03  0.48140215789E+03  0.00000000000E+00 0. -1.
         11    1    1    2    0    0  0.43165388004E+02 -0.97799801000E+02 -0.33175895474E+03  0.34855710558E+03  0.00000000000E+00 0. -1.
        -15    1    3    3    0    0  0.62786944689E+02  0.22082225189E+02 -0.59962548489E+02  0.89601841739E+02  0.17770000000E+01 0.  1.
         15    1    3    3    0    0 -0.24077966731E+02  0.86891083014E+00 -0.76725188688E+02  0.80438894797E+02  0.17770000000E+01 0. -1.
</event>
<event>
 7    1  0.4133533E-006  0.4379921E+03  0.7546771E-02  0.9550362E-01
        -11   -1    0    0    0    0  0.00000000000E+00  0.00000000000E+00  0.50000000000E+03  0.50000000000E+03  0.00000000000E+00 0.  1.
         11   -1    0    0    0    0 -0.00000000000E+00 -0.00000000000E+00 -0.50000000000E+03  0.50000000000E+03  0.00000000000E+00 0.  1.
         23    2    1    2    0    0  0.64160095331E+02  0.10019856249E+03 -0.40234532981E+03  0.42900229881E+03  0.89470320251E+02 0.  0.
        -11    1    1    2    0    0 -0.77964176629E+02  0.17718599549E+02  0.43940960903E+03  0.44662418890E+03  0.00000000000E+00 0.  1.
         11    1    1    2    0    0  0.13804081299E+02 -0.11791716204E+03 -0.37064279214E+02  0.12437351229E+03  0.00000000000E+00 0.  1.
        -15    1    3    3    0    0  0.47915233453E+02  0.10583340992E+02 -0.21694202481E+03  0.22242948672E+03  0.17770000000E+01 0. -1.
         15    1    3    3    0    0  0.16244861878E+02  0.89615221502E+02 -0.18540330500E+03  0.20657281210E+03  0.17770000000E+01 0.  1.
</event>
<event>
 7    1  0.4133533E-006  0.5298864E+03  0.7546771E-02  0.9335313E-01
        -11   -1    0    0    0    0  0.00000000000E+00  0.00000000000E+00  0.50000000000E+03  0.50000000000E+03  0.00000000000E+00 0. -1.
         11   -1    0    0    0    0 -0.00000000000E+00 -0.00000000000E+00 -0.50000000000E+03  0.50000000000E+03  0.00000000000E+00 0.  1.
         23    2    1    2    0    0 -0.75605186511E+02  0.11069105189E+03  0.16364252919E+03  0.22994426392E+03  0.90148954255E+02 0.  0.
        -11    1    1    2    0    0  0.67660765517E+02  0.40557930036E+01  0.29218292044E+03  0.29994214049E+03  0.00000000000E+00 0. -1.
         11    1    1    2    0    0  0.79444209943E+01 -0.11474684490E+03 -0.45582544962E+03  0.47011359559E+03  0.00000000000E+00 0.  1.
        -15    1    3    3    0    0 -0.16154705640E+02  0.70798327786E+02  0.13402648016E+03  0.15244550779E+03  0.17770000000E+01 0.  1.
         15    1    3    3    0    0 -0.59450480871E+02  0.39892724108E+02  0.29616049023E+02  0.77498756128E+02  0.17770000000E+01 0. -1.
</event>
<event>
 7    1  0.4133533E-006  0.5165152E+03  0.7546771E-02  0.9363595E-01
        -11   -1    0    0    0    0  0.00000000000E+00  0.00000000000E+00  0.50000000000E+03  0.50000000000E+03  0.00000000000E+00 0.  1.
         11   -1    0    0    0    0 -0.00000000000E+00 -0.00000000000E+00 -0.50000000000E+03  0.50000000000E+03  0.00000000000E+00 0. -1.
         23    2    1    2    0    0 -0.23737349079E+02  0.50046632610E+02  0.11631633387E+03  0.16082760463E+03  0.96269941878E+02 0.  0.
        -11    1    1    2    0    0 -0.10834496815E+03  0.15923740473E+03  0.29902927272E+03  0.35568762858E+03  0.00000000000E+00 0.  1.
         11    1    1    2    0    0  0.13208231722E+03 -0.20928403734E+03 -0.41534560658E+03  0.48348476679E+03  0.00000000000E+00 0. -1.
        -15    1    3    3    0    0  0.35562304523E+02  0.15025058767E+02  0.62172660265E+02  0.73205377585E+02  0.17770000000E+01 0.  1.
         15    1    3    3    0    0 -0.59299653602E+02  0.35021573843E+02  0.54143673602E+02  0.87622227043E+02  0.17770000000E+01 0. -1.
</event>
<event>
 7    1  0.4133533E-006  0.3853087E+03  0.7546771E-02  0.9700833E-01
        -11   -1    0    0    0    0  0.00000000000E+00  0.00000000000E+00  0.50000000000E+03  0.50000000000E+03  0.00000000000E+00 0.  1.
         11   -1    0    0    0    0 -0.00000000000E+00 -0.00000000000E+00 -0.50000000000E+03  0.50000000000E+03  0.00000000000E+00 0. -1.
         23    2    1    2    0    0 -0.20118918563E+02  0.36312119331E+03  0.35950406568E+02  0.37686638189E+03  0.92054691077E+02 0.  0.
        -11    1    1    2    0    0  0.13547237058E+03 -0.20823775246E+02  0.16122251740E+03  0.21161071079E+03  0.00000000000E+00 0.  1.
         11    1    1    2    0    0 -0.11535345202E+03 -0.34229741806E+03 -0.19717292396E+03  0.41152290732E+03  0.00000000000E+00 0. -1.
        -15    1    3    3    0    0  0.56790063255E+01  0.33726152952E+03  0.23101398589E+02  0.33810415962E+03  0.17770000000E+01 0.  1.
         15    1    3    3    0    0 -0.25797924888E+02  0.25859663786E+02  0.12849007979E+02  0.38762222262E+02  0.17770000000E+01 0. -1.
</event>
<event>
 7    1  0.4133533E-006  0.5130035E+03  0.7546771E-02  0.9371174E-01
        -11   -1    0    0    0    0  0.00000000000E+00  0.00000000000E+00  0.50000000000E+03  0.50000000000E+03  0.00000000000E+00 0.  1.
         11   -1    0    0    0    0 -0.00000000000E+00 -0.00000000000E+00 -0.50000000000E+03  0.50000000000E+03  0.00000000000E+00 0. -1.
         23    2    1    2    0    0 -0.10616247163E+02 -0.32326136337E+02 -0.39618726980E+03  0.40822950678E+03  0.92354175094E+02 0.  0.
        -11    1    1    2    0    0  0.73290720195E+02  0.37403256943E+02  0.47999488420E+03  0.48699653198E+03  0.00000000000E+00 0.  1.
         11    1    1    2    0    0 -0.62674473033E+02 -0.50771206058E+01 -0.83807614400E+02  0.10477396124E+03  0.00000000000E+00 0. -1.
        -15    1    3    3    0    0 -0.41576251119E+02  0.11343713251E+02 -0.21535367798E+03  0.21963066461E+03  0.17770000000E+01 0.  1.
         15    1    3    3    0    0  0.30960003956E+02 -0.43669849588E+02 -0.18083359182E+03  0.18859884217E+03  0.17770000000E+01 0. -1.
</event>
<event>
 7    1  0.4133533E-006  0.5184616E+03  0.7546771E-02  0.9359422E-01
        -11   -1    0    0    0    0  0.00000000000E+00  0.00000000000E+00  0.50000000000E+03  0.50000000000E+03  0.00000000000E+00 0.  1.
         11   -1    0    0    0    0 -0.00000000000E+00 -0.00000000000E+00 -0.50000000000E+03  0.50000000000E+03  0.00000000000E+00 0. -1.
         23    2    1    2    0    0 -0.60849278769E+02 -0.77668926846E+02 -0.46194031775E+03  0.48153843256E+03  0.93569802569E+02 0.  0.
        -11    1    1    2    0    0 -0.54892835232E+02  0.10152694097E+03  0.26035718585E+03  0.28479256894E+03  0.00000000000E+00 0.  1.
         11    1    1    2    0    0  0.11574211400E+03 -0.23858014123E+02  0.20158313190E+03  0.23366899849E+03  0.00000000000E+00 0. -1.
        -15    1    3    3    0    0 -0.32687471916E+02  0.42072963816E+01 -0.45627445122E+02  0.56313352240E+02  0.17770000000E+01 0.  1.
         15    1    3    3    0    0 -0.28161806853E+02 -0.81876223228E+02 -0.41631287262E+03  0.42522508032E+03  0.17770000000E+01 0. -1.
</event>
<event>
 7    1  0.4133533E-006  0.5137651E+03  0.7546771E-02  0.9369525E-01
        -11   -1    0    0    0    0  0.00000000000E+00  0.00000000000E+00  0.50000000000E+03  0.50000000000E+03  0.00000000000E+00 0.  1.
         11   -1    0    0    0    0 -0.00000000000E+00 -0.00000000000E+00 -0.50000000000E+03  0.50000000000E+03  0.00000000000E+00 0. -1.
         23    2    1    2    0    0  0.22011877288E+02 -0.11987522805E+03  0.32036623356E+03  0.35519610935E+03  0.93140535998E+02 0.  0.
        -11    1    1    2    0    0 -0.71016682066E+02 -0.44432163704E+02  0.13463484352E+03  0.15856899883E+03  0.00000000000E+00 0.  1.
         11    1    1    2    0    0  0.49004804777E+02  0.16430739176E+03 -0.45500107708E+03  0.48623489182E+03  0.00000000000E+00 0. -1.
        -15    1    3    3    0    0  0.21853324966E+02 -0.22683693137E+01  0.11864553906E+02  0.25032752142E+02  0.17770000000E+01 0. -1.
         15    1    3    3    0    0  0.15855232254E+00 -0.11760685874E+03  0.30850167966E+03  0.33016335721E+03  0.17770000000E+01 0.  1.
</event>
<event>
 7    1  0.4133533E-006  0.4283772E+03  0.7546771E-02  0.9576082E-01
        -11   -1    0    0    0    0  0.00000000000E+00  0.00000000000E+00  0.50000000000E+03  0.50000000000E+03  0.00000000000E+00 0. -1.
         11   -1    0    0    0    0 -0.00000000000E+00 -0.00000000000E+00 -0.50000000000E+03  0.50000000000E+03  0.00000000000E+00 0.  1.
         23    2    1    2    0    0 -0.13372998237E+03  0.12084330207E+03 -0.34350596266E+03  0.39922445058E+03  0.94323929718E+02 0.  0.
        -11    1    1    2    0    0  0.27185627867E+03 -0.15277483276E+03  0.33657934740E+03  0.45883727276E+03  0.00000000000E+00 0. -1.
         11    1    1    2    0    0 -0.13812629630E+03  0.31931530691E+02  0.69266152555E+01  0.14193827665E+03  0.00000000000E+00 0.  1.
        -15    1    3    3    0    0 -0.89208771109E+02  0.56841312762E+02 -0.10817219627E+03  0.15130605227E+03  0.17770000000E+01 0. -1.
         15    1    3    3    0    0 -0.44521211264E+02  0.64001989311E+02 -0.23533376639E+03  0.24791839831E+03  0.17770000000E+01 0.  1.
</event>
<event>
 7    1  0.4133533E-006  0.4530009E+03  0.7546771E-02  0.9511587E-01
        -11   -1    0    0    0    0  0.00000000000E+00  0.00000000000E+00  0.50000000000E+03  0.50000000000E+03  0.00000000000E+00 0.  1.
         11   -1    0    0    0    0 -0.00000000000E+00 -0.00000000000E+00 -0.50000000000E+03  0.50000000000E+03  0.00000000000E+00 0. -1.
         23    2    1    2    0    0  0.46509555205E+02 -0.93045001445E+02 -0.41143937881E+03  0.43423270779E+03  0.91952004130E+02 0.  0.
        -11    1    1    2    0    0 -0.10307240858E+01  0.17728155351E+03  0.43278350534E+03  0.46768726100E+03  0.00000000000E+00 0.  1.
         11    1    1    2    0    0 -0.45478831119E+02 -0.84236552068E+02 -0.21344126529E+02  0.98080031207E+02  0.00000000000E+00 0. -1.
        -15    1    3    3    0    0 -0.74907233755E+01 -0.72708247521E+02 -0.15504944939E+03  0.17142371388E+03  0.17770000000E+01 0.  1.
         15    1    3    3    0    0  0.54000278580E+02 -0.20336753924E+02 -0.25638992942E+03  0.26280899391E+03  0.17770000000E+01 0. -1.
</event>
<event>
 7    1  0.4133533E-006  0.3457755E+03  0.7546771E-02  0.9831756E-01
        -11   -1    0    0    0    0  0.00000000000E+00  0.00000000000E+00  0.50000000000E+03  0.50000000000E+03  0.00000000000E+00 0. -1.
         11   -1    0    0    0    0 -0.00000000000E+00 -0.00000000000E+00 -0.50000000000E+03  0.50000000000E+03  0.00000000000E+00 0.  1.
         23    2    1    2    0    0 -0.25981833119E+02 -0.13061959238E+03 -0.21012071963E+03  0.26506468340E+03  0.91498830614E+02 0.  0.
        -11    1    1    2    0    0  0.17563575539E+03 -0.53333594334E+02  0.39413072455E+03  0.43477743604E+03  0.00000000000E+00 0. -1.
         11    1    1    2    0    0 -0.14965392227E+03  0.18395318671E+03 -0.18401000492E+03  0.30015788056E+03  0.00000000000E+00 0.  1.
        -15    1    3    3    0    0  0.21650414165E+02 -0.19123776214E+01 -0.47499316589E+02  0.52266054253E+02  0.17770000000E+01 0.  1.
         15    1    3    3    0    0 -0.47632247284E+02 -0.12870721476E+03 -0.16262140304E+03  0.21279862915E+03  0.17770000000E+01 0. -1.
</event>
<event>
 7    1  0.4133533E-006  0.3711411E+03  0.7546771E-02  0.9745736E-01
        -11   -1    0    0    0    0  0.00000000000E+00  0.00000000000E+00  0.50000000000E+03  0.50000000000E+03  0.00000000000E+00 0. -1.
         11   -1    0    0    0    0 -0.00000000000E+00 -0.00000000000E+00 -0.50000000000E+03  0.50000000000E+03  0.00000000000E+00 0. -1.
         23    2    1    2    0    0 -0.16087732626E+03 -0.10351098460E+03 -0.86695446112E+02  0.22857600087E+03  0.90193401971E+02 0.  0.
        -11    1    1    2    0    0 -0.72994138336E+02 -0.13371345841E+03  0.32695123533E+03  0.36070007413E+03  0.00000000000E+00 0. -1.
         11    1    1    2    0    0  0.23387146460E+03  0.23722444301E+03 -0.24025578922E+03  0.41072392500E+03  0.00000000000E+00 0. -1.
        -15    1    3    3    0    0 -0.28755543391E+02  0.11772902123E+02  0.36124873404E+01  0.31331937283E+02  0.17770000000E+01 0.  1.
         15    1    3    3    0    0 -0.13212178287E+03 -0.11528388672E+03 -0.90307933453E+02  0.19724406359E+03  0.17770000000E+01 0. -1.
</event>
<event>
 7    1  0.4133533E-006  0.5222220E+03  0.7546771E-02  0.9351415E-01
        -11   -1    0    0    0    0  0.00000000000E+00  0.00000000000E+00  0.50000000000E+03  0.50000000000E+03  0.00000000000E+00 0. -1.
         11   -1    0    0    0    0 -0.00000000000E+00 -0.00000000000E+00 -0.50000000000E+03  0.50000000000E+03  0.00000000000E+00 0.  1.
         23    2    1    2    0    0  0.27305725377E+02 -0.92412620439E+01 -0.41255603163E+03  0.42379362772E+03  0.92561093848E+02 0.  0.
        -11    1    1    2    0    0  0.40387140120E+01  0.82274447379E+02  0.47062344107E+03  0.47777800199E+03  0.00000000000E+00 0. -1.
         11    1    1    2    0    0 -0.31344439389E+02 -0.73033185335E+02 -0.58067409434E+02  0.98428370296E+02  0.00000000000E+00 0.  1.
        -15    1    3    3    0    0  0.11699004069E+02 -0.50605822672E+02 -0.19673979869E+03  0.20348838321E+03  0.17770000000E+01 0.  1.
         15    1    3    3    0    0  0.15606721308E+02  0.41364560628E+02 -0.21581623295E+03  0.22030524451E+03  0.17770000000E+01 0. -1.
</event>
<event>
 7    1  0.4133533E-006  0.5208264E+03  0.7546771E-02  0.9354378E-01
        -11   -1    0    0    0    0  0.00000000000E+00  0.00000000000E+00  0.50000000000E+03  0.50000000000E+03  0.00000000000E+00 0. -1.
         11   -1    0    0    0    0 -0.00000000000E+00 -0.00000000000E+00 -0.50000000000E+03  0.50000000000E+03  0.00000000000E+00 0.  1.
         23    2    1    2    0    0  0.26209090806E+02  0.14797909081E+01 -0.33794486570E+03  0.35143298984E+03  0.92786356038E+02 0.  0.
        -11    1    1    2    0    0  0.20891842344E+02  0.94570789368E+02  0.46928377047E+03  0.47917362251E+03  0.00000000000E+00 0. -1.
         11    1    1    2    0    0 -0.47100933150E+02 -0.96050580276E+02 -0.13133890477E+03  0.16939338765E+03  0.00000000000E+00 0.  1.
        -15    1    3    3    0    0 -0.29830910473E+02 -0.13365159819E+02 -0.18471459802E+03  0.18759304669E+03  0.17770000000E+01 0. -1.
         15    1    3    3    0    0  0.56040001280E+02  0.14844950727E+02 -0.15323026769E+03  0.16383994315E+03  0.17770000000E+01 0.  1.
</event>
<event>
 7    1  0.4133533E-006  0.5008482E+03  0.7546771E-02  0.9397914E-01
        -11   -1    0    0    0    0  0.00000000000E+00  0.00000000000E+00  0.50000000000E+03  0.50000000000E+03  0.00000000000E+00 0.  1.
         11   -1    0    0    0    0 -0.00000000000E+00 -0.00000000000E+00 -0.50000000000E+03  0.50000000000E+03  0.00000000000E+00 0. -1.
         23    2    1    2    0    0  0.73837194751E+01  0.10518478382E+03 -0.48094584654E+03  0.50084815694E+03  0.91769335586E+02 0.  0.
        -11    1    1    2    0    0  0.17834765832E+02 -0.46060818514E+00  0.25372329902E+02  0.31016868908E+02  0.00000000000E+00 0. -1.
         11    1    1    2    0    0 -0.25218485307E+02 -0.10472417564E+03  0.45557351663E+03  0.46813497415E+03  0.00000000000E+00 0.  1.
        -15    1    3    3    0    0  0.39784472388E+02  0.38094529612E+02 -0.11672511261E+03  0.12908100973E+03  0.17770000000E+01 0. -1.
         15    1    3    3    0    0 -0.32400752913E+02  0.67090254209E+02 -0.36422073392E+03  0.37176714721E+03  0.17770000000E+01 0.  1.
</event>
<event>
 7    1  0.4133533E-006  0.3493773E+03  0.7546771E-02  0.9819067E-01
        -11   -1    0    0    0    0  0.00000000000E+00  0.00000000000E+00  0.50000000000E+03  0.50000000000E+03  0.00000000000E+00 0.  1.
         11   -1    0    0    0    0 -0.00000000000E+00 -0.00000000000E+00 -0.50000000000E+03  0.50000000000E+03  0.00000000000E+00 0. -1.
         23    2    1    2    0    0 -0.72326841410E+02 -0.25448040039E+02 -0.23146400315E+03  0.25992413029E+03  0.90034404660E+02 0.  0.
        -11    1    1    2    0    0 -0.17540615107E+03  0.21021002003E+03  0.31753815964E+03  0.41926847387E+03  0.00000000000E+00 0.  1.
         11    1    1    2    0    0  0.24773299248E+03 -0.18476197999E+03 -0.86074156487E+02  0.32080739584E+03  0.00000000000E+00 0. -1.
        -15    1    3    3    0    0  0.97475946728E+01  0.21201742661E+02 -0.55368649931E+02  0.60111351822E+02  0.17770000000E+01 0.  1.
         15    1    3    3    0    0 -0.82074436083E+02 -0.46649782700E+02 -0.17609535322E+03  0.19981277847E+03  0.17770000000E+01 0. -1.
</event>
<event>
 7    1  0.4133533E-006  0.4920208E+03  0.7546771E-02  0.9417843E-01
        -11   -1    0    0    0    0  0.00000000000E+00  0.00000000000E+00  0.50000000000E+03  0.50000000000E+03  0.00000000000E+00 0.  1.
         11   -1    0    0    0    0 -0.00000000000E+00 -0.00000000000E+00 -0.50000000000E+03  0.50000000000E+03  0.00000000000E+00 0. -1.
         23    2    1    2    0    0  0.46585346151E+02 -0.11461706888E+03 -0.46298903504E+03  0.48781696865E+03  0.91100391749E+02 0.  0.
        -11    1    1    2    0    0 -0.44573894630E+02  0.94780261608E+02  0.47664455902E+03  0.48801656295E+03  0.00000000000E+00 0.  1.
         11    1    1    2    0    0 -0.20114515207E+01  0.19836807272E+02 -0.13655523974E+02  0.24166468401E+02  0.00000000000E+00 0. -1.
        -15    1    3    3    0    0  0.18475139799E+02 -0.30212477746E+01 -0.11848439809E+02  0.22226155394E+02  0.17770000000E+01 0.  1.
         15    1    3    3    0    0  0.28110206351E+02 -0.11159582111E+03 -0.45114059523E+03  0.46559081325E+03  0.17770000000E+01 0. -1.
</event>
<event>
 7    1  0.4133533E-006  0.3619759E+03  0.7546771E-02  0.9775943E-01
        -11   -1    0    0    0    0  0.00000000000E+00  0.00000000000E+00  0.50000000000E+03  0.50000000000E+03  0.00000000000E+00 0.  1.
         11   -1    0    0    0    0 -0.00000000000E+00 -0.00000000000E+00 -0.50000000000E+03  0.50000000000E+03  0.00000000000E+00 0. -1.
         23    2    1    2    0    0  0.14110182513E+03  0.10530940905E+03  0.13929069736E+03  0.24203699407E+03  0.90444521330E+02 0.  0.
        -11    1    1    2    0    0 -0.98889429216E+02  0.14813497436E+02  0.29180288864E+03  0.30845985920E+03  0.00000000000E+00 0.  1.
         11    1    1    2    0    0 -0.42212395910E+02 -0.12012290649E+03 -0.43109358600E+03  0.44950314673E+03  0.00000000000E+00 0. -1.
        -15    1    3    3    0    0  0.14179225698E+02  0.53307518227E+02  0.15651579468E+02  0.57366119006E+02  0.17770000000E+01 0.  1.
         15    1    3    3    0    0  0.12692259943E+03  0.52001890827E+02  0.12363911789E+03  0.18467087506E+03  0.17770000000E+01 0. -1.
</event>
<event>
 7    1  0.4133533E-006  0.3485954E+03  0.7546771E-02  0.9821808E-01
        -11   -1    0    0    0    0  0.00000000000E+00  0.00000000000E+00  0.50000000000E+03  0.50000000000E+03  0.00000000000E+00 0.  1.
         11   -1    0    0    0    0 -0.00000000000E+00 -0.00000000000E+00 -0.50000000000E+03  0.50000000000E+03  0.00000000000E+00 0.  1.
         23    2    1    2    0    0  0.27096587100E+02  0.13508089922E+03  0.22991188488E+03  0.28251157810E+03  0.89287415599E+02 0.  0.
        -11    1    1    2    0    0  0.15632322368E+03 -0.11087002942E+03  0.18302227173E+03  0.26500238798E+03  0.00000000000E+00 0.  1.
         11    1    1    2    0    0 -0.18341981078E+03 -0.24210869797E+02 -0.41293415661E+03  0.45248603393E+03  0.00000000000E+00 0.  1.
        -15    1    3    3    0    0  0.49724827701E+02  0.33432376877E+02  0.88195030711E+02  0.10663865849E+03  0.17770000000E+01 0.  1.
         15    1    3    3    0    0 -0.22628240601E+02  0.10164852234E+03  0.14171685417E+03  0.17587291961E+03  0.17770000000E+01 0. -1.
</event>
<event>
 7    1  0.4133533E-006  0.3441654E+03  0.7546771E-02  0.9837481E-01
        -11   -1    0    0    0    0  0.00000000000E+00  0.00000000000E+00  0.50000000000E+03  0.50000000000E+03  0.00000000000E+00 0.  1.
         11   -1    0    0    0    0 -0.00000000000E+00 -0.00000000000E+00 -0.50000000000E+03  0.50000000000E+03  0.00000000000E+00 0. -1.
         23    2    1    2    0    0  0.22003466604E+03  0.18935224730E+02  0.11976560079E+03  0.26725384933E+03  0.91142876035E+02 0.  0.
        -11    1    1    2    0    0 -0.97845702132E+02  0.27997002024E+02  0.28749034069E+03  0.30497263736E+03  0.00000000000E+00 0.  1.
         11    1    1    2    0    0 -0.12218896391E+03 -0.46932226754E+02 -0.40725594149E+03  0.42777351331E+03  0.00000000000E+00 0. -1.
        -15    1    3    3    0    0  0.22737499999E+02 -0.12994862994E+02  0.48332330290E+02  0.55000293188E+02  0.17770000000E+01 0.  1.
         15    1    3    3    0    0  0.19729716605E+03  0.31930087724E+02  0.71433270503E+02  0.21225355614E+03  0.17770000000E+01 0. -1.
</event>
<event>
 7    1  0.4133533E-006  0.5420006E+03  0.7546771E-02  0.9310443E-01
        -11   -1    0    0    0    0  0.00000000000E+00  0.00000000000E+00  0.50000000000E+03  0.50000000000E+03  0.00000000000E+00 0. -1.
         11   -1    0    0    0    0 -0.00000000000E+00 -0.00000000000E+00 -0.50000000000E+03  0.50000000000E+03  0.00000000000E+00 0.  1.
         23    2    1    2    0    0  0.22635649756E+02  0.10200633210E+03 -0.24407419259E+03  0.28664561567E+03  0.10805476882E+03 0.  0.
        -11    1    1    2    0    0 -0.13348795319E+03  0.22449535506E+02  0.43753908324E+03  0.45799941556E+03  0.00000000000E+00 0. -1.
         11    1    1    2    0    0  0.11085230344E+03 -0.12445586761E+03 -0.19346489065E+03  0.25535496877E+03  0.00000000000E+00 0.  1.
        -15    1    3    3    0    0 -0.27723333819E+02  0.11560110437E+01 -0.15627634132E+02  0.31895145040E+02  0.17770000000E+01 0. -1.
         15    1    3    3    0    0  0.50358983574E+02  0.10085032106E+03 -0.22844655846E+03  0.25475047063E+03  0.17770000000E+01 0.  1.
</event>
<event>
 6    1  0.4133533E-006  0.3931781E+03  0.7546771E-02  0.9676775E-01
        -11   -1    0    0    0    0  0.00000000000E+00  0.00000000000E+00  0.50000000000E+03  0.50000000000E+03  0.00000000000E+00 0. -1.
         11   -1    0    0    0    0 -0.00000000000E+00 -0.00000000000E+00 -0.50000000000E+03  0.50000000000E+03  0.00000000000E+00 0.  1.
        -11    1    1    2    0    0  0.34879060076E+02  0.13377958044E+03  0.33988201524E+03  0.36692411921E+03  0.00000000000E+00 0. -1.
         11    1    1    2    0    0  0.18235483297E+03 -0.22664405973E+02 -0.17223837119E+03  0.25185912117E+03  0.00000000000E+00 0.  1.
        -15    1    1    2    0    0 -0.10918376467E+03 -0.98488585511E+02 -0.21668782736E+03  0.26187376386E+03  0.17770000000E+01 0. -1.
         15    1    1    2    0    0 -0.10805012838E+03 -0.12626588959E+02  0.49044183312E+02  0.11934299576E+03  0.17770000000E+01 0.  1.
</event>
<event>
 7    1  0.4133533E-006  0.5153569E+03  0.7546771E-02  0.9366088E-01
        -11   -1    0    0    0    0  0.00000000000E+00  0.00000000000E+00  0.50000000000E+03  0.50000000000E+03  0.00000000000E+00 0.  1.
         11   -1    0    0    0    0 -0.00000000000E+00 -0.00000000000E+00 -0.50000000000E+03  0.50000000000E+03  0.00000000000E+00 0.  1.
         23    2    1    2    0    0 -0.95811454655E+02  0.67898132226E+02  0.14375660602E+03  0.20175929828E+03  0.79062389706E+02 0.  0.
        -11    1    1    2    0    0 -0.25811896470E+02  0.70762721638E+02  0.30441726174E+03  0.31359764990E+03  0.00000000000E+00 0.  1.
         11    1    1    2    0    0  0.12162335112E+03 -0.13866085386E+03 -0.44817386776E+03  0.48464305182E+03  0.00000000000E+00 0.  1.
        -15    1    3    3    0    0 -0.87285598251E+02  0.84163307507E+02  0.13457337475E+03  0.18115018331E+03  0.17770000000E+01 0.  1.
         15    1    3    3    0    0 -0.85258564031E+01 -0.16265175281E+02  0.91832312667E+01  0.20609114969E+02  0.17770000000E+01 0. -1.
</event>
<event>
 7    1  0.4133533E-006  0.5303580E+03  0.7546771E-02  0.9334331E-01
        -11   -1    0    0    0    0  0.00000000000E+00  0.00000000000E+00  0.50000000000E+03  0.50000000000E+03  0.00000000000E+00 0.  1.
         11   -1    0    0    0    0 -0.00000000000E+00 -0.00000000000E+00 -0.50000000000E+03  0.50000000000E+03  0.00000000000E+00 0. -1.
         23    2    1    2    0    0 -0.68164134569E+01 -0.42736094242E+01  0.47333701631E+02  0.10607057703E+03  0.94582031970E+02 0.  0.
        -11    1    1    2    0    0 -0.82282936752E+02  0.10841754937E+03  0.40186439503E+03  0.42428744818E+03  0.00000000000E+00 0.  1.
         11    1    1    2    0    0  0.89099350209E+02 -0.10414393995E+03 -0.44919809666E+03  0.46964197479E+03  0.00000000000E+00 0. -1.
        -15    1    3    3    0    0  0.13967868756E+02  0.10344438600E+02  0.69893660829E+02  0.72044363559E+02  0.17770000000E+01 0.  1.
         15    1    3    3    0    0 -0.20784282213E+02 -0.14618048024E+02 -0.22559959199E+02  0.34026213471E+02  0.17770000000E+01 0. -1.
</event>
<event>
 7    1  0.4133533E-006  0.5181597E+03  0.7546771E-02  0.9360068E-01
        -11   -1    0    0    0    0  0.00000000000E+00  0.00000000000E+00  0.50000000000E+03  0.50000000000E+03  0.00000000000E+00 0.  1.
         11   -1    0    0    0    0 -0.00000000000E+00 -0.00000000000E+00 -0.50000000000E+03  0.50000000000E+03  0.00000000000E+00 0. -1.
         23    2    1    2    0    0  0.62305232474E+02  0.13987202191E+03 -0.80565749859E+02  0.19576504754E+03  0.91580507105E+02 0.  0.
        -11    1    1    2    0    0 -0.48664461427E+02 -0.36416029978E+03  0.31175177410E+03  0.48184034949E+03  0.00000000000E+00 0.  1.
         11    1    1    2    0    0 -0.13640771047E+02  0.22428827787E+03 -0.23118602424E+03  0.32239460297E+03  0.00000000000E+00 0. -1.
        -15    1    3    3    0    0 -0.20635656221E+02  0.80737206649E+01 -0.55870718216E+01  0.22921351914E+02  0.17770000000E+01 0.  1.
         15    1    3    3    0    0  0.82940888695E+02  0.13179830124E+03 -0.74978678038E+02  0.17284369563E+03  0.17770000000E+01 0. -1.
</event>
<event>
 7    1  0.4133533E-006  0.5000343E+03  0.7546771E-02  0.9399733E-01
        -11   -1    0    0    0    0  0.00000000000E+00  0.00000000000E+00  0.50000000000E+03  0.50000000000E+03  0.00000000000E+00 0.  1.
         11   -1    0    0    0    0 -0.00000000000E+00 -0.00000000000E+00 -0.50000000000E+03  0.50000000000E+03  0.00000000000E+00 0. -1.
         23    2    1    2    0    0 -0.61942544502E+02  0.60686907338E+02 -0.48394677604E+03  0.49996569555E+03  0.90782350399E+02 0.  0.
        -11    1    1    2    0    0  0.76846726419E+02 -0.36755671932E+02  0.43737981723E+03  0.44559791662E+03  0.00000000000E+00 0.  1.
         11    1    1    2    0    0 -0.14904181917E+02 -0.23931235406E+02  0.46566958815E+02  0.54436387830E+02  0.00000000000E+00 0. -1.
        -15    1    3    3    0    0 -0.34797758969E+02 -0.94749402414E+01 -0.65380757286E+02  0.74689086713E+02  0.17770000000E+01 0.  1.
         15    1    3    3    0    0 -0.27144785534E+02  0.70161847579E+02 -0.41856601876E+03  0.42527660884E+03  0.17770000000E+01 0. -1.
</event>
<event>
 7    1  0.4133533E-006  0.4176744E+03  0.7546771E-02  0.9605573E-01
        -11   -1    0    0    0    0  0.00000000000E+00  0.00000000000E+00  0.50000000000E+03  0.50000000000E+03  0.00000000000E+00 0. -1.
         11   -1    0    0    0    0 -0.00000000000E+00 -0.00000000000E+00 -0.50000000000E+03  0.50000000000E+03  0.00000000000E+00 0. -1.
         23    2    1    2    0    0 -0.19268254059E+03 -0.13019822412E+02 -0.33411094831E+03  0.39663912693E+03  0.91631839499E+02 0.  0.
        -11    1    1    2    0    0  0.76218789628E+02  0.58270876851E+02  0.43332245096E+03  0.44381656739E+03  0.00000000000E+00 0. -1.
         11    1    1    2    0    0  0.11646375096E+03 -0.45251054439E+02 -0.99211502650E+02  0.15954430568E+03  0.00000000000E+00 0. -1.
        -15    1    3    3    0    0 -0.11326252034E+01  0.11880271661E+02 -0.60613627276E+02  0.61802857824E+02  0.17770000000E+01 0.  1.
         15    1    3    3    0    0 -0.19154991539E+03 -0.24900094073E+02 -0.27349732103E+03  0.33483626911E+03  0.17770000000E+01 0. -1.
</event>
<event>
 7    1  0.4133533E-006  0.4369214E+03  0.7546771E-02  0.9553191E-01
        -11   -1    0    0    0    0  0.00000000000E+00  0.00000000000E+00  0.50000000000E+03  0.50000000000E+03  0.00000000000E+00 0.  1.
         11   -1    0    0    0    0 -0.00000000000E+00 -0.00000000000E+00 -0.50000000000E+03  0.50000000000E+03  0.00000000000E+00 0. -1.
         23    2    1    2    0    0 -0.56467277635E+02 -0.32939335642E+01  0.55443130437E+02  0.12257505172E+03  0.93548378656E+02 0.  0.
        -11    1    1    2    0    0  0.86827431465E+02  0.16449628175E+03  0.37401003233E+03  0.41770986803E+03  0.00000000000E+00 0.  1.
         11    1    1    2    0    0 -0.30360153829E+02 -0.16120234819E+03 -0.42945316277E+03  0.45971508025E+03  0.00000000000E+00 0. -1.
        -15    1    3    3    0    0  0.52549014614E+01  0.29668679376E+02  0.41319235797E+02  0.51169145988E+02  0.17770000000E+01 0.  1.
         15    1    3    3    0    0 -0.61722179097E+02 -0.32962612940E+02  0.14123894640E+02  0.71405905730E+02  0.17770000000E+01 0. -1.
</event>
<event>
 7    1  0.4133533E-006  0.4505802E+03  0.7546771E-02  0.9517732E-01
        -11   -1    0    0    0    0  0.00000000000E+00  0.00000000000E+00  0.50000000000E+03  0.50000000000E+03  0.00000000000E+00 0.  1.
         11   -1    0    0    0    0 -0.00000000000E+00 -0.00000000000E+00 -0.50000000000E+03  0.50000000000E+03  0.00000000000E+00 0. -1.
         23    2    1    2    0    0  0.25830539551E+02  0.19782407465E+02  0.76058261591E+01  0.98220324713E+02  0.92362455449E+02 0.  0.
        -11    1    1    2    0    0 -0.84214567936E+02  0.36035192363E+03  0.24302818646E+03  0.44272824818E+03  0.00000000000E+00 0.  1.
         11    1    1    2    0    0  0.58384028385E+02 -0.38013433110E+03 -0.25063401262E+03  0.45905142711E+03  0.00000000000E+00 0. -1.
        -15    1    3    3    0    0 -0.13222281730E+01  0.17414312377E+02  0.47063761689E+02  0.50231085557E+02  0.17770000000E+01 0.  1.
         15    1    3    3    0    0  0.27152767724E+02  0.23680950877E+01 -0.39457935530E+02  0.47989239155E+02  0.17770000000E+01 0. -1.
</event>
<event>
 7    1  0.4133533E-006  0.5177269E+03  0.7546771E-02  0.9360995E-01
        -11   -1    0    0    0    0  0.00000000000E+00  0.00000000000E+00  0.50000000000E+03  0.50000000000E+03  0.00000000000E+00 0. -1.
         11   -1    0    0    0    0 -0.00000000000E+00 -0.00000000000E+00 -0.50000000000E+03  0.50000000000E+03  0.00000000000E+00 0.  1.
         23    2    1    2    0    0  0.14341195164E+03 -0.57516960258E+02  0.35602249370E+03  0.39770025837E+03  0.86823331532E+02 0.  0.
        -11    1    1    2    0    0 -0.43843141397E+02 -0.29500491901E+02  0.10776774708E+03  0.12002661113E+03  0.00000000000E+00 0. -1.
         11    1    1    2    0    0 -0.99568810239E+02  0.87017452158E+02 -0.46379024078E+03  0.48227313049E+03  0.00000000000E+00 0.  1.
        -15    1    3    3    0    0  0.13393233229E+02 -0.24083238586E+02  0.14486715415E+03  0.14747552732E+03  0.17770000000E+01 0.  1.
         15    1    3    3    0    0  0.13001871841E+03 -0.33433721671E+02  0.21115533955E+03  0.25022473105E+03  0.17770000000E+01 0. -1.
</event>
<event>
 7    1  0.4133533E-006  0.4727510E+03  0.7546771E-02  0.9462934E-01
        -11   -1    0    0    0    0  0.00000000000E+00  0.00000000000E+00  0.50000000000E+03  0.50000000000E+03  0.00000000000E+00 0.  1.
         11   -1    0    0    0    0 -0.00000000000E+00 -0.00000000000E+00 -0.50000000000E+03  0.50000000000E+03  0.00000000000E+00 0. -1.
         23    2    1    2    0    0  0.98054465572E+02  0.17424597186E+02 -0.45389920732E+03  0.47314060387E+03  0.88990144498E+02 0.  0.
        -11    1    1    2    0    0 -0.77620945283E+02  0.39894958331E+02  0.45764425240E+03  0.46589149016E+03  0.00000000000E+00 0.  1.
         11    1    1    2    0    0 -0.20433520289E+02 -0.57319555517E+02 -0.37450450855E+01  0.60967905973E+02  0.00000000000E+00 0. -1.
        -15    1    3    3    0    0  0.81145514375E+02  0.28389047799E+02 -0.44064117744E+03  0.44895248916E+03  0.17770000000E+01 0. -1.
         15    1    3    3    0    0  0.16908951197E+02 -0.10964450613E+02 -0.13258029878E+02  0.24188114707E+02  0.17770000000E+01 0.  1.
</event>
<event>
 7    1  0.4133533E-006  0.5146991E+03  0.7546771E-02  0.9367507E-01
        -11   -1    0    0    0    0  0.00000000000E+00  0.00000000000E+00  0.50000000000E+03  0.50000000000E+03  0.00000000000E+00 0. -1.
         11   -1    0    0    0    0 -0.00000000000E+00 -0.00000000000E+00 -0.50000000000E+03  0.50000000000E+03  0.00000000000E+00 0. -1.
         23    2    1    2    0    0 -0.22257464900E+02 -0.43647720996E+01 -0.16508054431E+03  0.18814844983E+03  0.87371660639E+02 0.  0.
        -11    1    1    2    0    0  0.29570310006E+02  0.12838124572E+03  0.46707686359E+03  0.48530087985E+03  0.00000000000E+00 0. -1.
         11    1    1    2    0    0 -0.73128451067E+01 -0.12401647362E+03 -0.30199631927E+03  0.32655067032E+03  0.00000000000E+00 0. -1.
        -15    1    3    3    0    0 -0.76245363643E+01  0.24886285711E+02 -0.14971005964E+03  0.15196618195E+03  0.17770000000E+01 0. -1.
         15    1    3    3    0    0 -0.14632928535E+02 -0.29251057810E+02 -0.15370484676E+02  0.36182267877E+02  0.17770000000E+01 0.  1.
</event>
<event>
 7    1  0.4133533E-006  0.4313659E+03  0.7546771E-02  0.9568011E-01
        -11   -1    0    0    0    0  0.00000000000E+00  0.00000000000E+00  0.50000000000E+03  0.50000000000E+03  0.00000000000E+00 0. -1.
         11   -1    0    0    0    0 -0.00000000000E+00 -0.00000000000E+00 -0.50000000000E+03  0.50000000000E+03  0.00000000000E+00 0.  1.
         23    2    1    2    0    0  0.66611931212E+01 -0.55731245966E+00 -0.39938781248E+03  0.40975593954E+03  0.91348908797E+02 0.  0.
        -11    1    1    2    0    0 -0.98780403886E+02 -0.94008343156E+02  0.43304161459E+03  0.45400459991E+03  0.00000000000E+00 0. -1.
         11    1    1    2    0    0  0.92119210764E+02  0.94565655616E+02 -0.33653802115E+02  0.13623946055E+03  0.00000000000E+00 0.  1.
        -15    1    3    3    0    0 -0.35372008186E+02 -0.20656084126E+02 -0.12842525282E+03  0.13481118672E+03  0.17770000000E+01 0. -1.
         15    1    3    3    0    0  0.42033201307E+02  0.20098771666E+02 -0.27096255966E+03  0.27494475281E+03  0.17770000000E+01 0.  1.
</event>
<event>
 7    1  0.4133533E-006  0.4364384E+03  0.7546771E-02  0.9554470E-01
        -11   -1    0    0    0    0  0.00000000000E+00  0.00000000000E+00  0.50000000000E+03  0.50000000000E+03  0.00000000000E+00 0.  1.
         11   -1    0    0    0    0 -0.00000000000E+00 -0.00000000000E+00 -0.50000000000E+03  0.50000000000E+03  0.00000000000E+00 0.  1.
         23    2    1    2    0    0 -0.31321950020E+03  0.22845835382E+03 -0.14861173326E+03  0.42519276724E+03  0.91672063949E+02 0.  0.
        -11    1    1    2    0    0 -0.62030013021E+02  0.12045310809E+02  0.11073372492E+03  0.12749419540E+03  0.00000000000E+00 0.  1.
         11    1    1    2    0    0  0.37524951322E+03 -0.24050366463E+03  0.37878008346E+02  0.44731303736E+03  0.00000000000E+00 0.  1.
        -15    1    3    3    0    0 -0.19917233129E+03  0.89704983384E+02 -0.89889473327E+02  0.23621997532E+03  0.17770000000E+01 0.  1.
         15    1    3    3    0    0 -0.11404716892E+03  0.13875337044E+03 -0.58722259937E+02  0.18897279192E+03  0.17770000000E+01 0. -1.
</event>
<event>
 7    1  0.4133533E-006  0.3722820E+03  0.7546771E-02  0.9742041E-01
        -11   -1    0    0    0    0  0.00000000000E+00  0.00000000000E+00  0.50000000000E+03  0.50000000000E+03  0.00000000000E+00 0. -1.
         11   -1    0    0    0    0 -0.00000000000E+00 -0.00000000000E+00 -0.50000000000E+03  0.50000000000E+03  0.00000000000E+00 0. -1.
         23    2    1    2    0    0 -0.65855262189E+02  0.40387984991E+03 -0.19195608606E+03  0.46098479494E+03  0.90575898956E+02 0.  0.
        -11    1    1    2    0    0 -0.10243510768E+02 -0.10578799340E+03  0.20518624113E+03  0.23107882337E+03  0.00000000000E+00 0. -1.
         11    1    1    2    0    0  0.76098772958E+02 -0.29809185651E+03 -0.13230155074E+02  0.30793638169E+03  0.00000000000E+00 0. -1.
        -15    1    3    3    0    0 -0.28114004344E+02  0.23029311765E+02 -0.17664846293E+02  0.40446890662E+02  0.17770000000E+01 0.  1.
         15    1    3    3    0    0 -0.37741257846E+02  0.38085053815E+03 -0.17429123976E+03  0.42053790428E+03  0.17770000000E+01 0. -1.
</event>
<event>
 7    1  0.4133533E-006  0.5266535E+03  0.7546771E-02  0.9342069E-01
        -11   -1    0    0    0    0  0.00000000000E+00  0.00000000000E+00  0.50000000000E+03  0.50000000000E+03  0.00000000000E+00 0.  1.
         11   -1    0    0    0    0 -0.00000000000E+00 -0.00000000000E+00 -0.50000000000E+03  0.50000000000E+03  0.00000000000E+00 0. -1.
         23    2    1    2    0    0 -0.46301741787E+02 -0.34211721312E+02 -0.15825484511E+03  0.17972729485E+03  0.62793402065E+02 0.  0.
        -11    1    1    2    0    0 -0.11715430408E+03 -0.28726944811E+02  0.45771880541E+03  0.47334646207E+03  0.00000000000E+00 0.  1.
         11    1    1    2    0    0  0.16345604587E+03  0.62938666123E+02 -0.29946396030E+03  0.34692624309E+03  0.00000000000E+00 0. -1.
        -15    1    3    3    0    0  0.34367903748E+01 -0.34561357719E+02 -0.54473030449E+02  0.64627917735E+02  0.17770000000E+01 0. -1.
         15    1    3    3    0    0 -0.49738532161E+02  0.34963640671E+00 -0.10378181466E+03  0.11509937711E+03  0.17770000000E+01 0.  1.
</event>
<event>
 7    1  0.4133533E-006  0.5097475E+03  0.7546771E-02  0.9378259E-01
        -11   -1    0    0    0    0  0.00000000000E+00  0.00000000000E+00  0.50000000000E+03  0.50000000000E+03  0.00000000000E+00 0.  1.
         11   -1    0    0    0    0 -0.00000000000E+00 -0.00000000000E+00 -0.50000000000E+03  0.50000000000E+03  0.00000000000E+00 0. -1.
         23    2    1    2    0    0 -0.78210412611E+02  0.10967443192E+03 -0.31945674872E+03  0.35894249820E+03  0.92961029758E+02 0.  0.
        -11    1    1    2    0    0  0.78490102220E+02 -0.19843530180E+03  0.44137308533E+03  0.49025245089E+03  0.00000000000E+00 0.  1.
         11    1    1    2    0    0 -0.27968960974E+00  0.88760869877E+02 -0.12191633661E+03  0.15080505091E+03  0.00000000000E+00 0. -1.
        -15    1    3    3    0    0  0.18488874112E+02  0.37359059983E+02 -0.10201919610E+03  0.11022074183E+03  0.17770000000E+01 0.  1.
         15    1    3    3    0    0 -0.96699286723E+02  0.72315371938E+02 -0.21743755263E+03  0.24872175637E+03  0.17770000000E+01 0. -1.
</event>
<event>
 7    1  0.4133533E-006  0.5142714E+03  0.7546771E-02  0.9368431E-01
        -11   -1    0    0    0    0  0.00000000000E+00  0.00000000000E+00  0.50000000000E+03  0.50000000000E+03  0.00000000000E+00 0. -1.
         11   -1    0    0    0    0 -0.00000000000E+00 -0.00000000000E+00 -0.50000000000E+03  0.50000000000E+03  0.00000000000E+00 0. -1.
         23    2    1    2    0    0 -0.21920649270E+02  0.29567608239E+02  0.13727338511E+03  0.16784196665E+03  0.89287094181E+02 0.  0.
        -11    1    1    2    0    0  0.25721439893E+02  0.52284721138E+02  0.34149384117E+03  0.34642939842E+03  0.00000000000E+00 0. -1.
         11    1    1    2    0    0 -0.38007906234E+01 -0.81852329378E+02 -0.47876722628E+03  0.48572863493E+03  0.00000000000E+00 0. -1.
        -15    1    3    3    0    0 -0.16496395086E+02  0.41053791234E+02  0.14584266938E+03  0.15241649112E+03  0.17770000000E+01 0.  1.
         15    1    3    3    0    0 -0.54242541834E+01 -0.11486182994E+02 -0.85692842710E+01  0.15425475524E+02  0.17770000000E+01 0. -1.
</event>
<event>
 7    1  0.4133533E-006  0.5078284E+03  0.7546771E-02  0.9382461E-01
        -11   -1    0    0    0    0  0.00000000000E+00  0.00000000000E+00  0.50000000000E+03  0.50000000000E+03  0.00000000000E+00 0. -1.
         11   -1    0    0    0    0 -0.00000000000E+00 -0.00000000000E+00 -0.50000000000E+03  0.50000000000E+03  0.00000000000E+00 0.  1.
         23    2    1    2    0    0 -0.23190655930E+02 -0.86773910935E+02  0.37182902049E+03  0.39380223795E+03  0.93572773779E+02 0.  0.
        -11    1    1    2    0    0 -0.20418254282E+02  0.74017483115E+01  0.11193870425E+03  0.11402615707E+03  0.00000000000E+00 0. -1.
         11    1    1    2    0    0  0.43608910212E+02  0.79372162623E+02 -0.48376772474E+03  0.49217160498E+03  0.00000000000E+00 0.  1.
        -15    1    3    3    0    0  0.11172609176E+02  0.16328833505E+02  0.40678069932E+02  0.45269427893E+02  0.17770000000E+01 0. -1.
         15    1    3    3    0    0 -0.34363265106E+02 -0.10310274444E+03  0.33115095056E+03  0.34853281006E+03  0.17770000000E+01 0.  1.
</event>
<event>
 7    1  0.4133533E-006  0.3356563E+03  0.7546771E-02  0.9868308E-01
        -11   -1    0    0    0    0  0.00000000000E+00  0.00000000000E+00  0.50000000000E+03  0.50000000000E+03  0.00000000000E+00 0.  1.
         11   -1    0    0    0    0 -0.00000000000E+00 -0.00000000000E+00 -0.50000000000E+03  0.50000000000E+03  0.00000000000E+00 0. -1.
         23    2    1    2    0    0 -0.13894494730E+03 -0.25682703578E+03 -0.22693607811E+03  0.38269383591E+03  0.98431518381E+02 0.  0.
        -11    1    1    2    0    0 -0.14155793546E+03  0.21104343112E+03  0.21495048888E+03  0.33283883725E+03  0.00000000000E+00 0.  1.
         11    1    1    2    0    0  0.28050288276E+03  0.45783604652E+02  0.11985589223E+02  0.28446732684E+03  0.00000000000E+00 0. -1.
        -15    1    3    3    0    0 -0.10555813536E+03 -0.13205799694E+03 -0.17540750772E+03  0.24362427217E+03  0.17770000000E+01 0.  1.
         15    1    3    3    0    0 -0.33386811940E+02 -0.12476903884E+03 -0.51528570384E+02  0.13906956374E+03  0.17770000000E+01 0. -1.
</event>
<event>
 6    1  0.4133533E-006  0.3764708E+03  0.7546771E-02  0.9728596E-01
        -11   -1    0    0    0    0  0.00000000000E+00  0.00000000000E+00  0.50000000000E+03  0.50000000000E+03  0.00000000000E+00 0.  1.
         11   -1    0    0    0    0 -0.00000000000E+00 -0.00000000000E+00 -0.50000000000E+03  0.50000000000E+03  0.00000000000E+00 0.  1.
        -11    1    1    2    0    0 -0.82057661088E+02 -0.62598115925E+02  0.40485964106E+03  0.41780774624E+03  0.00000000000E+00 0.  1.
         11    1    1    2    0    0  0.67982082444E+02  0.22592161476E+02  0.40047491824E+02  0.82071742366E+02  0.00000000000E+00 0.  1.
        -15    1    1    2    0    0 -0.30396073791E+01 -0.90340515018E+02 -0.12516838643E+03  0.15440508592E+03  0.17770000000E+01 0. -1.
         15    1    1    2    0    0  0.17115186023E+02  0.13034646947E+03 -0.31973874646E+03  0.34571542547E+03  0.17770000000E+01 0.  1.
</event>
<event>
 7    1  0.4133533E-006  0.4572412E+03  0.7546771E-02  0.9500921E-01
        -11   -1    0    0    0    0  0.00000000000E+00  0.00000000000E+00  0.50000000000E+03  0.50000000000E+03  0.00000000000E+00 0.  1.
         11   -1    0    0    0    0 -0.00000000000E+00 -0.00000000000E+00 -0.50000000000E+03  0.50000000000E+03  0.00000000000E+00 0.  1.
         23    2    1    2    0    0 -0.10940200425E+03 -0.38189551299E+02 -0.39506698427E+03  0.42360499554E+03  0.99679635955E+02 0.  0.
        -11    1    1    2    0    0  0.81225792168E+02  0.82337576365E+02  0.47053114576E+03  0.48453757845E+03  0.00000000000E+00 0.  1.
         11    1    1    2    0    0  0.28176212083E+02 -0.44148025066E+02 -0.75464161494E+02  0.91857426018E+02  0.00000000000E+00 0.  1.
        -15    1    3    3    0    0 -0.25654869470E+01 -0.29924829807E+02 -0.27599589595E+02  0.40828571333E+02  0.17770000000E+01 0. -1.
         15    1    3    3    0    0 -0.10683651730E+03 -0.82647214916E+01 -0.36746739467E+03  0.38277642420E+03  0.17770000000E+01 0.  1.
</event>
<event>
 6    1  0.4133533E-006  0.4564589E+03  0.7546771E-02  0.9502880E-01
        -11   -1    0    0    0    0  0.00000000000E+00  0.00000000000E+00  0.50000000000E+03  0.50000000000E+03  0.00000000000E+00 0.  1.
         11   -1    0    0    0    0 -0.00000000000E+00 -0.00000000000E+00 -0.50000000000E+03  0.50000000000E+03  0.00000000000E+00 0. -1.
        -11    1    1    2    0    0 -0.13519588106E+02  0.21158495014E+02  0.97977575412E+02  0.10114379100E+03  0.00000000000E+00 0.  1.
         11    1    1    2    0    0 -0.11274729002E+03 -0.15246301971E+02 -0.47027207806E+03  0.48383905230E+03  0.00000000000E+00 0. -1.
        -15    1    1    2    0    0  0.58700549786E+02 -0.68197706004E+02  0.21061727514E+03  0.22904033698E+03  0.17770000000E+01 0.  1.
         15    1    1    2    0    0  0.67566328340E+02  0.62285512961E+02  0.16167722751E+03  0.18597681972E+03  0.17770000000E+01 0. -1.
</event>
<event>
 7    1  0.4133533E-006  0.5262111E+03  0.7546771E-02  0.9342998E-01
        -11   -1    0    0    0    0  0.00000000000E+00  0.00000000000E+00  0.50000000000E+03  0.50000000000E+03  0.00000000000E+00 0.  1.
         11   -1    0    0    0    0 -0.00000000000E+00 -0.00000000000E+00 -0.50000000000E+03  0.50000000000E+03  0.00000000000E+00 0. -1.
         23    2    1    2    0    0  0.13942692407E+02  0.38038332583E+02  0.52715784229E+02  0.97172659296E+02  0.70867893933E+02 0.  0.
        -11    1    1    2    0    0 -0.91958559360E+02 -0.66694935418E+02  0.41372627972E+03  0.42903848963E+03  0.00000000000E+00 0.  1.
         11    1    1    2    0    0  0.78015866953E+02  0.28656602835E+02 -0.46644206395E+03  0.47378885108E+03  0.00000000000E+00 0. -1.
        -15    1    3    3    0    0  0.49866774349E+01  0.53435422876E+02  0.57469075404E+02  0.78651533529E+02  0.17770000000E+01 0. -1.
         15    1    3    3    0    0  0.89560149726E+01 -0.15397090293E+02 -0.47532911747E+01  0.18521125766E+02  0.17770000000E+01 0.  1.
</event>
<event>
 7    1  0.4133533E-006  0.4885174E+03  0.7546771E-02  0.9425876E-01
        -11   -1    0    0    0    0  0.00000000000E+00  0.00000000000E+00  0.50000000000E+03  0.50000000000E+03  0.00000000000E+00 0. -1.
         11   -1    0    0    0    0 -0.00000000000E+00 -0.00000000000E+00 -0.50000000000E+03  0.50000000000E+03  0.00000000000E+00 0. -1.
         23    2    1    2    0    0 -0.14850231816E+03 -0.37187779307E+02 -0.45553240933E+03  0.48887256502E+03  0.89725912890E+02 0.  0.
        -11    1    1    2    0    0  0.17258473621E+03  0.53274448359E+02  0.44508818114E+03  0.48034065726E+03  0.00000000000E+00 0. -1.
         11    1    1    2    0    0 -0.24082418050E+02 -0.16086669052E+02  0.10444228192E+02  0.30786777727E+02  0.00000000000E+00 0. -1.
        -15    1    3    3    0    0 -0.16080369182E+03 -0.36911086862E+02 -0.42183080729E+03  0.45295103857E+03  0.17770000000E+01 0. -1.
         15    1    3    3    0    0  0.12301373662E+02 -0.27669244535E+00 -0.33701602043E+02  0.35921526442E+02  0.17770000000E+01 0.  1.
</event>
<event>
 7    1  0.4133533E-006  0.5159588E+03  0.7546771E-02  0.9364792E-01
        -11   -1    0    0    0    0  0.00000000000E+00  0.00000000000E+00  0.50000000000E+03  0.50000000000E+03  0.00000000000E+00 0. -1.
         11   -1    0    0    0    0 -0.00000000000E+00 -0.00000000000E+00 -0.50000000000E+03  0.50000000000E+03  0.00000000000E+00 0. -1.
         23    2    1    2    0    0  0.97576104697E+02 -0.24620825089E+02 -0.35504677498E+03  0.38028520203E+03  0.91822335129E+02 0.  0.
        -11    1    1    2    0    0 -0.94892223668E+02  0.10771285423E+03  0.46226540075E+03  0.48404121086E+03  0.00000000000E+00 0. -1.
         11    1    1    2    0    0 -0.26838810283E+01 -0.83092029143E+02 -0.10721862578E+03  0.13567358710E+03  0.00000000000E+00 0. -1.
        -15    1    3    3    0    0  0.47577826331E+01  0.12827470451E+02 -0.27830857471E+01  0.14074224279E+02  0.17770000000E+01 0.  1.
         15    1    3    3    0    0  0.92818322063E+02 -0.37448295541E+02 -0.35226368923E+03  0.36621097776E+03  0.17770000000E+01 0. -1.
</event>
<event>
 7    1  0.4133533E-006  0.3266810E+03  0.7546771E-02  0.9901906E-01
        -11   -1    0    0    0    0  0.00000000000E+00  0.00000000000E+00  0.50000000000E+03  0.50000000000E+03  0.00000000000E+00 0.  1.
         11   -1    0    0    0    0 -0.00000000000E+00 -0.00000000000E+00 -0.50000000000E+03  0.50000000000E+03  0.00000000000E+00 0. -1.
         23    2    1    2    0    0 -0.13489991437E+03 -0.19136278327E+03 -0.14568887418E+03  0.29082809852E+03  0.92401477876E+02 0.  0.
        -11    1    1    2    0    0  0.65998867421E+02  0.55945697536E+02  0.40200326939E+03  0.41120846316E+03  0.00000000000E+00 0.  1.
         11    1    1    2    0    0  0.68901046948E+02  0.13541708573E+03 -0.25631439522E+03  0.29796343832E+03  0.00000000000E+00 0. -1.
        -15    1    3    3    0    0 -0.35790325801E+02 -0.26047670586E+01 -0.73403442558E+01  0.36671114179E+02  0.17770000000E+01 0. -1.
         15    1    3    3    0    0 -0.99109588569E+02 -0.18875801621E+03 -0.13834852992E+03  0.25415698434E+03  0.17770000000E+01 0.  1.
</event>
<event>
 7    1  0.4133533E-006  0.4731794E+03  0.7546771E-02  0.9461907E-01
        -11   -1    0    0    0    0  0.00000000000E+00  0.00000000000E+00  0.50000000000E+03  0.50000000000E+03  0.00000000000E+00 0. -1.
         11   -1    0    0    0    0 -0.00000000000E+00 -0.00000000000E+00 -0.50000000000E+03  0.50000000000E+03  0.00000000000E+00 0.  1.
         23    2    1    2    0    0  0.48312927965E+02  0.14862805668E+02 -0.43816404933E+03  0.45044488414E+03  0.91421099972E+02 0.  0.
        -11    1    1    2    0    0 -0.78812561703E+02  0.13190353734E+02  0.48238122803E+03  0.48895506386E+03  0.00000000000E+00 0. -1.
         11    1    1    2    0    0  0.30499633738E+02 -0.28053159402E+02 -0.44217178703E+02  0.60600052005E+02  0.00000000000E+00 0.  1.
        -15    1    3    3    0    0  0.35068582470E+02  0.52734726213E+02 -0.29681518315E+03  0.30350151153E+03  0.17770000000E+01 0.  1.
         15    1    3    3    0    0  0.13244345495E+02 -0.37871920545E+02 -0.14134886618E+03  0.14694337261E+03  0.17770000000E+01 0. -1.
</event>
<event>
 7    1  0.4133533E-006  0.5428830E+03  0.7546771E-02  0.9308658E-01
        -11   -1    0    0    0    0  0.00000000000E+00  0.00000000000E+00  0.50000000000E+03  0.50000000000E+03  0.00000000000E+00 0.  1.
         11   -1    0    0    0    0 -0.00000000000E+00 -0.00000000000E+00 -0.50000000000E+03  0.50000000000E+03  0.00000000000E+00 0. -1.
         23    2    1    2    0    0 -0.32554429425E+02  0.16952766647E+03 -0.24344235947E+03  0.31962490131E+03  0.11443982953E+03 0.  0.
        -11    1    1    2    0    0  0.72060722614E+02 -0.80229936253E+02  0.44421427963E+03  0.45711696166E+03  0.00000000000E+00 0.  1.
         11    1    1    2    0    0 -0.39506293189E+02 -0.89297730216E+02 -0.20077192016E+03  0.22325813702E+03  0.00000000000E+00 0. -1.
        -15    1    3    3    0    0 -0.53717088313E+02  0.31559522045E+02 -0.44455525321E+02  0.76557040624E+02  0.17770000000E+01 0.  1.
         15    1    3    3    0    0  0.21162658887E+02  0.13796814442E+03 -0.19898683415E+03  0.24306786069E+03  0.17770000000E+01 0. -1.
</event>
<event>
 7    1  0.4133533E-006  0.5394552E+03  0.7546771E-02  0.9315611E-01
        -11   -1    0    0    0    0  0.00000000000E+00  0.00000000000E+00  0.50000000000E+03  0.50000000000E+03  0.00000000000E+00 0. -1.
         11   -1    0    0    0    0 -0.00000000000E+00 -0.00000000000E+00 -0.50000000000E+03  0.50000000000E+03  0.00000000000E+00 0. -1.
         23    2    1    2    0    0  0.10191831295E+03 -0.10098288524E+03  0.17269681871E+03  0.24222752108E+03  0.90912568700E+02 0.  0.
        -11    1    1    2    0    0 -0.14085397847E+03 -0.78134018347E+02  0.24979895120E+03  0.29722766374E+03  0.00000000000E+00 0. -1.
         11    1    1    2    0    0  0.38935665522E+02  0.17911690359E+03 -0.42249576991E+03  0.46054481518E+03  0.00000000000E+00 0. -1.
        -15    1    3    3    0    0 -0.98544669046E+01 -0.41956704102E+02  0.37773597117E+02  0.57336532030E+02  0.17770000000E+01 0.  1.
         15    1    3    3    0    0  0.11177277986E+03 -0.59026181143E+02  0.13492322159E+03  0.18489098905E+03  0.17770000000E+01 0. -1.
</event>
<event>
 7    1  0.4133533E-006  0.5112806E+03  0.7546771E-02  0.9374916E-01
        -11   -1    0    0    0    0  0.00000000000E+00  0.00000000000E+00  0.50000000000E+03  0.50000000000E+03  0.00000000000E+00 0.  1.
         11   -1    0    0    0    0 -0.00000000000E+00 -0.00000000000E+00 -0.50000000000E+03  0.50000000000E+03  0.00000000000E+00 0. -1.
         23    2    1    2    0    0  0.58259668904E+02  0.58235429873E+02 -0.22253117499E+03  0.25270692084E+03  0.86920133923E+02 0.  0.
        -11    1    1    2    0    0 -0.13130727940E+03 -0.34792512998E+02  0.46946197104E+03  0.48871941115E+03  0.00000000000E+00 0.  1.
         11    1    1    2    0    0  0.73047610501E+02 -0.23442916875E+02 -0.24693079605E+03  0.25857366801E+03  0.00000000000E+00 0. -1.
        -15    1    3    3    0    0  0.29716533516E+02 -0.14672501286E+02 -0.29541991108E+02  0.44432438891E+02  0.17770000000E+01 0. -1.
         15    1    3    3    0    0  0.28543135388E+02  0.72907931159E+02 -0.19298918389E+03  0.20827448195E+03  0.17770000000E+01 0.  1.
</event>
<event>
 7    1  0.4133533E-006  0.5196203E+03  0.7546771E-02  0.9356947E-01
        -11   -1    0    0    0    0  0.00000000000E+00  0.00000000000E+00  0.50000000000E+03  0.50000000000E+03  0.00000000000E+00 0. -1.
         11   -1    0    0    0    0 -0.00000000000E+00 -0.00000000000E+00 -0.50000000000E+03  0.50000000000E+03  0.00000000000E+00 0.  1.
         23    2    1    2    0    0 -0.61487597928E+01 -0.11833026236E+03 -0.19856944987E+03  0.24862489631E+03  0.91349079959E+02 0.  0.
        -11    1    1    2    0    0  0.16087001720E+03  0.25649023680E+03  0.37295881204E+03  0.48037972426E+03  0.00000000000E+00 0. -1.
         11    1    1    2    0    0 -0.15472125741E+03 -0.13815997444E+03 -0.17438936217E+03  0.27099537942E+03  0.00000000000E+00 0.  1.
        -15    1    3    3    0    0  0.31849520603E+02 -0.10107194391E+03 -0.12373557638E+03  0.16292200710E+03  0.17770000000E+01 0.  1.
         15    1    3    3    0    0 -0.37998280395E+02 -0.17258318454E+02 -0.74833873491E+02  0.85702889214E+02  0.17770000000E+01 0. -1.
</event>
<event>
 7    1  0.4133533E-006  0.4442676E+03  0.7546771E-02  0.9533951E-01
        -11   -1    0    0    0    0  0.00000000000E+00  0.00000000000E+00  0.50000000000E+03  0.50000000000E+03  0.00000000000E+00 0. -1.
         11   -1    0    0    0    0 -0.00000000000E+00 -0.00000000000E+00 -0.50000000000E+03  0.50000000000E+03  0.00000000000E+00 0. -1.
         23    2    1    2    0    0  0.38430827740E+01  0.13115792489E+03 -0.38862218761E+03  0.41578345188E+03  0.68055151249E+02 0.  0.
        -11    1    1    2    0    0  0.41412688163E+02 -0.69317374832E+02  0.46739525878E+03  0.47431870839E+03  0.00000000000E+00 0. -1.
         11    1    1    2    0    0 -0.45255770937E+02 -0.61840550058E+02 -0.78773071174E+02  0.10989783973E+03  0.00000000000E+00 0. -1.
        -15    1    3    3    0    0 -0.27525640165E+02  0.55203961264E+02 -0.12107808838E+03  0.13589775356E+03  0.17770000000E+01 0. -1.
         15    1    3    3    0    0  0.31368722939E+02  0.75953963626E+02 -0.26754409922E+03  0.27988569833E+03  0.17770000000E+01 0.  1.
</event>
<event>
 6    1  0.4133533E-006  0.5497759E+03  0.7546771E-02  0.9294841E-01
        -11   -1    0    0    0    0  0.00000000000E+00  0.00000000000E+00  0.50000000000E+03  0.50000000000E+03  0.00000000000E+00 0. -1.
         11   -1    0    0    0    0 -0.00000000000E+00 -0.00000000000E+00 -0.50000000000E+03  0.50000000000E+03  0.00000000000E+00 0.  1.
        -11    1    1    2    0    0  0.82236533901E+02  0.29292900514E+02  0.34235154340E+03  0.35330652527E+03  0.00000000000E+00 0. -1.
         11    1    1    2    0    0 -0.81146462424E+02  0.52575628568E+02 -0.43971898880E+03  0.45022409331E+03  0.00000000000E+00 0.  1.
        -15    1    1    2    0    0 -0.72182160514E+02 -0.52688422196E+02  0.30075653205E+02  0.94308200994E+02  0.17770000000E+01 0. -1.
         15    1    1    2    0    0  0.71092089037E+02 -0.29180106886E+02  0.67291792193E+02  0.10216118043E+03  0.17770000000E+01 0.  1.
</event>
<event>
 7    1  0.4133533E-006  0.5130409E+03  0.7546771E-02  0.9371093E-01
        -11   -1    0    0    0    0  0.00000000000E+00  0.00000000000E+00  0.50000000000E+03  0.50000000000E+03  0.00000000000E+00 0.  1.
         11   -1    0    0    0    0 -0.00000000000E+00 -0.00000000000E+00 -0.50000000000E+03  0.50000000000E+03  0.00000000000E+00 0.  1.
         23    2    1    2    0    0  0.37614890292E+02 -0.14233635265E+03 -0.45526436843E+03  0.48695912703E+03  0.90493253782E+02 0.  0.
        -11    1    1    2    0    0  0.37986198521E+02  0.46452188641E+02  0.33957016739E+03  0.34483134384E+03  0.00000000000E+00 0.  1.
         11    1    1    2    0    0 -0.75601088812E+02  0.95884164009E+02  0.11569420104E+03  0.16820952913E+03  0.00000000000E+00 0.  1.
        -15    1    3    3    0    0  0.13971026688E+02 -0.14778994664E+03 -0.38844140684E+03  0.41584485351E+03  0.17770000000E+01 0.  1.
         15    1    3    3    0    0  0.23643863604E+02  0.54535939934E+01 -0.66822961588E+02  0.71114273518E+02  0.17770000000E+01 0. -1.
</event>
<event>
 7    1  0.4133533E-006  0.4271365E+03  0.7546771E-02  0.9579453E-01
        -11   -1    0    0    0    0  0.00000000000E+00  0.00000000000E+00  0.50000000000E+03  0.50000000000E+03  0.00000000000E+00 0. -1.
         11   -1    0    0    0    0 -0.00000000000E+00 -0.00000000000E+00 -0.50000000000E+03  0.50000000000E+03  0.00000000000E+00 0. -1.
         23    2    1    2    0    0  0.13699365818E+03  0.14716560921E+03 -0.36997568446E+03  0.43069541260E+03  0.90507195478E+02 0.  0.
        -11    1    1    2    0    0 -0.27127108177E+02 -0.69466165407E+02  0.41937823626E+03  0.42595719642E+03  0.00000000000E+00 0. -1.
         11    1    1    2    0    0 -0.10986655000E+03 -0.77699443804E+02 -0.49402551798E+02  0.14334739098E+03  0.00000000000E+00 0. -1.
        -15    1    3    3    0    0  0.11802343861E+03  0.10270097611E+03 -0.19976754423E+03  0.25374643252E+03  0.17770000000E+01 0. -1.
         15    1    3    3    0    0  0.18970219564E+02  0.44464633101E+02 -0.17020814022E+03  0.17694898009E+03  0.17770000000E+01 0.  1.
</event>
<event>
 7    1  0.4133533E-006  0.4267313E+03  0.7546771E-02  0.9580557E-01
        -11   -1    0    0    0    0  0.00000000000E+00  0.00000000000E+00  0.50000000000E+03  0.50000000000E+03  0.00000000000E+00 0. -1.
         11   -1    0    0    0    0 -0.00000000000E+00 -0.00000000000E+00 -0.50000000000E+03  0.50000000000E+03  0.00000000000E+00 0.  1.
         23    2    1    2    0    0  0.16645729688E+02  0.91502257510E+02 -0.43891099549E+03  0.45776224907E+03  0.90849718028E+02 0.  0.
        -11    1    1    2    0    0  0.81394835199E+02  0.19531367092E+01  0.38972162800E+03  0.39813550617E+03  0.00000000000E+00 0. -1.
         11    1    1    2    0    0 -0.98040564887E+02 -0.93455394220E+02  0.49189367489E+02  0.14410224476E+03  0.00000000000E+00 0.  1.
        -15    1    3    3    0    0 -0.37264051553E+02  0.39654224282E+02 -0.16100330210E+03  0.16995966597E+03  0.17770000000E+01 0.  1.
         15    1    3    3    0    0  0.53909781242E+02  0.51848033228E+02 -0.27790769339E+03  0.28780258310E+03  0.17770000000E+01 0. -1.
</event>
<event>
 7    1  0.4133533E-006  0.4441665E+03  0.7546771E-02  0.9534213E-01
        -11   -1    0    0    0    0  0.00000000000E+00  0.00000000000E+00  0.50000000000E+03  0.50000000000E+03  0.00000000000E+00 0. -1.
         11   -1    0    0    0    0 -0.00000000000E+00 -0.00000000000E+00 -0.50000000000E+03  0.50000000000E+03  0.00000000000E+00 0. -1.
         23    2    1    2    0    0 -0.67775393598E+02  0.11957753474E+02 -0.40071991784E+03  0.41657792916E+03  0.90687522082E+02 0.  0.
        -11    1    1    2    0    0  0.26109642292E+02 -0.10088999731E+03  0.45801537106E+03  0.46972181673E+03  0.00000000000E+00 0. -1.
         11    1    1    2    0    0  0.41665751306E+02  0.88932243838E+02 -0.57295453223E+02  0.11370025412E+03  0.00000000000E+00 0. -1.
        -15    1    3    3    0    0 -0.72345670176E+02  0.38339221957E+02 -0.34694789249E+03  0.35648252379E+03  0.17770000000E+01 0. -1.
         15    1    3    3    0    0  0.45702765777E+01 -0.26381468483E+02 -0.53772025353E+02  0.60095405373E+02  0.17770000000E+01 0.  1.
</event>
<event>
 7    1  0.4133533E-006  0.3486998E+03  0.7546771E-02  0.9821441E-01
        -11   -1    0    0    0    0  0.00000000000E+00  0.00000000000E+00  0.50000000000E+03  0.50000000000E+03  0.00000000000E+00 0.  1.
         11   -1    0    0    0    0 -0.00000000000E+00 -0.00000000000E+00 -0.50000000000E+03  0.50000000000E+03  0.00000000000E+00 0.  1.
         23    2    1    2    0    0  0.12003158901E+03  0.42699647025E+02 -0.23139402274E+03  0.28026994705E+03  0.93686750640E+02 0.  0.
        -11    1    1    2    0    0 -0.40818142215E+02  0.10001515242E+03  0.44101659751E+03  0.45405373110E+03  0.00000000000E+00 0.  1.
         11    1    1    2    0    0 -0.79213446795E+02 -0.14271479945E+03 -0.20962257477E+03  0.26567632185E+03  0.00000000000E+00 0.  1.
        -15    1    3    3    0    0  0.86536738571E+02  0.52274897159E+02 -0.22230839982E+03  0.24422418872E+03  0.17770000000E+01 0.  1.
         15    1    3    3    0    0  0.33494850439E+02 -0.95752501341E+01 -0.90856229181E+01  0.36045758334E+02  0.17770000000E+01 0. -1.
</event>
<event>
 7    1  0.4133533E-006  0.5184372E+03  0.7546771E-02  0.9359475E-01
        -11   -1    0    0    0    0  0.00000000000E+00  0.00000000000E+00  0.50000000000E+03  0.50000000000E+03  0.00000000000E+00 0.  1.
         11   -1    0    0    0    0 -0.00000000000E+00 -0.00000000000E+00 -0.50000000000E+03  0.50000000000E+03  0.00000000000E+00 0. -1.
         23    2    1    2    0    0 -0.30060713344E+02 -0.29885222589E+02 -0.28495585102E+03  0.31095664528E+03  0.11703599957E+03 0.  0.
        -11    1    1    2    0    0  0.13709342690E+03  0.96016291043E+01  0.46153653327E+03  0.48156284171E+03  0.00000000000E+00 0.  1.
         11    1    1    2    0    0 -0.10703271355E+03  0.20283593484E+02 -0.17658068225E+03  0.20748051301E+03  0.00000000000E+00 0. -1.
        -15    1    3    3    0    0  0.35244869410E+02  0.37366424129E+01 -0.32832593139E+02  0.48345632869E+02  0.17770000000E+01 0.  1.
         15    1    3    3    0    0 -0.65305582754E+02 -0.33621865002E+02 -0.25212325788E+03  0.26261101241E+03  0.17770000000E+01 0. -1.
</event>
<event>
 7    1  0.4133533E-006  0.5101493E+03  0.7546771E-02  0.9377382E-01
        -11   -1    0    0    0    0  0.00000000000E+00  0.00000000000E+00  0.50000000000E+03  0.50000000000E+03  0.00000000000E+00 0.  1.
         11   -1    0    0    0    0 -0.00000000000E+00 -0.00000000000E+00 -0.50000000000E+03  0.50000000000E+03  0.00000000000E+00 0. -1.
         23    2    1    2    0    0  0.23835455265E+01  0.24882031256E+02 -0.25432686386E+03  0.27008695157E+03  0.87407156215E+02 0.  0.
        -11    1    1    2    0    0  0.67554620765E+02 -0.51378590673E+02  0.48244202145E+03  0.48985068177E+03  0.00000000000E+00 0.  1.
         11    1    1    2    0    0 -0.69938166292E+02  0.26496559416E+02 -0.22811515759E+03  0.24006236666E+03  0.00000000000E+00 0. -1.
        -15    1    3    3    0    0  0.21898711111E+02 -0.21815752301E+02 -0.44344139417E+02  0.54083648420E+02  0.17770000000E+01 0.  1.
         15    1    3    3    0    0 -0.19515165585E+02  0.46697783558E+02 -0.20998272445E+03  0.21600330315E+03  0.17770000000E+01 0. -1.
</event>
<event>
 7    1  0.4133533E-006  0.5274242E+03  0.7546771E-02  0.9340454E-01
        -11   -1    0    0    0    0  0.00000000000E+00  0.00000000000E+00  0.50000000000E+03  0.50000000000E+03  0.00000000000E+00 0.  1.
         11   -1    0    0    0    0 -0.00000000000E+00 -0.00000000000E+00 -0.50000000000E+03  0.50000000000E+03  0.00000000000E+00 0. -1.
         23    2    1    2    0    0  0.12855396159E+03 -0.12614863464E+02  0.17638498980E+03  0.23665552699E+03  0.90603079477E+02 0.  0.
        -11    1    1    2    0    0 -0.33510650897E+02 -0.84068721404E+02  0.27632569784E+03  0.29076864502E+03  0.00000000000E+00 0.  1.
         11    1    1    2    0    0 -0.95043310691E+02  0.96683584869E+02 -0.45271068764E+03  0.47257582798E+03  0.00000000000E+00 0. -1.
        -15    1    3    3    0    0  0.14284479566E+03 -0.11625093759E+02  0.15926164620E+03  0.21425967454E+03  0.17770000000E+01 0.  1.
         15    1    3    3    0    0 -0.14290834070E+02 -0.98976970573E+00  0.17123343594E+02  0.22395852459E+02  0.17770000000E+01 0. -1.
</event>
<event>
 7    1  0.4133533E-006  0.3255291E+03  0.7546771E-02  0.9906302E-01
        -11   -1    0    0    0    0  0.00000000000E+00  0.00000000000E+00  0.50000000000E+03  0.50000000000E+03  0.00000000000E+00 0. -1.
         11   -1    0    0    0    0 -0.00000000000E+00 -0.00000000000E+00 -0.50000000000E+03  0.50000000000E+03  0.00000000000E+00 0.  1.
         23    2    1    2    0    0  0.11094915241E+03  0.94119553234E+02 -0.24988184555E+03  0.30546375058E+03  0.98483305488E+02 0.  0.
        -11    1    1    2    0    0 -0.47527709441E+01  0.16023732970E+03  0.36282233449E+03  0.39665934637E+03  0.00000000000E+00 0. -1.
         11    1    1    2    0    0 -0.10619638147E+03 -0.25435688293E+03 -0.11294048894E+03  0.29787690305E+03  0.00000000000E+00 0.  1.
        -15    1    3    3    0    0  0.53565279910E+02  0.48905388676E+02 -0.21006650530E+03  0.22224326904E+03  0.17770000000E+01 0.  1.
         15    1    3    3    0    0  0.57383872499E+02  0.45214164558E+02 -0.39815340247E+02  0.83220481539E+02  0.17770000000E+01 0. -1.
</event>
<event>
 7    1  0.4133533E-006  0.5139147E+03  0.7546771E-02  0.9369202E-01
        -11   -1    0    0    0    0  0.00000000000E+00  0.00000000000E+00  0.50000000000E+03  0.50000000000E+03  0.00000000000E+00 0.  1.
         11   -1    0    0    0    0 -0.00000000000E+00 -0.00000000000E+00 -0.50000000000E+03  0.50000000000E+03  0.00000000000E+00 0.  1.
         23    2    1    2    0    0 -0.37356483028E+02 -0.13618379037E+03 -0.15905582506E+03  0.23120060757E+03  0.90627997171E+02 0.  0.
        -11    1    1    2    0    0  0.11728218170E+03  0.22160246956E+03  0.41643261125E+03  0.48608526450E+03  0.00000000000E+00 0.  1.
         11    1    1    2    0    0 -0.79925698670E+02 -0.85418679188E+02 -0.25737678619E+03  0.28271412793E+03  0.00000000000E+00 0.  1.
        -15    1    3    3    0    0 -0.14218388842E+02 -0.14219328216E+03 -0.14407323306E+03  0.20293187597E+03  0.17770000000E+01 0.  1.
         15    1    3    3    0    0 -0.23138094186E+02  0.60094917885E+01 -0.14982592004E+02  0.28268731600E+02  0.17770000000E+01 0. -1.
</event>
<event>
 7    1  0.4133533E-006  0.5212308E+03  0.7546771E-02  0.9353518E-01
        -11   -1    0    0    0    0  0.00000000000E+00  0.00000000000E+00  0.50000000000E+03  0.50000000000E+03  0.00000000000E+00 0.  1.
         11   -1    0    0    0    0 -0.00000000000E+00 -0.00000000000E+00 -0.50000000000E+03  0.50000000000E+03  0.00000000000E+00 0.  1.
         23    2    1    2    0    0  0.10201953988E+03 -0.53335225172E+02 -0.33567230726E+03  0.36667587898E+03  0.92318305869E+02 0.  0.
        -11    1    1    2    0    0 -0.83965833489E+02  0.16421545063E+03  0.44181779650E+03  0.47876919358E+03  0.00000000000E+00 0.  1.
         11    1    1    2    0    0 -0.18053706390E+02 -0.11088022546E+03 -0.10614548923E+03  0.15455492744E+03  0.00000000000E+00 0.  1.
        -15    1    3    3    0    0  0.21845876248E+02  0.61287399170E+01 -0.79864703313E+01  0.24119394672E+02  0.17770000000E+01 0. -1.
         15    1    3    3    0    0  0.80173663632E+02 -0.59463965089E+02 -0.32768583693E+03  0.34255648431E+03  0.17770000000E+01 0.  1.
</event>
<event>
 7    1  0.4133533E-006  0.5110243E+03  0.7546771E-02  0.9375474E-01
        -11   -1    0    0    0    0  0.00000000000E+00  0.00000000000E+00  0.50000000000E+03  0.50000000000E+03  0.00000000000E+00 0. -1.
         11   -1    0    0    0    0 -0.00000000000E+00 -0.00000000000E+00 -0.50000000000E+03  0.50000000000E+03  0.00000000000E+00 0.  1.
         23    2    1    2    0    0 -0.40112737186E+02  0.81241111066E+02  0.36181425120E+03  0.38508251279E+03  0.95759278787E+02 0.  0.
        -11    1    1    2    0    0 -0.27832462866E+02 -0.28323688500E+02  0.11951764198E+03  0.12594182810E+03  0.00000000000E+00 0. -1.
         11    1    1    2    0    0  0.67945200052E+02 -0.52917422566E+02 -0.48133189318E+03  0.48897565912E+03  0.00000000000E+00 0.  1.
        -15    1    3    3    0    0 -0.65129911078E+02  0.57630077754E+02  0.31606258719E+03  0.32781373969E+03  0.17770000000E+01 0. -1.
         15    1    3    3    0    0  0.25017173893E+02  0.23611033312E+02  0.45751664001E+02  0.57268773093E+02  0.17770000000E+01 0.  1.
</event>
<event>
 7    1  0.4133533E-006  0.3891383E+03  0.7546771E-02  0.9689049E-01
        -11   -1    0    0    0    0  0.00000000000E+00  0.00000000000E+00  0.50000000000E+03  0.50000000000E+03  0.00000000000E+00 0. -1.
         11   -1    0    0    0    0 -0.00000000000E+00 -0.00000000000E+00 -0.50000000000E+03  0.50000000000E+03  0.00000000000E+00 0.  1.
         23    2    1    2    0    0 -0.11003984890E+03 -0.21490266696E+01 -0.31856874167E+03  0.34900092270E+03  0.90566076513E+02 0.  0.
        -11    1    1    2    0    0 -0.20973550008E+01  0.13854239176E+03  0.42350720885E+03  0.44559707041E+03  0.00000000000E+00 0. -1.
         11    1    1    2    0    0  0.11213720390E+03 -0.13639336509E+03 -0.10493846718E+03  0.20540200688E+03  0.00000000000E+00 0.  1.
        -15    1    3    3    0    0 -0.65213411758E+02 -0.43770011269E+02 -0.21233436009E+03  0.22640150433E+03  0.17770000000E+01 0.  1.
         15    1    3    3    0    0 -0.44826437143E+02  0.41620984600E+02 -0.10623438159E+03  0.12259941838E+03  0.17770000000E+01 0. -1.
</event>
<event>
 7    1  0.4133533E-006  0.5116625E+03  0.7546771E-02  0.9374086E-01
        -11   -1    0    0    0    0  0.00000000000E+00  0.00000000000E+00  0.50000000000E+03  0.50000000000E+03  0.00000000000E+00 0.  1.
         11   -1    0    0    0    0 -0.00000000000E+00 -0.00000000000E+00 -0.50000000000E+03  0.50000000000E+03  0.00000000000E+00 0. -1.
         23    2    1    2    0    0  0.40957282692E+02 -0.24769194540E+02 -0.16716019758E+03  0.19626003983E+03  0.91019006669E+02 0.  0.
        -11    1    1    2    0    0 -0.75186263945E+02  0.66507311513E+02  0.47790932047E+03  0.48833750149E+03  0.00000000000E+00 0.  1.
         11    1    1    2    0    0  0.34228981253E+02 -0.41738116973E+02 -0.31074912289E+03  0.31540245868E+03  0.00000000000E+00 0. -1.
        -15    1    3    3    0    0 -0.16189902549E+02  0.31187881702E+00  0.15541613695E+01  0.16364087494E+02  0.17770000000E+01 0. -1.
         15    1    3    3    0    0  0.57147185242E+02 -0.25081073357E+02 -0.16871435895E+03  0.17989595233E+03  0.17770000000E+01 0.  1.
</event>
<event>
 6    1  0.4133533E-006  0.3539978E+03  0.7546771E-02  0.9803029E-01
        -11   -1    0    0    0    0  0.00000000000E+00  0.00000000000E+00  0.50000000000E+03  0.50000000000E+03  0.00000000000E+00 0.  1.
         11   -1    0    0    0    0 -0.00000000000E+00 -0.00000000000E+00 -0.50000000000E+03  0.50000000000E+03  0.00000000000E+00 0.  1.
        -11    1    1    2    0    0 -0.34986349485E+01  0.59174407584E+02  0.30298077546E+03  0.30872512250E+03  0.00000000000E+00 0.  1.
         11    1    1    2    0    0  0.20229802847E+03 -0.20132107706E+02 -0.38095220133E+03  0.43180362873E+03  0.00000000000E+00 0.  1.
        -15    1    1    2    0    0 -0.46354688160E+02 -0.46851904215E+02  0.83893883617E+02  0.10670145023E+03  0.17770000000E+01 0. -1.
         15    1    1    2    0    0 -0.15244470536E+03  0.78096043381E+01 -0.59224577485E+01  0.15276979855E+03  0.17770000000E+01 0.  1.
</event>
<event>
 7    1  0.4133533E-006  0.5333904E+03  0.7546771E-02  0.9328047E-01
        -11   -1    0    0    0    0  0.00000000000E+00  0.00000000000E+00  0.50000000000E+03  0.50000000000E+03  0.00000000000E+00 0.  1.
         11   -1    0    0    0    0 -0.00000000000E+00 -0.00000000000E+00 -0.50000000000E+03  0.50000000000E+03  0.00000000000E+00 0. -1.
         23    2    1    2    0    0 -0.49523181102E+02  0.13768087822E+03  0.19532134905E+03  0.26574110816E+03  0.10516338470E+03 0.  0.
        -11    1    1    2    0    0  0.21123187856E+02 -0.49979812729E+02  0.26209149986E+03  0.26764925751E+03  0.00000000000E+00 0.  1.
         11    1    1    2    0    0  0.28399993246E+02 -0.87701065486E+02 -0.45741284891E+03  0.46660963433E+03  0.00000000000E+00 0. -1.
        -15    1    3    3    0    0 -0.35355915072E+02  0.10029031097E+03  0.19890818593E+03  0.22555666996E+03  0.17770000000E+01 0.  1.
         15    1    3    3    0    0 -0.14167266030E+02  0.37390567249E+02 -0.35868368819E+01  0.40184438204E+02  0.17770000000E+01 0. -1.
</event>
<event>
 7    1  0.4133533E-006  0.5268431E+03  0.7546771E-02  0.9341672E-01
        -11   -1    0    0    0    0  0.00000000000E+00  0.00000000000E+00  0.50000000000E+03  0.50000000000E+03  0.00000000000E+00 0.  1.
         11   -1    0    0    0    0 -0.00000000000E+00 -0.00000000000E+00 -0.50000000000E+03  0.50000000000E+03  0.00000000000E+00 0.  1.
         23    2    1    2    0    0  0.18119413926E+03  0.21139130662E+03 -0.37107079103E+03  0.47315694360E+03  0.93093290310E+02 0.  0.
        -11    1    1    2    0    0 -0.13693352688E+02 -0.11863141579E+03  0.29950577707E+03  0.32243546830E+03  0.00000000000E+00 0.  1.
         11    1    1    2    0    0 -0.16750078657E+03 -0.92759890833E+02  0.71565013962E+02  0.20440758810E+03  0.00000000000E+00 0.  1.
        -15    1    3    3    0    0  0.72892014852E+02  0.12543157054E+03 -0.25150639047E+03  0.29035314170E+03  0.17770000000E+01 0.  1.
         15    1    3    3    0    0  0.10830212441E+03  0.85959736083E+02 -0.11956440056E+03  0.18280380190E+03  0.17770000000E+01 0. -1.
</event>
<event>
 7    1  0.4133533E-006  0.5134279E+03  0.7546771E-02  0.9370255E-01
        -11   -1    0    0    0    0  0.00000000000E+00  0.00000000000E+00  0.50000000000E+03  0.50000000000E+03  0.00000000000E+00 0. -1.
         11   -1    0    0    0    0 -0.00000000000E+00 -0.00000000000E+00 -0.50000000000E+03  0.50000000000E+03  0.00000000000E+00 0. -1.
         23    2    1    2    0    0 -0.52374091763E+02 -0.16548209933E+02 -0.36686703137E+03  0.38208504611E+03  0.91546026751E+02 0.  0.
        -11    1    1    2    0    0  0.68629272048E+02 -0.49638749677E+02  0.47914345265E+03  0.48657212278E+03  0.00000000000E+00 0. -1.
         11    1    1    2    0    0 -0.16255180286E+02  0.66186959610E+02 -0.11227642128E+03  0.13134283111E+03  0.00000000000E+00 0. -1.
        -15    1    3    3    0    0  0.20041881784E+02 -0.16562035873E+02 -0.43541909256E+02  0.50744789371E+02  0.17770000000E+01 0.  1.
         15    1    3    3    0    0 -0.72415973547E+02  0.13825939188E-01 -0.32332512212E+03  0.33134025674E+03  0.17770000000E+01 0. -1.
</event>
<event>
 7    1  0.4133533E-006  0.5147698E+03  0.7546771E-02  0.9367354E-01
        -11   -1    0    0    0    0  0.00000000000E+00  0.00000000000E+00  0.50000000000E+03  0.50000000000E+03  0.00000000000E+00 0.  1.
         11   -1    0    0    0    0 -0.00000000000E+00 -0.00000000000E+00 -0.50000000000E+03  0.50000000000E+03  0.00000000000E+00 0. -1.
         23    2    1    2    0    0 -0.33083432443E+02  0.51597924947E+02 -0.37651979549E+03  0.39210412322E+03  0.90673191694E+02 0.  0.
        -11    1    1    2    0    0  0.94668993653E+02 -0.13952697632E+02  0.47570103380E+03  0.48523022339E+03  0.00000000000E+00 0.  1.
         11    1    1    2    0    0 -0.61585561210E+02 -0.37645227316E+02 -0.99181238311E+02  0.12266565339E+03  0.00000000000E+00 0. -1.
        -15    1    3    3    0    0  0.20380120475E+02  0.29280201187E+02 -0.56256609978E+02  0.66638152640E+02  0.17770000000E+01 0.  1.
         15    1    3    3    0    0 -0.53463552918E+02  0.22317723761E+02 -0.32026318551E+03  0.32546597058E+03  0.17770000000E+01 0. -1.
</event>
<event>
 7    1  0.4133533E-006  0.5346756E+03  0.7546771E-02  0.9325397E-01
        -11   -1    0    0    0    0  0.00000000000E+00  0.00000000000E+00  0.50000000000E+03  0.50000000000E+03  0.00000000000E+00 0.  1.
         11   -1    0    0    0    0 -0.00000000000E+00 -0.00000000000E+00 -0.50000000000E+03  0.50000000000E+03  0.00000000000E+00 0. -1.
         23    2    1    2    0    0 -0.97473112906E+02  0.15197227668E+03 -0.19868714629E+03  0.28375963809E+03  0.91904132059E+02 0.  0.
        -11    1    1    2    0    0  0.29997642996E+02 -0.14746807734E+03  0.44031822115E+03  0.46532443338E+03  0.00000000000E+00 0.  1.
         11    1    1    2    0    0  0.67475469910E+02 -0.45041993369E+01 -0.24163107487E+03  0.25091592853E+03  0.00000000000E+00 0. -1.
        -15    1    3    3    0    0 -0.10595505960E+03  0.13765786612E+03 -0.20228584105E+03  0.26664373606E+03  0.17770000000E+01 0. -1.
         15    1    3    3    0    0  0.84819466918E+01  0.14314410555E+02  0.35986947662E+01  0.17115902028E+02  0.17770000000E+01 0.  1.
</event>
<event>
 7    1  0.4133533E-006  0.5117454E+03  0.7546771E-02  0.9373905E-01
        -11   -1    0    0    0    0  0.00000000000E+00  0.00000000000E+00  0.50000000000E+03  0.50000000000E+03  0.00000000000E+00 0.  1.
         11   -1    0    0    0    0 -0.00000000000E+00 -0.00000000000E+00 -0.50000000000E+03  0.50000000000E+03  0.00000000000E+00 0. -1.
         23    2    1    2    0    0 -0.13975891296E+03  0.32724097441E+02  0.36715754969E+03  0.40505500528E+03  0.93067022635E+02 0.  0.
        -11    1    1    2    0    0 -0.13403850289E+02  0.60229925910E+02  0.87037593611E+02  0.10669043949E+03  0.00000000000E+00 0.  1.
         11    1    1    2    0    0  0.15316276325E+03 -0.92954023351E+02 -0.45419514330E+03  0.48825455523E+03  0.00000000000E+00 0. -1.
        -15    1    3    3    0    0 -0.82079285581E+02 -0.17305624718E+02  0.26187636061E+03  0.27498887203E+03  0.17770000000E+01 0.  1.
         15    1    3    3    0    0 -0.57679627376E+02  0.50029722159E+02  0.10528118908E+03  0.13006613324E+03  0.17770000000E+01 0. -1.
</event>
<event>
 7    1  0.4133533E-006  0.5116889E+03  0.7546771E-02  0.9374028E-01
        -11   -1    0    0    0    0  0.00000000000E+00  0.00000000000E+00  0.50000000000E+03  0.50000000000E+03  0.00000000000E+00 0. -1.
         11   -1    0    0    0    0 -0.00000000000E+00 -0.00000000000E+00 -0.50000000000E+03  0.50000000000E+03  0.00000000000E+00 0.  1.
         23    2    1    2    0    0  0.11392658451E+03 -0.22906753583E+02 -0.46594895193E+03  0.48831111585E+03  0.88517422225E+02 0.  0.
        -11    1    1    2    0    0 -0.23965225980E+02  0.66396390369E+02  0.35677498569E+03  0.36369108200E+03  0.00000000000E+00 0. -1.
         11    1    1    2    0    0 -0.89961358530E+02 -0.43489636786E+02  0.10917396624E+03  0.14799780215E+03  0.00000000000E+00 0.  1.
        -15    1    3    3    0    0  0.33410421783E+02  0.33416381018E+02 -0.17115662697E+03  0.17756874581E+03  0.17770000000E+01 0.  1.
         15    1    3    3    0    0  0.80516162726E+02 -0.56323134601E+02 -0.29479232496E+03  0.31074237004E+03  0.17770000000E+01 0. -1.
</event>
<event>
 7    1  0.4385000E-006  0.5141204E+03  0.7546771E-02  0.9368757E-01
        -11   -1    0    0    0    0  0.00000000000E+00  0.00000000000E+00  0.50000000000E+03  0.50000000000E+03  0.00000000000E+00 0.  1.
         11   -1    0    0    0    0 -0.00000000000E+00 -0.00000000000E+00 -0.50000000000E+03  0.50000000000E+03  0.00000000000E+00 0. -1.
         23    2    1    2    0    0  0.29912275002E+02 -0.20036258779E+02  0.18550438096E+03  0.20987170893E+03  0.91312994641E+02 0.  0.
        -11    1    1    2    0    0  0.42746260903E+02 -0.13548429125E+03  0.26904276862E+03  0.30424866039E+03  0.00000000000E+00 0.  1.
         11    1    1    2    0    0 -0.72658535905E+02  0.15552055003E+03 -0.45454714958E+03  0.48587963069E+03  0.00000000000E+00 0. -1.
        -15    1    3    3    0    0 -0.22929483607E+02 -0.31868782343E+02  0.11098850516E+03  0.11774118444E+03  0.17770000000E+01 0.  1.
         15    1    3    3    0    0  0.52841758610E+02  0.11832523563E+02  0.74515875797E+02  0.92130524484E+02  0.17770000000E+01 0. -1.
</event>
<event>
 7    1  0.4133533E-006  0.3830150E+03  0.7546771E-02  0.9707962E-01
        -11   -1    0    0    0    0  0.00000000000E+00  0.00000000000E+00  0.50000000000E+03  0.50000000000E+03  0.00000000000E+00 0.  1.
         11   -1    0    0    0    0 -0.00000000000E+00 -0.00000000000E+00 -0.50000000000E+03  0.50000000000E+03  0.00000000000E+00 0.  1.
         23    2    1    2    0    0 -0.51033848290E+02 -0.91738021716E+01 -0.18297413385E+03  0.21071552215E+03  0.90735248390E+02 0.  0.
        -11    1    1    2    0    0 -0.26254385226E+03  0.19513931750E+03  0.25854785626E+03  0.41695997598E+03  0.00000000000E+00 0.  1.
         11    1    1    2    0    0  0.31357770055E+03 -0.18596551533E+03 -0.75573722411E+02  0.37232450187E+03  0.00000000000E+00 0.  1.
        -15    1    3    3    0    0 -0.35305612113E+02  0.39649917791E+02 -0.89476875502E+02  0.10405705745E+03  0.17770000000E+01 0.  1.
         15    1    3    3    0    0 -0.15728236177E+02 -0.48823719963E+02 -0.93497258347E+02  0.10665846470E+03  0.17770000000E+01 0. -1.
</event>
<event>
 7    1  0.4133533E-006  0.5352217E+03  0.7546771E-02  0.9324274E-01
        -11   -1    0    0    0    0  0.00000000000E+00  0.00000000000E+00  0.50000000000E+03  0.50000000000E+03  0.00000000000E+00 0.  1.
         11   -1    0    0    0    0 -0.00000000000E+00 -0.00000000000E+00 -0.50000000000E+03  0.50000000000E+03  0.00000000000E+00 0. -1.
         23    2    1    2    0    0 -0.54886333657E+02  0.94375129470E+02 -0.27438864733E+03  0.30720421446E+03  0.84652967518E+02 0.  0.
        -11    1    1    2    0    0 -0.78487339624E+02 -0.54117185057E+02  0.45489552585E+03  0.46477830375E+03  0.00000000000E+00 0.  1.
         11    1    1    2    0    0  0.13337367328E+03 -0.40257944413E+02 -0.18050687851E+03  0.22801748179E+03  0.00000000000E+00 0. -1.
        -15    1    3    3    0    0 -0.26332538025E+02  0.10356989069E+03 -0.22974358196E+03  0.25338783712E+03  0.17770000000E+01 0. -1.
         15    1    3    3    0    0 -0.28553795632E+02 -0.91947612232E+01 -0.44645065374E+02  0.53816377342E+02  0.17770000000E+01 0.  1.
</event>
<event>
 7    1  0.4133533E-006  0.4685594E+03  0.7546771E-02  0.9473046E-01
        -11   -1    0    0    0    0  0.00000000000E+00  0.00000000000E+00  0.50000000000E+03  0.50000000000E+03  0.00000000000E+00 0. -1.
         11   -1    0    0    0    0 -0.00000000000E+00 -0.00000000000E+00 -0.50000000000E+03  0.50000000000E+03  0.00000000000E+00 0.  1.
         23    2    1    2    0    0  0.65965139322E+02  0.78355469014E+02 -0.42864245414E+03  0.44994912648E+03  0.90713195267E+02 0.  0.
        -11    1    1    2    0    0 -0.13407366125E+02 -0.84867559768E+02  0.47314052456E+03  0.48087858774E+03  0.00000000000E+00 0. -1.
         11    1    1    2    0    0 -0.52557773197E+02  0.65120907534E+01 -0.44498070420E+02  0.69172285783E+02  0.00000000000E+00 0.  1.
        -15    1    3    3    0    0 -0.66973214377E+01 -0.13098571201E+02 -0.19716750481E+02  0.24664441215E+02  0.17770000000E+01 0. -1.
         15    1    3    3    0    0  0.72662460759E+02  0.91454040216E+02 -0.40892570366E+03  0.42528468526E+03  0.17770000000E+01 0.  1.
</event>
<event>
 7    1  0.4133533E-006  0.5026971E+03  0.7546771E-02  0.9393795E-01
        -11   -1    0    0    0    0  0.00000000000E+00  0.00000000000E+00  0.50000000000E+03  0.50000000000E+03  0.00000000000E+00 0.  1.
         11   -1    0    0    0    0 -0.00000000000E+00 -0.00000000000E+00 -0.50000000000E+03  0.50000000000E+03  0.00000000000E+00 0. -1.
         23    2    1    2    0    0  0.19681796200E+02  0.11011428287E+03 -0.48163807098E+03  0.50269714763E+03  0.90645807556E+02 0.  0.
        -11    1    1    2    0    0 -0.85020504231E+01 -0.89216188565E+02  0.44300479462E+03  0.45197904954E+03  0.00000000000E+00 0.  1.
         11    1    1    2    0    0 -0.11179745777E+02 -0.20898094308E+02  0.38633276353E+02  0.45323802831E+02  0.00000000000E+00 0. -1.
        -15    1    3    3    0    0 -0.21436898949E+02  0.47377036745E+02 -0.90187811197E+02  0.10412071487E+03  0.17770000000E+01 0.  1.
         15    1    3    3    0    0  0.41118695149E+02  0.62737246128E+02 -0.39145025978E+03  0.39857643276E+03  0.17770000000E+01 0. -1.
</event>
<event>
 7    1  0.5252196E-006  0.5136671E+03  0.7546771E-02  0.9369737E-01
        -11   -1    0    0    0    0  0.00000000000E+00  0.00000000000E+00  0.50000000000E+03  0.50000000000E+03  0.00000000000E+00 0.  1.
         11   -1    0    0    0    0 -0.00000000000E+00 -0.00000000000E+00 -0.50000000000E+03  0.50000000000E+03  0.00000000000E+00 0.  1.
         23    2    1    2    0    0  0.10502120903E+03 -0.50431457466E+02  0.21289840620E+03  0.26162355889E+03  0.97715755926E+02 0.  0.
        -11    1    1    2    0    0  0.17072336784E+03 -0.89007823303E+02  0.16265629573E+03  0.25204351108E+03  0.00000000000E+00 0.  1.
         11    1    1    2    0    0 -0.27574457687E+03  0.13943928077E+03 -0.37555470193E+03  0.48633293003E+03  0.00000000000E+00 0.  1.
        -15    1    3    3    0    0  0.60639685546E+02 -0.71851630960E+02  0.17766662753E+03  0.20101844841E+03  0.17770000000E+01 0.  1.
         15    1    3    3    0    0  0.44381523481E+02  0.21420173493E+02  0.35231778671E+02  0.60605110480E+02  0.17770000000E+01 0. -1.
</event>
<event>
 7    1  0.4133533E-006  0.4135239E+03  0.7546771E-02  0.9617265E-01
        -11   -1    0    0    0    0  0.00000000000E+00  0.00000000000E+00  0.50000000000E+03  0.50000000000E+03  0.00000000000E+00 0.  1.
         11   -1    0    0    0    0 -0.00000000000E+00 -0.00000000000E+00 -0.50000000000E+03  0.50000000000E+03  0.00000000000E+00 0. -1.
         23    2    1    2    0    0 -0.29679888903E+02  0.90749580992E+02 -0.34631000890E+03  0.37046431161E+03  0.90536189763E+02 0.  0.
        -11    1    1    2    0    0  0.14347179760E+03 -0.20352991344E+03  0.39068075209E+03  0.46329259915E+03  0.00000000000E+00 0.  1.
         11    1    1    2    0    0 -0.11379190869E+03  0.11278033244E+03 -0.44370743190E+02  0.16624308924E+03  0.00000000000E+00 0. -1.
        -15    1    3    3    0    0  0.30250910917E+02  0.48788594398E+02 -0.17480556666E+03  0.18399888157E+03  0.17770000000E+01 0. -1.
         15    1    3    3    0    0 -0.59930799820E+02  0.41960986594E+02 -0.17150444224E+03  0.18646543004E+03  0.17770000000E+01 0.  1.
</event>
<event>
 7    1  0.4133533E-006  0.5274783E+03  0.7546771E-02  0.9340341E-01
        -11   -1    0    0    0    0  0.00000000000E+00  0.00000000000E+00  0.50000000000E+03  0.50000000000E+03  0.00000000000E+00 0. -1.
         11   -1    0    0    0    0 -0.00000000000E+00 -0.00000000000E+00 -0.50000000000E+03  0.50000000000E+03  0.00000000000E+00 0.  1.
         23    2    1    2    0    0  0.30678393435E+02  0.19564858283E+02 -0.31943668009E+03  0.33381473774E+03  0.89825046855E+02 0.  0.
        -11    1    1    2    0    0  0.44980792588E+01  0.10926091776E+03  0.45969399356E+03  0.47252169112E+03  0.00000000000E+00 0. -1.
         11    1    1    2    0    0 -0.35176472694E+02 -0.12882577605E+03 -0.14025731347E+03  0.19366357114E+03  0.00000000000E+00 0.  1.
        -15    1    3    3    0    0  0.59231367811E+02  0.10780136146E+02 -0.26434064211E+03  0.27111565625E+03  0.17770000000E+01 0.  1.
         15    1    3    3    0    0 -0.28552974375E+02  0.87847221369E+01 -0.55096037982E+02  0.62699081485E+02  0.17770000000E+01 0. -1.
</event>
<event>
 7    1  0.4133533E-006  0.5191099E+03  0.7546771E-02  0.9358037E-01
        -11   -1    0    0    0    0  0.00000000000E+00  0.00000000000E+00  0.50000000000E+03  0.50000000000E+03  0.00000000000E+00 0.  1.
         11   -1    0    0    0    0 -0.00000000000E+00 -0.00000000000E+00 -0.50000000000E+03  0.50000000000E+03  0.00000000000E+00 0. -1.
         23    2    1    2    0    0 -0.52815280207E+02  0.23493717597E+02  0.15420494481E+03  0.18902710800E+03  0.92793717282E+02 0.  0.
        -11    1    1    2    0    0 -0.62378860207E+02 -0.11172354154E+03  0.30427193465E+03  0.33008284135E+03  0.00000000000E+00 0.  1.
         11    1    1    2    0    0  0.11519414041E+03  0.88229823938E+02 -0.45847687946E+03  0.48089005065E+03  0.00000000000E+00 0. -1.
        -15    1    3    3    0    0  0.31335013912E+01 -0.23720285006E+02  0.84815453513E+02  0.88143573988E+02  0.17770000000E+01 0. -1.
         15    1    3    3    0    0 -0.55948781598E+02  0.47214002604E+02  0.69389491293E+02  0.10088353401E+03  0.17770000000E+01 0.  1.
</event>
<event>
 7    1  0.4133533E-006  0.5231925E+03  0.7546771E-02  0.9349360E-01
        -11   -1    0    0    0    0  0.00000000000E+00  0.00000000000E+00  0.50000000000E+03  0.50000000000E+03  0.00000000000E+00 0. -1.
         11   -1    0    0    0    0 -0.00000000000E+00 -0.00000000000E+00 -0.50000000000E+03  0.50000000000E+03  0.00000000000E+00 0.  1.
         23    2    1    2    0    0  0.18660472366E+03 -0.70621076758E+02  0.23609150327E+03  0.32066185049E+03  0.85300440039E+02 0.  0.
        -11    1    1    2    0    0 -0.19518028969E+02 -0.88047882776E+02  0.18134301110E+03  0.20253066630E+03  0.00000000000E+00 0. -1.
         11    1    1    2    0    0 -0.16708669470E+03  0.15866895953E+03 -0.41743451436E+03  0.47680748321E+03  0.00000000000E+00 0.  1.
        -15    1    3    3    0    0  0.27450404008E+02 -0.12884202588E+01  0.88854381199E+02  0.93023886686E+02  0.17770000000E+01 0.  1.
         15    1    3    3    0    0  0.15915431966E+03 -0.69332656499E+02  0.14723712207E+03  0.22763796381E+03  0.17770000000E+01 0. -1.
</event>
<event>
 7    1  0.4133533E-006  0.5200498E+03  0.7546771E-02  0.9356031E-01
        -11   -1    0    0    0    0  0.00000000000E+00  0.00000000000E+00  0.50000000000E+03  0.50000000000E+03  0.00000000000E+00 0. -1.
         11   -1    0    0    0    0 -0.00000000000E+00 -0.00000000000E+00 -0.50000000000E+03  0.50000000000E+03  0.00000000000E+00 0.  1.
         23    2    1    2    0    0  0.58539314781E+02  0.71254703493E+02 -0.32487400245E+03  0.34968434416E+03  0.90730033310E+02 0.  0.
        -11    1    1    2    0    0 -0.11851427186E+03  0.47340037867E+01  0.46506357677E+03  0.47995017852E+03  0.00000000000E+00 0. -1.
         11    1    1    2    0    0  0.59974957080E+02 -0.75988707280E+02 -0.14018957432E+03  0.17036547731E+03  0.00000000000E+00 0.  1.
        -15    1    3    3    0    0  0.77226281864E+02  0.34233108112E+02 -0.25238168711E+03  0.26614935285E+03  0.17770000000E+01 0.  1.
         15    1    3    3    0    0 -0.18686967083E+02  0.37021595381E+02 -0.72492315330E+02  0.83534991317E+02  0.17770000000E+01 0. -1.
</event>
<event>
 7    1  0.4133533E-006  0.5144205E+03  0.7546771E-02  0.9368109E-01
        -11   -1    0    0    0    0  0.00000000000E+00  0.00000000000E+00  0.50000000000E+03  0.50000000000E+03  0.00000000000E+00 0. -1.
         11   -1    0    0    0    0 -0.00000000000E+00 -0.00000000000E+00 -0.50000000000E+03  0.50000000000E+03  0.00000000000E+00 0.  1.
         23    2    1    2    0    0 -0.31801639669E+02 -0.60383608039E+01  0.16927222563E+03  0.19823426315E+03  0.97958821091E+02 0.  0.
        -11    1    1    2    0    0 -0.10990301574E+03 -0.58126504104E+02  0.29071701227E+03  0.31618624981E+03  0.00000000000E+00 0. -1.
         11    1    1    2    0    0  0.14170465541E+03  0.64164864908E+02 -0.45998923790E+03  0.48557948704E+03  0.00000000000E+00 0.  1.
        -15    1    3    3    0    0 -0.36951645952E+02 -0.48114382989E+02  0.10261220333E+03  0.11921761611E+03  0.17770000000E+01 0. -1.
         15    1    3    3    0    0  0.51500062830E+01  0.42076022186E+02  0.66660022303E+02  0.79016647044E+02  0.17770000000E+01 0.  1.
</event>
<event>
 7    1  0.4133533E-006  0.5208143E+03  0.7546771E-02  0.9354404E-01
        -11   -1    0    0    0    0  0.00000000000E+00  0.00000000000E+00  0.50000000000E+03  0.50000000000E+03  0.00000000000E+00 0.  1.
         11   -1    0    0    0    0 -0.00000000000E+00 -0.00000000000E+00 -0.50000000000E+03  0.50000000000E+03  0.00000000000E+00 0.  1.
         23    2    1    2    0    0 -0.10975405209E+03 -0.42418397066E+02 -0.17619503137E+03  0.23117988784E+03  0.92488805298E+02 0.  0.
        -11    1    1    2    0    0  0.13029479862E+03 -0.54996990380E+01  0.46109860372E+03  0.47918566714E+03  0.00000000000E+00 0.  1.
         11    1    1    2    0    0 -0.20540746534E+02  0.47918096104E+02 -0.28490357235E+03  0.28963444502E+03  0.00000000000E+00 0.  1.
        -15    1    3    3    0    0 -0.31428490841E+02 -0.59272238839E+02 -0.10115161578E+03  0.12139091991E+03  0.17770000000E+01 0.  1.
         15    1    3    3    0    0 -0.78325561246E+02  0.16853841773E+02 -0.75043415589E+02  0.10978896793E+03  0.17770000000E+01 0. -1.
</event>
<event>
 7    1  0.4133533E-006  0.5329029E+03  0.7546771E-02  0.9329055E-01
        -11   -1    0    0    0    0  0.00000000000E+00  0.00000000000E+00  0.50000000000E+03  0.50000000000E+03  0.00000000000E+00 0.  1.
         11   -1    0    0    0    0 -0.00000000000E+00 -0.00000000000E+00 -0.50000000000E+03  0.50000000000E+03  0.00000000000E+00 0. -1.
         23    2    1    2    0    0  0.55452059849E+02 -0.11925596850E+02 -0.21831794645E+03  0.24337582617E+03  0.91388818913E+02 0.  0.
        -11    1    1    2    0    0  0.72432741776E+02  0.15656461978E+03  0.43407459879E+03  0.46709714146E+03  0.00000000000E+00 0.  1.
         11    1    1    2    0    0 -0.12788480162E+03 -0.14463902293E+03 -0.21575665234E+03  0.28952703236E+03  0.00000000000E+00 0. -1.
        -15    1    3    3    0    0 -0.23656460548E+02  0.87779340923E+01 -0.42378837916E+02  0.49353863929E+02  0.17770000000E+01 0.  1.
         15    1    3    3    0    0  0.79108520397E+02 -0.20703530942E+02 -0.17593910853E+03  0.19402196225E+03  0.17770000000E+01 0. -1.
</event>
<event>
 7    1  0.4133533E-006  0.5168431E+03  0.7546771E-02  0.9362891E-01
        -11   -1    0    0    0    0  0.00000000000E+00  0.00000000000E+00  0.50000000000E+03  0.50000000000E+03  0.00000000000E+00 0. -1.
         11   -1    0    0    0    0 -0.00000000000E+00 -0.00000000000E+00 -0.50000000000E+03  0.50000000000E+03  0.00000000000E+00 0. -1.
         23    2    1    2    0    0  0.56202032128E+02  0.22444882858E+02  0.17312630677E+03  0.20523557677E+03  0.92122107528E+02 0.  0.
        -11    1    1    2    0    0  0.89295971489E+02 -0.10142213561E+03  0.28078286251E+03  0.31160750311E+03  0.00000000000E+00 0. -1.
         11    1    1    2    0    0 -0.14549800362E+03  0.78977252753E+02 -0.45390916927E+03  0.48315692012E+03  0.00000000000E+00 0. -1.
        -15    1    3    3    0    0 -0.22690724718E+02 -0.50522502678E+01  0.61677137234E+02  0.65936493745E+02  0.17770000000E+01 0.  1.
         15    1    3    3    0    0  0.78892756846E+02  0.27497133126E+02  0.11144916953E+03  0.13929908303E+03  0.17770000000E+01 0. -1.
</event>
<event>
 7    1  0.4133533E-006  0.5204055E+03  0.7546771E-02  0.9355274E-01
        -11   -1    0    0    0    0  0.00000000000E+00  0.00000000000E+00  0.50000000000E+03  0.50000000000E+03  0.00000000000E+00 0. -1.
         11   -1    0    0    0    0 -0.00000000000E+00 -0.00000000000E+00 -0.50000000000E+03  0.50000000000E+03  0.00000000000E+00 0. -1.
         23    2    1    2    0    0 -0.17248584547E+02 -0.23002186458E+02 -0.80282128949E+02  0.12387173232E+03  0.89846377715E+02 0.  0.
        -11    1    1    2    0    0  0.36316758220E+02  0.20538965630E+03  0.43186462720E+03  0.47959448920E+03  0.00000000000E+00 0. -1.
         11    1    1    2    0    0 -0.19068173673E+02 -0.18238746984E+03 -0.35158249825E+03  0.39653377848E+03  0.00000000000E+00 0. -1.
        -15    1    3    3    0    0  0.34296362011E+02 -0.10814830045E+02 -0.53514681891E+02  0.64499456610E+02  0.17770000000E+01 0. -1.
         15    1    3    3    0    0 -0.51544946558E+02 -0.12187356412E+02 -0.26767447059E+02  0.59372275710E+02  0.17770000000E+01 0.  1.
</event>
<event>
 7    1  0.4133533E-006  0.5358868E+03  0.7546771E-02  0.9322907E-01
        -11   -1    0    0    0    0  0.00000000000E+00  0.00000000000E+00  0.50000000000E+03  0.50000000000E+03  0.00000000000E+00 0.  1.
         11   -1    0    0    0    0 -0.00000000000E+00 -0.00000000000E+00 -0.50000000000E+03  0.50000000000E+03  0.00000000000E+00 0. -1.
         23    2    1    2    0    0 -0.36680207407E+02 -0.11430066003E+03  0.93565897300E+02  0.17627346867E+03  0.88925137730E+02 0.  0.
        -11    1    1    2    0    0 -0.97865363808E+02  0.37765381273E+02  0.34397369348E+03  0.35961334133E+03  0.00000000000E+00 0.  1.
         11    1    1    2    0    0  0.13454557122E+03  0.76535278761E+02 -0.43753959078E+03  0.46411319000E+03  0.00000000000E+00 0. -1.
        -15    1    3    3    0    0 -0.30048364321E+02 -0.49643460088E+02 -0.49152667502E+01  0.58264010367E+02  0.17770000000E+01 0. -1.
         15    1    3    3    0    0 -0.66318430865E+01 -0.64657199947E+02  0.98481164050E+02  0.11800945830E+03  0.17770000000E+01 0.  1.
</event>
<event>
 7    1  0.4133533E-006  0.3811459E+03  0.7546771E-02  0.9713810E-01
        -11   -1    0    0    0    0  0.00000000000E+00  0.00000000000E+00  0.50000000000E+03  0.50000000000E+03  0.00000000000E+00 0. -1.
         11   -1    0    0    0    0 -0.00000000000E+00 -0.00000000000E+00 -0.50000000000E+03  0.50000000000E+03  0.00000000000E+00 0.  1.
         23    2    1    2    0    0  0.18040783975E+03 -0.18384677693E+03 -0.25996317703E+03  0.37759012497E+03  0.92988295110E+02 0.  0.
        -11    1    1    2    0    0 -0.83949887663E+02  0.40647996071E+02  0.39333324838E+03  0.40424112545E+03  0.00000000000E+00 0. -1.
         11    1    1    2    0    0 -0.96457952090E+02  0.14319878086E+03 -0.13337007135E+03  0.21816874958E+03  0.00000000000E+00 0.  1.
        -15    1    3    3    0    0  0.37446847748E+02 -0.98251334061E+02 -0.12350468346E+03  0.16221022044E+03  0.17770000000E+01 0. -1.
         15    1    3    3    0    0  0.14296099201E+03 -0.85595442874E+02 -0.13645849357E+03  0.21537990452E+03  0.17770000000E+01 0.  1.
</event>
<event>
 7    1  0.4133533E-006  0.4413489E+03  0.7546771E-02  0.9541547E-01
        -11   -1    0    0    0    0  0.00000000000E+00  0.00000000000E+00  0.50000000000E+03  0.50000000000E+03  0.00000000000E+00 0. -1.
         11   -1    0    0    0    0 -0.00000000000E+00 -0.00000000000E+00 -0.50000000000E+03  0.50000000000E+03  0.00000000000E+00 0.  1.
         23    2    1    2    0    0  0.13760982358E+02  0.42782117166E+02 -0.51497908281E+02  0.11465987852E+03  0.92060735394E+02 0.  0.
        -11    1    1    2    0    0  0.45597287279E+02  0.26461644341E+03  0.35779794348E+03  0.44734812293E+03  0.00000000000E+00 0. -1.
         11    1    1    2    0    0 -0.59358269637E+02 -0.30739856058E+03 -0.30630003520E+03  0.43799199854E+03  0.00000000000E+00 0.  1.
        -15    1    3    3    0    0  0.32672827402E+02  0.38337296235E+02  0.89064480677E+01  0.51183439502E+02  0.17770000000E+01 0. -1.
         15    1    3    3    0    0 -0.18911845044E+02  0.44448209309E+01 -0.60404356349E+02  0.63476439023E+02  0.17770000000E+01 0.  1.
</event>
<event>
 7    1  0.4133533E-006  0.4944730E+03  0.7546771E-02  0.9412262E-01
        -11   -1    0    0    0    0  0.00000000000E+00  0.00000000000E+00  0.50000000000E+03  0.50000000000E+03  0.00000000000E+00 0. -1.
         11   -1    0    0    0    0 -0.00000000000E+00 -0.00000000000E+00 -0.50000000000E+03  0.50000000000E+03  0.00000000000E+00 0. -1.
         23    2    1    2    0    0 -0.80934537374E+02  0.98099636286E+02 -0.46923129596E+03  0.49451461778E+03  0.90513866989E+02 0.  0.
        -11    1    1    2    0    0  0.95245564039E+02 -0.10982676039E+03  0.46402571786E+03  0.48626484718E+03  0.00000000000E+00 0. -1.
         11    1    1    2    0    0 -0.14311026665E+02  0.11727124103E+02  0.52055781001E+01  0.19220535042E+02  0.00000000000E+00 0. -1.
        -15    1    3    3    0    0 -0.18521995184E+02  0.59183482148E+02 -0.97441640641E+02  0.11551528005E+03  0.17770000000E+01 0.  1.
         15    1    3    3    0    0 -0.62412542190E+02  0.38916154139E+02 -0.37178965532E+03  0.37899933774E+03  0.17770000000E+01 0. -1.
</event>
<event>
 7    1  0.4133533E-006  0.4665960E+03  0.7546771E-02  0.9477821E-01
        -11   -1    0    0    0    0  0.00000000000E+00  0.00000000000E+00  0.50000000000E+03  0.50000000000E+03  0.00000000000E+00 0.  1.
         11   -1    0    0    0    0 -0.00000000000E+00 -0.00000000000E+00 -0.50000000000E+03  0.50000000000E+03  0.00000000000E+00 0.  1.
         23    2    1    2    0    0  0.62774506482E+01 -0.38008611360E+02 -0.43217593062E+03  0.44355752795E+03  0.92104205532E+02 0.  0.
        -11    1    1    2    0    0 -0.57572361786E+02  0.67457341746E+02  0.47513489466E+03  0.48334070584E+03  0.00000000000E+00 0.  1.
         11    1    1    2    0    0  0.51294911138E+02 -0.29448730386E+02 -0.42958964049E+02  0.73101766204E+02  0.00000000000E+00 0.  1.
        -15    1    3    3    0    0  0.48026715355E+02 -0.24823318286E+02 -0.28102259331E+03  0.28618109336E+03  0.17770000000E+01 0.  1.
         15    1    3    3    0    0 -0.41749264706E+02 -0.13185293075E+02 -0.15115333731E+03  0.15737643459E+03  0.17770000000E+01 0. -1.
</event>
<event>
 7    1  0.4133533E-006  0.4587278E+03  0.7546771E-02  0.9497212E-01
        -11   -1    0    0    0    0  0.00000000000E+00  0.00000000000E+00  0.50000000000E+03  0.50000000000E+03  0.00000000000E+00 0.  1.
         11   -1    0    0    0    0 -0.00000000000E+00 -0.00000000000E+00 -0.50000000000E+03  0.50000000000E+03  0.00000000000E+00 0. -1.
         23    2    1    2    0    0 -0.14113213743E+02  0.64571246789E+02 -0.42951874426E+03  0.44404443647E+03  0.91216671602E+02 0.  0.
        -11    1    1    2    0    0  0.15242445466E+02 -0.15098877851E+03  0.44319361500E+03  0.46845546614E+03  0.00000000000E+00 0.  1.
         11    1    1    2    0    0 -0.11292317229E+01  0.86417531721E+02 -0.13674870738E+02  0.87500097387E+02  0.00000000000E+00 0. -1.
        -15    1    3    3    0    0 -0.16864575814E+02 -0.89146990461E+01 -0.18981653559E+02  0.26969365534E+02  0.17770000000E+01 0.  1.
         15    1    3    3    0    0  0.27513620715E+01  0.73485945835E+02 -0.41053709070E+03  0.41707507094E+03  0.17770000000E+01 0. -1.
</event>
<event>
 7    1  0.4133533E-006  0.4643089E+03  0.7546771E-02  0.9483415E-01
        -11   -1    0    0    0    0  0.00000000000E+00  0.00000000000E+00  0.50000000000E+03  0.50000000000E+03  0.00000000000E+00 0.  1.
         11   -1    0    0    0    0 -0.00000000000E+00 -0.00000000000E+00 -0.50000000000E+03  0.50000000000E+03  0.00000000000E+00 0. -1.
         23    2    1    2    0    0  0.76783192276E+02 -0.14909901517E+03 -0.40545075002E+03  0.44797344579E+03  0.90353320394E+02 0.  0.
        -11    1    1    2    0    0 -0.13889201645E+03  0.19439233341E+03  0.41053030380E+03  0.47498894920E+03  0.00000000000E+00 0.  1.
         11    1    1    2    0    0  0.62108824177E+02 -0.45293318243E+02 -0.50795537883E+01  0.77037605004E+02  0.00000000000E+00 0. -1.
        -15    1    3    3    0    0  0.14474434115E+02 -0.11459651504E+03 -0.29183284923E+03  0.31386532163E+03  0.17770000000E+01 0. -1.
         15    1    3    3    0    0  0.62308758161E+02 -0.34502500123E+02 -0.11361790079E+03  0.13410812416E+03  0.17770000000E+01 0.  1.
</event>
<event>
 7    1  0.4133533E-006  0.4506478E+03  0.7546771E-02  0.9517559E-01
        -11   -1    0    0    0    0  0.00000000000E+00  0.00000000000E+00  0.50000000000E+03  0.50000000000E+03  0.00000000000E+00 0.  1.
         11   -1    0    0    0    0 -0.00000000000E+00 -0.00000000000E+00 -0.50000000000E+03  0.50000000000E+03  0.00000000000E+00 0. -1.
         23    2    1    2    0    0 -0.40591846992E+02 -0.17078583973E+03 -0.43301629507E+03  0.47610162442E+03  0.91401005936E+02 0.  0.
        -11    1    1    2    0    0  0.41781344136E+02 -0.53870193149E+02  0.76180873466E+02  0.10223112985E+03  0.00000000000E+00 0. -1.
         11    1    1    2    0    0 -0.11894971445E+01  0.22465603288E+03  0.35683542160E+03  0.42166724573E+03  0.00000000000E+00 0.  1.
        -15    1    3    3    0    0 -0.52613685424E+02 -0.12743596164E+03 -0.23008014862E+03  0.26823153568E+03  0.17770000000E+01 0.  1.
         15    1    3    3    0    0  0.12021838432E+02 -0.43349878086E+02 -0.20293614645E+03  0.20787008874E+03  0.17770000000E+01 0. -1.
</event>
<event>
 7    1  0.4133533E-006  0.4047111E+03  0.7546771E-02  0.9642582E-01
        -11   -1    0    0    0    0  0.00000000000E+00  0.00000000000E+00  0.50000000000E+03  0.50000000000E+03  0.00000000000E+00 0.  1.
         11   -1    0    0    0    0 -0.00000000000E+00 -0.00000000000E+00 -0.50000000000E+03  0.50000000000E+03  0.00000000000E+00 0. -1.
         23    2    1    2    0    0  0.54077446249E+02  0.58880321265E+02 -0.34534273037E+03  0.36642271354E+03  0.92804855236E+02 0.  0.
        -11    1    1    2    0    0 -0.62125400849E+02  0.96710809778E+02  0.43764524337E+03  0.45248856914E+03  0.00000000000E+00 0.  1.
         11    1    1    2    0    0  0.80479546001E+01 -0.15559113104E+03 -0.92302513004E+02  0.18108871732E+03  0.00000000000E+00 0. -1.
        -15    1    3    3    0    0 -0.18627430243E+02  0.29873166108E+02 -0.52081642188E+02  0.62889127778E+02  0.17770000000E+01 0.  1.
         15    1    3    3    0    0  0.72704876492E+02  0.29007155158E+02 -0.29326108818E+03  0.30353358576E+03  0.17770000000E+01 0. -1.
</event>
<event>
 7    1  0.4133533E-006  0.3512025E+03  0.7546771E-02  0.9812700E-01
        -11   -1    0    0    0    0  0.00000000000E+00  0.00000000000E+00  0.50000000000E+03  0.50000000000E+03  0.00000000000E+00 0.  1.
         11   -1    0    0    0    0 -0.00000000000E+00 -0.00000000000E+00 -0.50000000000E+03  0.50000000000E+03  0.00000000000E+00 0. -1.
         23    2    1    2    0    0 -0.75263619301E+02  0.80064159513E+02 -0.25221078413E+03  0.29147544031E+03  0.96295226480E+02 0.  0.
        -11    1    1    2    0    0  0.33279946945E+03 -0.12966190130E+03  0.26685660270E+03  0.44584766672E+03  0.00000000000E+00 0.  1.
         11    1    1    2    0    0 -0.25753585015E+03  0.49597741788E+02 -0.14645818571E+02  0.26267689297E+03  0.00000000000E+00 0. -1.
        -15    1    3    3    0    0 -0.12768326548E+02  0.81274235403E+02 -0.16212338964E+03  0.18181221824E+03  0.17770000000E+01 0.  1.
         15    1    3    3    0    0 -0.62495292753E+02 -0.12100758908E+01 -0.90087394492E+02  0.10966322207E+03  0.17770000000E+01 0. -1.
</event>
<event>
 7    1  0.4133533E-006  0.3898531E+03  0.7546771E-02  0.9686866E-01
        -11   -1    0    0    0    0  0.00000000000E+00  0.00000000000E+00  0.50000000000E+03  0.50000000000E+03  0.00000000000E+00 0.  1.
         11   -1    0    0    0    0 -0.00000000000E+00 -0.00000000000E+00 -0.50000000000E+03  0.50000000000E+03  0.00000000000E+00 0. -1.
         23    2    1    2    0    0  0.26361684423E+03  0.17910558926E+03  0.16643958184E+03  0.37323267541E+03  0.10013911786E+03 0.  0.
        -11    1    1    2    0    0 -0.20546944014E+02 -0.11389192003E+03  0.17059071975E+03  0.20614252357E+03  0.00000000000E+00 0.  1.
         11    1    1    2    0    0 -0.24306990022E+03 -0.65213669225E+02 -0.33703030159E+03  0.42062480102E+03  0.00000000000E+00 0. -1.
        -15    1    3    3    0    0  0.37611484607E+02  0.55434394254E+02  0.73204930014E+02  0.99245732140E+02  0.17770000000E+01 0.  1.
         15    1    3    3    0    0  0.22600535962E+03  0.12367119500E+03  0.93234651823E+02  0.27398694327E+03  0.17770000000E+01 0. -1.
</event>
<event>
 7    1  0.4133533E-006  0.5113874E+03  0.7546771E-02  0.9374684E-01
        -11   -1    0    0    0    0  0.00000000000E+00  0.00000000000E+00  0.50000000000E+03  0.50000000000E+03  0.00000000000E+00 0.  1.
         11   -1    0    0    0    0 -0.00000000000E+00 -0.00000000000E+00 -0.50000000000E+03  0.50000000000E+03  0.00000000000E+00 0. -1.
         23    2    1    2    0    0  0.75060559896E+02  0.24920191888E+02  0.16872281826E+03  0.20756036590E+03  0.91426541417E+02 0.  0.
        -11    1    1    2    0    0  0.10732907950E+03  0.87861200552E+02  0.27031782087E+03  0.30382700036E+03  0.00000000000E+00 0.  1.
         11    1    1    2    0    0 -0.18238963939E+03 -0.11278139244E+03 -0.43904063913E+03  0.48861263374E+03  0.00000000000E+00 0. -1.
        -15    1    3    3    0    0  0.24730585797E+02  0.51562051575E+02  0.11858981269E+03  0.13166984635E+03  0.17770000000E+01 0.  1.
         15    1    3    3    0    0  0.50329974099E+02 -0.26641859687E+02  0.50133005574E+02  0.75890519548E+02  0.17770000000E+01 0. -1.
</event>
<event>
 7    1  0.4133533E-006  0.4641041E+03  0.7546771E-02  0.9483918E-01
        -11   -1    0    0    0    0  0.00000000000E+00  0.00000000000E+00  0.50000000000E+03  0.50000000000E+03  0.00000000000E+00 0. -1.
         11   -1    0    0    0    0 -0.00000000000E+00 -0.00000000000E+00 -0.50000000000E+03  0.50000000000E+03  0.00000000000E+00 0.  1.
         23    2    1    2    0    0 -0.17059254487E+03 -0.23022132177E+03  0.37766384158E+03  0.47990296190E+03  0.74653882918E+02 0.  0.
        -11    1    1    2    0    0  0.66643261394E+02  0.33065088912E+02  0.78330071701E+01  0.74806285801E+02  0.00000000000E+00 0. -1.
         11    1    1    2    0    0  0.10394928348E+03  0.19715623286E+03 -0.38549684875E+03  0.44529075230E+03  0.00000000000E+00 0.  1.
        -15    1    3    3    0    0 -0.42017254998E+02 -0.15291065994E+02  0.44631259933E+02  0.63201056233E+02  0.17770000000E+01 0.  1.
         15    1    3    3    0    0 -0.12857528988E+03 -0.21493025578E+03  0.33303258164E+03  0.41670190566E+03  0.17770000000E+01 0. -1.
</event>
<event>
 7    1  0.4133533E-006  0.5307015E+03  0.7546771E-02  0.9333617E-01
        -11   -1    0    0    0    0  0.00000000000E+00  0.00000000000E+00  0.50000000000E+03  0.50000000000E+03  0.00000000000E+00 0. -1.
         11   -1    0    0    0    0 -0.00000000000E+00 -0.00000000000E+00 -0.50000000000E+03  0.50000000000E+03  0.00000000000E+00 0.  1.
         23    2    1    2    0    0  0.70905224249E+02  0.12125833332E+02 -0.35730454536E+03  0.37592034173E+03  0.92059646620E+02 0.  0.
        -11    1    1    2    0    0 -0.10432927483E+03  0.11190126650E+03  0.44366039580E+03  0.46929845283E+03  0.00000000000E+00 0. -1.
         11    1    1    2    0    0  0.33424050577E+02 -0.12402709983E+03 -0.86355850443E+02  0.15478120543E+03  0.00000000000E+00 0.  1.
        -15    1    3    3    0    0  0.51951515374E+02  0.44661648348E+02 -0.14606374697E+03  0.16134248879E+03  0.17770000000E+01 0. -1.
         15    1    3    3    0    0  0.18953708875E+02 -0.32535815017E+02 -0.21124079839E+03  0.21457785294E+03  0.17770000000E+01 0.  1.
</event>
<event>
 7    1  0.4133533E-006  0.4723019E+03  0.7546771E-02  0.9464013E-01
        -11   -1    0    0    0    0  0.00000000000E+00  0.00000000000E+00  0.50000000000E+03  0.50000000000E+03  0.00000000000E+00 0.  1.
         11   -1    0    0    0    0 -0.00000000000E+00 -0.00000000000E+00 -0.50000000000E+03  0.50000000000E+03  0.00000000000E+00 0. -1.
         23    2    1    2    0    0  0.24336113188E+03  0.18247041968E+03  0.31423685501E+03  0.44874134225E+03  0.10051814079E+03 0.  0.
        -11    1    1    2    0    0 -0.51918404968E+01  0.15498674900E+02  0.61902700285E+02  0.64024280035E+02  0.00000000000E+00 0.  1.
         11    1    1    2    0    0 -0.23816929138E+03 -0.19796909458E+03 -0.37613955530E+03  0.48723437771E+03  0.00000000000E+00 0. -1.
        -15    1    3    3    0    0  0.62786461325E+02  0.98598976223E+02  0.15289542558E+03  0.19246835254E+03  0.17770000000E+01 0.  1.
         15    1    3    3    0    0  0.18057467056E+03  0.83871443457E+02  0.16134142944E+03  0.25627298971E+03  0.17770000000E+01 0. -1.
</event>
<event>
 7    1  0.4133533E-006  0.5338660E+03  0.7546771E-02  0.9327066E-01
        -11   -1    0    0    0    0  0.00000000000E+00  0.00000000000E+00  0.50000000000E+03  0.50000000000E+03  0.00000000000E+00 0. -1.
         11   -1    0    0    0    0 -0.00000000000E+00 -0.00000000000E+00 -0.50000000000E+03  0.50000000000E+03  0.00000000000E+00 0.  1.
         23    2    1    2    0    0  0.65400703340E+02 -0.74072856729E+02 -0.28211521791E+03  0.31251350371E+03  0.91168271474E+02 0.  0.
        -11    1    1    2    0    0 -0.19112949882E+03 -0.41256716760E+02  0.42314102186E+03  0.46613402191E+03  0.00000000000E+00 0. -1.
         11    1    1    2    0    0  0.12572879548E+03  0.11532957349E+03 -0.14102580395E+03  0.22135247438E+03  0.00000000000E+00 0.  1.
        -15    1    3    3    0    0  0.79558442784E+02 -0.84947651900E+02 -0.24005133857E+03  0.26678353071E+03  0.17770000000E+01 0.  1.
         15    1    3    3    0    0 -0.14157739444E+02  0.10874795171E+02 -0.42063879342E+02  0.45729972998E+02  0.17770000000E+01 0. -1.
</event>
<event>
 7    1  0.4133533E-006  0.5180019E+03  0.7546771E-02  0.9360406E-01
        -11   -1    0    0    0    0  0.00000000000E+00  0.00000000000E+00  0.50000000000E+03  0.50000000000E+03  0.00000000000E+00 0.  1.
         11   -1    0    0    0    0 -0.00000000000E+00 -0.00000000000E+00 -0.50000000000E+03  0.50000000000E+03  0.00000000000E+00 0. -1.
         23    2    1    2    0    0 -0.91096738274E+01  0.41287768325E+02  0.13343300500E+03  0.16680733853E+03  0.90733981475E+02 0.  0.
        -11    1    1    2    0    0 -0.14877897309E+03  0.24734602351E+02  0.31716032098E+03  0.35119460787E+03  0.00000000000E+00 0.  1.
         11    1    1    2    0    0  0.15788864692E+03 -0.66022370676E+02 -0.45059332598E+03  0.48199805360E+03  0.00000000000E+00 0. -1.
        -15    1    3    3    0    0  0.13829538486E+02 -0.21485842946E+02  0.70425768659E+02  0.74938936489E+02  0.17770000000E+01 0.  1.
         15    1    3    3    0    0 -0.22939212313E+02  0.62773611271E+02  0.63007236341E+02  0.91868402043E+02  0.17770000000E+01 0. -1.
</event>
<event>
 7    1  0.4133533E-006  0.5204398E+03  0.7546771E-02  0.9355201E-01
        -11   -1    0    0    0    0  0.00000000000E+00  0.00000000000E+00  0.50000000000E+03  0.50000000000E+03  0.00000000000E+00 0.  1.
         11   -1    0    0    0    0 -0.00000000000E+00 -0.00000000000E+00 -0.50000000000E+03  0.50000000000E+03  0.00000000000E+00 0. -1.
         23    2    1    2    0    0 -0.78874891318E+02 -0.89733602492E+02  0.83267790259E+02  0.17321592983E+03  0.93791607067E+02 0.  0.
        -11    1    1    2    0    0 -0.20947030468E+03 -0.55640865411E+02  0.27127603041E+03  0.34722384585E+03  0.00000000000E+00 0.  1.
         11    1    1    2    0    0  0.28834519600E+03  0.14537446790E+03 -0.35454382067E+03  0.47956022432E+03  0.00000000000E+00 0. -1.
        -15    1    3    3    0    0 -0.33098121269E+02  0.54001809625E+00 -0.10961003719E+02  0.34915305850E+02  0.17770000000E+01 0.  1.
         15    1    3    3    0    0 -0.45776770049E+02 -0.90273620589E+02  0.94228793978E+02  0.13830062398E+03  0.17770000000E+01 0. -1.
</event>
<event>
 7    1  0.4133533E-006  0.5158587E+03  0.7546771E-02  0.9365008E-01
        -11   -1    0    0    0    0  0.00000000000E+00  0.00000000000E+00  0.50000000000E+03  0.50000000000E+03  0.00000000000E+00 0.  1.
         11   -1    0    0    0    0 -0.00000000000E+00 -0.00000000000E+00 -0.50000000000E+03  0.50000000000E+03  0.00000000000E+00 0. -1.
         23    2    1    2    0    0  0.91846432129E+01 -0.16594345180E+03  0.15694636983E+03  0.24643478048E+03  0.92067101415E+02 0.  0.
        -11    1    1    2    0    0 -0.71971344786E+02 -0.23969342993E+03  0.99781848323E+02  0.26942388921E+03  0.00000000000E+00 0.  1.
         11    1    1    2    0    0  0.62786701573E+02  0.40563688173E+03 -0.25672821815E+03  0.48414133031E+03  0.00000000000E+00 0. -1.
        -15    1    3    3    0    0 -0.32450449314E+02 -0.23277483766E+02  0.21714484016E+02  0.45492301066E+02  0.17770000000E+01 0. -1.
         15    1    3    3    0    0  0.41635092527E+02 -0.14266596803E+03  0.13523188581E+03  0.20094247942E+03  0.17770000000E+01 0.  1.
</event>
<event>
 7    1  0.4133533E-006  0.4148354E+03  0.7546771E-02  0.9613555E-01
        -11   -1    0    0    0    0  0.00000000000E+00  0.00000000000E+00  0.50000000000E+03  0.50000000000E+03  0.00000000000E+00 0. -1.
         11   -1    0    0    0    0 -0.00000000000E+00 -0.00000000000E+00 -0.50000000000E+03  0.50000000000E+03  0.00000000000E+00 0. -1.
         23    2    1    2    0    0  0.21412333411E+02 -0.81292085291E+02 -0.38588619809E+03  0.40551613153E+03  0.92023279118E+02 0.  0.
        -11    1    1    2    0    0  0.88722503583E+02 -0.36011009138E+02  0.41934596218E+03  0.43013894432E+03  0.00000000000E+00 0. -1.
         11    1    1    2    0    0 -0.11013483699E+03  0.11730309443E+03 -0.33459764090E+02  0.16434492415E+03  0.00000000000E+00 0. -1.
        -15    1    3    3    0    0  0.37694212446E+02 -0.19578700762E+02 -0.60614126635E+02  0.74036539980E+02  0.17770000000E+01 0.  1.
         15    1    3    3    0    0 -0.16281879036E+02 -0.61713384530E+02 -0.32527207146E+03  0.33147959155E+03  0.17770000000E+01 0. -1.
</event>
<event>
 6    1  0.4133533E-006  0.5586754E+03  0.7546771E-02  0.9277315E-01
        -11   -1    0    0    0    0  0.00000000000E+00  0.00000000000E+00  0.50000000000E+03  0.50000000000E+03  0.00000000000E+00 0. -1.
         11   -1    0    0    0    0 -0.00000000000E+00 -0.00000000000E+00 -0.50000000000E+03  0.50000000000E+03  0.00000000000E+00 0. -1.
        -11    1    1    2    0    0  0.40677497473E+02 -0.23194931052E+02  0.19394690296E+03  0.19951958499E+03  0.00000000000E+00 0. -1.
         11    1    1    2    0    0 -0.16003907276E+03  0.23692415629E+03 -0.33618717660E+03  0.44132457257E+03  0.00000000000E+00 0. -1.
        -15    1    1    2    0    0 -0.43586066468E+02 -0.41848631529E+02  0.10249580289E+03  0.11899411956E+03  0.17770000000E+01 0.  1.
         15    1    1    2    0    0  0.16294764176E+03 -0.17188059371E+03  0.39744470753E+02  0.24016172287E+03  0.17770000000E+01 0. -1.
</event>
<event>
 7    1  0.4133533E-006  0.4592095E+03  0.7546771E-02  0.9496013E-01
        -11   -1    0    0    0    0  0.00000000000E+00  0.00000000000E+00  0.50000000000E+03  0.50000000000E+03  0.00000000000E+00 0.  1.
         11   -1    0    0    0    0 -0.00000000000E+00 -0.00000000000E+00 -0.50000000000E+03  0.50000000000E+03  0.00000000000E+00 0.  1.
         23    2    1    2    0    0 -0.18298602904E+03 -0.42838287251E+02 -0.37374305007E+03  0.42767062721E+03  0.88877962520E+02 0.  0.
        -11    1    1    2    0    0  0.17693836459E+03  0.88311994116E+01  0.45270960893E+03  0.48613903872E+03  0.00000000000E+00 0.  1.
         11    1    1    2    0    0  0.60476644488E+01  0.34007087840E+02 -0.78966558861E+02  0.86190334069E+02  0.00000000000E+00 0.  1.
        -15    1    3    3    0    0 -0.16527025064E+03 -0.54355514723E+02 -0.36572176242E+03  0.40499918884E+03  0.17770000000E+01 0.  1.
         15    1    3    3    0    0 -0.17715778405E+02  0.11517227472E+02 -0.80212876549E+01  0.22671438370E+02  0.17770000000E+01 0. -1.
</event>
<event>
 7    1  0.4133533E-006  0.4344263E+03  0.7546771E-02  0.9559817E-01
        -11   -1    0    0    0    0  0.00000000000E+00  0.00000000000E+00  0.50000000000E+03  0.50000000000E+03  0.00000000000E+00 0.  1.
         11   -1    0    0    0    0 -0.00000000000E+00 -0.00000000000E+00 -0.50000000000E+03  0.50000000000E+03  0.00000000000E+00 0. -1.
         23    2    1    2    0    0  0.62946944479E+02 -0.27470063219E+02 -0.41113025796E+03  0.42671917287E+03  0.91346818751E+02 0.  0.
        -11    1    1    2    0    0 -0.13267529800E+03 -0.83329439369E+02  0.41366631427E+03  0.44234189235E+03  0.00000000000E+00 0.  1.
         11    1    1    2    0    0  0.69728353521E+02  0.11079950259E+03 -0.25360563112E+01  0.13093893478E+03  0.00000000000E+00 0. -1.
        -15    1    3    3    0    0  0.85030957126E+02 -0.32850449384E+02 -0.31557256238E+03  0.32847924676E+03  0.17770000000E+01 0. -1.
         15    1    3    3    0    0 -0.22084012647E+02  0.53803861647E+01 -0.95557695581E+02  0.98239926118E+02  0.17770000000E+01 0.  1.
</event>
<event>
 7    1  0.4133533E-006  0.5156599E+03  0.7546771E-02  0.9365436E-01
        -11   -1    0    0    0    0  0.00000000000E+00  0.00000000000E+00  0.50000000000E+03  0.50000000000E+03  0.00000000000E+00 0.  1.
         11   -1    0    0    0    0 -0.00000000000E+00 -0.00000000000E+00 -0.50000000000E+03  0.50000000000E+03  0.00000000000E+00 0. -1.
         23    2    1    2    0    0 -0.18429214909E+02  0.88158625770E+02 -0.40462143385E+03  0.42433874614E+03  0.90737464628E+02 0.  0.
        -11    1    1    2    0    0  0.30375085147E+02 -0.16343876069E+03  0.45491807172E+03  0.48434009360E+03  0.00000000000E+00 0.  1.
         11    1    1    2    0    0 -0.11945870238E+02  0.75280134915E+02 -0.50296637870E+02  0.91321160251E+02  0.00000000000E+00 0. -1.
        -15    1    3    3    0    0  0.20262234983E+02 -0.97415675444E+01 -0.73524946587E+02  0.76905993293E+02  0.17770000000E+01 0.  1.
         15    1    3    3    0    0 -0.38691449892E+02  0.97900193315E+02 -0.33109648727E+03  0.34743275285E+03  0.17770000000E+01 0. -1.
</event>
<event>
 7    1  0.4133533E-006  0.4244628E+03  0.7546771E-02  0.9586760E-01
        -11   -1    0    0    0    0  0.00000000000E+00  0.00000000000E+00  0.50000000000E+03  0.50000000000E+03  0.00000000000E+00 0.  1.
         11   -1    0    0    0    0 -0.00000000000E+00 -0.00000000000E+00 -0.50000000000E+03  0.50000000000E+03  0.00000000000E+00 0.  1.
         23    2    1    2    0    0 -0.76468977104E+02  0.26269115028E+03 -0.31455572147E+03  0.42591642678E+03  0.87208691094E+02 0.  0.
        -11    1    1    2    0    0  0.26528572043E+02 -0.15197818574E+03  0.39791373456E+03  0.42677450044E+03  0.00000000000E+00 0.  1.
         11    1    1    2    0    0  0.49940405061E+02 -0.11071296454E+03 -0.83358013097E+02  0.14730907277E+03  0.00000000000E+00 0.  1.
        -15    1    3    3    0    0 -0.56060631497E+02  0.24448154301E+03 -0.24277201442E+03  0.34907796835E+03  0.17770000000E+01 0.  1.
         15    1    3    3    0    0 -0.20408345607E+02  0.18209607271E+02 -0.71783707050E+02  0.76838458432E+02  0.17770000000E+01 0. -1.
</event>
<event>
 7    1  0.4133533E-006  0.5069249E+03  0.7546771E-02  0.9384447E-01
        -11   -1    0    0    0    0  0.00000000000E+00  0.00000000000E+00  0.50000000000E+03  0.50000000000E+03  0.00000000000E+00 0. -1.
         11   -1    0    0    0    0 -0.00000000000E+00 -0.00000000000E+00 -0.50000000000E+03  0.50000000000E+03  0.00000000000E+00 0. -1.
         23    2    1    2    0    0  0.95486983752E+02  0.14738168768E+03 -0.45169809235E+03  0.49307509007E+03  0.90844657998E+02 0.  0.
        -11    1    1    2    0    0 -0.37767269975E+02 -0.57793504011E+02  0.35930722907E+03  0.36587995387E+03  0.00000000000E+00 0. -1.
         11    1    1    2    0    0 -0.57719713777E+02 -0.89588183666E+02  0.92390863283E+02  0.14104495606E+03  0.00000000000E+00 0. -1.
        -15    1    3    3    0    0  0.66181957627E+02  0.38001996990E+02 -0.11668395287E+03  0.13943638649E+03  0.17770000000E+01 0.  1.
         15    1    3    3    0    0  0.29305026126E+02  0.10937969069E+03 -0.33501413948E+03  0.35363870358E+03  0.17770000000E+01 0. -1.
</event>
<event>
 7    1  0.4133533E-006  0.4386228E+03  0.7546771E-02  0.9548699E-01
        -11   -1    0    0    0    0  0.00000000000E+00  0.00000000000E+00  0.50000000000E+03  0.50000000000E+03  0.00000000000E+00 0.  1.
         11   -1    0    0    0    0 -0.00000000000E+00 -0.00000000000E+00 -0.50000000000E+03  0.50000000000E+03  0.00000000000E+00 0. -1.
         23    2    1    2    0    0 -0.15413546599E+03  0.87745832554E+02 -0.38479136771E+03  0.43337381475E+03  0.91057090021E+02 0.  0.
        -11    1    1    2    0    0  0.75254290391E+02 -0.79695044869E+01  0.43655868951E+03  0.44306908108E+03  0.00000000000E+00 0.  1.
         11    1    1    2    0    0  0.78881175601E+02 -0.79776328067E+02 -0.51767321798E+02  0.12355710417E+03  0.00000000000E+00 0. -1.
        -15    1    3    3    0    0 -0.70308395206E+02  0.73303775521E-01 -0.20286075196E+03  0.21470658636E+03  0.17770000000E+01 0. -1.
         15    1    3    3    0    0 -0.83827070786E+02  0.87672528779E+02 -0.18193061575E+03  0.21866722840E+03  0.17770000000E+01 0.  1.
</event>
<event>
 7    1  0.4133533E-006  0.3612611E+03  0.7546771E-02  0.9778340E-01
        -11   -1    0    0    0    0  0.00000000000E+00  0.00000000000E+00  0.50000000000E+03  0.50000000000E+03  0.00000000000E+00 0.  1.
         11   -1    0    0    0    0 -0.00000000000E+00 -0.00000000000E+00 -0.50000000000E+03  0.50000000000E+03  0.00000000000E+00 0. -1.
         23    2    1    2    0    0  0.11397364521E+03 -0.82023475695E+02 -0.32403836894E+03  0.36474054602E+03  0.91197362911E+02 0.  0.
        -11    1    1    2    0    0  0.11338152935E+03 -0.34180380516E+01  0.37093671974E+03  0.38789316085E+03  0.00000000000E+00 0.  1.
         11    1    1    2    0    0 -0.22735517456E+03  0.85441513746E+02 -0.46898350802E+02  0.24736629313E+03  0.00000000000E+00 0. -1.
        -15    1    3    3    0    0  0.26349258031E+01  0.16909839058E+02 -0.21636026781E+02  0.27643459892E+02  0.17770000000E+01 0.  1.
         15    1    3    3    0    0  0.11133871941E+03 -0.98933314752E+02 -0.30240234216E+03  0.33709708613E+03  0.17770000000E+01 0. -1.
</event>
<event>
 7    1  0.4133533E-006  0.5276552E+03  0.7546771E-02  0.9339970E-01
        -11   -1    0    0    0    0  0.00000000000E+00  0.00000000000E+00  0.50000000000E+03  0.50000000000E+03  0.00000000000E+00 0. -1.
         11   -1    0    0    0    0 -0.00000000000E+00 -0.00000000000E+00 -0.50000000000E+03  0.50000000000E+03  0.00000000000E+00 0. -1.
         23    2    1    2    0    0  0.99383978591E+02  0.35734240243E+01  0.11928725440E+03  0.17969379992E+03  0.90390641695E+02 0.  0.
        -11    1    1    2    0    0 -0.17179519182E+02 -0.58173593325E+02  0.34263362674E+03  0.34796135564E+03  0.00000000000E+00 0. -1.
         11    1    1    2    0    0 -0.82204459410E+02  0.54600169301E+02 -0.46192088115E+03  0.47234484445E+03  0.00000000000E+00 0. -1.
        -15    1    3    3    0    0  0.49125573109E+02  0.12554618493E+02  0.88752422014E+00  0.50743332637E+02  0.17770000000E+01 0.  1.
         15    1    3    3    0    0  0.50258405482E+02 -0.89811944686E+01  0.11839973018E+03  0.12895046728E+03  0.17770000000E+01 0. -1.
</event>
<event>
 7    1  0.4133533E-006  0.4758158E+03  0.7546771E-02  0.9455611E-01
        -11   -1    0    0    0    0  0.00000000000E+00  0.00000000000E+00  0.50000000000E+03  0.50000000000E+03  0.00000000000E+00 0. -1.
         11   -1    0    0    0    0 -0.00000000000E+00 -0.00000000000E+00 -0.50000000000E+03  0.50000000000E+03  0.00000000000E+00 0.  1.
         23    2    1    2    0    0 -0.75758016267E+02 -0.51081839515E+02 -0.44356817493E+03  0.45879971469E+03  0.73456252497E+02 0.  0.
        -11    1    1    2    0    0  0.47150572442E+02  0.75384916952E+02  0.48043082071E+03  0.48858963934E+03  0.00000000000E+00 0. -1.
         11    1    1    2    0    0  0.28607443826E+02 -0.24303077438E+02 -0.36862645780E+02  0.52610645967E+02  0.00000000000E+00 0.  1.
        -15    1    3    3    0    0 -0.71627888276E+02 -0.68057648527E+02 -0.39431848411E+03  0.40651275816E+03  0.17770000000E+01 0.  1.
         15    1    3    3    0    0 -0.41301279917E+01  0.16975809012E+02 -0.49249690817E+02  0.52286956532E+02  0.17770000000E+01 0. -1.
</event>
<event>
 7    1  0.4133533E-006  0.4602992E+03  0.7546771E-02  0.9493306E-01
        -11   -1    0    0    0    0  0.00000000000E+00  0.00000000000E+00  0.50000000000E+03  0.50000000000E+03  0.00000000000E+00 0. -1.
         11   -1    0    0    0    0 -0.00000000000E+00 -0.00000000000E+00 -0.50000000000E+03  0.50000000000E+03  0.00000000000E+00 0.  1.
         23    2    1    2    0    0  0.78203993562E+02  0.12460591587E+03  0.39188941991E+03  0.43030810632E+03  0.99725874509E+02 0.  0.
        -11    1    1    2    0    0 -0.14837599427E+02  0.71932715441E+02  0.45225250854E+02  0.86254235967E+02  0.00000000000E+00 0. -1.
         11    1    1    2    0    0 -0.63366394135E+02 -0.19653863131E+03 -0.43711467076E+03  0.48343765772E+03  0.00000000000E+00 0.  1.
        -15    1    3    3    0    0  0.98724270918E+02  0.74929596255E+02  0.27289903421E+03  0.29972982278E+03  0.17770000000E+01 0. -1.
         15    1    3    3    0    0 -0.20520277356E+02  0.49676319610E+02  0.11899038570E+03  0.13057828354E+03  0.17770000000E+01 0.  1.
</event>
<event>
 7    1  0.4133533E-006  0.4943824E+03  0.7546771E-02  0.9412468E-01
        -11   -1    0    0    0    0  0.00000000000E+00  0.00000000000E+00  0.50000000000E+03  0.50000000000E+03  0.00000000000E+00 0.  1.
         11   -1    0    0    0    0 -0.00000000000E+00 -0.00000000000E+00 -0.50000000000E+03  0.50000000000E+03  0.00000000000E+00 0. -1.
         23    2    1    2    0    0  0.17280058092E+03  0.64149569122E+02  0.44657201898E+03  0.48998478827E+03  0.81751554191E+02 0.  0.
        -11    1    1    2    0    0 -0.10039711701E+02  0.84144985152E+01  0.12167350465E+02  0.17878590930E+02  0.00000000000E+00 0.  1.
         11    1    1    2    0    0 -0.16276086922E+03 -0.72564067637E+02 -0.45873936944E+03  0.49213662081E+03  0.00000000000E+00 0. -1.
        -15    1    3    3    0    0  0.32193545362E+02  0.47647590737E+02  0.16650735659E+03  0.17616632707E+03  0.17770000000E+01 0. -1.
         15    1    3    3    0    0  0.14060703556E+03  0.16501978385E+02  0.28006466239E+03  0.31381846119E+03  0.17770000000E+01 0.  1.
</event>
<event>
 7    1  0.4133533E-006  0.5313927E+03  0.7546771E-02  0.9332182E-01
        -11   -1    0    0    0    0  0.00000000000E+00  0.00000000000E+00  0.50000000000E+03  0.50000000000E+03  0.00000000000E+00 0. -1.
         11   -1    0    0    0    0 -0.00000000000E+00 -0.00000000000E+00 -0.50000000000E+03  0.50000000000E+03  0.00000000000E+00 0.  1.
         23    2    1    2    0    0 -0.15219693338E+03 -0.12190570637E+03 -0.89175399971E+02  0.23355499746E+03  0.92578491571E+02 0.  0.
        -11    1    1    2    0    0  0.13634676281E+03  0.35294538249E+03  0.27646323932E+03  0.46860730409E+03  0.00000000000E+00 0. -1.
         11    1    1    2    0    0  0.15850170570E+02 -0.23103967612E+03 -0.18728783935E+03  0.29783769845E+03  0.00000000000E+00 0.  1.
        -15    1    3    3    0    0 -0.27808861091E+02  0.67904621196E+01  0.81463724619E+01  0.29815503421E+02  0.17770000000E+01 0. -1.
         15    1    3    3    0    0 -0.12438807229E+03 -0.12869616849E+03 -0.97321772433E+02  0.20373949404E+03  0.17770000000E+01 0.  1.
</event>
<event>
 7    1  0.4133533E-006  0.4749711E+03  0.7546771E-02  0.9457624E-01
        -11   -1    0    0    0    0  0.00000000000E+00  0.00000000000E+00  0.50000000000E+03  0.50000000000E+03  0.00000000000E+00 0.  1.
         11   -1    0    0    0    0 -0.00000000000E+00 -0.00000000000E+00 -0.50000000000E+03  0.50000000000E+03  0.00000000000E+00 0.  1.
         23    2    1    2    0    0  0.12012115113E+03 -0.15485896095E+03 -0.39788970139E+03  0.45333976605E+03  0.93756814520E+02 0.  0.
        -11    1    1    2    0    0 -0.16757820581E+03  0.16262055265E+03  0.42966736057E+03  0.48902141051E+03  0.00000000000E+00 0.  1.
         11    1    1    2    0    0  0.47457054685E+02 -0.77615916960E+01 -0.31777659173E+02  0.57638823439E+02  0.00000000000E+00 0.  1.
        -15    1    3    3    0    0  0.95248530634E+01  0.11266785739E+02 -0.12836546574E+02  0.19636647975E+02  0.17770000000E+01 0. -1.
         15    1    3    3    0    0  0.11059629806E+03 -0.16612574669E+03 -0.38505315482E+03  0.43370311807E+03  0.17770000000E+01 0.  1.
</event>
<event>
 7    1  0.4133533E-006  0.5125903E+03  0.7546771E-02  0.9372071E-01
        -11   -1    0    0    0    0  0.00000000000E+00  0.00000000000E+00  0.50000000000E+03  0.50000000000E+03  0.00000000000E+00 0. -1.
         11   -1    0    0    0    0 -0.00000000000E+00 -0.00000000000E+00 -0.50000000000E+03  0.50000000000E+03  0.00000000000E+00 0. -1.
         23    2    1    2    0    0 -0.25871092010E+02  0.26756626419E+02  0.19027136119E+03  0.21404258149E+03  0.90696225641E+02 0.  0.
        -11    1    1    2    0    0  0.34772866132E+02  0.85026213416E+02  0.28406355681E+03  0.29854767374E+03  0.00000000000E+00 0. -1.
         11    1    1    2    0    0 -0.89017741226E+01 -0.11178283984E+03 -0.47433491800E+03  0.48740974477E+03  0.00000000000E+00 0. -1.
        -15    1    3    3    0    0 -0.45324373351E+02 -0.11386012667E+02  0.14195415777E+03  0.14945929460E+03  0.17770000000E+01 0. -1.
         15    1    3    3    0    0  0.19453281341E+02  0.38142639086E+02  0.48317203413E+02  0.64583286894E+02  0.17770000000E+01 0.  1.
</event>
<event>
 7    1  0.4133533E-006  0.5301859E+03  0.7546771E-02  0.9334689E-01
        -11   -1    0    0    0    0  0.00000000000E+00  0.00000000000E+00  0.50000000000E+03  0.50000000000E+03  0.00000000000E+00 0.  1.
         11   -1    0    0    0    0 -0.00000000000E+00 -0.00000000000E+00 -0.50000000000E+03  0.50000000000E+03  0.00000000000E+00 0.  1.
         23    2    1    2    0    0 -0.60255237322E+01  0.53679339011E+02  0.22756818778E+02  0.95288058916E+02  0.75127644700E+02 0.  0.
        -11    1    1    2    0    0 -0.37598959685E+03  0.15449411543E+03  0.15459468592E+03  0.43489783347E+03  0.00000000000E+00 0.  1.
         11    1    1    2    0    0  0.38201512058E+03 -0.20817345444E+03 -0.17735150470E+03  0.46981410761E+03  0.00000000000E+00 0.  1.
        -15    1    3    3    0    0  0.12519932850E+02  0.42046345216E+02  0.45805288386E+02  0.63450185483E+02  0.17770000000E+01 0. -1.
         15    1    3    3    0    0 -0.18545456582E+02  0.11632993794E+02 -0.23048469608E+02  0.31837873433E+02  0.17770000000E+01 0.  1.
</event>
<event>
 7    1  0.4133533E-006  0.4661945E+03  0.7546771E-02  0.9478801E-01
        -11   -1    0    0    0    0  0.00000000000E+00  0.00000000000E+00  0.50000000000E+03  0.50000000000E+03  0.00000000000E+00 0. -1.
         11   -1    0    0    0    0 -0.00000000000E+00 -0.00000000000E+00 -0.50000000000E+03  0.50000000000E+03  0.00000000000E+00 0.  1.
         23    2    1    2    0    0  0.23749525670E+02 -0.93594208384E+02 -0.41104447087E+03  0.43251873354E+03  0.93760236880E+02 0.  0.
        -11    1    1    2    0    0 -0.38551640375E+02  0.12869722652E+03  0.47467345788E+03  0.49331946719E+03  0.00000000000E+00 0. -1.
         11    1    1    2    0    0  0.14802114705E+02 -0.35103018137E+02 -0.63628987016E+02  0.74161799269E+02  0.00000000000E+00 0.  1.
        -15    1    3    3    0    0 -0.30766010370E+02 -0.39411733289E+02 -0.23741681057E+03  0.24263085497E+03  0.17770000000E+01 0. -1.
         15    1    3    3    0    0  0.54515536041E+02 -0.54182475095E+02 -0.17362766030E+03  0.18988787857E+03  0.17770000000E+01 0.  1.
</event>
<event>
 7    1  0.4133533E-006  0.5238567E+03  0.7546771E-02  0.9347956E-01
        -11   -1    0    0    0    0  0.00000000000E+00  0.00000000000E+00  0.50000000000E+03  0.50000000000E+03  0.00000000000E+00 0.  1.
         11   -1    0    0    0    0 -0.00000000000E+00 -0.00000000000E+00 -0.50000000000E+03  0.50000000000E+03  0.00000000000E+00 0. -1.
         23    2    1    2    0    0 -0.19457665923E+03 -0.16185955060E+03 -0.39277055180E+03  0.47614329961E+03  0.91570437182E+02 0.  0.
        -11    1    1    2    0    0  0.73781081170E+02  0.17715088188E+02  0.30863877408E+03  0.31782914460E+03  0.00000000000E+00 0.  1.
         11    1    1    2    0    0  0.12079557806E+03  0.14414446242E+03  0.84131777717E+02  0.20602755579E+03  0.00000000000E+00 0. -1.
        -15    1    3    3    0    0 -0.18062303664E+02 -0.23495923729E+02 -0.11685277798E+03  0.12056547887E+03  0.17770000000E+01 0.  1.
         15    1    3    3    0    0 -0.17651435556E+03 -0.13836362687E+03 -0.27591777383E+03  0.35557782074E+03  0.17770000000E+01 0. -1.
</event>
<event>
 7    1  0.4133533E-006  0.5261337E+03  0.7546771E-02  0.9343160E-01
        -11   -1    0    0    0    0  0.00000000000E+00  0.00000000000E+00  0.50000000000E+03  0.50000000000E+03  0.00000000000E+00 0. -1.
         11   -1    0    0    0    0 -0.00000000000E+00 -0.00000000000E+00 -0.50000000000E+03  0.50000000000E+03  0.00000000000E+00 0.  1.
         23    2    1    2    0    0  0.15630364881E+03 -0.65748224290E+02  0.29698234478E+03  0.35475315212E+03  0.94327229374E+02 0.  0.
        -11    1    1    2    0    0 -0.50974161442E+02  0.18351743102E+02  0.16259195332E+03  0.17138055576E+03  0.00000000000E+00 0. -1.
         11    1    1    2    0    0 -0.10532948737E+03  0.47396481188E+02 -0.45957429809E+03  0.47386629212E+03  0.00000000000E+00 0.  1.
        -15    1    3    3    0    0  0.15261735970E+03 -0.27222719293E+02  0.23000892063E+03  0.27738131917E+03  0.17770000000E+01 0. -1.
         15    1    3    3    0    0  0.36862891107E+01 -0.38525504997E+02  0.66973424151E+02  0.77371832951E+02  0.17770000000E+01 0.  1.
</event>
<event>
 7    1  0.4133533E-006  0.5128273E+03  0.7546771E-02  0.9371556E-01
        -11   -1    0    0    0    0  0.00000000000E+00  0.00000000000E+00  0.50000000000E+03  0.50000000000E+03  0.00000000000E+00 0.  1.
         11   -1    0    0    0    0 -0.00000000000E+00 -0.00000000000E+00 -0.50000000000E+03  0.50000000000E+03  0.00000000000E+00 0. -1.
         23    2    1    2    0    0  0.55398451836E+02  0.11799180675E+03  0.26956234807E+03  0.31307700303E+03  0.91445587125E+02 0.  0.
        -11    1    1    2    0    0  0.96312484102E+02  0.12788280551E+02  0.17452951778E+03  0.19975031237E+03  0.00000000000E+00 0.  1.
         11    1    1    2    0    0 -0.15171093594E+03 -0.13078008730E+03 -0.44409186585E+03  0.48717268461E+03  0.00000000000E+00 0. -1.
        -15    1    3    3    0    0  0.28691798541E+02  0.12367721290E+03  0.24654360686E+03  0.27731963527E+03  0.17770000000E+01 0.  1.
         15    1    3    3    0    0  0.26706653295E+02 -0.56854061505E+01  0.23018741209E+02  0.35757367760E+02  0.17770000000E+01 0. -1.
</event>
<event>
 7    1  0.4133533E-006  0.3666181E+03  0.7546771E-02  0.9760525E-01
        -11   -1    0    0    0    0  0.00000000000E+00  0.00000000000E+00  0.50000000000E+03  0.50000000000E+03  0.00000000000E+00 0. -1.
         11   -1    0    0    0    0 -0.00000000000E+00 -0.00000000000E+00 -0.50000000000E+03  0.50000000000E+03  0.00000000000E+00 0.  1.
         23    2    1    2    0    0 -0.23090130452E+02 -0.16318825099E+03 -0.14594591804E+03  0.23442896845E+03  0.80580213887E+02 0.  0.
        -11    1    1    2    0    0  0.63798665982E+02 -0.13429437608E+03  0.36485648131E+03  0.39398667641E+03  0.00000000000E+00 0. -1.
         11    1    1    2    0    0 -0.40708535530E+02  0.29748262707E+03 -0.21891056327E+03  0.37158435514E+03  0.00000000000E+00 0.  1.
        -15    1    3    3    0    0 -0.37861738977E+02 -0.16036198749E+03 -0.14459141446E+03  0.21922434439E+03  0.17770000000E+01 0.  1.
         15    1    3    3    0    0  0.14771608526E+02 -0.28262634999E+01 -0.13545035844E+01  0.15204624059E+02  0.17770000000E+01 0. -1.
</event>
<event>
 7    1  0.4133533E-006  0.5208632E+03  0.7546771E-02  0.9354300E-01
        -11   -1    0    0    0    0  0.00000000000E+00  0.00000000000E+00  0.50000000000E+03  0.50000000000E+03  0.00000000000E+00 0.  1.
         11   -1    0    0    0    0 -0.00000000000E+00 -0.00000000000E+00 -0.50000000000E+03  0.50000000000E+03  0.00000000000E+00 0. -1.
         23    2    1    2    0    0 -0.53220877498E+02  0.66304616529E+01 -0.87863087735E+02  0.13518452670E+03  0.87627103394E+02 0.  0.
        -11    1    1    2    0    0  0.21190765716E+03 -0.20767986311E+03  0.37621305790E+03  0.47913677133E+03  0.00000000000E+00 0.  1.
         11    1    1    2    0    0 -0.15868677966E+03  0.20104940146E+03 -0.28834997016E+03  0.38567870198E+03  0.00000000000E+00 0. -1.
        -15    1    3    3    0    0 -0.71991686456E+02  0.23235053528E+01 -0.37479053149E+02  0.81216000578E+02  0.17770000000E+01 0.  1.
         15    1    3    3    0    0  0.18770808959E+02  0.43069563002E+01 -0.50384034586E+02  0.53968526122E+02  0.17770000000E+01 0. -1.
</event>
<event>
 7    1  0.4133533E-006  0.4605335E+03  0.7546771E-02  0.9492725E-01
        -11   -1    0    0    0    0  0.00000000000E+00  0.00000000000E+00  0.50000000000E+03  0.50000000000E+03  0.00000000000E+00 0.  1.
         11   -1    0    0    0    0 -0.00000000000E+00 -0.00000000000E+00 -0.50000000000E+03  0.50000000000E+03  0.00000000000E+00 0. -1.
         23    2    1    2    0    0 -0.88915492347E+02 -0.49240692119E+02 -0.41976690933E+03  0.44143219033E+03  0.91255191392E+02 0.  0.
        -11    1    1    2    0    0  0.26326381737E+02  0.80166606674E+02  0.46681624103E+03  0.47438082391E+03  0.00000000000E+00 0.  1.
         11    1    1    2    0    0  0.62589110610E+02 -0.30925914555E+02 -0.47049331699E+02  0.84186985760E+02  0.00000000000E+00 0. -1.
        -15    1    3    3    0    0 -0.86018707736E+02 -0.72344928612E+02 -0.36432607440E+03  0.38127372450E+03  0.17770000000E+01 0.  1.
         15    1    3    3    0    0 -0.28967846111E+01  0.23104236494E+02 -0.55440834931E+02  0.60158465837E+02  0.17770000000E+01 0. -1.
</event>
<event>
 7    1  0.4133533E-006  0.5117369E+03  0.7546771E-02  0.9373924E-01
        -11   -1    0    0    0    0  0.00000000000E+00  0.00000000000E+00  0.50000000000E+03  0.50000000000E+03  0.00000000000E+00 0.  1.
         11   -1    0    0    0    0 -0.00000000000E+00 -0.00000000000E+00 -0.50000000000E+03  0.50000000000E+03  0.00000000000E+00 0. -1.
         23    2    1    2    0    0 -0.47052180013E+02  0.26299486266E+02 -0.36457764288E+03  0.37941379710E+03  0.90179826580E+02 0.  0.
        -11    1    1    2    0    0  0.10483560561E+03  0.13752537328E+02  0.47667724495E+03  0.48826307698E+03  0.00000000000E+00 0.  1.
         11    1    1    2    0    0 -0.57783425600E+02 -0.40052023594E+02 -0.11209960207E+03  0.13232312592E+03  0.00000000000E+00 0. -1.
        -15    1    3    3    0    0 -0.56462846749E+02  0.52227476048E+02 -0.28353398174E+03  0.29378638302E+03  0.17770000000E+01 0.  1.
         15    1    3    3    0    0  0.94106667360E+01 -0.25927989782E+02 -0.81043661136E+02  0.85627414079E+02  0.17770000000E+01 0. -1.
</event>
<event>
 7    1  0.4133533E-006  0.4450472E+03  0.7546771E-02  0.9531932E-01
        -11   -1    0    0    0    0  0.00000000000E+00  0.00000000000E+00  0.50000000000E+03  0.50000000000E+03  0.00000000000E+00 0.  1.
         11   -1    0    0    0    0 -0.00000000000E+00 -0.00000000000E+00 -0.50000000000E+03  0.50000000000E+03  0.00000000000E+00 0. -1.
         23    2    1    2    0    0  0.52319517252E+02 -0.19141038127E+02 -0.10229285868E+01  0.10816333433E+03  0.92706792007E+02 0.  0.
        -11    1    1    2    0    0 -0.69464657028E+02 -0.53646510536E+02  0.43891551021E+03  0.44760486120E+03  0.00000000000E+00 0.  1.
         11    1    1    2    0    0  0.17145139776E+02  0.72787548663E+02 -0.43789258162E+03  0.44423180447E+03  0.00000000000E+00 0. -1.
        -15    1    3    3    0    0 -0.16469291797E+02  0.13571298350E+02  0.19813013827E+02  0.29174148781E+02  0.17770000000E+01 0.  1.
         15    1    3    3    0    0  0.68788809050E+02 -0.32712336477E+02 -0.20835942414E+02  0.78989185548E+02  0.17770000000E+01 0. -1.
</event>
<event>
 7    1  0.4133533E-006  0.5162749E+03  0.7546771E-02  0.9364112E-01
        -11   -1    0    0    0    0  0.00000000000E+00  0.00000000000E+00  0.50000000000E+03  0.50000000000E+03  0.00000000000E+00 0. -1.
         11   -1    0    0    0    0 -0.00000000000E+00 -0.00000000000E+00 -0.50000000000E+03  0.50000000000E+03  0.00000000000E+00 0.  1.
         23    2    1    2    0    0 -0.46814366717E+01  0.13676670593E+03  0.23755284742E+03  0.28918368613E+03  0.92026090345E+02 0.  0.
        -11    1    1    2    0    0  0.51380112199E+02  0.10078737980E+02  0.22097265657E+03  0.22709119719E+03  0.00000000000E+00 0. -1.
         11    1    1    2    0    0 -0.46698675527E+02 -0.14684544391E+03 -0.45852550400E+03  0.48372511668E+03  0.00000000000E+00 0.  1.
        -15    1    3    3    0    0  0.43529073467E+02  0.62715598182E+02  0.11667047509E+03  0.13943881804E+03  0.17770000000E+01 0.  1.
         15    1    3    3    0    0 -0.48210510138E+02  0.74051107745E+02  0.12088237234E+03  0.14974486808E+03  0.17770000000E+01 0. -1.
</event>
<event>
 7    1  0.4133533E-006  0.5087085E+03  0.7546771E-02  0.9380532E-01
        -11   -1    0    0    0    0  0.00000000000E+00  0.00000000000E+00  0.50000000000E+03  0.50000000000E+03  0.00000000000E+00 0.  1.
         11   -1    0    0    0    0 -0.00000000000E+00 -0.00000000000E+00 -0.50000000000E+03  0.50000000000E+03  0.00000000000E+00 0. -1.
         23    2    1    2    0    0  0.32335478690E+02  0.33824407582E+02 -0.38151871256E+03  0.39581394559E+03  0.94458868079E+02 0.  0.
        -11    1    1    2    0    0 -0.75390075532E+02 -0.65079882278E+02  0.48109070412E+03  0.49129148187E+03  0.00000000000E+00 0.  1.
         11    1    1    2    0    0  0.43054596842E+02  0.31255474696E+02 -0.99571991557E+02  0.11289457255E+03  0.00000000000E+00 0. -1.
        -15    1    3    3    0    0  0.18048510767E+02  0.65235497419E+02 -0.29455728651E+03  0.30223926223E+03  0.17770000000E+01 0. -1.
         15    1    3    3    0    0  0.14286967922E+02 -0.31411089837E+02 -0.86961426049E+02  0.93574683364E+02  0.17770000000E+01 0.  1.
</event>
<event>
 7    1  0.4133533E-006  0.3948689E+03  0.7546771E-02  0.9671684E-01
        -11   -1    0    0    0    0  0.00000000000E+00  0.00000000000E+00  0.50000000000E+03  0.50000000000E+03  0.00000000000E+00 0. -1.
         11   -1    0    0    0    0 -0.00000000000E+00 -0.00000000000E+00 -0.50000000000E+03  0.50000000000E+03  0.00000000000E+00 0. -1.
         23    2    1    2    0    0  0.10524915483E+03 -0.12016753645E+03 -0.41093119679E+03  0.45038537720E+03  0.92004989507E+02 0.  0.
        -11    1    1    2    0    0  0.69314501958E+02  0.63561658771E+02  0.34017272651E+03  0.35293351854E+03  0.00000000000E+00 0. -1.
         11    1    1    2    0    0 -0.17456365679E+03  0.56605877674E+02  0.70758470273E+02  0.19668110426E+03  0.00000000000E+00 0. -1.
        -15    1    3    3    0    0  0.13904357856E+02  0.12697131598E+02 -0.20105582434E+02  0.27603269593E+02  0.17770000000E+01 0.  1.
         15    1    3    3    0    0  0.91344796972E+02 -0.13286466804E+03 -0.39082561435E+03  0.42278210760E+03  0.17770000000E+01 0. -1.
</event>
<event>
 7    1  0.4133533E-006  0.4207298E+03  0.7546771E-02  0.9597059E-01
        -11   -1    0    0    0    0  0.00000000000E+00  0.00000000000E+00  0.50000000000E+03  0.50000000000E+03  0.00000000000E+00 0.  1.
         11   -1    0    0    0    0 -0.00000000000E+00 -0.00000000000E+00 -0.50000000000E+03  0.50000000000E+03  0.00000000000E+00 0. -1.
         23    2    1    2    0    0 -0.13531937583E+02 -0.12696329278E+03  0.35357332392E+03  0.38701033912E+03  0.91978889690E+02 0.  0.
        -11    1    1    2    0    0 -0.10764924471E+03  0.70993104441E+02  0.85071443744E+02  0.15448472839E+03  0.00000000000E+00 0.  1.
         11    1    1    2    0    0  0.12118118229E+03  0.55970188341E+02 -0.43864476766E+03  0.45850493249E+03  0.00000000000E+00 0. -1.
        -15    1    3    3    0    0 -0.11137599229E+01  0.14782402466E+02  0.38472453332E+02  0.41267993387E+02  0.17770000000E+01 0. -1.
         15    1    3    3    0    0 -0.12418177661E+02 -0.14174569525E+03  0.31510087059E+03  0.34574234573E+03  0.17770000000E+01 0.  1.
</event>
<event>
 7    1  0.4133533E-006  0.4727656E+03  0.7546771E-02  0.9462900E-01
        -11   -1    0    0    0    0  0.00000000000E+00  0.00000000000E+00  0.50000000000E+03  0.50000000000E+03  0.00000000000E+00 0. -1.
         11   -1    0    0    0    0 -0.00000000000E+00 -0.00000000000E+00 -0.50000000000E+03  0.50000000000E+03  0.00000000000E+00 0.  1.
         23    2    1    2    0    0  0.63886837225E+02  0.67554254936E+02 -0.43300601450E+03  0.45214948789E+03  0.91103487704E+02 0.  0.
        -11    1    1    2    0    0 -0.44829965352E+02 -0.11133222785E+03  0.47149010591E+03  0.48652596100E+03  0.00000000000E+00 0. -1.
         11    1    1    2    0    0 -0.19056871873E+02  0.43777972918E+02 -0.38484091409E+02  0.61324551119E+02  0.00000000000E+00 0.  1.
        -15    1    3    3    0    0  0.85241831790E+02  0.46836504352E+02 -0.28419381239E+03  0.30038160523E+03  0.17770000000E+01 0.  1.
         15    1    3    3    0    0 -0.21354994565E+02  0.20717750584E+02 -0.14881220211E+03  0.15176788266E+03  0.17770000000E+01 0. -1.
</event>
<event>
 7    1  0.4133533E-006  0.4685027E+03  0.7546771E-02  0.9473184E-01
        -11   -1    0    0    0    0  0.00000000000E+00  0.00000000000E+00  0.50000000000E+03  0.50000000000E+03  0.00000000000E+00 0.  1.
         11   -1    0    0    0    0 -0.00000000000E+00 -0.00000000000E+00 -0.50000000000E+03  0.50000000000E+03  0.00000000000E+00 0. -1.
         23    2    1    2    0    0 -0.43730356538E+02 -0.15254275822E+03 -0.43425117878E+03  0.47186702798E+03  0.94354483997E+02 0.  0.
        -11    1    1    2    0    0  0.65726068507E+02  0.21040797052E+03  0.40166115310E+03  0.45817367018E+03  0.00000000000E+00 0.  1.
         11    1    1    2    0    0 -0.21995711969E+02 -0.57865212306E+02  0.32590025685E+02  0.69959301843E+02  0.00000000000E+00 0. -1.
        -15    1    3    3    0    0 -0.18111210090E+02  0.37859387771E+01 -0.15679760445E+02  0.24317933299E+02  0.17770000000E+01 0.  1.
         15    1    3    3    0    0 -0.25619146448E+02 -0.15632869700E+03 -0.41857141834E+03  0.44754909468E+03  0.17770000000E+01 0. -1.
</event>
<event>
 7    1  0.4133533E-006  0.5251420E+03  0.7546771E-02  0.9345246E-01
        -11   -1    0    0    0    0  0.00000000000E+00  0.00000000000E+00  0.50000000000E+03  0.50000000000E+03  0.00000000000E+00 0.  1.
         11   -1    0    0    0    0 -0.00000000000E+00 -0.00000000000E+00 -0.50000000000E+03  0.50000000000E+03  0.00000000000E+00 0. -1.
         23    2    1    2    0    0 -0.10611051114E+00  0.28649671235E+02  0.22411983478E+03  0.24261673438E+03  0.88387581363E+02 0.  0.
        -11    1    1    2    0    0  0.17710368145E+03 -0.40549155619E+02  0.21635757244E+03  0.28252530357E+03  0.00000000000E+00 0.  1.
         11    1    1    2    0    0 -0.17699757094E+03  0.11899484384E+02 -0.44047740722E+03  0.47485796205E+03  0.00000000000E+00 0. -1.
        -15    1    3    3    0    0  0.36874793515E+02  0.97264798484E+01  0.17072867751E+03  0.17494511671E+03  0.17770000000E+01 0. -1.
         15    1    3    3    0    0 -0.36980904026E+02  0.18923191386E+02  0.53391157267E+02  0.67671617670E+02  0.17770000000E+01 0.  1.
</event>
<event>
 7    1  0.4133533E-006  0.4539115E+03  0.7546771E-02  0.9509286E-01
        -11   -1    0    0    0    0  0.00000000000E+00  0.00000000000E+00  0.50000000000E+03  0.50000000000E+03  0.00000000000E+00 0.  1.
         11   -1    0    0    0    0 -0.00000000000E+00 -0.00000000000E+00 -0.50000000000E+03  0.50000000000E+03  0.00000000000E+00 0.  1.
         23    2    1    2    0    0 -0.39666423940E+03 -0.10542161384E+03  0.10246372041E+03  0.43263908376E+03  0.90672638199E+02 0.  0.
        -11    1    1    2    0    0 -0.17520656475E+02 -0.24485602320E+01  0.94551335601E+02  0.96192119815E+02  0.00000000000E+00 0.  1.
         11    1    1    2    0    0  0.41418489587E+03  0.10787017407E+03 -0.19701505602E+03  0.47116879642E+03  0.00000000000E+00 0.  1.
        -15    1    3    3    0    0 -0.20207853694E+03 -0.69591898131E+01  0.52209717748E+02  0.20883768283E+03  0.17770000000E+01 0. -1.
         15    1    3    3    0    0 -0.19458570246E+03 -0.98462424027E+02  0.50254002667E+02  0.22380140094E+03  0.17770000000E+01 0.  1.
</event>
<event>
 7    1  0.4133533E-006  0.5105573E+03  0.7546771E-02  0.9376492E-01
        -11   -1    0    0    0    0  0.00000000000E+00  0.00000000000E+00  0.50000000000E+03  0.50000000000E+03  0.00000000000E+00 0. -1.
         11   -1    0    0    0    0 -0.00000000000E+00 -0.00000000000E+00 -0.50000000000E+03  0.50000000000E+03  0.00000000000E+00 0.  1.
         23    2    1    2    0    0 -0.67185968913E+02  0.41178784039E+02 -0.27271309017E+03  0.29452858255E+03  0.78517575814E+02 0.  0.
        -11    1    1    2    0    0  0.37867511140E+02 -0.10963558918E+03  0.47549996118E+03  0.48944266661E+03  0.00000000000E+00 0. -1.
         11    1    1    2    0    0  0.29318457772E+02  0.68456805144E+02 -0.20278687101E+03  0.21602875084E+03  0.00000000000E+00 0.  1.
        -15    1    3    3    0    0 -0.66169202971E+02  0.59737149818E+02 -0.19213664687E+03  0.21181723086E+03  0.17770000000E+01 0.  1.
         15    1    3    3    0    0 -0.10167659418E+01 -0.18558365778E+02 -0.80576443305E+02  0.82711351688E+02  0.17770000000E+01 0. -1.
</event>
<event>
 7    1  0.4133533E-006  0.4749249E+03  0.7546771E-02  0.9457734E-01
        -11   -1    0    0    0    0  0.00000000000E+00  0.00000000000E+00  0.50000000000E+03  0.50000000000E+03  0.00000000000E+00 0.  1.
         11   -1    0    0    0    0 -0.00000000000E+00 -0.00000000000E+00 -0.50000000000E+03  0.50000000000E+03  0.00000000000E+00 0. -1.
         23    2    1    2    0    0 -0.40301714540E+03 -0.44062007792E+02 -0.20300401466E+03  0.46370837906E+03  0.97213943546E+02 0.  0.
        -11    1    1    2    0    0  0.43133280943E+03  0.91568815878E+02  0.18426485683E+03  0.47789787402E+03  0.00000000000E+00 0.  1.
         11    1    1    2    0    0 -0.28315664023E+02 -0.47506808086E+02  0.18739157832E+02  0.58393746924E+02  0.00000000000E+00 0. -1.
        -15    1    3    3    0    0 -0.65522819071E+02 -0.19653749958E+02 -0.76028443222E+02  0.10228876583E+03  0.17770000000E+01 0.  1.
         15    1    3    3    0    0 -0.33749432633E+03 -0.24408257834E+02 -0.12697557144E+03  0.36141961323E+03  0.17770000000E+01 0. -1.
</event>
<event>
 7    1  0.4133533E-006  0.5220020E+03  0.7546771E-02  0.9351881E-01
        -11   -1    0    0    0    0  0.00000000000E+00  0.00000000000E+00  0.50000000000E+03  0.50000000000E+03  0.00000000000E+00 0. -1.
         11   -1    0    0    0    0 -0.00000000000E+00 -0.00000000000E+00 -0.50000000000E+03  0.50000000000E+03  0.00000000000E+00 0. -1.
         23    2    1    2    0    0  0.72739044627E+02 -0.93393009325E+01 -0.40175303065E+03  0.41843790528E+03  0.91140505731E+02 0.  0.
        -11    1    1    2    0    0 -0.60866399744E+02 -0.68394431439E+02  0.46914766708E+03  0.47799796066E+03  0.00000000000E+00 0. -1.
         11    1    1    2    0    0 -0.11872644882E+02  0.77733732371E+02 -0.67394636428E+02  0.10356413406E+03  0.00000000000E+00 0. -1.
        -15    1    3    3    0    0  0.15374009728E+02 -0.35780969864E+02 -0.64896701027E+02  0.75705861812E+02  0.17770000000E+01 0.  1.
         15    1    3    3    0    0  0.57365034899E+02  0.26441668931E+02 -0.33685632962E+03  0.34273204347E+03  0.17770000000E+01 0. -1.
</event>
<event>
 7    1  0.4133533E-006  0.3467299E+03  0.7546771E-02  0.9828377E-01
        -11   -1    0    0    0    0  0.00000000000E+00  0.00000000000E+00  0.50000000000E+03  0.50000000000E+03  0.00000000000E+00 0. -1.
         11   -1    0    0    0    0 -0.00000000000E+00 -0.00000000000E+00 -0.50000000000E+03  0.50000000000E+03  0.00000000000E+00 0.  1.
         23    2    1    2    0    0  0.12178610822E+03 -0.16472763475E+03 -0.14120994396E+03  0.26325467177E+03  0.85998396093E+02 0.  0.
        -11    1    1    2    0    0  0.16814819160E+03  0.29494564210E+03  0.22593117763E+03  0.40781324544E+03  0.00000000000E+00 0. -1.
         11    1    1    2    0    0 -0.28993429982E+03 -0.13021800735E+03 -0.84721233667E+02  0.32893208279E+03  0.00000000000E+00 0.  1.
        -15    1    3    3    0    0  0.97067808782E+02 -0.10746651562E+03 -0.13912862885E+03  0.20082615511E+03  0.17770000000E+01 0.  1.
         15    1    3    3    0    0  0.24718299437E+02 -0.57261119132E+02 -0.20813151118E+01  0.62428516665E+02  0.17770000000E+01 0. -1.
</event>
<event>
 7    1  0.4133533E-006  0.3525829E+03  0.7546771E-02  0.9807912E-01
        -11   -1    0    0    0    0  0.00000000000E+00  0.00000000000E+00  0.50000000000E+03  0.50000000000E+03  0.00000000000E+00 0.  1.
         11   -1    0    0    0    0 -0.00000000000E+00 -0.00000000000E+00 -0.50000000000E+03  0.50000000000E+03  0.00000000000E+00 0.  1.
         23    2    1    2    0    0 -0.19555370941E+03  0.13253434189E+03  0.17977343278E+02  0.25609902372E+03  0.97246696758E+02 0.  0.
        -11    1    1    2    0    0  0.19817903553E+02 -0.66625713844E+02  0.33606873477E+03  0.34318206471E+03  0.00000000000E+00 0.  1.
         11    1    1    2    0    0  0.17573580586E+03 -0.65908628048E+02 -0.35404607805E+03  0.40071891158E+03  0.00000000000E+00 0.  1.
        -15    1    3    3    0    0 -0.10355440516E+03  0.94266053243E+02 -0.33406763470E+02  0.14397490475E+03  0.17770000000E+01 0.  1.
         15    1    3    3    0    0 -0.91999304256E+02  0.38268288648E+02  0.51384106748E+02  0.11212411897E+03  0.17770000000E+01 0. -1.
</event>
<event>
 7    1  0.4133533E-006  0.5264919E+03  0.7546771E-02  0.9342408E-01
        -11   -1    0    0    0    0  0.00000000000E+00  0.00000000000E+00  0.50000000000E+03  0.50000000000E+03  0.00000000000E+00 0.  1.
         11   -1    0    0    0    0 -0.00000000000E+00 -0.00000000000E+00 -0.50000000000E+03  0.50000000000E+03  0.00000000000E+00 0. -1.
         23    2    1    2    0    0 -0.60509323700E+01 -0.13093683977E+02 -0.20275141604E+03  0.22395193922E+03  0.94012105787E+02 0.  0.
        -11    1    1    2    0    0 -0.16886367330E+03  0.11724628872E+03  0.42655392946E+03  0.47350806447E+03  0.00000000000E+00 0.  1.
         11    1    1    2    0    0  0.17491460567E+03 -0.10415260475E+03 -0.22380251342E+03  0.30253999631E+03  0.00000000000E+00 0. -1.
        -15    1    3    3    0    0  0.21982792174E+02 -0.35970961912E+02 -0.16985547804E+03  0.17501769740E+03  0.17770000000E+01 0.  1.
         15    1    3    3    0    0 -0.28033724544E+02  0.22877277935E+02 -0.32895937995E+02  0.48934241826E+02  0.17770000000E+01 0. -1.
</event>
<event>
 7    1  0.4133533E-006  0.3762485E+03  0.7546771E-02  0.9729305E-01
        -11   -1    0    0    0    0  0.00000000000E+00  0.00000000000E+00  0.50000000000E+03  0.50000000000E+03  0.00000000000E+00 0. -1.
         11   -1    0    0    0    0 -0.00000000000E+00 -0.00000000000E+00 -0.50000000000E+03  0.50000000000E+03  0.00000000000E+00 0.  1.
         23    2    1    2    0    0 -0.12725975571E+03  0.22993113015E+02 -0.15297715655E+03  0.22129761885E+03  0.94057944977E+02 0.  0.
        -11    1    1    2    0    0 -0.12585326972E+03  0.32789640524E+02  0.40002614866E+03  0.42063657192E+03  0.00000000000E+00 0. -1.
         11    1    1    2    0    0  0.25311302543E+03 -0.55782753539E+02 -0.24704899211E+03  0.35806580923E+03  0.00000000000E+00 0.  1.
        -15    1    3    3    0    0 -0.71486262942E+02  0.59567016042E+02 -0.84844941354E+02  0.12593782987E+03  0.17770000000E+01 0. -1.
         15    1    3    3    0    0 -0.55773492768E+02 -0.36573903027E+02 -0.68132215198E+02  0.95359788983E+02  0.17770000000E+01 0.  1.
</event>
<event>
 7    1  0.4133533E-006  0.4171197E+03  0.7546771E-02  0.9607128E-01
        -11   -1    0    0    0    0  0.00000000000E+00  0.00000000000E+00  0.50000000000E+03  0.50000000000E+03  0.00000000000E+00 0.  1.
         11   -1    0    0    0    0 -0.00000000000E+00 -0.00000000000E+00 -0.50000000000E+03  0.50000000000E+03  0.00000000000E+00 0. -1.
         23    2    1    2    0    0  0.10606875205E+03  0.68548856205E+02 -0.10465879603E+02  0.15619058369E+03  0.91304096026E+02 0.  0.
        -11    1    1    2    0    0  0.76203858478E+02 -0.13353232486E+02  0.40148839907E+03  0.40887439569E+03  0.00000000000E+00 0.  1.
         11    1    1    2    0    0 -0.18227261052E+03 -0.55195623718E+02 -0.39102251947E+03  0.43493502061E+03  0.00000000000E+00 0. -1.
        -15    1    3    3    0    0  0.42822182960E+02  0.52336662335E+02  0.35429333412E+02  0.76362693593E+02  0.17770000000E+01 0.  1.
         15    1    3    3    0    0  0.63246569087E+02  0.16212193869E+02 -0.45895213014E+02  0.79827890101E+02  0.17770000000E+01 0. -1.
</event>
<event>
 7    1  0.4133533E-006  0.4618826E+03  0.7546771E-02  0.9489388E-01
        -11   -1    0    0    0    0  0.00000000000E+00  0.00000000000E+00  0.50000000000E+03  0.50000000000E+03  0.00000000000E+00 0. -1.
         11   -1    0    0    0    0 -0.00000000000E+00 -0.00000000000E+00 -0.50000000000E+03  0.50000000000E+03  0.00000000000E+00 0. -1.
         23    2    1    2    0    0 -0.13167272900E+03  0.92395345315E+02 -0.40948390120E+03  0.44894752812E+03  0.89455074012E+02 0.  0.
        -11    1    1    2    0    0  0.21151328209E+03 -0.10753772569E+03  0.40533928096E+03  0.46968304593E+03  0.00000000000E+00 0. -1.
         11    1    1    2    0    0 -0.79840553099E+02  0.15142380377E+02  0.41446202417E+01  0.81369425951E+02  0.00000000000E+00 0. -1.
        -15    1    3    3    0    0  0.10244927934E+02  0.18587815193E+01 -0.69917042784E+01  0.12667094175E+02  0.17770000000E+01 0.  1.
         15    1    3    3    0    0 -0.14191765693E+03  0.90536563795E+02 -0.40249219692E+03  0.43628043394E+03  0.17770000000E+01 0. -1.
</event>
<event>
 7    1  0.4133533E-006  0.5121008E+03  0.7546771E-02  0.9373133E-01
        -11   -1    0    0    0    0  0.00000000000E+00  0.00000000000E+00  0.50000000000E+03  0.50000000000E+03  0.00000000000E+00 0. -1.
         11   -1    0    0    0    0 -0.00000000000E+00 -0.00000000000E+00 -0.50000000000E+03  0.50000000000E+03  0.00000000000E+00 0. -1.
         23    2    1    2    0    0 -0.69368668812E+02  0.26729404699E+03 -0.39205553965E+03  0.48789921674E+03  0.89888707588E+02 0.  0.
        -11    1    1    2    0    0  0.25075383989E+02  0.10250917865E+02  0.11239031408E+03  0.11560899142E+03  0.00000000000E+00 0. -1.
         11    1    1    2    0    0  0.44293284823E+02 -0.27754496486E+03  0.27966522558E+03  0.39649179184E+03  0.00000000000E+00 0. -1.
        -15    1    3    3    0    0  0.17672306048E+02  0.99233711298E+02 -0.12533756137E+03  0.16084869250E+03  0.17770000000E+01 0.  1.
         15    1    3    3    0    0 -0.87040974860E+02  0.16806033569E+03 -0.26671797829E+03  0.32705052424E+03  0.17770000000E+01 0. -1.
</event>
<event>
 6    1  0.4133533E-006  0.3483038E+03  0.7546771E-02  0.9822832E-01
        -11   -1    0    0    0    0  0.00000000000E+00  0.00000000000E+00  0.50000000000E+03  0.50000000000E+03  0.00000000000E+00 0. -1.
         11   -1    0    0    0    0 -0.00000000000E+00 -0.00000000000E+00 -0.50000000000E+03  0.50000000000E+03  0.00000000000E+00 0. -1.
        -11    1    1    2    0    0 -0.26194447266E+01  0.79918282897E+02  0.39074462341E+03  0.39884226726E+03  0.00000000000E+00 0. -1.
         11    1    1    2    0    0  0.10567578767E+03  0.47330035664E+02 -0.30086183458E+03  0.32237454596E+03  0.00000000000E+00 0. -1.
        -15    1    1    2    0    0 -0.15077099048E+03 -0.10578827647E+03 -0.11860385286E+03  0.21907323582E+03  0.17770000000E+01 0. -1.
         15    1    1    2    0    0  0.47714647535E+02 -0.21460042086E+02  0.28721064029E+02  0.59709950961E+02  0.17770000000E+01 0.  1.
</event>
<event>
 6    1  0.4133533E-006  0.5403262E+03  0.7546771E-02  0.9313839E-01
        -11   -1    0    0    0    0  0.00000000000E+00  0.00000000000E+00  0.50000000000E+03  0.50000000000E+03  0.00000000000E+00 0. -1.
         11   -1    0    0    0    0 -0.00000000000E+00 -0.00000000000E+00 -0.50000000000E+03  0.50000000000E+03  0.00000000000E+00 0. -1.
        -11    1    1    2    0    0 -0.57167469662E+01  0.99403027126E+02  0.32186945905E+03  0.33691778176E+03  0.00000000000E+00 0. -1.
         11    1    1    2    0    0  0.10425186635E+03 -0.16858433473E+03 -0.41474188622E+03  0.45967375577E+03  0.00000000000E+00 0. -1.
        -15    1    1    2    0    0 -0.41432247506E+02  0.23741602208E+02  0.11711654194E+03  0.12649006654E+03  0.17770000000E+01 0.  1.
         15    1    1    2    0    0 -0.57102871874E+02  0.45439705399E+02 -0.24244114768E+02  0.76918395933E+02  0.17770000000E+01 0. -1.
</event>
<event>
 7    1  0.4133533E-006  0.5066967E+03  0.7546771E-02  0.9384949E-01
        -11   -1    0    0    0    0  0.00000000000E+00  0.00000000000E+00  0.50000000000E+03  0.50000000000E+03  0.00000000000E+00 0. -1.
         11   -1    0    0    0    0 -0.00000000000E+00 -0.00000000000E+00 -0.50000000000E+03  0.50000000000E+03  0.00000000000E+00 0.  1.
         23    2    1    2    0    0 -0.62871228178E+02  0.55023556145E+02  0.28750921463E+03  0.31216219779E+03  0.88336324186E+02 0.  0.
        -11    1    1    2    0    0 -0.36691404104E+02  0.55094506392E+02  0.18292619831E+03  0.19453446430E+03  0.00000000000E+00 0. -1.
         11    1    1    2    0    0  0.99562632283E+02 -0.11011806254E+03 -0.47043541294E+03  0.49330333791E+03  0.00000000000E+00 0.  1.
        -15    1    3    3    0    0 -0.22356923534E+02  0.71637260701E+02  0.14827280833E+03  0.16619179453E+03  0.17770000000E+01 0.  1.
         15    1    3    3    0    0 -0.40514304645E+02 -0.16613704556E+02  0.13923640630E+03  0.14597040327E+03  0.17770000000E+01 0. -1.
</event>
<event>
 7    1  0.4133533E-006  0.5126845E+03  0.7546771E-02  0.9371866E-01
        -11   -1    0    0    0    0  0.00000000000E+00  0.00000000000E+00  0.50000000000E+03  0.50000000000E+03  0.00000000000E+00 0.  1.
         11   -1    0    0    0    0 -0.00000000000E+00 -0.00000000000E+00 -0.50000000000E+03  0.50000000000E+03  0.00000000000E+00 0. -1.
         23    2    1    2    0    0  0.40710044443E+02  0.19886075642E+02 -0.24764673735E+03  0.26820995894E+03  0.92492766370E+02 0.  0.
        -11    1    1    2    0    0 -0.10593792482E+02 -0.98720559852E+02  0.47709374090E+03  0.48731551893E+03  0.00000000000E+00 0.  1.
         11    1    1    2    0    0 -0.30116251962E+02  0.78834484209E+02 -0.22944700355E+03  0.24447452213E+03  0.00000000000E+00 0. -1.
        -15    1    3    3    0    0  0.69502684236E+02  0.37766145947E+01 -0.17762163625E+03  0.19078126042E+03  0.17770000000E+01 0. -1.
         15    1    3    3    0    0 -0.28792639792E+02  0.16109461048E+02 -0.70025101107E+02  0.77428698527E+02  0.17770000000E+01 0.  1.
</event>
<event>
 7    1  0.4721041E-006  0.5189107E+03  0.7546771E-02  0.9358462E-01
        -11   -1    0    0    0    0  0.00000000000E+00  0.00000000000E+00  0.50000000000E+03  0.50000000000E+03  0.00000000000E+00 0.  1.
         11   -1    0    0    0    0 -0.00000000000E+00 -0.00000000000E+00 -0.50000000000E+03  0.50000000000E+03  0.00000000000E+00 0. -1.
         23    2    1    2    0    0  0.24223163530E+02 -0.33336349132E+02  0.30400891464E+03  0.31957212527E+03  0.89480999366E+02 0.  0.
        -11    1    1    2    0    0  0.15654773095E+02  0.10214568401E+03  0.17046127480E+03  0.19933855344E+03  0.00000000000E+00 0.  1.
         11    1    1    2    0    0 -0.39877936625E+02 -0.68809334874E+02 -0.47447018943E+03  0.48108932129E+03  0.00000000000E+00 0. -1.
        -15    1    3    3    0    0  0.88257459439E+01 -0.61719196807E+02  0.15468695991E+03  0.16678838791E+03  0.17770000000E+01 0. -1.
         15    1    3    3    0    0  0.15397417586E+02  0.28382847674E+02  0.14932195473E+03  0.15278373736E+03  0.17770000000E+01 0.  1.
</event>
<event>
 7    1  0.4133533E-006  0.5245717E+03  0.7546771E-02  0.9346447E-01
        -11   -1    0    0    0    0  0.00000000000E+00  0.00000000000E+00  0.50000000000E+03  0.50000000000E+03  0.00000000000E+00 0.  1.
         11   -1    0    0    0    0 -0.00000000000E+00 -0.00000000000E+00 -0.50000000000E+03  0.50000000000E+03  0.00000000000E+00 0. -1.
         23    2    1    2    0    0 -0.48548454444E+02  0.16398209869E+03  0.17264880826E+03  0.26168233105E+03  0.97071881977E+02 0.  0.
        -11    1    1    2    0    0  0.62367853543E+02  0.54089217845E+02  0.24959048750E+03  0.26288933811E+03  0.00000000000E+00 0.  1.
         11    1    1    2    0    0 -0.13819399100E+02 -0.21807131653E+03 -0.42223929576E+03  0.47542833084E+03  0.00000000000E+00 0. -1.
        -15    1    3    3    0    0 -0.81897537194E+01 -0.12479251555E+02  0.82509995119E+01  0.17147609376E+02  0.17770000000E+01 0.  1.
         15    1    3    3    0    0 -0.40358700724E+02  0.17646135024E+03  0.16439780875E+03  0.24453472167E+03  0.17770000000E+01 0. -1.
</event>
<event>
 7    1  0.5684804E-006  0.4909502E+03  0.7546771E-02  0.9420290E-01
        -11   -1    0    0    0    0  0.00000000000E+00  0.00000000000E+00  0.50000000000E+03  0.50000000000E+03  0.00000000000E+00 0. -1.
         11   -1    0    0    0    0 -0.00000000000E+00 -0.00000000000E+00 -0.50000000000E+03  0.50000000000E+03  0.00000000000E+00 0. -1.
         23    2    1    2    0    0 -0.39988455677E+02 -0.57897256825E+02  0.46435538584E+03  0.47882560854E+03  0.93257010965E+02 0.  0.
        -11    1    1    2    0    0 -0.93520351396E+01 -0.97208943871E+01  0.23010279333E+02  0.26672632114E+02  0.00000000000E+00 0. -1.
         11    1    1    2    0    0  0.49340490816E+02  0.67618151212E+02 -0.48736566518E+03  0.49450175935E+03  0.00000000000E+00 0. -1.
        -15    1    3    3    0    0  0.28968984524E+02 -0.13322995083E+02  0.88059731098E+02  0.93671651167E+02  0.17770000000E+01 0.  1.
         15    1    3    3    0    0 -0.68957440200E+02 -0.44574261742E+02  0.37629565474E+03  0.38515395737E+03  0.17770000000E+01 0. -1.
</event>
<event>
 7    1  0.4133533E-006  0.3440980E+03  0.7546771E-02  0.9837722E-01
        -11   -1    0    0    0    0  0.00000000000E+00  0.00000000000E+00  0.50000000000E+03  0.50000000000E+03  0.00000000000E+00 0. -1.
         11   -1    0    0    0    0 -0.00000000000E+00 -0.00000000000E+00 -0.50000000000E+03  0.50000000000E+03  0.00000000000E+00 0. -1.
         23    2    1    2    0    0  0.18858700674E+03  0.83856812404E+02 -0.25326252503E+03  0.33775205519E+03  0.85659325835E+02 0.  0.
        -11    1    1    2    0    0 -0.54415867385E+02  0.12091035670E+03  0.36853228052E+03  0.39165857934E+03  0.00000000000E+00 0. -1.
         11    1    1    2    0    0 -0.13417113935E+03 -0.20476716910E+03 -0.11526975549E+03  0.27058936548E+03  0.00000000000E+00 0. -1.
        -15    1    3    3    0    0  0.18834454990E+03  0.67040856239E+02 -0.20385898883E+03  0.28553422026E+03  0.17770000000E+01 0. -1.
         15    1    3    3    0    0  0.24245684037E+00  0.16815956165E+02 -0.49403536195E+02  0.52217834929E+02  0.17770000000E+01 0.  1.
</event>
<event>
 7    1  0.4133533E-006  0.5289688E+03  0.7546771E-02  0.9337225E-01
        -11   -1    0    0    0    0  0.00000000000E+00  0.00000000000E+00  0.50000000000E+03  0.50000000000E+03  0.00000000000E+00 0.  1.
         11   -1    0    0    0    0 -0.00000000000E+00 -0.00000000000E+00 -0.50000000000E+03  0.50000000000E+03  0.00000000000E+00 0. -1.
         23    2    1    2    0    0  0.57725902342E+02 -0.21213307057E+02  0.14017351525E+03  0.17853758498E+03  0.91895433385E+02 0.  0.
        -11    1    1    2    0    0 -0.13666051560E+03 -0.34997275942E+02  0.32078208634E+03  0.35043123828E+03  0.00000000000E+00 0.  1.
         11    1    1    2    0    0  0.78934613256E+02  0.56210582999E+02 -0.46095560159E+03  0.47103117673E+03  0.00000000000E+00 0. -1.
        -15    1    3    3    0    0  0.32547780782E+02 -0.43427440718E+02  0.13368710690E+03  0.14429380070E+03  0.17770000000E+01 0. -1.
         15    1    3    3    0    0  0.25178121560E+02  0.22214133661E+02  0.64864083505E+01  0.34243784282E+02  0.17770000000E+01 0.  1.
</event>
<event>
 7    1  0.8864761E-006  0.5112709E+03  0.7546771E-02  0.9374938E-01
        -11   -1    0    0    0    0  0.00000000000E+00  0.00000000000E+00  0.50000000000E+03  0.50000000000E+03  0.00000000000E+00 0.  1.
         11   -1    0    0    0    0 -0.00000000000E+00 -0.00000000000E+00 -0.50000000000E+03  0.50000000000E+03  0.00000000000E+00 0. -1.
         23    2    1    2    0    0  0.61174324488E+01 -0.14865694641E+02  0.31145976956E+03  0.32490273647E+03  0.91083413705E+02 0.  0.
        -11    1    1    2    0    0 -0.20140947972E+02 -0.77619526497E+02  0.16823386620E+03  0.18636813681E+03  0.00000000000E+00 0.  1.
         11    1    1    2    0    0  0.14023515523E+02  0.92485221138E+02 -0.47969363577E+03  0.48872912673E+03  0.00000000000E+00 0. -1.
        -15    1    3    3    0    0  0.30326297946E+02  0.28481840197E+02  0.11672951378E+03  0.12393480820E+03  0.17770000000E+01 0. -1.
         15    1    3    3    0    0 -0.24208865497E+02 -0.43347534838E+02  0.19473025578E+03  0.20096792826E+03  0.17770000000E+01 0.  1.
</event>
<event>
 7    1  0.4133533E-006  0.4834977E+03  0.7546771E-02  0.9437511E-01
        -11   -1    0    0    0    0  0.00000000000E+00  0.00000000000E+00  0.50000000000E+03  0.50000000000E+03  0.00000000000E+00 0.  1.
         11   -1    0    0    0    0 -0.00000000000E+00 -0.00000000000E+00 -0.50000000000E+03  0.50000000000E+03  0.00000000000E+00 0. -1.
         23    2    1    2    0    0 -0.71045973436E+02  0.99398327924E+02 -0.47050253887E+03  0.49452121001E+03  0.90835181143E+02 0.  0.
        -11    1    1    2    0    0  0.81938425587E+02 -0.64295066677E+02  0.45290936335E+03  0.46473073128E+03  0.00000000000E+00 0.  1.
         11    1    1    2    0    0 -0.10892452151E+02 -0.35103261247E+02  0.17593175518E+02  0.40748058713E+02  0.00000000000E+00 0. -1.
        -15    1    3    3    0    0 -0.70123260874E+00 -0.14869246537E+02 -0.24083663556E+02  0.28368411993E+02  0.17770000000E+01 0.  1.
         15    1    3    3    0    0 -0.70344740827E+02  0.11426757446E+03 -0.44641887531E+03  0.46615279802E+03  0.17770000000E+01 0. -1.
</event>
<event>
 6    1  0.4133533E-006  0.5248705E+03  0.7546771E-02  0.9345818E-01
        -11   -1    0    0    0    0  0.00000000000E+00  0.00000000000E+00  0.50000000000E+03  0.50000000000E+03  0.00000000000E+00 0.  1.
         11   -1    0    0    0    0 -0.00000000000E+00 -0.00000000000E+00 -0.50000000000E+03  0.50000000000E+03  0.00000000000E+00 0. -1.
        -11    1    1    2    0    0 -0.38819820472E+02 -0.56289739504E+02  0.30861147804E+03  0.31609580448E+03  0.00000000000E+00 0.  1.
         11    1    1    2    0    0  0.45894083912E+02  0.67392179804E+02 -0.46808126001E+03  0.47512949688E+03  0.00000000000E+00 0. -1.
        -15    1    1    2    0    0 -0.98157654607E+01 -0.68376536940E+02  0.12213799198E+03  0.14033013528E+03  0.17770000000E+01 0.  1.
         15    1    1    2    0    0  0.27415020201E+01  0.57274096640E+02  0.37331789996E+02  0.68444563353E+02  0.17770000000E+01 0. -1.
</event>
<event>
 7    1  0.4133533E-006  0.3660871E+03  0.7546771E-02  0.9762276E-01
        -11   -1    0    0    0    0  0.00000000000E+00  0.00000000000E+00  0.50000000000E+03  0.50000000000E+03  0.00000000000E+00 0. -1.
         11   -1    0    0    0    0 -0.00000000000E+00 -0.00000000000E+00 -0.50000000000E+03  0.50000000000E+03  0.00000000000E+00 0.  1.
         23    2    1    2    0    0 -0.18478523001E+01  0.16908006994E+03  0.24111493216E+03  0.30852831420E+03  0.91988181551E+02 0.  0.
        -11    1    1    2    0    0 -0.15582810500E+03 -0.69467610404E+02  0.16949311115E+03  0.24049129284E+03  0.00000000000E+00 0. -1.
         11    1    1    2    0    0  0.15767595730E+03 -0.99612459540E+02 -0.41060804331E+03  0.45098039296E+03  0.00000000000E+00 0.  1.
        -15    1    3    3    0    0 -0.10911670170E+02  0.58748156323E+02  0.16135556067E+03  0.17207319694E+03  0.17770000000E+01 0. -1.
         15    1    3    3    0    0  0.90638178695E+01  0.11033191362E+03  0.79759371483E+02  0.13645511726E+03  0.17770000000E+01 0.  1.
</event>
<event>
 7    1  0.4133533E-006  0.5117857E+03  0.7546771E-02  0.9373818E-01
        -11   -1    0    0    0    0  0.00000000000E+00  0.00000000000E+00  0.50000000000E+03  0.50000000000E+03  0.00000000000E+00 0.  1.
         11   -1    0    0    0    0 -0.00000000000E+00 -0.00000000000E+00 -0.50000000000E+03  0.50000000000E+03  0.00000000000E+00 0. -1.
         23    2    1    2    0    0 -0.57153618588E+02  0.84176683605E+02 -0.37381780619E+03  0.39794204983E+03  0.90916844501E+02 0.  0.
        -11    1    1    2    0    0  0.20547483501E+02 -0.78304147018E+02  0.48145555246E+03  0.48821428442E+03  0.00000000000E+00 0.  1.
         11    1    1    2    0    0  0.36606135087E+02 -0.58725365869E+01 -0.10763774626E+03  0.11384366575E+03  0.00000000000E+00 0. -1.
        -15    1    3    3    0    0  0.28219999395E+01  0.70141138581E+02 -0.14712974436E+03  0.16302779643E+03  0.17770000000E+01 0.  1.
         15    1    3    3    0    0 -0.59975618528E+02  0.14035545024E+02 -0.22668806184E+03  0.23491425340E+03  0.17770000000E+01 0. -1.
</event>
<event>
 7    1  0.4133533E-006  0.3940174E+03  0.7546771E-02  0.9674244E-01
        -11   -1    0    0    0    0  0.00000000000E+00  0.00000000000E+00  0.50000000000E+03  0.50000000000E+03  0.00000000000E+00 0.  1.
         11   -1    0    0    0    0 -0.00000000000E+00 -0.00000000000E+00 -0.50000000000E+03  0.50000000000E+03  0.00000000000E+00 0.  1.
         23    2    1    2    0    0 -0.12655960782E+03  0.18173370402E+03 -0.25959177436E+03  0.35295369771E+03  0.90243835836E+02 0.  0.
        -11    1    1    2    0    0  0.30428630984E+03 -0.25392236061E+03  0.21176863351E+03  0.44934694581E+03  0.00000000000E+00 0.  1.
         11    1    1    2    0    0 -0.17772670202E+03  0.72188656589E+02  0.47823140850E+02  0.19769935648E+03  0.00000000000E+00 0.  1.
        -15    1    3    3    0    0 -0.12453138343E+03  0.19178122848E+03 -0.24654916487E+03  0.33627035773E+03  0.17770000000E+01 0.  1.
         15    1    3    3    0    0 -0.20282243904E+01 -0.10047524460E+02 -0.13042609484E+02  0.16683339986E+02  0.17770000000E+01 0. -1.
</event>
<event>
 7    1  0.4133533E-006  0.5168169E+03  0.7546771E-02  0.9362947E-01
        -11   -1    0    0    0    0  0.00000000000E+00  0.00000000000E+00  0.50000000000E+03  0.50000000000E+03  0.00000000000E+00 0.  1.
         11   -1    0    0    0    0 -0.00000000000E+00 -0.00000000000E+00 -0.50000000000E+03  0.50000000000E+03  0.00000000000E+00 0. -1.
         23    2    1    2    0    0 -0.36907023815E+02  0.51938652939E+02 -0.34479421760E+03  0.36214837964E+03  0.90601569003E+02 0.  0.
        -11    1    1    2    0    0 -0.38246449465E+02 -0.99835604380E+02  0.47120695585E+03  0.48318312682E+03  0.00000000000E+00 0.  1.
         11    1    1    2    0    0  0.75153473280E+02  0.47896951441E+02 -0.12641273825E+03  0.15466849354E+03  0.00000000000E+00 0. -1.
        -15    1    3    3    0    0 -0.52708500605E+02  0.69366701841E+02 -0.26768136210E+03  0.28150736173E+03  0.17770000000E+01 0. -1.
         15    1    3    3    0    0  0.15801476790E+02 -0.17428048902E+02 -0.77112855502E+02  0.80641017912E+02  0.17770000000E+01 0.  1.
</event>
<event>
 7    1  0.4133533E-006  0.5127528E+03  0.7546771E-02  0.9371718E-01
        -11   -1    0    0    0    0  0.00000000000E+00  0.00000000000E+00  0.50000000000E+03  0.50000000000E+03  0.00000000000E+00 0. -1.
         11   -1    0    0    0    0 -0.00000000000E+00 -0.00000000000E+00 -0.50000000000E+03  0.50000000000E+03  0.00000000000E+00 0.  1.
         23    2    1    2    0    0 -0.89109848356E+02 -0.25294758625E+02 -0.22571405842E+03  0.26045395073E+03  0.91153904977E+02 0.  0.
        -11    1    1    2    0    0  0.25838831546E+03  0.18570822929E+02  0.41267474000E+03  0.48724720426E+03  0.00000000000E+00 0. -1.
         11    1    1    2    0    0 -0.16927846711E+03  0.67239356966E+01 -0.18696068157E+03  0.25229884501E+03  0.00000000000E+00 0.  1.
        -15    1    3    3    0    0 -0.50801521062E+02 -0.51325353015E+02 -0.81163641690E+02  0.10865441024E+03  0.17770000000E+01 0.  1.
         15    1    3    3    0    0 -0.38308327294E+02  0.26030594390E+02 -0.14455041673E+03  0.15179954048E+03  0.17770000000E+01 0. -1.
</event>
<event>
 7    1  0.4133533E-006  0.5029198E+03  0.7546771E-02  0.9393300E-01
        -11   -1    0    0    0    0  0.00000000000E+00  0.00000000000E+00  0.50000000000E+03  0.50000000000E+03  0.00000000000E+00 0.  1.
         11   -1    0    0    0    0 -0.00000000000E+00 -0.00000000000E+00 -0.50000000000E+03  0.50000000000E+03  0.00000000000E+00 0.  1.
         23    2    1    2    0    0 -0.76124362885E+02 -0.15064451538E+02 -0.48641669196E+03  0.50291975312E+03  0.10151464689E+03 0.  0.
        -11    1    1    2    0    0  0.71964576298E+02 -0.97807792353E+01  0.41602710927E+03  0.42231874163E+03  0.00000000000E+00 0.  1.
         11    1    1    2    0    0  0.41597865866E+01  0.24845230773E+02  0.70389582690E+02  0.74761505254E+02  0.00000000000E+00 0.  1.
        -15    1    3    3    0    0 -0.14355040087E+02  0.38837937212E+02 -0.10706088085E+03  0.11480262401E+03  0.17770000000E+01 0. -1.
         15    1    3    3    0    0 -0.61769322798E+02 -0.53902388750E+02 -0.37935581111E+03  0.38811712910E+03  0.17770000000E+01 0.  1.
</event>
<event>
 7    1  0.4133533E-006  0.5211304E+03  0.7546771E-02  0.9353732E-01
        -11   -1    0    0    0    0  0.00000000000E+00  0.00000000000E+00  0.50000000000E+03  0.50000000000E+03  0.00000000000E+00 0.  1.
         11   -1    0    0    0    0 -0.00000000000E+00 -0.00000000000E+00 -0.50000000000E+03  0.50000000000E+03  0.00000000000E+00 0. -1.
         23    2    1    2    0    0 -0.71705950954E+02  0.66136984494E+02 -0.19661957167E+03  0.23723257425E+03  0.90023298096E+02 0.  0.
        -11    1    1    2    0    0  0.78429946457E+02  0.91952454269E+00  0.47240239852E+03  0.47886963586E+03  0.00000000000E+00 0.  1.
         11    1    1    2    0    0 -0.67239955038E+01 -0.67056509037E+02 -0.27578282685E+03  0.28389778989E+03  0.00000000000E+00 0. -1.
        -15    1    3    3    0    0 -0.57243368730E+02  0.13536261204E+02 -0.16258834499E+03  0.17291084779E+03  0.17770000000E+01 0.  1.
         15    1    3    3    0    0 -0.14462582224E+02  0.52600723290E+02 -0.34031226685E+02  0.64321726453E+02  0.17770000000E+01 0. -1.
</event>
<event>
 7    1  0.4133533E-006  0.5217329E+03  0.7546771E-02  0.9352452E-01
        -11   -1    0    0    0    0  0.00000000000E+00  0.00000000000E+00  0.50000000000E+03  0.50000000000E+03  0.00000000000E+00 0. -1.
         11   -1    0    0    0    0 -0.00000000000E+00 -0.00000000000E+00 -0.50000000000E+03  0.50000000000E+03  0.00000000000E+00 0. -1.
         23    2    1    2    0    0  0.14121074768E+02  0.51915700270E+02 -0.17009544484E+03  0.19664262256E+03  0.82711643463E+02 0.  0.
        -11    1    1    2    0    0  0.39523088391E+02 -0.30649834420E+03  0.36501516352E+03  0.47826705836E+03  0.00000000000E+00 0. -1.
         11    1    1    2    0    0 -0.53644163158E+02  0.25458264393E+03 -0.19491971868E+03  0.32509031908E+03  0.00000000000E+00 0. -1.
        -15    1    3    3    0    0  0.33611428787E+02  0.65240016904E+02 -0.11207629439E+03  0.13397851113E+03  0.17770000000E+01 0. -1.
         15    1    3    3    0    0 -0.19490354020E+02 -0.13324316634E+02 -0.58019150445E+02  0.62664111427E+02  0.17770000000E+01 0.  1.
</event>
<event>
 7    1  0.4133533E-006  0.4622965E+03  0.7546771E-02  0.9488366E-01
        -11   -1    0    0    0    0  0.00000000000E+00  0.00000000000E+00  0.50000000000E+03  0.50000000000E+03  0.00000000000E+00 0.  1.
         11   -1    0    0    0    0 -0.00000000000E+00 -0.00000000000E+00 -0.50000000000E+03  0.50000000000E+03  0.00000000000E+00 0. -1.
         23    2    1    2    0    0 -0.55199988413E+02 -0.11931969416E+03 -0.41889471988E+03  0.44823789045E+03  0.90333780780E+02 0.  0.
        -11    1    1    2    0    0  0.93102228788E+02  0.59577853424E+02  0.45784486588E+03  0.47099837244E+03  0.00000000000E+00 0.  1.
         11    1    1    2    0    0 -0.37902240375E+02  0.59741840737E+02 -0.38950145995E+02  0.80763737118E+02  0.00000000000E+00 0. -1.
        -15    1    3    3    0    0 -0.23866807088E+02 -0.73673563311E+02 -0.35642501289E+03  0.36474561814E+03  0.17770000000E+01 0.  1.
         15    1    3    3    0    0 -0.31333181325E+02 -0.45646130851E+02 -0.62469706993E+02  0.83492272303E+02  0.17770000000E+01 0. -1.
</event>
<event>
 7    1  0.4133533E-006  0.5089884E+03  0.7546771E-02  0.9379919E-01
        -11   -1    0    0    0    0  0.00000000000E+00  0.00000000000E+00  0.50000000000E+03  0.50000000000E+03  0.00000000000E+00 0.  1.
         11   -1    0    0    0    0 -0.00000000000E+00 -0.00000000000E+00 -0.50000000000E+03  0.50000000000E+03  0.00000000000E+00 0. -1.
         23    2    1    2    0    0 -0.11620039523E+03  0.11486045065E+02  0.25691425404E+03  0.29753483808E+03  0.94273988231E+02 0.  0.
        -11    1    1    2    0    0 -0.92580987708E+02  0.51412459181E+02  0.18302494523E+03  0.21145356658E+03  0.00000000000E+00 0.  1.
         11    1    1    2    0    0  0.20878138294E+03 -0.62898504246E+02 -0.43993919927E+03  0.49101159534E+03  0.00000000000E+00 0. -1.
        -15    1    3    3    0    0 -0.79596106008E+02  0.34950977189E+02  0.90402408997E+02  0.12543071466E+03  0.17770000000E+01 0. -1.
         15    1    3    3    0    0 -0.36604289226E+02 -0.23464932124E+02  0.16651184504E+03  0.17210412342E+03  0.17770000000E+01 0.  1.
</event>
<event>
 7    1  0.4133533E-006  0.5305733E+03  0.7546771E-02  0.9333884E-01
        -11   -1    0    0    0    0  0.00000000000E+00  0.00000000000E+00  0.50000000000E+03  0.50000000000E+03  0.00000000000E+00 0.  1.
         11   -1    0    0    0    0 -0.00000000000E+00 -0.00000000000E+00 -0.50000000000E+03  0.50000000000E+03  0.00000000000E+00 0. -1.
         23    2    1    2    0    0 -0.92316768766E+02 -0.27475987381E+01 -0.14562291506E+03  0.19607657683E+03  0.93327678073E+02 0.  0.
        -11    1    1    2    0    0  0.85709458930E+02  0.19894521596E+03  0.41645662049E+03  0.46942670041E+03  0.00000000000E+00 0.  1.
         11    1    1    2    0    0  0.66073098361E+01 -0.19619761722E+03 -0.27083370543E+03  0.33449672277E+03  0.00000000000E+00 0. -1.
        -15    1    3    3    0    0 -0.55005969138E+02 -0.29670081908E+02 -0.13506931573E+03  0.14883832901E+03  0.17770000000E+01 0.  1.
         15    1    3    3    0    0 -0.37310799629E+02  0.26922483170E+02 -0.10553599331E+02  0.47238247817E+02  0.17770000000E+01 0. -1.
</event>
<event>
 7    1  0.4133533E-006  0.5139168E+03  0.7546771E-02  0.9369197E-01
        -11   -1    0    0    0    0  0.00000000000E+00  0.00000000000E+00  0.50000000000E+03  0.50000000000E+03  0.00000000000E+00 0.  1.
         11   -1    0    0    0    0 -0.00000000000E+00 -0.00000000000E+00 -0.50000000000E+03  0.50000000000E+03  0.00000000000E+00 0. -1.
         23    2    1    2    0    0  0.10855604862E+03  0.20803593276E+02 -0.31731135773E+03  0.34824790121E+03  0.91503539643E+02 0.  0.
        -11    1    1    2    0    0 -0.10458317660E+03 -0.95958464857E+02  0.46489912664E+03  0.48608318811E+03  0.00000000000E+00 0.  1.
         11    1    1    2    0    0 -0.39728720181E+01  0.75154871581E+02 -0.14758776891E+03  0.16566891068E+03  0.00000000000E+00 0. -1.
        -15    1    3    3    0    0  0.63508624543E+02  0.50526753412E+02 -0.12959663807E+03  0.15292071322E+03  0.17770000000E+01 0.  1.
         15    1    3    3    0    0  0.45047424073E+02 -0.29723160136E+02 -0.18771471966E+03  0.19532718799E+03  0.17770000000E+01 0. -1.
</event>
<event>
 7    1  0.4133533E-006  0.3606222E+03  0.7546771E-02  0.9780486E-01
        -11   -1    0    0    0    0  0.00000000000E+00  0.00000000000E+00  0.50000000000E+03  0.50000000000E+03  0.00000000000E+00 0.  1.
         11   -1    0    0    0    0 -0.00000000000E+00 -0.00000000000E+00 -0.50000000000E+03  0.50000000000E+03  0.00000000000E+00 0.  1.
         23    2    1    2    0    0  0.10489118534E+02 -0.12158710397E+03 -0.19057969854E+03  0.24408489008E+03  0.91451444017E+02 0.  0.
        -11    1    1    2    0    0  0.77405899512E+02 -0.97551371495E+02  0.41310680672E+03  0.43146862820E+03  0.00000000000E+00 0.  1.
         11    1    1    2    0    0 -0.87895018046E+02  0.21913847546E+03 -0.22252710818E+03  0.32444648172E+03  0.00000000000E+00 0.  1.
        -15    1    3    3    0    0  0.50068950002E+02 -0.56826803677E+02 -0.82513856411E+02  0.11201731830E+03  0.17770000000E+01 0.  1.
         15    1    3    3    0    0 -0.39579831467E+02 -0.64760300290E+02 -0.10806584213E+03  0.13206757178E+03  0.17770000000E+01 0. -1.
</event>
<event>
 7    1  0.4133533E-006  0.5227913E+03  0.7546771E-02  0.9350208E-01
        -11   -1    0    0    0    0  0.00000000000E+00  0.00000000000E+00  0.50000000000E+03  0.50000000000E+03  0.00000000000E+00 0.  1.
         11   -1    0    0    0    0 -0.00000000000E+00 -0.00000000000E+00 -0.50000000000E+03  0.50000000000E+03  0.00000000000E+00 0. -1.
         23    2    1    2    0    0  0.69219017504E+02  0.75005512634E+02 -0.26352836701E+03  0.29747740462E+03  0.92889755792E+02 0.  0.
        -11    1    1    2    0    0 -0.15369838212E+03  0.16092723637E+02  0.45149302264E+03  0.47720867334E+03  0.00000000000E+00 0.  1.
         11    1    1    2    0    0  0.84479364612E+02 -0.91098236271E+02 -0.18796465564E+03  0.22531392204E+03  0.00000000000E+00 0. -1.
        -15    1    3    3    0    0  0.77352577285E+02  0.91248960667E+02 -0.23262402628E+03  0.26158533859E+03  0.17770000000E+01 0.  1.
         15    1    3    3    0    0 -0.81335597813E+01 -0.16243448033E+02 -0.30904340726E+02  0.35892066023E+02  0.17770000000E+01 0. -1.
</event>
<event>
 6    1  0.4133533E-006  0.3583945E+03  0.7546771E-02  0.9788009E-01
        -11   -1    0    0    0    0  0.00000000000E+00  0.00000000000E+00  0.50000000000E+03  0.50000000000E+03  0.00000000000E+00 0.  1.
         11   -1    0    0    0    0 -0.00000000000E+00 -0.00000000000E+00 -0.50000000000E+03  0.50000000000E+03  0.00000000000E+00 0.  1.
        -11    1    1    2    0    0  0.97876405570E+02  0.12607832034E+03  0.36242431526E+03  0.39601378501E+03  0.00000000000E+00 0.  1.
         11    1    1    2    0    0 -0.66490375906E+02  0.79046143725E+02 -0.33515058207E+03  0.35070668028E+03  0.00000000000E+00 0.  1.
        -15    1    1    2    0    0 -0.15461535389E+02 -0.13989173489E+03 -0.85241007481E+02  0.16455377131E+03  0.17770000000E+01 0. -1.
         15    1    1    2    0    0 -0.15924494276E+02 -0.65232729171E+02  0.57967274300E+02  0.88725763405E+02  0.17770000000E+01 0.  1.
</event>
<event>
 6    1  0.4133533E-006  0.5406775E+03  0.7546771E-02  0.9313125E-01
        -11   -1    0    0    0    0  0.00000000000E+00  0.00000000000E+00  0.50000000000E+03  0.50000000000E+03  0.00000000000E+00 0.  1.
         11   -1    0    0    0    0 -0.00000000000E+00 -0.00000000000E+00 -0.50000000000E+03  0.50000000000E+03  0.00000000000E+00 0.  1.
        -11    1    1    2    0    0  0.61460650670E+02  0.62385963763E+02  0.36561181903E+03  0.37595401616E+03  0.00000000000E+00 0.  1.
         11    1    1    2    0    0 -0.90872617737E+02 -0.77299135127E+02 -0.44355849754E+03  0.45932246808E+03  0.00000000000E+00 0.  1.
        -15    1    1    2    0    0 -0.34785242179E+02  0.24514601237E+02  0.89174679422E+02  0.98824389329E+02  0.17770000000E+01 0.  1.
         15    1    1    2    0    0  0.64197209246E+02 -0.96014298731E+01 -0.11228000912E+02  0.65899126429E+02  0.17770000000E+01 0. -1.
</event>
<event>
 7    1  0.4133533E-006  0.5198196E+03  0.7546771E-02  0.9356522E-01
        -11   -1    0    0    0    0  0.00000000000E+00  0.00000000000E+00  0.50000000000E+03  0.50000000000E+03  0.00000000000E+00 0.  1.
         11   -1    0    0    0    0 -0.00000000000E+00 -0.00000000000E+00 -0.50000000000E+03  0.50000000000E+03  0.00000000000E+00 0.  1.
         23    2    1    2    0    0  0.13316342167E+03 -0.11966117041E+03  0.29371586178E+03  0.35107004785E+03  0.70213093218E+02 0.  0.
        -11    1    1    2    0    0 -0.42077326205E+02  0.41138789285E+01  0.16336765956E+03  0.16874957058E+03  0.00000000000E+00 0.  1.
         11    1    1    2    0    0 -0.91086095463E+02  0.11554729149E+03 -0.45708352135E+03  0.48018038157E+03  0.00000000000E+00 0.  1.
        -15    1    3    3    0    0  0.18614282769E+02 -0.21433447121E+02  0.10846412995E+03  0.11213166097E+03  0.17770000000E+01 0. -1.
         15    1    3    3    0    0  0.11454913890E+03 -0.98227723294E+02  0.18525173184E+03  0.23893838688E+03  0.17770000000E+01 0.  1.
</event>
<event>
 7    1  0.4133533E-006  0.5378619E+03  0.7546771E-02  0.9318861E-01
        -11   -1    0    0    0    0  0.00000000000E+00  0.00000000000E+00  0.50000000000E+03  0.50000000000E+03  0.00000000000E+00 0.  1.
         11   -1    0    0    0    0 -0.00000000000E+00 -0.00000000000E+00 -0.50000000000E+03  0.50000000000E+03  0.00000000000E+00 0. -1.
         23    2    1    2    0    0  0.10271472411E+03  0.17397146836E+03  0.22669448552E+03  0.31988000798E+03  0.10058053184E+03 0.  0.
        -11    1    1    2    0    0 -0.10398475360E+02 -0.55845219291E+02  0.21045022865E+03  0.21798191564E+03  0.00000000000E+00 0.  1.
         11    1    1    2    0    0 -0.92316248747E+02 -0.11812624907E+03 -0.43714471418E+03  0.46213807638E+03  0.00000000000E+00 0. -1.
        -15    1    3    3    0    0  0.24313416020E+02  0.18427340091E+02  0.99779676228E+02  0.10435444686E+03  0.17770000000E+01 0.  1.
         15    1    3    3    0    0  0.78401308088E+02  0.15554412827E+03  0.12691480930E+03  0.21552556112E+03  0.17770000000E+01 0. -1.
</event>
<event>
 7    1  0.4133533E-006  0.4444883E+03  0.7546771E-02  0.9533379E-01
        -11   -1    0    0    0    0  0.00000000000E+00  0.00000000000E+00  0.50000000000E+03  0.50000000000E+03  0.00000000000E+00 0. -1.
         11   -1    0    0    0    0 -0.00000000000E+00 -0.00000000000E+00 -0.50000000000E+03  0.50000000000E+03  0.00000000000E+00 0. -1.
         23    2    1    2    0    0 -0.11765103648E+03 -0.16277614493E+03 -0.38518468511E+03  0.44418067425E+03  0.92689751300E+02 0.  0.
        -11    1    1    2    0    0  0.13877408271E+02  0.13424453193E+03  0.42122765475E+03  0.44231992261E+03  0.00000000000E+00 0. -1.
         11    1    1    2    0    0  0.10377362821E+03  0.28531613001E+02 -0.36042969642E+02  0.11349940313E+03  0.00000000000E+00 0. -1.
        -15    1    3    3    0    0 -0.68812850818E+02 -0.52745930333E+02 -0.88068467677E+02  0.12359835894E+03  0.17770000000E+01 0.  1.
         15    1    3    3    0    0 -0.48838185658E+02 -0.11003021460E+03 -0.29711621743E+03  0.32058231531E+03  0.17770000000E+01 0. -1.
</event>
<event>
 7    1  0.4133533E-006  0.4023852E+03  0.7546771E-02  0.9649379E-01
        -11   -1    0    0    0    0  0.00000000000E+00  0.00000000000E+00  0.50000000000E+03  0.50000000000E+03  0.00000000000E+00 0. -1.
         11   -1    0    0    0    0 -0.00000000000E+00 -0.00000000000E+00 -0.50000000000E+03  0.50000000000E+03  0.00000000000E+00 0.  1.
         23    2    1    2    0    0  0.17174336064E+03  0.64549730426E+02  0.34019907276E+03  0.39697754091E+03  0.90516900391E+02 0.  0.
        -11    1    1    2    0    0 -0.14479351550E+03  0.10666549622E+03  0.40836427218E+02  0.18441882768E+03  0.00000000000E+00 0. -1.
         11    1    1    2    0    0 -0.26949845136E+02 -0.17121522665E+03 -0.38103549998E+03  0.41860363141E+03  0.00000000000E+00 0.  1.
        -15    1    3    3    0    0  0.13360534198E+03  0.55255906676E+01  0.20875058152E+03  0.24791305446E+03  0.17770000000E+01 0. -1.
         15    1    3    3    0    0  0.38138018658E+02  0.59024139758E+02  0.13144849124E+03  0.14906448645E+03  0.17770000000E+01 0.  1.
</event>
<event>
 7    1  0.4133533E-006  0.4090185E+03  0.7546771E-02  0.9630123E-01
        -11   -1    0    0    0    0  0.00000000000E+00  0.00000000000E+00  0.50000000000E+03  0.50000000000E+03  0.00000000000E+00 0.  1.
         11   -1    0    0    0    0 -0.00000000000E+00 -0.00000000000E+00 -0.50000000000E+03  0.50000000000E+03  0.00000000000E+00 0. -1.
         23    2    1    2    0    0 -0.73531799721E+02  0.16446966260E+03 -0.34745314600E+03  0.40152575795E+03  0.89677478462E+02 0.  0.
        -11    1    1    2    0    0 -0.81022481476E+02 -0.10838380564E+03  0.40285485156E+03  0.42497496780E+03  0.00000000000E+00 0.  1.
         11    1    1    2    0    0  0.15455428120E+03 -0.56085856959E+02 -0.55401705559E+02  0.17349927425E+03  0.00000000000E+00 0. -1.
        -15    1    3    3    0    0 -0.90431114876E+02  0.15891572009E+03 -0.32399460701E+03  0.37203179397E+03  0.17770000000E+01 0. -1.
         15    1    3    3    0    0  0.16899315155E+02  0.55539425108E+01 -0.23458538996E+02  0.29493963975E+02  0.17770000000E+01 0.  1.
</event>
<event>
 7    1  0.4133533E-006  0.4953625E+03  0.7546771E-02  0.9410247E-01
        -11   -1    0    0    0    0  0.00000000000E+00  0.00000000000E+00  0.50000000000E+03  0.50000000000E+03  0.00000000000E+00 0. -1.
         11   -1    0    0    0    0 -0.00000000000E+00 -0.00000000000E+00 -0.50000000000E+03  0.50000000000E+03  0.00000000000E+00 0.  1.
         23    2    1    2    0    0  0.56544084456E+02  0.61869581393E+02 -0.48342822716E+03  0.49908043345E+03  0.91396661033E+02 0.  0.
        -11    1    1    2    0    0 -0.64276343920E+02 -0.47565242229E+02  0.47663724275E+03  0.48329800520E+03  0.00000000000E+00 0. -1.
         11    1    1    2    0    0  0.77322594641E+01 -0.14304339164E+02  0.67909844079E+01  0.17621561355E+02  0.00000000000E+00 0.  1.
        -15    1    3    3    0    0  0.10438782967E+01  0.65860014544E+02 -0.31038935585E+03  0.31730638372E+03  0.17770000000E+01 0.  1.
         15    1    3    3    0    0  0.55500206159E+02 -0.39904331514E+01 -0.17303887131E+03  0.18177404972E+03  0.17770000000E+01 0. -1.
</event>
<event>
 7    1  0.4133533E-006  0.4167832E+03  0.7546771E-02  0.9608072E-01
        -11   -1    0    0    0    0  0.00000000000E+00  0.00000000000E+00  0.50000000000E+03  0.50000000000E+03  0.00000000000E+00 0. -1.
         11   -1    0    0    0    0 -0.00000000000E+00 -0.00000000000E+00 -0.50000000000E+03  0.50000000000E+03  0.00000000000E+00 0.  1.
         23    2    1    2    0    0  0.13960173652E+02 -0.29762891073E+02 -0.12862991121E+03  0.15592703250E+03  0.81773279701E+02 0.  0.
        -11    1    1    2    0    0  0.33821933771E+03  0.14243832809E+03  0.26208134157E+03  0.45096299994E+03  0.00000000000E+00 0. -1.
         11    1    1    2    0    0 -0.35217951136E+03 -0.11267543702E+03 -0.13345143037E+03  0.39310996757E+03  0.00000000000E+00 0.  1.
        -15    1    3    3    0    0  0.38209537900E+02 -0.34141795993E+02 -0.43353517449E+02  0.67143996190E+02  0.17770000000E+01 0.  1.
         15    1    3    3    0    0 -0.24249364248E+02  0.43789049196E+01 -0.85276393756E+02  0.88783036307E+02  0.17770000000E+01 0. -1.
</event>
<event>
 7    1  0.4133533E-006  0.4099152E+03  0.7546771E-02  0.9627550E-01
        -11   -1    0    0    0    0  0.00000000000E+00  0.00000000000E+00  0.50000000000E+03  0.50000000000E+03  0.00000000000E+00 0.  1.
         11   -1    0    0    0    0 -0.00000000000E+00 -0.00000000000E+00 -0.50000000000E+03  0.50000000000E+03  0.00000000000E+00 0.  1.
         23    2    1    2    0    0 -0.17554892816E+03 -0.19077165977E+03 -0.37789674029E+03  0.46704548540E+03  0.90079335922E+02 0.  0.
        -11    1    1    2    0    0  0.79532529642E+02  0.51050987371E+02  0.34825537338E+03  0.36085098264E+03  0.00000000000E+00 0.  1.
         11    1    1    2    0    0  0.96016398516E+02  0.13972067240E+03  0.29641366913E+02  0.17210353196E+03  0.00000000000E+00 0.  1.
        -15    1    3    3    0    0 -0.85890167357E+02 -0.33010446416E+02 -0.10918893261E+03  0.14280122953E+03  0.17770000000E+01 0.  1.
         15    1    3    3    0    0 -0.89658760801E+02 -0.15776121336E+03 -0.26870780768E+03  0.32424425588E+03  0.17770000000E+01 0. -1.
</event>
<event>
 7    1  0.4133533E-006  0.5172863E+03  0.7546771E-02  0.9361940E-01
        -11   -1    0    0    0    0  0.00000000000E+00  0.00000000000E+00  0.50000000000E+03  0.50000000000E+03  0.00000000000E+00 0. -1.
         11   -1    0    0    0    0 -0.00000000000E+00 -0.00000000000E+00 -0.50000000000E+03  0.50000000000E+03  0.00000000000E+00 0.  1.
         23    2    1    2    0    0 -0.11272854325E+03 -0.12243471794E+02 -0.40213129793E+03  0.42732923273E+03  0.89683138379E+02 0.  0.
        -11    1    1    2    0    0  0.81319225447E+02  0.59235695556E+02  0.47211315335E+03  0.48271369736E+03  0.00000000000E+00 0. -1.
         11    1    1    2    0    0  0.31409317798E+02 -0.46992223762E+02 -0.69981855420E+02  0.89957069909E+02  0.00000000000E+00 0.  1.
        -15    1    3    3    0    0 -0.12694089280E+03 -0.66718349259E+01 -0.33139545086E+03  0.35494310280E+03  0.17770000000E+01 0.  1.
         15    1    3    3    0    0  0.14212349550E+02 -0.55716368684E+01 -0.70735847066E+02  0.72386129930E+02  0.17770000000E+01 0. -1.
</event>
<event>
 6    1  0.4133533E-006  0.5509498E+03  0.7546771E-02  0.9292509E-01
        -11   -1    0    0    0    0  0.00000000000E+00  0.00000000000E+00  0.50000000000E+03  0.50000000000E+03  0.00000000000E+00 0.  1.
         11   -1    0    0    0    0 -0.00000000000E+00 -0.00000000000E+00 -0.50000000000E+03  0.50000000000E+03  0.00000000000E+00 0. -1.
        -11    1    1    2    0    0 -0.11883155460E+02 -0.58765941817E+02  0.30464686573E+03  0.31049051210E+03  0.00000000000E+00 0.  1.
         11    1    1    2    0    0 -0.64352365202E+02  0.21123497656E+03 -0.39100469014E+03  0.44905023098E+03  0.00000000000E+00 0. -1.
        -15    1    1    2    0    0  0.44738264977E+02 -0.13120981061E+03 -0.78497680740E+01  0.13886073361E+03  0.17770000000E+01 0.  1.
         15    1    1    2    0    0  0.31497255684E+02 -0.21259224143E+02  0.94207592487E+02  0.10159852331E+03  0.17770000000E+01 0. -1.
</event>
<event>
 7    1  0.4133533E-006  0.5211731E+03  0.7546771E-02  0.9353641E-01
        -11   -1    0    0    0    0  0.00000000000E+00  0.00000000000E+00  0.50000000000E+03  0.50000000000E+03  0.00000000000E+00 0. -1.
         11   -1    0    0    0    0 -0.00000000000E+00 -0.00000000000E+00 -0.50000000000E+03  0.50000000000E+03  0.00000000000E+00 0.  1.
         23    2    1    2    0    0 -0.10736523192E+03 -0.14796723523E+02  0.10846336301E+03  0.17862295611E+03  0.91627633827E+02 0.  0.
        -11    1    1    2    0    0 -0.10388870043E+03 -0.16358238605E+03  0.28246867287E+03  0.34255015728E+03  0.00000000000E+00 0. -1.
         11    1    1    2    0    0  0.21125393235E+03  0.17837910957E+03 -0.39093203588E+03  0.47882688661E+03  0.00000000000E+00 0.  1.
        -15    1    3    3    0    0 -0.62376538460E+02  0.75283574444E+01  0.43372838010E+01  0.63003797313E+02  0.17770000000E+01 0. -1.
         15    1    3    3    0    0 -0.44988693456E+02 -0.22325080967E+02  0.10412607921E+03  0.11561915879E+03  0.17770000000E+01 0.  1.
</event>
<event>
 7    1  0.4133533E-006  0.4148714E+03  0.7546771E-02  0.9613453E-01
        -11   -1    0    0    0    0  0.00000000000E+00  0.00000000000E+00  0.50000000000E+03  0.50000000000E+03  0.00000000000E+00 0.  1.
         11   -1    0    0    0    0 -0.00000000000E+00 -0.00000000000E+00 -0.50000000000E+03  0.50000000000E+03  0.00000000000E+00 0. -1.
         23    2    1    2    0    0 -0.11426856672E+03  0.44481348167E+02  0.50580166968E+02  0.15972189190E+03  0.88976591226E+02 0.  0.
        -11    1    1    2    0    0 -0.80848217751E+02 -0.15406721830E+03  0.34465661465E+03  0.38608460743E+03  0.00000000000E+00 0.  1.
         11    1    1    2    0    0  0.19511678447E+03  0.10958587014E+03 -0.39523678162E+03  0.45419350068E+03  0.00000000000E+00 0. -1.
        -15    1    3    3    0    0 -0.11075888408E+03  0.66424402808E+02  0.44525513765E+02  0.13662141412E+03  0.17770000000E+01 0.  1.
         15    1    3    3    0    0 -0.35096826402E+01 -0.21943054641E+02  0.60546532031E+01  0.23100477779E+02  0.17770000000E+01 0. -1.
</event>
<event>
 7    1  0.4133533E-006  0.4601436E+03  0.7546771E-02  0.9493692E-01
        -11   -1    0    0    0    0  0.00000000000E+00  0.00000000000E+00  0.50000000000E+03  0.50000000000E+03  0.00000000000E+00 0. -1.
         11   -1    0    0    0    0 -0.00000000000E+00 -0.00000000000E+00 -0.50000000000E+03  0.50000000000E+03  0.00000000000E+00 0. -1.
         23    2    1    2    0    0 -0.62845587062E+02  0.65797135613E+02 -0.41481787718E+03  0.43471271205E+03  0.92857094102E+02 0.  0.
        -11    1    1    2    0    0  0.30899398121E+02 -0.12974177574E+03  0.46118676388E+03  0.48008429714E+03  0.00000000000E+00 0. -1.
         11    1    1    2    0    0  0.31946188941E+02  0.63944640130E+02 -0.46368886705E+02  0.85202990813E+02  0.00000000000E+00 0. -1.
        -15    1    3    3    0    0 -0.66197599666E+02  0.17309190468E+02 -0.14250181864E+03  0.15808749578E+03  0.17770000000E+01 0.  1.
         15    1    3    3    0    0  0.33520126039E+01  0.48487945145E+02 -0.27231605854E+03  0.27662521627E+03  0.17770000000E+01 0. -1.
</event>
<event>
 7    1  0.4133533E-006  0.3952011E+03  0.7546771E-02  0.9670687E-01
        -11   -1    0    0    0    0  0.00000000000E+00  0.00000000000E+00  0.50000000000E+03  0.50000000000E+03  0.00000000000E+00 0.  1.
         11   -1    0    0    0    0 -0.00000000000E+00 -0.00000000000E+00 -0.50000000000E+03  0.50000000000E+03  0.00000000000E+00 0.  1.
         23    2    1    2    0    0  0.38803145686E+02  0.13882674657E+03 -0.87712314024E+02  0.19178739620E+03  0.91161426217E+02 0.  0.
        -11    1    1    2    0    0  0.43816747226E+02 -0.70007977805E+02  0.43597464188E+03  0.44372842219E+03  0.00000000000E+00 0.  1.
         11    1    1    2    0    0 -0.82619892911E+02 -0.68818768769E+02 -0.34826232786E+03  0.36448418161E+03  0.00000000000E+00 0.  1.
        -15    1    3    3    0    0  0.17162545127E+01  0.13198819419E+03 -0.75662289659E+02  0.15215705288E+03  0.17770000000E+01 0. -1.
         15    1    3    3    0    0  0.37086891173E+02  0.68385523851E+01 -0.12050024365E+02  0.39630343322E+02  0.17770000000E+01 0.  1.
</event>
<event>
 7    1  0.4133533E-006  0.5215078E+03  0.7546771E-02  0.9352930E-01
        -11   -1    0    0    0    0  0.00000000000E+00  0.00000000000E+00  0.50000000000E+03  0.50000000000E+03  0.00000000000E+00 0.  1.
         11   -1    0    0    0    0 -0.00000000000E+00 -0.00000000000E+00 -0.50000000000E+03  0.50000000000E+03  0.00000000000E+00 0. -1.
         23    2    1    2    0    0 -0.16530491203E+02 -0.88417824834E+02  0.12409685498E+03  0.17709582049E+03  0.88723905078E+02 0.  0.
        -11    1    1    2    0    0  0.10633025240E+03 -0.28548257711E+03  0.16066488907E+03  0.34441200761E+03  0.00000000000E+00 0.  1.
         11    1    1    2    0    0 -0.89799761194E+02  0.37390040195E+03 -0.28476174405E+03  0.47849217189E+03  0.00000000000E+00 0. -1.
        -15    1    3    3    0    0 -0.42990351556E+02 -0.64564691664E+02  0.11752570286E+03  0.14082690900E+03  0.17770000000E+01 0.  1.
         15    1    3    3    0    0  0.26459860352E+02 -0.23853133170E+02  0.65711521234E+01  0.36268911496E+02  0.17770000000E+01 0. -1.
</event>
<event>
 7    1  0.4133533E-006  0.3739408E+03  0.7546771E-02  0.9736694E-01
        -11   -1    0    0    0    0  0.00000000000E+00  0.00000000000E+00  0.50000000000E+03  0.50000000000E+03  0.00000000000E+00 0. -1.
         11   -1    0    0    0    0 -0.00000000000E+00 -0.00000000000E+00 -0.50000000000E+03  0.50000000000E+03  0.00000000000E+00 0. -1.
         23    2    1    2    0    0 -0.15815140629E+03  0.71079483426E+00 -0.13021309757E+03  0.22456799199E+03  0.91994346059E+02 0.  0.
        -11    1    1    2    0    0  0.86141266360E+02  0.73869802773E+02  0.43705678725E+03  0.45154811572E+03  0.00000000000E+00 0. -1.
         11    1    1    2    0    0  0.72010139926E+02 -0.74580597607E+02 -0.30684368967E+03  0.32388389229E+03  0.00000000000E+00 0. -1.
        -15    1    3    3    0    0 -0.14250788528E+03 -0.28512359615E+02 -0.84655172696E+02  0.16819960765E+03  0.17770000000E+01 0.  1.
         15    1    3    3    0    0 -0.15643521001E+02  0.29223154449E+02 -0.45557924878E+02  0.56368384343E+02  0.17770000000E+01 0. -1.
</event>
<event>
 7    1  0.4133533E-006  0.5182377E+03  0.7546771E-02  0.9359901E-01
        -11   -1    0    0    0    0  0.00000000000E+00  0.00000000000E+00  0.50000000000E+03  0.50000000000E+03  0.00000000000E+00 0.  1.
         11   -1    0    0    0    0 -0.00000000000E+00 -0.00000000000E+00 -0.50000000000E+03  0.50000000000E+03  0.00000000000E+00 0.  1.
         23    2    1    2    0    0 -0.99698292827E+02  0.51374446100E+02 -0.45962165576E+03  0.48176226131E+03  0.90905042100E+02 0.  0.
        -11    1    1    2    0    0  0.93772383557E+02  0.61272143265E+02  0.31818748039E+03  0.33732893166E+03  0.00000000000E+00 0.  1.
         11    1    1    2    0    0  0.59259092703E+01 -0.11264658937E+03  0.14143417537E+03  0.18090880702E+03  0.00000000000E+00 0.  1.
        -15    1    3    3    0    0 -0.92095812507E+02  0.99454953619E+01 -0.22408703621E+03  0.24248445123E+03  0.17770000000E+01 0.  1.
         15    1    3    3    0    0 -0.76024803204E+01  0.41428950738E+02 -0.23553461955E+03  0.23927781009E+03  0.17770000000E+01 0. -1.
</event>
<event>
 7    1  0.4133533E-006  0.4937456E+03  0.7546771E-02  0.9413914E-01
        -11   -1    0    0    0    0  0.00000000000E+00  0.00000000000E+00  0.50000000000E+03  0.50000000000E+03  0.00000000000E+00 0.  1.
         11   -1    0    0    0    0 -0.00000000000E+00 -0.00000000000E+00 -0.50000000000E+03  0.50000000000E+03  0.00000000000E+00 0. -1.
         23    2    1    2    0    0 -0.30451636440E+02  0.24834561947E+03  0.40469860237E+03  0.48475023630E+03  0.92730706681E+02 0.  0.
        -11    1    1    2    0    0  0.88517849448E+01  0.12451100343E+02  0.14507888045E+02  0.21068051927E+02  0.00000000000E+00 0.  1.
         11    1    1    2    0    0  0.21599851495E+02 -0.26079671981E+03 -0.41920649041E+03  0.49418171178E+03  0.00000000000E+00 0. -1.
        -15    1    3    3    0    0 -0.38076975503E+02  0.10120811610E+03  0.10473195349E+03  0.15054859229E+03  0.17770000000E+01 0. -1.
         15    1    3    3    0    0  0.76253390624E+01  0.14713750337E+03  0.29996664888E+03  0.33420164401E+03  0.17770000000E+01 0.  1.
</event>
<event>
 7    1  0.4133533E-006  0.5324040E+03  0.7546771E-02  0.9330087E-01
        -11   -1    0    0    0    0  0.00000000000E+00  0.00000000000E+00  0.50000000000E+03  0.50000000000E+03  0.00000000000E+00 0. -1.
         11   -1    0    0    0    0 -0.00000000000E+00 -0.00000000000E+00 -0.50000000000E+03  0.50000000000E+03  0.00000000000E+00 0.  1.
         23    2    1    2    0    0  0.74096985827E+02 -0.54017164254E+01 -0.26400929702E+03  0.28940000448E+03  0.92368348645E+02 0.  0.
        -11    1    1    2    0    0  0.39010608444E+02 -0.88566258706E+02  0.45747153294E+03  0.46759599357E+03  0.00000000000E+00 0. -1.
         11    1    1    2    0    0 -0.11310759427E+03  0.93967975131E+02 -0.19346223592E+03  0.24300400194E+03  0.00000000000E+00 0.  1.
        -15    1    3    3    0    0  0.48010703275E+02  0.12059383788E+02 -0.25020653457E+03  0.25506258847E+03  0.17770000000E+01 0.  1.
         15    1    3    3    0    0  0.26086282553E+02 -0.17461100214E+02 -0.13802762451E+02  0.34337416012E+02  0.17770000000E+01 0. -1.
</event>
<event>
 7    1  0.4133533E-006  0.3155948E+03  0.7546771E-02  0.9945043E-01
        -11   -1    0    0    0    0  0.00000000000E+00  0.00000000000E+00  0.50000000000E+03  0.50000000000E+03  0.00000000000E+00 0. -1.
         11   -1    0    0    0    0 -0.00000000000E+00 -0.00000000000E+00 -0.50000000000E+03  0.50000000000E+03  0.00000000000E+00 0.  1.
         23    2    1    2    0    0 -0.58997635441E+02  0.28106918855E+03 -0.13744305126E+03  0.33097653241E+03  0.90411630485E+02 0.  0.
        -11    1    1    2    0    0  0.32468878175E+01 -0.67319733315E+02  0.35359593886E+03  0.35996191014E+03  0.00000000000E+00 0. -1.
         11    1    1    2    0    0  0.55750747623E+02 -0.21374945523E+03 -0.21615288761E+03  0.30906155745E+03  0.00000000000E+00 0.  1.
        -15    1    3    3    0    0  0.18348490220E+02  0.79411434585E+02 -0.15639095364E+02  0.83009529989E+02  0.17770000000E+01 0. -1.
         15    1    3    3    0    0 -0.77346125661E+02  0.20165775396E+03 -0.12180395589E+03  0.24796700242E+03  0.17770000000E+01 0.  1.
</event>
<event>
 7    1  0.4133533E-006  0.5198847E+03  0.7546771E-02  0.9356383E-01
        -11   -1    0    0    0    0  0.00000000000E+00  0.00000000000E+00  0.50000000000E+03  0.50000000000E+03  0.00000000000E+00 0. -1.
         11   -1    0    0    0    0 -0.00000000000E+00 -0.00000000000E+00 -0.50000000000E+03  0.50000000000E+03  0.00000000000E+00 0.  1.
         23    2    1    2    0    0 -0.90645472541E+02 -0.10778149093E+03 -0.27167322385E+03  0.31917564954E+03  0.90737551331E+02 0.  0.
        -11    1    1    2    0    0  0.72339562751E+02  0.26713079130E+03  0.39232488421E+03  0.48011528487E+03  0.00000000000E+00 0. -1.
         11    1    1    2    0    0  0.18305909790E+02 -0.15934930037E+03 -0.12065166036E+03  0.20070906558E+03  0.00000000000E+00 0.  1.
        -15    1    3    3    0    0 -0.57724885533E+02 -0.82843587209E+02 -0.25559314607E+03  0.27482037114E+03  0.17770000000E+01 0. -1.
         15    1    3    3    0    0 -0.32920587008E+02 -0.24937903720E+02 -0.16080077789E+02  0.44355278396E+02  0.17770000000E+01 0.  1.
</event>
<event>
 7    1  0.4133533E-006  0.3392520E+03  0.7546771E-02  0.9855163E-01
        -11   -1    0    0    0    0  0.00000000000E+00  0.00000000000E+00  0.50000000000E+03  0.50000000000E+03  0.00000000000E+00 0. -1.
         11   -1    0    0    0    0 -0.00000000000E+00 -0.00000000000E+00 -0.50000000000E+03  0.50000000000E+03  0.00000000000E+00 0.  1.
         23    2    1    2    0    0  0.18324223962E+03 -0.23073817323E+02 -0.18016387423E+03  0.27409588100E+03  0.92517084786E+02 0.  0.
        -11    1    1    2    0    0 -0.86802861167E+02  0.17879163757E+03  0.39584781862E+03  0.44294094626E+03  0.00000000000E+00 0. -1.
         11    1    1    2    0    0 -0.96439378453E+02 -0.15571782024E+03 -0.21568394439E+03  0.28296317273E+03  0.00000000000E+00 0.  1.
        -15    1    3    3    0    0  0.14075001910E+03 -0.53254069396E+01 -0.75690228232E+02  0.15990965016E+03  0.17770000000E+01 0.  1.
         15    1    3    3    0    0  0.42492220517E+02 -0.17748410384E+02 -0.10447364600E+03  0.11418623084E+03  0.17770000000E+01 0. -1.
</event>
<event>
 7    1  0.4133533E-006  0.4804605E+03  0.7546771E-02  0.9444625E-01
        -11   -1    0    0    0    0  0.00000000000E+00  0.00000000000E+00  0.50000000000E+03  0.50000000000E+03  0.00000000000E+00 0.  1.
         11   -1    0    0    0    0 -0.00000000000E+00 -0.00000000000E+00 -0.50000000000E+03  0.50000000000E+03  0.00000000000E+00 0. -1.
         23    2    1    2    0    0 -0.12675013115E+03 -0.12416676122E+03 -0.42992826483E+03  0.47485395490E+03  0.95733929400E+02 0.  0.
        -11    1    1    2    0    0  0.10491368559E+03  0.91653273362E+02  0.45685111098E+03  0.47761924328E+03  0.00000000000E+00 0.  1.
         11    1    1    2    0    0  0.21836445557E+02  0.32513487859E+02 -0.26922846147E+02  0.47526801828E+02  0.00000000000E+00 0. -1.
        -15    1    3    3    0    0 -0.41407293657E+02 -0.41372784604E+02 -0.50838132656E+02  0.77549627561E+02  0.17770000000E+01 0.  1.
         15    1    3    3    0    0 -0.85342837494E+02 -0.82793976618E+02 -0.37909013218E+03  0.39730432734E+03  0.17770000000E+01 0. -1.
</event>
<event>
 7    1  0.4133533E-006  0.4790100E+03  0.7546771E-02  0.9448041E-01
        -11   -1    0    0    0    0  0.00000000000E+00  0.00000000000E+00  0.50000000000E+03  0.50000000000E+03  0.00000000000E+00 0.  1.
         11   -1    0    0    0    0 -0.00000000000E+00 -0.00000000000E+00 -0.50000000000E+03  0.50000000000E+03  0.00000000000E+00 0.  1.
         23    2    1    2    0    0 -0.23789789818E+03  0.22200069655E+02  0.38938037054E+03  0.46615363671E+03  0.92703220018E+02 0.  0.
        -11    1    1    2    0    0  0.70898096602E+01  0.37430526204E+02  0.31970849196E+02  0.49733739969E+02  0.00000000000E+00 0.  1.
         11    1    1    2    0    0  0.23080808852E+03 -0.59630595859E+02 -0.42135121974E+03  0.48411262332E+03  0.00000000000E+00 0.  1.
        -15    1    3    3    0    0 -0.16603429410E+03 -0.23773955873E+02  0.29137272561E+03  0.33620501298E+03  0.17770000000E+01 0.  1.
         15    1    3    3    0    0 -0.71863604078E+02  0.45974025527E+02  0.98007644933E+02  0.12994862373E+03  0.17770000000E+01 0. -1.
</event>
<event>
 7    1  0.4133533E-006  0.5230741E+03  0.7546771E-02  0.9349610E-01
        -11   -1    0    0    0    0  0.00000000000E+00  0.00000000000E+00  0.50000000000E+03  0.50000000000E+03  0.00000000000E+00 0.  1.
         11   -1    0    0    0    0 -0.00000000000E+00 -0.00000000000E+00 -0.50000000000E+03  0.50000000000E+03  0.00000000000E+00 0. -1.
         23    2    1    2    0    0  0.70526107401E+01 -0.57394454781E+02 -0.12695605642E+03  0.16583819616E+03  0.89669416671E+02 0.  0.
        -11    1    1    2    0    0  0.10790006536E+03  0.26672100971E+02  0.46379357712E+03  0.47692589283E+03  0.00000000000E+00 0.  1.
         11    1    1    2    0    0 -0.11495267610E+03  0.30722353810E+02 -0.33683752070E+03  0.35723591101E+03  0.00000000000E+00 0. -1.
        -15    1    3    3    0    0 -0.13760028681E+02  0.14804949293E+02 -0.24941009028E+01  0.20442680382E+02  0.17770000000E+01 0.  1.
         15    1    3    3    0    0  0.20812639421E+02 -0.72199404074E+02 -0.12446195552E+03  0.14539551578E+03  0.17770000000E+01 0. -1.
</event>
<event>
 7    1  0.4133533E-006  0.3800455E+03  0.7546771E-02  0.9717270E-01
        -11   -1    0    0    0    0  0.00000000000E+00  0.00000000000E+00  0.50000000000E+03  0.50000000000E+03  0.00000000000E+00 0. -1.
         11   -1    0    0    0    0 -0.00000000000E+00 -0.00000000000E+00 -0.50000000000E+03  0.50000000000E+03  0.00000000000E+00 0.  1.
         23    2    1    2    0    0  0.99387894563E+02  0.16714354049E+03 -0.18081453302E+02  0.21521967150E+03  0.90430367335E+02 0.  0.
        -11    1    1    2    0    0 -0.96663444946E+02  0.19313497591E+03  0.26955787451E+03  0.34540756827E+03  0.00000000000E+00 0. -1.
         11    1    1    2    0    0 -0.27244496175E+01 -0.36027851639E+03 -0.25147642121E+03  0.43937276022E+03  0.00000000000E+00 0.  1.
        -15    1    3    3    0    0  0.75015121933E+02  0.12471179466E+03 -0.53198624887E+02  0.15496306548E+03  0.17770000000E+01 0.  1.
         15    1    3    3    0    0  0.24372772631E+02  0.42431745828E+02  0.35117171586E+02  0.60256606019E+02  0.17770000000E+01 0. -1.
</event>
<event>
 7    1  0.4133533E-006  0.4941135E+03  0.7546771E-02  0.9413078E-01
        -11   -1    0    0    0    0  0.00000000000E+00  0.00000000000E+00  0.50000000000E+03  0.50000000000E+03  0.00000000000E+00 0.  1.
         11   -1    0    0    0    0 -0.00000000000E+00 -0.00000000000E+00 -0.50000000000E+03  0.50000000000E+03  0.00000000000E+00 0. -1.
         23    2    1    2    0    0 -0.58739096525E+01  0.17461370868E+03 -0.44665465697E+03  0.48814820991E+03  0.90905677327E+02 0.  0.
        -11    1    1    2    0    0  0.13075117954E+02 -0.19233884036E+03  0.45249302709E+03  0.49184868383E+03  0.00000000000E+00 0.  1.
         11    1    1    2    0    0 -0.72012083016E+01  0.17725131687E+02 -0.58383701176E+01  0.20003106257E+02  0.00000000000E+00 0. -1.
        -15    1    3    3    0    0 -0.27380625113E+02  0.28487341129E+02 -0.43538199450E+02  0.58821422769E+02  0.17770000000E+01 0.  1.
         15    1    3    3    0    0  0.21506715460E+02  0.14612636755E+03 -0.40311645752E+03  0.42932678714E+03  0.17770000000E+01 0. -1.
</event>
<event>
 7    1  0.4133533E-006  0.3887837E+03  0.7546771E-02  0.9690135E-01
        -11   -1    0    0    0    0  0.00000000000E+00  0.00000000000E+00  0.50000000000E+03  0.50000000000E+03  0.00000000000E+00 0. -1.
         11   -1    0    0    0    0 -0.00000000000E+00 -0.00000000000E+00 -0.50000000000E+03  0.50000000000E+03  0.00000000000E+00 0.  1.
         23    2    1    2    0    0  0.22157476823E+03  0.26614005471E+03  0.17711446709E+03  0.39740517601E+03  0.81458166181E+02 0.  0.
        -11    1    1    2    0    0 -0.12630298936E+03 -0.59054584658E+02  0.14941906627E+03  0.20436718537E+03  0.00000000000E+00 0. -1.
         11    1    1    2    0    0 -0.95271778871E+02 -0.20708547005E+03 -0.32653353336E+03  0.39822763862E+03  0.00000000000E+00 0.  1.
        -15    1    3    3    0    0  0.70869006760E+02  0.35135411118E+02  0.50874568502E+02  0.94065363885E+02  0.17770000000E+01 0.  1.
         15    1    3    3    0    0  0.15070576147E+03  0.23100464359E+03  0.12623989858E+03  0.30333981213E+03  0.17770000000E+01 0. -1.
</event>
<event>
 7    1  0.4133533E-006  0.4663733E+03  0.7546771E-02  0.9478364E-01
        -11   -1    0    0    0    0  0.00000000000E+00  0.00000000000E+00  0.50000000000E+03  0.50000000000E+03  0.00000000000E+00 0. -1.
         11   -1    0    0    0    0 -0.00000000000E+00 -0.00000000000E+00 -0.50000000000E+03  0.50000000000E+03  0.00000000000E+00 0. -1.
         23    2    1    2    0    0 -0.15777670136E+03  0.13446373659E+02 -0.41106319078E+03  0.44995631828E+03  0.91724855338E+02 0.  0.
        -11    1    1    2    0    0  0.15066539824E+03  0.48720435700E+02  0.44952290674E+03  0.47659688077E+03  0.00000000000E+00 0. -1.
         11    1    1    2    0    0  0.71113031198E+01 -0.62166809359E+02 -0.38459715952E+02  0.73446800945E+02  0.00000000000E+00 0. -1.
        -15    1    3    3    0    0 -0.98823846821E+01  0.39446133744E+01  0.21211793323E+01  0.10994481909E+02  0.17770000000E+01 0.  1.
         15    1    3    3    0    0 -0.14789431668E+03  0.95017602848E+01 -0.41318437012E+03  0.43896183637E+03  0.17770000000E+01 0. -1.
</event>
<event>
 7    1  0.4133533E-006  0.3952972E+03  0.7546771E-02  0.9670399E-01
        -11   -1    0    0    0    0  0.00000000000E+00  0.00000000000E+00  0.50000000000E+03  0.50000000000E+03  0.00000000000E+00 0. -1.
         11   -1    0    0    0    0 -0.00000000000E+00 -0.00000000000E+00 -0.50000000000E+03  0.50000000000E+03  0.00000000000E+00 0. -1.
         23    2    1    2    0    0  0.10669841130E+03  0.61353193909E+02 -0.37173342002E+03  0.40206257786E+03  0.91213023094E+02 0.  0.
        -11    1    1    2    0    0 -0.10647668760E+03  0.13433917282E+03  0.36370925216E+03  0.40208048754E+03  0.00000000000E+00 0. -1.
         11    1    1    2    0    0 -0.22172369934E+00 -0.19569236673E+03  0.80241678632E+01  0.19585693460E+03  0.00000000000E+00 0. -1.
        -15    1    3    3    0    0 -0.96621438839E+01  0.11605464225E+02 -0.85178767982E+01  0.17428590834E+02  0.17770000000E+01 0.  1.
         15    1    3    3    0    0  0.11636055519E+03  0.49747729684E+02 -0.36321554322E+03  0.38463398703E+03  0.17770000000E+01 0. -1.
</event>
<event>
 7    1  0.4133533E-006  0.4670033E+03  0.7546771E-02  0.9476829E-01
        -11   -1    0    0    0    0  0.00000000000E+00  0.00000000000E+00  0.50000000000E+03  0.50000000000E+03  0.00000000000E+00 0. -1.
         11   -1    0    0    0    0 -0.00000000000E+00 -0.00000000000E+00 -0.50000000000E+03  0.50000000000E+03  0.00000000000E+00 0. -1.
         23    2    1    2    0    0 -0.16229847323E+03  0.32153510837E+02 -0.43828519670E+03  0.47760995511E+03  0.92966192260E+02 0.  0.
        -11    1    1    2    0    0  0.11098627618E+03 -0.82358753982E+02  0.42813334451E+03  0.44988785107E+03  0.00000000000E+00 0. -1.
         11    1    1    2    0    0  0.51312197055E+02  0.50205243145E+02  0.10151852193E+02  0.72502193821E+02  0.00000000000E+00 0. -1.
        -15    1    3    3    0    0 -0.20368263571E+02 -0.28565781144E+02 -0.91549182774E+02  0.98057537237E+02  0.17770000000E+01 0.  1.
         15    1    3    3    0    0 -0.14193020966E+03  0.60719291981E+02 -0.34673601393E+03  0.37955241788E+03  0.17770000000E+01 0. -1.
</event>
<event>
 7    1  0.4133533E-006  0.5158605E+03  0.7546771E-02  0.9365004E-01
        -11   -1    0    0    0    0  0.00000000000E+00  0.00000000000E+00  0.50000000000E+03  0.50000000000E+03  0.00000000000E+00 0.  1.
         11   -1    0    0    0    0 -0.00000000000E+00 -0.00000000000E+00 -0.50000000000E+03  0.50000000000E+03  0.00000000000E+00 0.  1.
         23    2    1    2    0    0  0.13193375251E+03 -0.36721062266E+02  0.39146616012E+03  0.42213975526E+03  0.78748123714E+02 0.  0.
        -11    1    1    2    0    0 -0.29696598697E+02  0.34904675131E+02  0.81751837208E+02  0.93720793889E+02  0.00000000000E+00 0.  1.
         11    1    1    2    0    0 -0.10223715381E+03  0.18163871354E+01 -0.47321799732E+03  0.48413945085E+03  0.00000000000E+00 0.  1.
        -15    1    3    3    0    0  0.83178414823E+02  0.10511688155E+02  0.27302472381E+03  0.28561302810E+03  0.17770000000E+01 0.  1.
         15    1    3    3    0    0  0.48755337684E+02 -0.47232750421E+02  0.11844143631E+03  0.13652672716E+03  0.17770000000E+01 0. -1.
</event>
<event>
 7    1  0.4133533E-006  0.5165423E+03  0.7546771E-02  0.9363537E-01
        -11   -1    0    0    0    0  0.00000000000E+00  0.00000000000E+00  0.50000000000E+03  0.50000000000E+03  0.00000000000E+00 0. -1.
         11   -1    0    0    0    0 -0.00000000000E+00 -0.00000000000E+00 -0.50000000000E+03  0.50000000000E+03  0.00000000000E+00 0. -1.
         23    2    1    2    0    0 -0.75757176708E+01 -0.87267020442E+01 -0.15743175023E+03  0.18281019830E+03  0.92202309051E+02 0.  0.
        -11    1    1    2    0    0  0.13640230828E+03  0.81067905406E+02  0.45667681005E+03  0.48345765464E+03  0.00000000000E+00 0. -1.
         11    1    1    2    0    0 -0.12882659061E+03 -0.72341203362E+02 -0.29924505982E+03  0.33373214706E+03  0.00000000000E+00 0. -1.
        -15    1    3    3    0    0 -0.24507649288E+02  0.21721179406E+02 -0.14004330475E+03  0.14383226149E+03  0.17770000000E+01 0. -1.
         15    1    3    3    0    0  0.16931931617E+02 -0.30447881450E+02 -0.17388445476E+02  0.38977936813E+02  0.17770000000E+01 0.  1.
</event>
<event>
 7    1  0.4133533E-006  0.3548994E+03  0.7546771E-02  0.9799930E-01
        -11   -1    0    0    0    0  0.00000000000E+00  0.00000000000E+00  0.50000000000E+03  0.50000000000E+03  0.00000000000E+00 0.  1.
         11   -1    0    0    0    0 -0.00000000000E+00 -0.00000000000E+00 -0.50000000000E+03  0.50000000000E+03  0.00000000000E+00 0.  1.
         23    2    1    2    0    0 -0.87242317090E+02 -0.61200045777E+02 -0.32157227969E+03  0.35140844755E+03  0.93394317013E+02 0.  0.
        -11    1    1    2    0    0  0.37939150732E+01 -0.18035497087E+03  0.34768512336E+03  0.39169791206E+03  0.00000000000E+00 0.  1.
         11    1    1    2    0    0  0.83448402016E+02  0.24155501664E+03 -0.26112843667E+02  0.25689364038E+03  0.00000000000E+00 0.  1.
        -15    1    3    3    0    0 -0.28332597117E+02 -0.56041013026E+02 -0.74980939829E+02  0.97819375723E+02  0.17770000000E+01 0. -1.
         15    1    3    3    0    0 -0.58909719972E+02 -0.51590327513E+01 -0.24659133986E+03  0.25358907183E+03  0.17770000000E+01 0.  1.
</event>
<event>
 7    1  0.4133533E-006  0.4305329E+03  0.7546771E-02  0.9570253E-01
        -11   -1    0    0    0    0  0.00000000000E+00  0.00000000000E+00  0.50000000000E+03  0.50000000000E+03  0.00000000000E+00 0.  1.
         11   -1    0    0    0    0 -0.00000000000E+00 -0.00000000000E+00 -0.50000000000E+03  0.50000000000E+03  0.00000000000E+00 0. -1.
         23    2    1    2    0    0 -0.55498806375E+01  0.10761647258E+02 -0.39525847608E+03  0.40678980501E+03  0.95404760460E+02 0.  0.
        -11    1    1    2    0    0  0.54631917917E+02  0.11161589527E+03  0.43745983299E+03  0.45476791885E+03  0.00000000000E+00 0.  1.
         11    1    1    2    0    0 -0.49082037279E+02 -0.12237754252E+03 -0.42201356912E+02  0.13844227614E+03  0.00000000000E+00 0. -1.
        -15    1    3    3    0    0  0.44380277890E+02 -0.24065196274E+01 -0.18711328655E+03  0.19232768946E+03  0.17770000000E+01 0.  1.
         15    1    3    3    0    0 -0.49930158528E+02  0.13168166886E+02 -0.20814518953E+03  0.21446211555E+03  0.17770000000E+01 0. -1.
</event>
<event>
 7    1  0.4133533E-006  0.4143607E+03  0.7546771E-02  0.9614896E-01
        -11   -1    0    0    0    0  0.00000000000E+00  0.00000000000E+00  0.50000000000E+03  0.50000000000E+03  0.00000000000E+00 0.  1.
         11   -1    0    0    0    0 -0.00000000000E+00 -0.00000000000E+00 -0.50000000000E+03  0.50000000000E+03  0.00000000000E+00 0. -1.
         23    2    1    2    0    0 -0.13898559614E+03 -0.89754289001E+01 -0.34709315913E+03  0.38620419017E+03  0.96345529883E+02 0.  0.
        -11    1    1    2    0    0  0.11464700413E+03  0.16418268696E+03  0.40057383198E+03  0.44783845873E+03  0.00000000000E+00 0.  1.
         11    1    1    2    0    0  0.24338592015E+02 -0.15520725806E+03 -0.53480672845E+02  0.16595735110E+03  0.00000000000E+00 0. -1.
        -15    1    3    3    0    0 -0.68680750021E+02  0.16501441543E+02 -0.71036600093E+02  0.10019330955E+03  0.17770000000E+01 0.  1.
         15    1    3    3    0    0 -0.70304846121E+02 -0.25476870443E+02 -0.27605655904E+03  0.28601088062E+03  0.17770000000E+01 0. -1.
</event>
<event>
 7    1  0.4133533E-006  0.4725150E+03  0.7546771E-02  0.9463501E-01
        -11   -1    0    0    0    0  0.00000000000E+00  0.00000000000E+00  0.50000000000E+03  0.50000000000E+03  0.00000000000E+00 0.  1.
         11   -1    0    0    0    0 -0.00000000000E+00 -0.00000000000E+00 -0.50000000000E+03  0.50000000000E+03  0.00000000000E+00 0.  1.
         23    2    1    2    0    0  0.22913197557E+03 -0.17843540511E+03  0.34407115241E+03  0.45941858904E+03  0.91322647831E+02 0.  0.
        -11    1    1    2    0    0  0.58402822701E+02  0.19862505696E+02  0.43150293141E+01  0.61838728237E+02  0.00000000000E+00 0.  1.
         11    1    1    2    0    0 -0.28753479827E+03  0.15857289942E+03 -0.34838618173E+03  0.47874268272E+03  0.00000000000E+00 0.  1.
        -15    1    3    3    0    0  0.64434301444E+02 -0.52261075112E+02  0.42137160449E+02  0.93068239449E+02  0.17770000000E+01 0.  1.
         15    1    3    3    0    0  0.16469767413E+03 -0.12617433000E+03  0.30193399196E+03  0.36635034959E+03  0.17770000000E+01 0. -1.
</event>
<event>
 7    1  0.4133533E-006  0.4322725E+03  0.7546771E-02  0.9565576E-01
        -11   -1    0    0    0    0  0.00000000000E+00  0.00000000000E+00  0.50000000000E+03  0.50000000000E+03  0.00000000000E+00 0.  1.
         11   -1    0    0    0    0 -0.00000000000E+00 -0.00000000000E+00 -0.50000000000E+03  0.50000000000E+03  0.00000000000E+00 0. -1.
         23    2    1    2    0    0  0.71475969740E+02  0.86504180087E+02 -0.45318116905E+03  0.47582362658E+03  0.91886692253E+02 0.  0.
        -11    1    1    2    0    0  0.39766294311E+02 -0.56633080575E+02  0.38320548160E+03  0.38940352478E+03  0.00000000000E+00 0.  1.
         11    1    1    2    0    0 -0.11124226405E+03 -0.29871099512E+02  0.69975687444E+02  0.13477284864E+03  0.00000000000E+00 0. -1.
        -15    1    3    3    0    0  0.30407737236E+02  0.25099491425E+01 -0.31469566748E+02  0.43868230974E+02  0.17770000000E+01 0.  1.
         15    1    3    3    0    0  0.41068232504E+02  0.83994230945E+02 -0.42171160230E+03  0.43195539561E+03  0.17770000000E+01 0. -1.
</event>
<event>
 7    1  0.4133533E-006  0.3847722E+03  0.7546771E-02  0.9702496E-01
        -11   -1    0    0    0    0  0.00000000000E+00  0.00000000000E+00  0.50000000000E+03  0.50000000000E+03  0.00000000000E+00 0.  1.
         11   -1    0    0    0    0 -0.00000000000E+00 -0.00000000000E+00 -0.50000000000E+03  0.50000000000E+03  0.00000000000E+00 0. -1.
         23    2    1    2    0    0  0.10828720719E+03  0.21796977681E+02 -0.41422414827E+03  0.43885440814E+03  0.93863299822E+02 0.  0.
        -11    1    1    2    0    0 -0.11976294612E+03  0.15079334614E+03  0.29030627410E+03  0.34836694632E+03  0.00000000000E+00 0.  1.
         11    1    1    2    0    0  0.11475738932E+02 -0.17259032382E+03  0.12391787417E+03  0.21277864554E+03  0.00000000000E+00 0. -1.
        -15    1    3    3    0    0  0.12437254151E+03  0.27486190891E+02 -0.37491988733E+03  0.39596982135E+03  0.17770000000E+01 0. -1.
         15    1    3    3    0    0 -0.16085334322E+02 -0.56892132101E+01 -0.39304260941E+02  0.42884586792E+02  0.17770000000E+01 0.  1.
</event>
<event>
 7    1  0.4133533E-006  0.5078730E+03  0.7546771E-02  0.9382363E-01
        -11   -1    0    0    0    0  0.00000000000E+00  0.00000000000E+00  0.50000000000E+03  0.50000000000E+03  0.00000000000E+00 0. -1.
         11   -1    0    0    0    0 -0.00000000000E+00 -0.00000000000E+00 -0.50000000000E+03  0.50000000000E+03  0.00000000000E+00 0. -1.
         23    2    1    2    0    0 -0.15796433922E+02 -0.13971398834E+03  0.36450115463E+03  0.40085977252E+03  0.89766027174E+02 0.  0.
        -11    1    1    2    0    0 -0.25150398130E+02 -0.57222177293E+01  0.10385833354E+03  0.10701326902E+03  0.00000000000E+00 0. -1.
         11    1    1    2    0    0  0.40946832052E+02  0.14543620607E+03 -0.46835948816E+03  0.49212695846E+03  0.00000000000E+00 0. -1.
        -15    1    3    3    0    0 -0.47893334220E+02 -0.63546850931E+02  0.22545897086E+03  0.23909596190E+03  0.17770000000E+01 0.  1.
         15    1    3    3    0    0  0.32096900298E+02 -0.76167137408E+02  0.13904218377E+03  0.16176381062E+03  0.17770000000E+01 0. -1.
</event>
<event>
 6    1  0.4133533E-006  0.3374690E+03  0.7546771E-02  0.9861660E-01
        -11   -1    0    0    0    0  0.00000000000E+00  0.00000000000E+00  0.50000000000E+03  0.50000000000E+03  0.00000000000E+00 0.  1.
         11   -1    0    0    0    0 -0.00000000000E+00 -0.00000000000E+00 -0.50000000000E+03  0.50000000000E+03  0.00000000000E+00 0. -1.
        -11    1    1    2    0    0 -0.14129598873E+03 -0.86801371902E+02  0.28046938821E+03  0.32582527882E+03  0.00000000000E+00 0.  1.
         11    1    1    2    0    0  0.31300289855E+03 -0.14688167602E+02 -0.14837677749E+03  0.34670192510E+03  0.00000000000E+00 0. -1.
        -15    1    1    2    0    0 -0.18947944088E+03  0.30325708847E+01 -0.12527812610E+03  0.22717707105E+03  0.17770000000E+01 0.  1.
         15    1    1    2    0    0  0.17772531070E+02  0.98456968620E+02 -0.68144846194E+01  0.10029572503E+03  0.17770000000E+01 0. -1.
</event>
<event>
 7    1  0.4133533E-006  0.3947811E+03  0.7546771E-02  0.9671948E-01
        -11   -1    0    0    0    0  0.00000000000E+00  0.00000000000E+00  0.50000000000E+03  0.50000000000E+03  0.00000000000E+00 0.  1.
         11   -1    0    0    0    0 -0.00000000000E+00 -0.00000000000E+00 -0.50000000000E+03  0.50000000000E+03  0.00000000000E+00 0. -1.
         23    2    1    2    0    0  0.22222617450E+03 -0.17209820676E+03 -0.25478909855E+03  0.38997166428E+03  0.90322471170E+02 0.  0.
        -11    1    1    2    0    0 -0.13783408260E+03  0.52903032000E+02  0.38626604256E+03  0.41351955305E+03  0.00000000000E+00 0.  1.
         11    1    1    2    0    0 -0.84392091903E+02  0.11919517476E+03 -0.13147694400E+03  0.19650878267E+03  0.00000000000E+00 0. -1.
        -15    1    3    3    0    0  0.22124225145E+03 -0.14585112758E+03 -0.21041429685E+03  0.33837555953E+03  0.17770000000E+01 0.  1.
         15    1    3    3    0    0  0.98392305594E+00 -0.26247079184E+02 -0.44374801707E+02  0.51596104754E+02  0.17770000000E+01 0. -1.
</event>
<event>
 6    1  0.4133533E-006  0.4287194E+03  0.7546771E-02  0.9575154E-01
        -11   -1    0    0    0    0  0.00000000000E+00  0.00000000000E+00  0.50000000000E+03  0.50000000000E+03  0.00000000000E+00 0. -1.
         11   -1    0    0    0    0 -0.00000000000E+00 -0.00000000000E+00 -0.50000000000E+03  0.50000000000E+03  0.00000000000E+00 0. -1.
        -11    1    1    2    0    0 -0.63769396775E+02 -0.10216736642E+03  0.42486711380E+03  0.44160703246E+03  0.00000000000E+00 0. -1.
         11    1    1    2    0    0  0.53167058387E+02 -0.92608583854E+02 -0.11935479770E+03  0.16015197044E+03  0.00000000000E+00 0. -1.
        -15    1    1    2    0    0  0.14831763734E+02  0.14229471477E+03 -0.74525084020E+02  0.16132238823E+03  0.17770000000E+01 0. -1.
         15    1    1    2    0    0 -0.42294253465E+01  0.52481235506E+02 -0.23098723208E+03  0.23691860887E+03  0.17770000000E+01 0.  1.
</event>
<event>
 7    1  0.4133533E-006  0.5132559E+03  0.7546771E-02  0.9370628E-01
        -11   -1    0    0    0    0  0.00000000000E+00  0.00000000000E+00  0.50000000000E+03  0.50000000000E+03  0.00000000000E+00 0. -1.
         11   -1    0    0    0    0 -0.00000000000E+00 -0.00000000000E+00 -0.50000000000E+03  0.50000000000E+03  0.00000000000E+00 0.  1.
         23    2    1    2    0    0 -0.23981330336E+02 -0.16179531270E+00 -0.22572196122E+03  0.24540100455E+03  0.93252983198E+02 0.  0.
        -11    1    1    2    0    0  0.45526565292E+02 -0.94814367334E+02  0.47524460517E+03  0.48674414957E+03  0.00000000000E+00 0. -1.
         11    1    1    2    0    0 -0.21545234957E+02  0.94976162647E+02 -0.24952264394E+03  0.26785484588E+03  0.00000000000E+00 0.  1.
        -15    1    3    3    0    0 -0.37620504207E+02  0.20606529452E+02 -0.21327754215E+03  0.21755550810E+03  0.17770000000E+01 0.  1.
         15    1    3    3    0    0  0.13639173871E+02 -0.20768324764E+02 -0.12444419074E+02  0.27845496449E+02  0.17770000000E+01 0. -1.
</event>
<event>
 7    1  0.4133533E-006  0.5254136E+03  0.7546771E-02  0.9344674E-01
        -11   -1    0    0    0    0  0.00000000000E+00  0.00000000000E+00  0.50000000000E+03  0.50000000000E+03  0.00000000000E+00 0.  1.
         11   -1    0    0    0    0 -0.00000000000E+00 -0.00000000000E+00 -0.50000000000E+03  0.50000000000E+03  0.00000000000E+00 0. -1.
         23    2    1    2    0    0 -0.31311221637E+02  0.32889740207E+02  0.86063106333E+02  0.13381365709E+03  0.91853736672E+02 0.  0.
        -11    1    1    2    0    0 -0.71926350477E+02 -0.95463801341E+02  0.37291260397E+03  0.39159998399E+03  0.00000000000E+00 0.  1.
         11    1    1    2    0    0  0.10323757211E+03  0.62574061133E+02 -0.45897571031E+03  0.47458635892E+03  0.00000000000E+00 0. -1.
        -15    1    3    3    0    0 -0.60783520011E+02  0.67404042277E+01  0.64343707583E+02  0.88788173697E+02  0.17770000000E+01 0.  1.
         15    1    3    3    0    0  0.29472298373E+02  0.26149335980E+02  0.21719398750E+02  0.45025483391E+02  0.17770000000E+01 0. -1.
</event>
<event>
 7    1  0.4133533E-006  0.5068431E+03  0.7546771E-02  0.9384627E-01
        -11   -1    0    0    0    0  0.00000000000E+00  0.00000000000E+00  0.50000000000E+03  0.50000000000E+03  0.00000000000E+00 0.  1.
         11   -1    0    0    0    0 -0.00000000000E+00 -0.00000000000E+00 -0.50000000000E+03  0.50000000000E+03  0.00000000000E+00 0. -1.
         23    2    1    2    0    0  0.81306958119E+02 -0.58807833153E+02  0.27559881998E+03  0.30697180980E+03  0.90596908104E+02 0.  0.
        -11    1    1    2    0    0  0.54269665684E+02 -0.37523295229E+02  0.18866727939E+03  0.19987130011E+03  0.00000000000E+00 0.  1.
         11    1    1    2    0    0 -0.13557662380E+03  0.96331128382E+02 -0.46426609937E+03  0.49315689009E+03  0.00000000000E+00 0. -1.
        -15    1    3    3    0    0  0.29913734836E+02 -0.60862759217E+02  0.80869006716E+02  0.10555596131E+03  0.17770000000E+01 0.  1.
         15    1    3    3    0    0  0.51393223283E+02  0.20549260639E+01  0.19472981326E+03  0.20141584849E+03  0.17770000000E+01 0. -1.
</event>
<event>
 7    1  0.4133533E-006  0.3941916E+03  0.7546771E-02  0.9673720E-01
        -11   -1    0    0    0    0  0.00000000000E+00  0.00000000000E+00  0.50000000000E+03  0.50000000000E+03  0.00000000000E+00 0.  1.
         11   -1    0    0    0    0 -0.00000000000E+00 -0.00000000000E+00 -0.50000000000E+03  0.50000000000E+03  0.00000000000E+00 0. -1.
         23    2    1    2    0    0  0.15393609626E+03  0.14511684202E+02 -0.29300092991E+03  0.34462420138E+03  0.94917777802E+02 0.  0.
        -11    1    1    2    0    0 -0.24599442830E+03  0.14986474612E+03  0.35488469505E+03  0.45707313164E+03  0.00000000000E+00 0.  1.
         11    1    1    2    0    0  0.92058332039E+02 -0.16437643032E+03 -0.61883765146E+02  0.19830266698E+03  0.00000000000E+00 0. -1.
        -15    1    3    3    0    0 -0.44472583693E+01  0.16072073686E+02 -0.80420363530E+01  0.18598971404E+02  0.17770000000E+01 0.  1.
         15    1    3    3    0    0  0.15838335463E+03 -0.15603894843E+01 -0.28495889355E+03  0.32602522998E+03  0.17770000000E+01 0. -1.
</event>
<event>
 7    1  0.4133533E-006  0.3793007E+03  0.7546771E-02  0.9719619E-01
        -11   -1    0    0    0    0  0.00000000000E+00  0.00000000000E+00  0.50000000000E+03  0.50000000000E+03  0.00000000000E+00 0. -1.
         11   -1    0    0    0    0 -0.00000000000E+00 -0.00000000000E+00 -0.50000000000E+03  0.50000000000E+03  0.00000000000E+00 0. -1.
         23    2    1    2    0    0 -0.14874602649E+03 -0.87506230726E+02 -0.91885050094E+02  0.21660889642E+03  0.93240714090E+02 0.  0.
        -11    1    1    2    0    0 -0.75543311303E+02 -0.16023417627E+03  0.32897823815E+03  0.37364216077E+03  0.00000000000E+00 0. -1.
         11    1    1    2    0    0  0.22428933779E+03  0.24774040700E+03 -0.23709318806E+03  0.40974894281E+03  0.00000000000E+00 0. -1.
        -15    1    3    3    0    0 -0.12620552909E+03 -0.10642072383E+03 -0.87364201635E+02  0.18678561906E+03  0.17770000000E+01 0. -1.
         15    1    3    3    0    0 -0.22540497405E+02  0.18914493101E+02 -0.45208484585E+01  0.29823277357E+02  0.17770000000E+01 0.  1.
</event>
<event>
 7    1  0.4133533E-006  0.3778817E+03  0.7546771E-02  0.9724110E-01
        -11   -1    0    0    0    0  0.00000000000E+00  0.00000000000E+00  0.50000000000E+03  0.50000000000E+03  0.00000000000E+00 0.  1.
         11   -1    0    0    0    0 -0.00000000000E+00 -0.00000000000E+00 -0.50000000000E+03  0.50000000000E+03  0.00000000000E+00 0. -1.
         23    2    1    2    0    0  0.95035743677E+02 -0.23601414936E+02 -0.17213267363E+03  0.21872101219E+03  0.92846133360E+02 0.  0.
        -11    1    1    2    0    0  0.84971855596E+02 -0.20525819352E+03  0.36835778270E+03  0.43016113066E+03  0.00000000000E+00 0.  1.
         11    1    1    2    0    0 -0.18000759927E+03  0.22885960846E+03 -0.19622510907E+03  0.35111785715E+03  0.00000000000E+00 0. -1.
        -15    1    3    3    0    0  0.56792352482E+02 -0.83895363921E-01 -0.20232310531E+02  0.60314860999E+02  0.17770000000E+01 0. -1.
         15    1    3    3    0    0  0.38243391195E+02 -0.23517519572E+02 -0.15190036310E+03  0.15840615119E+03  0.17770000000E+01 0.  1.
</event>
<event>
 7    1  0.4133533E-006  0.5077960E+03  0.7546771E-02  0.9382533E-01
        -11   -1    0    0    0    0  0.00000000000E+00  0.00000000000E+00  0.50000000000E+03  0.50000000000E+03  0.00000000000E+00 0.  1.
         11   -1    0    0    0    0 -0.00000000000E+00 -0.00000000000E+00 -0.50000000000E+03  0.50000000000E+03  0.00000000000E+00 0. -1.
         23    2    1    2    0    0  0.63803247323E+02  0.39281560845E+02  0.33380216618E+03  0.35520994709E+03  0.95584125094E+02 0.  0.
        -11    1    1    2    0    0  0.52177100680E+02 -0.48914708076E+01  0.14330434987E+03  0.15258608394E+03  0.00000000000E+00 0.  1.
         11    1    1    2    0    0 -0.11598034800E+03 -0.34390090038E+02 -0.47710651605E+03  0.49220396897E+03  0.00000000000E+00 0. -1.
        -15    1    3    3    0    0  0.50806837271E+02  0.68223093260E+01  0.30663624238E+03  0.31089680199E+03  0.17770000000E+01 0.  1.
         15    1    3    3    0    0  0.12996410052E+02  0.32459251519E+02  0.27165923807E+02  0.44313145101E+02  0.17770000000E+01 0. -1.
</event>
<event>
 7    1  0.4133533E-006  0.3025449E+03  0.7546771E-02  0.9998330E-01
        -11   -1    0    0    0    0  0.00000000000E+00  0.00000000000E+00  0.50000000000E+03  0.50000000000E+03  0.00000000000E+00 0. -1.
         11   -1    0    0    0    0 -0.00000000000E+00 -0.00000000000E+00 -0.50000000000E+03  0.50000000000E+03  0.00000000000E+00 0. -1.
         23    2    1    2    0    0 -0.31164815535E+03 -0.57251170578E+02 -0.85724799249E+02  0.33865631104E+03  0.83289174155E+02 0.  0.
        -11    1    1    2    0    0  0.84846536903E+02 -0.58463265454E+02  0.30711450218E+03  0.32393858319E+03  0.00000000000E+00 0. -1.
         11    1    1    2    0    0  0.22680161845E+03  0.11571443603E+03 -0.22138970293E+03  0.33740510577E+03  0.00000000000E+00 0. -1.
        -15    1    3    3    0    0 -0.29618975192E+03 -0.40996939970E+02 -0.60911547117E+02  0.30515978197E+03  0.17770000000E+01 0. -1.
         15    1    3    3    0    0 -0.15458403433E+02 -0.16254230608E+02 -0.24813252132E+02  0.33496529070E+02  0.17770000000E+01 0.  1.
</event>
<event>
 7    1  0.4133533E-006  0.4730401E+03  0.7546771E-02  0.9462241E-01
        -11   -1    0    0    0    0  0.00000000000E+00  0.00000000000E+00  0.50000000000E+03  0.50000000000E+03  0.00000000000E+00 0. -1.
         11   -1    0    0    0    0 -0.00000000000E+00 -0.00000000000E+00 -0.50000000000E+03  0.50000000000E+03  0.00000000000E+00 0.  1.
         23    2    1    2    0    0 -0.67950546028E+02 -0.24946124624E+02 -0.43187077301E+03  0.44747210321E+03  0.92083292367E+02 0.  0.
        -11    1    1    2    0    0  0.86422746747E+02 -0.99238498983E+00  0.48388340849E+03  0.49154148248E+03  0.00000000000E+00 0. -1.
         11    1    1    2    0    0 -0.18472200719E+02  0.25938509614E+02 -0.52012635485E+02  0.60986414311E+02  0.00000000000E+00 0.  1.
        -15    1    3    3    0    0 -0.87824597837E+02 -0.29820108162E+02 -0.38937155728E+03  0.40026961686E+03  0.17770000000E+01 0.  1.
         15    1    3    3    0    0  0.19874051809E+02  0.48739835374E+01 -0.42499215729E+02  0.47202486348E+02  0.17770000000E+01 0. -1.
</event>
<event>
 7    1  0.4133533E-006  0.4106391E+03  0.7546771E-02  0.9625478E-01
        -11   -1    0    0    0    0  0.00000000000E+00  0.00000000000E+00  0.50000000000E+03  0.50000000000E+03  0.00000000000E+00 0. -1.
         11   -1    0    0    0    0 -0.00000000000E+00 -0.00000000000E+00 -0.50000000000E+03  0.50000000000E+03  0.00000000000E+00 0. -1.
         23    2    1    2    0    0 -0.99313900679E+01 -0.10573776046E+03 -0.88203704133E+02  0.16719938647E+03  0.94321974740E+02 0.  0.
        -11    1    1    2    0    0 -0.15380616893E+03  0.37566992891E+02  0.42424476187E+03  0.45282583244E+03  0.00000000000E+00 0. -1.
         11    1    1    2    0    0  0.16373755900E+03  0.68170767567E+02 -0.33604105773E+03  0.37997478108E+03  0.00000000000E+00 0. -1.
        -15    1    3    3    0    0  0.23784789202E+02  0.18186026928E+01  0.22859183813E+00  0.23921402475E+02  0.17770000000E+01 0.  1.
         15    1    3    3    0    0 -0.33716179270E+02 -0.10755636315E+03 -0.88432295971E+02  0.14327798400E+03  0.17770000000E+01 0. -1.
</event>
<event>
 7    1  0.4133533E-006  0.3377788E+03  0.7546771E-02  0.9860528E-01
        -11   -1    0    0    0    0  0.00000000000E+00  0.00000000000E+00  0.50000000000E+03  0.50000000000E+03  0.00000000000E+00 0.  1.
         11   -1    0    0    0    0 -0.00000000000E+00 -0.00000000000E+00 -0.50000000000E+03  0.50000000000E+03  0.00000000000E+00 0. -1.
         23    2    1    2    0    0 -0.10436915078E+03  0.21715677077E+03 -0.98692812401E+02  0.27600524634E+03  0.91589530323E+02 0.  0.
        -11    1    1    2    0    0 -0.39749729163E+02 -0.15180221092E+03  0.37448213786E+03  0.40603057001E+03  0.00000000000E+00 0.  1.
         11    1    1    2    0    0  0.14411887994E+03 -0.65354559847E+02 -0.27578932545E+03  0.31796418365E+03  0.00000000000E+00 0. -1.
        -15    1    3    3    0    0 -0.96479843801E+02  0.11264146143E+03 -0.83125791913E+02  0.17002798035E+03  0.17770000000E+01 0. -1.
         15    1    3    3    0    0 -0.78893069787E+01  0.10451530934E+03 -0.15567020488E+02  0.10597726599E+03  0.17770000000E+01 0.  1.
</event>
<event>
 7    1  0.4133533E-006  0.4062726E+03  0.7546771E-02  0.9638047E-01
        -11   -1    0    0    0    0  0.00000000000E+00  0.00000000000E+00  0.50000000000E+03  0.50000000000E+03  0.00000000000E+00 0.  1.
         11   -1    0    0    0    0 -0.00000000000E+00 -0.00000000000E+00 -0.50000000000E+03  0.50000000000E+03  0.00000000000E+00 0.  1.
         23    2    1    2    0    0 -0.12166091893E+03 -0.58913623166E+01 -0.43576378297E+03  0.46155579420E+03  0.91145977783E+02 0.  0.
        -11    1    1    2    0    0 -0.13726777704E+01 -0.89455219146E+02  0.34891021893E+03  0.36019780864E+03  0.00000000000E+00 0.  1.
         11    1    1    2    0    0  0.12303359670E+03  0.95346581463E+02  0.86853564047E+02  0.17824639716E+03  0.00000000000E+00 0.  1.
        -15    1    3    3    0    0 -0.11893172562E+03  0.16341435750E+02 -0.41072213015E+03  0.42791076618E+03  0.17770000000E+01 0.  1.
         15    1    3    3    0    0 -0.27291933076E+01 -0.22232798067E+02 -0.25041652819E+02  0.33645028026E+02  0.17770000000E+01 0. -1.
</event>
<event>
 7    1  0.4133533E-006  0.5272088E+03  0.7546771E-02  0.9340905E-01
        -11   -1    0    0    0    0  0.00000000000E+00  0.00000000000E+00  0.50000000000E+03  0.50000000000E+03  0.00000000000E+00 0. -1.
         11   -1    0    0    0    0 -0.00000000000E+00 -0.00000000000E+00 -0.50000000000E+03  0.50000000000E+03  0.00000000000E+00 0.  1.
         23    2    1    2    0    0  0.30280808933E+02  0.55701124732E+02  0.95734760686E+02  0.14681371929E+03  0.91485414579E+02 0.  0.
        -11    1    1    2    0    0  0.67160788632E+01  0.35612592383E+03  0.13352762996E+03  0.38039506739E+03  0.00000000000E+00 0. -1.
         11    1    1    2    0    0 -0.36996887796E+02 -0.41182704856E+03 -0.22926239064E+03  0.47279121332E+03  0.00000000000E+00 0.  1.
        -15    1    3    3    0    0 -0.31663869665E+02  0.29936878112E+02  0.30484277054E+02  0.53209643766E+02  0.17770000000E+01 0.  1.
         15    1    3    3    0    0  0.61944678598E+02  0.25764246621E+02  0.65250483632E+02  0.93604075519E+02  0.17770000000E+01 0. -1.
</event>
<event>
 7    1  0.4133533E-006  0.3742714E+03  0.7546771E-02  0.9735632E-01
        -11   -1    0    0    0    0  0.00000000000E+00  0.00000000000E+00  0.50000000000E+03  0.50000000000E+03  0.00000000000E+00 0.  1.
         11   -1    0    0    0    0 -0.00000000000E+00 -0.00000000000E+00 -0.50000000000E+03  0.50000000000E+03  0.00000000000E+00 0. -1.
         23    2    1    2    0    0 -0.74627497245E+02  0.19105026415E+03 -0.30435366928E+03  0.37820114242E+03  0.91298857315E+02 0.  0.
        -11    1    1    2    0    0 -0.10797580565E+03 -0.71763161847E+02  0.37158966779E+03  0.39355762884E+03  0.00000000000E+00 0.  1.
         11    1    1    2    0    0  0.18260330289E+03 -0.11928710230E+03 -0.67235998511E+02  0.22824122874E+03  0.00000000000E+00 0. -1.
        -15    1    3    3    0    0  0.17460724224E+02  0.27168167360E+02 -0.74797921248E+02  0.81491551465E+02  0.17770000000E+01 0. -1.
         15    1    3    3    0    0 -0.92088221468E+02  0.16388209679E+03 -0.22955574803E+03  0.29670959096E+03  0.17770000000E+01 0.  1.
</event>
<event>
 7    1  0.4133533E-006  0.3791824E+03  0.7546771E-02  0.9719992E-01
        -11   -1    0    0    0    0  0.00000000000E+00  0.00000000000E+00  0.50000000000E+03  0.50000000000E+03  0.00000000000E+00 0. -1.
         11   -1    0    0    0    0 -0.00000000000E+00 -0.00000000000E+00 -0.50000000000E+03  0.50000000000E+03  0.00000000000E+00 0. -1.
         23    2    1    2    0    0 -0.20305530065E+02 -0.40934051050E+01 -0.19294508393E+03  0.21720108667E+03  0.97567597698E+02 0.  0.
        -11    1    1    2    0    0 -0.14597818185E+03  0.26054369702E+03  0.33238888688E+03  0.44685010882E+03  0.00000000000E+00 0. -1.
         11    1    1    2    0    0  0.16628371192E+03 -0.25645029191E+03 -0.13944380295E+03  0.33594880451E+03  0.00000000000E+00 0. -1.
        -15    1    3    3    0    0  0.26350588930E+02  0.26429926840E+02 -0.41665796297E+02  0.55965086258E+02  0.17770000000E+01 0.  1.
         15    1    3    3    0    0 -0.46656118995E+02 -0.30523331945E+02 -0.15127928763E+03  0.16123600041E+03  0.17770000000E+01 0. -1.
</event>
<event>
 7    1  0.4133533E-006  0.4666488E+03  0.7546771E-02  0.9477693E-01
        -11   -1    0    0    0    0  0.00000000000E+00  0.00000000000E+00  0.50000000000E+03  0.50000000000E+03  0.00000000000E+00 0. -1.
         11   -1    0    0    0    0 -0.00000000000E+00 -0.00000000000E+00 -0.50000000000E+03  0.50000000000E+03  0.00000000000E+00 0.  1.
         23    2    1    2    0    0 -0.51197083884E+02  0.92470727056E+02 -0.41369087273E+03  0.43761659466E+03  0.95896657836E+02 0.  0.
        -11    1    1    2    0    0  0.30731142329E+02 -0.73952086161E+02  0.48205297655E+03  0.48865978590E+03  0.00000000000E+00 0. -1.
         11    1    1    2    0    0  0.20465941555E+02 -0.18518640894E+02 -0.68362103822E+02  0.73723619439E+02  0.00000000000E+00 0.  1.
        -15    1    3    3    0    0  0.27572764865E+02  0.29404730453E+02 -0.14807931615E+03  0.15347813243E+03  0.17770000000E+01 0. -1.
         15    1    3    3    0    0 -0.78769848749E+02  0.63065996603E+02 -0.26561155658E+03  0.28413846223E+03  0.17770000000E+01 0.  1.
</event>
<event>
 7    1  0.4133533E-006  0.4193456E+03  0.7546771E-02  0.9600907E-01
        -11   -1    0    0    0    0  0.00000000000E+00  0.00000000000E+00  0.50000000000E+03  0.50000000000E+03  0.00000000000E+00 0.  1.
         11   -1    0    0    0    0 -0.00000000000E+00 -0.00000000000E+00 -0.50000000000E+03  0.50000000000E+03  0.00000000000E+00 0.  1.
         23    2    1    2    0    0  0.75028182074E+01  0.11569892623E+03  0.38027537803E+02  0.15247916992E+03  0.91439979307E+02 0.  0.
        -11    1    1    2    0    0 -0.63605231376E+02 -0.37079881042E+02  0.39604634102E+03  0.40283153709E+03  0.00000000000E+00 0.  1.
         11    1    1    2    0    0  0.56102413169E+02 -0.78619045187E+02 -0.43407387882E+03  0.44468929300E+03  0.00000000000E+00 0.  1.
        -15    1    3    3    0    0  0.17824446266E+02  0.32779271114E+02  0.55687260217E+02  0.67055351606E+02  0.17770000000E+01 0. -1.
         15    1    3    3    0    0 -0.10321628058E+02  0.82919655116E+02 -0.17659722415E+02  0.85423818312E+02  0.17770000000E+01 0.  1.
</event>
<event>
 7    1  0.4133533E-006  0.4705600E+03  0.7546771E-02  0.9468206E-01
        -11   -1    0    0    0    0  0.00000000000E+00  0.00000000000E+00  0.50000000000E+03  0.50000000000E+03  0.00000000000E+00 0.  1.
         11   -1    0    0    0    0 -0.00000000000E+00 -0.00000000000E+00 -0.50000000000E+03  0.50000000000E+03  0.00000000000E+00 0. -1.
         23    2    1    2    0    0  0.61160629064E+02  0.30152516718E+02 -0.42633707985E+03  0.44119398388E+03  0.90769096897E+02 0.  0.
        -11    1    1    2    0    0 -0.93052689894E+02 -0.34186988669E+02  0.48331946782E+03  0.49338145614E+03  0.00000000000E+00 0.  1.
         11    1    1    2    0    0  0.31892060830E+02  0.40344719509E+01 -0.56982387977E+02  0.65424559971E+02  0.00000000000E+00 0. -1.
        -15    1    3    3    0    0  0.85056670600E+02  0.23971026921E+02 -0.31703109534E+03  0.32912174114E+03  0.17770000000E+01 0. -1.
         15    1    3    3    0    0 -0.23896041537E+02  0.61814897977E+01 -0.10930598450E+03  0.11207224275E+03  0.17770000000E+01 0.  1.
</event>
<event>
 7    1  0.4133533E-006  0.5154588E+03  0.7546771E-02  0.9365869E-01
        -11   -1    0    0    0    0  0.00000000000E+00  0.00000000000E+00  0.50000000000E+03  0.50000000000E+03  0.00000000000E+00 0.  1.
         11   -1    0    0    0    0 -0.00000000000E+00 -0.00000000000E+00 -0.50000000000E+03  0.50000000000E+03  0.00000000000E+00 0.  1.
         23    2    1    2    0    0  0.24077766417E+01  0.27167894808E+02 -0.34824641292E+03  0.36115279125E+03  0.91716315981E+02 0.  0.
        -11    1    1    2    0    0  0.83850567001E+02 -0.34585003971E+02  0.47597595664E+03  0.48454117615E+03  0.00000000000E+00 0.  1.
         11    1    1    2    0    0 -0.86258343643E+02  0.74171091628E+01 -0.12772954372E+03  0.15430603260E+03  0.00000000000E+00 0.  1.
        -15    1    3    3    0    0 -0.21742568031E+01 -0.31561874071E+02 -0.18272987271E+03  0.18545685050E+03  0.17770000000E+01 0. -1.
         15    1    3    3    0    0  0.45820334448E+01  0.58729768880E+02 -0.16551654022E+03  0.17569594075E+03  0.17770000000E+01 0.  1.
</event>
<event>
 7    1  0.4133533E-006  0.5129024E+03  0.7546771E-02  0.9371394E-01
        -11   -1    0    0    0    0  0.00000000000E+00  0.00000000000E+00  0.50000000000E+03  0.50000000000E+03  0.00000000000E+00 0. -1.
         11   -1    0    0    0    0 -0.00000000000E+00 -0.00000000000E+00 -0.50000000000E+03  0.50000000000E+03  0.00000000000E+00 0.  1.
         23    2    1    2    0    0 -0.10429177139E+03 -0.68344488210E+01  0.12730206440E+03  0.18793442670E+03  0.90498894285E+02 0.  0.
        -11    1    1    2    0    0 -0.14666596413E+03 -0.15906130391E+02  0.28955183046E+03  0.32496795617E+03  0.00000000000E+00 0. -1.
         11    1    1    2    0    0  0.25095773551E+03  0.22740579212E+02 -0.41685389486E+03  0.48709761713E+03  0.00000000000E+00 0.  1.
        -15    1    3    3    0    0 -0.79431626654E+02  0.37141317621E+02  0.80807841610E+02  0.11925571593E+03  0.17770000000E+01 0.  1.
         15    1    3    3    0    0 -0.24860144733E+02 -0.43975766442E+02  0.46494222792E+02  0.68678710765E+02  0.17770000000E+01 0. -1.
</event>
<event>
 7    1  0.4133533E-006  0.5024771E+03  0.7546771E-02  0.9394284E-01
        -11   -1    0    0    0    0  0.00000000000E+00  0.00000000000E+00  0.50000000000E+03  0.50000000000E+03  0.00000000000E+00 0.  1.
         11   -1    0    0    0    0 -0.00000000000E+00 -0.00000000000E+00 -0.50000000000E+03  0.50000000000E+03  0.00000000000E+00 0. -1.
         23    2    1    2    0    0  0.66628213183E+02  0.12030585946E+02 -0.48403413661E+03  0.49752289931E+03  0.93037283595E+02 0.  0.
        -11    1    1    2    0    0 -0.26336704793E+02 -0.56330964598E+02  0.35263905939E+03  0.35807974782E+03  0.00000000000E+00 0.  1.
         11    1    1    2    0    0 -0.40291508391E+02  0.44300378652E+02  0.13139507723E+03  0.14439735287E+03  0.00000000000E+00 0. -1.
        -15    1    3    3    0    0  0.61346554485E+02 -0.32996966178E+02 -0.29689154073E+03  0.30495892217E+03  0.17770000000E+01 0. -1.
         15    1    3    3    0    0  0.52816586985E+01  0.45027552124E+02 -0.18714259588E+03  0.19256397714E+03  0.17770000000E+01 0.  1.
</event>
<event>
 7    1  0.4133533E-006  0.5135596E+03  0.7546771E-02  0.9369970E-01
        -11   -1    0    0    0    0  0.00000000000E+00  0.00000000000E+00  0.50000000000E+03  0.50000000000E+03  0.00000000000E+00 0. -1.
         11   -1    0    0    0    0 -0.00000000000E+00 -0.00000000000E+00 -0.50000000000E+03  0.50000000000E+03  0.00000000000E+00 0. -1.
         23    2    1    2    0    0  0.13539984080E+03  0.81920307286E+02  0.10461776606E+02  0.18359548060E+03  0.92486745493E+02 0.  0.
        -11    1    1    2    0    0  0.24326159973E+03  0.22263269990E+03  0.11611060977E+02  0.32996415215E+03  0.00000000000E+00 0. -1.
         11    1    1    2    0    0 -0.37866144053E+03 -0.30455300719E+03 -0.22072837583E+02  0.48644036725E+03  0.00000000000E+00 0. -1.
        -15    1    3    3    0    0  0.98668397883E+02  0.51677977016E+02 -0.36000592310E+02  0.11706949400E+03  0.17770000000E+01 0.  1.
         15    1    3    3    0    0  0.36731442919E+02  0.30242330270E+02  0.46462368916E+02  0.66525986602E+02  0.17770000000E+01 0. -1.
</event>
<event>
 7    1  0.4133533E-006  0.3441277E+03  0.7546771E-02  0.9837616E-01
        -11   -1    0    0    0    0  0.00000000000E+00  0.00000000000E+00  0.50000000000E+03  0.50000000000E+03  0.00000000000E+00 0. -1.
         11   -1    0    0    0    0 -0.00000000000E+00 -0.00000000000E+00 -0.50000000000E+03  0.50000000000E+03  0.00000000000E+00 0. -1.
         23    2    1    2    0    0  0.36524999529E+02 -0.51231735511E+02 -0.25663081734E+03  0.27946847325E+03  0.91019145339E+02 0.  0.
        -11    1    1    2    0    0 -0.44677500977E+02 -0.17063431648E+03  0.41292436155E+03  0.44901968489E+03  0.00000000000E+00 0. -1.
         11    1    1    2    0    0  0.81525014478E+01  0.22186605199E+03 -0.15629354421E+03  0.27151184186E+03  0.00000000000E+00 0. -1.
        -15    1    3    3    0    0  0.38315785666E+02 -0.13990187895E+01 -0.20144891362E+03  0.20507286318E+03  0.17770000000E+01 0.  1.
         15    1    3    3    0    0 -0.17907861368E+01 -0.49832716721E+02 -0.55181903722E+02  0.74395610073E+02  0.17770000000E+01 0. -1.
</event>
<event>
 7    1  0.4133533E-006  0.5076441E+03  0.7546771E-02  0.9382866E-01
        -11   -1    0    0    0    0  0.00000000000E+00  0.00000000000E+00  0.50000000000E+03  0.50000000000E+03  0.00000000000E+00 0.  1.
         11   -1    0    0    0    0 -0.00000000000E+00 -0.00000000000E+00 -0.50000000000E+03  0.50000000000E+03  0.00000000000E+00 0.  1.
         23    2    1    2    0    0 -0.19690853868E+03  0.12897231090E+03  0.28114895247E+03  0.37843920900E+03  0.93619826130E+02 0.  0.
        -11    1    1    2    0    0 -0.38669589922E+02  0.42606765488E+02  0.11568590506E+03  0.12920488489E+03  0.00000000000E+00 0.  1.
         11    1    1    2    0    0  0.23557812860E+03 -0.17157907639E+03 -0.39683485753E+03  0.49235590611E+03  0.00000000000E+00 0.  1.
        -15    1    3    3    0    0 -0.98368981384E+02  0.11011291894E+03  0.12840815383E+03  0.19568628750E+03  0.17770000000E+01 0. -1.
         15    1    3    3    0    0 -0.98539557297E+02  0.18859391964E+02  0.15274079864E+03  0.18275292150E+03  0.17770000000E+01 0.  1.
</event>
<event>
 7    1  0.4133533E-006  0.5315009E+03  0.7546771E-02  0.9331958E-01
        -11   -1    0    0    0    0  0.00000000000E+00  0.00000000000E+00  0.50000000000E+03  0.50000000000E+03  0.00000000000E+00 0. -1.
         11   -1    0    0    0    0 -0.00000000000E+00 -0.00000000000E+00 -0.50000000000E+03  0.50000000000E+03  0.00000000000E+00 0.  1.
         23    2    1    2    0    0  0.16375419379E+02  0.14665442371E+03  0.18686327061E+03  0.25226430880E+03  0.83329017998E+02 0.  0.
        -11    1    1    2    0    0 -0.27231465090E+02 -0.54885516004E+02  0.27243184634E+03  0.27923660838E+03  0.00000000000E+00 0. -1.
         11    1    1    2    0    0  0.10856045711E+02 -0.91768907702E+02 -0.45929511695E+03  0.46849908282E+03  0.00000000000E+00 0.  1.
        -15    1    3    3    0    0  0.37659489239E+02  0.99710678366E+02  0.78925526404E+02  0.13263805245E+03  0.17770000000E+01 0. -1.
         15    1    3    3    0    0 -0.21284069860E+02  0.46943745340E+02  0.10793774421E+03  0.11962625636E+03  0.17770000000E+01 0.  1.
</event>
<event>
 7    1  0.4133533E-006  0.5125790E+03  0.7546771E-02  0.9372095E-01
        -11   -1    0    0    0    0  0.00000000000E+00  0.00000000000E+00  0.50000000000E+03  0.50000000000E+03  0.00000000000E+00 0. -1.
         11   -1    0    0    0    0 -0.00000000000E+00 -0.00000000000E+00 -0.50000000000E+03  0.50000000000E+03  0.00000000000E+00 0. -1.
         23    2    1    2    0    0 -0.33819666112E+01 -0.10715191785E+03 -0.39390501671E+03  0.41805726074E+03  0.90098500915E+02 0.  0.
        -11    1    1    2    0    0 -0.45028440302E+02  0.10050539961E+03  0.47481613867E+03  0.48742103086E+03  0.00000000000E+00 0. -1.
         11    1    1    2    0    0  0.48410406913E+02  0.66465182407E+01 -0.80911121955E+02  0.94521708397E+02  0.00000000000E+00 0. -1.
        -15    1    3    3    0    0 -0.41236511500E+02 -0.83008255814E+02 -0.29921319690E+03  0.31324513619E+03  0.17770000000E+01 0. -1.
         15    1    3    3    0    0  0.37854544889E+02 -0.24143662037E+02 -0.94691819810E+02  0.10481212455E+03  0.17770000000E+01 0.  1.
</event>
<event>
 7    1  0.4133533E-006  0.5132494E+03  0.7546771E-02  0.9370642E-01
        -11   -1    0    0    0    0  0.00000000000E+00  0.00000000000E+00  0.50000000000E+03  0.50000000000E+03  0.00000000000E+00 0.  1.
         11   -1    0    0    0    0 -0.00000000000E+00 -0.00000000000E+00 -0.50000000000E+03  0.50000000000E+03  0.00000000000E+00 0. -1.
         23    2    1    2    0    0 -0.91566067314E+01  0.48624917947E+02 -0.14834038349E+03  0.18034203936E+03  0.89834045282E+02 0.  0.
        -11    1    1    2    0    0  0.91058354693E+02 -0.11519095015E+03  0.46407500298E+03  0.48675064185E+03  0.00000000000E+00 0.  1.
         11    1    1    2    0    0 -0.81901747961E+02  0.66566032200E+02 -0.31573461949E+03  0.33290731879E+03  0.00000000000E+00 0. -1.
        -15    1    3    3    0    0 -0.40667818682E+02  0.20861046181E+02 -0.29856375455E+02  0.54622482628E+02  0.17770000000E+01 0.  1.
         15    1    3    3    0    0  0.31511211950E+02  0.27763871767E+02 -0.11848400804E+03  0.12571955673E+03  0.17770000000E+01 0. -1.
</event>
<event>
 7    1  0.4133533E-006  0.5303595E+03  0.7546771E-02  0.9334328E-01
        -11   -1    0    0    0    0  0.00000000000E+00  0.00000000000E+00  0.50000000000E+03  0.50000000000E+03  0.00000000000E+00 0.  1.
         11   -1    0    0    0    0 -0.00000000000E+00 -0.00000000000E+00 -0.50000000000E+03  0.50000000000E+03  0.00000000000E+00 0. -1.
         23    2    1    2    0    0 -0.33590260563E+02  0.22104456066E+02 -0.17043059002E+03  0.19733174876E+03  0.90974284659E+02 0.  0.
        -11    1    1    2    0    0 -0.52890398787E+02  0.15074643700E+03  0.44163371256E+03  0.46964052064E+03  0.00000000000E+00 0.  1.
         11    1    1    2    0    0  0.86480659349E+02 -0.17285089307E+03 -0.27120312254E+03  0.33302773060E+03  0.00000000000E+00 0. -1.
        -15    1    3    3    0    0 -0.65165545807E+01  0.55222749878E+02 -0.82129457473E+02  0.99198906756E+02  0.17770000000E+01 0.  1.
         15    1    3    3    0    0 -0.27073705982E+02 -0.33118293812E+02 -0.88301132550E+02  0.98132842002E+02  0.17770000000E+01 0. -1.
</event>
<event>
 7    1  0.4133533E-006  0.4529776E+03  0.7546771E-02  0.9511646E-01
        -11   -1    0    0    0    0  0.00000000000E+00  0.00000000000E+00  0.50000000000E+03  0.50000000000E+03  0.00000000000E+00 0.  1.
         11   -1    0    0    0    0 -0.00000000000E+00 -0.00000000000E+00 -0.50000000000E+03  0.50000000000E+03  0.00000000000E+00 0. -1.
         23    2    1    2    0    0  0.21032964986E+02  0.14957827748E+03 -0.41015576707E+03  0.44594811645E+03  0.88464244748E+02 0.  0.
        -11    1    1    2    0    0 -0.11699894420E+03 -0.13552984654E+03  0.41999388605E+03  0.45656539133E+03  0.00000000000E+00 0.  1.
         11    1    1    2    0    0  0.95965979215E+02 -0.14048430944E+02 -0.98381189778E+01  0.97486492212E+02  0.00000000000E+00 0. -1.
        -15    1    3    3    0    0  0.26106409055E+00  0.15106167972E+03 -0.38272388008E+03  0.41146132911E+03  0.17770000000E+01 0. -1.
         15    1    3    3    0    0  0.20771900895E+02 -0.14834022396E+01 -0.27431886985E+02  0.34486787348E+02  0.17770000000E+01 0.  1.
</event>
<event>
 7    1  0.4133533E-006  0.5397686E+03  0.7546771E-02  0.9314973E-01
        -11   -1    0    0    0    0  0.00000000000E+00  0.00000000000E+00  0.50000000000E+03  0.50000000000E+03  0.00000000000E+00 0. -1.
         11   -1    0    0    0    0 -0.00000000000E+00 -0.00000000000E+00 -0.50000000000E+03  0.50000000000E+03  0.00000000000E+00 0.  1.
         23    2    1    2    0    0  0.59709577027E+01 -0.95176464526E+01 -0.20913528206E+03  0.22930125330E+03  0.93355560250E+02 0.  0.
        -11    1    1    2    0    0 -0.24275345055E+03  0.13252302694E+03  0.36786051043E+03  0.46023140435E+03  0.00000000000E+00 0. -1.
         11    1    1    2    0    0  0.23678249284E+03 -0.12300538049E+03 -0.15872522837E+03  0.31046734235E+03  0.00000000000E+00 0.  1.
        -15    1    3    3    0    0 -0.19812555216E+02 -0.34318347765E+02 -0.17630661939E+03  0.18071377399E+03  0.17770000000E+01 0.  1.
         15    1    3    3    0    0  0.25783512918E+02  0.24800701312E+02 -0.32828662670E+02  0.48587479310E+02  0.17770000000E+01 0. -1.
</event>
<event>
 7    1  0.4133533E-006  0.5134484E+03  0.7546771E-02  0.9370211E-01
        -11   -1    0    0    0    0  0.00000000000E+00  0.00000000000E+00  0.50000000000E+03  0.50000000000E+03  0.00000000000E+00 0.  1.
         11   -1    0    0    0    0 -0.00000000000E+00 -0.00000000000E+00 -0.50000000000E+03  0.50000000000E+03  0.00000000000E+00 0.  1.
         23    2    1    2    0    0  0.64854862596E+02  0.62543244876E+02  0.39174267331E+03  0.41239871630E+03  0.92155132412E+02 0.  0.
        -11    1    1    2    0    0  0.43886544821E+02  0.63165260828E+02  0.65537473903E+02  0.10104968816E+03  0.00000000000E+00 0.  1.
         11    1    1    2    0    0 -0.10874140742E+03 -0.12570850570E+03 -0.45728014721E+03  0.48655159554E+03  0.00000000000E+00 0.  1.
        -15    1    3    3    0    0  0.26531692906E+02  0.81235212275E+02  0.23989384505E+03  0.25466704746E+03  0.17770000000E+01 0. -1.
         15    1    3    3    0    0  0.38323169690E+02 -0.18691967399E+02  0.15184882826E+03  0.15773166883E+03  0.17770000000E+01 0.  1.
</event>
<event>
 7    1  0.4133533E-006  0.3637722E+03  0.7546771E-02  0.9769948E-01
        -11   -1    0    0    0    0  0.00000000000E+00  0.00000000000E+00  0.50000000000E+03  0.50000000000E+03  0.00000000000E+00 0.  1.
         11   -1    0    0    0    0 -0.00000000000E+00 -0.00000000000E+00 -0.50000000000E+03  0.50000000000E+03  0.00000000000E+00 0. -1.
         23    2    1    2    0    0  0.18918578121E+03  0.10547502895E+03 -0.42593338591E+02  0.23970313777E+03  0.93419271151E+02 0.  0.
        -11    1    1    2    0    0 -0.39316991154E+02  0.66569376594E+02  0.36066109288E+03  0.36885462124E+03  0.00000000000E+00 0.  1.
         11    1    1    2    0    0 -0.14986879005E+03 -0.17204440555E+03 -0.31806775429E+03  0.39144224099E+03  0.00000000000E+00 0. -1.
        -15    1    3    3    0    0  0.18597624337E+03  0.91498466079E+02 -0.14096773002E+02  0.20775227828E+03  0.17770000000E+01 0. -1.
         15    1    3    3    0    0  0.32095378360E+01  0.13976562875E+02 -0.28496565589E+02  0.31950859492E+02  0.17770000000E+01 0.  1.
</event>
<event>
 7    1  0.4133533E-006  0.5144004E+03  0.7546771E-02  0.9368152E-01
        -11   -1    0    0    0    0  0.00000000000E+00  0.00000000000E+00  0.50000000000E+03  0.50000000000E+03  0.00000000000E+00 0. -1.
         11   -1    0    0    0    0 -0.00000000000E+00 -0.00000000000E+00 -0.50000000000E+03  0.50000000000E+03  0.00000000000E+00 0. -1.
         23    2    1    2    0    0  0.33586237015E+02 -0.36001706118E+02 -0.40637382578E+03  0.41978416437E+03  0.93031716169E+02 0.  0.
        -11    1    1    2    0    0  0.46672255118E+01  0.84252953118E+02  0.47821194330E+03  0.48559963532E+03  0.00000000000E+00 0. -1.
         11    1    1    2    0    0 -0.38253462527E+02 -0.48251247000E+02 -0.71838117524E+02  0.94616200314E+02  0.00000000000E+00 0. -1.
        -15    1    3    3    0    0 -0.23970287391E+02  0.14751678130E+02 -0.95737406036E+02  0.99804786102E+02  0.17770000000E+01 0.  1.
         15    1    3    3    0    0  0.57556524406E+02 -0.50753384248E+02 -0.31063641974E+03  0.31997937826E+03  0.17770000000E+01 0. -1.
</event>
<event>
 7    1  0.4133533E-006  0.4091607E+03  0.7546771E-02  0.9629714E-01
        -11   -1    0    0    0    0  0.00000000000E+00  0.00000000000E+00  0.50000000000E+03  0.50000000000E+03  0.00000000000E+00 0. -1.
         11   -1    0    0    0    0 -0.00000000000E+00 -0.00000000000E+00 -0.50000000000E+03  0.50000000000E+03  0.00000000000E+00 0.  1.
         23    2    1    2    0    0 -0.53609161870E+02 -0.10596999694E+03 -0.82190918247E+02  0.16903139212E+03  0.87821876513E+02 0.  0.
        -11    1    1    2    0    0 -0.11309551349E+03  0.19297206829E+03  0.40196396333E+03  0.46000417620E+03  0.00000000000E+00 0. -1.
         11    1    1    2    0    0  0.16670467536E+03 -0.87002071357E+02 -0.31977304508E+03  0.37096443167E+03  0.00000000000E+00 0.  1.
        -15    1    3    3    0    0  0.59545681424E+01 -0.11240723420E+02  0.15743157919E+02  0.20317861478E+02  0.17770000000E+01 0.  1.
         15    1    3    3    0    0 -0.59563730012E+02 -0.94729273515E+02 -0.97934076167E+02  0.14871353065E+03  0.17770000000E+01 0. -1.
</event>
<event>
 7    1  0.4133533E-006  0.5210069E+03  0.7546771E-02  0.9353994E-01
        -11   -1    0    0    0    0  0.00000000000E+00  0.00000000000E+00  0.50000000000E+03  0.50000000000E+03  0.00000000000E+00 0.  1.
         11   -1    0    0    0    0 -0.00000000000E+00 -0.00000000000E+00 -0.50000000000E+03  0.50000000000E+03  0.00000000000E+00 0. -1.
         23    2    1    2    0    0  0.57320357681E+02 -0.51356996817E+02 -0.38552576090E+03  0.40363039919E+03  0.91456122279E+02 0.  0.
        -11    1    1    2    0    0  0.15309334796E+02  0.86075548194E+02  0.47094697374E+03  0.47899313962E+03  0.00000000000E+00 0.  1.
         11    1    1    2    0    0 -0.72629692478E+02 -0.34718551378E+02 -0.85421212837E+02  0.11737646119E+03  0.00000000000E+00 0. -1.
        -15    1    3    3    0    0  0.21402542932E+02  0.25608499686E+02 -0.85205762103E+02  0.91526191468E+02  0.17770000000E+01 0.  1.
         15    1    3    3    0    0  0.35917814750E+02 -0.76965496503E+02 -0.30031999880E+03  0.31210420772E+03  0.17770000000E+01 0. -1.
</event>
<event>
 7    1  0.4133533E-006  0.3612923E+03  0.7546771E-02  0.9778235E-01
        -11   -1    0    0    0    0  0.00000000000E+00  0.00000000000E+00  0.50000000000E+03  0.50000000000E+03  0.00000000000E+00 0.  1.
         11   -1    0    0    0    0 -0.00000000000E+00 -0.00000000000E+00 -0.50000000000E+03  0.50000000000E+03  0.00000000000E+00 0. -1.
         23    2    1    2    0    0 -0.13497325477E+02  0.12744449855E+03 -0.18581230251E+03  0.24298025115E+03  0.89938382672E+02 0.  0.
        -11    1    1    2    0    0 -0.92672821509E+02 -0.23273081750E+02  0.44664836427E+03  0.45675447396E+03  0.00000000000E+00 0.  1.
         11    1    1    2    0    0  0.10617014699E+03 -0.10417141680E+03 -0.26083606175E+03  0.30026527489E+03  0.00000000000E+00 0. -1.
        -15    1    3    3    0    0  0.31688872977E+02  0.17490942128E+02 -0.58265491852E+02  0.68615909211E+02  0.17770000000E+01 0.  1.
         15    1    3    3    0    0 -0.45186198455E+02  0.10995355643E+03 -0.12754681066E+03  0.17436434194E+03  0.17770000000E+01 0. -1.
</event>
<event>
 7    1  0.4133533E-006  0.3652278E+03  0.7546771E-02  0.9765117E-01
        -11   -1    0    0    0    0  0.00000000000E+00  0.00000000000E+00  0.50000000000E+03  0.50000000000E+03  0.00000000000E+00 0. -1.
         11   -1    0    0    0    0 -0.00000000000E+00 -0.00000000000E+00 -0.50000000000E+03  0.50000000000E+03  0.00000000000E+00 0.  1.
         23    2    1    2    0    0  0.47365722722E+02 -0.27293417186E+03 -0.21661605152E+03  0.36355765077E+03  0.92277179212E+02 0.  0.
        -11    1    1    2    0    0 -0.64310264591E+02  0.93615945348E+02  0.37794285560E+03  0.39463978189E+03  0.00000000000E+00 0. -1.
         11    1    1    2    0    0  0.16944541869E+02  0.17931822651E+03 -0.16132680408E+03  0.24180256734E+03  0.00000000000E+00 0.  1.
        -15    1    3    3    0    0  0.63519651477E+02 -0.20860602099E+03 -0.12801748113E+03  0.25286923759E+03  0.17770000000E+01 0. -1.
         15    1    3    3    0    0 -0.16153928755E+02 -0.64328150871E+02 -0.88598570392E+02  0.11068841318E+03  0.17770000000E+01 0.  1.
</event>
<event>
 7    1  0.4133533E-006  0.3626448E+03  0.7546771E-02  0.9773706E-01
        -11   -1    0    0    0    0  0.00000000000E+00  0.00000000000E+00  0.50000000000E+03  0.50000000000E+03  0.00000000000E+00 0.  1.
         11   -1    0    0    0    0 -0.00000000000E+00 -0.00000000000E+00 -0.50000000000E+03  0.50000000000E+03  0.00000000000E+00 0.  1.
         23    2    1    2    0    0  0.14765996056E+03  0.50978199908E+02 -0.15953655079E+03  0.24111978360E+03  0.91019768111E+02 0.  0.
        -11    1    1    2    0    0  0.83823456483E+02  0.54898767363E+02  0.39779655480E+03  0.41022231232E+03  0.00000000000E+00 0.  1.
         11    1    1    2    0    0 -0.23148341705E+03 -0.10587696727E+03 -0.23826000401E+03  0.34865790408E+03  0.00000000000E+00 0.  1.
        -15    1    3    3    0    0  0.55382382061E+01  0.36668888478E+02 -0.42616060660E+02  0.56520490265E+02  0.17770000000E+01 0.  1.
         15    1    3    3    0    0  0.14212172236E+03  0.14309311430E+02 -0.11692049013E+03  0.18459929334E+03  0.17770000000E+01 0. -1.
</event>
<event>
 7    1  0.4133533E-006  0.4420796E+03  0.7546771E-02  0.9539639E-01
        -11   -1    0    0    0    0  0.00000000000E+00  0.00000000000E+00  0.50000000000E+03  0.50000000000E+03  0.00000000000E+00 0.  1.
         11   -1    0    0    0    0 -0.00000000000E+00 -0.00000000000E+00 -0.50000000000E+03  0.50000000000E+03  0.00000000000E+00 0. -1.
         23    2    1    2    0    0 -0.72922139055E+00  0.12572704973E+03  0.38875109800E+03  0.41832620729E+03  0.89786283544E+02 0.  0.
        -11    1    1    2    0    0 -0.99508599158E+02 -0.29632599823E+02  0.54443328067E+02  0.11723535409E+03  0.00000000000E+00 0.  1.
         11    1    1    2    0    0  0.10023782055E+03 -0.96094449909E+02 -0.44319442606E+03  0.46443843862E+03  0.00000000000E+00 0. -1.
        -15    1    3    3    0    0 -0.44684666092E+02  0.67333746819E+02  0.18634445884E+03  0.20312057481E+03  0.17770000000E+01 0.  1.
         15    1    3    3    0    0  0.43955444701E+02  0.58393302914E+02  0.20240663916E+03  0.21520563248E+03  0.17770000000E+01 0. -1.
</event>
<event>
 7    1  0.4133533E-006  0.5116736E+03  0.7546771E-02  0.9374061E-01
        -11   -1    0    0    0    0  0.00000000000E+00  0.00000000000E+00  0.50000000000E+03  0.50000000000E+03  0.00000000000E+00 0.  1.
         11   -1    0    0    0    0 -0.00000000000E+00 -0.00000000000E+00 -0.50000000000E+03  0.50000000000E+03  0.00000000000E+00 0. -1.
         23    2    1    2    0    0 -0.47716882610E+02 -0.10337302609E+03  0.29345445299E+03  0.33773948868E+03  0.12243187012E+03 0.  0.
        -11    1    1    2    0    0 -0.13436591926E+02 -0.52145821577E+02  0.16538846272E+03  0.17393410335E+03  0.00000000000E+00 0.  1.
         11    1    1    2    0    0  0.61153474536E+02  0.15551884766E+03 -0.45884291571E+03  0.48832640797E+03  0.00000000000E+00 0. -1.
        -15    1    3    3    0    0  0.28635930627E+02 -0.47646799982E+02  0.18825724054E+03  0.19630124914E+03  0.17770000000E+01 0.  1.
         15    1    3    3    0    0 -0.76352813237E+02 -0.55726226104E+02  0.10519721246E+03  0.14143823953E+03  0.17770000000E+01 0. -1.
</event>
<event>
 7    1  0.4133533E-006  0.3473524E+03  0.7546771E-02  0.9826180E-01
        -11   -1    0    0    0    0  0.00000000000E+00  0.00000000000E+00  0.50000000000E+03  0.50000000000E+03  0.00000000000E+00 0.  1.
         11   -1    0    0    0    0 -0.00000000000E+00 -0.00000000000E+00 -0.50000000000E+03  0.50000000000E+03  0.00000000000E+00 0. -1.
         23    2    1    2    0    0  0.14062140052E+03  0.19136840658E+03 -0.66051454953E+02  0.26286105589E+03  0.91306597132E+02 0.  0.
        -11    1    1    2    0    0  0.11226350903E+03  0.11384692165E+03  0.25269176993E+03  0.29902733590E+03  0.00000000000E+00 0.  1.
         11    1    1    2    0    0 -0.25288490955E+03 -0.30521532824E+03 -0.18664031497E+03  0.43811160820E+03  0.00000000000E+00 0. -1.
        -15    1    3    3    0    0  0.37046264005E+02  0.11946375488E+03 -0.53798558121E+02  0.13616701873E+03  0.17770000000E+01 0.  1.
         15    1    3    3    0    0  0.10357513652E+03  0.71904651709E+02 -0.12252896832E+02  0.12669403716E+03  0.17770000000E+01 0. -1.
</event>
<event>
 7    1  0.4133533E-006  0.4573226E+03  0.7546771E-02  0.9500718E-01
        -11   -1    0    0    0    0  0.00000000000E+00  0.00000000000E+00  0.50000000000E+03  0.50000000000E+03  0.00000000000E+00 0. -1.
         11   -1    0    0    0    0 -0.00000000000E+00 -0.00000000000E+00 -0.50000000000E+03  0.50000000000E+03  0.00000000000E+00 0.  1.
         23    2    1    2    0    0  0.16980890695E+03  0.11252075793E+03 -0.35424532715E+03  0.41938610237E+03  0.94334326767E+02 0.  0.
        -11    1    1    2    0    0 -0.23521449387E+03 -0.15420991658E+03  0.40118423754E+03  0.48995443559E+03  0.00000000000E+00 0. -1.
         11    1    1    2    0    0  0.65405586915E+02  0.41689158651E+02 -0.46938910397E+02  0.90659462043E+02  0.00000000000E+00 0.  1.
        -15    1    3    3    0    0  0.44152709161E+02 -0.76005442380E+01 -0.11674773609E+03  0.12506167123E+03  0.17770000000E+01 0.  1.
         15    1    3    3    0    0  0.12565619779E+03  0.12012130217E+03 -0.23749759105E+03  0.29432443114E+03  0.17770000000E+01 0. -1.
</event>
<event>
 6    1  0.4133533E-006  0.5558884E+03  0.7546771E-02  0.9282766E-01
        -11   -1    0    0    0    0  0.00000000000E+00  0.00000000000E+00  0.50000000000E+03  0.50000000000E+03  0.00000000000E+00 0.  1.
         11   -1    0    0    0    0 -0.00000000000E+00 -0.00000000000E+00 -0.50000000000E+03  0.50000000000E+03  0.00000000000E+00 0. -1.
        -11    1    1    2    0    0 -0.17135128114E+03  0.95704200357E+02  0.39839000497E+03  0.44411164314E+03  0.00000000000E+00 0.  1.
         11    1    1    2    0    0  0.56624822498E+02 -0.16444913735E+03 -0.26897137781E+03  0.32030530963E+03  0.00000000000E+00 0. -1.
        -15    1    1    2    0    0  0.32609522784E+01  0.83703425165E+02 -0.64291570504E+02  0.10560994726E+03  0.17770000000E+01 0.  1.
         15    1    1    2    0    0  0.11146550636E+03 -0.14958488174E+02 -0.65127056657E+02  0.12997309997E+03  0.17770000000E+01 0. -1.
</event>
<event>
 7    1  0.4133533E-006  0.4856391E+03  0.7546771E-02  0.9432529E-01
        -11   -1    0    0    0    0  0.00000000000E+00  0.00000000000E+00  0.50000000000E+03  0.50000000000E+03  0.00000000000E+00 0. -1.
         11   -1    0    0    0    0 -0.00000000000E+00 -0.00000000000E+00 -0.50000000000E+03  0.50000000000E+03  0.00000000000E+00 0.  1.
         23    2    1    2    0    0  0.69694333858E+02 -0.46850025917E+02 -0.46442771690E+03  0.48077107241E+03  0.91626932418E+02 0.  0.
        -11    1    1    2    0    0 -0.57504803589E+02  0.80626340088E+02  0.47221327796E+03  0.48248605061E+03  0.00000000000E+00 0. -1.
         11    1    1    2    0    0 -0.12189530269E+02 -0.33776314171E+02 -0.77855610627E+01  0.36742876973E+02  0.00000000000E+00 0.  1.
        -15    1    3    3    0    0  0.34345430855E+02 -0.69206006018E+02 -0.36126092264E+03  0.36943428624E+03  0.17770000000E+01 0.  1.
         15    1    3    3    0    0  0.35348903003E+02  0.22355980102E+02 -0.10316679426E+03  0.11133678618E+03  0.17770000000E+01 0. -1.
</event>
<event>
 7    1  0.4133533E-006  0.5152442E+03  0.7546771E-02  0.9366331E-01
        -11   -1    0    0    0    0  0.00000000000E+00  0.00000000000E+00  0.50000000000E+03  0.50000000000E+03  0.00000000000E+00 0. -1.
         11   -1    0    0    0    0 -0.00000000000E+00 -0.00000000000E+00 -0.50000000000E+03  0.50000000000E+03  0.00000000000E+00 0.  1.
         23    2    1    2    0    0  0.46816580200E+02 -0.85860742671E+01  0.13264160131E+03  0.16803291093E+03  0.91519134078E+02 0.  0.
        -11    1    1    2    0    0  0.53523644983E+02  0.42815823587E+02  0.34037880852E+03  0.34721133134E+03  0.00000000000E+00 0. -1.
         11    1    1    2    0    0 -0.10034022518E+03 -0.34229749320E+02 -0.47302040984E+03  0.48475575773E+03  0.00000000000E+00 0.  1.
        -15    1    3    3    0    0 -0.18034504215E+02  0.84511919378E+01  0.80859702458E+02  0.83295349198E+02  0.17770000000E+01 0. -1.
         15    1    3    3    0    0  0.64851084415E+02 -0.17037266205E+02  0.51781898857E+02  0.84737561729E+02  0.17770000000E+01 0.  1.
</event>
<event>
 7    1  0.4133533E-006  0.5131274E+03  0.7546771E-02  0.9370906E-01
        -11   -1    0    0    0    0  0.00000000000E+00  0.00000000000E+00  0.50000000000E+03  0.50000000000E+03  0.00000000000E+00 0. -1.
         11   -1    0    0    0    0 -0.00000000000E+00 -0.00000000000E+00 -0.50000000000E+03  0.50000000000E+03  0.00000000000E+00 0. -1.
         23    2    1    2    0    0 -0.12664470101E+03 -0.70654717057E+02 -0.35306049924E+03  0.39248231975E+03  0.91431317738E+02 0.  0.
        -11    1    1    2    0    0  0.10334186772E+03  0.12128214542E+03  0.46006087786E+03  0.48687258267E+03  0.00000000000E+00 0. -1.
         11    1    1    2    0    0  0.23302833292E+02 -0.50627428362E+02 -0.10700037863E+03  0.12064509757E+03  0.00000000000E+00 0. -1.
        -15    1    3    3    0    0  0.76802836514E+01 -0.13427838087E+02 -0.73878737439E+01  0.17234616332E+02  0.17770000000E+01 0.  1.
         15    1    3    3    0    0 -0.13432498466E+03 -0.57226878970E+02 -0.34567262549E+03  0.37524770342E+03  0.17770000000E+01 0. -1.
</event>
<event>
 7    1  0.4133533E-006  0.3898065E+03  0.7546771E-02  0.9687008E-01
        -11   -1    0    0    0    0  0.00000000000E+00  0.00000000000E+00  0.50000000000E+03  0.50000000000E+03  0.00000000000E+00 0.  1.
         11   -1    0    0    0    0 -0.00000000000E+00 -0.00000000000E+00 -0.50000000000E+03  0.50000000000E+03  0.00000000000E+00 0. -1.
         23    2    1    2    0    0 -0.19227689906E+02  0.10261401885E+03 -0.42780052401E+03  0.45221569272E+03  0.10289024965E+03 0.  0.
        -11    1    1    2    0    0  0.63408930784E+02  0.72512906736E+02  0.32711252965E+03  0.34100061760E+03  0.00000000000E+00 0.  1.
         11    1    1    2    0    0 -0.44181240878E+02 -0.17512692559E+03  0.10068799435E+03  0.20678368968E+03  0.00000000000E+00 0. -1.
        -15    1    3    3    0    0  0.17590743939E+02 -0.14020138017E+02 -0.95136215084E+02  0.97775537287E+02  0.17770000000E+01 0.  1.
         15    1    3    3    0    0 -0.36818433845E+02  0.11663415687E+03 -0.33266430892E+03  0.35444015543E+03  0.17770000000E+01 0. -1.
</event>
<event>
 7    1  0.4133533E-006  0.5155462E+03  0.7546771E-02  0.9365681E-01
        -11   -1    0    0    0    0  0.00000000000E+00  0.00000000000E+00  0.50000000000E+03  0.50000000000E+03  0.00000000000E+00 0.  1.
         11   -1    0    0    0    0 -0.00000000000E+00 -0.00000000000E+00 -0.50000000000E+03  0.50000000000E+03  0.00000000000E+00 0.  1.
         23    2    1    2    0    0  0.10380821696E+03 -0.52135289261E+02  0.24066307359E+03  0.28255679720E+03  0.91789946937E+02 0.  0.
        -11    1    1    2    0    0 -0.23799562062E+02 -0.35406909330E+02  0.22905014827E+03  0.23298935342E+03  0.00000000000E+00 0.  1.
         11    1    1    2    0    0 -0.80008654894E+02  0.87542198591E+02 -0.46971322186E+03  0.48445384938E+03  0.00000000000E+00 0.  1.
        -15    1    3    3    0    0  0.23348130835E+01 -0.34441703670E+02  0.11489259074E+03  0.11997977929E+03  0.17770000000E+01 0.  1.
         15    1    3    3    0    0  0.10147340387E+03 -0.17693585591E+02  0.12577048285E+03  0.16257701790E+03  0.17770000000E+01 0. -1.
</event>
<event>
 7    1  0.4133533E-006  0.5252087E+03  0.7546771E-02  0.9345105E-01
        -11   -1    0    0    0    0  0.00000000000E+00  0.00000000000E+00  0.50000000000E+03  0.50000000000E+03  0.00000000000E+00 0.  1.
         11   -1    0    0    0    0 -0.00000000000E+00 -0.00000000000E+00 -0.50000000000E+03  0.50000000000E+03  0.00000000000E+00 0. -1.
         23    2    1    2    0    0 -0.72574581023E+01  0.52884803640E+02 -0.22542255151E+03  0.24872539884E+03  0.90551223866E+02 0.  0.
        -11    1    1    2    0    0  0.34766524761E+02  0.78950274269E+02  0.46688850407E+03  0.47479125128E+03  0.00000000000E+00 0.  1.
         11    1    1    2    0    0 -0.27509066659E+02 -0.13183507791E+03 -0.24146595256E+03  0.27648334988E+03  0.00000000000E+00 0. -1.
        -15    1    3    3    0    0  0.19523272755E+02  0.30970238713E+02 -0.20552713904E+03  0.20876991276E+03  0.17770000000E+01 0.  1.
         15    1    3    3    0    0 -0.26780730857E+02  0.21914564927E+02 -0.19895412476E+02  0.39955486079E+02  0.17770000000E+01 0. -1.
</event>
<event>
 7    1  0.4133533E-006  0.5029230E+03  0.7546771E-02  0.9393293E-01
        -11   -1    0    0    0    0  0.00000000000E+00  0.00000000000E+00  0.50000000000E+03  0.50000000000E+03  0.00000000000E+00 0.  1.
         11   -1    0    0    0    0 -0.00000000000E+00 -0.00000000000E+00 -0.50000000000E+03  0.50000000000E+03  0.00000000000E+00 0. -1.
         23    2    1    2    0    0 -0.94868092640E+02  0.16328298995E+03 -0.45694760938E+03  0.50292299853E+03  0.92027902947E+02 0.  0.
        -11    1    1    2    0    0  0.76137030309E+02 -0.12323452005E+03  0.39690268289E+03  0.42251075016E+03  0.00000000000E+00 0.  1.
         11    1    1    2    0    0  0.18731062331E+02 -0.40048469906E+02  0.60044926488E+02  0.74566251313E+02  0.00000000000E+00 0. -1.
        -15    1    3    3    0    0 -0.55228176157E+01 -0.11894958045E+02 -0.24039930413E+02  0.27442075807E+02  0.17770000000E+01 0.  1.
         15    1    3    3    0    0 -0.89345275024E+02  0.17517794800E+03 -0.43290767897E+03  0.47548092272E+03  0.17770000000E+01 0. -1.
</event>
<event>
 7    1  0.4133533E-006  0.5091920E+03  0.7546771E-02  0.9379474E-01
        -11   -1    0    0    0    0  0.00000000000E+00  0.00000000000E+00  0.50000000000E+03  0.50000000000E+03  0.00000000000E+00 0. -1.
         11   -1    0    0    0    0 -0.00000000000E+00 -0.00000000000E+00 -0.50000000000E+03  0.50000000000E+03  0.00000000000E+00 0.  1.
         23    2    1    2    0    0  0.45622101523E+02  0.37404988421E+02  0.23602419178E+03  0.25988138449E+03  0.91380553684E+02 0.  0.
        -11    1    1    2    0    0  0.70065924523E+01  0.53161585072E+02  0.24347596038E+03  0.24931062904E+03  0.00000000000E+00 0. -1.
         11    1    1    2    0    0 -0.52628693975E+02 -0.90566573494E+02 -0.47950015216E+03  0.49080798648E+03  0.00000000000E+00 0.  1.
        -15    1    3    3    0    0  0.54219957906E+02 -0.95466484925E+01  0.83324100085E+02  0.99884962416E+02  0.17770000000E+01 0. -1.
         15    1    3    3    0    0 -0.85978563830E+01  0.46951636914E+02  0.15270009169E+03  0.15999642207E+03  0.17770000000E+01 0.  1.
</event>
<event>
 7    1  0.4133533E-006  0.4479323E+03  0.7546771E-02  0.9524500E-01
        -11   -1    0    0    0    0  0.00000000000E+00  0.00000000000E+00  0.50000000000E+03  0.50000000000E+03  0.00000000000E+00 0.  1.
         11   -1    0    0    0    0 -0.00000000000E+00 -0.00000000000E+00 -0.50000000000E+03  0.50000000000E+03  0.00000000000E+00 0. -1.
         23    2    1    2    0    0 -0.47996571409E+01 -0.41247266381E+02  0.86273234357E+00  0.10317304843E+03  0.94443421811E+02 0.  0.
        -11    1    1    2    0    0  0.37353615263E+02  0.13846125134E+03  0.43033870524E+03  0.45360578912E+03  0.00000000000E+00 0.  1.
         11    1    1    2    0    0 -0.32553958122E+02 -0.97213984955E+02 -0.43120143759E+03  0.44322116244E+03  0.00000000000E+00 0. -1.
        -15    1    3    3    0    0 -0.72048617959E+01 -0.66674794395E+02 -0.20154601369E+02  0.70048582616E+02  0.17770000000E+01 0.  1.
         15    1    3    3    0    0  0.24052046550E+01  0.25427528014E+02  0.21017333713E+02  0.33124465818E+02  0.17770000000E+01 0. -1.
</event>
<event>
 7    1  0.4133533E-006  0.4696443E+03  0.7546771E-02  0.9470418E-01
        -11   -1    0    0    0    0  0.00000000000E+00  0.00000000000E+00  0.50000000000E+03  0.50000000000E+03  0.00000000000E+00 0.  1.
         11   -1    0    0    0    0 -0.00000000000E+00 -0.00000000000E+00 -0.50000000000E+03  0.50000000000E+03  0.00000000000E+00 0. -1.
         23    2    1    2    0    0  0.69109896795E+02  0.71070915693E+02  0.42530222433E+03  0.44439772326E+03  0.82341371944E+02 0.  0.
        -11    1    1    2    0    0 -0.18322234295E+02  0.39307276807E+02  0.49319748761E+02  0.65674986847E+02  0.00000000000E+00 0.  1.
         11    1    1    2    0    0 -0.50787662500E+02 -0.11037819250E+03 -0.47462197309E+03  0.48992728989E+03  0.00000000000E+00 0. -1.
        -15    1    3    3    0    0  0.77433087925E+02  0.25674193052E+02  0.24293734241E+03  0.25627476926E+03  0.17770000000E+01 0. -1.
         15    1    3    3    0    0 -0.83231911299E+01  0.45396722641E+02  0.18236488192E+03  0.18812295400E+03  0.17770000000E+01 0.  1.
</event>
<event>
 7    1  0.4133533E-006  0.5148470E+03  0.7546771E-02  0.9367188E-01
        -11   -1    0    0    0    0  0.00000000000E+00  0.00000000000E+00  0.50000000000E+03  0.50000000000E+03  0.00000000000E+00 0. -1.
         11   -1    0    0    0    0 -0.00000000000E+00 -0.00000000000E+00 -0.50000000000E+03  0.50000000000E+03  0.00000000000E+00 0. -1.
         23    2    1    2    0    0 -0.85799292518E+02  0.43539706716E+02  0.34048013813E+03  0.36548111046E+03  0.91610550623E+02 0.  0.
        -11    1    1    2    0    0 -0.99012600232E+01  0.95606185287E+02  0.11433107976E+03  0.14936590446E+03  0.00000000000E+00 0. -1.
         11    1    1    2    0    0  0.95700552541E+02 -0.13914589200E+03 -0.45481121789E+03  0.48515298508E+03  0.00000000000E+00 0. -1.
        -15    1    3    3    0    0 -0.34755354917E+02  0.20724529008E+01  0.24218108284E+02  0.42448842791E+02  0.17770000000E+01 0.  1.
         15    1    3    3    0    0 -0.51043937601E+02  0.41467253815E+02  0.31626202984E+03  0.32303226767E+03  0.17770000000E+01 0. -1.
</event>
<event>
 7    1  0.4133533E-006  0.3691290E+03  0.7546771E-02  0.9752287E-01
        -11   -1    0    0    0    0  0.00000000000E+00  0.00000000000E+00  0.50000000000E+03  0.50000000000E+03  0.00000000000E+00 0. -1.
         11   -1    0    0    0    0 -0.00000000000E+00 -0.00000000000E+00 -0.50000000000E+03  0.50000000000E+03  0.00000000000E+00 0.  1.
         23    2    1    2    0    0 -0.12400043127E+03  0.15400494540E+03 -0.32941250423E+03  0.39423480012E+03  0.88401637549E+02 0.  0.
        -11    1    1    2    0    0  0.91911406456E+02  0.78229952148E+02  0.35018888047E+03  0.37040502704E+03  0.00000000000E+00 0. -1.
         11    1    1    2    0    0  0.32089024811E+02 -0.23223489755E+03 -0.20776376240E+02  0.23536017285E+03  0.00000000000E+00 0.  1.
        -15    1    3    3    0    0 -0.27383145804E+02  0.11121718565E+02 -0.10052972565E+02  0.31268982784E+02  0.17770000000E+01 0.  1.
         15    1    3    3    0    0 -0.96617285463E+02  0.14288322683E+03 -0.31935953166E+03  0.36296581733E+03  0.17770000000E+01 0. -1.
</event>
<event>
 7    1  0.4133533E-006  0.4947696E+03  0.7546771E-02  0.9411590E-01
        -11   -1    0    0    0    0  0.00000000000E+00  0.00000000000E+00  0.50000000000E+03  0.50000000000E+03  0.00000000000E+00 0.  1.
         11   -1    0    0    0    0 -0.00000000000E+00 -0.00000000000E+00 -0.50000000000E+03  0.50000000000E+03  0.00000000000E+00 0. -1.
         23    2    1    2    0    0 -0.44786268574E+02 -0.15252877064E+03 -0.45941576371E+03  0.49451727603E+03  0.90629226116E+02 0.  0.
        -11    1    1    2    0    0  0.42503755073E+02  0.13513542748E+03  0.46576099923E+03  0.48682795868E+03  0.00000000000E+00 0.  1.
         11    1    1    2    0    0  0.22825135014E+01  0.17393343158E+02 -0.63452355165E+01  0.18654765285E+02  0.00000000000E+00 0. -1.
        -15    1    3    3    0    0 -0.10506445816E+02  0.11095762247E+02 -0.48905477879E+02  0.51267970890E+02  0.17770000000E+01 0.  1.
         15    1    3    3    0    0 -0.34279822758E+02 -0.16362453288E+03 -0.41051028583E+03  0.44324930514E+03  0.17770000000E+01 0. -1.
</event>
<event>
 7    1  0.4133533E-006  0.4654193E+03  0.7546771E-02  0.9480695E-01
        -11   -1    0    0    0    0  0.00000000000E+00  0.00000000000E+00  0.50000000000E+03  0.50000000000E+03  0.00000000000E+00 0. -1.
         11   -1    0    0    0    0 -0.00000000000E+00 -0.00000000000E+00 -0.50000000000E+03  0.50000000000E+03  0.00000000000E+00 0. -1.
         23    2    1    2    0    0 -0.94990481754E+02 -0.43903576290E+02  0.40671786501E+03  0.42984201548E+03  0.91618889508E+02 0.  0.
        -11    1    1    2    0    0 -0.22936574764E+02 -0.84935540479E+01  0.71116808030E+02  0.75205234569E+02  0.00000000000E+00 0. -1.
         11    1    1    2    0    0  0.11792705652E+03  0.52397130338E+02 -0.47783467304E+03  0.49495274995E+03  0.00000000000E+00 0. -1.
        -15    1    3    3    0    0 -0.32945005068E+02  0.23603901088E+02  0.70466319466E+02  0.81309147170E+02  0.17770000000E+01 0.  1.
         15    1    3    3    0    0 -0.62045476686E+02 -0.67507477378E+02  0.33625154555E+03  0.34853286831E+03  0.17770000000E+01 0. -1.
</event>
<event>
 7    1  0.4133533E-006  0.4326772E+03  0.7546771E-02  0.9564491E-01
        -11   -1    0    0    0    0  0.00000000000E+00  0.00000000000E+00  0.50000000000E+03  0.50000000000E+03  0.00000000000E+00 0. -1.
         11   -1    0    0    0    0 -0.00000000000E+00 -0.00000000000E+00 -0.50000000000E+03  0.50000000000E+03  0.00000000000E+00 0.  1.
         23    2    1    2    0    0  0.17450604853E+02 -0.22431522723E+03 -0.33077051133E+03  0.41047831228E+03  0.91986243043E+02 0.  0.
        -11    1    1    2    0    0  0.41742057645E+02  0.15231622698E+03  0.42716997084E+03  0.45543036390E+03  0.00000000000E+00 0. -1.
         11    1    1    2    0    0 -0.59192662498E+02  0.71999000248E+02 -0.96399459506E+02  0.13409132382E+03  0.00000000000E+00 0.  1.
        -15    1    3    3    0    0 -0.36606263636E+02 -0.11039939921E+03 -0.17365845663E+03  0.20901785371E+03  0.17770000000E+01 0.  1.
         15    1    3    3    0    0  0.54056868488E+02 -0.11391582801E+03 -0.15711205471E+03  0.20146045857E+03  0.17770000000E+01 0. -1.
</event>
<event>
 7    1  0.4133533E-006  0.3463755E+03  0.7546771E-02  0.9829630E-01
        -11   -1    0    0    0    0  0.00000000000E+00  0.00000000000E+00  0.50000000000E+03  0.50000000000E+03  0.00000000000E+00 0.  1.
         11   -1    0    0    0    0 -0.00000000000E+00 -0.00000000000E+00 -0.50000000000E+03  0.50000000000E+03  0.00000000000E+00 0. -1.
         23    2    1    2    0    0 -0.89244853410E+02  0.18125884272E+03 -0.14372489931E+03  0.26421451080E+03  0.91285536164E+02 0.  0.
        -11    1    1    2    0    0 -0.67386893064E+02 -0.49978735908E+02  0.39959876587E+03  0.40831120617E+03  0.00000000000E+00 0.  1.
         11    1    1    2    0    0  0.15663174647E+03 -0.13128010682E+03 -0.25587386657E+03  0.32747428302E+03  0.00000000000E+00 0. -1.
        -15    1    3    3    0    0 -0.91111320167E+02  0.14460979832E+03 -0.14942724081E+03  0.22703507318E+03  0.17770000000E+01 0.  1.
         15    1    3    3    0    0  0.18664667569E+01  0.36649044408E+02  0.57023414991E+01  0.37179437620E+02  0.17770000000E+01 0. -1.
</event>
<event>
 7    1  0.4133533E-006  0.4575550E+03  0.7546771E-02  0.9500137E-01
        -11   -1    0    0    0    0  0.00000000000E+00  0.00000000000E+00  0.50000000000E+03  0.50000000000E+03  0.00000000000E+00 0. -1.
         11   -1    0    0    0    0 -0.00000000000E+00 -0.00000000000E+00 -0.50000000000E+03  0.50000000000E+03  0.00000000000E+00 0.  1.
         23    2    1    2    0    0  0.30123696230E+03  0.26035440809E+03  0.18669503386E+03  0.44895917794E+03  0.90449889560E+02 0.  0.
        -11    1    1    2    0    0 -0.25458407339E+02  0.77771688557E+02 -0.36266446126E+02  0.89508776999E+02  0.00000000000E+00 0. -1.
         11    1    1    2    0    0 -0.27577855496E+03 -0.33812609664E+03 -0.15042858774E+03  0.46153204506E+03  0.00000000000E+00 0.  1.
        -15    1    3    3    0    0  0.25108258016E+03  0.18154497379E+03  0.11244970207E+03  0.32961967902E+03  0.17770000000E+01 0. -1.
         15    1    3    3    0    0  0.50154382138E+02  0.78809434294E+02  0.74245331792E+02  0.11933949892E+03  0.17770000000E+01 0.  1.
</event>
<event>
 7    1  0.4133533E-006  0.3422488E+03  0.7546771E-02  0.9844341E-01
        -11   -1    0    0    0    0  0.00000000000E+00  0.00000000000E+00  0.50000000000E+03  0.50000000000E+03  0.00000000000E+00 0. -1.
         11   -1    0    0    0    0 -0.00000000000E+00 -0.00000000000E+00 -0.50000000000E+03  0.50000000000E+03  0.00000000000E+00 0. -1.
         23    2    1    2    0    0  0.23484611834E+03 -0.39174613802E+02  0.89302833844E+02  0.26979500821E+03  0.90149878834E+02 0.  0.
        -11    1    1    2    0    0 -0.34572821868E+03 -0.17986741000E+03  0.11980150475E+03  0.40771642954E+03  0.00000000000E+00 0. -1.
         11    1    1    2    0    0  0.11088210034E+03  0.21904202380E+03 -0.20910433860E+03  0.32248856226E+03  0.00000000000E+00 0. -1.
        -15    1    3    3    0    0  0.41745352838E+02  0.25913827233E+02  0.29841081435E+02  0.57513900891E+02  0.17770000000E+01 0.  1.
         15    1    3    3    0    0  0.19310076551E+03 -0.65088441035E+02  0.59461752409E+02  0.21228110732E+03  0.17770000000E+01 0. -1.
</event>
<event>
 7    1  0.4133533E-006  0.5149892E+03  0.7546771E-02  0.9366881E-01
        -11   -1    0    0    0    0  0.00000000000E+00  0.00000000000E+00  0.50000000000E+03  0.50000000000E+03  0.00000000000E+00 0.  1.
         11   -1    0    0    0    0 -0.00000000000E+00 -0.00000000000E+00 -0.50000000000E+03  0.50000000000E+03  0.00000000000E+00 0. -1.
         23    2    1    2    0    0 -0.10969046206E+02 -0.27205142891E+02 -0.28988689437E+03  0.30543071302E+03  0.91613695237E+02 0.  0.
        -11    1    1    2    0    0  0.79280067899E+02 -0.37943423217E+02  0.47698053918E+03  0.48501079090E+03  0.00000000000E+00 0.  1.
         11    1    1    2    0    0 -0.68311021692E+02  0.65148566107E+02 -0.18709364481E+03  0.20955849608E+03  0.00000000000E+00 0. -1.
        -15    1    3    3    0    0  0.39149586273E+02 -0.16555599535E+01 -0.13735344242E+03  0.14284451987E+03  0.17770000000E+01 0. -1.
         15    1    3    3    0    0 -0.50118632479E+02 -0.25549582937E+02 -0.15253345195E+03  0.16258619315E+03  0.17770000000E+01 0.  1.
</event>
<event>
 7    1  0.4133533E-006  0.5240714E+03  0.7546771E-02  0.9347503E-01
        -11   -1    0    0    0    0  0.00000000000E+00  0.00000000000E+00  0.50000000000E+03  0.50000000000E+03  0.00000000000E+00 0.  1.
         11   -1    0    0    0    0 -0.00000000000E+00 -0.00000000000E+00 -0.50000000000E+03  0.50000000000E+03  0.00000000000E+00 0. -1.
         23    2    1    2    0    0  0.19341704926E+03  0.43128010913E+02  0.48550525870E+02  0.22374262283E+03  0.91833694467E+02 0.  0.
        -11    1    1    2    0    0  0.25251775092E+03 -0.13565212410E+03  0.89614046471E+02  0.30032880419E+03  0.00000000000E+00 0.  1.
         11    1    1    2    0    0 -0.44593480018E+03  0.92524113189E+02 -0.13816457234E+03  0.47592857298E+03  0.00000000000E+00 0. -1.
        -15    1    3    3    0    0  0.16156346398E+03  0.35400883694E+02  0.32593582858E+00  0.16540628592E+03  0.17770000000E+01 0. -1.
         15    1    3    3    0    0  0.31853585278E+02  0.77271272190E+01  0.48224590041E+02  0.58336336907E+02  0.17770000000E+01 0.  1.
</event>
<event>
 7    1  0.4133533E-006  0.4414821E+03  0.7546771E-02  0.9541199E-01
        -11   -1    0    0    0    0  0.00000000000E+00  0.00000000000E+00  0.50000000000E+03  0.50000000000E+03  0.00000000000E+00 0.  1.
         11   -1    0    0    0    0 -0.00000000000E+00 -0.00000000000E+00 -0.50000000000E+03  0.50000000000E+03  0.00000000000E+00 0.  1.
         23    2    1    2    0    0  0.47470107431E+02  0.11513244306E+03 -0.42774964899E+03  0.45480832057E+03  0.91498391797E+02 0.  0.
        -11    1    1    2    0    0 -0.91113462320E+02 -0.54033040478E+01  0.41670771483E+03  0.42658665979E+03  0.00000000000E+00 0.  1.
         11    1    1    2    0    0  0.43643354888E+02 -0.10972913901E+03  0.11041934158E+02  0.11860501964E+03  0.00000000000E+00 0.  1.
        -15    1    3    3    0    0  0.39579411848E+02  0.17982278633E+02 -0.23293459828E+03  0.23696323974E+03  0.17770000000E+01 0.  1.
         15    1    3    3    0    0  0.78906955839E+01  0.97150164428E+02 -0.19481505071E+03  0.21784508082E+03  0.17770000000E+01 0. -1.
</event>
<event>
 7    1  0.4133533E-006  0.5102850E+03  0.7546771E-02  0.9377086E-01
        -11   -1    0    0    0    0  0.00000000000E+00  0.00000000000E+00  0.50000000000E+03  0.50000000000E+03  0.00000000000E+00 0.  1.
         11   -1    0    0    0    0 -0.00000000000E+00 -0.00000000000E+00 -0.50000000000E+03  0.50000000000E+03  0.00000000000E+00 0. -1.
         23    2    1    2    0    0 -0.10021867724E+03 -0.86731223721E+02  0.29401825526E+03  0.33502883805E+03  0.90727611353E+02 0.  0.
        -11    1    1    2    0    0  0.10318761886E+02 -0.42230238564E+02  0.16977882733E+03  0.17525615569E+03  0.00000000000E+00 0.  1.
         11    1    1    2    0    0  0.89899915352E+02  0.12896146229E+03 -0.46379708259E+03  0.48971500626E+03  0.00000000000E+00 0. -1.
        -15    1    3    3    0    0 -0.80510587633E+02 -0.61307379550E+02  0.11525861244E+03  0.15338922706E+03  0.17770000000E+01 0.  1.
         15    1    3    3    0    0 -0.19708089605E+02 -0.25423844172E+02  0.17875964283E+03  0.18163961099E+03  0.17770000000E+01 0. -1.
</event>
<event>
 7    1  0.4133533E-006  0.5001349E+03  0.7546771E-02  0.9399508E-01
        -11   -1    0    0    0    0  0.00000000000E+00  0.00000000000E+00  0.50000000000E+03  0.50000000000E+03  0.00000000000E+00 0. -1.
         11   -1    0    0    0    0 -0.00000000000E+00 -0.00000000000E+00 -0.50000000000E+03  0.50000000000E+03  0.00000000000E+00 0.  1.
         23    2    1    2    0    0  0.77104672730E+02 -0.11924804123E+03 -0.47049809678E+03  0.49986512099E+03  0.91276799960E+02 0.  0.
        -11    1    1    2    0    0 -0.33882710596E+02  0.82124310049E+02  0.39869264424E+03  0.40847064147E+03  0.00000000000E+00 0. -1.
         11    1    1    2    0    0 -0.43221962134E+02  0.37123731180E+02  0.71805452549E+02  0.91664237537E+02  0.00000000000E+00 0.  1.
        -15    1    3    3    0    0  0.77162101330E+02 -0.36395881567E+02 -0.25980442499E+03  0.27345958943E+03  0.17770000000E+01 0.  1.
         15    1    3    3    0    0 -0.57428600094E-01 -0.82852159662E+02 -0.21069367179E+03  0.22640553156E+03  0.17770000000E+01 0. -1.
</event>
<event>
 7    1  0.4133533E-006  0.5046152E+03  0.7546771E-02  0.9389542E-01
        -11   -1    0    0    0    0  0.00000000000E+00  0.00000000000E+00  0.50000000000E+03  0.50000000000E+03  0.00000000000E+00 0.  1.
         11   -1    0    0    0    0 -0.00000000000E+00 -0.00000000000E+00 -0.50000000000E+03  0.50000000000E+03  0.00000000000E+00 0. -1.
         23    2    1    2    0    0 -0.83981316196E+02  0.93143764018E+02  0.34243275968E+03  0.37285746119E+03  0.77677984117E+02 0.  0.
        -11    1    1    2    0    0 -0.18802558699E+02  0.18997542363E+02  0.12901807243E+03  0.13175775439E+03  0.00000000000E+00 0.  1.
         11    1    1    2    0    0  0.10278387489E+03 -0.11214130638E+03 -0.47145083211E+03  0.49538478442E+03  0.00000000000E+00 0. -1.
        -15    1    3    3    0    0 -0.90625045518E+02  0.10180620226E+03  0.31199384169E+03  0.34047131549E+03  0.17770000000E+01 0.  1.
         15    1    3    3    0    0  0.66437293221E+01 -0.86624382378E+01  0.30438917991E+02  0.32386145695E+02  0.17770000000E+01 0. -1.
</event>
<event>
 7    1  0.4133533E-006  0.3733740E+03  0.7546771E-02  0.9738518E-01
        -11   -1    0    0    0    0  0.00000000000E+00  0.00000000000E+00  0.50000000000E+03  0.50000000000E+03  0.00000000000E+00 0.  1.
         11   -1    0    0    0    0 -0.00000000000E+00 -0.00000000000E+00 -0.50000000000E+03  0.50000000000E+03  0.00000000000E+00 0. -1.
         23    2    1    2    0    0 -0.18337609306E+03  0.93198554424E+02  0.10813255283E+02  0.22536307773E+03  0.91426627744E+02 0.  0.
        -11    1    1    2    0    0  0.78559138568E+02 -0.52657828971E+02  0.36776447815E+03  0.37973029454E+03  0.00000000000E+00 0.  1.
         11    1    1    2    0    0  0.10481695449E+03 -0.40540725453E+02 -0.37857773343E+03  0.39490662773E+03  0.00000000000E+00 0. -1.
        -15    1    3    3    0    0 -0.31439245910E+02  0.24010374230E+01  0.34505273759E+02  0.46775664723E+02  0.17770000000E+01 0.  1.
         15    1    3    3    0    0 -0.15193684715E+03  0.90797517001E+02 -0.23692018476E+02  0.17858741301E+03  0.17770000000E+01 0. -1.
</event>
<event>
 7    1  0.4133533E-006  0.4098918E+03  0.7546771E-02  0.9627617E-01
        -11   -1    0    0    0    0  0.00000000000E+00  0.00000000000E+00  0.50000000000E+03  0.50000000000E+03  0.00000000000E+00 0.  1.
         11   -1    0    0    0    0 -0.00000000000E+00 -0.00000000000E+00 -0.50000000000E+03  0.50000000000E+03  0.00000000000E+00 0. -1.
         23    2    1    2    0    0 -0.40920591880E+02 -0.21090391681E+02 -0.41157468878E+03  0.42639862932E+03  0.10150254764E+03 0.  0.
        -11    1    1    2    0    0 -0.11874762632E+03 -0.40916874113E+02  0.37896849449E+03  0.39923966381E+03  0.00000000000E+00 0.  1.
         11    1    1    2    0    0  0.15966821820E+03  0.62007265794E+02  0.32606194290E+02  0.17436170687E+03  0.00000000000E+00 0. -1.
        -15    1    3    3    0    0 -0.71819650490E+02  0.17407875917E+01 -0.23792475184E+03  0.24854061601E+03  0.17770000000E+01 0.  1.
         15    1    3    3    0    0  0.30899058610E+02 -0.22831179273E+02 -0.17364993694E+03  0.17785801331E+03  0.17770000000E+01 0. -1.
</event>
<event>
 7    1  0.4133533E-006  0.3468535E+03  0.7546771E-02  0.9827941E-01
        -11   -1    0    0    0    0  0.00000000000E+00  0.00000000000E+00  0.50000000000E+03  0.50000000000E+03  0.00000000000E+00 0.  1.
         11   -1    0    0    0    0 -0.00000000000E+00 -0.00000000000E+00 -0.50000000000E+03  0.50000000000E+03  0.00000000000E+00 0. -1.
         23    2    1    2    0    0 -0.22469810481E+03 -0.81662958276E+02  0.59906204063E+02  0.26380963337E+03  0.94067488087E+02 0.  0.
        -11    1    1    2    0    0  0.11192434729E+02  0.64632077860E+02  0.30559546811E+03  0.31255586095E+03  0.00000000000E+00 0.  1.
         11    1    1    2    0    0  0.21350567008E+03  0.17030880417E+02 -0.36550167217E+03  0.42363450568E+03  0.00000000000E+00 0. -1.
        -15    1    3    3    0    0 -0.12511966769E+03 -0.25316085594E+02 -0.12687488836E+02  0.12829639720E+03  0.17770000000E+01 0. -1.
         15    1    3    3    0    0 -0.99578437125E+02 -0.56346872683E+02  0.72593692898E+02  0.13551323618E+03  0.17770000000E+01 0.  1.
</event>
<event>
 7    1  0.4133533E-006  0.4760051E+03  0.7546771E-02  0.9455161E-01
        -11   -1    0    0    0    0  0.00000000000E+00  0.00000000000E+00  0.50000000000E+03  0.50000000000E+03  0.00000000000E+00 0. -1.
         11   -1    0    0    0    0 -0.00000000000E+00 -0.00000000000E+00 -0.50000000000E+03  0.50000000000E+03  0.00000000000E+00 0.  1.
         23    2    1    2    0    0  0.15528450207E+03  0.50829786029E+02 -0.44998152432E+03  0.49121633646E+03  0.11005986210E+03 0.  0.
        -11    1    1    2    0    0 -0.12255073241E+03 -0.48400403549E+01  0.43270312486E+03  0.44974893248E+03  0.00000000000E+00 0. -1.
         11    1    1    2    0    0 -0.32733769659E+02 -0.45989745674E+02  0.17278399465E+02  0.59034731060E+02  0.00000000000E+00 0.  1.
        -15    1    3    3    0    0 -0.16199316009E+02  0.48249761868E+01 -0.66277819367E+02  0.68422257368E+02  0.17770000000E+01 0. -1.
         15    1    3    3    0    0  0.17148381808E+03  0.46004809842E+02 -0.38370370496E+03  0.42279407909E+03  0.17770000000E+01 0.  1.
</event>
<event>
 7    1  0.4133533E-006  0.4847638E+03  0.7546771E-02  0.9434562E-01
        -11   -1    0    0    0    0  0.00000000000E+00  0.00000000000E+00  0.50000000000E+03  0.50000000000E+03  0.00000000000E+00 0.  1.
         11   -1    0    0    0    0 -0.00000000000E+00 -0.00000000000E+00 -0.50000000000E+03  0.50000000000E+03  0.00000000000E+00 0. -1.
         23    2    1    2    0    0  0.47609494960E+02  0.56855400924E+02 -0.46268127160E+03  0.47736060478E+03  0.91104266021E+02 0.  0.
        -11    1    1    2    0    0 -0.74438349681E+02 -0.33716303027E+02  0.47734977628E+03  0.48429398706E+03  0.00000000000E+00 0.  1.
         11    1    1    2    0    0  0.26828854721E+02 -0.23139097897E+02 -0.14668504682E+02  0.38345408157E+02  0.00000000000E+00 0. -1.
        -15    1    3    3    0    0 -0.45697189315E+00 -0.12668884844E+02 -0.84720477823E+01  0.15350660869E+02  0.17770000000E+01 0.  1.
         15    1    3    3    0    0  0.48066466854E+02  0.69524285768E+02 -0.45420922381E+03  0.46200994391E+03  0.17770000000E+01 0. -1.
</event>
<event>
 7    1  0.4133533E-006  0.3309225E+03  0.7546771E-02  0.9885886E-01
        -11   -1    0    0    0    0  0.00000000000E+00  0.00000000000E+00  0.50000000000E+03  0.50000000000E+03  0.00000000000E+00 0.  1.
         11   -1    0    0    0    0 -0.00000000000E+00 -0.00000000000E+00 -0.50000000000E+03  0.50000000000E+03  0.00000000000E+00 0.  1.
         23    2    1    2    0    0  0.12624281152E+03  0.11221425655E+02 -0.24403887345E+03  0.28902778418E+03  0.88988316179E+02 0.  0.
        -11    1    1    2    0    0  0.94000147592E+02 -0.12631832474E+03  0.39152308540E+03  0.42199842810E+03  0.00000000000E+00 0.  1.
         11    1    1    2    0    0 -0.22024295911E+03  0.11509689909E+03 -0.14748421195E+03  0.28897378773E+03  0.00000000000E+00 0.  1.
        -15    1    3    3    0    0  0.13703323807E+03  0.18591432615E+02 -0.20077046517E+03  0.24379435415E+03  0.17770000000E+01 0.  1.
         15    1    3    3    0    0 -0.10790426549E+02 -0.73700069599E+01 -0.43268408279E+02  0.45233430024E+02  0.17770000000E+01 0. -1.
</event>
<event>
 7    1  0.4133533E-006  0.3684981E+03  0.7546771E-02  0.9754350E-01
        -11   -1    0    0    0    0  0.00000000000E+00  0.00000000000E+00  0.50000000000E+03  0.50000000000E+03  0.00000000000E+00 0.  1.
         11   -1    0    0    0    0 -0.00000000000E+00 -0.00000000000E+00 -0.50000000000E+03  0.50000000000E+03  0.00000000000E+00 0. -1.
         23    2    1    2    0    0  0.19652550257E+03 -0.48747773997E+02 -0.68638466267E+02  0.23261921965E+03  0.91661571378E+02 0.  0.
        -11    1    1    2    0    0 -0.52296125403E+02 -0.60687861939E+02  0.39020860852E+03  0.39834741053E+03  0.00000000000E+00 0.  1.
         11    1    1    2    0    0 -0.14422937717E+03  0.10943563594E+03 -0.32157014225E+03  0.36903336982E+03  0.00000000000E+00 0. -1.
        -15    1    3    3    0    0 -0.89281330419E+01 -0.93507656896E+01 -0.44850918951E+01  0.13799353496E+02  0.17770000000E+01 0.  1.
         15    1    3    3    0    0  0.20545363562E+03 -0.39397008307E+02 -0.64153374372E+02  0.21881986615E+03  0.17770000000E+01 0. -1.
</event>
<event>
 7    1  0.4133533E-006  0.3984113E+03  0.7546771E-02  0.9661107E-01
        -11   -1    0    0    0    0  0.00000000000E+00  0.00000000000E+00  0.50000000000E+03  0.50000000000E+03  0.00000000000E+00 0.  1.
         11   -1    0    0    0    0 -0.00000000000E+00 -0.00000000000E+00 -0.50000000000E+03  0.50000000000E+03  0.00000000000E+00 0. -1.
         23    2    1    2    0    0 -0.25586216072E+02 -0.19400420714E+03 -0.27258980933E+03  0.34773480820E+03  0.91225028579E+02 0.  0.
        -11    1    1    2    0    0  0.66040597908E+02  0.11536128655E+03  0.44178561801E+03  0.46135032165E+03  0.00000000000E+00 0.  1.
         11    1    1    2    0    0 -0.40454381836E+02  0.78642920592E+02 -0.16919580868E+03  0.19091487015E+03  0.00000000000E+00 0. -1.
        -15    1    3    3    0    0 -0.42136112636E+02 -0.16656151761E+03 -0.17604342540E+03  0.24599316351E+03  0.17770000000E+01 0.  1.
         15    1    3    3    0    0  0.16549896563E+02 -0.27442689531E+02 -0.96546383934E+02  0.10174164469E+03  0.17770000000E+01 0. -1.
</event>
<event>
 6    1  0.4133533E-006  0.5473955E+03  0.7546771E-02  0.9299588E-01
        -11   -1    0    0    0    0  0.00000000000E+00  0.00000000000E+00  0.50000000000E+03  0.50000000000E+03  0.00000000000E+00 0.  1.
         11   -1    0    0    0    0 -0.00000000000E+00 -0.00000000000E+00 -0.50000000000E+03  0.50000000000E+03  0.00000000000E+00 0. -1.
        -11    1    1    2    0    0  0.15749730398E+01  0.10292633421E+03  0.44074318447E+03  0.45260453540E+03  0.00000000000E+00 0.  1.
         11    1    1    2    0    0 -0.33440209153E+01 -0.12793288705E+03 -0.37168670781E+03  0.39310178685E+03  0.00000000000E+00 0. -1.
        -15    1    1    2    0    0  0.10679267549E+02 -0.42498298471E+02  0.14776332692E+02  0.46277963062E+02  0.17770000000E+01 0.  1.
         15    1    1    2    0    0 -0.89102196737E+01  0.67504851319E+02 -0.83832809351E+02  0.10801571468E+03  0.17770000000E+01 0. -1.
</event>
<event>
 7    1  0.4133533E-006  0.4583328E+03  0.7546771E-02  0.9498196E-01
        -11   -1    0    0    0    0  0.00000000000E+00  0.00000000000E+00  0.50000000000E+03  0.50000000000E+03  0.00000000000E+00 0.  1.
         11   -1    0    0    0    0 -0.00000000000E+00 -0.00000000000E+00 -0.50000000000E+03  0.50000000000E+03  0.00000000000E+00 0.  1.
         23    2    1    2    0    0  0.14645245136E+03  0.34352153167E+02 -0.42033233224E+03  0.45553040481E+03  0.90555448453E+02 0.  0.
        -11    1    1    2    0    0 -0.76405884215E+02  0.10221354495E+02  0.44980876369E+03  0.45636636503E+03  0.00000000000E+00 0.  1.
         11    1    1    2    0    0 -0.70046567144E+02 -0.44573507661E+02 -0.29476431452E+02  0.88103230162E+02  0.00000000000E+00 0.  1.
        -15    1    3    3    0    0  0.10500959658E+03  0.56500782656E+02 -0.22538590929E+03  0.25499278353E+03  0.17770000000E+01 0.  1.
         15    1    3    3    0    0  0.41442854775E+02 -0.22148629489E+02 -0.19494642295E+03  0.20053762128E+03  0.17770000000E+01 0. -1.
</event>
<event>
 7    1  0.4133533E-006  0.5124816E+03  0.7546771E-02  0.9372306E-01
        -11   -1    0    0    0    0  0.00000000000E+00  0.00000000000E+00  0.50000000000E+03  0.50000000000E+03  0.00000000000E+00 0.  1.
         11   -1    0    0    0    0 -0.00000000000E+00 -0.00000000000E+00 -0.50000000000E+03  0.50000000000E+03  0.00000000000E+00 0. -1.
         23    2    1    2    0    0  0.12633173374E+03 -0.18708241240E+03  0.29085613649E+03  0.38020659048E+03  0.94869506853E+02 0.  0.
        -11    1    1    2    0    0  0.95520786068E+02 -0.24665839935E+02  0.88113913319E+02  0.13227503903E+03  0.00000000000E+00 0.  1.
         11    1    1    2    0    0 -0.22185251981E+03  0.21174825234E+03 -0.37897004981E+03  0.48751837049E+03  0.00000000000E+00 0. -1.
        -15    1    3    3    0    0  0.21083474271E+02 -0.54783912092E+01  0.79020593634E+02  0.81987423455E+02  0.17770000000E+01 0.  1.
         15    1    3    3    0    0  0.10524825947E+03 -0.18160402119E+03  0.21183554285E+03  0.29821916702E+03  0.17770000000E+01 0. -1.
</event>
<event>
 7    1  0.4133533E-006  0.5353747E+03  0.7546771E-02  0.9323959E-01
        -11   -1    0    0    0    0  0.00000000000E+00  0.00000000000E+00  0.50000000000E+03  0.50000000000E+03  0.00000000000E+00 0.  1.
         11   -1    0    0    0    0 -0.00000000000E+00 -0.00000000000E+00 -0.50000000000E+03  0.50000000000E+03  0.00000000000E+00 0.  1.
         23    2    1    2    0    0 -0.10785830756E+01 -0.36146807227E+02  0.25639946411E+02  0.10202372808E+03  0.91889494639E+02 0.  0.
        -11    1    1    2    0    0  0.41742913757E+02 -0.59494716833E+02  0.42721300909E+03  0.43335095167E+03  0.00000000000E+00 0.  1.
         11    1    1    2    0    0 -0.40664330682E+02  0.95641524060E+02 -0.45285295550E+03  0.46462532025E+03  0.00000000000E+00 0.  1.
        -15    1    3    3    0    0 -0.18556500782E+02 -0.36229603631E+02 -0.25421620663E+02  0.48024414902E+02  0.17770000000E+01 0. -1.
         15    1    3    3    0    0  0.17477917707E+02  0.82796404453E-01  0.51061567073E+02  0.53999313177E+02  0.17770000000E+01 0.  1.
</event>
<event>
 7    1  0.4133533E-006  0.5290268E+03  0.7546771E-02  0.9337104E-01
        -11   -1    0    0    0    0  0.00000000000E+00  0.00000000000E+00  0.50000000000E+03  0.50000000000E+03  0.00000000000E+00 0.  1.
         11   -1    0    0    0    0 -0.00000000000E+00 -0.00000000000E+00 -0.50000000000E+03  0.50000000000E+03  0.00000000000E+00 0.  1.
         23    2    1    2    0    0 -0.10275415248E+03  0.15804543152E+02 -0.34983756191E+03  0.37597040961E+03  0.90328454790E+02 0.  0.
        -11    1    1    2    0    0  0.10388420060E+03 -0.14161204656E+03  0.43700096293E+03  0.47097318445E+03  0.00000000000E+00 0.  1.
         11    1    1    2    0    0 -0.11300481143E+01  0.12580750341E+03 -0.87163401024E+02  0.15305640594E+03  0.00000000000E+00 0.  1.
        -15    1    3    3    0    0 -0.50893966402E+02  0.43057495667E+02 -0.26213849967E+03  0.27048825203E+03  0.17770000000E+01 0. -1.
         15    1    3    3    0    0 -0.51860186080E+02 -0.27252952515E+02 -0.87699062239E+02  0.10548215758E+03  0.17770000000E+01 0.  1.
</event>
<event>
 7    1  0.4133533E-006  0.5228628E+03  0.7546771E-02  0.9350057E-01
        -11   -1    0    0    0    0  0.00000000000E+00  0.00000000000E+00  0.50000000000E+03  0.50000000000E+03  0.00000000000E+00 0. -1.
         11   -1    0    0    0    0 -0.00000000000E+00 -0.00000000000E+00 -0.50000000000E+03  0.50000000000E+03  0.00000000000E+00 0. -1.
         23    2    1    2    0    0 -0.69476261237E+01 -0.11444114679E+02  0.76182205956E+02  0.11572729857E+03  0.86080438312E+02 0.  0.
        -11    1    1    2    0    0  0.13413210356E+03  0.27761566040E+02  0.38340212576E+03  0.40713550053E+03  0.00000000000E+00 0. -1.
         11    1    1    2    0    0 -0.12718447743E+03 -0.16317451361E+02 -0.45958433172E+03  0.47713720090E+03  0.00000000000E+00 0. -1.
        -15    1    3    3    0    0 -0.58725739071E+01 -0.46236208316E+02  0.22654492580E+02  0.51852269447E+02  0.17770000000E+01 0. -1.
         15    1    3    3    0    0 -0.10750522166E+01  0.34792093637E+02  0.53527713375E+02  0.63875029120E+02  0.17770000000E+01 0.  1.
</event>
<event>
 7    1  0.4133533E-006  0.5102430E+03  0.7546771E-02  0.9377178E-01
        -11   -1    0    0    0    0  0.00000000000E+00  0.00000000000E+00  0.50000000000E+03  0.50000000000E+03  0.00000000000E+00 0.  1.
         11   -1    0    0    0    0 -0.00000000000E+00 -0.00000000000E+00 -0.50000000000E+03  0.50000000000E+03  0.00000000000E+00 0. -1.
         23    2    1    2    0    0 -0.23477901206E+03  0.70284481754E+02 -0.41437280342E+03  0.48975703465E+03  0.89977996737E+02 0.  0.
        -11    1    1    2    0    0  0.39685595563E+02  0.49312992824E+02  0.13508273890E+03  0.14917796119E+03  0.00000000000E+00 0.  1.
         11    1    1    2    0    0  0.19509341649E+03 -0.11959747458E+03  0.27929006453E+03  0.36106500416E+03  0.00000000000E+00 0. -1.
        -15    1    3    3    0    0 -0.43884530151E+02 -0.13570957912E+02 -0.12424169491E+03  0.13247331568E+03  0.17770000000E+01 0.  1.
         15    1    3    3    0    0 -0.19089448191E+03  0.83855439666E+02 -0.29013110851E+03  0.35728371897E+03  0.17770000000E+01 0. -1.
</event>
<event>
 7    1  0.4133533E-006  0.4195492E+03  0.7546771E-02  0.9600340E-01
        -11   -1    0    0    0    0  0.00000000000E+00  0.00000000000E+00  0.50000000000E+03  0.50000000000E+03  0.00000000000E+00 0.  1.
         11   -1    0    0    0    0 -0.00000000000E+00 -0.00000000000E+00 -0.50000000000E+03  0.50000000000E+03  0.00000000000E+00 0. -1.
         23    2    1    2    0    0  0.61421828258E+02  0.35029590383E+02 -0.10004653237E+03  0.15200524351E+03  0.89980954803E+02 0.  0.
        -11    1    1    2    0    0 -0.21165932789E+02  0.18707414110E+03  0.41778207337E+03  0.45824293972E+03  0.00000000000E+00 0.  1.
         11    1    1    2    0    0 -0.40255895469E+02 -0.22210373148E+03 -0.31773554100E+03  0.38975181677E+03  0.00000000000E+00 0. -1.
        -15    1    3    3    0    0  0.17340211877E+02  0.53002316351E+02 -0.20807102929E+02  0.59548482330E+02  0.17770000000E+01 0.  1.
         15    1    3    3    0    0  0.44081616381E+02 -0.17972725968E+02 -0.79239429438E+02  0.92456761181E+02  0.17770000000E+01 0. -1.
</event>
<event>
 7    1  0.4133533E-006  0.5145448E+03  0.7546771E-02  0.9367840E-01
        -11   -1    0    0    0    0  0.00000000000E+00  0.00000000000E+00  0.50000000000E+03  0.50000000000E+03  0.00000000000E+00 0.  1.
         11   -1    0    0    0    0 -0.00000000000E+00 -0.00000000000E+00 -0.50000000000E+03  0.50000000000E+03  0.00000000000E+00 0. -1.
         23    2    1    2    0    0  0.30412593482E+02 -0.52170949125E+02 -0.20079832995E+03  0.22784900182E+03  0.89154161672E+02 0.  0.
        -11    1    1    2    0    0  0.45810234600E+02  0.95524689242E+02  0.47375438548E+03  0.48545521071E+03  0.00000000000E+00 0.  1.
         11    1    1    2    0    0 -0.76222828082E+02 -0.43353740117E+02 -0.27295605553E+03  0.28669578747E+03  0.00000000000E+00 0. -1.
        -15    1    3    3    0    0 -0.25449694192E+02 -0.25068085597E+02 -0.32027989213E+02  0.48010891182E+02  0.17770000000E+01 0. -1.
         15    1    3    3    0    0  0.55862287675E+02 -0.27102863528E+02 -0.16877034073E+03  0.17983811063E+03  0.17770000000E+01 0.  1.
</event>
<event>
 7    1  0.4133533E-006  0.5391418E+03  0.7546771E-02  0.9316249E-01
        -11   -1    0    0    0    0  0.00000000000E+00  0.00000000000E+00  0.50000000000E+03  0.50000000000E+03  0.00000000000E+00 0.  1.
         11   -1    0    0    0    0 -0.00000000000E+00 -0.00000000000E+00 -0.50000000000E+03  0.50000000000E+03  0.00000000000E+00 0.  1.
         23    2    1    2    0    0 -0.22230639227E+03  0.38738314548E+02  0.22209753078E+03  0.33850755440E+03  0.11974665819E+03 0.  0.
        -11    1    1    2    0    0  0.27146552609E+02 -0.36588593958E+02  0.19539299341E+03  0.20063420048E+03  0.00000000000E+00 0.  1.
         11    1    1    2    0    0  0.19515983966E+03 -0.21497205900E+01 -0.41749052419E+03  0.46085824513E+03  0.00000000000E+00 0.  1.
        -15    1    3    3    0    0 -0.76037804275E+02  0.68181480894E+02  0.61223945295E+02  0.11908816575E+03  0.17770000000E+01 0. -1.
         15    1    3    3    0    0 -0.14626858799E+03 -0.29443166346E+02  0.16087358548E+03  0.21941938864E+03  0.17770000000E+01 0.  1.
</event>
<event>
 7    1  0.4133533E-006  0.3763992E+03  0.7546771E-02  0.9728825E-01
        -11   -1    0    0    0    0  0.00000000000E+00  0.00000000000E+00  0.50000000000E+03  0.50000000000E+03  0.00000000000E+00 0.  1.
         11   -1    0    0    0    0 -0.00000000000E+00 -0.00000000000E+00 -0.50000000000E+03  0.50000000000E+03  0.00000000000E+00 0. -1.
         23    2    1    2    0    0  0.12017818096E+03  0.25081577772E+03 -0.25539972264E+03  0.38869002929E+03  0.92193118036E+02 0.  0.
        -11    1    1    2    0    0 -0.88453046835E+02 -0.60147498130E+02  0.37098451147E+03  0.38609735919E+03  0.00000000000E+00 0.  1.
         11    1    1    2    0    0 -0.31725134124E+02 -0.19066827959E+03 -0.11558478883E+03  0.22521261152E+03  0.00000000000E+00 0. -1.
        -15    1    3    3    0    0  0.50174409869E+02  0.10747608336E+03 -0.50290407979E+02  0.12884433539E+03  0.17770000000E+01 0. -1.
         15    1    3    3    0    0  0.70003771090E+02  0.14333969437E+03 -0.20510931466E+03  0.25984569390E+03  0.17770000000E+01 0.  1.
</event>
<event>
 7    1  0.4133533E-006  0.5124757E+03  0.7546771E-02  0.9372319E-01
        -11   -1    0    0    0    0  0.00000000000E+00  0.00000000000E+00  0.50000000000E+03  0.50000000000E+03  0.00000000000E+00 0.  1.
         11   -1    0    0    0    0 -0.00000000000E+00 -0.00000000000E+00 -0.50000000000E+03  0.50000000000E+03  0.00000000000E+00 0. -1.
         23    2    1    2    0    0 -0.84464541271E+02  0.13589927950E+03 -0.28747357932E+03  0.34123911936E+03  0.90554982573E+02 0.  0.
        -11    1    1    2    0    0  0.47588377939E+02 -0.20757312211E+03  0.43855294772E+03  0.48752429959E+03  0.00000000000E+00 0.  1.
         11    1    1    2    0    0  0.36876163332E+02  0.71673842609E+02 -0.15107936839E+03  0.17123658105E+03  0.00000000000E+00 0. -1.
        -15    1    3    3    0    0  0.12812315428E+02  0.20748225711E+02 -0.12049206502E+02  0.27257758586E+02  0.17770000000E+01 0.  1.
         15    1    3    3    0    0 -0.97276856699E+02  0.11515105379E+03 -0.27542437282E+03  0.31398136077E+03  0.17770000000E+01 0. -1.
</event>
<event>
 7    1  0.4133533E-006  0.5161158E+03  0.7546771E-02  0.9364454E-01
        -11   -1    0    0    0    0  0.00000000000E+00  0.00000000000E+00  0.50000000000E+03  0.50000000000E+03  0.00000000000E+00 0. -1.
         11   -1    0    0    0    0 -0.00000000000E+00 -0.00000000000E+00 -0.50000000000E+03  0.50000000000E+03  0.00000000000E+00 0. -1.
         23    2    1    2    0    0  0.64175291379E+02 -0.32027273539E+02 -0.35708334202E+03  0.37378066583E+03  0.84019394943E+02 0.  0.
        -11    1    1    2    0    0 -0.60503158982E+01  0.82676985880E+02  0.47673030840E+03  0.48388415686E+03  0.00000000000E+00 0. -1.
         11    1    1    2    0    0 -0.58124975480E+02 -0.50649712341E+02 -0.11964696638E+03  0.14233517730E+03  0.00000000000E+00 0. -1.
        -15    1    3    3    0    0  0.82800501325E+02 -0.22046898459E+02 -0.24121594737E+03  0.25598882739E+03  0.17770000000E+01 0. -1.
         15    1    3    3    0    0 -0.18625209947E+02 -0.99803750803E+01 -0.11586739465E+03  0.11779183845E+03  0.17770000000E+01 0.  1.
</event>
<event>
 7    1  0.4133533E-006  0.3464844E+03  0.7546771E-02  0.9829245E-01
        -11   -1    0    0    0    0  0.00000000000E+00  0.00000000000E+00  0.50000000000E+03  0.50000000000E+03  0.00000000000E+00 0. -1.
         11   -1    0    0    0    0 -0.00000000000E+00 -0.00000000000E+00 -0.50000000000E+03  0.50000000000E+03  0.00000000000E+00 0. -1.
         23    2    1    2    0    0  0.81725262565E+02 -0.41562357607E+02 -0.24871487143E+03  0.27983707858E+03  0.89684196846E+02 0.  0.
        -11    1    1    2    0    0  0.92916656109E+02 -0.21512067649E+02  0.44197952953E+03  0.45215282656E+03  0.00000000000E+00 0. -1.
         11    1    1    2    0    0 -0.17464191867E+03  0.63074425256E+02 -0.19326465810E+03  0.26801009486E+03  0.00000000000E+00 0. -1.
        -15    1    3    3    0    0  0.90880052701E+02 -0.31500754747E+02 -0.24810717895E+03  0.26610488816E+03  0.17770000000E+01 0. -1.
         15    1    3    3    0    0 -0.91547901359E+01 -0.10061602860E+02 -0.60769248726E+00  0.13732190419E+02  0.17770000000E+01 0.  1.
</event>
<event>
 7    1  0.4133533E-006  0.5258076E+03  0.7546771E-02  0.9343845E-01
        -11   -1    0    0    0    0  0.00000000000E+00  0.00000000000E+00  0.50000000000E+03  0.50000000000E+03  0.00000000000E+00 0.  1.
         11   -1    0    0    0    0 -0.00000000000E+00 -0.00000000000E+00 -0.50000000000E+03  0.50000000000E+03  0.00000000000E+00 0. -1.
         23    2    1    2    0    0  0.37135094661E+02 -0.18336849078E+03  0.33038991911E+03  0.39147630594E+03  0.95358171092E+02 0.  0.
        -11    1    1    2    0    0 -0.97390795580E+02 -0.47389612656E+02  0.79461702689E+02  0.13433132414E+03  0.00000000000E+00 0.  1.
         11    1    1    2    0    0  0.60255700919E+02  0.23075810343E+03 -0.40985162180E+03  0.47419236992E+03  0.00000000000E+00 0. -1.
        -15    1    3    3    0    0  0.18533956527E+02 -0.18209014859E+03  0.25562070823E+03  0.31439693695E+03  0.17770000000E+01 0.  1.
         15    1    3    3    0    0  0.18601138134E+02 -0.12783421874E+01  0.74769210884E+02  0.77079368990E+02  0.17770000000E+01 0. -1.
</event>
<event>
 7    1  0.4133533E-006  0.5194574E+03  0.7546771E-02  0.9357295E-01
        -11   -1    0    0    0    0  0.00000000000E+00  0.00000000000E+00  0.50000000000E+03  0.50000000000E+03  0.00000000000E+00 0.  1.
         11   -1    0    0    0    0 -0.00000000000E+00 -0.00000000000E+00 -0.50000000000E+03  0.50000000000E+03  0.00000000000E+00 0. -1.
         23    2    1    2    0    0 -0.18502709202E+03  0.28936592923E+03  0.19273877837E+03  0.40434271432E+03  0.91526652701E+02 0.  0.
        -11    1    1    2    0    0 -0.11040845078E+03  0.20774880711E+02  0.25095303615E+02  0.11511470773E+03  0.00000000000E+00 0.  1.
         11    1    1    2    0    0  0.29543554280E+03 -0.31014080994E+03 -0.21783408199E+03  0.48054257795E+03  0.00000000000E+00 0. -1.
        -15    1    3    3    0    0 -0.83106836800E+02  0.69051823684E+02  0.30223647550E+02  0.11221197475E+03  0.17770000000E+01 0. -1.
         15    1    3    3    0    0 -0.10192025522E+03  0.22031410555E+03  0.16251513082E+03  0.29213073957E+03  0.17770000000E+01 0.  1.
</event>
<event>
 7    1  0.4133533E-006  0.5391605E+03  0.7546771E-02  0.9316211E-01
        -11   -1    0    0    0    0  0.00000000000E+00  0.00000000000E+00  0.50000000000E+03  0.50000000000E+03  0.00000000000E+00 0.  1.
         11   -1    0    0    0    0 -0.00000000000E+00 -0.00000000000E+00 -0.50000000000E+03  0.50000000000E+03  0.00000000000E+00 0. -1.
         23    2    1    2    0    0  0.98236038412E+02  0.11778115945E+03  0.14568340718E+03  0.23052065912E+03  0.91615492088E+02 0.  0.
        -11    1    1    2    0    0 -0.10224583032E+03  0.34887208638E+02  0.28911459268E+03  0.30863987889E+03  0.00000000000E+00 0.  1.
         11    1    1    2    0    0  0.40097919102E+01 -0.15266836809E+03 -0.43479799985E+03  0.46083946199E+03  0.00000000000E+00 0. -1.
        -15    1    3    3    0    0  0.65913350282E+02  0.11956090657E+02  0.66787671636E+02  0.94611144485E+02  0.17770000000E+01 0.  1.
         15    1    3    3    0    0  0.32322688129E+02  0.10582506879E+03  0.78895735542E+02  0.13590951464E+03  0.17770000000E+01 0. -1.
</event>
<event>
 7    1  0.4133533E-006  0.5292731E+03  0.7546771E-02  0.9336591E-01
        -11   -1    0    0    0    0  0.00000000000E+00  0.00000000000E+00  0.50000000000E+03  0.50000000000E+03  0.00000000000E+00 0.  1.
         11   -1    0    0    0    0 -0.00000000000E+00 -0.00000000000E+00 -0.50000000000E+03  0.50000000000E+03  0.00000000000E+00 0. -1.
         23    2    1    2    0    0  0.30867226557E+02 -0.22491893021E+02 -0.10199626304E+03  0.14308817200E+03  0.92802566599E+02 0.  0.
        -11    1    1    2    0    0  0.30043270481E+02 -0.13074181886E+03  0.45120702114E+03  0.47072688178E+03  0.00000000000E+00 0.  1.
         11    1    1    2    0    0 -0.60910497037E+02  0.15323371188E+03 -0.34921075811E+03  0.38618494622E+03  0.00000000000E+00 0. -1.
        -15    1    3    3    0    0 -0.30791193905E+02 -0.22959554631E+02 -0.43807137273E+02  0.58287749793E+02  0.17770000000E+01 0.  1.
         15    1    3    3    0    0  0.61658420461E+02  0.46766160968E+00 -0.58189125762E+02  0.84800422211E+02  0.17770000000E+01 0. -1.
</event>
<event>
 7    1  0.4133533E-006  0.4270555E+03  0.7546771E-02  0.9579674E-01
        -11   -1    0    0    0    0  0.00000000000E+00  0.00000000000E+00  0.50000000000E+03  0.50000000000E+03  0.00000000000E+00 0.  1.
         11   -1    0    0    0    0 -0.00000000000E+00 -0.00000000000E+00 -0.50000000000E+03  0.50000000000E+03  0.00000000000E+00 0.  1.
         23    2    1    2    0    0  0.31440331748E+02 -0.99406481197E+02 -0.13711807418E+02  0.13943990370E+03  0.91571448147E+02 0.  0.
        -11    1    1    2    0    0  0.13881775805E+03 -0.18375932806E+03  0.33049698057E+03  0.40282268402E+03  0.00000000000E+00 0.  1.
         11    1    1    2    0    0 -0.17025808980E+03  0.28316580925E+03 -0.31678517315E+03  0.45773741228E+03  0.00000000000E+00 0.  1.
        -15    1    3    3    0    0 -0.25155201884E+02 -0.10129531334E+02 -0.19677648994E+02  0.33552335027E+02  0.17770000000E+01 0. -1.
         15    1    3    3    0    0  0.56595533632E+02 -0.89276949864E+02  0.59658415753E+01  0.10588756867E+03  0.17770000000E+01 0.  1.
</event>
<event>
 7    1  0.4133533E-006  0.3878055E+03  0.7546771E-02  0.9693134E-01
        -11   -1    0    0    0    0  0.00000000000E+00  0.00000000000E+00  0.50000000000E+03  0.50000000000E+03  0.00000000000E+00 0.  1.
         11   -1    0    0    0    0 -0.00000000000E+00 -0.00000000000E+00 -0.50000000000E+03  0.50000000000E+03  0.00000000000E+00 0. -1.
         23    2    1    2    0    0 -0.31229529216E+03 -0.43197041406E+02 -0.32648932261E+03  0.46300092416E+03  0.91543673214E+02 0.  0.
        -11    1    1    2    0    0  0.11001359921E+03 -0.89731587504E+00  0.31042602332E+03  0.32934497589E+03  0.00000000000E+00 0.  1.
         11    1    1    2    0    0  0.20228169294E+03  0.44094357281E+02  0.16063299291E+02  0.20765409996E+03  0.00000000000E+00 0. -1.
        -15    1    3    3    0    0 -0.14139131822E+03  0.25688664567E+02 -0.13327206094E+03  0.19600003141E+03  0.17770000000E+01 0.  1.
         15    1    3    3    0    0 -0.17090397393E+03 -0.68885705973E+02 -0.19321726167E+03  0.26700089275E+03  0.17770000000E+01 0. -1.
</event>
<event>
 7    1  0.4133533E-006  0.4397871E+03  0.7546771E-02  0.9545638E-01
        -11   -1    0    0    0    0  0.00000000000E+00  0.00000000000E+00  0.50000000000E+03  0.50000000000E+03  0.00000000000E+00 0.  1.
         11   -1    0    0    0    0 -0.00000000000E+00 -0.00000000000E+00 -0.50000000000E+03  0.50000000000E+03  0.00000000000E+00 0.  1.
         23    2    1    2    0    0  0.17668208260E+03 -0.77265014281E+02 -0.37657204837E+03  0.43258583705E+03  0.90208414553E+02 0.  0.
        -11    1    1    2    0    0 -0.12826077177E+03 -0.22108239370E+02  0.42664784375E+03  0.44605827242E+03  0.00000000000E+00 0.  1.
         11    1    1    2    0    0 -0.48421310827E+02  0.99373253650E+02 -0.50075795377E+02  0.12135589053E+03  0.00000000000E+00 0.  1.
        -15    1    3    3    0    0  0.91666465988E+02 -0.49009985494E+01 -0.10815547848E+03  0.14187151239E+03  0.17770000000E+01 0.  1.
         15    1    3    3    0    0  0.85015616613E+02 -0.72364015731E+02 -0.26841656989E+03  0.29071432466E+03  0.17770000000E+01 0. -1.
</event>
<event>
 7    1  0.4133533E-006  0.5254272E+03  0.7546771E-02  0.9344645E-01
        -11   -1    0    0    0    0  0.00000000000E+00  0.00000000000E+00  0.50000000000E+03  0.50000000000E+03  0.00000000000E+00 0. -1.
         11   -1    0    0    0    0 -0.00000000000E+00 -0.00000000000E+00 -0.50000000000E+03  0.50000000000E+03  0.00000000000E+00 0. -1.
         23    2    1    2    0    0  0.18026788315E+03  0.13915667482E+03 -0.40615407181E+03  0.47457280429E+03  0.91635837327E+02 0.  0.
        -11    1    1    2    0    0 -0.32017547593E+02 -0.82228213419E+02  0.34359358473E+03  0.35474378628E+03  0.00000000000E+00 0. -1.
         11    1    1    2    0    0 -0.14825033555E+03 -0.56928461396E+02  0.62560487081E+02  0.17068340942E+03  0.00000000000E+00 0. -1.
        -15    1    3    3    0    0  0.19040560958E+03  0.13749872619E+03 -0.38492058960E+03  0.45091818980E+03  0.17770000000E+01 0. -1.
         15    1    3    3    0    0 -0.10137726434E+02  0.16579486226E+01 -0.21233482212E+02  0.23654614491E+02  0.17770000000E+01 0.  1.
</event>
<event>
 7    1  0.4133533E-006  0.3699240E+03  0.7546771E-02  0.9749694E-01
        -11   -1    0    0    0    0  0.00000000000E+00  0.00000000000E+00  0.50000000000E+03  0.50000000000E+03  0.00000000000E+00 0.  1.
         11   -1    0    0    0    0 -0.00000000000E+00 -0.00000000000E+00 -0.50000000000E+03  0.50000000000E+03  0.00000000000E+00 0. -1.
         23    2    1    2    0    0 -0.22607609102E+02  0.19250465104E+03 -0.29879864976E+03  0.36682639248E+03  0.87816994148E+02 0.  0.
        -11    1    1    2    0    0  0.23388620856E+03 -0.92347568330E+02  0.30991074660E+03  0.39909335098E+03  0.00000000000E+00 0.  1.
         11    1    1    2    0    0 -0.21127859946E+03 -0.10015708271E+03 -0.11112096844E+02  0.23408025654E+03  0.00000000000E+00 0. -1.
        -15    1    3    3    0    0 -0.17090213124E+02  0.27416783328E+02 -0.11608430641E+03  0.12050924992E+03  0.17770000000E+01 0. -1.
         15    1    3    3    0    0 -0.55173959778E+01  0.16508786771E+03 -0.18271434335E+03  0.24631714256E+03  0.17770000000E+01 0.  1.
</event>
<event>
 7    1  0.4133533E-006  0.5080558E+03  0.7546771E-02  0.9381963E-01
        -11   -1    0    0    0    0  0.00000000000E+00  0.00000000000E+00  0.50000000000E+03  0.50000000000E+03  0.00000000000E+00 0.  1.
         11   -1    0    0    0    0 -0.00000000000E+00 -0.00000000000E+00 -0.50000000000E+03  0.50000000000E+03  0.00000000000E+00 0. -1.
         23    2    1    2    0    0 -0.58130912701E+02  0.13062082180E+02 -0.36243094029E+03  0.37871002851E+03  0.92278265137E+02 0.  0.
        -11    1    1    2    0    0  0.81383765680E+02 -0.57146267668E+02  0.48178844099E+03  0.49194421950E+03  0.00000000000E+00 0.  1.
         11    1    1    2    0    0 -0.23252852979E+02  0.44084185488E+02 -0.11935750071E+03  0.12934575198E+03  0.00000000000E+00 0. -1.
        -15    1    3    3    0    0 -0.78220491497E+02 -0.85846688662E+01 -0.28942688695E+03  0.29993869782E+03  0.17770000000E+01 0. -1.
         15    1    3    3    0    0  0.20089578795E+02  0.21646751046E+02 -0.73004053334E+02  0.78771330693E+02  0.17770000000E+01 0.  1.
</event>
<event>
 7    1  0.4133533E-006  0.3380305E+03  0.7546771E-02  0.9859609E-01
        -11   -1    0    0    0    0  0.00000000000E+00  0.00000000000E+00  0.50000000000E+03  0.50000000000E+03  0.00000000000E+00 0. -1.
         11   -1    0    0    0    0 -0.00000000000E+00 -0.00000000000E+00 -0.50000000000E+03  0.50000000000E+03  0.00000000000E+00 0.  1.
         23    2    1    2    0    0 -0.66565519484E+02  0.24083673429E+03  0.71523030694E+02  0.27570216563E+03  0.91993691345E+02 0.  0.
        -11    1    1    2    0    0  0.25619720227E+03 -0.10668659955E+03  0.21814590841E+03  0.35299670584E+03  0.00000000000E+00 0. -1.
         11    1    1    2    0    0 -0.18963168279E+03 -0.13415013473E+03 -0.28966893911E+03  0.37130112853E+03  0.00000000000E+00 0.  1.
        -15    1    3    3    0    0 -0.55488125677E+02  0.20761522131E+03  0.23429475503E+02  0.21618304805E+03  0.17770000000E+01 0.  1.
         15    1    3    3    0    0 -0.11077393807E+02  0.33221512975E+02  0.48093555192E+02  0.59519117583E+02  0.17770000000E+01 0. -1.
</event>
<event>
 7    1  0.4133533E-006  0.4521240E+03  0.7546771E-02  0.9513808E-01
        -11   -1    0    0    0    0  0.00000000000E+00  0.00000000000E+00  0.50000000000E+03  0.50000000000E+03  0.00000000000E+00 0.  1.
         11   -1    0    0    0    0 -0.00000000000E+00 -0.00000000000E+00 -0.50000000000E+03  0.50000000000E+03  0.00000000000E+00 0.  1.
         23    2    1    2    0    0  0.34747868887E+02 -0.10158513431E+03 -0.42103045653E+03  0.44426368947E+03  0.92610078019E+02 0.  0.
        -11    1    1    2    0    0 -0.13039241591E+03  0.74729356862E+02  0.43046489814E+03  0.45594592599E+03  0.00000000000E+00 0.  1.
         11    1    1    2    0    0  0.95644547024E+02  0.26855777444E+02 -0.94344416058E+01  0.99790384537E+02  0.00000000000E+00 0.  1.
        -15    1    3    3    0    0 -0.22705649937E+02 -0.68329148436E+01 -0.32715579420E+02  0.40443814485E+02  0.17770000000E+01 0. -1.
         15    1    3    3    0    0  0.57453518824E+02 -0.94752219462E+02 -0.38831487711E+03  0.40381987498E+03  0.17770000000E+01 0.  1.
</event>
<event>
 7    1  0.4133533E-006  0.4539013E+03  0.7546771E-02  0.9509312E-01
        -11   -1    0    0    0    0  0.00000000000E+00  0.00000000000E+00  0.50000000000E+03  0.50000000000E+03  0.00000000000E+00 0. -1.
         11   -1    0    0    0    0 -0.00000000000E+00 -0.00000000000E+00 -0.50000000000E+03  0.50000000000E+03  0.00000000000E+00 0. -1.
         23    2    1    2    0    0 -0.25363232701E+02  0.55903614474E+01 -0.46471398097E+03  0.47465477632E+03  0.93078068628E+02 0.  0.
        -11    1    1    2    0    0  0.82093451373E+00  0.77387321466E+02  0.42164434234E+03  0.42868802513E+03  0.00000000000E+00 0. -1.
         11    1    1    2    0    0  0.24542298187E+02 -0.82977682913E+02  0.43069638624E+02  0.96657198558E+02  0.00000000000E+00 0. -1.
        -15    1    3    3    0    0  0.33927450545E+02  0.20678745186E+01 -0.11510681881E+03  0.12003368474E+03  0.17770000000E+01 0.  1.
         15    1    3    3    0    0 -0.59290683245E+02  0.35224869288E+01 -0.34960716216E+03  0.35462109158E+03  0.17770000000E+01 0. -1.
</event>
<event>
 7    1  0.4133533E-006  0.5092508E+03  0.7546771E-02  0.9379345E-01
        -11   -1    0    0    0    0  0.00000000000E+00  0.00000000000E+00  0.50000000000E+03  0.50000000000E+03  0.00000000000E+00 0. -1.
         11   -1    0    0    0    0 -0.00000000000E+00 -0.00000000000E+00 -0.50000000000E+03  0.50000000000E+03  0.00000000000E+00 0. -1.
         23    2    1    2    0    0 -0.51785295685E+01  0.51054156957E+02 -0.35741329251E+03  0.37260767653E+03  0.91972141618E+02 0.  0.
        -11    1    1    2    0    0 -0.42470730237E+02 -0.77349378482E+02  0.48275059410E+03  0.49074924899E+03  0.00000000000E+00 0. -1.
         11    1    1    2    0    0  0.47649259805E+02  0.26295221525E+02 -0.12533730159E+03  0.13664307449E+03  0.00000000000E+00 0. -1.
        -15    1    3    3    0    0 -0.34916324338E+02  0.62319384230E+02 -0.27822138459E+03  0.28725102599E+03  0.17770000000E+01 0.  1.
         15    1    3    3    0    0  0.29737794769E+02 -0.11265227273E+02 -0.79191907913E+02  0.85356650539E+02  0.17770000000E+01 0. -1.
</event>
<event>
 7    1  0.4133533E-006  0.3211713E+03  0.7546771E-02  0.9923111E-01
        -11   -1    0    0    0    0  0.00000000000E+00  0.00000000000E+00  0.50000000000E+03  0.50000000000E+03  0.00000000000E+00 0. -1.
         11   -1    0    0    0    0 -0.00000000000E+00 -0.00000000000E+00 -0.50000000000E+03  0.50000000000E+03  0.00000000000E+00 0. -1.
         23    2    1    2    0    0  0.21173658051E+03 -0.22539610898E+02 -0.20442924827E+03  0.30962320085E+03  0.93460127194E+02 0.  0.
        -11    1    1    2    0    0 -0.87483538293E+02 -0.23872843966E+03  0.29288388573E+03  0.38784740284E+03  0.00000000000E+00 0. -1.
         11    1    1    2    0    0 -0.12425304221E+03  0.26126805055E+03 -0.88454637461E+02  0.30252939630E+03  0.00000000000E+00 0. -1.
        -15    1    3    3    0    0  0.15799273240E+03  0.22808012084E+02 -0.16218031558E+03  0.22756871797E+03  0.17770000000E+01 0.  1.
         15    1    3    3    0    0  0.53743848107E+02 -0.45347622982E+02 -0.42248932686E+02  0.82054482885E+02  0.17770000000E+01 0. -1.
</event>
<event>
 7    1  0.4133533E-006  0.5347254E+03  0.7546771E-02  0.9325295E-01
        -11   -1    0    0    0    0  0.00000000000E+00  0.00000000000E+00  0.50000000000E+03  0.50000000000E+03  0.00000000000E+00 0. -1.
         11   -1    0    0    0    0 -0.00000000000E+00 -0.00000000000E+00 -0.50000000000E+03  0.50000000000E+03  0.00000000000E+00 0.  1.
         23    2    1    2    0    0  0.21801467308E+00 -0.71666444689E+01  0.24214200754E+02  0.94578838828E+02  0.91145054241E+02 0.  0.
        -11    1    1    2    0    0  0.26685152386E+02 -0.86993262242E+02  0.43063802347E+03  0.44014660318E+03  0.00000000000E+00 0. -1.
         11    1    1    2    0    0 -0.26903167059E+02  0.94159906711E+02 -0.45485222423E+03  0.46527455799E+03  0.00000000000E+00 0.  1.
        -15    1    3    3    0    0 -0.32096693877E+02 -0.19255571335E+02 -0.16704291023E+02  0.41026404338E+02  0.17770000000E+01 0.  1.
         15    1    3    3    0    0  0.32314708550E+02  0.12088926866E+02  0.40918491777E+02  0.53552434490E+02  0.17770000000E+01 0. -1.
</event>
<event>
 7    1  0.4133533E-006  0.5338717E+03  0.7546771E-02  0.9327054E-01
        -11   -1    0    0    0    0  0.00000000000E+00  0.00000000000E+00  0.50000000000E+03  0.50000000000E+03  0.00000000000E+00 0.  1.
         11   -1    0    0    0    0 -0.00000000000E+00 -0.00000000000E+00 -0.50000000000E+03  0.50000000000E+03  0.00000000000E+00 0. -1.
         23    2    1    2    0    0 -0.25894246290E+02  0.37719966384E+02  0.15847909445E+03  0.18956400386E+03  0.93410814840E+02 0.  0.
        -11    1    1    2    0    0  0.12125602811E+03 -0.15522687319E+03  0.28239937033E+03  0.34430772701E+03  0.00000000000E+00 0.  1.
         11    1    1    2    0    0 -0.95361781815E+02  0.11750690680E+03 -0.44087846478E+03  0.46612826913E+03  0.00000000000E+00 0. -1.
        -15    1    3    3    0    0 -0.27289931167E+02  0.67697839813E+02  0.10009760608E+03  0.12389683745E+03  0.17770000000E+01 0.  1.
         15    1    3    3    0    0  0.13956848770E+01 -0.29977873430E+02  0.58381488367E+02  0.65667166412E+02  0.17770000000E+01 0. -1.
</event>
<event>
 6    1  0.4133533E-006  0.3275063E+03  0.7546771E-02  0.9898769E-01
        -11   -1    0    0    0    0  0.00000000000E+00  0.00000000000E+00  0.50000000000E+03  0.50000000000E+03  0.00000000000E+00 0.  1.
         11   -1    0    0    0    0 -0.00000000000E+00 -0.00000000000E+00 -0.50000000000E+03  0.50000000000E+03  0.00000000000E+00 0. -1.
        -11    1    1    2    0    0 -0.38582067647E+02  0.64317693007E+02  0.36326855054E+02  0.83336558459E+02  0.00000000000E+00 0.  1.
         11    1    1    2    0    0 -0.10256464840E+02  0.10531806227E+03 -0.40739258323E+03  0.42091068671E+03  0.00000000000E+00 0. -1.
        -15    1    1    2    0    0 -0.38666989221E+02  0.44228682801E+02  0.19941057778E+03  0.20789191590E+03  0.17770000000E+01 0.  1.
         15    1    1    2    0    0  0.87505521709E+02 -0.21386443808E+03  0.17165515040E+03  0.28786083893E+03  0.17770000000E+01 0. -1.
</event>
<event>
 7    1  0.4133533E-006  0.4488225E+03  0.7546771E-02  0.9522219E-01
        -11   -1    0    0    0    0  0.00000000000E+00  0.00000000000E+00  0.50000000000E+03  0.50000000000E+03  0.00000000000E+00 0.  1.
         11   -1    0    0    0    0 -0.00000000000E+00 -0.00000000000E+00 -0.50000000000E+03  0.50000000000E+03  0.00000000000E+00 0. -1.
         23    2    1    2    0    0  0.28222327838E+02  0.18273249078E+02 -0.24061835170E+02  0.10140338560E+03  0.92591917996E+02 0.  0.
        -11    1    1    2    0    0  0.12086769859E+03  0.84891423656E+01  0.43976759422E+03  0.45615414393E+03  0.00000000000E+00 0.  1.
         11    1    1    2    0    0 -0.14909002643E+03 -0.26762391443E+02 -0.41570575905E+03  0.44244247048E+03  0.00000000000E+00 0. -1.
        -15    1    3    3    0    0  0.40420746522E+02 -0.28389847148E+02 -0.56563330684E+01  0.49749090476E+02  0.17770000000E+01 0.  1.
         15    1    3    3    0    0 -0.12198418684E+02  0.46663096225E+02 -0.18405502101E+02  0.51654295120E+02  0.17770000000E+01 0. -1.
</event>
<event>
 7    1  0.4133533E-006  0.3739505E+03  0.7546771E-02  0.9736663E-01
        -11   -1    0    0    0    0  0.00000000000E+00  0.00000000000E+00  0.50000000000E+03  0.50000000000E+03  0.00000000000E+00 0.  1.
         11   -1    0    0    0    0 -0.00000000000E+00 -0.00000000000E+00 -0.50000000000E+03  0.50000000000E+03  0.00000000000E+00 0.  1.
         23    2    1    2    0    0 -0.16772517920E+03  0.30185919740E+02 -0.11307019825E+03  0.22463960743E+03  0.92925550872E+02 0.  0.
        -11    1    1    2    0    0 -0.11374431518E+02  0.67888716144E+02  0.40958984603E+03  0.41533371816E+03  0.00000000000E+00 0.  1.
         11    1    1    2    0    0  0.17909961072E+03 -0.98074635884E+02 -0.29651964778E+03  0.36002667440E+03  0.00000000000E+00 0.  1.
        -15    1    3    3    0    0 -0.25712507718E+02  0.42276954520E+02 -0.15415100933E+02  0.51858046650E+02  0.17770000000E+01 0. -1.
         15    1    3    3    0    0 -0.14201267149E+03 -0.12091034780E+02 -0.97655097321E+02  0.17278156078E+03  0.17770000000E+01 0.  1.
</event>
<event>
 7    1  0.4133533E-006  0.3825895E+03  0.7546771E-02  0.9709290E-01
        -11   -1    0    0    0    0  0.00000000000E+00  0.00000000000E+00  0.50000000000E+03  0.50000000000E+03  0.00000000000E+00 0.  1.
         11   -1    0    0    0    0 -0.00000000000E+00 -0.00000000000E+00 -0.50000000000E+03  0.50000000000E+03  0.00000000000E+00 0.  1.
         23    2    1    2    0    0  0.11321728450E+03  0.35304715355E+03 -0.80905519126E+02  0.38962510384E+03  0.88326510050E+02 0.  0.
        -11    1    1    2    0    0 -0.44981451068E+02  0.14310830880E+02  0.20986243352E+03  0.21510548999E+03  0.00000000000E+00 0.  1.
         11    1    1    2    0    0 -0.68235833434E+02 -0.36735798443E+03 -0.12895691439E+03  0.39526940617E+03  0.00000000000E+00 0.  1.
        -15    1    3    3    0    0  0.10947082927E+03  0.20097544953E+03 -0.53795123705E+02  0.23510012088E+03  0.17770000000E+01 0.  1.
         15    1    3    3    0    0  0.37464552366E+01  0.15207170402E+03 -0.27110395421E+02  0.15452498296E+03  0.17770000000E+01 0. -1.
</event>
<event>
 7    1  0.4133533E-006  0.4676864E+03  0.7546771E-02  0.9475166E-01
        -11   -1    0    0    0    0  0.00000000000E+00  0.00000000000E+00  0.50000000000E+03  0.50000000000E+03  0.00000000000E+00 0. -1.
         11   -1    0    0    0    0 -0.00000000000E+00 -0.00000000000E+00 -0.50000000000E+03  0.50000000000E+03  0.00000000000E+00 0.  1.
         23    2    1    2    0    0 -0.74379536249E+02  0.11005673833E+02 -0.44202060863E+03  0.45775514604E+03  0.92217758588E+02 0.  0.
        -11    1    1    2    0    0  0.13196334716E+03  0.29620873243E+02  0.45133109505E+03  0.47115971653E+03  0.00000000000E+00 0. -1.
         11    1    1    2    0    0 -0.57583810914E+02 -0.40626547075E+02 -0.93104864165E+01  0.71085137433E+02  0.00000000000E+00 0.  1.
        -15    1    3    3    0    0 -0.42716560223E+02 -0.40171418579E+02 -0.20813274464E+03  0.21624255942E+03  0.17770000000E+01 0.  1.
         15    1    3    3    0    0 -0.31662976026E+02  0.51177092412E+02 -0.23388786399E+03  0.24151258661E+03  0.17770000000E+01 0. -1.
</event>
<event>
 7    1  0.4133533E-006  0.4014983E+03  0.7546771E-02  0.9651984E-01
        -11   -1    0    0    0    0  0.00000000000E+00  0.00000000000E+00  0.50000000000E+03  0.50000000000E+03  0.00000000000E+00 0.  1.
         11   -1    0    0    0    0 -0.00000000000E+00 -0.00000000000E+00 -0.50000000000E+03  0.50000000000E+03  0.00000000000E+00 0. -1.
         23    2    1    2    0    0  0.32211883273E+02 -0.77200152741E+01 -0.34100810514E+03  0.35423001143E+03  0.89973158042E+02 0.  0.
        -11    1    1    2    0    0 -0.12960589357E+03 -0.12785379335E+03  0.42246688395E+03  0.46002450821E+03  0.00000000000E+00 0.  1.
         11    1    1    2    0    0  0.97394010293E+02  0.13557380863E+03 -0.81458778814E+02  0.18574548036E+03  0.00000000000E+00 0. -1.
        -15    1    3    3    0    0  0.26820380851E+02  0.39773743007E+02 -0.17595537474E+03  0.18238622505E+03  0.17770000000E+01 0.  1.
         15    1    3    3    0    0  0.53915024222E+01 -0.47493758281E+02 -0.16505273040E+03  0.17184378638E+03  0.17770000000E+01 0. -1.
</event>
<event>
 7    1  0.4133533E-006  0.5072263E+03  0.7546771E-02  0.9383784E-01
        -11   -1    0    0    0    0  0.00000000000E+00  0.00000000000E+00  0.50000000000E+03  0.50000000000E+03  0.00000000000E+00 0.  1.
         11   -1    0    0    0    0 -0.00000000000E+00 -0.00000000000E+00 -0.50000000000E+03  0.50000000000E+03  0.00000000000E+00 0. -1.
         23    2    1    2    0    0 -0.15688509006E+03 -0.20869174315E+03  0.27624016976E+03  0.39050545770E+03  0.89558394151E+02 0.  0.
        -11    1    1    2    0    0 -0.17071910238E+02 -0.58030805747E+02  0.99823548198E+02  0.11672088635E+03  0.00000000000E+00 0.  1.
         11    1    1    2    0    0  0.17395700030E+03  0.26672254889E+03 -0.37606371795E+03  0.49277365596E+03  0.00000000000E+00 0. -1.
        -15    1    3    3    0    0  0.28953410435E+01 -0.51993588277E+02  0.56584416073E+02  0.76919894000E+02  0.17770000000E+01 0. -1.
         15    1    3    3    0    0 -0.15978043111E+03 -0.15669815487E+03  0.21965575368E+03  0.31358556370E+03  0.17770000000E+01 0.  1.
</event>
<event>
 7    1  0.4133533E-006  0.5116317E+03  0.7546771E-02  0.9374152E-01
        -11   -1    0    0    0    0  0.00000000000E+00  0.00000000000E+00  0.50000000000E+03  0.50000000000E+03  0.00000000000E+00 0.  1.
         11   -1    0    0    0    0 -0.00000000000E+00 -0.00000000000E+00 -0.50000000000E+03  0.50000000000E+03  0.00000000000E+00 0. -1.
         23    2    1    2    0    0 -0.15722471335E+02  0.99629806055E+02 -0.30463382571E+03  0.33222340250E+03  0.86007715026E+02 0.  0.
        -11    1    1    2    0    0  0.39409429445E+02 -0.75696890426E+02  0.48085385259E+03  0.48836825235E+03  0.00000000000E+00 0.  1.
         11    1    1    2    0    0 -0.23686958110E+02 -0.23932915629E+02 -0.17622002688E+03  0.17940834515E+03  0.00000000000E+00 0. -1.
        -15    1    3    3    0    0 -0.34368335950E+02  0.26550610750E+02 -0.48113646650E+02  0.64839788480E+02  0.17770000000E+01 0. -1.
         15    1    3    3    0    0  0.18645864615E+02  0.73079195305E+02 -0.25652017906E+03  0.26738361402E+03  0.17770000000E+01 0.  1.
</event>
<event>
 7    1  0.4133533E-006  0.3767496E+03  0.7546771E-02  0.9727708E-01
        -11   -1    0    0    0    0  0.00000000000E+00  0.00000000000E+00  0.50000000000E+03  0.50000000000E+03  0.00000000000E+00 0.  1.
         11   -1    0    0    0    0 -0.00000000000E+00 -0.00000000000E+00 -0.50000000000E+03  0.50000000000E+03  0.00000000000E+00 0. -1.
         23    2    1    2    0    0 -0.16676720562E+03  0.40521926417E+02 -0.37938601340E+03  0.42641476588E+03  0.91882958177E+02 0.  0.
        -11    1    1    2    0    0 -0.33605440381E+02  0.54288059925E+02  0.34306787166E+03  0.34895857009E+03  0.00000000000E+00 0.  1.
         11    1    1    2    0    0  0.20037264600E+03 -0.94809986342E+02  0.36318141744E+02  0.22462666403E+03  0.00000000000E+00 0. -1.
        -15    1    3    3    0    0 -0.67789687483E+02 -0.22601291222E+02 -0.19639105323E+03  0.20899488896E+03  0.17770000000E+01 0.  1.
         15    1    3    3    0    0 -0.98977518134E+02  0.63123217639E+02 -0.18299496017E+03  0.21741987692E+03  0.17770000000E+01 0. -1.
</event>
<event>
 7    1  0.4133533E-006  0.3710174E+03  0.7546771E-02  0.9746138E-01
        -11   -1    0    0    0    0  0.00000000000E+00  0.00000000000E+00  0.50000000000E+03  0.50000000000E+03  0.00000000000E+00 0.  1.
         11   -1    0    0    0    0 -0.00000000000E+00 -0.00000000000E+00 -0.50000000000E+03  0.50000000000E+03  0.00000000000E+00 0. -1.
         23    2    1    2    0    0  0.66424609069E+02  0.90320427303E+02 -0.32730440577E+03  0.36419979885E+03  0.11376867393E+03 0.  0.
        -11    1    1    2    0    0 -0.20052815535E+03 -0.25876268560E+03  0.22635865321E+03  0.39800491006E+03  0.00000000000E+00 0.  1.
         11    1    1    2    0    0  0.13410354628E+03  0.16844225830E+03  0.10094575256E+03  0.23779529109E+03  0.00000000000E+00 0. -1.
        -15    1    3    3    0    0 -0.20018655912E+02 -0.13026971249E+01 -0.11954765859E+03  0.12123219048E+03  0.17770000000E+01 0.  1.
         15    1    3    3    0    0  0.86443264981E+02  0.91623124428E+02 -0.20775674718E+03  0.24296760837E+03  0.17770000000E+01 0. -1.
</event>
<event>
 7    1  0.4133533E-006  0.5045910E+03  0.7546771E-02  0.9389595E-01
        -11   -1    0    0    0    0  0.00000000000E+00  0.00000000000E+00  0.50000000000E+03  0.50000000000E+03  0.00000000000E+00 0.  1.
         11   -1    0    0    0    0 -0.00000000000E+00 -0.00000000000E+00 -0.50000000000E+03  0.50000000000E+03  0.00000000000E+00 0.  1.
         23    2    1    2    0    0 -0.43675117398E+02  0.38817292059E+02 -0.48367823545E+03  0.49540904017E+03  0.89839766192E+02 0.  0.
        -11    1    1    2    0    0  0.76577602202E+02  0.13398780294E+01  0.39037322947E+03  0.39781551343E+03  0.00000000000E+00 0.  1.
         11    1    1    2    0    0 -0.32902484804E+02 -0.40157170088E+02  0.93305005974E+02  0.10677544641E+03  0.00000000000E+00 0.  1.
        -15    1    3    3    0    0 -0.48162258300E+02  0.64767739849E+02 -0.37046190295E+03  0.37915648817E+03  0.17770000000E+01 0.  1.
         15    1    3    3    0    0  0.44871409016E+01 -0.25950447789E+02 -0.11321633249E+03  0.11625255200E+03  0.17770000000E+01 0. -1.
</event>
<event>
 7    1  0.4133533E-006  0.5200425E+03  0.7546771E-02  0.9356047E-01
        -11   -1    0    0    0    0  0.00000000000E+00  0.00000000000E+00  0.50000000000E+03  0.50000000000E+03  0.00000000000E+00 0.  1.
         11   -1    0    0    0    0 -0.00000000000E+00 -0.00000000000E+00 -0.50000000000E+03  0.50000000000E+03  0.00000000000E+00 0.  1.
         23    2    1    2    0    0 -0.67671900501E+02 -0.77616026930E+02 -0.35785869317E+03  0.38357797926E+03  0.92008087361E+02 0.  0.
        -11    1    1    2    0    0  0.14865028769E+03  0.27374123611E+02  0.45553585424E+03  0.47995746184E+03  0.00000000000E+00 0.  1.
         11    1    1    2    0    0 -0.80978387191E+02  0.50241903318E+02 -0.97677161073E+02  0.13646455890E+03  0.00000000000E+00 0.  1.
        -15    1    3    3    0    0 -0.60233595436E+02 -0.40464322607E+02 -0.32617988280E+03  0.33415852690E+03  0.17770000000E+01 0.  1.
         15    1    3    3    0    0 -0.74383050644E+01 -0.37151704323E+02 -0.31678810367E+02  0.49419452360E+02  0.17770000000E+01 0. -1.
</event>
<event>
 7    1  0.4133533E-006  0.3970345E+03  0.7546771E-02  0.9665204E-01
        -11   -1    0    0    0    0  0.00000000000E+00  0.00000000000E+00  0.50000000000E+03  0.50000000000E+03  0.00000000000E+00 0. -1.
         11   -1    0    0    0    0 -0.00000000000E+00 -0.00000000000E+00 -0.50000000000E+03  0.50000000000E+03  0.00000000000E+00 0.  1.
         23    2    1    2    0    0 -0.11676946134E+03  0.18928420560E+01 -0.30982413600E+03  0.34733333356E+03  0.10493216569E+03 0.  0.
        -11    1    1    2    0    0  0.30020941499E+01 -0.77385962591E+02  0.45021687932E+03  0.45682911269E+03  0.00000000000E+00 0. -1.
         11    1    1    2    0    0  0.11376736719E+03  0.75493120535E+02 -0.14039274332E+03  0.19583755376E+03  0.00000000000E+00 0.  1.
        -15    1    3    3    0    0 -0.42059363283E+02  0.98306983837E+01 -0.19470947243E+02  0.47412110120E+02  0.17770000000E+01 0. -1.
         15    1    3    3    0    0 -0.74710098058E+02 -0.79378563277E+01 -0.29035318876E+03  0.29992122344E+03  0.17770000000E+01 0.  1.
</event>
<event>
 7    1  0.4133533E-006  0.4444338E+03  0.7546771E-02  0.9533520E-01
        -11   -1    0    0    0    0  0.00000000000E+00  0.00000000000E+00  0.50000000000E+03  0.50000000000E+03  0.00000000000E+00 0.  1.
         11   -1    0    0    0    0 -0.00000000000E+00 -0.00000000000E+00 -0.50000000000E+03  0.50000000000E+03  0.00000000000E+00 0. -1.
         23    2    1    2    0    0  0.87048823244E+01 -0.16297377028E+03 -0.37054382309E+03  0.41520168308E+03  0.91942851930E+02 0.  0.
        -11    1    1    2    0    0 -0.10485818881E+03  0.20919646376E+03  0.40915066385E+03  0.47134134758E+03  0.00000000000E+00 0.  1.
         11    1    1    2    0    0  0.96153306485E+02 -0.46222693478E+02 -0.38606840752E+02  0.11345696935E+03  0.00000000000E+00 0. -1.
        -15    1    3    3    0    0 -0.20510107697E+01 -0.17268472403E+03 -0.34312434036E+03  0.38413759414E+03  0.17770000000E+01 0.  1.
         15    1    3    3    0    0  0.10755893094E+02  0.97109537460E+01 -0.27419482733E+02  0.31064088933E+02  0.17770000000E+01 0. -1.
</event>
<event>
 7    1  0.4133533E-006  0.3959137E+03  0.7546771E-02  0.9668552E-01
        -11   -1    0    0    0    0  0.00000000000E+00  0.00000000000E+00  0.50000000000E+03  0.50000000000E+03  0.00000000000E+00 0.  1.
         11   -1    0    0    0    0 -0.00000000000E+00 -0.00000000000E+00 -0.50000000000E+03  0.50000000000E+03  0.00000000000E+00 0.  1.
         23    2    1    2    0    0 -0.83161093393E+02 -0.49183153286E+02  0.13573052180E+03  0.19083483212E+03  0.93061316249E+02 0.  0.
        -11    1    1    2    0    0  0.40756420505E+03 -0.10985122830E+03  0.31019810633E+01  0.42212023866E+03  0.00000000000E+00 0.  1.
         11    1    1    2    0    0 -0.32440311166E+03  0.15903438159E+03 -0.13883250286E+03  0.38704492922E+03  0.00000000000E+00 0.  1.
        -15    1    3    3    0    0  0.18938560090E+02 -0.13725731546E+02  0.11388073849E+02  0.26075097695E+02  0.17770000000E+01 0. -1.
         15    1    3    3    0    0 -0.10209965348E+03 -0.35457421740E+02  0.12434244795E+03  0.16475973443E+03  0.17770000000E+01 0.  1.
</event>
<event>
 7    1  0.4133533E-006  0.5230811E+03  0.7546771E-02  0.9349595E-01
        -11   -1    0    0    0    0  0.00000000000E+00  0.00000000000E+00  0.50000000000E+03  0.50000000000E+03  0.00000000000E+00 0. -1.
         11   -1    0    0    0    0 -0.00000000000E+00 -0.00000000000E+00 -0.50000000000E+03  0.50000000000E+03  0.00000000000E+00 0.  1.
         23    2    1    2    0    0  0.49613223084E+02 -0.12564984015E+02  0.16120861520E+03  0.19327190131E+03  0.93522507949E+02 0.  0.
        -11    1    1    2    0    0  0.20772264723E+03  0.12251488856E+03  0.22497898243E+03  0.32980924582E+03  0.00000000000E+00 0. -1.
         11    1    1    2    0    0 -0.25733587031E+03 -0.10994990454E+03 -0.38618759764E+03  0.47691885287E+03  0.00000000000E+00 0.  1.
        -15    1    3    3    0    0  0.26388559445E+02  0.29458074460E+02  0.20490775772E+02  0.44577615921E+02  0.17770000000E+01 0.  1.
         15    1    3    3    0    0  0.23224663639E+02 -0.42023058475E+02  0.14071783943E+03  0.14869428539E+03  0.17770000000E+01 0. -1.
</event>
<event>
 7    1  0.4133533E-006  0.3508604E+03  0.7546771E-02  0.9813890E-01
        -11   -1    0    0    0    0  0.00000000000E+00  0.00000000000E+00  0.50000000000E+03  0.50000000000E+03  0.00000000000E+00 0. -1.
         11   -1    0    0    0    0 -0.00000000000E+00 -0.00000000000E+00 -0.50000000000E+03  0.50000000000E+03  0.00000000000E+00 0. -1.
         23    2    1    2    0    0  0.87401278717E+02 -0.21583340285E+03 -0.38721556741E+03  0.46064040471E+03  0.89613868915E+02 0.  0.
        -11    1    1    2    0    0 -0.51955011382E+02 -0.16691039241E+02  0.27204807701E+03  0.27746724168E+03  0.00000000000E+00 0. -1.
         11    1    1    2    0    0 -0.35446267335E+02  0.23252444209E+03  0.11516749040E+03  0.26189235361E+03  0.00000000000E+00 0. -1.
        -15    1    3    3    0    0  0.45543317178E+02 -0.21036083331E+02 -0.81918558206E+02  0.96075587164E+02  0.17770000000E+01 0.  1.
         15    1    3    3    0    0  0.41857961540E+02 -0.19479731952E+03 -0.30529700920E+03  0.36456481755E+03  0.17770000000E+01 0. -1.
</event>
<event>
 7    1  0.4133533E-006  0.5236212E+03  0.7546771E-02  0.9348453E-01
        -11   -1    0    0    0    0  0.00000000000E+00  0.00000000000E+00  0.50000000000E+03  0.50000000000E+03  0.00000000000E+00 0. -1.
         11   -1    0    0    0    0 -0.00000000000E+00 -0.00000000000E+00 -0.50000000000E+03  0.50000000000E+03  0.00000000000E+00 0. -1.
         23    2    1    2    0    0 -0.79807402641E+02  0.19849024052E+03 -0.41597660703E+03  0.47637876195E+03  0.90180874578E+02 0.  0.
        -11    1    1    2    0    0  0.11967307143E+03 -0.29230143050E+02  0.26926439453E+03  0.29610700675E+03  0.00000000000E+00 0. -1.
         11    1    1    2    0    0 -0.39865668784E+02 -0.16926009747E+03  0.14671221251E+03  0.22751423130E+03  0.00000000000E+00 0. -1.
        -15    1    3    3    0    0 -0.31619747539E+01  0.24382737904E+02 -0.74874298554E+01  0.25763061287E+02  0.17770000000E+01 0.  1.
         15    1    3    3    0    0 -0.76645427888E+02  0.17410750262E+03 -0.40848917718E+03  0.45061570066E+03  0.17770000000E+01 0. -1.
</event>
<event>
 7    1  0.4133533E-006  0.5030119E+03  0.7546771E-02  0.9393095E-01
        -11   -1    0    0    0    0  0.00000000000E+00  0.00000000000E+00  0.50000000000E+03  0.50000000000E+03  0.00000000000E+00 0.  1.
         11   -1    0    0    0    0 -0.00000000000E+00 -0.00000000000E+00 -0.50000000000E+03  0.50000000000E+03  0.00000000000E+00 0.  1.
         23    2    1    2    0    0  0.57814647296E+02  0.59580068207E+02 -0.48076917269E+03  0.49698811409E+03  0.94688278977E+02 0.  0.
        -11    1    1    2    0    0 -0.75755891656E+02 -0.83295077739E+02  0.42670006121E+03  0.44130484626E+03  0.00000000000E+00 0.  1.
         11    1    1    2    0    0  0.17941244360E+02  0.23715009532E+02  0.54069111479E+02  0.61707039650E+02  0.00000000000E+00 0.  1.
        -15    1    3    3    0    0  0.73819875967E+02  0.11033932340E+02 -0.27453439500E+03  0.28450555973E+03  0.17770000000E+01 0. -1.
         15    1    3    3    0    0 -0.16005228671E+02  0.48546135867E+02 -0.20623477769E+03  0.21248255436E+03  0.17770000000E+01 0.  1.
</event>
<event>
 7    1  0.4133533E-006  0.3754148E+03  0.7546771E-02  0.9731968E-01
        -11   -1    0    0    0    0  0.00000000000E+00  0.00000000000E+00  0.50000000000E+03  0.50000000000E+03  0.00000000000E+00 0. -1.
         11   -1    0    0    0    0 -0.00000000000E+00 -0.00000000000E+00 -0.50000000000E+03  0.50000000000E+03  0.00000000000E+00 0. -1.
         23    2    1    2    0    0 -0.57547150433E+02  0.11890095339E+03 -0.43212871207E+03  0.46690961635E+03  0.11755957982E+03 0.  0.
        -11    1    1    2    0    0 -0.47548509335E+02  0.36109829991E+02  0.29498270037E+03  0.30096440667E+03  0.00000000000E+00 0. -1.
         11    1    1    2    0    0  0.10509565977E+03 -0.15501078338E+03  0.13714601170E+03  0.23212597698E+03  0.00000000000E+00 0. -1.
        -15    1    3    3    0    0 -0.36145116587E+02 -0.14222104459E+02 -0.13745147618E+03  0.14284538404E+03  0.17770000000E+01 0.  1.
         15    1    3    3    0    0 -0.21402033846E+02  0.13312305785E+03 -0.29467723589E+03  0.32406423231E+03  0.17770000000E+01 0. -1.
</event>
<event>
 7    1  0.4133533E-006  0.5156351E+03  0.7546771E-02  0.9365489E-01
        -11   -1    0    0    0    0  0.00000000000E+00  0.00000000000E+00  0.50000000000E+03  0.50000000000E+03  0.00000000000E+00 0.  1.
         11   -1    0    0    0    0 -0.00000000000E+00 -0.00000000000E+00 -0.50000000000E+03  0.50000000000E+03  0.00000000000E+00 0. -1.
         23    2    1    2    0    0 -0.30052763517E+02  0.41009235215E+02  0.22160161558E+03  0.24857235977E+03  0.10047893334E+03 0.  0.
        -11    1    1    2    0    0 -0.11607666951E+03  0.10422776945E+03  0.21676093579E+03  0.26706277243E+03  0.00000000000E+00 0.  1.
         11    1    1    2    0    0  0.14612943303E+03 -0.14523700466E+03 -0.43836255137E+03  0.48436486781E+03  0.00000000000E+00 0. -1.
        -15    1    3    3    0    0 -0.46529124909E+02 -0.11054557379E+02  0.15611668244E+03  0.16328728967E+03  0.17770000000E+01 0.  1.
         15    1    3    3    0    0  0.16476361392E+02  0.52063792594E+02  0.65484933142E+02  0.85285070098E+02  0.17770000000E+01 0. -1.
</event>
<event>
 7    1  0.4133533E-006  0.5295956E+03  0.7546771E-02  0.9335918E-01
        -11   -1    0    0    0    0  0.00000000000E+00  0.00000000000E+00  0.50000000000E+03  0.50000000000E+03  0.00000000000E+00 0. -1.
         11   -1    0    0    0    0 -0.00000000000E+00 -0.00000000000E+00 -0.50000000000E+03  0.50000000000E+03  0.00000000000E+00 0.  1.
         23    2    1    2    0    0  0.93977353863E+02 -0.11904644013E+03 -0.19876395992E+03  0.26094480716E+03  0.74707982670E+02 0.  0.
        -11    1    1    2    0    0 -0.10051141689E+03  0.46056911590E+02  0.45722693470E+03  0.47040435143E+03  0.00000000000E+00 0. -1.
         11    1    1    2    0    0  0.65340630287E+01  0.72989528539E+02 -0.25846297478E+03  0.26865084141E+03  0.00000000000E+00 0.  1.
        -15    1    3    3    0    0  0.59264998972E+02 -0.17812418494E+02 -0.68003020844E+02  0.91962986731E+02  0.17770000000E+01 0.  1.
         15    1    3    3    0    0  0.34712354892E+02 -0.10123402164E+03 -0.13076093908E+03  0.16898182043E+03  0.17770000000E+01 0. -1.
</event>
<event>
 7    1  0.4133533E-006  0.5197888E+03  0.7546771E-02  0.9356588E-01
        -11   -1    0    0    0    0  0.00000000000E+00  0.00000000000E+00  0.50000000000E+03  0.50000000000E+03  0.00000000000E+00 0.  1.
         11   -1    0    0    0    0 -0.00000000000E+00 -0.00000000000E+00 -0.50000000000E+03  0.50000000000E+03  0.00000000000E+00 0. -1.
         23    2    1    2    0    0  0.68286931505E+02  0.34142779978E+02  0.70556889419E+02  0.13908937429E+03  0.92405329704E+02 0.  0.
        -11    1    1    2    0    0  0.31353781746E+03  0.26354366104E+02  0.21431638602E+03  0.38069939441E+03  0.00000000000E+00 0.  1.
         11    1    1    2    0    0 -0.38182474896E+03 -0.60497146082E+02 -0.28487327544E+03  0.48021123130E+03  0.00000000000E+00 0. -1.
        -15    1    3    3    0    0  0.66954395233E+02  0.57689501164E+02  0.73879986189E+02  0.11520581441E+03  0.17770000000E+01 0.  1.
         15    1    3    3    0    0  0.13325362722E+01 -0.23546721186E+02 -0.33230967699E+01  0.23883559883E+02  0.17770000000E+01 0. -1.
</event>
<event>
 7    1  0.4133533E-006  0.4801773E+03  0.7546771E-02  0.9445291E-01
        -11   -1    0    0    0    0  0.00000000000E+00  0.00000000000E+00  0.50000000000E+03  0.50000000000E+03  0.00000000000E+00 0.  1.
         11   -1    0    0    0    0 -0.00000000000E+00 -0.00000000000E+00 -0.50000000000E+03  0.50000000000E+03  0.00000000000E+00 0. -1.
         23    2    1    2    0    0  0.18512526939E+03  0.38003728022E+03  0.17149137239E+03  0.46548237623E+03  0.92546485915E+02 0.  0.
        -11    1    1    2    0    0  0.27269119474E+02  0.46480380507E+01  0.38570865241E+02  0.47464942642E+02  0.00000000000E+00 0.  1.
         11    1    1    2    0    0 -0.21239438886E+03 -0.38468531827E+03 -0.21006223763E+03  0.48705268113E+03  0.00000000000E+00 0. -1.
        -15    1    3    3    0    0  0.84411012235E+01  0.80891716116E+02  0.87340973032E+01  0.81817871585E+02  0.17770000000E+01 0. -1.
         15    1    3    3    0    0  0.17668416816E+03  0.29914556410E+03  0.16275727509E+03  0.38366450465E+03  0.17770000000E+01 0.  1.
</event>
<event>
 7    1  0.4133533E-006  0.4268036E+03  0.7546771E-02  0.9580360E-01
        -11   -1    0    0    0    0  0.00000000000E+00  0.00000000000E+00  0.50000000000E+03  0.50000000000E+03  0.00000000000E+00 0.  1.
         11   -1    0    0    0    0 -0.00000000000E+00 -0.00000000000E+00 -0.50000000000E+03  0.50000000000E+03  0.00000000000E+00 0. -1.
         23    2    1    2    0    0 -0.84583348731E+02 -0.16479538329E+02 -0.50373311376E+02  0.14057655073E+03  0.98986756941E+02 0.  0.
        -11    1    1    2    0    0 -0.73595471276E+02 -0.80002003318E+02  0.42650143610E+03  0.44013644353E+03  0.00000000000E+00 0.  1.
         11    1    1    2    0    0  0.15817882001E+03  0.96481541647E+02 -0.37612812472E+03  0.41928700574E+03  0.00000000000E+00 0. -1.
        -15    1    3    3    0    0 -0.10328429649E+03  0.11308263060E+01 -0.29515184608E+02  0.10743941791E+03  0.17770000000E+01 0.  1.
         15    1    3    3    0    0  0.18700947764E+02 -0.17610364635E+02 -0.20858126768E+02  0.33137132814E+02  0.17770000000E+01 0. -1.
</event>
<event>
 7    1  0.4133533E-006  0.4827737E+03  0.7546771E-02  0.9439202E-01
        -11   -1    0    0    0    0  0.00000000000E+00  0.00000000000E+00  0.50000000000E+03  0.50000000000E+03  0.00000000000E+00 0.  1.
         11   -1    0    0    0    0 -0.00000000000E+00 -0.00000000000E+00 -0.50000000000E+03  0.50000000000E+03  0.00000000000E+00 0. -1.
         23    2    1    2    0    0 -0.13915255038E+03  0.25116612476E+02 -0.44569445997E+03  0.47647866764E+03  0.91619280570E+02 0.  0.
        -11    1    1    2    0    0  0.10430607025E+03 -0.21076804445E+02  0.46931641792E+03  0.48122955864E+03  0.00000000000E+00 0.  1.
         11    1    1    2    0    0  0.34846480134E+02 -0.40398080310E+01 -0.23621957956E+02  0.42291773720E+02  0.00000000000E+00 0. -1.
        -15    1    3    3    0    0 -0.13848467801E+03  0.13087300814E+02 -0.44255193944E+03  0.46390156317E+03  0.17770000000E+01 0. -1.
         15    1    3    3    0    0 -0.66787237616E+00  0.12029311662E+02 -0.31425205302E+01  0.12577104470E+02  0.17770000000E+01 0.  1.
</event>
<event>
 7    1  0.4133533E-006  0.3988515E+03  0.7546771E-02  0.9659800E-01
        -11   -1    0    0    0    0  0.00000000000E+00  0.00000000000E+00  0.50000000000E+03  0.50000000000E+03  0.00000000000E+00 0. -1.
         11   -1    0    0    0    0 -0.00000000000E+00 -0.00000000000E+00 -0.50000000000E+03  0.50000000000E+03  0.00000000000E+00 0.  1.
         23    2    1    2    0    0 -0.83009095246E+02  0.54885031964E+02  0.35614795189E+03  0.38049600761E+03  0.89626846116E+02 0.  0.
        -11    1    1    2    0    0 -0.18739095990E+03 -0.19117252915E+02 -0.24264039174E+02  0.18991994316E+03  0.00000000000E+00 0. -1.
         11    1    1    2    0    0  0.27040005515E+03 -0.35767779050E+02 -0.33188391271E+03  0.42958404924E+03  0.00000000000E+00 0.  1.
        -15    1    3    3    0    0 -0.90979693608E+02  0.21258508359E+02  0.20282676226E+03  0.22331834238E+03  0.17770000000E+01 0. -1.
         15    1    3    3    0    0  0.79705983613E+01  0.33626523605E+02  0.15332118963E+03  0.15717766522E+03  0.17770000000E+01 0.  1.
</event>
<event>
 7    1  0.4133533E-006  0.5188817E+03  0.7546771E-02  0.9358524E-01
        -11   -1    0    0    0    0  0.00000000000E+00  0.00000000000E+00  0.50000000000E+03  0.50000000000E+03  0.00000000000E+00 0. -1.
         11   -1    0    0    0    0 -0.00000000000E+00 -0.00000000000E+00 -0.50000000000E+03  0.50000000000E+03  0.00000000000E+00 0. -1.
         23    2    1    2    0    0 -0.33199903625E+02 -0.91763815138E+02  0.98077332406E+02  0.16527889626E+03  0.90416364937E+02 0.  0.
        -11    1    1    2    0    0  0.79310901668E+02 -0.23710880761E+03  0.25004823878E+03  0.35360278207E+03  0.00000000000E+00 0. -1.
         11    1    1    2    0    0 -0.46110998043E+02  0.32887262275E+03 -0.34812557119E+03  0.48111832167E+03  0.00000000000E+00 0. -1.
        -15    1    3    3    0    0  0.16460817609E+02 -0.31127253318E+02  0.76082789532E+02  0.83854713686E+02  0.17770000000E+01 0.  1.
         15    1    3    3    0    0 -0.49660721235E+02 -0.60636561821E+02  0.21994542874E+02  0.81424182576E+02  0.17770000000E+01 0. -1.
</event>
<event>
 7    1  0.4133533E-006  0.4380833E+03  0.7546771E-02  0.9550121E-01
        -11   -1    0    0    0    0  0.00000000000E+00  0.00000000000E+00  0.50000000000E+03  0.50000000000E+03  0.00000000000E+00 0.  1.
         11   -1    0    0    0    0 -0.00000000000E+00 -0.00000000000E+00 -0.50000000000E+03  0.50000000000E+03  0.00000000000E+00 0. -1.
         23    2    1    2    0    0 -0.10954108010E+03  0.19796040895E+01 -0.37902171310E+03  0.40693558148E+03  0.99679192463E+02 0.  0.
        -11    1    1    2    0    0  0.21845436464E+03 -0.58447272422E+02  0.40847757492E+03  0.46689647920E+03  0.00000000000E+00 0.  1.
         11    1    1    2    0    0 -0.10891328454E+03  0.56467668333E+02 -0.29455861815E+02  0.12616793932E+03  0.00000000000E+00 0. -1.
        -15    1    3    3    0    0 -0.37480537223E+02  0.48660277260E+02 -0.13767427192E+03  0.15076463820E+03  0.17770000000E+01 0.  1.
         15    1    3    3    0    0 -0.72060542878E+02 -0.46680673171E+02 -0.24134744118E+03  0.25617094328E+03  0.17770000000E+01 0. -1.
</event>
<event>
 7    1  0.4133533E-006  0.3940853E+03  0.7546771E-02  0.9674040E-01
        -11   -1    0    0    0    0  0.00000000000E+00  0.00000000000E+00  0.50000000000E+03  0.50000000000E+03  0.00000000000E+00 0. -1.
         11   -1    0    0    0    0 -0.00000000000E+00 -0.00000000000E+00 -0.50000000000E+03  0.50000000000E+03  0.00000000000E+00 0.  1.
         23    2    1    2    0    0 -0.16972635940E+03 -0.17702378499E+03 -0.31325751692E+03  0.40773888512E+03  0.89309960278E+02 0.  0.
        -11    1    1    2    0    0 -0.13457650736E+02 -0.13083400525E+03  0.14723095564E+03  0.19742238878E+03  0.00000000000E+00 0.  1.
         11    1    1    2    0    0  0.18318401013E+03  0.30785779024E+03  0.16602656128E+03  0.39483872610E+03  0.00000000000E+00 0. -1.
        -15    1    3    3    0    0 -0.15626870684E+03 -0.11294828515E+03 -0.20681667444E+03  0.28276053192E+03  0.17770000000E+01 0.  1.
         15    1    3    3    0    0 -0.13457652559E+02 -0.64075499836E+02 -0.10644084248E+03  0.12497835320E+03  0.17770000000E+01 0. -1.
</event>
<event>
 7    1  0.4133533E-006  0.3436199E+03  0.7546771E-02  0.9839429E-01
        -11   -1    0    0    0    0  0.00000000000E+00  0.00000000000E+00  0.50000000000E+03  0.50000000000E+03  0.00000000000E+00 0.  1.
         11   -1    0    0    0    0 -0.00000000000E+00 -0.00000000000E+00 -0.50000000000E+03  0.50000000000E+03  0.00000000000E+00 0. -1.
         23    2    1    2    0    0 -0.14735576274E+03  0.13035658161E+03  0.16626043878E+03  0.27321100344E+03  0.91077767388E+02 0.  0.
        -11    1    1    2    0    0  0.46419620058E+02 -0.33178960699E+02  0.26617457489E+03  0.27222147028E+03  0.00000000000E+00 0.  1.
         11    1    1    2    0    0  0.10093614268E+03 -0.97177620914E+02 -0.43243501367E+03  0.45456752629E+03  0.00000000000E+00 0. -1.
        -15    1    3    3    0    0 -0.65152284914E+02  0.10036654767E+03  0.55145441753E+02  0.13176661791E+03  0.17770000000E+01 0.  1.
         15    1    3    3    0    0 -0.82203477827E+02  0.29990033941E+02  0.11111499703E+03  0.14144438552E+03  0.17770000000E+01 0. -1.
</event>
<event>
 7    1  0.4133533E-006  0.5118417E+03  0.7546771E-02  0.9373696E-01
        -11   -1    0    0    0    0  0.00000000000E+00  0.00000000000E+00  0.50000000000E+03  0.50000000000E+03  0.00000000000E+00 0.  1.
         11   -1    0    0    0    0 -0.00000000000E+00 -0.00000000000E+00 -0.50000000000E+03  0.50000000000E+03  0.00000000000E+00 0. -1.
         23    2    1    2    0    0  0.14347862020E+02  0.15869448770E+02 -0.18845006148E+03  0.21080061889E+03  0.92009644616E+02 0.  0.
        -11    1    1    2    0    0 -0.65924170756E+02 -0.95311325359E+02  0.47420277276E+03  0.48815828860E+03  0.00000000000E+00 0.  1.
         11    1    1    2    0    0  0.51576308736E+02  0.79441876589E+02 -0.28575271128E+03  0.30104109252E+03  0.00000000000E+00 0. -1.
        -15    1    3    3    0    0 -0.42115789828E+01  0.45937190818E+02 -0.15637271562E+03  0.16304461603E+03  0.17770000000E+01 0.  1.
         15    1    3    3    0    0  0.18559441003E+02 -0.30067742048E+02 -0.32077345859E+02  0.47756002853E+02  0.17770000000E+01 0. -1.
</event>
<event>
 6    1  0.4133533E-006  0.4197878E+03  0.7546771E-02  0.9599676E-01
        -11   -1    0    0    0    0  0.00000000000E+00  0.00000000000E+00  0.50000000000E+03  0.50000000000E+03  0.00000000000E+00 0.  1.
         11   -1    0    0    0    0 -0.00000000000E+00 -0.00000000000E+00 -0.50000000000E+03  0.50000000000E+03  0.00000000000E+00 0. -1.
        -11    1    1    2    0    0 -0.37109731169E+02 -0.74937021172E+02  0.45636776283E+03  0.46396575762E+03  0.00000000000E+00 0.  1.
         11    1    1    2    0    0 -0.62430523479E+02  0.12308304784E+02 -0.38181240974E+03  0.38707852028E+03  0.00000000000E+00 0. -1.
        -15    1    1    2    0    0  0.33941005241E+02  0.44463897816E+01 -0.44661915860E+02  0.56299259997E+02  0.17770000000E+01 0.  1.
         15    1    1    2    0    0  0.65599249407E+02  0.58182326607E+02 -0.29893437230E+02  0.92656462109E+02  0.17770000000E+01 0. -1.
</event>
<event>
 7    1  0.4133533E-006  0.5273114E+03  0.7546771E-02  0.9340690E-01
        -11   -1    0    0    0    0  0.00000000000E+00  0.00000000000E+00  0.50000000000E+03  0.50000000000E+03  0.00000000000E+00 0.  1.
         11   -1    0    0    0    0 -0.00000000000E+00 -0.00000000000E+00 -0.50000000000E+03  0.50000000000E+03  0.00000000000E+00 0. -1.
         23    2    1    2    0    0 -0.37842415046E+02  0.41109311685E+02 -0.14054656851E+03  0.17695933754E+03  0.91865365292E+02 0.  0.
        -11    1    1    2    0    0  0.56974197799E+02  0.10953366648E+03  0.45627937641E+03  0.47268864239E+03  0.00000000000E+00 0.  1.
         11    1    1    2    0    0 -0.19131782753E+02 -0.15064297817E+03 -0.31573280790E+03  0.35035202007E+03  0.00000000000E+00 0. -1.
        -15    1    3    3    0    0  0.13402890088E+01 -0.15446360312E+02 -0.90564864161E+02  0.91899612464E+02  0.17770000000E+01 0.  1.
         15    1    3    3    0    0 -0.39182704055E+02  0.56555671996E+02 -0.49981704348E+02  0.85059725079E+02  0.17770000000E+01 0. -1.
</event>
<event>
 7    1  0.4133533E-006  0.5055612E+03  0.7546771E-02  0.9387451E-01
        -11   -1    0    0    0    0  0.00000000000E+00  0.00000000000E+00  0.50000000000E+03  0.50000000000E+03  0.00000000000E+00 0.  1.
         11   -1    0    0    0    0 -0.00000000000E+00 -0.00000000000E+00 -0.50000000000E+03  0.50000000000E+03  0.00000000000E+00 0. -1.
         23    2    1    2    0    0 -0.53129571873E+02  0.54718987512E+02 -0.47972952035E+03  0.49443882295E+03  0.92262765726E+02 0.  0.
        -11    1    1    2    0    0  0.33413539778E+02 -0.85450652710E+02  0.44765672057E+03  0.45696260039E+03  0.00000000000E+00 0.  1.
         11    1    1    2    0    0  0.19716032095E+02  0.30731665198E+02  0.32072799786E+02  0.48598576662E+02  0.00000000000E+00 0. -1.
        -15    1    3    3    0    0 -0.32336651562E+02 -0.16204949898E+02 -0.78439297427E+02  0.86395257655E+02  0.17770000000E+01 0.  1.
         15    1    3    3    0    0 -0.20792920311E+02  0.70923937410E+02 -0.40129022292E+03  0.40804356529E+03  0.17770000000E+01 0. -1.
</event>
<event>
 7    1  0.4133533E-006  0.5345383E+03  0.7546771E-02  0.9325680E-01
        -11   -1    0    0    0    0  0.00000000000E+00  0.00000000000E+00  0.50000000000E+03  0.50000000000E+03  0.00000000000E+00 0.  1.
         11   -1    0    0    0    0 -0.00000000000E+00 -0.00000000000E+00 -0.50000000000E+03  0.50000000000E+03  0.00000000000E+00 0. -1.
         23    2    1    2    0    0  0.80165172654E+01 -0.57682956019E+02 -0.67095970402E+02  0.13893342552E+03  0.10681310556E+03 0.  0.
        -11    1    1    2    0    0 -0.73855040768E+02  0.47906935731E+02  0.45706124171E+03  0.46546172798E+03  0.00000000000E+00 0.  1.
         11    1    1    2    0    0  0.65838523502E+02  0.97760202887E+01 -0.38996527131E+03  0.39560484650E+03  0.00000000000E+00 0. -1.
        -15    1    3    3    0    0  0.24354765597E+02 -0.15439253905E+02  0.23754697630E+02  0.37402788090E+02  0.17770000000E+01 0.  1.
         15    1    3    3    0    0 -0.16338248332E+02 -0.42243702115E+02 -0.90850668032E+02  0.10153063743E+03  0.17770000000E+01 0. -1.
</event>
<event>
 7    1  0.4133533E-006  0.5199342E+03  0.7546771E-02  0.9356278E-01
        -11   -1    0    0    0    0  0.00000000000E+00  0.00000000000E+00  0.50000000000E+03  0.50000000000E+03  0.00000000000E+00 0. -1.
         11   -1    0    0    0    0 -0.00000000000E+00 -0.00000000000E+00 -0.50000000000E+03  0.50000000000E+03  0.00000000000E+00 0. -1.
         23    2    1    2    0    0 -0.80674384926E+02  0.10576811001E+03  0.29056313771E+03  0.33251553556E+03  0.91893388866E+02 0.  0.
        -11    1    1    2    0    0  0.29243667011E+02 -0.35930117431E+02  0.18160283734E+03  0.18741866484E+03  0.00000000000E+00 0. -1.
         11    1    1    2    0    0  0.51430717915E+02 -0.69837992575E+02 -0.47216597505E+03  0.48006579960E+03  0.00000000000E+00 0. -1.
        -15    1    3    3    0    0  0.18970133620E+02  0.26952253541E+02  0.80653483465E+02  0.87146038720E+02  0.17770000000E+01 0.  1.
         15    1    3    3    0    0 -0.99644518546E+02  0.78815856466E+02  0.20990965424E+03  0.24536949684E+03  0.17770000000E+01 0. -1.
</event>
<event>
 7    1  0.4133533E-006  0.4350738E+03  0.7546771E-02  0.9558093E-01
        -11   -1    0    0    0    0  0.00000000000E+00  0.00000000000E+00  0.50000000000E+03  0.50000000000E+03  0.00000000000E+00 0. -1.
         11   -1    0    0    0    0 -0.00000000000E+00 -0.00000000000E+00 -0.50000000000E+03  0.50000000000E+03  0.00000000000E+00 0. -1.
         23    2    1    2    0    0  0.29447271200E+02 -0.67991012382E+02  0.42500402955E+02  0.12566989628E+03  0.92177649319E+02 0.  0.
        -11    1    1    2    0    0 -0.11100784908E+03  0.18181392480E+02  0.40314946159E+03  0.41854843683E+03  0.00000000000E+00 0. -1.
         11    1    1    2    0    0  0.81560577884E+02  0.49809619902E+02 -0.44564986455E+03  0.45578166689E+03  0.00000000000E+00 0. -1.
        -15    1    3    3    0    0  0.52209709856E+02 -0.70772506597E+02  0.14041033635E+02  0.89078110935E+02  0.17770000000E+01 0. -1.
         15    1    3    3    0    0 -0.22762438656E+02  0.27814942153E+01  0.28459369321E+02  0.36591785345E+02  0.17770000000E+01 0.  1.
</event>
<event>
 7    1  0.4133533E-006  0.5356056E+03  0.7546771E-02  0.9323485E-01
        -11   -1    0    0    0    0  0.00000000000E+00  0.00000000000E+00  0.50000000000E+03  0.50000000000E+03  0.00000000000E+00 0. -1.
         11   -1    0    0    0    0 -0.00000000000E+00 -0.00000000000E+00 -0.50000000000E+03  0.50000000000E+03  0.00000000000E+00 0. -1.
         23    2    1    2    0    0  0.72976548218E+02  0.87003608453E+02  0.14576391383E+03  0.20524443477E+03  0.89347383589E+02 0.  0.
        -11    1    1    2    0    0  0.11311075706E+03  0.31032752636E+03  0.64255583587E+01  0.33036117323E+03  0.00000000000E+00 0. -1.
         11    1    1    2    0    0 -0.18608730528E+03 -0.39733113481E+03 -0.15218947219E+03  0.46439439200E+03  0.00000000000E+00 0. -1.
        -15    1    3    3    0    0  0.93681256472E+02  0.77360071728E+02  0.12502902128E+03  0.17434498101E+03  0.17770000000E+01 0.  1.
         15    1    3    3    0    0 -0.20704708254E+02  0.96435367256E+01  0.20734892554E+02  0.30899453760E+02  0.17770000000E+01 0. -1.
</event>
<event>
 7    1  0.4133533E-006  0.4073882E+03  0.7546771E-02  0.9634819E-01
        -11   -1    0    0    0    0  0.00000000000E+00  0.00000000000E+00  0.50000000000E+03  0.50000000000E+03  0.00000000000E+00 0. -1.
         11   -1    0    0    0    0 -0.00000000000E+00 -0.00000000000E+00 -0.50000000000E+03  0.50000000000E+03  0.00000000000E+00 0. -1.
         23    2    1    2    0    0  0.81327781705E+02  0.11862269164E+03 -0.32105789268E+03  0.36351534879E+03  0.91540631980E+02 0.  0.
        -11    1    1    2    0    0 -0.16664738296E+03 -0.77380610860E+01  0.42866223756E+03  0.45998102324E+03  0.00000000000E+00 0. -1.
         11    1    1    2    0    0  0.85319601253E+02 -0.11088463055E+03 -0.10760434487E+03  0.17650362797E+03  0.00000000000E+00 0. -1.
        -15    1    3    3    0    0  0.28482036324E+02  0.49851888354E+02 -0.23272497370E+03  0.23970921609E+03  0.17770000000E+01 0.  1.
         15    1    3    3    0    0  0.52845745381E+02  0.68770803282E+02 -0.88332918981E+02  0.12380613270E+03  0.17770000000E+01 0. -1.
</event>
<event>
 7    1  0.4133533E-006  0.5169877E+03  0.7546771E-02  0.9362581E-01
        -11   -1    0    0    0    0  0.00000000000E+00  0.00000000000E+00  0.50000000000E+03  0.50000000000E+03  0.00000000000E+00 0.  1.
         11   -1    0    0    0    0 -0.00000000000E+00 -0.00000000000E+00 -0.50000000000E+03  0.50000000000E+03  0.00000000000E+00 0. -1.
         23    2    1    2    0    0  0.10349820847E+02 -0.40206661968E+02  0.10267985309E+03  0.14336788540E+03  0.91035728564E+02 0.  0.
        -11    1    1    2    0    0 -0.19732161415E+01 -0.83018015704E+02  0.36427449286E+03  0.37361984779E+03  0.00000000000E+00 0.  1.
         11    1    1    2    0    0 -0.83766047050E+01  0.12322467767E+03 -0.46695434595E+03  0.48301226681E+03  0.00000000000E+00 0. -1.
        -15    1    3    3    0    0  0.46004272881E+02 -0.12129760429E+01  0.37144566647E+02  0.59167060047E+02  0.17770000000E+01 0. -1.
         15    1    3    3    0    0 -0.35654452034E+02 -0.38993685926E+02  0.65535286441E+02  0.84200825352E+02  0.17770000000E+01 0.  1.
</event>
<event>
 7    1  0.4133533E-006  0.5211120E+03  0.7546771E-02  0.9353771E-01
        -11   -1    0    0    0    0  0.00000000000E+00  0.00000000000E+00  0.50000000000E+03  0.50000000000E+03  0.00000000000E+00 0.  1.
         11   -1    0    0    0    0 -0.00000000000E+00 -0.00000000000E+00 -0.50000000000E+03  0.50000000000E+03  0.00000000000E+00 0. -1.
         23    2    1    2    0    0  0.11532932310E+03 -0.48244418221E+02 -0.38100592692E+03  0.41155186078E+03  0.92633909044E+02 0.  0.
        -11    1    1    2    0    0 -0.64531852450E+02  0.98173302998E+02  0.46425349960E+03  0.47888795066E+03  0.00000000000E+00 0.  1.
         11    1    1    2    0    0 -0.50797470654E+02 -0.49928884776E+02 -0.83247572679E+02  0.10956018856E+03  0.00000000000E+00 0. -1.
        -15    1    3    3    0    0 -0.12793720214E+02  0.60739775468E+01 -0.19374652721E+02  0.24064649950E+02  0.17770000000E+01 0.  1.
         15    1    3    3    0    0  0.12812304332E+03 -0.54318395768E+02 -0.36163127420E+03  0.38748721083E+03  0.17770000000E+01 0. -1.
</event>
<event>
 7    1  0.4133533E-006  0.5123938E+03  0.7546771E-02  0.9372497E-01
        -11   -1    0    0    0    0  0.00000000000E+00  0.00000000000E+00  0.50000000000E+03  0.50000000000E+03  0.00000000000E+00 0. -1.
         11   -1    0    0    0    0 -0.00000000000E+00 -0.00000000000E+00 -0.50000000000E+03  0.50000000000E+03  0.00000000000E+00 0. -1.
         23    2    1    2    0    0 -0.20324360913E+02 -0.33822860582E+01 -0.28279164772E+03  0.29891351034E+03  0.94623734542E+02 0.  0.
        -11    1    1    2    0    0  0.68621307814E+02  0.80125587523E+02  0.47605755646E+03  0.48760618405E+03  0.00000000000E+00 0. -1.
         11    1    1    2    0    0 -0.48296946901E+02 -0.76743301465E+02 -0.19326590874E+03  0.21348030561E+03  0.00000000000E+00 0. -1.
        -15    1    3    3    0    0  0.18954768755E+02 -0.23808938258E+02 -0.31840984886E+02  0.44081230099E+02  0.17770000000E+01 0.  1.
         15    1    3    3    0    0 -0.39279129668E+02  0.20426652200E+02 -0.25095066283E+03  0.25483228024E+03  0.17770000000E+01 0. -1.
</event>
<event>
 7    1  0.4133533E-006  0.5010732E+03  0.7546771E-02  0.9397412E-01
        -11   -1    0    0    0    0  0.00000000000E+00  0.00000000000E+00  0.50000000000E+03  0.50000000000E+03  0.00000000000E+00 0.  1.
         11   -1    0    0    0    0 -0.00000000000E+00 -0.00000000000E+00 -0.50000000000E+03  0.50000000000E+03  0.00000000000E+00 0. -1.
         23    2    1    2    0    0 -0.86358633038E+01 -0.53602350569E+02 -0.48955881447E+03  0.50107318669E+03  0.91971275227E+02 0.  0.
        -11    1    1    2    0    0 -0.62764905655E+00  0.71554278337E+02  0.43290530068E+03  0.43877945263E+03  0.00000000000E+00 0.  1.
         11    1    1    2    0    0  0.92635123604E+01 -0.17951927768E+02  0.56653513796E+02  0.60147360684E+02  0.00000000000E+00 0. -1.
        -15    1    3    3    0    0 -0.46035615019E+02 -0.45557796856E+02 -0.36683460659E+03  0.37251251929E+03  0.17770000000E+01 0. -1.
         15    1    3    3    0    0  0.37399751715E+02 -0.80445537124E+01 -0.12272420788E+03  0.12856066740E+03  0.17770000000E+01 0.  1.
</event>
<event>
 7    1  0.4133533E-006  0.5196235E+03  0.7546771E-02  0.9356940E-01
        -11   -1    0    0    0    0  0.00000000000E+00  0.00000000000E+00  0.50000000000E+03  0.50000000000E+03  0.00000000000E+00 0.  1.
         11   -1    0    0    0    0 -0.00000000000E+00 -0.00000000000E+00 -0.50000000000E+03  0.50000000000E+03  0.00000000000E+00 0. -1.
         23    2    1    2    0    0  0.11929648217E+02 -0.12912642911E+02 -0.25801182545E+03  0.27389660537E+03  0.90223032031E+02 0.  0.
        -11    1    1    2    0    0  0.11410343025E+03 -0.21475506054E+02  0.46613391832E+03  0.48037653977E+03  0.00000000000E+00 0.  1.
         11    1    1    2    0    0 -0.12603307847E+03  0.34388148964E+02 -0.20812209287E+03  0.24572685486E+03  0.00000000000E+00 0. -1.
        -15    1    3    3    0    0 -0.25928255674E+02 -0.30764069496E+02 -0.65588246799E+02  0.76965435499E+02  0.17770000000E+01 0.  1.
         15    1    3    3    0    0  0.37857903891E+02  0.17851426586E+02 -0.19242357865E+03  0.19693116987E+03  0.17770000000E+01 0. -1.
</event>
<event>
 7    1  0.4133533E-006  0.3221245E+03  0.7546771E-02  0.9919410E-01
        -11   -1    0    0    0    0  0.00000000000E+00  0.00000000000E+00  0.50000000000E+03  0.50000000000E+03  0.00000000000E+00 0.  1.
         11   -1    0    0    0    0 -0.00000000000E+00 -0.00000000000E+00 -0.50000000000E+03  0.50000000000E+03  0.00000000000E+00 0.  1.
         23    2    1    2    0    0  0.94031572188E+02  0.13819498626E+03 -0.22693307561E+03  0.29679644301E+03  0.93003854663E+02 0.  0.
        -11    1    1    2    0    0  0.19750140153E+03 -0.16709573854E+03  0.30507598779E+03  0.39999893471E+03  0.00000000000E+00 0.  1.
         11    1    1    2    0    0 -0.29153297372E+03  0.28900752282E+02 -0.78142912181E+02  0.30320462228E+03  0.00000000000E+00 0.  1.
        -15    1    3    3    0    0 -0.44495919052E+01  0.72507915970E+02 -0.93386074435E+02  0.11832714555E+03  0.17770000000E+01 0.  1.
         15    1    3    3    0    0  0.98481164093E+02  0.65687070292E+02 -0.13354700117E+03  0.17846929746E+03  0.17770000000E+01 0. -1.
</event>
<event>
 7    1  0.4133533E-006  0.4114670E+03  0.7546771E-02  0.9623113E-01
        -11   -1    0    0    0    0  0.00000000000E+00  0.00000000000E+00  0.50000000000E+03  0.50000000000E+03  0.00000000000E+00 0.  1.
         11   -1    0    0    0    0 -0.00000000000E+00 -0.00000000000E+00 -0.50000000000E+03  0.50000000000E+03  0.00000000000E+00 0. -1.
         23    2    1    2    0    0  0.20050811130E+03 -0.16386118850E+01 -0.40476298224E+03  0.45882089637E+03  0.80482019190E+02 0.  0.
        -11    1    1    2    0    0 -0.10756199548E+03  0.12314115937E+03  0.33556647502E+03  0.37328030642E+03  0.00000000000E+00 0.  1.
         11    1    1    2    0    0 -0.92946115821E+02 -0.12150254749E+03  0.69196507215E+02  0.16789879720E+03  0.00000000000E+00 0. -1.
        -15    1    3    3    0    0  0.13439006320E+03  0.36687869536E+02 -0.27276682889E+03  0.30628677661E+03  0.17770000000E+01 0. -1.
         15    1    3    3    0    0  0.66118048108E+02 -0.38326481421E+02 -0.13199615335E+03  0.15253411976E+03  0.17770000000E+01 0.  1.
</event>
<event>
 7    1  0.4133533E-006  0.4097292E+03  0.7546771E-02  0.9628083E-01
        -11   -1    0    0    0    0  0.00000000000E+00  0.00000000000E+00  0.50000000000E+03  0.50000000000E+03  0.00000000000E+00 0. -1.
         11   -1    0    0    0    0 -0.00000000000E+00 -0.00000000000E+00 -0.50000000000E+03  0.50000000000E+03  0.00000000000E+00 0. -1.
         23    2    1    2    0    0  0.33005352210E+03 -0.28417526337E+03  0.96044317341E+02  0.45629200336E+03  0.96368945593E+02 0.  0.
        -11    1    1    2    0    0 -0.27195915440E+02  0.15510328529E+03  0.73070448413E+02  0.17359705457E+03  0.00000000000E+00 0. -1.
         11    1    1    2    0    0 -0.30285760666E+03  0.12907197808E+03 -0.16911476575E+03  0.37011094206E+03  0.00000000000E+00 0. -1.
        -15    1    3    3    0    0  0.89853770346E+01  0.71858084305E+01  0.72879432183E+01  0.13734798455E+02  0.17770000000E+01 0.  1.
         15    1    3    3    0    0  0.32106814507E+03 -0.29136107180E+03  0.88756374123E+02  0.44255720491E+03  0.17770000000E+01 0. -1.
</event>
<event>
 7    1  0.4133533E-006  0.5216943E+03  0.7546771E-02  0.9352534E-01
        -11   -1    0    0    0    0  0.00000000000E+00  0.00000000000E+00  0.50000000000E+03  0.50000000000E+03  0.00000000000E+00 0. -1.
         11   -1    0    0    0    0 -0.00000000000E+00 -0.00000000000E+00 -0.50000000000E+03  0.50000000000E+03  0.00000000000E+00 0. -1.
         23    2    1    2    0    0  0.72630412072E+02 -0.26349840414E+02 -0.31197918807E+03  0.33429861180E+03  0.91951385056E+02 0.  0.
        -11    1    1    2    0    0 -0.56552978757E+02 -0.74566146601E+02  0.46906076298E+03  0.47830570663E+03  0.00000000000E+00 0. -1.
         11    1    1    2    0    0 -0.16077433315E+02  0.10091598702E+03 -0.15708157491E+03  0.18739568157E+03  0.00000000000E+00 0. -1.
        -15    1    3    3    0    0 -0.17981133908E+02 -0.19149245146E+02 -0.43533618335E+02  0.50875813710E+02  0.17770000000E+01 0.  1.
         15    1    3    3    0    0  0.90611545980E+02 -0.72005952683E+01 -0.26844556974E+03  0.28342279809E+03  0.17770000000E+01 0. -1.
</event>
<event>
 7    1  0.4133533E-006  0.5121290E+03  0.7546771E-02  0.9373072E-01
        -11   -1    0    0    0    0  0.00000000000E+00  0.00000000000E+00  0.50000000000E+03  0.50000000000E+03  0.00000000000E+00 0.  1.
         11   -1    0    0    0    0 -0.00000000000E+00 -0.00000000000E+00 -0.50000000000E+03  0.50000000000E+03  0.00000000000E+00 0. -1.
         23    2    1    2    0    0  0.22804646802E+02 -0.53057192084E+02 -0.16131777816E+03  0.19517341579E+03  0.93456509308E+02 0.  0.
        -11    1    1    2    0    0 -0.84518541415E+02  0.13156363515E+03  0.46213168357E+03  0.48787095312E+03  0.00000000000E+00 0.  1.
         11    1    1    2    0    0  0.61713894613E+02 -0.78506443070E+02 -0.30081390541E+03  0.31695563109E+03  0.00000000000E+00 0. -1.
        -15    1    3    3    0    0 -0.31072293492E+02 -0.31503392221E+02 -0.36035905182E+02  0.57093741650E+02  0.17770000000E+01 0.  1.
         15    1    3    3    0    0  0.53876940294E+02 -0.21553799863E+02 -0.12528187298E+03  0.13807967414E+03  0.17770000000E+01 0. -1.
</event>
<event>
 7    1  0.4133533E-006  0.5300977E+03  0.7546771E-02  0.9334873E-01
        -11   -1    0    0    0    0  0.00000000000E+00  0.00000000000E+00  0.50000000000E+03  0.50000000000E+03  0.00000000000E+00 0. -1.
         11   -1    0    0    0    0 -0.00000000000E+00 -0.00000000000E+00 -0.50000000000E+03  0.50000000000E+03  0.00000000000E+00 0.  1.
         23    2    1    2    0    0 -0.48285169633E+02 -0.78627240534E+02  0.11771954656E+03  0.17441864933E+03  0.89723313764E+02 0.  0.
        -11    1    1    2    0    0  0.17042695858E+03 -0.17511646912E+03  0.25845016334E+03  0.35567908696E+03  0.00000000000E+00 0. -1.
         11    1    1    2    0    0 -0.12214178895E+03  0.25374370965E+03 -0.37616970990E+03  0.46990226371E+03  0.00000000000E+00 0.  1.
        -15    1    3    3    0    0 -0.64558834912E+02 -0.72429873356E+02  0.12249400737E+03  0.15627497973E+03  0.17770000000E+01 0.  1.
         15    1    3    3    0    0  0.16273665279E+02 -0.61973671783E+01 -0.47744608116E+01  0.18143669601E+02  0.17770000000E+01 0. -1.
</event>
<event>
 7    1  0.4133533E-006  0.5225986E+03  0.7546771E-02  0.9350617E-01
        -11   -1    0    0    0    0  0.00000000000E+00  0.00000000000E+00  0.50000000000E+03  0.50000000000E+03  0.00000000000E+00 0.  1.
         11   -1    0    0    0    0 -0.00000000000E+00 -0.00000000000E+00 -0.50000000000E+03  0.50000000000E+03  0.00000000000E+00 0. -1.
         23    2    1    2    0    0  0.13990016376E+03  0.53604401030E+02 -0.26770198147E+03  0.32008889810E+03  0.91362268874E+02 0.  0.
        -11    1    1    2    0    0 -0.94486379528E+02 -0.13097630568E+03  0.44925456509E+03  0.47740143781E+03  0.00000000000E+00 0.  1.
         11    1    1    2    0    0 -0.45413784232E+02  0.77371904654E+02 -0.18155258363E+03  0.20250966409E+03  0.00000000000E+00 0. -1.
        -15    1    3    3    0    0  0.49955889731E+02  0.27044671211E+02 -0.29395643715E+02  0.63986457616E+02  0.17770000000E+01 0.  1.
         15    1    3    3    0    0  0.89944274028E+02  0.26559729819E+02 -0.23830633775E+03  0.25610244048E+03  0.17770000000E+01 0. -1.
</event>
<event>
 7    1  0.4133533E-006  0.5162178E+03  0.7546771E-02  0.9364235E-01
        -11   -1    0    0    0    0  0.00000000000E+00  0.00000000000E+00  0.50000000000E+03  0.50000000000E+03  0.00000000000E+00 0. -1.
         11   -1    0    0    0    0 -0.00000000000E+00 -0.00000000000E+00 -0.50000000000E+03  0.50000000000E+03  0.00000000000E+00 0. -1.
         23    2    1    2    0    0  0.63235614746E+01  0.54833864101E+02  0.14464654398E+03  0.17965382374E+03  0.91137992171E+02 0.  0.
        -11    1    1    2    0    0  0.12555048967E+03  0.59593052774E+02  0.30653070111E+03  0.33656400300E+03  0.00000000000E+00 0. -1.
         11    1    1    2    0    0 -0.13187405114E+03 -0.11442691687E+03 -0.45117724509E+03  0.48378217325E+03  0.00000000000E+00 0. -1.
        -15    1    3    3    0    0 -0.37248254977E+01 -0.19192898466E+02  0.74917749922E+02  0.77447199167E+02  0.17770000000E+01 0. -1.
         15    1    3    3    0    0  0.10048386972E+02  0.74026762566E+02  0.69728794063E+02  0.10220662458E+03  0.17770000000E+01 0.  1.
</event>
<event>
 7    1  0.4133533E-006  0.5147139E+03  0.7546771E-02  0.9367475E-01
        -11   -1    0    0    0    0  0.00000000000E+00  0.00000000000E+00  0.50000000000E+03  0.50000000000E+03  0.00000000000E+00 0. -1.
         11   -1    0    0    0    0 -0.00000000000E+00 -0.00000000000E+00 -0.50000000000E+03  0.50000000000E+03  0.00000000000E+00 0. -1.
         23    2    1    2    0    0 -0.31533334636E+02  0.34043099388E+02 -0.15855733176E+03  0.18864600197E+03  0.91069219817E+02 0.  0.
        -11    1    1    2    0    0  0.16488413874E+03 -0.22216879547E+02  0.45587526989E+03  0.48528613275E+03  0.00000000000E+00 0. -1.
         11    1    1    2    0    0 -0.13335080411E+03 -0.11826219841E+02 -0.29731793813E+03  0.32606786528E+03  0.00000000000E+00 0. -1.
        -15    1    3    3    0    0 -0.24282740017E+02  0.67799185479E+01  0.22492712344E+01  0.25373917875E+02  0.17770000000E+01 0.  1.
         15    1    3    3    0    0 -0.72505946194E+01  0.27263180840E+02 -0.16080660299E+03  0.16327208410E+03  0.17770000000E+01 0. -1.
</event>
<event>
 7    1  0.4133533E-006  0.5207754E+03  0.7546771E-02  0.9354487E-01
        -11   -1    0    0    0    0  0.00000000000E+00  0.00000000000E+00  0.50000000000E+03  0.50000000000E+03  0.00000000000E+00 0.  1.
         11   -1    0    0    0    0 -0.00000000000E+00 -0.00000000000E+00 -0.50000000000E+03  0.50000000000E+03  0.00000000000E+00 0. -1.
         23    2    1    2    0    0  0.10662212037E+02  0.79677149883E+02 -0.40319577957E+03  0.42121681720E+03  0.91622265041E+02 0.  0.
        -11    1    1    2    0    0  0.65624153528E+02 -0.86015981706E+02  0.46685211685E+03  0.47922455868E+03  0.00000000000E+00 0.  1.
         11    1    1    2    0    0 -0.76286365565E+02  0.63388318226E+01 -0.63656337278E+02  0.99558624115E+02  0.00000000000E+00 0. -1.
        -15    1    3    3    0    0  0.45350327648E+02  0.61308696098E+02 -0.32337077747E+03  0.33224573117E+03  0.17770000000E+01 0. -1.
         15    1    3    3    0    0 -0.34688115611E+02  0.18368453785E+02 -0.79825002106E+02  0.88971086030E+02  0.17770000000E+01 0.  1.
</event>
<event>
 7    1  0.4133533E-006  0.4497335E+03  0.7546771E-02  0.9519891E-01
        -11   -1    0    0    0    0  0.00000000000E+00  0.00000000000E+00  0.50000000000E+03  0.50000000000E+03  0.00000000000E+00 0.  1.
         11   -1    0    0    0    0 -0.00000000000E+00 -0.00000000000E+00 -0.50000000000E+03  0.50000000000E+03  0.00000000000E+00 0. -1.
         23    2    1    2    0    0  0.29925231150E+02  0.22524815235E+03 -0.35150901255E+03  0.42902726682E+03  0.94199576322E+02 0.  0.
        -11    1    1    2    0    0 -0.22109176890E+02 -0.16449145134E+03  0.43605183170E+03  0.46656988029E+03  0.00000000000E+00 0.  1.
         11    1    1    2    0    0 -0.78160542607E+01 -0.60756701004E+02 -0.84542819151E+02  0.10440285289E+03  0.00000000000E+00 0. -1.
        -15    1    3    3    0    0  0.31405636938E+02  0.33366328830E+02 -0.30627524287E+02  0.55143711373E+02  0.17770000000E+01 0.  1.
         15    1    3    3    0    0 -0.14804057875E+01  0.19188182352E+03 -0.32088148826E+03  0.37388355545E+03  0.17770000000E+01 0. -1.
</event>
<event>
 7    1  0.4133533E-006  0.5335548E+03  0.7546771E-02  0.9327708E-01
        -11   -1    0    0    0    0  0.00000000000E+00  0.00000000000E+00  0.50000000000E+03  0.50000000000E+03  0.00000000000E+00 0.  1.
         11   -1    0    0    0    0 -0.00000000000E+00 -0.00000000000E+00 -0.50000000000E+03  0.50000000000E+03  0.00000000000E+00 0. -1.
         23    2    1    2    0    0 -0.11233095184E+01  0.44141902003E+02 -0.31204604095E+03  0.32824804357E+03  0.91783860769E+02 0.  0.
        -11    1    1    2    0    0  0.11248277735E+03  0.61355294344E+02  0.44850222259E+03  0.46644516399E+03  0.00000000000E+00 0.  1.
         11    1    1    2    0    0 -0.11135946783E+03 -0.10549719635E+03 -0.13645618164E+03  0.20530679244E+03  0.00000000000E+00 0. -1.
        -15    1    3    3    0    0 -0.37636841724E+02  0.34835567493E+02 -0.95236855108E+02  0.10818162930E+03  0.17770000000E+01 0.  1.
         15    1    3    3    0    0  0.36513532205E+02  0.93063345099E+01 -0.21680918584E+03  0.22006641427E+03  0.17770000000E+01 0. -1.
</event>
<event>
 7    1  0.4133533E-006  0.3784804E+03  0.7546771E-02  0.9722212E-01
        -11   -1    0    0    0    0  0.00000000000E+00  0.00000000000E+00  0.50000000000E+03  0.50000000000E+03  0.00000000000E+00 0. -1.
         11   -1    0    0    0    0 -0.00000000000E+00 -0.00000000000E+00 -0.50000000000E+03  0.50000000000E+03  0.00000000000E+00 0. -1.
         23    2    1    2    0    0 -0.15054301551E+02  0.46371268676E+02  0.19109780187E+03  0.21776918704E+03  0.92347833716E+02 0.  0.
        -11    1    1    2    0    0  0.32273737679E+03 -0.34180185008E+02  0.11857170012E+03  0.34552416340E+03  0.00000000000E+00 0. -1.
         11    1    1    2    0    0 -0.30768307524E+03 -0.12191083668E+02 -0.30966950199E+03  0.43670664956E+03  0.00000000000E+00 0. -1.
        -15    1    3    3    0    0 -0.14073682123E+02 -0.26491807607E+02  0.73596125166E+02  0.79494853715E+02  0.17770000000E+01 0.  1.
         15    1    3    3    0    0 -0.98061942816E+00  0.72863076283E+02  0.11750167670E+03  0.13827433333E+03  0.17770000000E+01 0. -1.
</event>
<event>
 7    1  0.4133533E-006  0.3237800E+03  0.7546771E-02  0.9913015E-01
        -11   -1    0    0    0    0  0.00000000000E+00  0.00000000000E+00  0.50000000000E+03  0.50000000000E+03  0.00000000000E+00 0. -1.
         11   -1    0    0    0    0 -0.00000000000E+00 -0.00000000000E+00 -0.50000000000E+03  0.50000000000E+03  0.00000000000E+00 0.  1.
         23    2    1    2    0    0 -0.11503639805E+03 -0.13273334389E+03 -0.28484413234E+03  0.34637428565E+03  0.89372549346E+02 0.  0.
        -11    1    1    2    0    0 -0.17387316981E+03  0.60521906743E+02  0.30379401541E+03  0.35522610289E+03  0.00000000000E+00 0. -1.
         11    1    1    2    0    0  0.28890956785E+03  0.72211437144E+02 -0.18949883070E+02  0.29839961146E+03  0.00000000000E+00 0.  1.
        -15    1    3    3    0    0 -0.27218298792E+01 -0.41889330444E+02 -0.24508036468E+02  0.48640784774E+02  0.17770000000E+01 0. -1.
         15    1    3    3    0    0 -0.11231456817E+03 -0.90844013442E+02 -0.26033609587E+03  0.29773350088E+03  0.17770000000E+01 0.  1.
</event>
<event>
 7    1  0.4133533E-006  0.5337166E+03  0.7546771E-02  0.9327374E-01
        -11   -1    0    0    0    0  0.00000000000E+00  0.00000000000E+00  0.50000000000E+03  0.50000000000E+03  0.00000000000E+00 0. -1.
         11   -1    0    0    0    0 -0.00000000000E+00 -0.00000000000E+00 -0.50000000000E+03  0.50000000000E+03  0.00000000000E+00 0.  1.
         23    2    1    2    0    0  0.63307605111E+02  0.10234660862E+03  0.20750735703E+03  0.25273793908E+03  0.79589455762E+02 0.  0.
        -11    1    1    2    0    0  0.59197412458E+02 -0.13087021836E+03  0.24149053268E+03  0.28097869149E+03  0.00000000000E+00 0. -1.
         11    1    1    2    0    0 -0.12250501757E+03  0.28523609739E+02 -0.44899788971E+03  0.46628336943E+03  0.00000000000E+00 0.  1.
        -15    1    3    3    0    0  0.25627190121E+02  0.10147231207E+03  0.13327402954E+03  0.16946535831E+03  0.17770000000E+01 0.  1.
         15    1    3    3    0    0  0.37680414990E+02  0.87429655287E+00  0.74233327491E+02  0.83272580768E+02  0.17770000000E+01 0. -1.
</event>
<event>
 7    1  0.4133533E-006  0.3304896E+03  0.7546771E-02  0.9887509E-01
        -11   -1    0    0    0    0  0.00000000000E+00  0.00000000000E+00  0.50000000000E+03  0.50000000000E+03  0.00000000000E+00 0. -1.
         11   -1    0    0    0    0 -0.00000000000E+00 -0.00000000000E+00 -0.50000000000E+03  0.50000000000E+03  0.00000000000E+00 0. -1.
         23    2    1    2    0    0 -0.42744238526E+02  0.10520105144E+02 -0.32560788483E+03  0.34091419299E+03  0.90907919227E+02 0.  0.
        -11    1    1    2    0    0 -0.45564278265E+02  0.25777538757E+03  0.26033599219E+03  0.36918705655E+03  0.00000000000E+00 0. -1.
         11    1    1    2    0    0  0.88308516791E+02 -0.26829549272E+03  0.65271892645E+02  0.28989875046E+03  0.00000000000E+00 0. -1.
        -15    1    3    3    0    0 -0.60397363640E+02 -0.21213931018E+02 -0.22512174082E+03  0.23405304596E+03  0.17770000000E+01 0.  1.
         15    1    3    3    0    0  0.17653125114E+02  0.31734036163E+02 -0.10048614401E+03  0.10686114703E+03  0.17770000000E+01 0. -1.
</event>
<event>
 7    1  0.4133533E-006  0.5355073E+03  0.7546771E-02  0.9323687E-01
        -11   -1    0    0    0    0  0.00000000000E+00  0.00000000000E+00  0.50000000000E+03  0.50000000000E+03  0.00000000000E+00 0. -1.
         11   -1    0    0    0    0 -0.00000000000E+00 -0.00000000000E+00 -0.50000000000E+03  0.50000000000E+03  0.00000000000E+00 0. -1.
         23    2    1    2    0    0  0.13440436038E+02  0.76726100863E+01 -0.18435594765E+03  0.20674890111E+03  0.92295603410E+02 0.  0.
        -11    1    1    2    0    0  0.19108210691E+03 -0.15959257178E+03  0.39213688625E+03  0.46449273203E+03  0.00000000000E+00 0. -1.
         11    1    1    2    0    0 -0.20452254295E+03  0.15191996169E+03 -0.20778093860E+03  0.32875836686E+03  0.00000000000E+00 0. -1.
        -15    1    3    3    0    0 -0.62688051345E+01 -0.40515432408E+02 -0.91449213545E+02  0.10023429836E+03  0.17770000000E+01 0.  1.
         15    1    3    3    0    0  0.19709241173E+02  0.48188042495E+02 -0.92906734110E+02  0.10651460275E+03  0.17770000000E+01 0. -1.
</event>
<event>
 7    1  0.4133533E-006  0.5176889E+03  0.7546771E-02  0.9361077E-01
        -11   -1    0    0    0    0  0.00000000000E+00  0.00000000000E+00  0.50000000000E+03  0.50000000000E+03  0.00000000000E+00 0.  1.
         11   -1    0    0    0    0 -0.00000000000E+00 -0.00000000000E+00 -0.50000000000E+03  0.50000000000E+03  0.00000000000E+00 0. -1.
         23    2    1    2    0    0  0.81366404073E+01 -0.24643516114E+01  0.24772035242E+03  0.26380208317E+03  0.90298882243E+02 0.  0.
        -11    1    1    2    0    0 -0.12487656544E+03 -0.28245144650E+02  0.21924084355E+03  0.25388677057E+03  0.00000000000E+00 0.  1.
         11    1    1    2    0    0  0.11673992504E+03  0.30709496261E+02 -0.46696119597E+03  0.48231114625E+03  0.00000000000E+00 0. -1.
        -15    1    3    3    0    0 -0.23503081576E+02  0.22942925569E+02  0.19229121055E+03  0.19508418711E+03  0.17770000000E+01 0.  1.
         15    1    3    3    0    0  0.31639721984E+02 -0.25407277180E+02  0.55429141874E+02  0.68717896059E+02  0.17770000000E+01 0. -1.
</event>
<event>
 7    1  0.4133533E-006  0.3932394E+03  0.7546771E-02  0.9676590E-01
        -11   -1    0    0    0    0  0.00000000000E+00  0.00000000000E+00  0.50000000000E+03  0.50000000000E+03  0.00000000000E+00 0. -1.
         11   -1    0    0    0    0 -0.00000000000E+00 -0.00000000000E+00 -0.50000000000E+03  0.50000000000E+03  0.00000000000E+00 0.  1.
         23    2    1    2    0    0  0.61887175516E+01  0.13996245134E+03 -0.10024318399E+03  0.19487556887E+03  0.91104354423E+02 0.  0.
        -11    1    1    2    0    0 -0.17854749762E+03 -0.60671742038E+02  0.40465150491E+03  0.44643376845E+03  0.00000000000E+00 0. -1.
         11    1    1    2    0    0  0.17235878007E+03 -0.79290709301E+02 -0.30440832092E+03  0.35869066268E+03  0.00000000000E+00 0.  1.
        -15    1    3    3    0    0  0.15978710051E+01 -0.12756164986E+02 -0.15268006122E+02  0.20038529807E+02  0.17770000000E+01 0.  1.
         15    1    3    3    0    0  0.45908465465E+01  0.15271861632E+03 -0.84975177868E+02  0.17483703906E+03  0.17770000000E+01 0. -1.
</event>
<event>
 7    1  0.4133533E-006  0.5094115E+03  0.7546771E-02  0.9378994E-01
        -11   -1    0    0    0    0  0.00000000000E+00  0.00000000000E+00  0.50000000000E+03  0.50000000000E+03  0.00000000000E+00 0. -1.
         11   -1    0    0    0    0 -0.00000000000E+00 -0.00000000000E+00 -0.50000000000E+03  0.50000000000E+03  0.00000000000E+00 0.  1.
         23    2    1    2    0    0 -0.91987952260E+02  0.36449352969E+02  0.25057590743E+03  0.28484929060E+03  0.92522939194E+02 0.  0.
        -11    1    1    2    0    0 -0.25484357793E+02  0.34689241270E+02  0.22039823901E+03  0.22456219564E+03  0.00000000000E+00 0. -1.
         11    1    1    2    0    0  0.11747231005E+03 -0.71138594239E+02 -0.47097414644E+03  0.49058851376E+03  0.00000000000E+00 0.  1.
        -15    1    3    3    0    0 -0.57726148927E+02  0.24373602921E+02  0.23838545003E+03  0.24648967789E+03  0.17770000000E+01 0.  1.
         15    1    3    3    0    0 -0.34261803332E+02  0.12075750047E+02  0.12190457401E+02  0.38359612712E+02  0.17770000000E+01 0. -1.
</event>
<event>
 7    1  0.4133533E-006  0.5151743E+03  0.7546771E-02  0.9366482E-01
        -11   -1    0    0    0    0  0.00000000000E+00  0.00000000000E+00  0.50000000000E+03  0.50000000000E+03  0.00000000000E+00 0.  1.
         11   -1    0    0    0    0 -0.00000000000E+00 -0.00000000000E+00 -0.50000000000E+03  0.50000000000E+03  0.00000000000E+00 0. -1.
         23    2    1    2    0    0 -0.57892367795E+01 -0.13525685667E+03  0.18449469560E+03  0.24623431069E+03  0.90912653226E+02 0.  0.
        -11    1    1    2    0    0 -0.72860937356E+02 -0.62003801575E+02  0.25134742054E+03  0.26893998106E+03  0.00000000000E+00 0.  1.
         11    1    1    2    0    0  0.78650174135E+02  0.19726065825E+03 -0.43584211614E+03  0.48482570825E+03  0.00000000000E+00 0. -1.
        -15    1    3    3    0    0 -0.38745807863E+02 -0.59789836851E+02  0.12750982168E+03  0.14607523600E+03  0.17770000000E+01 0. -1.
         15    1    3    3    0    0  0.32956571084E+02 -0.75467019821E+02  0.56984873915E+02  0.10015907469E+03  0.17770000000E+01 0.  1.
</event>
<event>
 7    1  0.4133533E-006  0.4731096E+03  0.7546771E-02  0.9462075E-01
        -11   -1    0    0    0    0  0.00000000000E+00  0.00000000000E+00  0.50000000000E+03  0.50000000000E+03  0.00000000000E+00 0.  1.
         11   -1    0    0    0    0 -0.00000000000E+00 -0.00000000000E+00 -0.50000000000E+03  0.50000000000E+03  0.00000000000E+00 0. -1.
         23    2    1    2    0    0  0.26723693216E+02  0.13849678196E+03 -0.42806164213E+03  0.45970518365E+03  0.90534921556E+02 0.  0.
        -11    1    1    2    0    0  0.35756232757E+01 -0.10468191902E+03  0.46815102762E+03  0.47972541512E+03  0.00000000000E+00 0.  1.
         11    1    1    2    0    0 -0.30299316492E+02 -0.33814862942E+02 -0.40089385493E+02  0.60569401226E+02  0.00000000000E+00 0. -1.
        -15    1    3    3    0    0  0.40792904079E+01  0.35624641014E+02 -0.26683507895E+02  0.44731677592E+02  0.17770000000E+01 0.  1.
         15    1    3    3    0    0  0.22644402808E+02  0.10287214095E+03 -0.40137813423E+03  0.41497350606E+03  0.17770000000E+01 0. -1.
</event>
<event>
 7    1  0.4133533E-006  0.5287833E+03  0.7546771E-02  0.9337612E-01
        -11   -1    0    0    0    0  0.00000000000E+00  0.00000000000E+00  0.50000000000E+03  0.50000000000E+03  0.00000000000E+00 0.  1.
         11   -1    0    0    0    0 -0.00000000000E+00 -0.00000000000E+00 -0.50000000000E+03  0.50000000000E+03  0.00000000000E+00 0. -1.
         23    2    1    2    0    0  0.26721865481E+02 -0.84920265807E+02 -0.17761238247E+03  0.21739692087E+03  0.88259578275E+02 0.  0.
        -11    1    1    2    0    0 -0.24123284085E+03  0.53891545381E+02  0.40118277664E+03  0.47121672555E+03  0.00000000000E+00 0.  1.
         11    1    1    2    0    0  0.21451097537E+03  0.31028720425E+02 -0.22357039417E+03  0.31138635358E+03  0.00000000000E+00 0. -1.
        -15    1    3    3    0    0  0.13633324032E+02 -0.10172671420E+03 -0.15780740754E+03  0.18825654706E+03  0.17770000000E+01 0. -1.
         15    1    3    3    0    0  0.13088541450E+02  0.16806448395E+02 -0.19804974929E+02  0.29140373812E+02  0.17770000000E+01 0.  1.
</event>
<event>
 7    1  0.4133533E-006  0.5136015E+03  0.7546771E-02  0.9369879E-01
        -11   -1    0    0    0    0  0.00000000000E+00  0.00000000000E+00  0.50000000000E+03  0.50000000000E+03  0.00000000000E+00 0.  1.
         11   -1    0    0    0    0 -0.00000000000E+00 -0.00000000000E+00 -0.50000000000E+03  0.50000000000E+03  0.00000000000E+00 0. -1.
         23    2    1    2    0    0 -0.46479670705E+02  0.61800215858E+02 -0.12727643778E+03  0.16468132536E+03  0.70292395330E+02 0.  0.
        -11    1    1    2    0    0  0.10038213455E+01 -0.25586281473E+03  0.41366250157E+03  0.48639845068E+03  0.00000000000E+00 0.  1.
         11    1    1    2    0    0  0.45475849360E+02  0.19406259887E+03 -0.28638606379E+03  0.34892022396E+03  0.00000000000E+00 0. -1.
        -15    1    3    3    0    0 -0.41721226554E+02  0.26166113837E+02 -0.11745049995E+03  0.12736994907E+03  0.17770000000E+01 0. -1.
         15    1    3    3    0    0 -0.47584441516E+01  0.35634102021E+02 -0.98259378235E+01  0.37311376291E+02  0.17770000000E+01 0.  1.
</event>
<event>
 7    1  0.4133533E-006  0.4434255E+03  0.7546771E-02  0.9536136E-01
        -11   -1    0    0    0    0  0.00000000000E+00  0.00000000000E+00  0.50000000000E+03  0.50000000000E+03  0.00000000000E+00 0.  1.
         11   -1    0    0    0    0 -0.00000000000E+00 -0.00000000000E+00 -0.50000000000E+03  0.50000000000E+03  0.00000000000E+00 0. -1.
         23    2    1    2    0    0  0.22817589784E+02 -0.15254747570E+03 -0.43182716047E+03  0.46802135057E+03  0.93690518870E+02 0.  0.
        -11    1    1    2    0    0  0.58494220241E+02  0.74767575142E+02  0.40543766649E+03  0.41640300852E+03  0.00000000000E+00 0.  1.
         11    1    1    2    0    0 -0.81311810024E+02  0.77779900560E+02  0.26389493978E+02  0.11557564092E+03  0.00000000000E+00 0. -1.
        -15    1    3    3    0    0  0.72784497718E+01 -0.29308851384E+02 -0.16385603747E+02  0.34403929132E+02  0.17770000000E+01 0.  1.
         15    1    3    3    0    0  0.15539140012E+02 -0.12323862432E+03 -0.41544155672E+03  0.43361742144E+03  0.17770000000E+01 0. -1.
</event>
<event>
 7    1  0.4133533E-006  0.5238274E+03  0.7546771E-02  0.9348018E-01
        -11   -1    0    0    0    0  0.00000000000E+00  0.00000000000E+00  0.50000000000E+03  0.50000000000E+03  0.00000000000E+00 0.  1.
         11   -1    0    0    0    0 -0.00000000000E+00 -0.00000000000E+00 -0.50000000000E+03  0.50000000000E+03  0.00000000000E+00 0.  1.
         23    2    1    2    0    0 -0.15405664990E+03 -0.14326644934E+02  0.24489246091E+03  0.30361099248E+03  0.90931915240E+02 0.  0.
        -11    1    1    2    0    0  0.25506666828E+02 -0.78825422597E+02  0.20403731601E+03  0.22021640181E+03  0.00000000000E+00 0.  1.
         11    1    1    2    0    0  0.12854998307E+03  0.93152067531E+02 -0.44892977692E+03  0.47617260572E+03  0.00000000000E+00 0.  1.
        -15    1    3    3    0    0 -0.92054473369E+02  0.25951477537E+02  0.18567019769E+03  0.20886379604E+03  0.17770000000E+01 0.  1.
         15    1    3    3    0    0 -0.62002176526E+02 -0.40278122471E+02  0.59222263216E+02  0.94747196440E+02  0.17770000000E+01 0. -1.
</event>
<event>
 7    1  0.4133533E-006  0.3981404E+03  0.7546771E-02  0.9661911E-01
        -11   -1    0    0    0    0  0.00000000000E+00  0.00000000000E+00  0.50000000000E+03  0.50000000000E+03  0.00000000000E+00 0. -1.
         11   -1    0    0    0    0 -0.00000000000E+00 -0.00000000000E+00 -0.50000000000E+03  0.50000000000E+03  0.00000000000E+00 0.  1.
         23    2    1    2    0    0 -0.22629568284E+02 -0.47237088701E+02 -0.39352158646E+03  0.40815277648E+03  0.94794567540E+02 0.  0.
        -11    1    1    2    0    0  0.40544262920E+01 -0.14282290597E+03  0.37342604803E+03  0.39982725544E+03  0.00000000000E+00 0. -1.
         11    1    1    2    0    0  0.18575141992E+02  0.19005999467E+03  0.20095538423E+02  0.19201996808E+03  0.00000000000E+00 0.  1.
        -15    1    3    3    0    0 -0.55285183208E+02 -0.20077460922E+02 -0.15344304794E+03  0.16433953453E+03  0.17770000000E+01 0.  1.
         15    1    3    3    0    0  0.32655614925E+02 -0.27159627778E+02 -0.24007853851E+03  0.24381324195E+03  0.17770000000E+01 0. -1.
</event>
<event>
 7    1  0.4133533E-006  0.4711932E+03  0.7546771E-02  0.9466679E-01
        -11   -1    0    0    0    0  0.00000000000E+00  0.00000000000E+00  0.50000000000E+03  0.50000000000E+03  0.00000000000E+00 0.  1.
         11   -1    0    0    0    0 -0.00000000000E+00 -0.00000000000E+00 -0.50000000000E+03  0.50000000000E+03  0.00000000000E+00 0. -1.
         23    2    1    2    0    0 -0.12557482958E+03  0.39050697942E+02 -0.42995456311E+03  0.45872485611E+03  0.90959180053E+02 0.  0.
        -11    1    1    2    0    0  0.14882071121E+03  0.16294392070E+02  0.45290602183E+03  0.47700836042E+03  0.00000000000E+00 0.  1.
         11    1    1    2    0    0 -0.23245881623E+02 -0.55345090012E+02 -0.22951458722E+02  0.64266783476E+02  0.00000000000E+00 0. -1.
        -15    1    3    3    0    0 -0.12342872439E+03  0.55284178731E+02 -0.41497440803E+03  0.43646065971E+03  0.17770000000E+01 0. -1.
         15    1    3    3    0    0 -0.21461051887E+01 -0.16233480789E+02 -0.14980155076E+02  0.22264196395E+02  0.17770000000E+01 0.  1.
</event>
<event>
 7    1  0.4133533E-006  0.5141676E+03  0.7546771E-02  0.9368655E-01
        -11   -1    0    0    0    0  0.00000000000E+00  0.00000000000E+00  0.50000000000E+03  0.50000000000E+03  0.00000000000E+00 0. -1.
         11   -1    0    0    0    0 -0.00000000000E+00 -0.00000000000E+00 -0.50000000000E+03  0.50000000000E+03  0.00000000000E+00 0.  1.
         23    2    1    2    0    0  0.30403822115E+02 -0.13580716012E+02 -0.19542728908E+03  0.21729756901E+03  0.88980784079E+02 0.  0.
        -11    1    1    2    0    0 -0.12261930331E+03 -0.70542902968E+02  0.46478089503E+03  0.48583235287E+03  0.00000000000E+00 0. -1.
         11    1    1    2    0    0  0.92215481195E+02  0.84123618980E+02 -0.26935360596E+03  0.29687007812E+03  0.00000000000E+00 0.  1.
        -15    1    3    3    0    0 -0.15732428827E+02  0.28303387732E+02 -0.59721508401E+02  0.67958865269E+02  0.17770000000E+01 0. -1.
         15    1    3    3    0    0  0.46136250942E+02 -0.41884103744E+02 -0.13570578068E+03  0.14933870374E+03  0.17770000000E+01 0.  1.
</event>
<event>
 7    1  0.4133533E-006  0.5321905E+03  0.7546771E-02  0.9330529E-01
        -11   -1    0    0    0    0  0.00000000000E+00  0.00000000000E+00  0.50000000000E+03  0.50000000000E+03  0.00000000000E+00 0.  1.
         11   -1    0    0    0    0 -0.00000000000E+00 -0.00000000000E+00 -0.50000000000E+03  0.50000000000E+03  0.00000000000E+00 0. -1.
         23    2    1    2    0    0 -0.67757960877E+01 -0.22220814587E+01 -0.33482674196E+02  0.96818129992E+02  0.90563854629E+02 0.  0.
        -11    1    1    2    0    0 -0.40267720011E+02  0.91025992365E+02  0.45709791788E+03  0.46780949872E+03  0.00000000000E+00 0.  1.
         11    1    1    2    0    0  0.47043516099E+02 -0.88803910906E+02 -0.42361524368E+03  0.43537237129E+03  0.00000000000E+00 0. -1.
        -15    1    3    3    0    0  0.24477518533E+02  0.28310567555E+02  0.59490801718E+01  0.37936610717E+02  0.17770000000E+01 0.  1.
         15    1    3    3    0    0 -0.31253314621E+02 -0.30532649013E+02 -0.39431754368E+02  0.58881519275E+02  0.17770000000E+01 0. -1.
</event>
<event>
 7    1  0.4133533E-006  0.5102894E+03  0.7546771E-02  0.9377076E-01
        -11   -1    0    0    0    0  0.00000000000E+00  0.00000000000E+00  0.50000000000E+03  0.50000000000E+03  0.00000000000E+00 0.  1.
         11   -1    0    0    0    0 -0.00000000000E+00 -0.00000000000E+00 -0.50000000000E+03  0.50000000000E+03  0.00000000000E+00 0. -1.
         23    2    1    2    0    0  0.15989819665E+02  0.10381317778E+03  0.29705539091E+03  0.33062582877E+03  0.10019322913E+03 0.  0.
        -11    1    1    2    0    0  0.58370834888E+02  0.39664824733E+02  0.16522270514E+03  0.17966356053E+03  0.00000000000E+00 0.  1.
         11    1    1    2    0    0 -0.74360654552E+02 -0.14347800251E+03 -0.46227809605E+03  0.48971061071E+03  0.00000000000E+00 0. -1.
        -15    1    3    3    0    0  0.14428951279E+02  0.11447967788E+03  0.29809366022E+03  0.31965102733E+03  0.17770000000E+01 0.  1.
         15    1    3    3    0    0  0.15608683855E+01 -0.10666500098E+02 -0.10382693034E+01  0.10974801438E+02  0.17770000000E+01 0. -1.
</event>
<event>
 7    1  0.4133533E-006  0.3403041E+03  0.7546771E-02  0.9851350E-01
        -11   -1    0    0    0    0  0.00000000000E+00  0.00000000000E+00  0.50000000000E+03  0.50000000000E+03  0.00000000000E+00 0.  1.
         11   -1    0    0    0    0 -0.00000000000E+00 -0.00000000000E+00 -0.50000000000E+03  0.50000000000E+03  0.00000000000E+00 0. -1.
         23    2    1    2    0    0 -0.23378428607E+03 -0.99583347729E+02  0.40272731881E+02  0.27238648172E+03  0.89445888282E+02 0.  0.
        -11    1    1    2    0    0 -0.26048173912E+02  0.51348861051E+02  0.29508078419E+03  0.30064577511E+03  0.00000000000E+00 0.  1.
         11    1    1    2    0    0  0.25983245998E+03  0.48234486678E+02 -0.33535351607E+03  0.42696774317E+03  0.00000000000E+00 0. -1.
        -15    1    3    3    0    0 -0.88699822705E+02 -0.44282014006E+02 -0.27598787759E+02  0.10292427375E+03  0.17770000000E+01 0. -1.
         15    1    3    3    0    0 -0.14508446336E+03 -0.55301333724E+02  0.67871519640E+02  0.16946220797E+03  0.17770000000E+01 0.  1.
</event>
<event>
 7    1  0.4133533E-006  0.3111540E+03  0.7546771E-02  0.9962860E-01
        -11   -1    0    0    0    0  0.00000000000E+00  0.00000000000E+00  0.50000000000E+03  0.50000000000E+03  0.00000000000E+00 0. -1.
         11   -1    0    0    0    0 -0.00000000000E+00 -0.00000000000E+00 -0.50000000000E+03  0.50000000000E+03  0.00000000000E+00 0.  1.
         23    2    1    2    0    0 -0.25013775651E+03  0.19887652426E+03 -0.46688848288E+02  0.33611718998E+03  0.93135104588E+02 0.  0.
        -11    1    1    2    0    0  0.10932837491E+02 -0.12447588735E+03  0.28931102862E+03  0.31514226113E+03  0.00000000000E+00 0. -1.
         11    1    1    2    0    0  0.23920491902E+03 -0.74400636912E+02 -0.24262218033E+03  0.34874054890E+03  0.00000000000E+00 0.  1.
        -15    1    3    3    0    0 -0.57136931316E+02  0.20946959672E+02 -0.41270509137E+02  0.73551456092E+02  0.17770000000E+01 0.  1.
         15    1    3    3    0    0 -0.19300082520E+03  0.17792956459E+03 -0.54183391510E+01  0.26256573389E+03  0.17770000000E+01 0. -1.
</event>
<event>
 7    1  0.4133533E-006  0.3159891E+03  0.7546771E-02  0.9943476E-01
        -11   -1    0    0    0    0  0.00000000000E+00  0.00000000000E+00  0.50000000000E+03  0.50000000000E+03  0.00000000000E+00 0. -1.
         11   -1    0    0    0    0 -0.00000000000E+00 -0.00000000000E+00 -0.50000000000E+03  0.50000000000E+03  0.00000000000E+00 0. -1.
         23    2    1    2    0    0  0.23443443965E+02  0.48329133675E+02 -0.32069084186E+03  0.33795656274E+03  0.92123406494E+02 0.  0.
        -11    1    1    2    0    0  0.23301869826E+03 -0.17261056115E+03  0.20156978544E+03  0.35316072539E+03  0.00000000000E+00 0. -1.
         11    1    1    2    0    0 -0.25646214222E+03  0.12428142747E+03  0.11912105641E+03  0.30888271186E+03  0.00000000000E+00 0. -1.
        -15    1    3    3    0    0  0.39764899596E+02 -0.13854478127E+02 -0.11751157795E+03  0.12484118906E+03  0.17770000000E+01 0.  1.
         15    1    3    3    0    0 -0.16321455631E+02  0.62183611802E+02 -0.20317926391E+03  0.21311537369E+03  0.17770000000E+01 0. -1.
</event>
<event>
 7    1  0.4133533E-006  0.3873821E+03  0.7546771E-02  0.9694435E-01
        -11   -1    0    0    0    0  0.00000000000E+00  0.00000000000E+00  0.50000000000E+03  0.50000000000E+03  0.00000000000E+00 0. -1.
         11   -1    0    0    0    0 -0.00000000000E+00 -0.00000000000E+00 -0.50000000000E+03  0.50000000000E+03  0.00000000000E+00 0. -1.
         23    2    1    2    0    0 -0.35170542075E+02 -0.15233922139E+03 -0.37387686010E+03  0.41525020714E+03  0.90579371864E+02 0.  0.
        -11    1    1    2    0    0  0.32768737310E+02 -0.55759919476E+02  0.37102232928E+03  0.37661721627E+03  0.00000000000E+00 0. -1.
         11    1    1    2    0    0  0.24018047648E+01  0.20809914086E+03  0.28545308234E+01  0.20813257659E+03  0.00000000000E+00 0. -1.
        -15    1    3    3    0    0  0.19999323043E+02 -0.35897446061E+01 -0.63112204860E+02  0.66326218947E+02  0.17770000000E+01 0.  1.
         15    1    3    3    0    0 -0.55169865118E+02 -0.14874947678E+03 -0.31076465524E+03  0.34892398819E+03  0.17770000000E+01 0. -1.
</event>
<event>
 7    1  0.4133533E-006  0.4661538E+03  0.7546771E-02  0.9478900E-01
        -11   -1    0    0    0    0  0.00000000000E+00  0.00000000000E+00  0.50000000000E+03  0.50000000000E+03  0.00000000000E+00 0.  1.
         11   -1    0    0    0    0 -0.00000000000E+00 -0.00000000000E+00 -0.50000000000E+03  0.50000000000E+03  0.00000000000E+00 0. -1.
         23    2    1    2    0    0  0.22595761777E+02  0.17627612785E+03 -0.41484267891E+03  0.46053899149E+03  0.91748965889E+02 0.  0.
        -11    1    1    2    0    0  0.79352142269E+01 -0.11898483332E+03  0.45007023921E+03  0.46560023455E+03  0.00000000000E+00 0.  1.
         11    1    1    2    0    0 -0.30530976004E+02 -0.57291294532E+02 -0.35227560308E+02  0.73860773961E+02  0.00000000000E+00 0. -1.
        -15    1    3    3    0    0  0.48596406310E+02  0.11283095918E+03 -0.32541402334E+03  0.34783599638E+03  0.17770000000E+01 0.  1.
         15    1    3    3    0    0 -0.26000644534E+02  0.63445168668E+02 -0.89428655561E+02  0.11270299512E+03  0.17770000000E+01 0. -1.
</event>
<event>
 7    1  0.4133533E-006  0.5387222E+03  0.7546771E-02  0.9317105E-01
        -11   -1    0    0    0    0  0.00000000000E+00  0.00000000000E+00  0.50000000000E+03  0.50000000000E+03  0.00000000000E+00 0.  1.
         11   -1    0    0    0    0 -0.00000000000E+00 -0.00000000000E+00 -0.50000000000E+03  0.50000000000E+03  0.00000000000E+00 0.  1.
         23    2    1    2    0    0  0.13077583657E+03 -0.26296702448E+02 -0.21185165484E+03  0.26708228382E+03  0.93048302942E+02 0.  0.
        -11    1    1    2    0    0 -0.21481246768E+02  0.94706697745E+02  0.45093949601E+03  0.46127782476E+03  0.00000000000E+00 0.  1.
         11    1    1    2    0    0 -0.10929458980E+03 -0.68409995297E+02 -0.23908784117E+03  0.27163989142E+03  0.00000000000E+00 0.  1.
        -15    1    3    3    0    0  0.22228462144E+02  0.22192591552E+02 -0.96202136452E+02  0.10121573216E+03  0.17770000000E+01 0. -1.
         15    1    3    3    0    0  0.10854737443E+03 -0.48489294000E+02 -0.11564951839E+03  0.16586655166E+03  0.17770000000E+01 0.  1.
</event>
<event>
 7    1  0.4133533E-006  0.4714886E+03  0.7546771E-02  0.9465968E-01
        -11   -1    0    0    0    0  0.00000000000E+00  0.00000000000E+00  0.50000000000E+03  0.50000000000E+03  0.00000000000E+00 0. -1.
         11   -1    0    0    0    0 -0.00000000000E+00 -0.00000000000E+00 -0.50000000000E+03  0.50000000000E+03  0.00000000000E+00 0.  1.
         23    2    1    2    0    0 -0.45287807643E+02 -0.10305083534E+03 -0.42281185531E+03  0.44726913874E+03  0.92786622381E+02 0.  0.
        -11    1    1    2    0    0  0.89840899933E+02  0.10473737210E+03  0.46879495311E+03  0.48868191340E+03  0.00000000000E+00 0. -1.
         11    1    1    2    0    0 -0.44553092290E+02 -0.16865367580E+01 -0.45983097800E+02  0.64048947861E+02  0.00000000000E+00 0.  1.
        -15    1    3    3    0    0 -0.36733400185E+02 -0.22211803921E+02 -0.51067659414E+02  0.66736575351E+02  0.17770000000E+01 0. -1.
         15    1    3    3    0    0 -0.85544074585E+01 -0.80839031419E+02 -0.37174419590E+03  0.38053256339E+03  0.17770000000E+01 0.  1.
</event>
<event>
 7    1  0.4133533E-006  0.5199166E+03  0.7546771E-02  0.9356315E-01
        -11   -1    0    0    0    0  0.00000000000E+00  0.00000000000E+00  0.50000000000E+03  0.50000000000E+03  0.00000000000E+00 0. -1.
         11   -1    0    0    0    0 -0.00000000000E+00 -0.00000000000E+00 -0.50000000000E+03  0.50000000000E+03  0.00000000000E+00 0. -1.
         23    2    1    2    0    0  0.82995718561E+02 -0.22362743988E+02 -0.23727403021E+03  0.27085056027E+03  0.98349778697E+02 0.  0.
        -11    1    1    2    0    0 -0.25644535219E+02  0.80241791232E+02  0.47263487613E+03  0.48008344419E+03  0.00000000000E+00 0. -1.
         11    1    1    2    0    0 -0.57351183341E+02 -0.57879047244E+02 -0.23536084592E+03  0.24906599554E+03  0.00000000000E+00 0. -1.
        -15    1    3    3    0    0  0.64050559730E+02 -0.59099641287E+02 -0.18209781949E+03  0.20188614463E+03  0.17770000000E+01 0. -1.
         15    1    3    3    0    0  0.18945158830E+02  0.36736897299E+02 -0.55176210715E+02  0.68964415637E+02  0.17770000000E+01 0.  1.
</event>
<event>
 7    1  0.4133533E-006  0.5224877E+03  0.7546771E-02  0.9350851E-01
        -11   -1    0    0    0    0  0.00000000000E+00  0.00000000000E+00  0.50000000000E+03  0.50000000000E+03  0.00000000000E+00 0.  1.
         11   -1    0    0    0    0 -0.00000000000E+00 -0.00000000000E+00 -0.50000000000E+03  0.50000000000E+03  0.00000000000E+00 0.  1.
         23    2    1    2    0    0 -0.13983153847E+03  0.85103761316E+02 -0.12211472728E+03  0.22857521850E+03  0.10266018972E+03 0.  0.
        -11    1    1    2    0    0  0.28570506261E+03 -0.33007160586E+03  0.19350271951E+03  0.47751225142E+03  0.00000000000E+00 0.  1.
         11    1    1    2    0    0 -0.14587352414E+03  0.24496784454E+03 -0.71387992228E+02  0.29391253008E+03  0.00000000000E+00 0.  1.
        -15    1    3    3    0    0  0.10429315084E+02  0.17440546051E+02 -0.38972287684E+02  0.43987955124E+02  0.17770000000E+01 0. -1.
         15    1    3    3    0    0 -0.15026085355E+03  0.67663215265E+02 -0.83142439598E+02  0.18458726338E+03  0.17770000000E+01 0.  1.
</event>
<event>
 7    1  0.4133533E-006  0.5181815E+03  0.7546771E-02  0.9360022E-01
        -11   -1    0    0    0    0  0.00000000000E+00  0.00000000000E+00  0.50000000000E+03  0.50000000000E+03  0.00000000000E+00 0.  1.
         11   -1    0    0    0    0 -0.00000000000E+00 -0.00000000000E+00 -0.50000000000E+03  0.50000000000E+03  0.00000000000E+00 0. -1.
         23    2    1    2    0    0  0.28794856937E+02  0.27088694254E+02  0.12588798649E+03  0.16175617577E+03  0.93564598627E+02 0.  0.
        -11    1    1    2    0    0  0.97629669319E+02  0.19047125611E+03  0.28500559460E+03  0.35642536482E+03  0.00000000000E+00 0.  1.
         11    1    1    2    0    0 -0.12642452626E+03 -0.21755995037E+03 -0.41089358109E+03  0.48181845940E+03  0.00000000000E+00 0. -1.
        -15    1    3    3    0    0  0.34685151085E+02 -0.17362579585E+01  0.12757920320E+03  0.13223344931E+03  0.17770000000E+01 0. -1.
         15    1    3    3    0    0 -0.58902941484E+01  0.28824952213E+02 -0.16912167077E+01  0.29522726469E+02  0.17770000000E+01 0.  1.
</event>
<event>
 7    1  0.4133533E-006  0.4014101E+03  0.7546771E-02  0.9652243E-01
        -11   -1    0    0    0    0  0.00000000000E+00  0.00000000000E+00  0.50000000000E+03  0.50000000000E+03  0.00000000000E+00 0. -1.
         11   -1    0    0    0    0 -0.00000000000E+00 -0.00000000000E+00 -0.50000000000E+03  0.50000000000E+03  0.00000000000E+00 0.  1.
         23    2    1    2    0    0 -0.65337401913E+02  0.12348848217E+03 -0.31439652288E+03  0.35630568826E+03  0.92683270192E+02 0.  0.
        -11    1    1    2    0    0 -0.82981050701E+02 -0.14862371747E+03  0.42444488847E+03  0.45730550786E+03  0.00000000000E+00 0. -1.
         11    1    1    2    0    0  0.14831845261E+03  0.25135235300E+02 -0.11004836560E+03  0.18638880387E+03  0.00000000000E+00 0.  1.
        -15    1    3    3    0    0  0.41001394233E+01  0.30269843802E+02 -0.16074784433E+03  0.16363404833E+03  0.17770000000E+01 0.  1.
         15    1    3    3    0    0 -0.69437541336E+02  0.93218638368E+02 -0.15364867855E+03  0.19267163993E+03  0.17770000000E+01 0. -1.
</event>
<event>
 6    1  0.4133533E-006  0.5635363E+03  0.7546771E-02  0.9267888E-01
        -11   -1    0    0    0    0  0.00000000000E+00  0.00000000000E+00  0.50000000000E+03  0.50000000000E+03  0.00000000000E+00 0.  1.
         11   -1    0    0    0    0 -0.00000000000E+00 -0.00000000000E+00 -0.50000000000E+03  0.50000000000E+03  0.00000000000E+00 0. -1.
        -11    1    1    2    0    0  0.33201478685E+02  0.10611229984E+03  0.42206449385E+03  0.43646373885E+03  0.00000000000E+00 0.  1.
         11    1    1    2    0    0 -0.30642285011E+02  0.55908646563E+02 -0.22992019120E+03  0.23859593608E+03  0.00000000000E+00 0. -1.
        -15    1    1    2    0    0  0.45362542804E+02  0.30334669177E+01  0.21844049372E+02  0.50470609598E+02  0.17770000000E+01 0.  1.
         15    1    1    2    0    0 -0.47921736479E+02 -0.16505441332E+03 -0.21398835202E+03  0.27446971548E+03  0.17770000000E+01 0. -1.
</event>
<event>
 7    1  0.4133533E-006  0.4691793E+03  0.7546771E-02  0.9471544E-01
        -11   -1    0    0    0    0  0.00000000000E+00  0.00000000000E+00  0.50000000000E+03  0.50000000000E+03  0.00000000000E+00 0. -1.
         11   -1    0    0    0    0 -0.00000000000E+00 -0.00000000000E+00 -0.50000000000E+03  0.50000000000E+03  0.00000000000E+00 0. -1.
         23    2    1    2    0    0  0.44100604601E+02 -0.28520970084E+01 -0.44271192978E+03  0.45375402783E+03  0.89139593997E+02 0.  0.
        -11    1    1    2    0    0 -0.88376061307E+02  0.47489206205E+02  0.46788642480E+03  0.47852195292E+03  0.00000000000E+00 0. -1.
         11    1    1    2    0    0  0.44275456706E+02 -0.44637109196E+02 -0.25174495022E+02  0.67724019251E+02  0.00000000000E+00 0. -1.
        -15    1    3    3    0    0 -0.12472850166E+02  0.26856487970E+02 -0.77374521009E+02  0.82866260732E+02  0.17770000000E+01 0.  1.
         15    1    3    3    0    0  0.56573454767E+02 -0.29708584978E+02 -0.36533740877E+03  0.37088776709E+03  0.17770000000E+01 0. -1.
</event>
<event>
 6    1  0.4133533E-006  0.5101452E+03  0.7546771E-02  0.9377391E-01
        -11   -1    0    0    0    0  0.00000000000E+00  0.00000000000E+00  0.50000000000E+03  0.50000000000E+03  0.00000000000E+00 0. -1.
         11   -1    0    0    0    0 -0.00000000000E+00 -0.00000000000E+00 -0.50000000000E+03  0.50000000000E+03  0.00000000000E+00 0. -1.
        -11    1    1    2    0    0  0.45180160350E+01 -0.12532283104E+03  0.41327525995E+03  0.43188269812E+03  0.00000000000E+00 0. -1.
         11    1    1    2    0    0  0.17305047403E+02  0.21735010454E+02  0.50881110434E+02  0.57972085904E+02  0.00000000000E+00 0. -1.
        -15    1    1    2    0    0 -0.62206069609E+02  0.12653312298E+03 -0.21793268669E+03  0.25957280282E+03  0.17770000000E+01 0.  1.
         15    1    1    2    0    0  0.40383006172E+02 -0.22945302401E+02 -0.24622368370E+03  0.25057241315E+03  0.17770000000E+01 0. -1.
</event>
<event>
 7    1  0.4133533E-006  0.3519620E+03  0.7546771E-02  0.9810063E-01
        -11   -1    0    0    0    0  0.00000000000E+00  0.00000000000E+00  0.50000000000E+03  0.50000000000E+03  0.00000000000E+00 0. -1.
         11   -1    0    0    0    0 -0.00000000000E+00 -0.00000000000E+00 -0.50000000000E+03  0.50000000000E+03  0.00000000000E+00 0.  1.
         23    2    1    2    0    0 -0.16577147810E+02  0.19345521106E+02 -0.31345999170E+03  0.32781429814E+03  0.92498630548E+02 0.  0.
        -11    1    1    2    0    0 -0.24298813299E+03 -0.40032886885E+02  0.32943610760E+03  0.41130768750E+03  0.00000000000E+00 0. -1.
         11    1    1    2    0    0  0.25956528080E+03  0.20687365779E+02 -0.15976115899E+02  0.26087801436E+03  0.00000000000E+00 0.  1.
        -15    1    3    3    0    0  0.10345403142E+02 -0.29367760896E+02 -0.53235144736E+02  0.61697901992E+02  0.17770000000E+01 0. -1.
         15    1    3    3    0    0 -0.26922550952E+02  0.48713282002E+02 -0.26022484696E+03  0.26611639615E+03  0.17770000000E+01 0.  1.
</event>
<event>
 7    1  0.4133533E-006  0.4136524E+03  0.7546771E-02  0.9616901E-01
        -11   -1    0    0    0    0  0.00000000000E+00  0.00000000000E+00  0.50000000000E+03  0.50000000000E+03  0.00000000000E+00 0. -1.
         11   -1    0    0    0    0 -0.00000000000E+00 -0.00000000000E+00 -0.50000000000E+03  0.50000000000E+03  0.00000000000E+00 0. -1.
         23    2    1    2    0    0  0.10746670873E+02  0.48910755100E+02 -0.41906131714E+03  0.43144024610E+03  0.89557498515E+02 0.  0.
        -11    1    1    2    0    0  0.11626671981E+03  0.51149791062E+02  0.38215082426E+03  0.40270771503E+03  0.00000000000E+00 0. -1.
         11    1    1    2    0    0 -0.12701339068E+03 -0.10006054616E+03  0.36910492871E+02  0.16585203886E+03  0.00000000000E+00 0. -1.
        -15    1    3    3    0    0  0.52488172720E+01 -0.25584152490E+02 -0.14662721836E+03  0.14894562039E+03  0.17770000000E+01 0.  1.
         15    1    3    3    0    0  0.54978536010E+01  0.74494907590E+02 -0.27243409878E+03  0.28249462572E+03  0.17770000000E+01 0. -1.
</event>
<event>
 7    1  0.4133533E-006  0.5125589E+03  0.7546771E-02  0.9372139E-01
        -11   -1    0    0    0    0  0.00000000000E+00  0.00000000000E+00  0.50000000000E+03  0.50000000000E+03  0.00000000000E+00 0.  1.
         11   -1    0    0    0    0 -0.00000000000E+00 -0.00000000000E+00 -0.50000000000E+03  0.50000000000E+03  0.00000000000E+00 0.  1.
         23    2    1    2    0    0  0.28947590023E+02  0.10526369247E+02 -0.28328029159E+03  0.29922536119E+03  0.91319908870E+02 0.  0.
        -11    1    1    2    0    0 -0.23918570832E+02 -0.10158689091E+03  0.47613743529E+03  0.48744112641E+03  0.00000000000E+00 0.  1.
         11    1    1    2    0    0 -0.50290191910E+01  0.91060521664E+02 -0.19285714369E+03  0.21333351240E+03  0.00000000000E+00 0.  1.
        -15    1    3    3    0    0 -0.28482034567E+02  0.23315628587E+02 -0.92488382321E+02  0.99559547121E+02  0.17770000000E+01 0.  1.
         15    1    3    3    0    0  0.57429624590E+02 -0.12789259341E+02 -0.19079190927E+03  0.19966581407E+03  0.17770000000E+01 0. -1.
</event>
<event>
 7    1  0.4133533E-006  0.5114458E+03  0.7546771E-02  0.9374557E-01
        -11   -1    0    0    0    0  0.00000000000E+00  0.00000000000E+00  0.50000000000E+03  0.50000000000E+03  0.00000000000E+00 0.  1.
         11   -1    0    0    0    0 -0.00000000000E+00 -0.00000000000E+00 -0.50000000000E+03  0.50000000000E+03  0.00000000000E+00 0. -1.
         23    2    1    2    0    0 -0.11860479542E+02  0.14698134289E+02 -0.26413706511E+03  0.28025500129E+03  0.91748408460E+02 0.  0.
        -11    1    1    2    0    0  0.81769540583E+02  0.24122849390E+02  0.48105829258E+03  0.48855424519E+03  0.00000000000E+00 0.  1.
         11    1    1    2    0    0 -0.69909061041E+02 -0.38820983679E+02 -0.21692122746E+03  0.23119075352E+03  0.00000000000E+00 0. -1.
        -15    1    3    3    0    0  0.88240496758E+01 -0.27660476699E+02 -0.31470798818E+02  0.42854809895E+02  0.17770000000E+01 0.  1.
         15    1    3    3    0    0 -0.20684529217E+02  0.42358610988E+02 -0.23266626630E+03  0.23740019140E+03  0.17770000000E+01 0. -1.
</event>
<event>
 7    1  0.4133533E-006  0.4682637E+03  0.7546771E-02  0.9473764E-01
        -11   -1    0    0    0    0  0.00000000000E+00  0.00000000000E+00  0.50000000000E+03  0.50000000000E+03  0.00000000000E+00 0.  1.
         11   -1    0    0    0    0 -0.00000000000E+00 -0.00000000000E+00 -0.50000000000E+03  0.50000000000E+03  0.00000000000E+00 0.  1.
         23    2    1    2    0    0  0.13640781236E+02 -0.69696741334E+02 -0.44362736342E+03  0.45732706273E+03  0.85434759140E+02 0.  0.
        -11    1    1    2    0    0 -0.48165909391E+02  0.12834751255E+03  0.45362292582E+03  0.47388479363E+03  0.00000000000E+00 0.  1.
         11    1    1    2    0    0  0.34525128155E+02 -0.58650771212E+02 -0.99955624014E+01  0.68788143642E+02  0.00000000000E+00 0.  1.
        -15    1    3    3    0    0  0.44456908826E+02 -0.27335405832E+02 -0.29831082161E+03  0.30284673545E+03  0.17770000000E+01 0.  1.
         15    1    3    3    0    0 -0.30816127591E+02 -0.42361335502E+02 -0.14531654181E+03  0.15448032728E+03  0.17770000000E+01 0. -1.
</event>
<event>
 7    1  0.4133533E-006  0.5349563E+03  0.7546771E-02  0.9324820E-01
        -11   -1    0    0    0    0  0.00000000000E+00  0.00000000000E+00  0.50000000000E+03  0.50000000000E+03  0.00000000000E+00 0.  1.
         11   -1    0    0    0    0 -0.00000000000E+00 -0.00000000000E+00 -0.50000000000E+03  0.50000000000E+03  0.00000000000E+00 0. -1.
         23    2    1    2    0    0  0.13518474312E+03 -0.49793967188E+02  0.17645832722E+03  0.24692460770E+03  0.95288334570E+02 0.  0.
        -11    1    1    2    0    0 -0.23038854960E+02  0.88207755113E+02  0.27322306179E+03  0.28803166214E+03  0.00000000000E+00 0.  1.
         11    1    1    2    0    0 -0.11214588816E+03 -0.38413787925E+02 -0.44968138901E+03  0.46504373015E+03  0.00000000000E+00 0. -1.
        -15    1    3    3    0    0  0.53519447439E+02 -0.73386863363E+01  0.13603978170E+03  0.14638363127E+03  0.17770000000E+01 0.  1.
         15    1    3    3    0    0  0.81665295681E+02 -0.42455280852E+02  0.40418545518E+02  0.10054097643E+03  0.17770000000E+01 0. -1.
</event>
<event>
 6    1  0.4133533E-006  0.3897674E+03  0.7546771E-02  0.9687127E-01
        -11   -1    0    0    0    0  0.00000000000E+00  0.00000000000E+00  0.50000000000E+03  0.50000000000E+03  0.00000000000E+00 0. -1.
         11   -1    0    0    0    0 -0.00000000000E+00 -0.00000000000E+00 -0.50000000000E+03  0.50000000000E+03  0.00000000000E+00 0.  1.
        -11    1    1    2    0    0  0.67452502209E+02 -0.35399618353E+02  0.29772146365E+03  0.30731261437E+03  0.00000000000E+00 0. -1.
         11    1    1    2    0    0  0.99161556832E+02 -0.14197776522E+01 -0.31968128831E+03  0.33471055588E+03  0.00000000000E+00 0.  1.
        -15    1    1    2    0    0 -0.48458751734E+02  0.13457969154E+02  0.16411070735E+03  0.17165328296E+03  0.17770000000E+01 0. -1.
         15    1    1    2    0    0 -0.11815530731E+03  0.23361426850E+02 -0.14215088269E+03  0.18632354679E+03  0.17770000000E+01 0.  1.
</event>
<event>
 7    1  0.4133533E-006  0.5078739E+03  0.7546771E-02  0.9382362E-01
        -11   -1    0    0    0    0  0.00000000000E+00  0.00000000000E+00  0.50000000000E+03  0.50000000000E+03  0.00000000000E+00 0. -1.
         11   -1    0    0    0    0 -0.00000000000E+00 -0.00000000000E+00 -0.50000000000E+03  0.50000000000E+03  0.00000000000E+00 0.  1.
         23    2    1    2    0    0 -0.91810792974E+02  0.13975920865E+02  0.31797977440E+03  0.34545466031E+03  0.97996108770E+02 0.  0.
        -11    1    1    2    0    0 -0.41105017365E+02  0.33890934439E+02  0.15343330293E+03  0.16241919941E+03  0.00000000000E+00 0. -1.
         11    1    1    2    0    0  0.13291581034E+03 -0.47866855305E+02 -0.47141307732E+03  0.49212614028E+03  0.00000000000E+00 0.  1.
        -15    1    3    3    0    0 -0.74298099272E+02 -0.31970307216E+02  0.23980457892E+03  0.25308437704E+03  0.17770000000E+01 0. -1.
         15    1    3    3    0    0 -0.17512693703E+02  0.45946228081E+02  0.78175195474E+02  0.92370283273E+02  0.17770000000E+01 0.  1.
</event>
<event>
 7    1  0.4133533E-006  0.5299225E+03  0.7546771E-02  0.9335238E-01
        -11   -1    0    0    0    0  0.00000000000E+00  0.00000000000E+00  0.50000000000E+03  0.50000000000E+03  0.00000000000E+00 0. -1.
         11   -1    0    0    0    0 -0.00000000000E+00 -0.00000000000E+00 -0.50000000000E+03  0.50000000000E+03  0.00000000000E+00 0.  1.
         23    2    1    2    0    0  0.55247944627E+02 -0.85758792242E+02  0.53826647768E+02  0.14539483000E+03  0.88518036292E+02 0.  0.
        -11    1    1    2    0    0 -0.45345311143E+02 -0.16041607149E+03  0.34651410545E+03  0.38452768237E+03  0.00000000000E+00 0. -1.
         11    1    1    2    0    0 -0.99026334848E+01  0.24617486373E+03 -0.40034075322E+03  0.47007748762E+03  0.00000000000E+00 0.  1.
        -15    1    3    3    0    0 -0.22534923754E+02 -0.30876123513E+02  0.25769321275E+02  0.46134297868E+02  0.17770000000E+01 0.  1.
         15    1    3    3    0    0  0.77782868382E+02 -0.54882668729E+02  0.28057326492E+02  0.99260532134E+02  0.17770000000E+01 0. -1.
</event>
<event>
 7    1  0.4133533E-006  0.3251649E+03  0.7546771E-02  0.9907696E-01
        -11   -1    0    0    0    0  0.00000000000E+00  0.00000000000E+00  0.50000000000E+03  0.50000000000E+03  0.00000000000E+00 0. -1.
         11   -1    0    0    0    0 -0.00000000000E+00 -0.00000000000E+00 -0.50000000000E+03  0.50000000000E+03  0.00000000000E+00 0. -1.
         23    2    1    2    0    0  0.63868504748E+02 -0.21118112390E+03 -0.32143999122E+03  0.40059377223E+03  0.92060031508E+02 0.  0.
        -11    1    1    2    0    0 -0.18103347737E+03 -0.51987481656E+02  0.22976518763E+03  0.29709907375E+03  0.00000000000E+00 0. -1.
         11    1    1    2    0    0  0.11716497262E+03  0.26316860556E+03  0.91674803581E+02  0.30230715402E+03  0.00000000000E+00 0. -1.
        -15    1    3    3    0    0  0.87258619168E+02 -0.17786641553E+03 -0.26036396976E+03  0.32717439214E+03  0.17770000000E+01 0. -1.
         15    1    3    3    0    0 -0.23390114420E+02 -0.33314708370E+02 -0.61076021451E+02  0.73419380082E+02  0.17770000000E+01 0.  1.
</event>
<event>
 7    1  0.4133533E-006  0.5216292E+03  0.7546771E-02  0.9352672E-01
        -11   -1    0    0    0    0  0.00000000000E+00  0.00000000000E+00  0.50000000000E+03  0.50000000000E+03  0.00000000000E+00 0.  1.
         11   -1    0    0    0    0 -0.00000000000E+00 -0.00000000000E+00 -0.50000000000E+03  0.50000000000E+03  0.00000000000E+00 0.  1.
         23    2    1    2    0    0 -0.92082880995E+02 -0.82358731984E+02 -0.21196079878E+03  0.26145242876E+03  0.90375741106E+02 0.  0.
        -11    1    1    2    0    0  0.96016165529E+02  0.33341900443E+02  0.46744822790E+03  0.47837081029E+03  0.00000000000E+00 0.  1.
         11    1    1    2    0    0 -0.39332845350E+01  0.49016831541E+02 -0.25548742912E+03  0.26017676095E+03  0.00000000000E+00 0.  1.
        -15    1    3    3    0    0 -0.68183520863E+02 -0.85777480206E+02 -0.10495138306E+03  0.15173898366E+03  0.17770000000E+01 0.  1.
         15    1    3    3    0    0 -0.23899360132E+02  0.34187482217E+01 -0.10700941572E+03  0.10971344510E+03  0.17770000000E+01 0. -1.
</event>
<event>
 7    1  0.4133533E-006  0.3238431E+03  0.7546771E-02  0.9912772E-01
        -11   -1    0    0    0    0  0.00000000000E+00  0.00000000000E+00  0.50000000000E+03  0.50000000000E+03  0.00000000000E+00 0.  1.
         11   -1    0    0    0    0 -0.00000000000E+00 -0.00000000000E+00 -0.50000000000E+03  0.50000000000E+03  0.00000000000E+00 0. -1.
         23    2    1    2    0    0  0.33366007337E+02  0.28523991569E+03 -0.16991896884E+03  0.34470726455E+03  0.86461218537E+02 0.  0.
        -11    1    1    2    0    0 -0.10317854367E+03 -0.49974066877E+02  0.33861586369E+03  0.35749674457E+03  0.00000000000E+00 0.  1.
         11    1    1    2    0    0  0.69812536334E+02 -0.23526584882E+03 -0.16869689485E+03  0.29779599088E+03  0.00000000000E+00 0. -1.
        -15    1    3    3    0    0 -0.17821833172E+02  0.69829641624E+02 -0.74305905003E+02  0.10352932838E+03  0.17770000000E+01 0.  1.
         15    1    3    3    0    0  0.51187840509E+02  0.21541027407E+03 -0.95613063836E+02  0.24117793617E+03  0.17770000000E+01 0. -1.
</event>
<event>
 7    1  0.4133533E-006  0.4773672E+03  0.7546771E-02  0.9451927E-01
        -11   -1    0    0    0    0  0.00000000000E+00  0.00000000000E+00  0.50000000000E+03  0.50000000000E+03  0.00000000000E+00 0.  1.
         11   -1    0    0    0    0 -0.00000000000E+00 -0.00000000000E+00 -0.50000000000E+03  0.50000000000E+03  0.00000000000E+00 0. -1.
         23    2    1    2    0    0 -0.39130963316E+01 -0.12255763869E+03 -0.42638128114E+03  0.45792440982E+03  0.11339347902E+03 0.  0.
        -11    1    1    2    0    0 -0.28136504685E+02  0.10874778203E+03  0.47169246412E+03  0.48488300001E+03  0.00000000000E+00 0.  1.
         11    1    1    2    0    0  0.32049601017E+02  0.13809856660E+02 -0.45311182985E+02  0.57192590165E+02  0.00000000000E+00 0. -1.
        -15    1    3    3    0    0 -0.26742617218E+01 -0.38189653557E+02 -0.20699882469E+02  0.43557366515E+02  0.17770000000E+01 0.  1.
         15    1    3    3    0    0 -0.12388346098E+01 -0.84367985134E+02 -0.40568139867E+03  0.41436704331E+03  0.17770000000E+01 0. -1.
</event>
<event>
 7    1  0.4133533E-006  0.5127530E+03  0.7546771E-02  0.9371717E-01
        -11   -1    0    0    0    0  0.00000000000E+00  0.00000000000E+00  0.50000000000E+03  0.50000000000E+03  0.00000000000E+00 0.  1.
         11   -1    0    0    0    0 -0.00000000000E+00 -0.00000000000E+00 -0.50000000000E+03  0.50000000000E+03  0.00000000000E+00 0. -1.
         23    2    1    2    0    0 -0.48021442629E+02  0.16114081059E+02  0.28692427946E+03  0.30439481427E+03  0.88118887008E+02 0.  0.
        -11    1    1    2    0    0 -0.39787220364E+02  0.10109403428E+03  0.17779232712E+03  0.20835819700E+03  0.00000000000E+00 0.  1.
         11    1    1    2    0    0  0.87808662992E+02 -0.11720811534E+03 -0.46471660658E+03  0.48724698874E+03  0.00000000000E+00 0. -1.
        -15    1    3    3    0    0 -0.71609652631E+02  0.24902101929E+02  0.22842591356E+03  0.24068571363E+03  0.17770000000E+01 0.  1.
         15    1    3    3    0    0  0.23588210002E+02 -0.87880208701E+01  0.58498365898E+02  0.63709100634E+02  0.17770000000E+01 0. -1.
</event>
<event>
 7    1  0.4133533E-006  0.5404367E+03  0.7546771E-02  0.9313615E-01
        -11   -1    0    0    0    0  0.00000000000E+00  0.00000000000E+00  0.50000000000E+03  0.50000000000E+03  0.00000000000E+00 0.  1.
         11   -1    0    0    0    0 -0.00000000000E+00 -0.00000000000E+00 -0.50000000000E+03  0.50000000000E+03  0.00000000000E+00 0. -1.
         23    2    1    2    0    0 -0.66437598350E+02 -0.50775979115E+02 -0.27502266474E+03  0.30116472503E+03  0.89836356528E+02 0.  0.
        -11    1    1    2    0    0  0.57679420259E+02 -0.12331132338E+03  0.43893718648E+03  0.45956332716E+03  0.00000000000E+00 0.  1.
         11    1    1    2    0    0  0.87581780907E+01  0.17408730249E+03 -0.16391452174E+03  0.23927194781E+03  0.00000000000E+00 0. -1.
        -15    1    3    3    0    0 -0.42320385706E+01 -0.58808241860E+02 -0.15246918576E+03  0.16348189440E+03  0.17770000000E+01 0.  1.
         15    1    3    3    0    0 -0.62205559779E+02  0.80322627455E+01 -0.12255347898E+03  0.13768283063E+03  0.17770000000E+01 0. -1.
</event>
<event>
 7    1  0.4133533E-006  0.5070824E+03  0.7546771E-02  0.9384100E-01
        -11   -1    0    0    0    0  0.00000000000E+00  0.00000000000E+00  0.50000000000E+03  0.50000000000E+03  0.00000000000E+00 0.  1.
         11   -1    0    0    0    0 -0.00000000000E+00 -0.00000000000E+00 -0.50000000000E+03  0.50000000000E+03  0.00000000000E+00 0.  1.
         23    2    1    2    0    0  0.63855019288E+02 -0.39960947007E+02 -0.37270772332E+03  0.39108830715E+03  0.91458603726E+02 0.  0.
        -11    1    1    2    0    0 -0.80436346001E+02  0.20635523539E+02  0.48587231031E+03  0.49291757172E+03  0.00000000000E+00 0.  1.
         11    1    1    2    0    0  0.16581326713E+02  0.19325423467E+02 -0.11316458699E+03  0.11599412112E+03  0.00000000000E+00 0.  1.
        -15    1    3    3    0    0  0.63737555189E+02 -0.53216652765E+02 -0.36744715877E+03  0.37671615347E+03  0.17770000000E+01 0.  1.
         15    1    3    3    0    0  0.11746409963E+00  0.13255705759E+02 -0.52605645532E+01  0.14372153680E+02  0.17770000000E+01 0. -1.
</event>
<event>
 7    1  0.4133533E-006  0.4250147E+03  0.7546771E-02  0.9585247E-01
        -11   -1    0    0    0    0  0.00000000000E+00  0.00000000000E+00  0.50000000000E+03  0.50000000000E+03  0.00000000000E+00 0.  1.
         11   -1    0    0    0    0 -0.00000000000E+00 -0.00000000000E+00 -0.50000000000E+03  0.50000000000E+03  0.00000000000E+00 0. -1.
         23    2    1    2    0    0  0.98291871081E+02 -0.31242831516E+02 -0.37050908009E+02  0.14293517916E+03  0.91762133883E+02 0.  0.
        -11    1    1    2    0    0  0.19540216039E+03 -0.13671703952E+03  0.33162171260E+03  0.40846849750E+03  0.00000000000E+00 0.  1.
         11    1    1    2    0    0 -0.29369403147E+03  0.16795987103E+03 -0.29457080459E+03  0.44859632334E+03  0.00000000000E+00 0. -1.
        -15    1    3    3    0    0  0.11050156035E+03 -0.90027700006E+01 -0.38717720622E+02  0.11744728318E+03  0.17770000000E+01 0. -1.
         15    1    3    3    0    0 -0.12209689265E+02 -0.22240061515E+02  0.16668126133E+01  0.25487895979E+02  0.17770000000E+01 0.  1.
</event>
<event>
 7    1  0.4133533E-006  0.5109358E+03  0.7546771E-02  0.9375667E-01
        -11   -1    0    0    0    0  0.00000000000E+00  0.00000000000E+00  0.50000000000E+03  0.50000000000E+03  0.00000000000E+00 0.  1.
         11   -1    0    0    0    0 -0.00000000000E+00 -0.00000000000E+00 -0.50000000000E+03  0.50000000000E+03  0.00000000000E+00 0.  1.
         23    2    1    2    0    0  0.41869093125E+02  0.70024674965E+02 -0.25118330286E+03  0.27881424923E+03  0.89374816800E+02 0.  0.
        -11    1    1    2    0    0 -0.10977604168E+03 -0.19394709631E+03  0.43533616293E+03  0.48906423939E+03  0.00000000000E+00 0.  1.
         11    1    1    2    0    0  0.67906948552E+02  0.12392242135E+03 -0.18415286007E+03  0.23212151138E+03  0.00000000000E+00 0.  1.
        -15    1    3    3    0    0 -0.14508329690E+01  0.53436588210E+02 -0.21017487158E+03  0.21687371498E+03  0.17770000000E+01 0.  1.
         15    1    3    3    0    0  0.43319926094E+02  0.16588086754E+02 -0.41008431279E+02  0.61940534256E+02  0.17770000000E+01 0. -1.
</event>
<event>
 7    1  0.4133533E-006  0.5145273E+03  0.7546771E-02  0.9367878E-01
        -11   -1    0    0    0    0  0.00000000000E+00  0.00000000000E+00  0.50000000000E+03  0.50000000000E+03  0.00000000000E+00 0. -1.
         11   -1    0    0    0    0 -0.00000000000E+00 -0.00000000000E+00 -0.50000000000E+03  0.50000000000E+03  0.00000000000E+00 0.  1.
         23    2    1    2    0    0 -0.24850928883E+02 -0.51820558792E+02  0.23982393910E+03  0.26356797307E+03  0.93003310062E+02 0.  0.
        -11    1    1    2    0    0  0.80676701026E+02 -0.75627200535E+02  0.22528285182E+03  0.25095929326E+03  0.00000000000E+00 0. -1.
         11    1    1    2    0    0 -0.55825772142E+02  0.12744775933E+03 -0.46510679091E+03  0.48547273368E+03  0.00000000000E+00 0.  1.
        -15    1    3    3    0    0  0.82436890024E+01 -0.43333877522E+02  0.36202744489E+02  0.57092729721E+02  0.17770000000E+01 0.  1.
         15    1    3    3    0    0 -0.33094617886E+02 -0.84866812697E+01  0.20362119461E+03  0.20647524334E+03  0.17770000000E+01 0. -1.
</event>
<event>
 7    1  0.4133533E-006  0.5393805E+03  0.7546771E-02  0.9315763E-01
        -11   -1    0    0    0    0  0.00000000000E+00  0.00000000000E+00  0.50000000000E+03  0.50000000000E+03  0.00000000000E+00 0. -1.
         11   -1    0    0    0    0 -0.00000000000E+00 -0.00000000000E+00 -0.50000000000E+03  0.50000000000E+03  0.00000000000E+00 0. -1.
         23    2    1    2    0    0 -0.83293150535E+02 -0.32772845341E+01 -0.23536920994E+03  0.26315690139E+03  0.83092720740E+02 0.  0.
        -11    1    1    2    0    0  0.28992589453E+02 -0.20063496261E+03  0.41361260508E+03  0.46061952362E+03  0.00000000000E+00 0. -1.
         11    1    1    2    0    0  0.54300561082E+02  0.20391224714E+03 -0.17824339514E+03  0.27622357499E+03  0.00000000000E+00 0. -1.
        -15    1    3    3    0    0 -0.27821392595E+02 -0.41725189093E+02 -0.10021671175E+03  0.11207840262E+03  0.17770000000E+01 0. -1.
         15    1    3    3    0    0 -0.55471757940E+02  0.38447904559E+02 -0.13515249819E+03  0.15107849877E+03  0.17770000000E+01 0.  1.
</event>
<event>
 7    1  0.4133533E-006  0.5112351E+03  0.7546771E-02  0.9375015E-01
        -11   -1    0    0    0    0  0.00000000000E+00  0.00000000000E+00  0.50000000000E+03  0.50000000000E+03  0.00000000000E+00 0. -1.
         11   -1    0    0    0    0 -0.00000000000E+00 -0.00000000000E+00 -0.50000000000E+03  0.50000000000E+03  0.00000000000E+00 0. -1.
         23    2    1    2    0    0  0.67736041861E+02  0.52877888002E+02  0.16683461060E+03  0.20854886679E+03  0.90964829119E+02 0.  0.
        -11    1    1    2    0    0  0.74448805532E+02  0.54831008388E+02  0.28821852025E+03  0.30268627247E+03  0.00000000000E+00 0. -1.
         11    1    1    2    0    0 -0.14218484739E+03 -0.10770889639E+03 -0.45505313086E+03  0.48876486074E+03  0.00000000000E+00 0. -1.
        -15    1    3    3    0    0 -0.18516210191E+02 -0.12120062838E+01  0.89526706046E+01  0.20679145026E+02  0.17770000000E+01 0.  1.
         15    1    3    3    0    0  0.86252252052E+02  0.54089894285E+02  0.15788194000E+03  0.18786972176E+03  0.17770000000E+01 0. -1.
</event>
<event>
 7    1  0.4133533E-006  0.5184416E+03  0.7546771E-02  0.9359465E-01
        -11   -1    0    0    0    0  0.00000000000E+00  0.00000000000E+00  0.50000000000E+03  0.50000000000E+03  0.00000000000E+00 0.  1.
         11   -1    0    0    0    0 -0.00000000000E+00 -0.00000000000E+00 -0.50000000000E+03  0.50000000000E+03  0.00000000000E+00 0.  1.
         23    2    1    2    0    0 -0.72879755827E+02 -0.79888282183E+02 -0.46015364335E+03  0.48155835917E+03  0.91997181267E+02 0.  0.
        -11    1    1    2    0    0  0.11951184968E+03 -0.18677328814E+02  0.31087971906E+03  0.33358375942E+03  0.00000000000E+00 0.  1.
         11    1    1    2    0    0 -0.46632093852E+02  0.98565610997E+02  0.14927392428E+03  0.18485788141E+03  0.00000000000E+00 0.  1.
        -15    1    3    3    0    0  0.14316528418E+02 -0.35225204156E+02 -0.74622749485E+02  0.83770462954E+02  0.17770000000E+01 0. -1.
         15    1    3    3    0    0 -0.87196284244E+02 -0.44663078027E+02 -0.38553089386E+03  0.39778789621E+03  0.17770000000E+01 0.  1.
</event>
<event>
 7    1  0.4133533E-006  0.5199387E+03  0.7546771E-02  0.9356268E-01
        -11   -1    0    0    0    0  0.00000000000E+00  0.00000000000E+00  0.50000000000E+03  0.50000000000E+03  0.00000000000E+00 0. -1.
         11   -1    0    0    0    0 -0.00000000000E+00 -0.00000000000E+00 -0.50000000000E+03  0.50000000000E+03  0.00000000000E+00 0.  1.
         23    2    1    2    0    0  0.48371968483E+02 -0.13305622953E+03 -0.38840489511E+03  0.42339883617E+03  0.91457117684E+02 0.  0.
        -11    1    1    2    0    0 -0.69964554427E+02  0.82440950345E+02  0.46772570970E+03  0.48006133846E+03  0.00000000000E+00 0. -1.
         11    1    1    2    0    0  0.21592585943E+02  0.50615279184E+02 -0.79320814589E+02  0.96539825366E+02  0.00000000000E+00 0.  1.
        -15    1    3    3    0    0  0.18253176259E+02 -0.95058928678E+02 -0.34490626437E+03  0.35823577054E+03  0.17770000000E+01 0.  1.
         15    1    3    3    0    0  0.30118792225E+02 -0.37997300851E+02 -0.43498630739E+02  0.65163065629E+02  0.17770000000E+01 0. -1.
</event>
<event>
 7    1  0.4133533E-006  0.5364700E+03  0.7546771E-02  0.9321711E-01
        -11   -1    0    0    0    0  0.00000000000E+00  0.00000000000E+00  0.50000000000E+03  0.50000000000E+03  0.00000000000E+00 0. -1.
         11   -1    0    0    0    0 -0.00000000000E+00 -0.00000000000E+00 -0.50000000000E+03  0.50000000000E+03  0.00000000000E+00 0.  1.
         23    2    1    2    0    0 -0.64020669184E+02 -0.98430020708E+02  0.11383876015E+03  0.18739798613E+03  0.91496594653E+02 0.  0.
        -11    1    1    2    0    0 -0.26107533643E+03  0.83287743442E+02  0.21622693630E+03  0.34907200902E+03  0.00000000000E+00 0. -1.
         11    1    1    2    0    0  0.32509600561E+03  0.15142277266E+02 -0.33006569645E+03  0.46353000485E+03  0.00000000000E+00 0.  1.
        -15    1    3    3    0    0 -0.87797015876E+01  0.17833566103E+02  0.12325102533E+02  0.23456025267E+02  0.17770000000E+01 0.  1.
         15    1    3    3    0    0 -0.55240967597E+02 -0.11626358681E+03  0.10151365762E+03  0.16394196086E+03  0.17770000000E+01 0. -1.
</event>
<event>
 7    1  0.4133533E-006  0.4621573E+03  0.7546771E-02  0.9488709E-01
        -11   -1    0    0    0    0  0.00000000000E+00  0.00000000000E+00  0.50000000000E+03  0.50000000000E+03  0.00000000000E+00 0. -1.
         11   -1    0    0    0    0 -0.00000000000E+00 -0.00000000000E+00 -0.50000000000E+03  0.50000000000E+03  0.00000000000E+00 0.  1.
         23    2    1    2    0    0  0.91582228977E+02  0.94121875636E+02 -0.40887524177E+03  0.43919942509E+03  0.92037707102E+02 0.  0.
        -11    1    1    2    0    0 -0.66936236160E+02 -0.49412036353E+02  0.47219188180E+03  0.47946551731E+03  0.00000000000E+00 0. -1.
         11    1    1    2    0    0 -0.24645992817E+02 -0.44709839284E+02 -0.63316640026E+02  0.81335057601E+02  0.00000000000E+00 0.  1.
        -15    1    3    3    0    0  0.10630637664E+03  0.93827426399E+02 -0.39129778121E+03  0.41619916262E+03  0.17770000000E+01 0.  1.
         15    1    3    3    0    0 -0.14724147664E+02  0.29444923755E+00 -0.17577460562E+02  0.23000262468E+02  0.17770000000E+01 0. -1.
</event>
<event>
 7    1  0.4133533E-006  0.5281456E+03  0.7546771E-02  0.9338944E-01
        -11   -1    0    0    0    0  0.00000000000E+00  0.00000000000E+00  0.50000000000E+03  0.50000000000E+03  0.00000000000E+00 0. -1.
         11   -1    0    0    0    0 -0.00000000000E+00 -0.00000000000E+00 -0.50000000000E+03  0.50000000000E+03  0.00000000000E+00 0. -1.
         23    2    1    2    0    0 -0.12605079132E+03  0.27325703732E+02 -0.25387466711E+03  0.29748144405E+03  0.86066061134E+02 0.  0.
        -11    1    1    2    0    0  0.74273355032E+02  0.56152645172E+02  0.46257640112E+03  0.47185440307E+03  0.00000000000E+00 0. -1.
         11    1    1    2    0    0  0.51777436292E+02 -0.83478348904E+02 -0.20870173401E+03  0.23066415288E+03  0.00000000000E+00 0. -1.
        -15    1    3    3    0    0 -0.48532384726E+02  0.39434065153E+02 -0.17656270644E+03  0.18731787126E+03  0.17770000000E+01 0. -1.
         15    1    3    3    0    0 -0.77518406598E+02 -0.12108361421E+02 -0.77311960670E+02  0.11016357279E+03  0.17770000000E+01 0.  1.
</event>
<event>
 7    1  0.4133533E-006  0.3944679E+03  0.7546771E-02  0.9672889E-01
        -11   -1    0    0    0    0  0.00000000000E+00  0.00000000000E+00  0.50000000000E+03  0.50000000000E+03  0.00000000000E+00 0.  1.
         11   -1    0    0    0    0 -0.00000000000E+00 -0.00000000000E+00 -0.50000000000E+03  0.50000000000E+03  0.00000000000E+00 0.  1.
         23    2    1    2    0    0  0.27443517675E+03  0.70438022391E+02 -0.28445462430E+03  0.41176915373E+03  0.91450650312E+02 0.  0.
        -11    1    1    2    0    0 -0.10660266419E+03 -0.21285118826E+02  0.37560524629E+03  0.39101980172E+03  0.00000000000E+00 0.  1.
         11    1    1    2    0    0 -0.16783251256E+03 -0.49152903565E+02 -0.91150621989E+02  0.19721104454E+03  0.00000000000E+00 0.  1.
        -15    1    3    3    0    0  0.24651347416E+03  0.82621936513E+02 -0.27789213996E+03  0.38055548415E+03  0.17770000000E+01 0.  1.
         15    1    3    3    0    0  0.27921702597E+02 -0.12183914122E+02 -0.65624843377E+01  0.31213669584E+02  0.17770000000E+01 0. -1.
</event>
<event>
 7    1  0.4133533E-006  0.5292336E+03  0.7546771E-02  0.9336673E-01
        -11   -1    0    0    0    0  0.00000000000E+00  0.00000000000E+00  0.50000000000E+03  0.50000000000E+03  0.00000000000E+00 0.  1.
         11   -1    0    0    0    0 -0.00000000000E+00 -0.00000000000E+00 -0.50000000000E+03  0.50000000000E+03  0.00000000000E+00 0. -1.
         23    2    1    2    0    0 -0.16735368162E+02  0.23688228396E+02 -0.26298447329E+03  0.28086459159E+03  0.94249036651E+02 0.  0.
        -11    1    1    2    0    0 -0.77359926461E+02 -0.18644040834E+03  0.42529573431E+03  0.47076644496E+03  0.00000000000E+00 0.  1.
         11    1    1    2    0    0  0.94095294623E+02  0.16275217994E+03 -0.16231126102E+03  0.24836896344E+03  0.00000000000E+00 0. -1.
        -15    1    3    3    0    0 -0.39416103881E+02  0.16840163060E+02 -0.25026547450E+03  0.25391570607E+03  0.17770000000E+01 0. -1.
         15    1    3    3    0    0  0.22680735718E+02  0.68480653363E+01 -0.12718998789E+02  0.26948885520E+02  0.17770000000E+01 0.  1.
</event>
<event>
 7    1  0.4133533E-006  0.4206694E+03  0.7546771E-02  0.9597226E-01
        -11   -1    0    0    0    0  0.00000000000E+00  0.00000000000E+00  0.50000000000E+03  0.50000000000E+03  0.00000000000E+00 0. -1.
         11   -1    0    0    0    0 -0.00000000000E+00 -0.00000000000E+00 -0.50000000000E+03  0.50000000000E+03  0.00000000000E+00 0. -1.
         23    2    1    2    0    0  0.71251733239E+02 -0.86604695206E+02 -0.43541153595E+03  0.45961423622E+03  0.95314520293E+02 0.  0.
        -11    1    1    2    0    0  0.69645180382E+02  0.73785445151E+02  0.37156230039E+03  0.38516656934E+03  0.00000000000E+00 0. -1.
         11    1    1    2    0    0 -0.14089691362E+03  0.12819250055E+02  0.63849235560E+02  0.15521919444E+03  0.00000000000E+00 0. -1.
        -15    1    3    3    0    0  0.21915915042E+02 -0.62907348496E+02 -0.36170008859E+03  0.36778764749E+03  0.17770000000E+01 0. -1.
         15    1    3    3    0    0  0.49335818197E+02 -0.23697346710E+02 -0.73711447356E+02  0.91826588734E+02  0.17770000000E+01 0.  1.
</event>
<event>
 7    1  0.4133533E-006  0.5159716E+03  0.7546771E-02  0.9364765E-01
        -11   -1    0    0    0    0  0.00000000000E+00  0.00000000000E+00  0.50000000000E+03  0.50000000000E+03  0.00000000000E+00 0. -1.
         11   -1    0    0    0    0 -0.00000000000E+00 -0.00000000000E+00 -0.50000000000E+03  0.50000000000E+03  0.00000000000E+00 0. -1.
         23    2    1    2    0    0 -0.13469292552E+02  0.45595717396E+02 -0.24435045705E+03  0.26478483424E+03  0.90241184021E+02 0.  0.
        -11    1    1    2    0    0 -0.96717791930E+02 -0.92001285385E+02  0.46525793047E+03  0.48402841823E+03  0.00000000000E+00 0. -1.
         11    1    1    2    0    0  0.11018708448E+03  0.46405567989E+02 -0.22090747342E+03  0.25118674754E+03  0.00000000000E+00 0. -1.
        -15    1    3    3    0    0 -0.38408364972E+02  0.58801904668E+02 -0.20194112626E+03  0.21381356995E+03  0.17770000000E+01 0. -1.
         15    1    3    3    0    0  0.24939072419E+02 -0.13206187272E+02 -0.42409330797E+02  0.50971264287E+02  0.17770000000E+01 0.  1.
</event>
<event>
 7    1  0.4133533E-006  0.4772380E+03  0.7546771E-02  0.9452233E-01
        -11   -1    0    0    0    0  0.00000000000E+00  0.00000000000E+00  0.50000000000E+03  0.50000000000E+03  0.00000000000E+00 0. -1.
         11   -1    0    0    0    0 -0.00000000000E+00 -0.00000000000E+00 -0.50000000000E+03  0.50000000000E+03  0.00000000000E+00 0.  1.
         23    2    1    2    0    0 -0.27149552744E+02 -0.12290280988E+03 -0.43978076861E+03  0.46656952504E+03  0.91857489444E+02 0.  0.
        -11    1    1    2    0    0  0.19264679249E+02  0.17475834275E+03  0.44714094678E+03  0.48046501695E+03  0.00000000000E+00 0. -1.
         11    1    1    2    0    0  0.78848734951E+01 -0.51855532870E+02 -0.73601781678E+01  0.52965458008E+02  0.00000000000E+00 0.  1.
        -15    1    3    3    0    0 -0.57016524363E+02 -0.84737589396E+02 -0.23711033210E+03  0.25817786587E+03  0.17770000000E+01 0.  1.
         15    1    3    3    0    0  0.29866971619E+02 -0.38165220487E+02 -0.20267043651E+03  0.20839165917E+03  0.17770000000E+01 0. -1.
</event>
<event>
 7    1  0.4133533E-006  0.5227868E+03  0.7546771E-02  0.9350218E-01
        -11   -1    0    0    0    0  0.00000000000E+00  0.00000000000E+00  0.50000000000E+03  0.50000000000E+03  0.00000000000E+00 0.  1.
         11   -1    0    0    0    0 -0.00000000000E+00 -0.00000000000E+00 -0.50000000000E+03  0.50000000000E+03  0.00000000000E+00 0.  1.
         23    2    1    2    0    0  0.20271746942E+02  0.17856763172E+02 -0.13322511850E+03  0.16407196628E+03  0.91874208594E+02 0.  0.
        -11    1    1    2    0    0 -0.20498365816E+03  0.88427844366E+02  0.42177563460E+03  0.47721323296E+03  0.00000000000E+00 0.  1.
         11    1    1    2    0    0  0.18471191122E+03 -0.10628460754E+03 -0.28855051610E+03  0.35871480076E+03  0.00000000000E+00 0.  1.
        -15    1    3    3    0    0 -0.11264108218E+02 -0.26286527332E+02 -0.90698085591E+02  0.95116571175E+02  0.17770000000E+01 0.  1.
         15    1    3    3    0    0  0.31535855160E+02  0.44143290504E+02 -0.42527032909E+02  0.68955395106E+02  0.17770000000E+01 0. -1.
</event>
<event>
 6    1  0.4133533E-006  0.3053363E+03  0.7546771E-02  0.9986691E-01
        -11   -1    0    0    0    0  0.00000000000E+00  0.00000000000E+00  0.50000000000E+03  0.50000000000E+03  0.00000000000E+00 0. -1.
         11   -1    0    0    0    0 -0.00000000000E+00 -0.00000000000E+00 -0.50000000000E+03  0.50000000000E+03  0.00000000000E+00 0. -1.
        -11    1    1    2    0    0  0.36161667650E+02  0.78059397112E+02  0.14734885118E+03  0.17062420587E+03  0.00000000000E+00 0. -1.
         11    1    1    2    0    0 -0.23228200190E+03 -0.19239441977E+03 -0.29612892935E+03  0.42268532499E+03  0.00000000000E+00 0. -1.
        -15    1    1    2    0    0  0.13087927629E+03 -0.28333259435E+02  0.20083535487E+03  0.24139212093E+03  0.17770000000E+01 0.  1.
         15    1    1    2    0    0  0.65241057953E+02  0.14266828210E+03 -0.52055276699E+02  0.16529834821E+03  0.17770000000E+01 0. -1.
</event>
<event>
 7    1  0.4133533E-006  0.3909083E+03  0.7546771E-02  0.9683652E-01
        -11   -1    0    0    0    0  0.00000000000E+00  0.00000000000E+00  0.50000000000E+03  0.50000000000E+03  0.00000000000E+00 0.  1.
         11   -1    0    0    0    0 -0.00000000000E+00 -0.00000000000E+00 -0.50000000000E+03  0.50000000000E+03  0.00000000000E+00 0.  1.
         23    2    1    2    0    0  0.61182722712E+02 -0.56227242000E+02 -0.42771960199E+03  0.44418656193E+03  0.86329691089E+02 0.  0.
        -11    1    1    2    0    0 -0.15294876634E+03 -0.79038638714E+02  0.30923760204E+03  0.35393265751E+03  0.00000000000E+00 0.  1.
         11    1    1    2    0    0  0.91766043631E+02  0.13526588071E+03  0.11848199995E+03  0.20188078056E+03  0.00000000000E+00 0.  1.
        -15    1    3    3    0    0  0.74728295927E+02 -0.68499890001E+02 -0.35648589971E+03  0.37062367378E+03  0.17770000000E+01 0.  1.
         15    1    3    3    0    0 -0.13545573215E+02  0.12272648001E+02 -0.71233702283E+02  0.73562888148E+02  0.17770000000E+01 0. -1.
</event>
<event>
 7    1  0.4133533E-006  0.4716959E+03  0.7546771E-02  0.9465469E-01
        -11   -1    0    0    0    0  0.00000000000E+00  0.00000000000E+00  0.50000000000E+03  0.50000000000E+03  0.00000000000E+00 0. -1.
         11   -1    0    0    0    0 -0.00000000000E+00 -0.00000000000E+00 -0.50000000000E+03  0.50000000000E+03  0.00000000000E+00 0. -1.
         23    2    1    2    0    0 -0.76729921637E+01 -0.36915799177E+02 -0.43862570375E+03  0.45134404954E+03  0.99485134718E+02 0.  0.
        -11    1    1    2    0    0  0.55072542484E+02  0.59546348855E+02  0.47684733927E+03  0.48369632784E+03  0.00000000000E+00 0. -1.
         11    1    1    2    0    0 -0.47399550321E+02 -0.22630549677E+02 -0.38221635515E+02  0.64959622619E+02  0.00000000000E+00 0. -1.
        -15    1    3    3    0    0  0.39942567539E+02 -0.37930913130E+01 -0.99678970217E+02  0.10746558089E+03  0.17770000000E+01 0.  1.
         15    1    3    3    0    0 -0.47615559702E+02 -0.33122707864E+02 -0.33894673353E+03  0.34387846866E+03  0.17770000000E+01 0. -1.
</event>
<event>
 7    1  0.4133533E-006  0.5169117E+03  0.7546771E-02  0.9362744E-01
        -11   -1    0    0    0    0  0.00000000000E+00  0.00000000000E+00  0.50000000000E+03  0.50000000000E+03  0.00000000000E+00 0. -1.
         11   -1    0    0    0    0 -0.00000000000E+00 -0.00000000000E+00 -0.50000000000E+03  0.50000000000E+03  0.00000000000E+00 0.  1.
         23    2    1    2    0    0  0.12556610283E+03 -0.14666225173E+03  0.96003054861E+00  0.21340436285E+03  0.90905655279E+02 0.  0.
        -11    1    1    2    0    0  0.24888561255E+03 -0.14073598573E+03  0.10181378537E+03  0.30350735197E+03  0.00000000000E+00 0. -1.
         11    1    1    2    0    0 -0.37445171538E+03  0.28739823745E+03 -0.10277381591E+03  0.48308828518E+03  0.00000000000E+00 0.  1.
        -15    1    3    3    0    0  0.49950870494E+02 -0.16084197449E+02 -0.28366162700E+02  0.59679039754E+02  0.17770000000E+01 0.  1.
         15    1    3    3    0    0  0.75615232334E+02 -0.13057805428E+03  0.29326193249E+02  0.15372532309E+03  0.17770000000E+01 0. -1.
</event>
<event>
 7    1  0.4133533E-006  0.5242721E+03  0.7546771E-02  0.9347079E-01
        -11   -1    0    0    0    0  0.00000000000E+00  0.00000000000E+00  0.50000000000E+03  0.50000000000E+03  0.00000000000E+00 0.  1.
         11   -1    0    0    0    0 -0.00000000000E+00 -0.00000000000E+00 -0.50000000000E+03  0.50000000000E+03  0.00000000000E+00 0. -1.
         23    2    1    2    0    0 -0.80797210881E+02  0.66552297129E+02  0.31649751952E+02  0.14205873271E+03  0.90672924304E+02 0.  0.
        -11    1    1    2    0    0 -0.23714055623E+03  0.88871230106E+02  0.28627494076E+03  0.38221339675E+03  0.00000000000E+00 0.  1.
         11    1    1    2    0    0  0.31793776711E+03 -0.15542352723E+03 -0.31792469271E+03  0.47572787054E+03  0.00000000000E+00 0. -1.
        -15    1    3    3    0    0 -0.60223061206E+02  0.81435003892E+02 -0.18316691371E+00  0.10129989259E+03  0.17770000000E+01 0.  1.
         15    1    3    3    0    0 -0.20574149675E+02 -0.14882706763E+02  0.31832918866E+02  0.40758840121E+02  0.17770000000E+01 0. -1.
</event>
<event>
 7    1  0.4133533E-006  0.4602960E+03  0.7546771E-02  0.9493314E-01
        -11   -1    0    0    0    0  0.00000000000E+00  0.00000000000E+00  0.50000000000E+03  0.50000000000E+03  0.00000000000E+00 0.  1.
         11   -1    0    0    0    0 -0.00000000000E+00 -0.00000000000E+00 -0.50000000000E+03  0.50000000000E+03  0.00000000000E+00 0. -1.
         23    2    1    2    0    0 -0.14330902362E+03  0.11945085794E+03 -0.37509716468E+03  0.42907856213E+03  0.92760691074E+02 0.  0.
        -11    1    1    2    0    0  0.20472131860E+03 -0.16840379356E+03  0.40735980912E+03  0.48601714996E+03  0.00000000000E+00 0.  1.
         11    1    1    2    0    0 -0.61412294982E+02  0.48952935612E+02 -0.32262644433E+02  0.84904287912E+02  0.00000000000E+00 0. -1.
        -15    1    3    3    0    0 -0.23781103741E+02  0.42998295258E+02 -0.34385515429E+02  0.59999297417E+02  0.17770000000E+01 0.  1.
         15    1    3    3    0    0 -0.11952791988E+03  0.76452562687E+02 -0.34071164925E+03  0.36907926471E+03  0.17770000000E+01 0. -1.
</event>
<event>
 7    1  0.4133533E-006  0.4616465E+03  0.7546771E-02  0.9489971E-01
        -11   -1    0    0    0    0  0.00000000000E+00  0.00000000000E+00  0.50000000000E+03  0.50000000000E+03  0.00000000000E+00 0.  1.
         11   -1    0    0    0    0 -0.00000000000E+00 -0.00000000000E+00 -0.50000000000E+03  0.50000000000E+03  0.00000000000E+00 0. -1.
         23    2    1    2    0    0 -0.24664080511E+02 -0.10582764432E+03 -0.42284233054E+03  0.44870829347E+03  0.10361316985E+03 0.  0.
        -11    1    1    2    0    0 -0.26979056490E+02  0.17201983961E+03  0.43302467667E+03  0.46672161436E+03  0.00000000000E+00 0.  1.
         11    1    1    2    0    0  0.51643137000E+02 -0.66192195291E+02 -0.10182346126E+02  0.84570092168E+02  0.00000000000E+00 0. -1.
        -15    1    3    3    0    0  0.39198837293E+02 -0.57828754735E+02 -0.21263018951E+03  0.22382017098E+03  0.17770000000E+01 0.  1.
         15    1    3    3    0    0 -0.63862917804E+02 -0.47998889584E+02 -0.21021214103E+03  0.22488812249E+03  0.17770000000E+01 0. -1.
</event>
<event>
 7    1  0.4133533E-006  0.5123916E+03  0.7546771E-02  0.9372502E-01
        -11   -1    0    0    0    0  0.00000000000E+00  0.00000000000E+00  0.50000000000E+03  0.50000000000E+03  0.00000000000E+00 0.  1.
         11   -1    0    0    0    0 -0.00000000000E+00 -0.00000000000E+00 -0.50000000000E+03  0.50000000000E+03  0.00000000000E+00 0.  1.
         23    2    1    2    0    0  0.89822412893E+01  0.14890703115E+02  0.18973894615E+03  0.21109653906E+03  0.90876110259E+02 0.  0.
        -11    1    1    2    0    0  0.51463575792E+02  0.92980576788E+02  0.28193050390E+03  0.30129503203E+03  0.00000000000E+00 0.  1.
         11    1    1    2    0    0 -0.60445817082E+02 -0.10787127990E+03 -0.47166945006E+03  0.48760842892E+03  0.00000000000E+00 0.  1.
        -15    1    3    3    0    0  0.31681714369E+01 -0.38246915422E+02  0.91578636778E+02  0.99310967635E+02  0.17770000000E+01 0. -1.
         15    1    3    3    0    0  0.58140698524E+01  0.53137618537E+02  0.98160309376E+02  0.11178557142E+03  0.17770000000E+01 0.  1.
</event>
<event>
 7    1  0.4133533E-006  0.5058063E+03  0.7546771E-02  0.9386911E-01
        -11   -1    0    0    0    0  0.00000000000E+00  0.00000000000E+00  0.50000000000E+03  0.50000000000E+03  0.00000000000E+00 0.  1.
         11   -1    0    0    0    0 -0.00000000000E+00 -0.00000000000E+00 -0.50000000000E+03  0.50000000000E+03  0.00000000000E+00 0.  1.
         23    2    1    2    0    0 -0.84291529456E+02  0.24709687001E+03 -0.40935354749E+03  0.49419369145E+03  0.92169152767E+02 0.  0.
        -11    1    1    2    0    0 -0.25502874461E+02 -0.50926926229E+02  0.16120267339E+03  0.17096856533E+03  0.00000000000E+00 0.  1.
         11    1    1    2    0    0  0.10979440392E+03 -0.19616994378E+03  0.24815087410E+03  0.33483774322E+03  0.00000000000E+00 0.  1.
        -15    1    3    3    0    0 -0.27934681099E+02  0.20069544857E+03 -0.27969180530E+03  0.34538337129E+03  0.17770000000E+01 0.  1.
         15    1    3    3    0    0 -0.56356848357E+02  0.46401421430E+02 -0.12966174219E+03  0.14881032016E+03  0.17770000000E+01 0. -1.
</event>
<event>
 7    1  0.4133533E-006  0.5095936E+03  0.7546771E-02  0.9378595E-01
        -11   -1    0    0    0    0  0.00000000000E+00  0.00000000000E+00  0.50000000000E+03  0.50000000000E+03  0.00000000000E+00 0.  1.
         11   -1    0    0    0    0 -0.00000000000E+00 -0.00000000000E+00 -0.50000000000E+03  0.50000000000E+03  0.00000000000E+00 0.  1.
         23    2    1    2    0    0  0.72707489256E+02  0.70079957756E+02  0.30752142571E+03  0.33623454059E+03  0.91031091079E+02 0.  0.
        -11    1    1    2    0    0  0.44381493609E+02 -0.21411061840E+02  0.16620837005E+03  0.17335908635E+03  0.00000000000E+00 0.  1.
         11    1    1    2    0    0 -0.11708898286E+03 -0.48668895916E+02 -0.47372979577E+03  0.49040637306E+03  0.00000000000E+00 0.  1.
        -15    1    3    3    0    0  0.26262682181E+02 -0.21014887535E+02  0.74705556687E+02  0.81947738849E+02  0.17770000000E+01 0. -1.
         15    1    3    3    0    0  0.46444807074E+02  0.91094845291E+02  0.23281586902E+03  0.25428680174E+03  0.17770000000E+01 0.  1.
</event>
<event>
 7    1  0.4133533E-006  0.4555469E+03  0.7546771E-02  0.9505168E-01
        -11   -1    0    0    0    0  0.00000000000E+00  0.00000000000E+00  0.50000000000E+03  0.50000000000E+03  0.00000000000E+00 0.  1.
         11   -1    0    0    0    0 -0.00000000000E+00 -0.00000000000E+00 -0.50000000000E+03  0.50000000000E+03  0.00000000000E+00 0. -1.
         23    2    1    2    0    0 -0.14902764270E+02  0.49460308874E+02 -0.43842692600E+03  0.45073306821E+03  0.90959962619E+02 0.  0.
        -11    1    1    2    0    0  0.10647850146E+03 -0.32175989207E+02  0.44222207682E+03  0.45599707322E+03  0.00000000000E+00 0.  1.
         11    1    1    2    0    0 -0.91575737185E+02 -0.17284319667E+02 -0.37951508195E+01  0.93269858567E+02  0.00000000000E+00 0. -1.
        -15    1    3    3    0    0  0.35984682495E+02  0.36282422261E+02 -0.24528433844E+03  0.25055713111E+03  0.17770000000E+01 0.  1.
         15    1    3    3    0    0 -0.50887446765E+02  0.13177886613E+02 -0.19314258757E+03  0.20017593710E+03  0.17770000000E+01 0. -1.
</event>
<event>
 7    1  0.4133533E-006  0.3924254E+03  0.7546771E-02  0.9679050E-01
        -11   -1    0    0    0    0  0.00000000000E+00  0.00000000000E+00  0.50000000000E+03  0.50000000000E+03  0.00000000000E+00 0. -1.
         11   -1    0    0    0    0 -0.00000000000E+00 -0.00000000000E+00 -0.50000000000E+03  0.50000000000E+03  0.00000000000E+00 0. -1.
         23    2    1    2    0    0 -0.58894394688E+02  0.14403415338E+03  0.94445429585E+01  0.19981609422E+03  0.12499153991E+03 0.  0.
        -11    1    1    2    0    0 -0.82242027563E+02  0.12682928107E+03  0.31818713497E+03  0.35226761205E+03  0.00000000000E+00 0. -1.
         11    1    1    2    0    0  0.14113642225E+03 -0.27086343446E+03 -0.32763167793E+03  0.44791629374E+03  0.00000000000E+00 0. -1.
        -15    1    3    3    0    0 -0.10067706693E+02 -0.18477875770E+02 -0.18203899289E+02  0.27880643632E+02  0.17770000000E+01 0. -1.
         15    1    3    3    0    0 -0.48826687995E+02  0.16251202915E+03  0.27648442248E+02  0.17193545059E+03  0.17770000000E+01 0. -1.
</event>
<event>
 7    1  0.4133533E-006  0.3520753E+03  0.7546771E-02  0.9809670E-01
        -11   -1    0    0    0    0  0.00000000000E+00  0.00000000000E+00  0.50000000000E+03  0.50000000000E+03  0.00000000000E+00 0.  1.
         11   -1    0    0    0    0 -0.00000000000E+00 -0.00000000000E+00 -0.50000000000E+03  0.50000000000E+03  0.00000000000E+00 0. -1.
         23    2    1    2    0    0  0.12029137155E+03  0.19520910993E+03 -0.69078232534E+02  0.25624171154E+03  0.91166890113E+02 0.  0.
        -11    1    1    2    0    0 -0.16793444766E+02 -0.63737717356E+02  0.38267800557E+03  0.38831298246E+03  0.00000000000E+00 0.  1.
         11    1    1    2    0    0 -0.10349792678E+03 -0.13147139257E+03 -0.31359977303E+03  0.35544530600E+03  0.00000000000E+00 0. -1.
        -15    1    3    3    0    0  0.19507212261E+02  0.11580081179E+03 -0.21579569109E+02  0.11941187074E+03  0.17770000000E+01 0.  1.
         15    1    3    3    0    0  0.10078415929E+03  0.79408298142E+02 -0.47498663425E+02  0.13682984080E+03  0.17770000000E+01 0. -1.
</event>
<event>
 7    1  0.4133533E-006  0.5256956E+03  0.7546771E-02  0.9344081E-01
        -11   -1    0    0    0    0  0.00000000000E+00  0.00000000000E+00  0.50000000000E+03  0.50000000000E+03  0.00000000000E+00 0.  1.
         11   -1    0    0    0    0 -0.00000000000E+00 -0.00000000000E+00 -0.50000000000E+03  0.50000000000E+03  0.00000000000E+00 0. -1.
         23    2    1    2    0    0  0.13723941297E+03  0.11982044199E+02 -0.31331760543E+03  0.35282062650E+03  0.85651892886E+02 0.  0.
        -11    1    1    2    0    0 -0.66295243707E+02 -0.44837022060E+02  0.46750325486E+03  0.47430444989E+03  0.00000000000E+00 0.  1.
         11    1    1    2    0    0 -0.70944169265E+02  0.32854977861E+02 -0.15418564942E+03  0.17287492361E+03  0.00000000000E+00 0. -1.
        -15    1    3    3    0    0  0.10743367731E+03  0.40370864195E+02 -0.18181966200E+03  0.21501941521E+03  0.17770000000E+01 0.  1.
         15    1    3    3    0    0  0.29805735664E+02 -0.28388819997E+02 -0.13149794343E+03  0.13780121130E+03  0.17770000000E+01 0. -1.
</event>
<event>
 7    1  0.4133533E-006  0.5064207E+03  0.7546771E-02  0.9385556E-01
        -11   -1    0    0    0    0  0.00000000000E+00  0.00000000000E+00  0.50000000000E+03  0.50000000000E+03  0.00000000000E+00 0.  1.
         11   -1    0    0    0    0 -0.00000000000E+00 -0.00000000000E+00 -0.50000000000E+03  0.50000000000E+03  0.00000000000E+00 0. -1.
         23    2    1    2    0    0 -0.67725438976E+02 -0.79434017764E+02 -0.37824271689E+03  0.40273022387E+03  0.90706020070E+02 0.  0.
        -11    1    1    2    0    0  0.91355110601E+02  0.12356832031E+03  0.46904756711E+03  0.49357928059E+03  0.00000000000E+00 0.  1.
         11    1    1    2    0    0 -0.23629671625E+02 -0.44134302542E+02 -0.90804850216E+02  0.10369049554E+03  0.00000000000E+00 0. -1.
        -15    1    3    3    0    0 -0.66107335608E+02 -0.34966577777E+02 -0.32412552809E+03  0.33264599362E+03  0.17770000000E+01 0.  1.
         15    1    3    3    0    0 -0.16181033690E+01 -0.44467439988E+02 -0.54117188805E+02  0.70084230257E+02  0.17770000000E+01 0. -1.
</event>
<event>
 7    1  0.4133533E-006  0.4035392E+03  0.7546771E-02  0.9646001E-01
        -11   -1    0    0    0    0  0.00000000000E+00  0.00000000000E+00  0.50000000000E+03  0.50000000000E+03  0.00000000000E+00 0. -1.
         11   -1    0    0    0    0 -0.00000000000E+00 -0.00000000000E+00 -0.50000000000E+03  0.50000000000E+03  0.00000000000E+00 0. -1.
         23    2    1    2    0    0  0.13187871304E+03 -0.33333317356E+02 -0.34869170814E+03  0.38870384797E+03  0.10488884164E+03 0.  0.
        -11    1    1    2    0    0  0.28655760865E+02  0.10026713744E+03  0.41292157067E+03  0.42588598827E+03  0.00000000000E+00 0. -1.
         11    1    1    2    0    0 -0.16053447391E+03 -0.66933820080E+02 -0.64229862532E+02  0.18541016376E+03  0.00000000000E+00 0. -1.
        -15    1    3    3    0    0  0.47075399274E+02 -0.14187563405E+02 -0.28377161313E+02  0.56796137063E+02  0.17770000000E+01 0.  1.
         15    1    3    3    0    0  0.84803313770E+02 -0.19145753951E+02 -0.32031454683E+03  0.33190771091E+03  0.17770000000E+01 0. -1.
</event>
<event>
 7    1  0.4133533E-006  0.5225858E+03  0.7546771E-02  0.9350644E-01
        -11   -1    0    0    0    0  0.00000000000E+00  0.00000000000E+00  0.50000000000E+03  0.50000000000E+03  0.00000000000E+00 0.  1.
         11   -1    0    0    0    0 -0.00000000000E+00 -0.00000000000E+00 -0.50000000000E+03  0.50000000000E+03  0.00000000000E+00 0. -1.
         23    2    1    2    0    0  0.97911314471E+01 -0.11340679869E+03 -0.33843765599E+03  0.36915150948E+03  0.93679355867E+02 0.  0.
        -11    1    1    2    0    0 -0.10074671331E+03  0.20828695639E+03  0.41760147366E+03  0.47741423025E+03  0.00000000000E+00 0.  1.
         11    1    1    2    0    0  0.90955581860E+02 -0.94880157702E+02 -0.79163817670E+02  0.15343426027E+03  0.00000000000E+00 0. -1.
        -15    1    3    3    0    0  0.35007657564E+02 -0.83377704188E+01 -0.54397383751E+02  0.65247893389E+02  0.17770000000E+01 0.  1.
         15    1    3    3    0    0 -0.25216526117E+02 -0.10506902827E+03 -0.28404027224E+03  0.30390361609E+03  0.17770000000E+01 0. -1.
</event>
<event>
 7    1  0.4133533E-006  0.5103888E+03  0.7546771E-02  0.9376859E-01
        -11   -1    0    0    0    0  0.00000000000E+00  0.00000000000E+00  0.50000000000E+03  0.50000000000E+03  0.00000000000E+00 0.  1.
         11   -1    0    0    0    0 -0.00000000000E+00 -0.00000000000E+00 -0.50000000000E+03  0.50000000000E+03  0.00000000000E+00 0.  1.
         23    2    1    2    0    0  0.48451160066E+01 -0.59771449689E+02  0.20347898283E+03  0.23208513484E+03  0.94147288919E+02 0.  0.
        -11    1    1    2    0    0  0.30172633170E+02 -0.56569424398E+02  0.27081807960E+03  0.27830364677E+03  0.00000000000E+00 0.  1.
         11    1    1    2    0    0 -0.35017749176E+02  0.11634087409E+03 -0.47429706243E+03  0.48961121839E+03  0.00000000000E+00 0.  1.
        -15    1    3    3    0    0  0.28784507593E+02 -0.15289515289E+02  0.13204310191E+02  0.35211201226E+02  0.17770000000E+01 0.  1.
         15    1    3    3    0    0 -0.23939391587E+02 -0.44481934400E+02  0.19027467264E+03  0.19687393361E+03  0.17770000000E+01 0. -1.
</event>
<event>
 7    1  0.4133533E-006  0.5108024E+03  0.7546771E-02  0.9375958E-01
        -11   -1    0    0    0    0  0.00000000000E+00  0.00000000000E+00  0.50000000000E+03  0.50000000000E+03  0.00000000000E+00 0.  1.
         11   -1    0    0    0    0 -0.00000000000E+00 -0.00000000000E+00 -0.50000000000E+03  0.50000000000E+03  0.00000000000E+00 0. -1.
         23    2    1    2    0    0  0.22767926619E+02 -0.12668037883E+03  0.32567405723E+03  0.36194395932E+03  0.91507055854E+02 0.  0.
        -11    1    1    2    0    0 -0.38114689226E+02 -0.11107567860E+02  0.14346686548E+03  0.14885848679E+03  0.00000000000E+00 0.  1.
         11    1    1    2    0    0  0.15346762607E+02  0.13778794669E+03 -0.46914092271E+03  0.48919755389E+03  0.00000000000E+00 0. -1.
        -15    1    3    3    0    0  0.49241273248E+02 -0.44187452568E+02  0.97243950467E+02  0.11762983290E+03  0.17770000000E+01 0.  1.
         15    1    3    3    0    0 -0.26473346628E+02 -0.82492926261E+02  0.22843010677E+03  0.24431412643E+03  0.17770000000E+01 0. -1.
</event>
<event>
 7    1  0.4133533E-006  0.4305743E+03  0.7546771E-02  0.9570142E-01
        -11   -1    0    0    0    0  0.00000000000E+00  0.00000000000E+00  0.50000000000E+03  0.50000000000E+03  0.00000000000E+00 0.  1.
         11   -1    0    0    0    0 -0.00000000000E+00 -0.00000000000E+00 -0.50000000000E+03  0.50000000000E+03  0.00000000000E+00 0. -1.
         23    2    1    2    0    0  0.48331666395E+02  0.86340191237E+02  0.11229438641E+02  0.13311267239E+03  0.88330655259E+02 0.  0.
        -11    1    1    2    0    0  0.29123630238E+03 -0.91321660742E+02  0.28398973799E+03  0.41690334711E+03  0.00000000000E+00 0.  1.
         11    1    1    2    0    0 -0.33956796878E+03  0.49814695050E+01 -0.29521917663E+03  0.44998398050E+03  0.00000000000E+00 0. -1.
        -15    1    3    3    0    0  0.31232125606E+02  0.26135855973E+01 -0.25145640413E+02  0.40221107149E+02  0.17770000000E+01 0.  1.
         15    1    3    3    0    0  0.17099540790E+02  0.83726605640E+02  0.36375079054E+02  0.92891565238E+02  0.17770000000E+01 0. -1.
</event>
<event>
 7    1  0.4133533E-006  0.5171876E+03  0.7546771E-02  0.9362152E-01
        -11   -1    0    0    0    0  0.00000000000E+00  0.00000000000E+00  0.50000000000E+03  0.50000000000E+03  0.00000000000E+00 0. -1.
         11   -1    0    0    0    0 -0.00000000000E+00 -0.00000000000E+00 -0.50000000000E+03  0.50000000000E+03  0.00000000000E+00 0.  1.
         23    2    1    2    0    0 -0.87226381267E+02 -0.10876985170E+03 -0.30506071358E+03  0.34862340655E+03  0.95062707705E+02 0.  0.
        -11    1    1    2    0    0  0.48399544225E+02  0.10385914179E+03  0.46901876107E+03  0.48281242263E+03  0.00000000000E+00 0. -1.
         11    1    1    2    0    0  0.38826837042E+02  0.49107099053E+01 -0.16395804749E+03  0.16856417082E+03  0.00000000000E+00 0.  1.
        -15    1    3    3    0    0  0.80857328009E+01 -0.17315465869E+02 -0.36538626989E+01  0.19537473603E+02  0.17770000000E+01 0. -1.
         15    1    3    3    0    0 -0.95312114068E+02 -0.91454385830E+02 -0.30140685088E+03  0.32908593294E+03  0.17770000000E+01 0.  1.
</event>
<event>
 7    1  0.4133533E-006  0.5399285E+03  0.7546771E-02  0.9314648E-01
        -11   -1    0    0    0    0  0.00000000000E+00  0.00000000000E+00  0.50000000000E+03  0.50000000000E+03  0.00000000000E+00 0.  1.
         11   -1    0    0    0    0 -0.00000000000E+00 -0.00000000000E+00 -0.50000000000E+03  0.50000000000E+03  0.00000000000E+00 0. -1.
         23    2    1    2    0    0  0.65656692064E+02 -0.61695726902E+02 -0.17439004955E+03  0.21645749827E+03  0.91240315885E+02 0.  0.
        -11    1    1    2    0    0  0.97906770106E+02  0.13806203868E+02  0.44932108728E+03  0.46007150137E+03  0.00000000000E+00 0.  1.
         11    1    1    2    0    0 -0.16356346217E+03  0.47889523034E+02 -0.27493103773E+03  0.32347100037E+03  0.00000000000E+00 0. -1.
        -15    1    3    3    0    0  0.20353685890E+02 -0.57463192653E+02 -0.15573226140E+03  0.16724827655E+03  0.17770000000E+01 0.  1.
         15    1    3    3    0    0  0.45303006173E+02 -0.42325342498E+01 -0.18657788154E+02  0.49209221720E+02  0.17770000000E+01 0. -1.
</event>
<event>
 7    1  0.4133533E-006  0.4624198E+03  0.7546771E-02  0.9488062E-01
        -11   -1    0    0    0    0  0.00000000000E+00  0.00000000000E+00  0.50000000000E+03  0.50000000000E+03  0.00000000000E+00 0.  1.
         11   -1    0    0    0    0 -0.00000000000E+00 -0.00000000000E+00 -0.50000000000E+03  0.50000000000E+03  0.00000000000E+00 0.  1.
         23    2    1    2    0    0  0.11901550981E+03 -0.48874874153E+02 -0.40256180123E+03  0.43711499472E+03  0.11162468320E+03 0.  0.
        -11    1    1    2    0    0 -0.74172444952E+02  0.27516679689E+02  0.47140325672E+03  0.47799555405E+03  0.00000000000E+00 0.  1.
         11    1    1    2    0    0 -0.44843064854E+02  0.21358194464E+02 -0.68841455486E+02  0.84889451227E+02  0.00000000000E+00 0.  1.
        -15    1    3    3    0    0  0.56324313292E+02 -0.87993713655E-01 -0.48818420624E+02  0.74557574611E+02  0.17770000000E+01 0. -1.
         15    1    3    3    0    0  0.62691196514E+02 -0.48786880439E+02 -0.35374338061E+03  0.36255742011E+03  0.17770000000E+01 0.  1.
</event>
<event>
 7    1  0.4133533E-006  0.5309754E+03  0.7546771E-02  0.9333048E-01
        -11   -1    0    0    0    0  0.00000000000E+00  0.00000000000E+00  0.50000000000E+03  0.50000000000E+03  0.00000000000E+00 0. -1.
         11   -1    0    0    0    0 -0.00000000000E+00 -0.00000000000E+00 -0.50000000000E+03  0.50000000000E+03  0.00000000000E+00 0.  1.
         23    2    1    2    0    0  0.21491713625E+02  0.47091305611E+02 -0.34386795299E+03  0.35998558514E+03  0.93085807698E+02 0.  0.
        -11    1    1    2    0    0 -0.15425572431E+03 -0.46381159027E+01  0.44290822440E+03  0.46902455782E+03  0.00000000000E+00 0. -1.
         11    1    1    2    0    0  0.13276401069E+03 -0.42453189708E+02 -0.99040271405E+02  0.17098985704E+03  0.00000000000E+00 0.  1.
        -15    1    3    3    0    0  0.42620968185E+02 -0.13245827459E+01 -0.23641678406E+03  0.24023812138E+03  0.17770000000E+01 0.  1.
         15    1    3    3    0    0 -0.21129254560E+02  0.48415888357E+02 -0.10745116893E+03  0.11974746376E+03  0.17770000000E+01 0. -1.
</event>
<event>
 7    1  0.4133533E-006  0.5171473E+03  0.7546771E-02  0.9362238E-01
        -11   -1    0    0    0    0  0.00000000000E+00  0.00000000000E+00  0.50000000000E+03  0.50000000000E+03  0.00000000000E+00 0. -1.
         11   -1    0    0    0    0 -0.00000000000E+00 -0.00000000000E+00 -0.50000000000E+03  0.50000000000E+03  0.00000000000E+00 0.  1.
         23    2    1    2    0    0  0.75795481669E+02 -0.27788585994E+03  0.22823927841E+03  0.37887063068E+03  0.92110153562E+02 0.  0.
        -11    1    1    2    0    0 -0.41848277007E+02 -0.55210824596E+02  0.11967006666E+03  0.13827667300E+03  0.00000000000E+00 0. -1.
         11    1    1    2    0    0 -0.33947204662E+02  0.33309668453E+03 -0.34790934507E+03  0.48285269632E+03  0.00000000000E+00 0.  1.
        -15    1    3    3    0    0  0.31666338454E+02 -0.12973928256E+03  0.16389889776E+03  0.21142621608E+03  0.17770000000E+01 0.  1.
         15    1    3    3    0    0  0.44129143215E+02 -0.14814657738E+03  0.64340380649E+02  0.16744441460E+03  0.17770000000E+01 0. -1.
</event>
<event>
 7    1  0.4133533E-006  0.5101502E+03  0.7546771E-02  0.9377380E-01
        -11   -1    0    0    0    0  0.00000000000E+00  0.00000000000E+00  0.50000000000E+03  0.50000000000E+03  0.00000000000E+00 0.  1.
         11   -1    0    0    0    0 -0.00000000000E+00 -0.00000000000E+00 -0.50000000000E+03  0.50000000000E+03  0.00000000000E+00 0.  1.
         23    2    1    2    0    0  0.63124342410E+02  0.56988906737E+02 -0.37698965447E+03  0.39692152909E+03  0.90515648263E+02 0.  0.
        -11    1    1    2    0    0 -0.81578778652E+02 -0.20491462003E+02  0.48257419827E+03  0.48984982799E+03  0.00000000000E+00 0.  1.
         11    1    1    2    0    0  0.18454436243E+02 -0.36497444733E+02 -0.10558454380E+03  0.11322864292E+03  0.00000000000E+00 0.  1.
        -15    1    3    3    0    0  0.70381278836E+02  0.74812635045E+02 -0.34008800394E+03  0.35526534158E+03  0.17770000000E+01 0.  1.
         15    1    3    3    0    0 -0.72569364259E+01 -0.17823728308E+02 -0.36901650527E+02  0.41656187508E+02  0.17770000000E+01 0. -1.
</event>
<event>
 7    1  0.4133533E-006  0.3604381E+03  0.7546771E-02  0.9781106E-01
        -11   -1    0    0    0    0  0.00000000000E+00  0.00000000000E+00  0.50000000000E+03  0.50000000000E+03  0.00000000000E+00 0.  1.
         11   -1    0    0    0    0 -0.00000000000E+00 -0.00000000000E+00 -0.50000000000E+03  0.50000000000E+03  0.00000000000E+00 0.  1.
         23    2    1    2    0    0 -0.11411026346E+03 -0.17924032687E+03  0.76837873921E+02  0.24454337335E+03  0.93536920928E+02 0.  0.
        -11    1    1    2    0    0  0.74973980256E+02  0.22753651508E+02  0.31875369848E+03  0.32824190267E+03  0.00000000000E+00 0.  1.
         11    1    1    2    0    0  0.39136283200E+02  0.15648667536E+03 -0.39559157240E+03  0.42721472398E+03  0.00000000000E+00 0.  1.
        -15    1    3    3    0    0 -0.33360225831E+02 -0.66520049206E+02  0.75273884632E+02  0.10586376647E+03  0.17770000000E+01 0. -1.
         15    1    3    3    0    0 -0.80750037625E+02 -0.11272027767E+03  0.15639892898E+01  0.13867960688E+03  0.17770000000E+01 0.  1.
</event>
<event>
 7    1  0.4133533E-006  0.5319739E+03  0.7546771E-02  0.9330977E-01
        -11   -1    0    0    0    0  0.00000000000E+00  0.00000000000E+00  0.50000000000E+03  0.50000000000E+03  0.00000000000E+00 0. -1.
         11   -1    0    0    0    0 -0.00000000000E+00 -0.00000000000E+00 -0.50000000000E+03  0.50000000000E+03  0.00000000000E+00 0.  1.
         23    2    1    2    0    0  0.58866669232E+01 -0.49710934594E+02  0.19707623145E+03  0.22244695404E+03  0.90209625292E+02 0.  0.
        -11    1    1    2    0    0 -0.25139675087E+01  0.17848001105E+03  0.25287443627E+03  0.30952692112E+03  0.00000000000E+00 0. -1.
         11    1    1    2    0    0 -0.33726994145E+01 -0.12876907645E+03 -0.44995066772E+03  0.46802612484E+03  0.00000000000E+00 0.  1.
        -15    1    3    3    0    0 -0.27326805711E+02  0.13216368956E+02  0.78031080657E+02  0.83746247655E+02  0.17770000000E+01 0.  1.
         15    1    3    3    0    0  0.33213472635E+02 -0.62927303550E+02  0.11904515079E+03  0.13870070639E+03  0.17770000000E+01 0. -1.
</event>
<event>
 7    1  0.4133533E-006  0.4313719E+03  0.7546771E-02  0.9567994E-01
        -11   -1    0    0    0    0  0.00000000000E+00  0.00000000000E+00  0.50000000000E+03  0.50000000000E+03  0.00000000000E+00 0.  1.
         11   -1    0    0    0    0 -0.00000000000E+00 -0.00000000000E+00 -0.50000000000E+03  0.50000000000E+03  0.00000000000E+00 0.  1.
         23    2    1    2    0    0  0.30451024018E+02  0.89217689727E+02  0.91430540213E+01  0.13207293542E+03  0.92046747953E+02 0.  0.
        -11    1    1    2    0    0  0.40953551682E+02 -0.66902503364E+02  0.42256551516E+03  0.42978454248E+03  0.00000000000E+00 0.  1.
         11    1    1    2    0    0 -0.71404575700E+02 -0.22315186362E+02 -0.43170856918E+03  0.43814252211E+03  0.00000000000E+00 0.  1.
        -15    1    3    3    0    0  0.32153528474E+02  0.77522772352E+02 -0.31537020910E+02  0.89673692036E+02  0.17770000000E+01 0. -1.
         15    1    3    3    0    0 -0.17025044565E+01  0.11694917375E+02  0.40680074931E+02  0.42399243381E+02  0.17770000000E+01 0.  1.
</event>
<event>
 7    1  0.4133533E-006  0.4719965E+03  0.7546771E-02  0.9464746E-01
        -11   -1    0    0    0    0  0.00000000000E+00  0.00000000000E+00  0.50000000000E+03  0.50000000000E+03  0.00000000000E+00 0.  1.
         11   -1    0    0    0    0 -0.00000000000E+00 -0.00000000000E+00 -0.50000000000E+03  0.50000000000E+03  0.00000000000E+00 0.  1.
         23    2    1    2    0    0  0.10598233256E+03  0.29456756363E+03  0.35107849108E+03  0.47767403674E+03  0.83150911714E+02 0.  0.
        -11    1    1    2    0    0 -0.53011035232E+02 -0.24601409527E+02  0.18764158128E+02  0.61379905811E+02  0.00000000000E+00 0.  1.
         11    1    1    2    0    0 -0.52971297324E+02 -0.26996615411E+03 -0.36984264921E+03  0.46094605745E+03  0.00000000000E+00 0.  1.
        -15    1    3    3    0    0  0.43742964646E+02  0.19999022701E+03  0.18050413845E+03  0.27293669519E+03  0.17770000000E+01 0. -1.
         15    1    3    3    0    0  0.62239367910E+02  0.94577336620E+02  0.17057435263E+03  0.20473734155E+03  0.17770000000E+01 0.  1.
</event>
<event>
 6    1  0.4133533E-006  0.3428408E+03  0.7546771E-02  0.9842217E-01
        -11   -1    0    0    0    0  0.00000000000E+00  0.00000000000E+00  0.50000000000E+03  0.50000000000E+03  0.00000000000E+00 0.  1.
         11   -1    0    0    0    0 -0.00000000000E+00 -0.00000000000E+00 -0.50000000000E+03  0.50000000000E+03  0.00000000000E+00 0. -1.
        -11    1    1    2    0    0  0.35232696809E+02  0.11038385668E+03  0.33410498844E+03  0.35362703805E+03  0.00000000000E+00 0.  1.
         11    1    1    2    0    0 -0.64516700078E+02 -0.10614843879E+03 -0.30912317285E+03  0.33314716213E+03  0.00000000000E+00 0. -1.
        -15    1    1    2    0    0  0.10146632083E+03  0.93145416349E+02 -0.10039754351E+03  0.17045324086E+03  0.17770000000E+01 0.  1.
         15    1    1    2    0    0 -0.72182317559E+02 -0.97380834235E+02  0.75415727920E+02  0.14277255896E+03  0.17770000000E+01 0. -1.
</event>
<event>
 7    1  0.4133533E-006  0.5324513E+03  0.7546771E-02  0.9329989E-01
        -11   -1    0    0    0    0  0.00000000000E+00  0.00000000000E+00  0.50000000000E+03  0.50000000000E+03  0.00000000000E+00 0.  1.
         11   -1    0    0    0    0 -0.00000000000E+00 -0.00000000000E+00 -0.50000000000E+03  0.50000000000E+03  0.00000000000E+00 0. -1.
         23    2    1    2    0    0 -0.13600469821E+02 -0.63380390539E+02 -0.13763866986E+03  0.17939788765E+03  0.95063936196E+02 0.  0.
        -11    1    1    2    0    0  0.21596454538E+02 -0.80074874509E+02  0.46013414783E+03  0.46754874224E+03  0.00000000000E+00 0.  1.
         11    1    1    2    0    0 -0.79959847170E+01  0.14345526505E+03 -0.32249547796E+03  0.35305337011E+03  0.00000000000E+00 0. -1.
        -15    1    3    3    0    0  0.22595318253E+02  0.11201234451E+02 -0.62805832662E+02  0.67703370710E+02  0.17770000000E+01 0. -1.
         15    1    3    3    0    0 -0.36195788075E+02 -0.74581624990E+02 -0.74832837203E+02  0.11169451693E+03  0.17770000000E+01 0.  1.
</event>
<event>
 7    1  0.4133533E-006  0.5024810E+03  0.7546771E-02  0.9394275E-01
        -11   -1    0    0    0    0  0.00000000000E+00  0.00000000000E+00  0.50000000000E+03  0.50000000000E+03  0.00000000000E+00 0. -1.
         11   -1    0    0    0    0 -0.00000000000E+00 -0.00000000000E+00 -0.50000000000E+03  0.50000000000E+03  0.00000000000E+00 0. -1.
         23    2    1    2    0    0 -0.58614671577E+02  0.24180599145E+03 -0.42199050079E+03  0.49751898958E+03  0.86852432422E+02 0.  0.
        -11    1    1    2    0    0 -0.14925476254E+02 -0.21893136517E+01  0.62119521525E+02  0.63924939501E+02  0.00000000000E+00 0. -1.
         11    1    1    2    0    0  0.73540147831E+02 -0.23961667780E+03  0.35987097926E+03  0.43855607092E+03  0.00000000000E+00 0. -1.
        -15    1    3    3    0    0 -0.66310636898E+02  0.10310734002E+03 -0.22860500158E+03  0.25940630024E+03  0.17770000000E+01 0. -1.
         15    1    3    3    0    0  0.76959653212E+01  0.13869865143E+03 -0.19338549921E+03  0.23811268934E+03  0.17770000000E+01 0.  1.
</event>
<event>
 7    1  0.4133533E-006  0.4845443E+03  0.7546771E-02  0.9435073E-01
        -11   -1    0    0    0    0  0.00000000000E+00  0.00000000000E+00  0.50000000000E+03  0.50000000000E+03  0.00000000000E+00 0.  1.
         11   -1    0    0    0    0 -0.00000000000E+00 -0.00000000000E+00 -0.50000000000E+03  0.50000000000E+03  0.00000000000E+00 0. -1.
         23    2    1    2    0    0  0.11139108023E+03 -0.41862110782E+01 -0.47224660544E+03  0.49318675481E+03  0.88265631220E+02 0.  0.
        -11    1    1    2    0    0 -0.85871456608E+02  0.29757479435E+02  0.45965778501E+03  0.46855596673E+03  0.00000000000E+00 0.  1.
         11    1    1    2    0    0 -0.25519623620E+02 -0.25571268357E+02  0.12588820433E+02  0.38257278457E+02  0.00000000000E+00 0. -1.
        -15    1    3    3    0    0  0.17659404964E+01 -0.26326350105E+02 -0.52387104404E+02  0.58683572596E+02  0.17770000000E+01 0.  1.
         15    1    3    3    0    0  0.10962513973E+03  0.22140139027E+02 -0.41985950104E+03  0.43450318222E+03  0.17770000000E+01 0. -1.
</event>
<event>
 7    1  0.4133533E-006  0.4847825E+03  0.7546771E-02  0.9434519E-01
        -11   -1    0    0    0    0  0.00000000000E+00  0.00000000000E+00  0.50000000000E+03  0.50000000000E+03  0.00000000000E+00 0.  1.
         11   -1    0    0    0    0 -0.00000000000E+00 -0.00000000000E+00 -0.50000000000E+03  0.50000000000E+03  0.00000000000E+00 0.  1.
         23    2    1    2    0    0  0.10015680617E+03  0.11225130292E+03 -0.43626435305E+03  0.47061232295E+03  0.92291017642E+02 0.  0.
        -11    1    1    2    0    0 -0.84278364143E+02 -0.10871590200E+03  0.47119053865E+03  0.49085895502E+03  0.00000000000E+00 0.  1.
         11    1    1    2    0    0 -0.15878442027E+02 -0.35354009148E+01 -0.34926185597E+02  0.38528722029E+02  0.00000000000E+00 0.  1.
        -15    1    3    3    0    0  0.29141219042E+02 -0.69726960454E+01 -0.35449973392E+02  0.46450914737E+02  0.17770000000E+01 0. -1.
         15    1    3    3    0    0  0.71015587127E+02  0.11922399896E+03 -0.40081437966E+03  0.42416140821E+03  0.17770000000E+01 0.  1.
</event>
<event>
 7    1  0.4133533E-006  0.4461998E+03  0.7546771E-02  0.9528956E-01
        -11   -1    0    0    0    0  0.00000000000E+00  0.00000000000E+00  0.50000000000E+03  0.50000000000E+03  0.00000000000E+00 0. -1.
         11   -1    0    0    0    0 -0.00000000000E+00 -0.00000000000E+00 -0.50000000000E+03  0.50000000000E+03  0.00000000000E+00 0. -1.
         23    2    1    2    0    0 -0.15153995892E+03  0.24643683131E+02 -0.42264926689E+03  0.45843988006E+03  0.89235926384E+02 0.  0.
        -11    1    1    2    0    0  0.54119397149E+02 -0.75315525755E+02  0.42166619325E+03  0.43174496650E+03  0.00000000000E+00 0. -1.
         11    1    1    2    0    0  0.97420561772E+02  0.50671842624E+02  0.98307363636E+00  0.10981515344E+03  0.00000000000E+00 0. -1.
        -15    1    3    3    0    0 -0.12449872705E+03  0.19683184177E+02 -0.40842243017E+03  0.42743350357E+03  0.17770000000E+01 0. -1.
         15    1    3    3    0    0 -0.27041231873E+02  0.49604989536E+01 -0.14226836717E+02  0.31006376490E+02  0.17770000000E+01 0.  1.
</event>
<event>
 7    1  0.4133533E-006  0.4055072E+03  0.7546771E-02  0.9640267E-01
        -11   -1    0    0    0    0  0.00000000000E+00  0.00000000000E+00  0.50000000000E+03  0.50000000000E+03  0.00000000000E+00 0.  1.
         11   -1    0    0    0    0 -0.00000000000E+00 -0.00000000000E+00 -0.50000000000E+03  0.50000000000E+03  0.00000000000E+00 0. -1.
         23    2    1    2    0    0  0.34210667454E+02  0.18209513503E+02  0.14522242330E+03  0.17517527403E+03  0.89971485777E+02 0.  0.
        -11    1    1    2    0    0  0.78754657144E+02 -0.30892003493E+03  0.18663148532E+03  0.36941195881E+03  0.00000000000E+00 0.  1.
         11    1    1    2    0    0 -0.11296532460E+03  0.29071052142E+03 -0.33185390862E+03  0.45541276716E+03  0.00000000000E+00 0. -1.
        -15    1    3    3    0    0  0.44964820942E+02 -0.21069894137E+02  0.45223632174E+02  0.67187128212E+02  0.17770000000E+01 0.  1.
         15    1    3    3    0    0 -0.10754153488E+02  0.39279407641E+02  0.99998791127E+02  0.10798814582E+03  0.17770000000E+01 0. -1.
</event>
<event>
 7    1  0.4133533E-006  0.5108216E+03  0.7546771E-02  0.9375916E-01
        -11   -1    0    0    0    0  0.00000000000E+00  0.00000000000E+00  0.50000000000E+03  0.50000000000E+03  0.00000000000E+00 0. -1.
         11   -1    0    0    0    0 -0.00000000000E+00 -0.00000000000E+00 -0.50000000000E+03  0.50000000000E+03  0.00000000000E+00 0.  1.
         23    2    1    2    0    0  0.52291315704E+02 -0.52968440440E+02 -0.31795405343E+03  0.33915250523E+03  0.91594783292E+02 0.  0.
        -11    1    1    2    0    0 -0.11129593369E+03  0.20690282013E+02  0.47589979995E+03  0.48917838486E+03  0.00000000000E+00 0. -1.
         11    1    1    2    0    0  0.59004617989E+02  0.32278158427E+02 -0.15794574651E+03  0.17166910991E+03  0.00000000000E+00 0.  1.
        -15    1    3    3    0    0  0.72959198842E+02 -0.55668598387E+02 -0.29037621452E+03  0.30453824264E+03  0.17770000000E+01 0.  1.
         15    1    3    3    0    0 -0.20667883138E+02  0.27001579473E+01 -0.27577838913E+02  0.34614262587E+02  0.17770000000E+01 0. -1.
</event>
<event>
 7    1  0.4133533E-006  0.5054852E+03  0.7546771E-02  0.9387619E-01
        -11   -1    0    0    0    0  0.00000000000E+00  0.00000000000E+00  0.50000000000E+03  0.50000000000E+03  0.00000000000E+00 0. -1.
         11   -1    0    0    0    0 -0.00000000000E+00 -0.00000000000E+00 -0.50000000000E+03  0.50000000000E+03  0.00000000000E+00 0.  1.
         23    2    1    2    0    0 -0.24040993039E+02  0.91280605407E+02  0.23911554035E+03  0.26618600086E+03  0.69055247032E+02 0.  0.
        -11    1    1    2    0    0  0.15990016728E+02  0.70474807455E+02  0.22812660033E+03  0.23929923714E+03  0.00000000000E+00 0. -1.
         11    1    1    2    0    0  0.80509763112E+01 -0.16175541286E+03 -0.46724214068E+03  0.49451476200E+03  0.00000000000E+00 0.  1.
        -15    1    3    3    0    0  0.15865552835E+02 -0.11016386365E+01  0.26628932783E+02  0.31067461509E+02  0.17770000000E+01 0.  1.
         15    1    3    3    0    0 -0.39906545874E+02  0.92382244043E+02  0.21248660757E+03  0.23511853935E+03  0.17770000000E+01 0. -1.
</event>
<event>
 7    1  0.4133533E-006  0.3480265E+03  0.7546771E-02  0.9823806E-01
        -11   -1    0    0    0    0  0.00000000000E+00  0.00000000000E+00  0.50000000000E+03  0.50000000000E+03  0.00000000000E+00 0.  1.
         11   -1    0    0    0    0 -0.00000000000E+00 -0.00000000000E+00 -0.50000000000E+03  0.50000000000E+03  0.00000000000E+00 0. -1.
         23    2    1    2    0    0 -0.17216291903E+03  0.52184312302E+02  0.16739325799E+03  0.26184452505E+03  0.90436603981E+02 0.  0.
        -11    1    1    2    0    0  0.13893195910E+03  0.11476799727E+03  0.23796890808E+03  0.29850122892E+03  0.00000000000E+00 0.  1.
         11    1    1    2    0    0  0.33230959929E+02 -0.16695230957E+03 -0.40536216607E+03  0.43965424603E+03  0.00000000000E+00 0. -1.
        -15    1    3    3    0    0 -0.19742063385E+02 -0.99674416134E+01  0.63308666162E+02  0.67083857218E+02  0.17770000000E+01 0. -1.
         15    1    3    3    0    0 -0.15242085564E+03  0.62151753915E+02  0.10408459183E+03  0.19476066784E+03  0.17770000000E+01 0.  1.
</event>
<event>
 7    1  0.4133533E-006  0.5217168E+03  0.7546771E-02  0.9352486E-01
        -11   -1    0    0    0    0  0.00000000000E+00  0.00000000000E+00  0.50000000000E+03  0.50000000000E+03  0.00000000000E+00 0.  1.
         11   -1    0    0    0    0 -0.00000000000E+00 -0.00000000000E+00 -0.50000000000E+03  0.50000000000E+03  0.00000000000E+00 0. -1.
         23    2    1    2    0    0  0.87217517345E+02 -0.10132988121E+03  0.28210006277E+03  0.32555541971E+03  0.92364742905E+02 0.  0.
        -11    1    1    2    0    0  0.98103557494E+01  0.64982114711E+02  0.18482524623E+03  0.19616138753E+03  0.00000000000E+00 0.  1.
         11    1    1    2    0    0 -0.97027873095E+02  0.36347766503E+02 -0.46692530900E+03  0.47828319276E+03  0.00000000000E+00 0. -1.
        -15    1    3    3    0    0  0.59632933546E+02 -0.11092192820E+03  0.18245972400E+03  0.22170807277E+03  0.17770000000E+01 0.  1.
         15    1    3    3    0    0  0.27584583800E+02  0.95920469877E+01  0.99640338766E+02  0.10384734694E+03  0.17770000000E+01 0. -1.
</event>
<event>
 7    1  0.4133533E-006  0.4153648E+03  0.7546771E-02  0.9612061E-01
        -11   -1    0    0    0    0  0.00000000000E+00  0.00000000000E+00  0.50000000000E+03  0.50000000000E+03  0.00000000000E+00 0.  1.
         11   -1    0    0    0    0 -0.00000000000E+00 -0.00000000000E+00 -0.50000000000E+03  0.50000000000E+03  0.00000000000E+00 0. -1.
         23    2    1    2    0    0  0.16295724613E+03 -0.84976264811E+02 -0.31825767899E+03  0.37883922790E+03  0.91952056601E+02 0.  0.
        -11    1    1    2    0    0 -0.13973504847E+03 -0.27026016545E+02  0.43501787968E+03  0.45770825313E+03  0.00000000000E+00 0.  1.
         11    1    1    2    0    0 -0.23222197653E+02  0.11200228136E+03 -0.11676020069E+03  0.16345251897E+03  0.00000000000E+00 0. -1.
        -15    1    3    3    0    0  0.84778119124E+02 -0.65049985853E+01 -0.83158311111E+02  0.11894581508E+03  0.17770000000E+01 0.  1.
         15    1    3    3    0    0  0.78179127003E+02 -0.78471266226E+02 -0.23509936788E+03  0.25989341282E+03  0.17770000000E+01 0. -1.
</event>
<event>
 7    1  0.4361969E-006  0.5166433E+03  0.7546771E-02  0.9363320E-01
        -11   -1    0    0    0    0  0.00000000000E+00  0.00000000000E+00  0.50000000000E+03  0.50000000000E+03  0.00000000000E+00 0. -1.
         11   -1    0    0    0    0 -0.00000000000E+00 -0.00000000000E+00 -0.50000000000E+03  0.50000000000E+03  0.00000000000E+00 0.  1.
         23    2    1    2    0    0 -0.57206875111E+02 -0.67712000966E+02  0.87441862034E+02  0.15525585999E+03  0.92740288922E+02 0.  0.
        -11    1    1    2    0    0 -0.19441108782E+03 -0.24033210029E+03  0.18720500633E+03  0.36138747058E+03  0.00000000000E+00 0. -1.
         11    1    1    2    0    0  0.25161796293E+03  0.30804410125E+03 -0.27464686837E+03  0.48335666944E+03  0.00000000000E+00 0.  1.
        -15    1    3    3    0    0  0.34678433936E+01 -0.63913994488E+02  0.26941816738E+02  0.69469733319E+02  0.17770000000E+01 0. -1.
         15    1    3    3    0    0 -0.60674718504E+02 -0.37980064773E+01  0.60500045296E+02  0.85786126667E+02  0.17770000000E+01 0.  1.
</event>
<event>
 7    1  0.4133533E-006  0.5139743E+03  0.7546771E-02  0.9369073E-01
        -11   -1    0    0    0    0  0.00000000000E+00  0.00000000000E+00  0.50000000000E+03  0.50000000000E+03  0.00000000000E+00 0.  1.
         11   -1    0    0    0    0 -0.00000000000E+00 -0.00000000000E+00 -0.50000000000E+03  0.50000000000E+03  0.00000000000E+00 0. -1.
         23    2    1    2    0    0 -0.72987417509E+02 -0.20589305394E+02 -0.26415651782E+03  0.28992846537E+03  0.92351321130E+02 0.  0.
        -11    1    1    2    0    0  0.22072500692E+03  0.19265100571E+02  0.43258564710E+03  0.48602573477E+03  0.00000000000E+00 0.  1.
         11    1    1    2    0    0 -0.14773758941E+03  0.13242048231E+01 -0.16842912928E+03  0.22404579986E+03  0.00000000000E+00 0. -1.
        -15    1    3    3    0    0 -0.35815213121E+02  0.34962042368E+02 -0.84424677037E+02  0.98161895455E+02  0.17770000000E+01 0.  1.
         15    1    3    3    0    0 -0.37172204388E+02 -0.55551347762E+02 -0.17973184078E+03  0.19176656992E+03  0.17770000000E+01 0. -1.
</event>
<event>
 7    1  0.4133533E-006  0.5120256E+03  0.7546771E-02  0.9373296E-01
        -11   -1    0    0    0    0  0.00000000000E+00  0.00000000000E+00  0.50000000000E+03  0.50000000000E+03  0.00000000000E+00 0. -1.
         11   -1    0    0    0    0 -0.00000000000E+00 -0.00000000000E+00 -0.50000000000E+03  0.50000000000E+03  0.00000000000E+00 0.  1.
         23    2    1    2    0    0  0.23061810163E+01 -0.26240275919E+02 -0.35052669392E+03  0.36299655992E+03  0.90574106735E+02 0.  0.
        -11    1    1    2    0    0 -0.44248510516E+02  0.93031434039E+02  0.47697609244E+03  0.48797435502E+03  0.00000000000E+00 0. -1.
         11    1    1    2    0    0  0.41942329500E+02 -0.66791158120E+02 -0.12644939852E+03  0.14902908505E+03  0.00000000000E+00 0.  1.
        -15    1    3    3    0    0  0.22340042412E+02 -0.51536385643E+02 -0.27757910090E+03  0.28321086053E+03  0.17770000000E+01 0.  1.
         15    1    3    3    0    0 -0.20033861396E+02  0.25296109724E+02 -0.72947593024E+02  0.79785699387E+02  0.17770000000E+01 0. -1.
</event>
<event>
 7    1  0.4133533E-006  0.4669225E+03  0.7546771E-02  0.9477025E-01
        -11   -1    0    0    0    0  0.00000000000E+00  0.00000000000E+00  0.50000000000E+03  0.50000000000E+03  0.00000000000E+00 0.  1.
         11   -1    0    0    0    0 -0.00000000000E+00 -0.00000000000E+00 -0.50000000000E+03  0.50000000000E+03  0.00000000000E+00 0. -1.
         23    2    1    2    0    0  0.22457980013E+03 -0.81558197987E+02  0.36276110569E+03  0.44334202302E+03  0.88705711709E+02 0.  0.
        -11    1    1    2    0    0 -0.11378648480E+02  0.19619987927E+02  0.68199103400E+02  0.71871658337E+02  0.00000000000E+00 0.  1.
         11    1    1    2    0    0 -0.21320115165E+03  0.61938210060E+02 -0.43096020909E+03  0.48478631865E+03  0.00000000000E+00 0. -1.
        -15    1    3    3    0    0  0.91400907141E+02 -0.73121939830E+02  0.21057884523E+03  0.24093059519E+03  0.17770000000E+01 0. -1.
         15    1    3    3    0    0  0.13317889299E+03 -0.84362581569E+01  0.15218226046E+03  0.20241142783E+03  0.17770000000E+01 0.  1.
</event>
<event>
 6    1  0.4133533E-006  0.4709399E+03  0.7546771E-02  0.9467290E-01
        -11   -1    0    0    0    0  0.00000000000E+00  0.00000000000E+00  0.50000000000E+03  0.50000000000E+03  0.00000000000E+00 0.  1.
         11   -1    0    0    0    0 -0.00000000000E+00 -0.00000000000E+00 -0.50000000000E+03  0.50000000000E+03  0.00000000000E+00 0. -1.
        -11    1    1    2    0    0  0.42424764552E+02 -0.76521953818E+02  0.43890663013E+03  0.44754273542E+03  0.00000000000E+00 0.  1.
         11    1    1    2    0    0  0.68514020659E+02 -0.28026275079E+02 -0.54886299375E+01  0.74227812714E+02  0.00000000000E+00 0. -1.
        -15    1    1    2    0    0 -0.47504842943E+02 -0.17544210528E+02 -0.51364224810E+02  0.72152274708E+02  0.17770000000E+01 0.  1.
         15    1    1    2    0    0 -0.63433942268E+02  0.12209243942E+03 -0.38205377538E+03  0.40607717715E+03  0.17770000000E+01 0. -1.
</event>
<event>
 7    1  0.4133533E-006  0.5227497E+03  0.7546771E-02  0.9350297E-01
        -11   -1    0    0    0    0  0.00000000000E+00  0.00000000000E+00  0.50000000000E+03  0.50000000000E+03  0.00000000000E+00 0.  1.
         11   -1    0    0    0    0 -0.00000000000E+00 -0.00000000000E+00 -0.50000000000E+03  0.50000000000E+03  0.00000000000E+00 0. -1.
         23    2    1    2    0    0 -0.96139667971E+02 -0.79178665722E+02  0.13961501677E+03  0.20929292436E+03  0.93803403008E+02 0.  0.
        -11    1    1    2    0    0 -0.99675703160E+02  0.42790099861E+02  0.29408999721E+03  0.31345679911E+03  0.00000000000E+00 0.  1.
         11    1    1    2    0    0  0.19581537113E+03  0.36388565860E+02 -0.43370501398E+03  0.47725027653E+03  0.00000000000E+00 0. -1.
        -15    1    3    3    0    0 -0.45699787269E+02 -0.27115590576E+02  0.13709119343E+01  0.53186116020E+02  0.17770000000E+01 0. -1.
         15    1    3    3    0    0 -0.50439880702E+02 -0.52063075146E+02  0.13824410484E+03  0.15610680834E+03  0.17770000000E+01 0.  1.
</event>
<event>
 7    1  0.4133533E-006  0.5115030E+03  0.7546771E-02  0.9374433E-01
        -11   -1    0    0    0    0  0.00000000000E+00  0.00000000000E+00  0.50000000000E+03  0.50000000000E+03  0.00000000000E+00 0.  1.
         11   -1    0    0    0    0 -0.00000000000E+00 -0.00000000000E+00 -0.50000000000E+03  0.50000000000E+03  0.00000000000E+00 0. -1.
         23    2    1    2    0    0  0.25471080438E+02 -0.32239934072E+02 -0.31227484926E+03  0.32783647971E+03  0.90955960038E+02 0.  0.
        -11    1    1    2    0    0 -0.81405192842E+02  0.11018113915E+03  0.46889515576E+03  0.48849703780E+03  0.00000000000E+00 0.  1.
         11    1    1    2    0    0  0.55934112404E+02 -0.77941205080E+02 -0.15662030650E+03  0.18366648249E+03  0.00000000000E+00 0. -1.
        -15    1    3    3    0    0  0.42297097803E+02  0.80409949349E+01 -0.74360755932E+02  0.85944062238E+02  0.17770000000E+01 0. -1.
         15    1    3    3    0    0 -0.16826017365E+02 -0.40280929007E+02 -0.23791409332E+03  0.24189241748E+03  0.17770000000E+01 0.  1.
</event>
<event>
 7    1  0.4133533E-006  0.3924591E+03  0.7546771E-02  0.9678948E-01
        -11   -1    0    0    0    0  0.00000000000E+00  0.00000000000E+00  0.50000000000E+03  0.50000000000E+03  0.00000000000E+00 0. -1.
         11   -1    0    0    0    0 -0.00000000000E+00 -0.00000000000E+00 -0.50000000000E+03  0.50000000000E+03  0.00000000000E+00 0. -1.
         23    2    1    2    0    0 -0.31440718242E+01  0.64266545587E+01 -0.17300445301E+03  0.19620998498E+03  0.92285591337E+02 0.  0.
        -11    1    1    2    0    0  0.22372420746E+03  0.26451120660E+03  0.27222808265E+03  0.44059826191E+03  0.00000000000E+00 0. -1.
         11    1    1    2    0    0 -0.22058013563E+03 -0.27093786116E+03 -0.99223629641E+02  0.36319175311E+03  0.00000000000E+00 0. -1.
        -15    1    3    3    0    0 -0.35733330449E+02  0.22529332355E+02 -0.14276028586E+03  0.14888955191E+03  0.17770000000E+01 0.  1.
         15    1    3    3    0    0  0.32589258625E+02 -0.16102677796E+02 -0.30244167146E+02  0.47320433063E+02  0.17770000000E+01 0. -1.
</event>
<event>
 7    1  0.4133533E-006  0.5137607E+03  0.7546771E-02  0.9369535E-01
        -11   -1    0    0    0    0  0.00000000000E+00  0.00000000000E+00  0.50000000000E+03  0.50000000000E+03  0.00000000000E+00 0. -1.
         11   -1    0    0    0    0 -0.00000000000E+00 -0.00000000000E+00 -0.50000000000E+03  0.50000000000E+03  0.00000000000E+00 0.  1.
         23    2    1    2    0    0 -0.24376474041E+02 -0.82678782420E+02  0.16278987047E+03  0.20483698056E+03  0.89597171431E+02 0.  0.
        -11    1    1    2    0    0 -0.90954153445E+02 -0.46671545403E+02  0.29151839155E+03  0.30892371840E+03  0.00000000000E+00 0. -1.
         11    1    1    2    0    0  0.11533062749E+03  0.12935032782E+03 -0.45430826201E+03  0.48623930104E+03  0.00000000000E+00 0.  1.
        -15    1    3    3    0    0 -0.32984184967E+02 -0.70532618000E+00  0.16535377038E+02  0.36946317350E+02  0.17770000000E+01 0.  1.
         15    1    3    3    0    0  0.86077109256E+01 -0.81973456240E+02  0.14625449343E+03  0.16789066321E+03  0.17770000000E+01 0. -1.
</event>
<event>
 7    1  0.4133533E-006  0.5113406E+03  0.7546771E-02  0.9374786E-01
        -11   -1    0    0    0    0  0.00000000000E+00  0.00000000000E+00  0.50000000000E+03  0.50000000000E+03  0.00000000000E+00 0.  1.
         11   -1    0    0    0    0 -0.00000000000E+00 -0.00000000000E+00 -0.50000000000E+03  0.50000000000E+03  0.00000000000E+00 0. -1.
         23    2    1    2    0    0 -0.68450001640E+01  0.12417995858E+03 -0.24266430990E+03  0.28894446139E+03  0.95579382357E+02 0.  0.
        -11    1    1    2    0    0  0.55140899356E+02 -0.26976282477E+03  0.40370219269E+03  0.48865935046E+03  0.00000000000E+00 0.  1.
         11    1    1    2    0    0 -0.48295899192E+02  0.14558286619E+03 -0.16103788279E+03  0.22239618814E+03  0.00000000000E+00 0. -1.
        -15    1    3    3    0    0 -0.46450453140E+02  0.49714019046E+02 -0.75168696907E+02  0.10140324951E+03  0.17770000000E+01 0.  1.
         15    1    3    3    0    0  0.39605452976E+02  0.74465939531E+02 -0.16749561299E+03  0.18754121189E+03  0.17770000000E+01 0. -1.
</event>
<event>
 7    1  0.4133533E-006  0.5160564E+03  0.7546771E-02  0.9364582E-01
        -11   -1    0    0    0    0  0.00000000000E+00  0.00000000000E+00  0.50000000000E+03  0.50000000000E+03  0.00000000000E+00 0. -1.
         11   -1    0    0    0    0 -0.00000000000E+00 -0.00000000000E+00 -0.50000000000E+03  0.50000000000E+03  0.00000000000E+00 0.  1.
         23    2    1    2    0    0 -0.63521984656E+02  0.62419576305E+02 -0.37048072345E+03  0.39135314589E+03  0.89275261442E+02 0.  0.
        -11    1    1    2    0    0  0.15735930946E+03 -0.69992008911E+02  0.45226162419E+03  0.48394360240E+03  0.00000000000E+00 0. -1.
         11    1    1    2    0    0 -0.93837324806E+02  0.75724326059E+01 -0.81780900741E+02  0.12470325172E+03  0.00000000000E+00 0.  1.
        -15    1    3    3    0    0 -0.73391492661E+02  0.32942921658E+02 -0.33321146037E+03  0.34278941398E+03  0.17770000000E+01 0.  1.
         15    1    3    3    0    0  0.98695080050E+01  0.29476654647E+02 -0.37269263076E+02  0.48563731907E+02  0.17770000000E+01 0. -1.
</event>
<event>
 7    1  0.4133533E-006  0.5301603E+03  0.7546771E-02  0.9334743E-01
        -11   -1    0    0    0    0  0.00000000000E+00  0.00000000000E+00  0.50000000000E+03  0.50000000000E+03  0.00000000000E+00 0.  1.
         11   -1    0    0    0    0 -0.00000000000E+00 -0.00000000000E+00 -0.50000000000E+03  0.50000000000E+03  0.00000000000E+00 0.  1.
         23    2    1    2    0    0  0.88478279886E+01  0.34184369185E+02 -0.91552365263E+02  0.13276795353E+03  0.89435109114E+02 0.  0.
        -11    1    1    2    0    0  0.11484659382E+03  0.10054105546E+03  0.44435465875E+03  0.46983966063E+03  0.00000000000E+00 0.  1.
         11    1    1    2    0    0 -0.12369442181E+03 -0.13472542464E+03 -0.35280229349E+03  0.39739238584E+03  0.00000000000E+00 0.  1.
        -15    1    3    3    0    0 -0.21492534004E+02  0.22759829466E+02  0.42240804285E+01  0.31637626960E+02  0.17770000000E+01 0.  1.
         15    1    3    3    0    0  0.30340361992E+02  0.11424539720E+02 -0.95776445692E+02  0.10113032657E+03  0.17770000000E+01 0. -1.
</event>
<event>
 7    1  0.4133533E-006  0.5175668E+03  0.7546771E-02  0.9361338E-01
        -11   -1    0    0    0    0  0.00000000000E+00  0.00000000000E+00  0.50000000000E+03  0.50000000000E+03  0.00000000000E+00 0. -1.
         11   -1    0    0    0    0 -0.00000000000E+00 -0.00000000000E+00 -0.50000000000E+03  0.50000000000E+03  0.00000000000E+00 0. -1.
         23    2    1    2    0    0 -0.68224925110E+02  0.71984851003E+02 -0.46375135478E+03  0.48243322915E+03  0.88544013644E+02 0.  0.
        -11    1    1    2    0    0  0.12089541900E+03  0.10673980204E+02  0.33103053376E+03  0.35257743897E+03  0.00000000000E+00 0. -1.
         11    1    1    2    0    0 -0.52670493886E+02 -0.82658831207E+02  0.13272082102E+03  0.16498933188E+03  0.00000000000E+00 0. -1.
        -15    1    3    3    0    0 -0.88561101455E+02  0.46219476693E+02 -0.35913714714E+03  0.37277601438E+03  0.17770000000E+01 0. -1.
         15    1    3    3    0    0  0.20336176345E+02  0.25765374310E+02 -0.10461420764E+03  0.10965721477E+03  0.17770000000E+01 0.  1.
</event>
<event>
 7    1  0.4133533E-006  0.5162121E+03  0.7546771E-02  0.9364247E-01
        -11   -1    0    0    0    0  0.00000000000E+00  0.00000000000E+00  0.50000000000E+03  0.50000000000E+03  0.00000000000E+00 0. -1.
         11   -1    0    0    0    0 -0.00000000000E+00 -0.00000000000E+00 -0.50000000000E+03  0.50000000000E+03  0.00000000000E+00 0. -1.
         23    2    1    2    0    0  0.11404897740E+02 -0.17614929609E+02 -0.24785732707E+03  0.26476911105E+03  0.90714222420E+02 0.  0.
        -11    1    1    2    0    0  0.34537036949E+02 -0.76501871721E+02  0.47645077866E+03  0.48378785411E+03  0.00000000000E+00 0. -1.
         11    1    1    2    0    0 -0.45941934689E+02  0.94116801331E+02 -0.22859345159E+03  0.25144303484E+03  0.00000000000E+00 0. -1.
        -15    1    3    3    0    0  0.44483133868E+02 -0.33887100198E+02 -0.13963107466E+03  0.15042300189E+03  0.17770000000E+01 0.  1.
         15    1    3    3    0    0 -0.33078236128E+02  0.16272170589E+02 -0.10822625241E+03  0.11434610916E+03  0.17770000000E+01 0. -1.
</event>
<event>
 7    1  0.4133533E-006  0.5144190E+03  0.7546771E-02  0.9368112E-01
        -11   -1    0    0    0    0  0.00000000000E+00  0.00000000000E+00  0.50000000000E+03  0.50000000000E+03  0.00000000000E+00 0.  1.
         11   -1    0    0    0    0 -0.00000000000E+00 -0.00000000000E+00 -0.50000000000E+03  0.50000000000E+03  0.00000000000E+00 0. -1.
         23    2    1    2    0    0 -0.50116848296E+02 -0.17037327945E+02 -0.35093873355E+03  0.36640293661E+03  0.91055742391E+02 0.  0.
        -11    1    1    2    0    0  0.55591963319E+02 -0.56960110579E+02  0.47901355076E+03  0.48558099468E+03  0.00000000000E+00 0.  1.
         11    1    1    2    0    0 -0.54751150225E+01  0.73997438524E+02 -0.12807481721E+03  0.14801606871E+03  0.00000000000E+00 0. -1.
        -15    1    3    3    0    0 -0.74981740657E+02 -0.12447226332E+01 -0.27103891797E+03  0.28122777877E+03  0.17770000000E+01 0. -1.
         15    1    3    3    0    0  0.24864892361E+02 -0.15792605311E+02 -0.79899815583E+02  0.85175157845E+02  0.17770000000E+01 0.  1.
</event>
<event>
 7    1  0.4133533E-006  0.4832219E+03  0.7546771E-02  0.9438155E-01
        -11   -1    0    0    0    0  0.00000000000E+00  0.00000000000E+00  0.50000000000E+03  0.50000000000E+03  0.00000000000E+00 0. -1.
         11   -1    0    0    0    0 -0.00000000000E+00 -0.00000000000E+00 -0.50000000000E+03  0.50000000000E+03  0.00000000000E+00 0.  1.
         23    2    1    2    0    0 -0.50008308268E+02  0.10580194076E+03 -0.47131638665E+03  0.49375729938E+03  0.89231456363E+02 0.  0.
        -11    1    1    2    0    0  0.79090051454E+02 -0.11481509104E+03  0.44387197696E+03  0.46525269833E+03  0.00000000000E+00 0. -1.
         11    1    1    2    0    0 -0.29081743186E+02  0.90131502846E+01  0.27444409690E+02  0.40990002294E+02  0.00000000000E+00 0.  1.
        -15    1    3    3    0    0  0.79444462661E+01  0.20618699513E+02 -0.17092380296E+02  0.27992002238E+02  0.17770000000E+01 0. -1.
         15    1    3    3    0    0 -0.57952754534E+02  0.85183241245E+02 -0.45422400635E+03  0.46576529714E+03  0.17770000000E+01 0.  1.
</event>
<event>
 7    1  0.4133533E-006  0.5024089E+03  0.7546771E-02  0.9394436E-01
        -11   -1    0    0    0    0  0.00000000000E+00  0.00000000000E+00  0.50000000000E+03  0.50000000000E+03  0.00000000000E+00 0. -1.
         11   -1    0    0    0    0 -0.00000000000E+00 -0.00000000000E+00 -0.50000000000E+03  0.50000000000E+03  0.00000000000E+00 0.  1.
         23    2    1    2    0    0  0.16171675168E+03 -0.53752523452E+02 -0.46354160927E+03  0.50240893994E+03  0.92207797152E+02 0.  0.
        -11    1    1    2    0    0 -0.72583422656E+02  0.20670058568E+02  0.29058622257E+03  0.30022651001E+03  0.00000000000E+00 0. -1.
         11    1    1    2    0    0 -0.89133329021E+02  0.33082464884E+02  0.17295538671E+03  0.19736455005E+03  0.00000000000E+00 0.  1.
        -15    1    3    3    0    0  0.14074496055E+03 -0.28086084596E+02 -0.43682123074E+03  0.45979769184E+03  0.17770000000E+01 0.  1.
         15    1    3    3    0    0  0.20971791129E+02 -0.25666438856E+02 -0.26720378530E+02  0.42611248099E+02  0.17770000000E+01 0. -1.
</event>
<event>
 7    1  0.4133533E-006  0.5352091E+03  0.7546771E-02  0.9324300E-01
        -11   -1    0    0    0    0  0.00000000000E+00  0.00000000000E+00  0.50000000000E+03  0.50000000000E+03  0.00000000000E+00 0.  1.
         11   -1    0    0    0    0 -0.00000000000E+00 -0.00000000000E+00 -0.50000000000E+03  0.50000000000E+03  0.00000000000E+00 0. -1.
         23    2    1    2    0    0 -0.13891255735E+03  0.12026261059E+03  0.13924120184E+03  0.24855232094E+03  0.92899676326E+02 0.  0.
        -11    1    1    2    0    0 -0.12357749960E+03 -0.88553220386E+02  0.24302061407E+03  0.28665674614E+03  0.00000000000E+00 0.  1.
         11    1    1    2    0    0  0.26249005694E+03 -0.31709390199E+02 -0.38226181591E+03  0.46479093292E+03  0.00000000000E+00 0. -1.
        -15    1    3    3    0    0 -0.40011337844E+02  0.69612732146E+02  0.10514601216E+03  0.13230903686E+03  0.17770000000E+01 0.  1.
         15    1    3    3    0    0 -0.98901219502E+02  0.50649878440E+02  0.34095189680E+02  0.11624328408E+03  0.17770000000E+01 0. -1.
</event>
<event>
 7    1  0.4133533E-006  0.5208397E+03  0.7546771E-02  0.9354350E-01
        -11   -1    0    0    0    0  0.00000000000E+00  0.00000000000E+00  0.50000000000E+03  0.50000000000E+03  0.00000000000E+00 0.  1.
         11   -1    0    0    0    0 -0.00000000000E+00 -0.00000000000E+00 -0.50000000000E+03  0.50000000000E+03  0.00000000000E+00 0. -1.
         23    2    1    2    0    0  0.12203059757E+03  0.21085214067E+02 -0.36931411858E+03  0.40050828784E+03  0.93155340447E+02 0.  0.
        -11    1    1    2    0    0 -0.68473266483E+02 -0.57442555054E+02  0.47075083418E+03  0.47916028971E+03  0.00000000000E+00 0.  1.
         11    1    1    2    0    0 -0.53557331090E+02  0.36357340987E+02 -0.10143671560E+03  0.12033142245E+03  0.00000000000E+00 0. -1.
        -15    1    3    3    0    0 -0.94830342539E+01 -0.40293069761E+01 -0.36106365894E+01  0.11061540532E+02  0.17770000000E+01 0.  1.
         15    1    3    3    0    0  0.13151363183E+03  0.25114521043E+02 -0.36570348199E+03  0.38944674731E+03  0.17770000000E+01 0. -1.
</event>
<event>
 6    1  0.4133533E-006  0.3249363E+03  0.7546771E-02  0.9908572E-01
        -11   -1    0    0    0    0  0.00000000000E+00  0.00000000000E+00  0.50000000000E+03  0.50000000000E+03  0.00000000000E+00 0.  1.
         11   -1    0    0    0    0 -0.00000000000E+00 -0.00000000000E+00 -0.50000000000E+03  0.50000000000E+03  0.00000000000E+00 0. -1.
        -11    1    1    2    0    0 -0.13569656268E+02  0.97840919756E+02  0.33510893965E+03  0.34936368240E+03  0.00000000000E+00 0.  1.
         11    1    1    2    0    0 -0.20267499021E+03  0.46223823168E+02 -0.28450236589E+03  0.35235690668E+03  0.00000000000E+00 0. -1.
        -15    1    1    2    0    0  0.19170731253E+03 -0.12621789799E+03  0.10773535166E+02  0.22978659282E+03  0.17770000000E+01 0.  1.
         15    1    1    2    0    0  0.24537333940E+02 -0.17846844938E+02 -0.61380108920E+02  0.68492818099E+02  0.17770000000E+01 0. -1.
</event>
<event>
 7    1  0.4133533E-006  0.5202817E+03  0.7546771E-02  0.9355537E-01
        -11   -1    0    0    0    0  0.00000000000E+00  0.00000000000E+00  0.50000000000E+03  0.50000000000E+03  0.00000000000E+00 0.  1.
         11   -1    0    0    0    0 -0.00000000000E+00 -0.00000000000E+00 -0.50000000000E+03  0.50000000000E+03  0.00000000000E+00 0.  1.
         23    2    1    2    0    0 -0.68670959995E+01 -0.14452545614E+02 -0.32751937218E+03  0.34058091979E+03  0.92034725464E+02 0.  0.
        -11    1    1    2    0    0  0.70541267224E+02 -0.77579182588E+02  0.46811859582E+03  0.47971827118E+03  0.00000000000E+00 0.  1.
         11    1    1    2    0    0 -0.63674171224E+02  0.92031728202E+02 -0.14059922364E+03  0.17970080903E+03  0.00000000000E+00 0.  1.
        -15    1    3    3    0    0 -0.43282251596E+02  0.95268864587E+01 -0.22212210239E+03  0.22650717642E+03  0.17770000000E+01 0.  1.
         15    1    3    3    0    0  0.36415155597E+02 -0.23979432073E+02 -0.10539726979E+03  0.11407374337E+03  0.17770000000E+01 0. -1.
</event>
<event>
 7    1  0.4133533E-006  0.5077354E+03  0.7546771E-02  0.9382666E-01
        -11   -1    0    0    0    0  0.00000000000E+00  0.00000000000E+00  0.50000000000E+03  0.50000000000E+03  0.00000000000E+00 0.  1.
         11   -1    0    0    0    0 -0.00000000000E+00 -0.00000000000E+00 -0.50000000000E+03  0.50000000000E+03  0.00000000000E+00 0.  1.
         23    2    1    2    0    0  0.62911093181E+00  0.79524646215E+02 -0.31011356164E+03  0.33345118997E+03  0.93245428013E+02 0.  0.
        -11    1    1    2    0    0  0.31140865497E+02 -0.13272528926E+03  0.47301026402E+03  0.49226462983E+03  0.00000000000E+00 0.  1.
         11    1    1    2    0    0 -0.31769976428E+02  0.53200643042E+02 -0.16289670238E+03  0.17428418020E+03  0.00000000000E+00 0.  1.
        -15    1    3    3    0    0 -0.49364875671E+01  0.98784228819E+01  0.38294337598E+01  0.11822624076E+02  0.17770000000E+01 0. -1.
         15    1    3    3    0    0  0.55655984989E+01  0.69646223333E+02 -0.31394299540E+03  0.32162856589E+03  0.17770000000E+01 0.  1.
</event>
<event>
 7    1  0.4133533E-006  0.5058940E+03  0.7546771E-02  0.9386717E-01
        -11   -1    0    0    0    0  0.00000000000E+00  0.00000000000E+00  0.50000000000E+03  0.50000000000E+03  0.00000000000E+00 0. -1.
         11   -1    0    0    0    0 -0.00000000000E+00 -0.00000000000E+00 -0.50000000000E+03  0.50000000000E+03  0.00000000000E+00 0.  1.
         23    2    1    2    0    0 -0.83478602895E+02  0.14171339249E+03 -0.45721791559E+03  0.49410603489E+03  0.89672674871E+02 0.  0.
        -11    1    1    2    0    0  0.34598221553E+02 -0.11013667393E+03  0.42281694073E+03  0.43829361078E+03  0.00000000000E+00 0. -1.
         11    1    1    2    0    0  0.48880381341E+02 -0.31576718560E+02  0.34400974864E+02  0.67600354338E+02  0.00000000000E+00 0.  1.
        -15    1    3    3    0    0 -0.72351099735E+02  0.15319330914E+03 -0.39421958717E+03  0.42908636920E+03  0.17770000000E+01 0.  1.
         15    1    3    3    0    0 -0.11127503159E+02 -0.11479916643E+02 -0.62998328421E+02  0.65019665683E+02  0.17770000000E+01 0. -1.
</event>
<event>
 7    1  0.4133533E-006  0.3846708E+03  0.7546771E-02  0.9702810E-01
        -11   -1    0    0    0    0  0.00000000000E+00  0.00000000000E+00  0.50000000000E+03  0.50000000000E+03  0.00000000000E+00 0.  1.
         11   -1    0    0    0    0 -0.00000000000E+00 -0.00000000000E+00 -0.50000000000E+03  0.50000000000E+03  0.00000000000E+00 0. -1.
         23    2    1    2    0    0  0.15811215414E+03  0.19605324104E+03 -0.38171452301E+03  0.46634178063E+03  0.91281721501E+02 0.  0.
        -11    1    1    2    0    0  0.21662879052E+01 -0.75112874360E+02  0.31229545867E+03  0.32120879534E+03  0.00000000000E+00 0.  1.
         11    1    1    2    0    0 -0.16027844205E+03 -0.12094036668E+03  0.69419064339E+02  0.21244942403E+03  0.00000000000E+00 0. -1.
        -15    1    3    3    0    0  0.32666841805E+02  0.11019144246E+03 -0.14535431153E+03  0.18531138701E+03  0.17770000000E+01 0. -1.
         15    1    3    3    0    0  0.12544531234E+03  0.85861798572E+02 -0.23636021148E+03  0.28103039362E+03  0.17770000000E+01 0.  1.
</event>
<event>
 7    1  0.4133533E-006  0.4408071E+03  0.7546771E-02  0.9542964E-01
        -11   -1    0    0    0    0  0.00000000000E+00  0.00000000000E+00  0.50000000000E+03  0.50000000000E+03  0.00000000000E+00 0.  1.
         11   -1    0    0    0    0 -0.00000000000E+00 -0.00000000000E+00 -0.50000000000E+03  0.50000000000E+03  0.00000000000E+00 0. -1.
         23    2    1    2    0    0 -0.70067529095E+02 -0.18639010191E+03 -0.39115978504E+03  0.44827599386E+03  0.91075026837E+02 0.  0.
        -11    1    1    2    0    0 -0.45185568770E+02  0.15539095404E+03  0.40055092230E+03  0.43200593234E+03  0.00000000000E+00 0.  1.
         11    1    1    2    0    0  0.11525309786E+03  0.30999147872E+02 -0.93911372623E+01  0.11971807380E+03  0.00000000000E+00 0. -1.
        -15    1    3    3    0    0 -0.81199196574E+02 -0.10315994550E+03 -0.27707162777E+03  0.30660581945E+03  0.17770000000E+01 0. -1.
         15    1    3    3    0    0  0.11131667479E+02 -0.83230156412E+02 -0.11408815727E+03  0.14167017440E+03  0.17770000000E+01 0.  1.
</event>
<event>
 7    1  0.4133533E-006  0.3871566E+03  0.7546771E-02  0.9695129E-01
        -11   -1    0    0    0    0  0.00000000000E+00  0.00000000000E+00  0.50000000000E+03  0.50000000000E+03  0.00000000000E+00 0.  1.
         11   -1    0    0    0    0 -0.00000000000E+00 -0.00000000000E+00 -0.50000000000E+03  0.50000000000E+03  0.00000000000E+00 0. -1.
         23    2    1    2    0    0  0.50969959909E+02  0.94453610763E+02 -0.30956064273E+03  0.34021979384E+03  0.91664034358E+02 0.  0.
        -11    1    1    2    0    0 -0.24211963986E+03 -0.45978019539E+02  0.37782701504E+03  0.45109771844E+03  0.00000000000E+00 0.  1.
         11    1    1    2    0    0  0.19114967995E+03 -0.48475591224E+02 -0.68266372308E+02  0.20868248771E+03  0.00000000000E+00 0. -1.
        -15    1    3    3    0    0 -0.92642165651E+01  0.16332003272E+02 -0.42091870200E+01  0.19324466973E+02  0.17770000000E+01 0.  1.
         15    1    3    3    0    0  0.60234176474E+02  0.78121607491E+02 -0.30535145571E+03  0.32089532687E+03  0.17770000000E+01 0. -1.
</event>
<event>
 7    1  0.4133533E-006  0.3850683E+03  0.7546771E-02  0.9701578E-01
        -11   -1    0    0    0    0  0.00000000000E+00  0.00000000000E+00  0.50000000000E+03  0.50000000000E+03  0.00000000000E+00 0.  1.
         11   -1    0    0    0    0 -0.00000000000E+00 -0.00000000000E+00 -0.50000000000E+03  0.50000000000E+03  0.00000000000E+00 0. -1.
         23    2    1    2    0    0  0.86844156215E+02 -0.14137913625E+02 -0.30742542987E+03  0.33242728863E+03  0.90860988461E+02 0.  0.
        -11    1    1    2    0    0 -0.22498779751E+02 -0.14487363890E+03  0.43159122668E+03  0.45581306836E+03  0.00000000000E+00 0.  1.
         11    1    1    2    0    0 -0.64345376465E+02  0.15901155253E+03 -0.12416579681E+03  0.21175964301E+03  0.00000000000E+00 0. -1.
        -15    1    3    3    0    0 -0.15735795300E+02 -0.53149435169E+01 -0.15181044187E+02  0.22571790136E+02  0.17770000000E+01 0. -1.
         15    1    3    3    0    0  0.10257995152E+03 -0.88229701079E+01 -0.29224438568E+03  0.30985549849E+03  0.17770000000E+01 0.  1.
</event>
<event>
 7    1  0.4133533E-006  0.3216063E+03  0.7546771E-02  0.9921420E-01
        -11   -1    0    0    0    0  0.00000000000E+00  0.00000000000E+00  0.50000000000E+03  0.50000000000E+03  0.00000000000E+00 0.  1.
         11   -1    0    0    0    0 -0.00000000000E+00 -0.00000000000E+00 -0.50000000000E+03  0.50000000000E+03  0.00000000000E+00 0.  1.
         23    2    1    2    0    0  0.18013838567E+03  0.93472535354E+02 -0.21778185501E+03  0.30562333272E+03  0.69207891726E+02 0.  0.
        -11    1    1    2    0    0 -0.30617315902E+02  0.10623303377E+03  0.38069116475E+03  0.39641977804E+03  0.00000000000E+00 0.  1.
         11    1    1    2    0    0 -0.14952106977E+03 -0.19970556912E+03 -0.16290930975E+03  0.29795688924E+03  0.00000000000E+00 0.  1.
        -15    1    3    3    0    0  0.17731211137E+03  0.77609285525E+02 -0.21479173822E+03  0.28913912668E+03  0.17770000000E+01 0.  1.
         15    1    3    3    0    0  0.28262743018E+01  0.15863249829E+02 -0.29901167831E+01  0.16484206046E+02  0.17770000000E+01 0. -1.
</event>
<event>
 7    1  0.4133533E-006  0.5223449E+03  0.7546771E-02  0.9351154E-01
        -11   -1    0    0    0    0  0.00000000000E+00  0.00000000000E+00  0.50000000000E+03  0.50000000000E+03  0.00000000000E+00 0. -1.
         11   -1    0    0    0    0 -0.00000000000E+00 -0.00000000000E+00 -0.50000000000E+03  0.50000000000E+03  0.00000000000E+00 0. -1.
         23    2    1    2    0    0  0.57126230847E+02 -0.37121744715E+02 -0.18761248788E+03  0.21880713172E+03  0.89647560484E+02 0.  0.
        -11    1    1    2    0    0 -0.57713437460E+02 -0.81149389357E+02  0.46715989009E+03  0.47765513414E+03  0.00000000000E+00 0. -1.
         11    1    1    2    0    0  0.58720661305E+00  0.11827113407E+03 -0.27954740221E+03  0.30353773415E+03  0.00000000000E+00 0. -1.
        -15    1    3    3    0    0  0.17619531768E+02 -0.22540953494E+02 -0.22952047890E+01  0.28757054407E+02  0.17770000000E+01 0.  1.
         15    1    3    3    0    0  0.39506699079E+02 -0.14580791220E+02 -0.18531728309E+03  0.19005007731E+03  0.17770000000E+01 0. -1.
</event>
<event>
 7    1  0.4133533E-006  0.5229920E+03  0.7546771E-02  0.9349784E-01
        -11   -1    0    0    0    0  0.00000000000E+00  0.00000000000E+00  0.50000000000E+03  0.50000000000E+03  0.00000000000E+00 0. -1.
         11   -1    0    0    0    0 -0.00000000000E+00 -0.00000000000E+00 -0.50000000000E+03  0.50000000000E+03  0.00000000000E+00 0.  1.
         23    2    1    2    0    0  0.18208109961E+03  0.55587050411E+02  0.36430006295E+03  0.42143375684E+03  0.92996927505E+02 0.  0.
        -11    1    1    2    0    0 -0.48279121187E+02  0.12189246411E+02  0.88513411774E+02  0.10155823617E+03  0.00000000000E+00 0. -1.
         11    1    1    2    0    0 -0.13380197843E+03 -0.67776296823E+02 -0.45281347472E+03  0.47700800699E+03  0.00000000000E+00 0.  1.
        -15    1    3    3    0    0  0.18572757007E+03  0.43607338060E+02  0.29730968845E+03  0.35325987430E+03  0.17770000000E+01 0. -1.
         15    1    3    3    0    0 -0.36464704588E+01  0.11979712352E+02  0.66990374501E+02  0.68173882533E+02  0.17770000000E+01 0.  1.
</event>
<event>
 7    1  0.4133533E-006  0.3974134E+03  0.7546771E-02  0.9664074E-01
        -11   -1    0    0    0    0  0.00000000000E+00  0.00000000000E+00  0.50000000000E+03  0.50000000000E+03  0.00000000000E+00 0. -1.
         11   -1    0    0    0    0 -0.00000000000E+00 -0.00000000000E+00 -0.50000000000E+03  0.50000000000E+03  0.00000000000E+00 0.  1.
         23    2    1    2    0    0  0.10028651657E+03 -0.82576587608E+02 -0.10198775680E+03  0.18819488959E+03  0.90219375445E+02 0.  0.
        -11    1    1    2    0    0 -0.69732635597E+02 -0.10604024797E+03  0.42112833612E+03  0.43983661755E+03  0.00000000000E+00 0. -1.
         11    1    1    2    0    0 -0.30553880976E+02  0.18861683558E+03 -0.31914057932E+03  0.37196849286E+03  0.00000000000E+00 0.  1.
        -15    1    3    3    0    0  0.23564575382E+02 -0.74952428405E+01 -0.72844421110E+02  0.76947613959E+02  0.17770000000E+01 0. -1.
         15    1    3    3    0    0  0.76721941191E+02 -0.75081344767E+02 -0.29143335685E+02  0.11124727563E+03  0.17770000000E+01 0.  1.
</event>
<event>
 7    1  0.4133533E-006  0.5191643E+03  0.7546771E-02  0.9357921E-01
        -11   -1    0    0    0    0  0.00000000000E+00  0.00000000000E+00  0.50000000000E+03  0.50000000000E+03  0.00000000000E+00 0. -1.
         11   -1    0    0    0    0 -0.00000000000E+00 -0.00000000000E+00 -0.50000000000E+03  0.50000000000E+03  0.00000000000E+00 0. -1.
         23    2    1    2    0    0  0.16890451661E+02  0.99765402477E+02 -0.39368900026E+03  0.41563798391E+03  0.86749535146E+02 0.  0.
        -11    1    1    2    0    0  0.54264292460E+02 -0.93150174736E+02  0.46859516500E+03  0.48083572782E+03  0.00000000000E+00 0. -1.
         11    1    1    2    0    0 -0.71154744121E+02 -0.66152277409E+01 -0.74906164734E+02  0.10352628828E+03  0.00000000000E+00 0. -1.
        -15    1    3    3    0    0  0.31290213921E+02  0.10985099636E+03 -0.31745097360E+03  0.33737901129E+03  0.17770000000E+01 0. -1.
         15    1    3    3    0    0 -0.14399762260E+02 -0.10085593879E+02 -0.76238026661E+02  0.78258972618E+02  0.17770000000E+01 0.  1.
</event>
<event>
 7    1  0.4133533E-006  0.5265656E+03  0.7546771E-02  0.9342253E-01
        -11   -1    0    0    0    0  0.00000000000E+00  0.00000000000E+00  0.50000000000E+03  0.50000000000E+03  0.00000000000E+00 0.  1.
         11   -1    0    0    0    0 -0.00000000000E+00 -0.00000000000E+00 -0.50000000000E+03  0.50000000000E+03  0.00000000000E+00 0. -1.
         23    2    1    2    0    0 -0.67425132971E+02  0.15548860896E+03 -0.22214668817E+03  0.29200244273E+03  0.84814028452E+02 0.  0.
        -11    1    1    2    0    0  0.89468118009E-01 -0.15645607366E+03  0.44683506782E+03  0.47343435534E+03  0.00000000000E+00 0.  1.
         11    1    1    2    0    0  0.67335664853E+02  0.96746469946E+00 -0.22468837965E+03  0.23456320193E+03  0.00000000000E+00 0. -1.
        -15    1    3    3    0    0 -0.20492486657E+02  0.36151798072E+02 -0.12317163506E+03  0.13000501500E+03  0.17770000000E+01 0.  1.
         15    1    3    3    0    0 -0.46932646314E+02  0.11933681089E+03 -0.98975053107E+02  0.16199742773E+03  0.17770000000E+01 0. -1.
</event>
<event>
 7    1  0.4133533E-006  0.4721295E+03  0.7546771E-02  0.9464427E-01
        -11   -1    0    0    0    0  0.00000000000E+00  0.00000000000E+00  0.50000000000E+03  0.50000000000E+03  0.00000000000E+00 0. -1.
         11   -1    0    0    0    0 -0.00000000000E+00 -0.00000000000E+00 -0.50000000000E+03  0.50000000000E+03  0.00000000000E+00 0.  1.
         23    2    1    2    0    0 -0.38021029383E+02  0.65035096678E+02 -0.43191805322E+03  0.44777875388E+03  0.90980466322E+02 0.  0.
        -11    1    1    2    0    0  0.79039761119E+02 -0.63822215965E+02  0.47906407300E+03  0.48971720934E+03  0.00000000000E+00 0. -1.
         11    1    1    2    0    0 -0.41018731736E+02 -0.12128807129E+01 -0.47146019776E+02  0.62504036778E+02  0.00000000000E+00 0.  1.
        -15    1    3    3    0    0 -0.95345151891E+01 -0.22567903522E+02 -0.65496422663E+02  0.69951099777E+02  0.17770000000E+01 0. -1.
         15    1    3    3    0    0 -0.28486514194E+02  0.87603000200E+02 -0.36642163056E+03  0.37782765410E+03  0.17770000000E+01 0.  1.
</event>
<event>
 7    1  0.4133533E-006  0.5338012E+03  0.7546771E-02  0.9327199E-01
        -11   -1    0    0    0    0  0.00000000000E+00  0.00000000000E+00  0.50000000000E+03  0.50000000000E+03  0.00000000000E+00 0. -1.
         11   -1    0    0    0    0 -0.00000000000E+00 -0.00000000000E+00 -0.50000000000E+03  0.50000000000E+03  0.00000000000E+00 0.  1.
         23    2    1    2    0    0  0.93461736910E+01  0.89284074978E+02  0.24033720486E+03  0.27259309574E+03  0.92119633069E+02 0.  0.
        -11    1    1    2    0    0  0.43534448338E+02  0.24457636979E+03  0.80726890891E+02  0.26120811581E+03  0.00000000000E+00 0. -1.
         11    1    1    2    0    0 -0.52880622029E+02 -0.33386044477E+03 -0.32106409575E+03  0.46619878845E+03  0.00000000000E+00 0.  1.
        -15    1    3    3    0    0  0.50452412887E+02  0.41901014934E+02  0.13159648058E+03  0.14704398135E+03  0.17770000000E+01 0. -1.
         15    1    3    3    0    0 -0.41106239196E+02  0.47383060044E+02  0.10874072428E+03  0.12554911440E+03  0.17770000000E+01 0.  1.
</event>
<event>
 7    1  0.4133533E-006  0.5176731E+03  0.7546771E-02  0.9361111E-01
        -11   -1    0    0    0    0  0.00000000000E+00  0.00000000000E+00  0.50000000000E+03  0.50000000000E+03  0.00000000000E+00 0.  1.
         11   -1    0    0    0    0 -0.00000000000E+00 -0.00000000000E+00 -0.50000000000E+03  0.50000000000E+03  0.00000000000E+00 0. -1.
         23    2    1    2    0    0  0.91912417183E+02  0.79609141589E+02  0.21411879117E+03  0.26511334324E+03  0.98248257877E+02 0.  0.
        -11    1    1    2    0    0  0.32479942784E+02 -0.27406270726E+02  0.24895857944E+03  0.25255974468E+03  0.00000000000E+00 0.  1.
         11    1    1    2    0    0 -0.12439235997E+03 -0.52202870863E+02 -0.46307737061E+03  0.48232691208E+03  0.00000000000E+00 0. -1.
        -15    1    3    3    0    0  0.24235614264E+02  0.15650172742E+02  0.14824617089E+03  0.15103767020E+03  0.17770000000E+01 0.  1.
         15    1    3    3    0    0  0.67676802919E+02  0.63958968847E+02  0.65872620280E+02  0.11407567305E+03  0.17770000000E+01 0. -1.
</event>
<event>
 7    1  0.4133533E-006  0.4874450E+03  0.7546771E-02  0.9428349E-01
        -11   -1    0    0    0    0  0.00000000000E+00  0.00000000000E+00  0.50000000000E+03  0.50000000000E+03  0.00000000000E+00 0.  1.
         11   -1    0    0    0    0 -0.00000000000E+00 -0.00000000000E+00 -0.50000000000E+03  0.50000000000E+03  0.00000000000E+00 0. -1.
         23    2    1    2    0    0 -0.11719108799E+03 -0.14133101053E+03  0.44221508433E+03  0.48839714143E+03  0.96277626221E+02 0.  0.
        -11    1    1    2    0    0  0.32200631594E+02  0.76641878096E+01  0.82391927791E+01  0.34110185392E+02  0.00000000000E+00 0.  1.
         11    1    1    2    0    0  0.84990456392E+02  0.13366682272E+03 -0.45045427711E+03  0.47749267318E+03  0.00000000000E+00 0. -1.
        -15    1    3    3    0    0 -0.12462037767E+03 -0.91281520339E+02  0.30002228300E+03  0.33745974947E+03  0.17770000000E+01 0.  1.
         15    1    3    3    0    0  0.74292896873E+01 -0.50049490195E+02  0.14219280133E+03  0.15093739196E+03  0.17770000000E+01 0. -1.
</event>
<event>
 7    1  0.5821813E-006  0.5099459E+03  0.7546771E-02  0.9377826E-01
        -11   -1    0    0    0    0  0.00000000000E+00  0.00000000000E+00  0.50000000000E+03  0.50000000000E+03  0.00000000000E+00 0.  1.
         11   -1    0    0    0    0 -0.00000000000E+00 -0.00000000000E+00 -0.50000000000E+03  0.50000000000E+03  0.00000000000E+00 0. -1.
         23    2    1    2    0    0 -0.15740921209E+02 -0.10633927759E+02  0.21580724960E+03  0.23503854354E+03  0.91156409267E+02 0.  0.
        -11    1    1    2    0    0 -0.58553232995E+02 -0.31477979530E+02  0.26674841798E+03  0.27490737128E+03  0.00000000000E+00 0.  1.
         11    1    1    2    0    0  0.74294154204E+02  0.42111907289E+02 -0.48255566758E+03  0.49005408518E+03  0.00000000000E+00 0. -1.
        -15    1    3    3    0    0 -0.30514477738E+02  0.33180522879E+02  0.84047002710E+02  0.95389395866E+02  0.17770000000E+01 0.  1.
         15    1    3    3    0    0  0.14773556529E+02 -0.43814450638E+02  0.13176024689E+03  0.13964914767E+03  0.17770000000E+01 0. -1.
</event>
<event>
 7    1  0.4133533E-006  0.5247972E+03  0.7546771E-02  0.9345972E-01
        -11   -1    0    0    0    0  0.00000000000E+00  0.00000000000E+00  0.50000000000E+03  0.50000000000E+03  0.00000000000E+00 0.  1.
         11   -1    0    0    0    0 -0.00000000000E+00 -0.00000000000E+00 -0.50000000000E+03  0.50000000000E+03  0.00000000000E+00 0. -1.
         23    2    1    2    0    0 -0.18349954176E+02 -0.43366795222E+02 -0.25095076455E+03  0.27109610520E+03  0.91101110221E+02 0.  0.
        -11    1    1    2    0    0 -0.16600576278E+02 -0.84334931101E+02  0.46736467009E+03  0.47520279311E+03  0.00000000000E+00 0.  1.
         11    1    1    2    0    0  0.34950530454E+02  0.12770172632E+03 -0.21641390554E+03  0.25370110169E+03  0.00000000000E+00 0. -1.
        -15    1    3    3    0    0 -0.53967213034E+02 -0.15432991464E+02 -0.15824976707E+03  0.16791897992E+03  0.17770000000E+01 0. -1.
         15    1    3    3    0    0  0.35617258858E+02 -0.27933803758E+02 -0.92700997472E+02  0.10317712529E+03  0.17770000000E+01 0.  1.
</event>
<event>
 7    1  0.4133533E-006  0.4145694E+03  0.7546771E-02  0.9614306E-01
        -11   -1    0    0    0    0  0.00000000000E+00  0.00000000000E+00  0.50000000000E+03  0.50000000000E+03  0.00000000000E+00 0. -1.
         11   -1    0    0    0    0 -0.00000000000E+00 -0.00000000000E+00 -0.50000000000E+03  0.50000000000E+03  0.00000000000E+00 0. -1.
         23    2    1    2    0    0  0.55201766841E+02  0.34760189448E+02 -0.40399144274E+03  0.41917622857E+03  0.90797130772E+02 0.  0.
        -11    1    1    2    0    0  0.93274793586E+02  0.36193438207E+02  0.40406198725E+03  0.41626462933E+03  0.00000000000E+00 0. -1.
         11    1    1    2    0    0 -0.14847656043E+03 -0.70953627655E+02 -0.70544509083E-01  0.16455914210E+03  0.00000000000E+00 0. -1.
        -15    1    3    3    0    0  0.45599067563E+01 -0.29401980195E+02 -0.96272683206E+02  0.10078123064E+03  0.17770000000E+01 0.  1.
         15    1    3    3    0    0  0.50641860085E+02  0.64162169643E+02 -0.30771875953E+03  0.31839499793E+03  0.17770000000E+01 0. -1.
</event>
<event>
 7    1  0.4133533E-006  0.5212233E+03  0.7546771E-02  0.9353534E-01
        -11   -1    0    0    0    0  0.00000000000E+00  0.00000000000E+00  0.50000000000E+03  0.50000000000E+03  0.00000000000E+00 0. -1.
         11   -1    0    0    0    0 -0.00000000000E+00 -0.00000000000E+00 -0.50000000000E+03  0.50000000000E+03  0.00000000000E+00 0. -1.
         23    2    1    2    0    0  0.79326977360E+02 -0.59932217365E+01  0.38880225331E+03  0.40826335985E+03  0.95828444513E+02 0.  0.
        -11    1    1    2    0    0  0.65821695677E+02  0.66362640667E+02  0.63430613168E+02  0.11295989724E+03  0.00000000000E+00 0. -1.
         11    1    1    2    0    0 -0.14514867304E+03 -0.60369418931E+02 -0.45223286647E+03  0.47877674290E+03  0.00000000000E+00 0. -1.
        -15    1    3    3    0    0  0.51896128547E+02 -0.49833366638E+02  0.20253412135E+03  0.21494138882E+03  0.17770000000E+01 0. -1.
         15    1    3    3    0    0  0.27430848813E+02  0.43840144901E+02  0.18626813196E+03  0.19332197103E+03  0.17770000000E+01 0.  1.
</event>
<event>
 7    1  0.4133533E-006  0.4729935E+03  0.7546771E-02  0.9462353E-01
        -11   -1    0    0    0    0  0.00000000000E+00  0.00000000000E+00  0.50000000000E+03  0.50000000000E+03  0.00000000000E+00 0.  1.
         11   -1    0    0    0    0 -0.00000000000E+00 -0.00000000000E+00 -0.50000000000E+03  0.50000000000E+03  0.00000000000E+00 0. -1.
         23    2    1    2    0    0  0.43496872510E+02 -0.38149864451E+02 -0.44502655142E+03  0.45812947763E+03  0.92122726448E+02 0.  0.
        -11    1    1    2    0    0 -0.95660596162E+02  0.19518359881E+02  0.47077153698E+03  0.48078868129E+03  0.00000000000E+00 0.  1.
         11    1    1    2    0    0  0.52163723651E+02  0.18631504570E+02 -0.25744985558E+02  0.61081841075E+02  0.00000000000E+00 0. -1.
        -15    1    3    3    0    0  0.22992829611E+02  0.28051306014E+02 -0.10484734956E+03  0.11095796691E+03  0.17770000000E+01 0.  1.
         15    1    3    3    0    0  0.20504042900E+02 -0.66201170465E+02 -0.34017920186E+03  0.34717151072E+03  0.17770000000E+01 0. -1.
</event>
<event>
 7    1  0.4133533E-006  0.4442177E+03  0.7546771E-02  0.9534080E-01
        -11   -1    0    0    0    0  0.00000000000E+00  0.00000000000E+00  0.50000000000E+03  0.50000000000E+03  0.00000000000E+00 0. -1.
         11   -1    0    0    0    0 -0.00000000000E+00 -0.00000000000E+00 -0.50000000000E+03  0.50000000000E+03  0.00000000000E+00 0. -1.
         23    2    1    2    0    0 -0.15700342836E+03  0.22658932086E+03 -0.38185317874E+03  0.47956654615E+03  0.90440174851E+02 0.  0.
        -11    1    1    2    0    0  0.43218341290E+01  0.33240349888E+02  0.10850436704E+03  0.11356406464E+03  0.00000000000E+00 0. -1.
         11    1    1    2    0    0  0.15268159423E+03 -0.25982967075E+03  0.27334881170E+03  0.40686938921E+03  0.00000000000E+00 0. -1.
        -15    1    3    3    0    0 -0.13865440374E+03  0.12445828793E+03 -0.24759792865E+03  0.30987546065E+03  0.17770000000E+01 0. -1.
         15    1    3    3    0    0 -0.18349024611E+02  0.10213103293E+03 -0.13425525009E+03  0.16969108550E+03  0.17770000000E+01 0.  1.
</event>
<event>
 7    1  0.4133533E-006  0.5267117E+03  0.7546771E-02  0.9341947E-01
        -11   -1    0    0    0    0  0.00000000000E+00  0.00000000000E+00  0.50000000000E+03  0.50000000000E+03  0.00000000000E+00 0.  1.
         11   -1    0    0    0    0 -0.00000000000E+00 -0.00000000000E+00 -0.50000000000E+03  0.50000000000E+03  0.00000000000E+00 0.  1.
         23    2    1    2    0    0  0.12544019339E+03  0.46564159032E+02 -0.35973959755E+03  0.39738391703E+03  0.10294627944E+03 0.  0.
        -11    1    1    2    0    0 -0.91390771067E+02  0.22191082299E+02  0.46385027807E+03  0.47328828174E+03  0.00000000000E+00 0.  1.
         11    1    1    2    0    0 -0.34049422324E+02 -0.68755241331E+02 -0.10411068052E+03  0.12932780123E+03  0.00000000000E+00 0.  1.
        -15    1    3    3    0    0  0.62183613147E+02  0.13094703634E+02 -0.54110439026E+02  0.83482754793E+02  0.17770000000E+01 0. -1.
         15    1    3    3    0    0  0.63256580243E+02  0.33469455397E+02 -0.30562915852E+03  0.31390116224E+03  0.17770000000E+01 0.  1.
</event>
<event>
 7    1  0.5246401E-006  0.5115683E+03  0.7546771E-02  0.9374290E-01
        -11   -1    0    0    0    0  0.00000000000E+00  0.00000000000E+00  0.50000000000E+03  0.50000000000E+03  0.00000000000E+00 0.  1.
         11   -1    0    0    0    0 -0.00000000000E+00 -0.00000000000E+00 -0.50000000000E+03  0.50000000000E+03  0.00000000000E+00 0. -1.
         23    2    1    2    0    0  0.44536249894E+02 -0.88038175115E+01  0.38114433764E+03  0.39349010242E+03  0.86616798798E+02 0.  0.
        -11    1    1    2    0    0  0.64034346974E+02  0.29877792799E+02  0.94601197461E+02  0.11807822262E+03  0.00000000000E+00 0.  1.
         11    1    1    2    0    0 -0.10857059687E+03 -0.21073975288E+02 -0.47574553510E+03  0.48843167496E+03  0.00000000000E+00 0. -1.
        -15    1    3    3    0    0  0.18429622881E+02 -0.47352608985E+02  0.21563795464E+03  0.22155091014E+03  0.17770000000E+01 0. -1.
         15    1    3    3    0    0  0.26106627013E+02  0.38548791473E+02  0.16550638300E+03  0.17193919228E+03  0.17770000000E+01 0.  1.
</event>
<event>
 7    1  0.4133533E-006  0.3595548E+03  0.7546771E-02  0.9784083E-01
        -11   -1    0    0    0    0  0.00000000000E+00  0.00000000000E+00  0.50000000000E+03  0.50000000000E+03  0.00000000000E+00 0.  1.
         11   -1    0    0    0    0 -0.00000000000E+00 -0.00000000000E+00 -0.50000000000E+03  0.50000000000E+03  0.00000000000E+00 0.  1.
         23    2    1    2    0    0  0.13474806258E+03 -0.13338356918E+03  0.24209372277E+03  0.32132175981E+03  0.93220629801E+02 0.  0.
        -11    1    1    2    0    0 -0.22212942200E+02  0.18385873744E+03  0.16824310175E+03  0.25020629772E+03  0.00000000000E+00 0.  1.
         11    1    1    2    0    0 -0.11253512038E+03 -0.50475168258E+02 -0.41033682452E+03  0.42847194247E+03  0.00000000000E+00 0.  1.
        -15    1    3    3    0    0  0.52358450869E+02 -0.11567522019E+03  0.14476704942E+03  0.19256900132E+03  0.17770000000E+01 0.  1.
         15    1    3    3    0    0  0.82389611715E+02 -0.17708348996E+02  0.97326673356E+02  0.12875275849E+03  0.17770000000E+01 0. -1.
</event>
<event>
 7    1  0.4133533E-006  0.5364877E+03  0.7546771E-02  0.9321674E-01
        -11   -1    0    0    0    0  0.00000000000E+00  0.00000000000E+00  0.50000000000E+03  0.50000000000E+03  0.00000000000E+00 0. -1.
         11   -1    0    0    0    0 -0.00000000000E+00 -0.00000000000E+00 -0.50000000000E+03  0.50000000000E+03  0.00000000000E+00 0. -1.
         23    2    1    2    0    0 -0.11479786203E+02 -0.11162234135E+03  0.11633460319E+03  0.18519008955E+03  0.90389694045E+02 0.  0.
        -11    1    1    2    0    0  0.15009053045E+03  0.22238723538E+02  0.31684115478E+03  0.35129765942E+03  0.00000000000E+00 0. -1.
         11    1    1    2    0    0 -0.13861074425E+03  0.89383617808E+02 -0.43317575797E+03  0.46351225102E+03  0.00000000000E+00 0. -1.
        -15    1    3    3    0    0  0.24772188631E+02 -0.13369287092E+02  0.59907084073E+02  0.66214919905E+02  0.17770000000E+01 0.  1.
         15    1    3    3    0    0 -0.36251974834E+02 -0.98253054255E+02  0.56427519121E+02  0.11897516965E+03  0.17770000000E+01 0. -1.
</event>
<event>
 7    1  0.4133533E-006  0.3280698E+03  0.7546771E-02  0.9896632E-01
        -11   -1    0    0    0    0  0.00000000000E+00  0.00000000000E+00  0.50000000000E+03  0.50000000000E+03  0.00000000000E+00 0.  1.
         11   -1    0    0    0    0 -0.00000000000E+00 -0.00000000000E+00 -0.50000000000E+03  0.50000000000E+03  0.00000000000E+00 0. -1.
         23    2    1    2    0    0 -0.24173498763E+03  0.16535553336E+03  0.12147531191E+03  0.32972397428E+03  0.90462097899E+02 0.  0.
        -11    1    1    2    0    0  0.67054977359E+02 -0.19087880524E+03  0.21194498633E+03  0.29300471926E+03  0.00000000000E+00 0.  1.
         11    1    1    2    0    0  0.17468001027E+03  0.25523271879E+02 -0.33342029824E+03  0.37727130646E+03  0.00000000000E+00 0. -1.
        -15    1    3    3    0    0 -0.37564725475E+02  0.73370691405E+02  0.37179173427E+02  0.90442333135E+02  0.17770000000E+01 0. -1.
         15    1    3    3    0    0 -0.20417026216E+03  0.91984841951E+02  0.84296138486E+02  0.23928164115E+03  0.17770000000E+01 0.  1.
</event>
<event>
 7    1  0.4133533E-006  0.4108268E+03  0.7546771E-02  0.9624941E-01
        -11   -1    0    0    0    0  0.00000000000E+00  0.00000000000E+00  0.50000000000E+03  0.50000000000E+03  0.00000000000E+00 0. -1.
         11   -1    0    0    0    0 -0.00000000000E+00 -0.00000000000E+00 -0.50000000000E+03  0.50000000000E+03  0.00000000000E+00 0.  1.
         23    2    1    2    0    0 -0.16589331016E+02 -0.44514376344E+01 -0.35506869459E+03  0.36717014420E+03  0.91897310706E+02 0.  0.
        -11    1    1    2    0    0 -0.18729832179E+02 -0.13972208893E+03  0.43984917100E+03  0.46188782401E+03  0.00000000000E+00 0. -1.
         11    1    1    2    0    0  0.35319163195E+02  0.14417352656E+03 -0.84780476402E+02  0.17094203178E+03  0.00000000000E+00 0.  1.
        -15    1    3    3    0    0 -0.19905660682E+02  0.40470438700E+02 -0.22579455970E+03  0.23026166128E+03  0.17770000000E+01 0.  1.
         15    1    3    3    0    0  0.33163296655E+01 -0.44921876335E+02 -0.12927413490E+03  0.13690848293E+03  0.17770000000E+01 0. -1.
</event>
<event>
 7    1  0.4133533E-006  0.5181254E+03  0.7546771E-02  0.9360142E-01
        -11   -1    0    0    0    0  0.00000000000E+00  0.00000000000E+00  0.50000000000E+03  0.50000000000E+03  0.00000000000E+00 0. -1.
         11   -1    0    0    0    0 -0.00000000000E+00 -0.00000000000E+00 -0.50000000000E+03  0.50000000000E+03  0.00000000000E+00 0.  1.
         23    2    1    2    0    0  0.61927519393E+01  0.62466003224E+02 -0.33447052297E+03  0.35285501789E+03  0.93251172527E+02 0.  0.
        -11    1    1    2    0    0  0.83018957840E+02 -0.45168462938E+02  0.47251535578E+03  0.48187456755E+03  0.00000000000E+00 0. -1.
         11    1    1    2    0    0 -0.89211709780E+02 -0.17297540285E+02 -0.13804483281E+03  0.16527041456E+03  0.00000000000E+00 0.  1.
        -15    1    3    3    0    0  0.45491902200E+02  0.14818296524E+02 -0.18549033895E+03  0.19156961829E+03  0.17770000000E+01 0. -1.
         15    1    3    3    0    0 -0.39299150261E+02  0.47647706700E+02 -0.14898018402E+03  0.16128539960E+03  0.17770000000E+01 0.  1.
</event>
<event>
 7    1  0.4133533E-006  0.3422687E+03  0.7546771E-02  0.9844269E-01
        -11   -1    0    0    0    0  0.00000000000E+00  0.00000000000E+00  0.50000000000E+03  0.50000000000E+03  0.00000000000E+00 0.  1.
         11   -1    0    0    0    0 -0.00000000000E+00 -0.00000000000E+00 -0.50000000000E+03  0.50000000000E+03  0.00000000000E+00 0. -1.
         23    2    1    2    0    0  0.10826879077E+03 -0.63073909163E+01 -0.24445132476E+03  0.28291410086E+03  0.92314809513E+02 0.  0.
        -11    1    1    2    0    0  0.89716705465E+02  0.34275208355E+02  0.43223776284E+03  0.44277913317E+03  0.00000000000E+00 0.  1.
         11    1    1    2    0    0 -0.19798549623E+03 -0.27967817439E+02 -0.18778643808E+03  0.27430676597E+03  0.00000000000E+00 0. -1.
        -15    1    3    3    0    0  0.86483078669E+02 -0.28727409941E+02 -0.10083656458E+03  0.13592555854E+03  0.17770000000E+01 0. -1.
         15    1    3    3    0    0  0.21785712100E+02  0.22420019025E+02 -0.14361476018E+03  0.14698854233E+03  0.17770000000E+01 0.  1.
</event>
<event>
 7    1  0.4133533E-006  0.5358712E+03  0.7546771E-02  0.9322939E-01
        -11   -1    0    0    0    0  0.00000000000E+00  0.00000000000E+00  0.50000000000E+03  0.50000000000E+03  0.00000000000E+00 0.  1.
         11   -1    0    0    0    0 -0.00000000000E+00 -0.00000000000E+00 -0.50000000000E+03  0.50000000000E+03  0.00000000000E+00 0. -1.
         23    2    1    2    0    0  0.11761939411E+03  0.30138044803E+01  0.97416556481E+02  0.17843816368E+03  0.92232249743E+02 0.  0.
        -11    1    1    2    0    0 -0.16722175727E+02  0.80504590593E+02  0.34784734709E+03  0.35743306667E+03  0.00000000000E+00 0.  1.
         11    1    1    2    0    0 -0.10089721838E+03 -0.83518395073E+02 -0.44526390357E+03  0.46412876965E+03  0.00000000000E+00 0. -1.
        -15    1    3    3    0    0  0.65544689167E+02  0.46395702448E+02  0.40716337862E+02  0.90053569510E+02  0.17770000000E+01 0. -1.
         15    1    3    3    0    0  0.52074704944E+02 -0.43381897967E+02  0.56700218619E+02  0.88384594171E+02  0.17770000000E+01 0.  1.
</event>
<event>
 7    1  0.4133533E-006  0.3628628E+03  0.7546771E-02  0.9772979E-01
        -11   -1    0    0    0    0  0.00000000000E+00  0.00000000000E+00  0.50000000000E+03  0.50000000000E+03  0.00000000000E+00 0.  1.
         11   -1    0    0    0    0 -0.00000000000E+00 -0.00000000000E+00 -0.50000000000E+03  0.50000000000E+03  0.00000000000E+00 0. -1.
         23    2    1    2    0    0 -0.11706378970E+03 -0.15199257186E+03 -0.11121183176E+03  0.24115131291E+03  0.94763977518E+02 0.  0.
        -11    1    1    2    0    0  0.14893701702E+03  0.22382175402E+02  0.40719907760E+03  0.43415928599E+03  0.00000000000E+00 0.  1.
         11    1    1    2    0    0 -0.31873227320E+02  0.12961039646E+03 -0.29598724583E+03  0.32468940110E+03  0.00000000000E+00 0. -1.
        -15    1    3    3    0    0  0.19083659318E+01 -0.33728565151E+02 -0.54344343704E+02  0.64013462563E+02  0.17770000000E+01 0.  1.
         15    1    3    3    0    0 -0.11897215563E+03 -0.11826400671E+03 -0.56867488057E+02  0.17713785035E+03  0.17770000000E+01 0. -1.
</event>
<event>
 7    1  0.4133533E-006  0.5356559E+03  0.7546771E-02  0.9323381E-01
        -11   -1    0    0    0    0  0.00000000000E+00  0.00000000000E+00  0.50000000000E+03  0.50000000000E+03  0.00000000000E+00 0.  1.
         11   -1    0    0    0    0 -0.00000000000E+00 -0.00000000000E+00 -0.50000000000E+03  0.50000000000E+03  0.00000000000E+00 0. -1.
         23    2    1    2    0    0 -0.94412475518E+02  0.56076353445E+02 -0.17056627326E+03  0.22341807850E+03  0.93618968587E+02 0.  0.
        -11    1    1    2    0    0  0.69567261359E+02  0.74772133412E+02  0.45297348973E+03  0.46434411614E+03  0.00000000000E+00 0.  1.
         11    1    1    2    0    0  0.24845214160E+02 -0.13084848686E+03 -0.28240721647E+03  0.31223780536E+03  0.00000000000E+00 0. -1.
        -15    1    3    3    0    0  0.74265704400E+01 -0.16473413519E+02 -0.13369494820E+02  0.22548357417E+02  0.17770000000E+01 0.  1.
         15    1    3    3    0    0 -0.10183904596E+03  0.72549766965E+02 -0.15719677844E+03  0.20086972109E+03  0.17770000000E+01 0. -1.
</event>
<event>
 7    1  0.4133533E-006  0.5163270E+03  0.7546771E-02  0.9364000E-01
        -11   -1    0    0    0    0  0.00000000000E+00  0.00000000000E+00  0.50000000000E+03  0.50000000000E+03  0.00000000000E+00 0.  1.
         11   -1    0    0    0    0 -0.00000000000E+00 -0.00000000000E+00 -0.50000000000E+03  0.50000000000E+03  0.00000000000E+00 0. -1.
         23    2    1    2    0    0 -0.91039592004E+02 -0.93018533629E+02 -0.37385163776E+03  0.40651339609E+03  0.92452361962E+02 0.  0.
        -11    1    1    2    0    0  0.58661860514E+02  0.66743072743E+02  0.47544055904E+03  0.48367300609E+03  0.00000000000E+00 0.  1.
         11    1    1    2    0    0  0.32377731490E+02  0.26275460886E+02 -0.10158892128E+03  0.10981359783E+03  0.00000000000E+00 0. -1.
        -15    1    3    3    0    0 -0.14076278575E+02  0.21407618725E+01 -0.13436551523E+01  0.14411371138E+02  0.17770000000E+01 0.  1.
         15    1    3    3    0    0 -0.76963313429E+02 -0.95159295502E+02 -0.37250798261E+03  0.39210202495E+03  0.17770000000E+01 0. -1.
</event>
<event>
 7    1  0.4133533E-006  0.3508253E+03  0.7546771E-02  0.9814012E-01
        -11   -1    0    0    0    0  0.00000000000E+00  0.00000000000E+00  0.50000000000E+03  0.50000000000E+03  0.00000000000E+00 0. -1.
         11   -1    0    0    0    0 -0.00000000000E+00 -0.00000000000E+00 -0.50000000000E+03  0.50000000000E+03  0.00000000000E+00 0. -1.
         23    2    1    2    0    0 -0.29018263669E+02 -0.18582820693E+03 -0.15087579687E+03  0.25807589935E+03  0.92008051965E+02 0.  0.
        -11    1    1    2    0    0  0.55642084882E+02 -0.77963267454E+02  0.37976632083E+03  0.39165899852E+03  0.00000000000E+00 0. -1.
         11    1    1    2    0    0 -0.26623821213E+02  0.26379147438E+03 -0.22889052397E+03  0.35026510213E+03  0.00000000000E+00 0. -1.
        -15    1    3    3    0    0  0.58701176270E+01 -0.15873221469E+03 -0.14182133990E+03  0.21294793834E+03  0.17770000000E+01 0. -1.
         15    1    3    3    0    0 -0.34888381296E+02 -0.27095992236E+02 -0.90544569643E+01  0.45127961007E+02  0.17770000000E+01 0.  1.
</event>
<event>
 7    1  0.4133533E-006  0.5195005E+03  0.7546771E-02  0.9357203E-01
        -11   -1    0    0    0    0  0.00000000000E+00  0.00000000000E+00  0.50000000000E+03  0.50000000000E+03  0.00000000000E+00 0. -1.
         11   -1    0    0    0    0 -0.00000000000E+00 -0.00000000000E+00 -0.50000000000E+03  0.50000000000E+03  0.00000000000E+00 0. -1.
         23    2    1    2    0    0  0.15213767364E+02 -0.17077208424E+01 -0.10112111734E+03  0.13753469962E+03  0.91956175441E+02 0.  0.
        -11    1    1    2    0    0  0.22694712172E+02  0.75012146915E+02  0.47406523904E+03  0.48049945162E+03  0.00000000000E+00 0. -1.
         11    1    1    2    0    0 -0.37908479537E+02 -0.73304426072E+02 -0.37294412170E+03  0.38196584875E+03  0.00000000000E+00 0. -1.
        -15    1    3    3    0    0  0.27297600066E+02 -0.57669878714E+01 -0.11515063061E+03  0.11849574920E+03  0.17770000000E+01 0.  1.
         15    1    3    3    0    0 -0.12083832702E+02  0.40592670290E+01  0.14029513277E+02  0.19038950427E+02  0.17770000000E+01 0. -1.
</event>
<event>
 7    1  0.4133533E-006  0.4261299E+03  0.7546771E-02  0.9582198E-01
        -11   -1    0    0    0    0  0.00000000000E+00  0.00000000000E+00  0.50000000000E+03  0.50000000000E+03  0.00000000000E+00 0.  1.
         11   -1    0    0    0    0 -0.00000000000E+00 -0.00000000000E+00 -0.50000000000E+03  0.50000000000E+03  0.00000000000E+00 0. -1.
         23    2    1    2    0    0  0.38784086258E+02  0.23759047461E+02 -0.83737561412E+02  0.14242934345E+03  0.10585575564E+03 0.  0.
        -11    1    1    2    0    0 -0.17968802114E+02  0.36636994933E+03  0.23830349867E+03  0.43742242181E+03  0.00000000000E+00 0.  1.
         11    1    1    2    0    0 -0.20815284144E+02 -0.39012899680E+03 -0.15456593726E+03  0.42014823474E+03  0.00000000000E+00 0. -1.
        -15    1    3    3    0    0 -0.11815336253E+02  0.24643215537E+02  0.15173456105E+02  0.31309451320E+02  0.17770000000E+01 0.  1.
         15    1    3    3    0    0  0.50599422511E+02 -0.88416807597E+00 -0.98911017517E+02  0.11111989213E+03  0.17770000000E+01 0. -1.
</event>
<event>
 7    1  0.4133533E-006  0.5155669E+03  0.7546771E-02  0.9365636E-01
        -11   -1    0    0    0    0  0.00000000000E+00  0.00000000000E+00  0.50000000000E+03  0.50000000000E+03  0.00000000000E+00 0.  1.
         11   -1    0    0    0    0 -0.00000000000E+00 -0.00000000000E+00 -0.50000000000E+03  0.50000000000E+03  0.00000000000E+00 0.  1.
         23    2    1    2    0    0  0.66917464818E+02  0.74666887221E+01 -0.25425899744E+03  0.27801513294E+03  0.90061522443E+02 0.  0.
        -11    1    1    2    0    0 -0.20713544381E+03  0.59859668230E+02  0.43380543411E+03  0.48443309819E+03  0.00000000000E+00 0.  1.
         11    1    1    2    0    0  0.14021797899E+03 -0.67326356952E+02 -0.17954643666E+03  0.23755176887E+03  0.00000000000E+00 0.  1.
        -15    1    3    3    0    0  0.89110379006E+02  0.15480953470E+01 -0.20947586886E+03  0.22765402172E+03  0.17770000000E+01 0.  1.
         15    1    3    3    0    0 -0.22192914188E+02  0.59185933751E+01 -0.44783128589E+02  0.50361111216E+02  0.17770000000E+01 0. -1.
</event>
<event>
 7    1  0.4133533E-006  0.5416046E+03  0.7546771E-02  0.9311245E-01
        -11   -1    0    0    0    0  0.00000000000E+00  0.00000000000E+00  0.50000000000E+03  0.50000000000E+03  0.00000000000E+00 0. -1.
         11   -1    0    0    0    0 -0.00000000000E+00 -0.00000000000E+00 -0.50000000000E+03  0.50000000000E+03  0.00000000000E+00 0. -1.
         23    2    1    2    0    0  0.34268136998E+02 -0.24535689941E+02 -0.29052139199E+03  0.30852697562E+03  0.94920546726E+02 0.  0.
        -11    1    1    2    0    0  0.81804350295E+02 -0.11588837193E+03  0.43589481576E+03  0.45839541542E+03  0.00000000000E+00 0. -1.
         11    1    1    2    0    0 -0.11607248729E+03  0.14042406187E+03 -0.14537342377E+03  0.23307760896E+03  0.00000000000E+00 0. -1.
        -15    1    3    3    0    0 -0.15152383850E+02 -0.18176754947E+01 -0.26922832090E+01  0.15598230618E+02  0.17770000000E+01 0.  1.
         15    1    3    3    0    0  0.49420520848E+02 -0.22718014446E+02 -0.28782910878E+03  0.29292874500E+03  0.17770000000E+01 0. -1.
</event>
<event>
 7    1  0.4133533E-006  0.3440712E+03  0.7546771E-02  0.9837817E-01
        -11   -1    0    0    0    0  0.00000000000E+00  0.00000000000E+00  0.50000000000E+03  0.50000000000E+03  0.00000000000E+00 0.  1.
         11   -1    0    0    0    0 -0.00000000000E+00 -0.00000000000E+00 -0.50000000000E+03  0.50000000000E+03  0.00000000000E+00 0. -1.
         23    2    1    2    0    0 -0.32716748743E+02 -0.16577588302E+03 -0.18568055187E+03  0.26749117542E+03  0.92315938722E+02 0.  0.
        -11    1    1    2    0    0 -0.38697580717E+02 -0.10569503552E+03  0.37657918188E+03  0.39304048584E+03  0.00000000000E+00 0.  1.
         11    1    1    2    0    0  0.71414329459E+02  0.27147091854E+03 -0.19089863001E+03  0.33946833874E+03  0.00000000000E+00 0. -1.
        -15    1    3    3    0    0 -0.63698974573E+02 -0.86704223401E+02 -0.10341492431E+03  0.14924136831E+03  0.17770000000E+01 0.  1.
         15    1    3    3    0    0  0.30982225830E+02 -0.79071659623E+02 -0.82265627558E+02  0.11824980710E+03  0.17770000000E+01 0. -1.
</event>
<event>
 7    1  0.4133533E-006  0.5160243E+03  0.7546771E-02  0.9364651E-01
        -11   -1    0    0    0    0  0.00000000000E+00  0.00000000000E+00  0.50000000000E+03  0.50000000000E+03  0.00000000000E+00 0.  1.
         11   -1    0    0    0    0 -0.00000000000E+00 -0.00000000000E+00 -0.50000000000E+03  0.50000000000E+03  0.00000000000E+00 0. -1.
         23    2    1    2    0    0  0.14172659225E+03  0.53855959892E+02  0.31789042901E+03  0.36341416408E+03  0.89602669779E+02 0.  0.
        -11    1    1    2    0    0 -0.23629512026E+02 -0.15957313032E+02  0.14992284775E+03  0.15261012402E+03  0.00000000000E+00 0.  1.
         11    1    1    2    0    0 -0.11809708022E+03 -0.37898646860E+02 -0.46781327676E+03  0.48397571189E+03  0.00000000000E+00 0. -1.
        -15    1    3    3    0    0  0.11011898121E+03  0.77775261940E+02  0.22342463920E+03  0.26095384367E+03  0.17770000000E+01 0.  1.
         15    1    3    3    0    0  0.31607611033E+02 -0.23919302049E+02  0.94465789810E+02  0.10246032041E+03  0.17770000000E+01 0. -1.
</event>
<event>
 6    1  0.4133533E-006  0.5154773E+03  0.7546771E-02  0.9365829E-01
        -11   -1    0    0    0    0  0.00000000000E+00  0.00000000000E+00  0.50000000000E+03  0.50000000000E+03  0.00000000000E+00 0. -1.
         11   -1    0    0    0    0 -0.00000000000E+00 -0.00000000000E+00 -0.50000000000E+03  0.50000000000E+03  0.00000000000E+00 0. -1.
        -11    1    1    2    0    0 -0.28756830611E+02  0.10475768772E+03  0.21586684299E+03  0.24166013810E+03  0.00000000000E+00 0. -1.
         11    1    1    2    0    0 -0.44391660222E+01 -0.11746439487E+03  0.24730190026E+03  0.27381712899E+03  0.00000000000E+00 0. -1.
        -15    1    1    2    0    0 -0.35820922580E+00 -0.60546979892E+02 -0.22888313836E+03  0.23676299087E+03  0.17770000000E+01 0.  1.
         15    1    1    2    0    0  0.33554205859E+02  0.73253687040E+02 -0.23428560488E+03  0.24775974205E+03  0.17770000000E+01 0. -1.
</event>
<event>
 7    1  0.4133533E-006  0.3947328E+03  0.7546771E-02  0.9672093E-01
        -11   -1    0    0    0    0  0.00000000000E+00  0.00000000000E+00  0.50000000000E+03  0.50000000000E+03  0.00000000000E+00 0.  1.
         11   -1    0    0    0    0 -0.00000000000E+00 -0.00000000000E+00 -0.50000000000E+03  0.50000000000E+03  0.00000000000E+00 0. -1.
         23    2    1    2    0    0  0.14213442130E+03  0.58636693098E+02  0.70577995463E+02  0.19261061463E+03  0.92071384953E+02 0.  0.
        -11    1    1    2    0    0 -0.28630570528E+03  0.22129273401E+03  0.18076909683E+03  0.40449832802E+03  0.00000000000E+00 0.  1.
         11    1    1    2    0    0  0.14417128398E+03 -0.27992942711E+03 -0.25134709230E+03  0.40289105735E+03  0.00000000000E+00 0. -1.
        -15    1    3    3    0    0 -0.12689119739E+02  0.51698493836E+01  0.13026839847E+02  0.18989401986E+02  0.17770000000E+01 0.  1.
         15    1    3    3    0    0  0.15482354104E+03  0.53466843714E+02  0.57551155616E+02  0.17362121264E+03  0.17770000000E+01 0. -1.
</event>
<event>
 7    1  0.4133533E-006  0.4565204E+03  0.7546771E-02  0.9502726E-01
        -11   -1    0    0    0    0  0.00000000000E+00  0.00000000000E+00  0.50000000000E+03  0.50000000000E+03  0.00000000000E+00 0.  1.
         11   -1    0    0    0    0 -0.00000000000E+00 -0.00000000000E+00 -0.50000000000E+03  0.50000000000E+03  0.00000000000E+00 0. -1.
         23    2    1    2    0    0 -0.11056180579E+02 -0.23924608522E+03 -0.35546364306E+03  0.43856647911E+03  0.92872098266E+02 0.  0.
        -11    1    1    2    0    0 -0.66674331597E+02  0.23055913489E+03  0.40361695771E+03  0.46958452884E+03  0.00000000000E+00 0.  1.
         11    1    1    2    0    0  0.77730512176E+02  0.86869503258E+01 -0.48153314651E+02  0.91848992052E+02  0.00000000000E+00 0. -1.
        -15    1    3    3    0    0  0.91082809813E+01 -0.21665506305E+03 -0.34293791581E+03  0.40574862779E+03  0.17770000000E+01 0. -1.
         15    1    3    3    0    0 -0.20164461561E+02 -0.22591022170E+02 -0.12525727252E+02  0.32817851314E+02  0.17770000000E+01 0.  1.
</event>
<event>
 7    1  0.4133533E-006  0.5127681E+03  0.7546771E-02  0.9371685E-01
        -11   -1    0    0    0    0  0.00000000000E+00  0.00000000000E+00  0.50000000000E+03  0.50000000000E+03  0.00000000000E+00 0.  1.
         11   -1    0    0    0    0 -0.00000000000E+00 -0.00000000000E+00 -0.50000000000E+03  0.50000000000E+03  0.00000000000E+00 0.  1.
         23    2    1    2    0    0  0.98203857556E+02  0.11456261466E+03  0.33088062803E+03  0.37366943366E+03  0.85896829562E+02 0.  0.
        -11    1    1    2    0    0  0.18181088158E+02 -0.29936663818E+02  0.13461683355E+03  0.13909869763E+03  0.00000000000E+00 0.  1.
         11    1    1    2    0    0 -0.11638494571E+03 -0.84625950844E+02 -0.46549746158E+03  0.48723186871E+03  0.00000000000E+00 0.  1.
        -15    1    3    3    0    0  0.10207227432E+03  0.74120043703E+02  0.28878799442E+03  0.31514154520E+03  0.17770000000E+01 0.  1.
         15    1    3    3    0    0 -0.38684167623E+01  0.40442570958E+02  0.42092633613E+02  0.58527888459E+02  0.17770000000E+01 0. -1.
</event>
<event>
 7    1  0.4133533E-006  0.4614468E+03  0.7546771E-02  0.9490464E-01
        -11   -1    0    0    0    0  0.00000000000E+00  0.00000000000E+00  0.50000000000E+03  0.50000000000E+03  0.00000000000E+00 0.  1.
         11   -1    0    0    0    0 -0.00000000000E+00 -0.00000000000E+00 -0.50000000000E+03  0.50000000000E+03  0.00000000000E+00 0. -1.
         23    2    1    2    0    0  0.52930109687E+02  0.11335373758E+03 -0.44208473833E+03  0.47021145564E+03  0.10004614344E+03 0.  0.
        -11    1    1    2    0    0 -0.11771593407E+03 -0.62280485087E+02  0.42521817029E+03  0.44558544893E+03  0.00000000000E+00 0.  1.
         11    1    1    2    0    0  0.64785824388E+02 -0.51073252493E+02  0.16866568039E+02  0.84203095426E+02  0.00000000000E+00 0. -1.
        -15    1    3    3    0    0  0.69193660370E+01 -0.18275847661E+02 -0.75209136421E+02  0.77726804670E+02  0.17770000000E+01 0.  1.
         15    1    3    3    0    0  0.46010743650E+02  0.13162958524E+03 -0.36687560191E+03  0.39248465097E+03  0.17770000000E+01 0. -1.
</event>
<event>
 7    1  0.4133533E-006  0.4522592E+03  0.7546771E-02  0.9513465E-01
        -11   -1    0    0    0    0  0.00000000000E+00  0.00000000000E+00  0.50000000000E+03  0.50000000000E+03  0.00000000000E+00 0. -1.
         11   -1    0    0    0    0 -0.00000000000E+00 -0.00000000000E+00 -0.50000000000E+03  0.50000000000E+03  0.00000000000E+00 0.  1.
         23    2    1    2    0    0 -0.14921758246E+02 -0.11871924597E+02  0.11071654975E+01  0.95280007309E+02  0.93345875723E+02 0.  0.
        -11    1    1    2    0    0 -0.39939886557E+01  0.32936492566E+03  0.31538044417E+03  0.45602854161E+03  0.00000000000E+00 0. -1.
         11    1    1    2    0    0  0.18915746902E+02 -0.31749300106E+03 -0.31648760966E+03  0.44869145108E+03  0.00000000000E+00 0.  1.
        -15    1    3    3    0    0 -0.50043175091E+02  0.51834985344E+01  0.16932584416E+02  0.53113634541E+02  0.17770000000E+01 0. -1.
         15    1    3    3    0    0  0.35121416845E+02 -0.17055423132E+02 -0.15825418919E+02  0.42166372767E+02  0.17770000000E+01 0.  1.
</event>
<event>
 7    1  0.4133533E-006  0.5112642E+03  0.7546771E-02  0.9374952E-01
        -11   -1    0    0    0    0  0.00000000000E+00  0.00000000000E+00  0.50000000000E+03  0.50000000000E+03  0.00000000000E+00 0. -1.
         11   -1    0    0    0    0 -0.00000000000E+00 -0.00000000000E+00 -0.50000000000E+03  0.50000000000E+03  0.00000000000E+00 0. -1.
         23    2    1    2    0    0 -0.35619654288E+02  0.47269570992E+01 -0.33069277139E+03  0.34521717832E+03  0.92336814214E+02 0.  0.
        -11    1    1    2    0    0  0.86675719652E+02  0.51970545359E+02  0.47817259156E+03  0.48873576223E+03  0.00000000000E+00 0. -1.
         11    1    1    2    0    0 -0.51056065364E+02 -0.56697502459E+02 -0.14747982017E+03  0.16604705945E+03  0.00000000000E+00 0. -1.
        -15    1    3    3    0    0 -0.62781638503E+02  0.20191491091E+02 -0.25285022405E+03  0.26131518130E+03  0.17770000000E+01 0. -1.
         15    1    3    3    0    0  0.27161984215E+02 -0.15464533991E+02 -0.77842547337E+02  0.83901997015E+02  0.17770000000E+01 0.  1.
</event>
<event>
 7    1  0.4133533E-006  0.4886348E+03  0.7546771E-02  0.9425606E-01
        -11   -1    0    0    0    0  0.00000000000E+00  0.00000000000E+00  0.50000000000E+03  0.50000000000E+03  0.00000000000E+00 0.  1.
         11   -1    0    0    0    0 -0.00000000000E+00 -0.00000000000E+00 -0.50000000000E+03  0.50000000000E+03  0.00000000000E+00 0. -1.
         23    2    1    2    0    0 -0.92194389318E+02 -0.80563898467E+02 -0.46396022329E+03  0.49645667986E+03  0.12735697478E+03 0.  0.
        -11    1    1    2    0    0  0.12051805385E+03  0.62552630757E+02  0.44442872884E+03  0.46470886363E+03  0.00000000000E+00 0.  1.
         11    1    1    2    0    0 -0.28323664530E+02  0.18011267710E+02  0.19531494456E+02  0.38834456512E+02  0.00000000000E+00 0. -1.
        -15    1    3    3    0    0 -0.28135226477E+02  0.12997247348E+02 -0.17120771873E+02  0.35451346463E+02  0.17770000000E+01 0.  1.
         15    1    3    3    0    0 -0.64059162841E+02 -0.93561145815E+02 -0.44683945142E+03  0.46100533340E+03  0.17770000000E+01 0. -1.
</event>
<event>
 7    1  0.4133533E-006  0.3992276E+03  0.7546771E-02  0.9658686E-01
        -11   -1    0    0    0    0  0.00000000000E+00  0.00000000000E+00  0.50000000000E+03  0.50000000000E+03  0.00000000000E+00 0. -1.
         11   -1    0    0    0    0 -0.00000000000E+00 -0.00000000000E+00 -0.50000000000E+03  0.50000000000E+03  0.00000000000E+00 0.  1.
         23    2    1    2    0    0 -0.10662752750E+03  0.87583185346E+02 -0.35712419809E+03  0.39343076140E+03  0.90608096623E+02 0.  0.
        -11    1    1    2    0    0  0.27022007339E+02  0.76330348638E+02  0.40913477197E+03  0.41707046484E+03  0.00000000000E+00 0. -1.
         11    1    1    2    0    0  0.79605520156E+02 -0.16391353398E+03 -0.52010573878E+02  0.18949877376E+03  0.00000000000E+00 0.  1.
        -15    1    3    3    0    0 -0.26476723163E+02  0.79817247995E+02 -0.16843438212E+03  0.18826871422E+03  0.17770000000E+01 0. -1.
         15    1    3    3    0    0 -0.80150804333E+02  0.77659373508E+01 -0.18868981598E+03  0.20516204717E+03  0.17770000000E+01 0.  1.
</event>
<event>
 7    1  0.4133533E-006  0.5190429E+03  0.7546771E-02  0.9358180E-01
        -11   -1    0    0    0    0  0.00000000000E+00  0.00000000000E+00  0.50000000000E+03  0.50000000000E+03  0.00000000000E+00 0.  1.
         11   -1    0    0    0    0 -0.00000000000E+00 -0.00000000000E+00 -0.50000000000E+03  0.50000000000E+03  0.00000000000E+00 0.  1.
         23    2    1    2    0    0 -0.33471498937E+02  0.20110493240E+02 -0.26961852882E+03  0.28745361503E+03  0.91709631612E+02 0.  0.
        -11    1    1    2    0    0  0.60417901374E+02  0.98051812351E+02  0.46696383680E+03  0.48095707250E+03  0.00000000000E+00 0.  1.
         11    1    1    2    0    0 -0.26946402438E+02 -0.11816230559E+03 -0.19734530798E+03  0.23158931246E+03  0.00000000000E+00 0.  1.
        -15    1    3    3    0    0 -0.19682238779E+01  0.49471599690E+02 -0.89986542683E+02  0.10272316523E+03  0.17770000000E+01 0. -1.
         15    1    3    3    0    0 -0.31503275059E+02 -0.29361106450E+02 -0.17963198614E+03  0.18473044980E+03  0.17770000000E+01 0.  1.
</event>
<event>
 7    1  0.4133533E-006  0.5143391E+03  0.7546771E-02  0.9368284E-01
        -11   -1    0    0    0    0  0.00000000000E+00  0.00000000000E+00  0.50000000000E+03  0.50000000000E+03  0.00000000000E+00 0. -1.
         11   -1    0    0    0    0 -0.00000000000E+00 -0.00000000000E+00 -0.50000000000E+03  0.50000000000E+03  0.00000000000E+00 0. -1.
         23    2    1    2    0    0 -0.89677017531E+02  0.78722952207E+02 -0.34564440058E+03  0.37665464324E+03  0.90329385817E+02 0.  0.
        -11    1    1    2    0    0  0.44571330204E+02 -0.89253014576E+02  0.47530393965E+03  0.48566093021E+03  0.00000000000E+00 0. -1.
         11    1    1    2    0    0  0.45105687327E+02  0.10530062368E+02 -0.12965953907E+03  0.13768442655E+03  0.00000000000E+00 0. -1.
        -15    1    3    3    0    0 -0.26663177783E+02  0.80031012678E+02 -0.16498191039E+03  0.18530536021E+03  0.17770000000E+01 0. -1.
         15    1    3    3    0    0 -0.63013839748E+02 -0.13080604705E+01 -0.18066249019E+03  0.19134928303E+03  0.17770000000E+01 0.  1.
</event>
<event>
 7    1  0.4133533E-006  0.4479718E+03  0.7546771E-02  0.9524399E-01
        -11   -1    0    0    0    0  0.00000000000E+00  0.00000000000E+00  0.50000000000E+03  0.50000000000E+03  0.00000000000E+00 0. -1.
         11   -1    0    0    0    0 -0.00000000000E+00 -0.00000000000E+00 -0.50000000000E+03  0.50000000000E+03  0.00000000000E+00 0. -1.
         23    2    1    2    0    0  0.92478472490E+02  0.16093750884E+03 -0.41014795930E+03  0.45937502058E+03  0.91383321187E+02 0.  0.
        -11    1    1    2    0    0 -0.12830730162E+02 -0.90743620216E+02  0.42379105401E+03  0.43358723425E+03  0.00000000000E+00 0. -1.
         11    1    1    2    0    0 -0.79647742328E+02 -0.70193888622E+02 -0.13643094705E+02  0.10703774517E+03  0.00000000000E+00 0. -1.
        -15    1    3    3    0    0  0.38297125210E+01  0.97974279946E+02 -0.20079580242E+03  0.22346305786E+03  0.17770000000E+01 0. -1.
         15    1    3    3    0    0  0.88648759969E+02  0.62963228892E+02 -0.20935215688E+03  0.23591196273E+03  0.17770000000E+01 0.  1.
</event>
<event>
 7    1  0.4133533E-006  0.5400406E+03  0.7546771E-02  0.9314420E-01
        -11   -1    0    0    0    0  0.00000000000E+00  0.00000000000E+00  0.50000000000E+03  0.50000000000E+03  0.00000000000E+00 0. -1.
         11   -1    0    0    0    0 -0.00000000000E+00 -0.00000000000E+00 -0.50000000000E+03  0.50000000000E+03  0.00000000000E+00 0. -1.
         23    2    1    2    0    0  0.28916362233E+02  0.16257937336E+03  0.13939429566E+03  0.23644396756E+03  0.95951922774E+02 0.  0.
        -11    1    1    2    0    0  0.13613893273E+03 -0.31721183156E+02  0.26950118197E+03  0.30359665602E+03  0.00000000000E+00 0. -1.
         11    1    1    2    0    0 -0.16505529496E+03 -0.13085819021E+03 -0.40889547762E+03  0.45995937642E+03  0.00000000000E+00 0. -1.
        -15    1    3    3    0    0  0.29782756267E+02  0.16710842189E+02  0.63208942611E+02  0.71866494088E+02  0.17770000000E+01 0. -1.
         15    1    3    3    0    0 -0.86639403402E+00  0.14586853117E+03  0.76185353047E+02  0.16457747347E+03  0.17770000000E+01 0.  1.
</event>
<event>
 7    1  0.4133533E-006  0.5255390E+03  0.7546771E-02  0.9344410E-01
        -11   -1    0    0    0    0  0.00000000000E+00  0.00000000000E+00  0.50000000000E+03  0.50000000000E+03  0.00000000000E+00 0.  1.
         11   -1    0    0    0    0 -0.00000000000E+00 -0.00000000000E+00 -0.50000000000E+03  0.50000000000E+03  0.00000000000E+00 0. -1.
         23    2    1    2    0    0 -0.15559002883E+02  0.20781456308E+02 -0.13530800601E+03  0.16582064473E+03  0.92272846665E+02 0.  0.
        -11    1    1    2    0    0  0.24874134977E+03  0.42590913783E+02  0.40177980411E+03  0.47446101633E+03  0.00000000000E+00 0.  1.
         11    1    1    2    0    0 -0.23318234688E+03 -0.63372370092E+02 -0.26647179811E+03  0.35971833895E+03  0.00000000000E+00 0. -1.
        -15    1    3    3    0    0  0.30085614326E+02 -0.17594975967E+02 -0.63544327213E+02  0.72496666259E+02  0.17770000000E+01 0. -1.
         15    1    3    3    0    0 -0.45644617209E+02  0.38376432275E+02 -0.71763678792E+02  0.93323978468E+02  0.17770000000E+01 0.  1.
</event>
<event>
 7    1  0.4133533E-006  0.5149727E+03  0.7546771E-02  0.9366917E-01
        -11   -1    0    0    0    0  0.00000000000E+00  0.00000000000E+00  0.50000000000E+03  0.50000000000E+03  0.00000000000E+00 0. -1.
         11   -1    0    0    0    0 -0.00000000000E+00 -0.00000000000E+00 -0.50000000000E+03  0.50000000000E+03  0.00000000000E+00 0. -1.
         23    2    1    2    0    0 -0.11347783553E+03 -0.28472406142E+02  0.14456178329E+03  0.20517143981E+03  0.86656294975E+02 0.  0.
        -11    1    1    2    0    0 -0.75014152476E+02 -0.15296131949E+02  0.30019276823E+03  0.30980121501E+03  0.00000000000E+00 0. -1.
         11    1    1    2    0    0  0.18849198801E+03  0.43768538092E+02 -0.44475455152E+03  0.48502734518E+03  0.00000000000E+00 0. -1.
        -15    1    3    3    0    0 -0.47137736168E+02  0.24123438841E+02  0.89999561316E+02  0.10443651296E+03  0.17770000000E+01 0.  1.
         15    1    3    3    0    0 -0.66340099363E+02 -0.52595844983E+02  0.54562221975E+02  0.10073492686E+03  0.17770000000E+01 0. -1.
</event>
<event>
 7    1  0.4133533E-006  0.4630733E+03  0.7546771E-02  0.9486452E-01
        -11   -1    0    0    0    0  0.00000000000E+00  0.00000000000E+00  0.50000000000E+03  0.50000000000E+03  0.00000000000E+00 0. -1.
         11   -1    0    0    0    0 -0.00000000000E+00 -0.00000000000E+00 -0.50000000000E+03  0.50000000000E+03  0.00000000000E+00 0.  1.
         23    2    1    2    0    0 -0.16220569911E+02 -0.48826211777E+02 -0.42543762237E+03  0.44294884839E+03  0.11206875531E+03 0.  0.
        -11    1    1    2    0    0 -0.53193036138E+02  0.75230748638E+02  0.46421543798E+03  0.47327068100E+03  0.00000000000E+00 0. -1.
         11    1    1    2    0    0  0.69413606050E+02 -0.26404536861E+02 -0.38777815616E+02  0.83780470610E+02  0.00000000000E+00 0.  1.
        -15    1    3    3    0    0 -0.38466654743E+02  0.80895350134E+01 -0.55732109369E+02  0.68222795660E+02  0.17770000000E+01 0. -1.
         15    1    3    3    0    0  0.22246084832E+02 -0.56915746790E+02 -0.36970551300E+03  0.37472605273E+03  0.17770000000E+01 0.  1.
</event>
<event>
 7    1  0.4133533E-006  0.4166420E+03  0.7546771E-02  0.9608468E-01
        -11   -1    0    0    0    0  0.00000000000E+00  0.00000000000E+00  0.50000000000E+03  0.50000000000E+03  0.00000000000E+00 0. -1.
         11   -1    0    0    0    0 -0.00000000000E+00 -0.00000000000E+00 -0.50000000000E+03  0.50000000000E+03  0.00000000000E+00 0. -1.
         23    2    1    2    0    0  0.42495402892E+02 -0.95021237439E+02  0.74907607801E+02  0.15690558558E+03  0.90406406017E+02 0.  0.
        -11    1    1    2    0    0  0.30504894220E+02  0.12655901917E+03  0.36943020965E+03  0.39169683903E+03  0.00000000000E+00 0. -1.
         11    1    1    2    0    0 -0.73000297112E+02 -0.31537781733E+02 -0.44433781745E+03  0.45139757539E+03  0.00000000000E+00 0. -1.
        -15    1    3    3    0    0 -0.15902389005E+02  0.36436293890E+01  0.29140224177E+02  0.33443570462E+02  0.17770000000E+01 0.  1.
         15    1    3    3    0    0  0.58397791896E+02 -0.98664866828E+02  0.45767383624E+02  0.12346201512E+03  0.17770000000E+01 0. -1.
</event>
<event>
 7    1  0.4133533E-006  0.4580733E+03  0.7546771E-02  0.9498843E-01
        -11   -1    0    0    0    0  0.00000000000E+00  0.00000000000E+00  0.50000000000E+03  0.50000000000E+03  0.00000000000E+00 0. -1.
         11   -1    0    0    0    0 -0.00000000000E+00 -0.00000000000E+00 -0.50000000000E+03  0.50000000000E+03  0.00000000000E+00 0.  1.
         23    2    1    2    0    0 -0.53664746438E+02 -0.57173787237E+02 -0.41552017394E+03  0.43249786618E+03  0.90822036661E+02 0.  0.
        -11    1    1    2    0    0  0.89808803844E+02 -0.23220174938E+01  0.47037193913E+03  0.47887448683E+03  0.00000000000E+00 0. -1.
         11    1    1    2    0    0 -0.36144057406E+02  0.59495804731E+02 -0.54851765192E+02  0.88627646991E+02  0.00000000000E+00 0.  1.
        -15    1    3    3    0    0 -0.49911749926E+02 -0.78695731829E+02 -0.37521467509E+03  0.38661791361E+03  0.17770000000E+01 0.  1.
         15    1    3    3    0    0 -0.37529965125E+01  0.21521944592E+02 -0.40305498848E+02  0.45879952575E+02  0.17770000000E+01 0. -1.
</event>
<event>
 7    1  0.4133533E-006  0.3654784E+03  0.7546771E-02  0.9764288E-01
        -11   -1    0    0    0    0  0.00000000000E+00  0.00000000000E+00  0.50000000000E+03  0.50000000000E+03  0.00000000000E+00 0. -1.
         11   -1    0    0    0    0 -0.00000000000E+00 -0.00000000000E+00 -0.50000000000E+03  0.50000000000E+03  0.00000000000E+00 0.  1.
         23    2    1    2    0    0 -0.56442392063E+02  0.16605765016E+03 -0.24350599683E+03  0.31317663547E+03  0.89574258107E+02 0.  0.
        -11    1    1    2    0    0 -0.44580165536E+02 -0.67058761880E+02  0.43855515007E+03  0.44588663174E+03  0.00000000000E+00 0. -1.
         11    1    1    2    0    0  0.10102255760E+03 -0.98998888284E+02 -0.19504915325E+03  0.24093673279E+03  0.00000000000E+00 0.  1.
        -15    1    3    3    0    0  0.34500539975E+01  0.98528606492E+02 -0.82409064378E+02  0.12850759040E+03  0.17770000000E+01 0.  1.
         15    1    3    3    0    0 -0.59892446061E+02  0.67529043672E+02 -0.16109693245E+03  0.18466904507E+03  0.17770000000E+01 0. -1.
</event>
<event>
 7    1  0.4133533E-006  0.5144822E+03  0.7546771E-02  0.9367975E-01
        -11   -1    0    0    0    0  0.00000000000E+00  0.00000000000E+00  0.50000000000E+03  0.50000000000E+03  0.00000000000E+00 0. -1.
         11   -1    0    0    0    0 -0.00000000000E+00 -0.00000000000E+00 -0.50000000000E+03  0.50000000000E+03  0.00000000000E+00 0.  1.
         23    2    1    2    0    0  0.10162924667E+03 -0.73748924962E+02  0.21415346982E+03  0.26160119358E+03  0.82498897799E+02 0.  0.
        -11    1    1    2    0    0  0.19945879455E+03 -0.27800279866E+02  0.15294494633E+03  0.25288104494E+03  0.00000000000E+00 0. -1.
         11    1    1    2    0    0 -0.30108804122E+03  0.10154920483E+03 -0.36709841615E+03  0.48551776147E+03  0.00000000000E+00 0.  1.
        -15    1    3    3    0    0  0.41584321700E+01 -0.49168220841E+02  0.62538163845E+02  0.79680525631E+02  0.17770000000E+01 0.  1.
         15    1    3    3    0    0  0.97470814498E+02 -0.24580704121E+02  0.15161530597E+03  0.18192066795E+03  0.17770000000E+01 0. -1.
</event>
<event>
 7    1  0.4133533E-006  0.4877150E+03  0.7546771E-02  0.9427726E-01
        -11   -1    0    0    0    0  0.00000000000E+00  0.00000000000E+00  0.50000000000E+03  0.50000000000E+03  0.00000000000E+00 0. -1.
         11   -1    0    0    0    0 -0.00000000000E+00 -0.00000000000E+00 -0.50000000000E+03  0.50000000000E+03  0.00000000000E+00 0. -1.
         23    2    1    2    0    0  0.10592457774E+03 -0.12779032477E+02 -0.46769672661E+03  0.49112841897E+03  0.10527856378E+03 0.  0.
        -11    1    1    2    0    0 -0.13391929052E+03  0.28918497314E+02  0.45319738951E+03  0.47345383061E+03  0.00000000000E+00 0. -1.
         11    1    1    2    0    0  0.27994712775E+02 -0.16139464836E+02  0.14499337098E+02  0.35417750420E+02  0.00000000000E+00 0. -1.
        -15    1    3    3    0    0  0.57664740624E+02 -0.49523223341E+02 -0.35583574063E+03  0.36386811347E+03  0.17770000000E+01 0.  1.
         15    1    3    3    0    0  0.48259837118E+02  0.36744190863E+02 -0.11186098598E+03  0.12726030549E+03  0.17770000000E+01 0. -1.
</event>
<event>
 7    1  0.4133533E-006  0.5345862E+03  0.7546771E-02  0.9325581E-01
        -11   -1    0    0    0    0  0.00000000000E+00  0.00000000000E+00  0.50000000000E+03  0.50000000000E+03  0.00000000000E+00 0. -1.
         11   -1    0    0    0    0 -0.00000000000E+00 -0.00000000000E+00 -0.50000000000E+03  0.50000000000E+03  0.00000000000E+00 0.  1.
         23    2    1    2    0    0 -0.68110479622E+02 -0.43912155271E+02  0.70002014580E+02  0.14054576082E+03  0.91024798949E+02 0.  0.
        -11    1    1    2    0    0 -0.13017551057E+02  0.70089872401E+02  0.38753813717E+03  0.39404042256E+03  0.00000000000E+00 0. -1.
         11    1    1    2    0    0  0.81128030679E+02 -0.26177717130E+02 -0.45754015175E+03  0.46541381662E+03  0.00000000000E+00 0.  1.
        -15    1    3    3    0    0 -0.50083156485E+02  0.20698007299E+02  0.37949281911E+02  0.66181838870E+02  0.17770000000E+01 0.  1.
         15    1    3    3    0    0 -0.18027323137E+02 -0.64610162570E+02  0.32052732669E+02  0.74363921948E+02  0.17770000000E+01 0. -1.
</event>
<event>
 7    1  0.4133533E-006  0.5168100E+03  0.7546771E-02  0.9362962E-01
        -11   -1    0    0    0    0  0.00000000000E+00  0.00000000000E+00  0.50000000000E+03  0.50000000000E+03  0.00000000000E+00 0.  1.
         11   -1    0    0    0    0 -0.00000000000E+00 -0.00000000000E+00 -0.50000000000E+03  0.50000000000E+03  0.00000000000E+00 0. -1.
         23    2    1    2    0    0  0.46056780231E+03  0.94131802936E+02 -0.75629190540E+02  0.48318998625E+03  0.82275704187E+02 0.  0.
        -11    1    1    2    0    0 -0.16426766907E+03  0.52234933444E+02  0.70658419492E+02  0.18629269341E+03  0.00000000000E+00 0.  1.
         11    1    1    2    0    0 -0.29630013324E+03 -0.14636673638E+03  0.49707710477E+01  0.33051732034E+03  0.00000000000E+00 0. -1.
        -15    1    3    3    0    0  0.30440583337E+02  0.55751240192E+01  0.15538188621E+02  0.34674257835E+02  0.17770000000E+01 0. -1.
         15    1    3    3    0    0  0.43012721898E+03  0.88556678917E+02 -0.91167379160E+02  0.44851572842E+03  0.17770000000E+01 0.  1.
</event>
<event>
 7    1  0.4133533E-006  0.3185247E+03  0.7546771E-02  0.9933460E-01
        -11   -1    0    0    0    0  0.00000000000E+00  0.00000000000E+00  0.50000000000E+03  0.50000000000E+03  0.00000000000E+00 0.  1.
         11   -1    0    0    0    0 -0.00000000000E+00 -0.00000000000E+00 -0.50000000000E+03  0.50000000000E+03  0.00000000000E+00 0. -1.
         23    2    1    2    0    0 -0.90964817491E+02 -0.29144983529E+02  0.31003778313E+03  0.34553074308E+03  0.11892871545E+03 0.  0.
        -11    1    1    2    0    0  0.21993438509E+02 -0.26909383384E+03 -0.15534781307E+03  0.31149341208E+03  0.00000000000E+00 0. -1.
         11    1    1    2    0    0  0.68971378982E+02  0.29823881737E+03 -0.15468997006E+03  0.34297584483E+03  0.00000000000E+00 0.  1.
        -15    1    3    3    0    0 -0.57593203153E+02 -0.40428212547E+02  0.30099772589E+03  0.30911843384E+03  0.17770000000E+01 0.  1.
         15    1    3    3    0    0 -0.33371614338E+02  0.11283229018E+02  0.90400572455E+01  0.36412309246E+02  0.17770000000E+01 0. -1.
</event>
<event>
 7    1  0.4133533E-006  0.5215798E+03  0.7546771E-02  0.9352777E-01
        -11   -1    0    0    0    0  0.00000000000E+00  0.00000000000E+00  0.50000000000E+03  0.50000000000E+03  0.00000000000E+00 0.  1.
         11   -1    0    0    0    0 -0.00000000000E+00 -0.00000000000E+00 -0.50000000000E+03  0.50000000000E+03  0.00000000000E+00 0. -1.
         23    2    1    2    0    0  0.35192441233E+03  0.15892395473E+03  0.15383021923E+03  0.42498405023E+03  0.88544289582E+02 0.  0.
        -11    1    1    2    0    0  0.13048901470E+02  0.30471481243E+02  0.90730100778E+02  0.96595735857E+02  0.00000000000E+00 0.  1.
         11    1    1    2    0    0 -0.36497331380E+03 -0.18939543598E+03 -0.24456032001E+03  0.47842021391E+03  0.00000000000E+00 0. -1.
        -15    1    3    3    0    0  0.16598967230E+03  0.57064068986E+02  0.11387910363E+03  0.20923787242E+03  0.17770000000E+01 0. -1.
         15    1    3    3    0    0  0.18593474003E+03  0.10185988575E+03  0.39951115600E+02  0.21574617781E+03  0.17770000000E+01 0.  1.
</event>
<event>
 7    1  0.4133533E-006  0.5124807E+03  0.7546771E-02  0.9372308E-01
        -11   -1    0    0    0    0  0.00000000000E+00  0.00000000000E+00  0.50000000000E+03  0.50000000000E+03  0.00000000000E+00 0. -1.
         11   -1    0    0    0    0 -0.00000000000E+00 -0.00000000000E+00 -0.50000000000E+03  0.50000000000E+03  0.00000000000E+00 0.  1.
         23    2    1    2    0    0 -0.21168464251E+02  0.12275368478E+03 -0.19153163643E+03  0.24610487705E+03  0.91469512673E+02 0.  0.
        -11    1    1    2    0    0  0.13414007792E+03 -0.25699982656E+03  0.39195989558E+03  0.48751926229E+03  0.00000000000E+00 0. -1.
         11    1    1    2    0    0 -0.11297161367E+03  0.13424614179E+03 -0.20042825915E+03  0.26637586067E+03  0.00000000000E+00 0.  1.
        -15    1    3    3    0    0  0.98077123888E+01  0.12300116005E+03 -0.14925388603E+03  0.19366299807E+03  0.17770000000E+01 0.  1.
         15    1    3    3    0    0 -0.30976176639E+02 -0.24747527547E+00 -0.42277750394E+02  0.52441878976E+02  0.17770000000E+01 0. -1.
</event>
<event>
 7    1  0.4133533E-006  0.5190203E+03  0.7546771E-02  0.9358228E-01
        -11   -1    0    0    0    0  0.00000000000E+00  0.00000000000E+00  0.50000000000E+03  0.50000000000E+03  0.00000000000E+00 0.  1.
         11   -1    0    0    0    0 -0.00000000000E+00 -0.00000000000E+00 -0.50000000000E+03  0.50000000000E+03  0.00000000000E+00 0. -1.
         23    2    1    2    0    0 -0.51819416201E+02 -0.54707138391E+01 -0.22642443844E+03  0.25068657650E+03  0.94130508903E+02 0.  0.
        -11    1    1    2    0    0  0.22010176273E+03 -0.67387276711E+02  0.42232173210E+03  0.48097970479E+03  0.00000000000E+00 0.  1.
         11    1    1    2    0    0 -0.16828234653E+03  0.72857990550E+02 -0.19589729365E+03  0.26833371872E+03  0.00000000000E+00 0. -1.
        -15    1    3    3    0    0 -0.43467469081E+02 -0.45954264312E+02 -0.10715987658E+03  0.12444923525E+03  0.17770000000E+01 0.  1.
         15    1    3    3    0    0 -0.83519471201E+01  0.40483550473E+02 -0.11926456187E+03  0.12623734125E+03  0.17770000000E+01 0. -1.
</event>
<event>
 7    1  0.1500470E-005  0.5061597E+03  0.7546771E-02  0.9386132E-01
        -11   -1    0    0    0    0  0.00000000000E+00  0.00000000000E+00  0.50000000000E+03  0.50000000000E+03  0.00000000000E+00 0. -1.
         11   -1    0    0    0    0 -0.00000000000E+00 -0.00000000000E+00 -0.50000000000E+03  0.50000000000E+03  0.00000000000E+00 0. -1.
         23    2    1    2    0    0 -0.27417104499E+02 -0.48401491087E+02  0.35549201426E+03  0.37139751130E+03  0.92017048656E+02 0.  0.
        -11    1    1    2    0    0 -0.25119750495E+02 -0.24748684342E+02  0.13006665544E+03  0.13476213897E+03  0.00000000000E+00 0. -1.
         11    1    1    2    0    0  0.52536854995E+02  0.73150175429E+02 -0.48555866970E+03  0.49384034973E+03  0.00000000000E+00 0. -1.
        -15    1    3    3    0    0  0.79980167442E+01 -0.66743884580E+02  0.20813988710E+03  0.21873290729E+03  0.17770000000E+01 0.  1.
         15    1    3    3    0    0 -0.35415121244E+02  0.18342393493E+02  0.14735212716E+03  0.15266460402E+03  0.17770000000E+01 0. -1.
</event>
<event>
 6    1  0.4133533E-006  0.4667223E+03  0.7546771E-02  0.9477513E-01
        -11   -1    0    0    0    0  0.00000000000E+00  0.00000000000E+00  0.50000000000E+03  0.50000000000E+03  0.00000000000E+00 0.  1.
         11   -1    0    0    0    0 -0.00000000000E+00 -0.00000000000E+00 -0.50000000000E+03  0.50000000000E+03  0.00000000000E+00 0. -1.
        -11    1    1    2    0    0  0.41881172884E+02  0.10784660406E+03  0.40907883901E+03  0.42512400446E+03  0.00000000000E+00 0.  1.
         11    1    1    2    0    0 -0.57802556185E+02  0.53941197656E+02  0.30763679381E+02  0.84836267451E+02  0.00000000000E+00 0. -1.
        -15    1    1    2    0    0 -0.32323761978E+02 -0.14321089598E+02 -0.16305908950E+02  0.38973832136E+02  0.17770000000E+01 0.  1.
         15    1    1    2    0    0  0.48245145279E+02 -0.14746671212E+03 -0.42353660944E+03  0.45106589595E+03  0.17770000000E+01 0. -1.
</event>
<event>
 7    1  0.4133533E-006  0.5349255E+03  0.7546771E-02  0.9324883E-01
        -11   -1    0    0    0    0  0.00000000000E+00  0.00000000000E+00  0.50000000000E+03  0.50000000000E+03  0.00000000000E+00 0. -1.
         11   -1    0    0    0    0 -0.00000000000E+00 -0.00000000000E+00 -0.50000000000E+03  0.50000000000E+03  0.00000000000E+00 0.  1.
         23    2    1    2    0    0  0.16501509010E+02  0.10809017307E+02 -0.17656992962E+03  0.19921166655E+03  0.90106677818E+02 0.  0.
        -11    1    1    2    0    0  0.95948033031E+02  0.20856247016E+03  0.40446253819E+03  0.46507448199E+03  0.00000000000E+00 0. -1.
         11    1    1    2    0    0 -0.11244954204E+03 -0.21937148747E+03 -0.22789260857E+03  0.33571385146E+03  0.00000000000E+00 0.  1.
        -15    1    3    3    0    0  0.43944611725E+02  0.61409004054E+01 -0.16152685640E+03  0.16751991710E+03  0.17770000000E+01 0.  1.
         15    1    3    3    0    0 -0.27443102715E+02  0.46681169016E+01 -0.15043073218E+02  0.31691749445E+02  0.17770000000E+01 0. -1.
</event>
<event>
 7    1  0.4133533E-006  0.4589191E+03  0.7546771E-02  0.9496735E-01
        -11   -1    0    0    0    0  0.00000000000E+00  0.00000000000E+00  0.50000000000E+03  0.50000000000E+03  0.00000000000E+00 0. -1.
         11   -1    0    0    0    0 -0.00000000000E+00 -0.00000000000E+00 -0.50000000000E+03  0.50000000000E+03  0.00000000000E+00 0. -1.
         23    2    1    2    0    0  0.83125307403E+02  0.66015585139E+02 -0.45322344160E+03  0.47587119040E+03  0.98863682062E+02 0.  0.
        -11    1    1    2    0    0 -0.89262440476E+02  0.18055987653E+02  0.42588183276E+03  0.43551020361E+03  0.00000000000E+00 0. -1.
         11    1    1    2    0    0  0.61371330736E+01 -0.84071572792E+02  0.27341608834E+02  0.88618605991E+02  0.00000000000E+00 0. -1.
        -15    1    3    3    0    0 -0.12263271073E+02  0.10519331201E+02 -0.99376865844E+01  0.19051495742E+02  0.17770000000E+01 0.  1.
         15    1    3    3    0    0  0.95388578476E+02  0.55496253938E+02 -0.44328575501E+03  0.45681969466E+03  0.17770000000E+01 0. -1.
</event>
<event>
 7    1  0.4133533E-006  0.5088602E+03  0.7546771E-02  0.9380200E-01
        -11   -1    0    0    0    0  0.00000000000E+00  0.00000000000E+00  0.50000000000E+03  0.50000000000E+03  0.00000000000E+00 0.  1.
         11   -1    0    0    0    0 -0.00000000000E+00 -0.00000000000E+00 -0.50000000000E+03  0.50000000000E+03  0.00000000000E+00 0. -1.
         23    2    1    2    0    0  0.46540596776E+02 -0.52714221799E+02 -0.36462393491E+03  0.38530982765E+03  0.10280191170E+03 0.  0.
        -11    1    1    2    0    0 -0.28203261130E+02  0.79368275386E+02  0.48386317010E+03  0.49113981152E+03  0.00000000000E+00 0.  1.
         11    1    1    2    0    0 -0.18337335646E+02 -0.26654053587E+02 -0.11923923519E+03  0.12355036083E+03  0.00000000000E+00 0. -1.
        -15    1    3    3    0    0 -0.19387525138E+02 -0.11014661221E+02 -0.14641248064E+02  0.26734299442E+02  0.17770000000E+01 0.  1.
         15    1    3    3    0    0  0.65928121913E+02 -0.41699560578E+02 -0.34998268685E+03  0.35857552821E+03  0.17770000000E+01 0. -1.
</event>
<event>
 7    1  0.4133533E-006  0.4598504E+03  0.7546771E-02  0.9494420E-01
        -11   -1    0    0    0    0  0.00000000000E+00  0.00000000000E+00  0.50000000000E+03  0.50000000000E+03  0.00000000000E+00 0.  1.
         11   -1    0    0    0    0 -0.00000000000E+00 -0.00000000000E+00 -0.50000000000E+03  0.50000000000E+03  0.00000000000E+00 0. -1.
         23    2    1    2    0    0 -0.10603539998E+03 -0.44461435338E+02 -0.43382203693E+03  0.45793496973E+03  0.91008524309E+02 0.  0.
        -11    1    1    2    0    0  0.18494408723E+03  0.16340147359E+02  0.41721981570E+03  0.45666584110E+03  0.00000000000E+00 0.  1.
         11    1    1    2    0    0 -0.78908687246E+02  0.28121287979E+02  0.16602221224E+02  0.85399189165E+02  0.00000000000E+00 0. -1.
        -15    1    3    3    0    0 -0.12062157467E+03 -0.50435086729E+02 -0.38937809085E+03  0.41074531965E+03  0.17770000000E+01 0. -1.
         15    1    3    3    0    0  0.14586174690E+02  0.59736513913E+01 -0.44443946078E+02  0.47189650084E+02  0.17770000000E+01 0.  1.
</event>
<event>
 7    1  0.4133533E-006  0.3204613E+03  0.7546771E-02  0.9925876E-01
        -11   -1    0    0    0    0  0.00000000000E+00  0.00000000000E+00  0.50000000000E+03  0.50000000000E+03  0.00000000000E+00 0.  1.
         11   -1    0    0    0    0 -0.00000000000E+00 -0.00000000000E+00 -0.50000000000E+03  0.50000000000E+03  0.00000000000E+00 0. -1.
         23    2    1    2    0    0 -0.20800628820E+03 -0.18759625780E+03 -0.10029427416E+03  0.31416985818E+03  0.10091970317E+03 0.  0.
        -11    1    1    2    0    0 -0.72672880902E+02  0.19649337566E+02  0.29548754842E+03  0.30492677048E+03  0.00000000000E+00 0.  1.
         11    1    1    2    0    0  0.28067916910E+03  0.16794692023E+03 -0.19519327425E+03  0.38090337134E+03  0.00000000000E+00 0. -1.
        -15    1    3    3    0    0 -0.57771079191E+02 -0.85959486317E+02  0.62982763644E+01  0.10377551201E+03  0.17770000000E+01 0.  1.
         15    1    3    3    0    0 -0.15023520901E+03 -0.10163677148E+03 -0.10659255053E+03  0.21039434617E+03  0.17770000000E+01 0. -1.
</event>
<event>
 7    1  0.4133533E-006  0.3644776E+03  0.7546771E-02  0.9767604E-01
        -11   -1    0    0    0    0  0.00000000000E+00  0.00000000000E+00  0.50000000000E+03  0.50000000000E+03  0.00000000000E+00 0. -1.
         11   -1    0    0    0    0 -0.00000000000E+00 -0.00000000000E+00 -0.50000000000E+03  0.50000000000E+03  0.00000000000E+00 0.  1.
         23    2    1    2    0    0  0.47979793077E+02  0.86735841676E+02 -0.19637675801E+03  0.23857719392E+03  0.92358430021E+02 0.  0.
        -11    1    1    2    0    0  0.18380252604E+03 -0.16370944522E+03  0.38215728879E+03  0.45456390575E+03  0.00000000000E+00 0. -1.
         11    1    1    2    0    0 -0.23178231912E+03  0.76973603539E+02 -0.18578053078E+03  0.30685890034E+03  0.00000000000E+00 0.  1.
        -15    1    3    3    0    0 -0.45248641143E+01 -0.17005579651E+02 -0.15347128249E+02  0.23417006832E+02  0.17770000000E+01 0. -1.
         15    1    3    3    0    0  0.52504657191E+02  0.10374142133E+03 -0.18102962976E+03  0.21516018708E+03  0.17770000000E+01 0.  1.
</event>
<event>
 7    1  0.4133533E-006  0.4456971E+03  0.7546771E-02  0.9530253E-01
        -11   -1    0    0    0    0  0.00000000000E+00  0.00000000000E+00  0.50000000000E+03  0.50000000000E+03  0.00000000000E+00 0.  1.
         11   -1    0    0    0    0 -0.00000000000E+00 -0.00000000000E+00 -0.50000000000E+03  0.50000000000E+03  0.00000000000E+00 0. -1.
         23    2    1    2    0    0  0.10171785079E+03  0.74279379134E+02 -0.42032173076E+03  0.44823239348E+03  0.91531272713E+02 0.  0.
        -11    1    1    2    0    0  0.17586796384E+01 -0.11447826701E+03  0.42550198580E+03  0.44063625191E+03  0.00000000000E+00 0.  1.
         11    1    1    2    0    0 -0.10347653043E+03  0.40198887878E+02 -0.51802550448E+01  0.11113135461E+03  0.00000000000E+00 0. -1.
        -15    1    3    3    0    0  0.36589022918E+02 -0.15054047405E+02 -0.65103876170E+02  0.76204024583E+02  0.17770000000E+01 0.  1.
         15    1    3    3    0    0  0.65128827871E+02  0.89333426540E+02 -0.35521785459E+03  0.37202836890E+03  0.17770000000E+01 0. -1.
</event>
<event>
 7    1  0.4133533E-006  0.4369061E+03  0.7546771E-02  0.9553231E-01
        -11   -1    0    0    0    0  0.00000000000E+00  0.00000000000E+00  0.50000000000E+03  0.50000000000E+03  0.00000000000E+00 0.  1.
         11   -1    0    0    0    0 -0.00000000000E+00 -0.00000000000E+00 -0.50000000000E+03  0.50000000000E+03  0.00000000000E+00 0. -1.
         23    2    1    2    0    0  0.13875234334E+03  0.37529435679E+02 -0.37154916006E+03  0.40880719781E+03  0.91727178705E+02 0.  0.
        -11    1    1    2    0    0 -0.51439806140E+02 -0.74398210714E+02  0.45561403706E+03  0.46450543396E+03  0.00000000000E+00 0.  1.
         11    1    1    2    0    0 -0.87312537203E+02  0.36868775035E+02 -0.84064876998E+02  0.12668736823E+03  0.00000000000E+00 0. -1.
        -15    1    3    3    0    0  0.27017170352E+02 -0.11733327917E+02 -0.17453090397E+03  0.17700788866E+03  0.17770000000E+01 0.  1.
         15    1    3    3    0    0  0.11173517299E+03  0.49262763596E+02 -0.19701825609E+03  0.23179930915E+03  0.17770000000E+01 0. -1.
</event>
<event>
 7    1  0.4133533E-006  0.4441066E+03  0.7546771E-02  0.9534368E-01
        -11   -1    0    0    0    0  0.00000000000E+00  0.00000000000E+00  0.50000000000E+03  0.50000000000E+03  0.00000000000E+00 0.  1.
         11   -1    0    0    0    0 -0.00000000000E+00 -0.00000000000E+00 -0.50000000000E+03  0.50000000000E+03  0.00000000000E+00 0. -1.
         23    2    1    2    0    0  0.16509133982E+02  0.28152880817E+02 -0.40388594245E+03  0.41523980673E+03  0.90747486949E+02 0.  0.
        -11    1    1    2    0    0 -0.85106380860E+02  0.42255890347E+02  0.46125726904E+03  0.47094259159E+03  0.00000000000E+00 0.  1.
         11    1    1    2    0    0  0.68597246879E+02 -0.70408771164E+02 -0.57371326593E+02  0.11381760168E+03  0.00000000000E+00 0. -1.
        -15    1    3    3    0    0 -0.34342038434E+02  0.70772971070E+01 -0.90885662648E+02  0.97431130252E+02  0.17770000000E+01 0.  1.
         15    1    3    3    0    0  0.50851172415E+02  0.21075583710E+02 -0.31300027980E+03  0.31780867648E+03  0.17770000000E+01 0. -1.
</event>
<event>
 7    1  0.4133533E-006  0.5005316E+03  0.7546771E-02  0.9398621E-01
        -11   -1    0    0    0    0  0.00000000000E+00  0.00000000000E+00  0.50000000000E+03  0.50000000000E+03  0.00000000000E+00 0.  1.
         11   -1    0    0    0    0 -0.00000000000E+00 -0.00000000000E+00 -0.50000000000E+03  0.50000000000E+03  0.00000000000E+00 0. -1.
         23    2    1    2    0    0  0.50154375708E+02 -0.72240169584E+02 -0.48256172924E+03  0.49946837460E+03  0.94173941157E+02 0.  0.
        -11    1    1    2    0    0 -0.11242657159E+02  0.77632440938E+02  0.41526045085E+03  0.42260434838E+03  0.00000000000E+00 0.  1.
         11    1    1    2    0    0 -0.38911718549E+02 -0.53922713540E+01  0.67301278391E+02  0.77927277021E+02  0.00000000000E+00 0. -1.
        -15    1    3    3    0    0 -0.16533365917E+02 -0.44256499029E+02 -0.10665513239E+03  0.11666389711E+03  0.17770000000E+01 0.  1.
         15    1    3    3    0    0  0.66687741625E+02 -0.27983670554E+02 -0.37590659685E+03  0.38280447749E+03  0.17770000000E+01 0. -1.
</event>
<event>
 7    1  0.4133533E-006  0.4578878E+03  0.7546771E-02  0.9499306E-01
        -11   -1    0    0    0    0  0.00000000000E+00  0.00000000000E+00  0.50000000000E+03  0.50000000000E+03  0.00000000000E+00 0. -1.
         11   -1    0    0    0    0 -0.00000000000E+00 -0.00000000000E+00 -0.50000000000E+03  0.50000000000E+03  0.00000000000E+00 0.  1.
         23    2    1    2    0    0 -0.53803538949E+02 -0.17898203887E+03 -0.40221217858E+03  0.46132457608E+03  0.12695013534E+03 0.  0.
        -11    1    1    2    0    0  0.50193787828E+02  0.86254912906E+02  0.43029955119E+03  0.44172053393E+03  0.00000000000E+00 0. -1.
         11    1    1    2    0    0  0.36097511206E+01  0.92727125960E+02 -0.28087372616E+02  0.96954889987E+02  0.00000000000E+00 0.  1.
        -15    1    3    3    0    0  0.24970346675E+02 -0.36226393151E+02 -0.25614365806E+02  0.50942352110E+02  0.17770000000E+01 0. -1.
         15    1    3    3    0    0 -0.78773885624E+02 -0.14275564571E+03 -0.37659781277E+03  0.41038222397E+03  0.17770000000E+01 0.  1.
</event>
<event>
 7    1  0.4133533E-006  0.4923836E+03  0.7546771E-02  0.9417015E-01
        -11   -1    0    0    0    0  0.00000000000E+00  0.00000000000E+00  0.50000000000E+03  0.50000000000E+03  0.00000000000E+00 0.  1.
         11   -1    0    0    0    0 -0.00000000000E+00 -0.00000000000E+00 -0.50000000000E+03  0.50000000000E+03  0.00000000000E+00 0. -1.
         23    2    1    2    0    0  0.13437561531E+03  0.18096911603E+03 -0.42640481018E+03  0.49203390888E+03  0.97312272557E+02 0.  0.
        -11    1    1    2    0    0 -0.14741658102E+03 -0.16066472109E+03  0.43135297733E+03  0.48333238254E+03  0.00000000000E+00 0.  1.
         11    1    1    2    0    0  0.13040965710E+02 -0.20304394939E+02 -0.49481671429E+01  0.24633708584E+02  0.00000000000E+00 0. -1.
        -15    1    3    3    0    0  0.41094903512E+02  0.87321687520E+02 -0.95863917451E+02  0.13604012865E+03  0.17770000000E+01 0.  1.
         15    1    3    3    0    0  0.93280711800E+02  0.93647428509E+02 -0.33054089273E+03  0.35599378022E+03  0.17770000000E+01 0. -1.
</event>
<event>
 7    1  0.4133533E-006  0.4186334E+03  0.7546771E-02  0.9602893E-01
        -11   -1    0    0    0    0  0.00000000000E+00  0.00000000000E+00  0.50000000000E+03  0.50000000000E+03  0.00000000000E+00 0.  1.
         11   -1    0    0    0    0 -0.00000000000E+00 -0.00000000000E+00 -0.50000000000E+03  0.50000000000E+03  0.00000000000E+00 0. -1.
         23    2    1    2    0    0  0.39939029127E+02 -0.70539776340E+02 -0.92103542098E+02  0.15379089313E+03  0.92723191540E+02 0.  0.
        -11    1    1    2    0    0 -0.23407962552E+03 -0.27469885109E+03  0.22866434740E+03  0.42724713416E+03  0.00000000000E+00 0.  1.
         11    1    1    2    0    0  0.19414059639E+03  0.34523862743E+03 -0.13656080530E+03  0.41896197271E+03  0.00000000000E+00 0. -1.
        -15    1    3    3    0    0 -0.82266112575E+01  0.94220222547E+01  0.94981454260E+01  0.15805825878E+02  0.17770000000E+01 0.  1.
         15    1    3    3    0    0  0.48165640385E+02 -0.79961798595E+02 -0.10160168752E+03  0.13798506725E+03  0.17770000000E+01 0. -1.
</event>
<event>
 7    1  0.4133533E-006  0.5302559E+03  0.7546771E-02  0.9334544E-01
        -11   -1    0    0    0    0  0.00000000000E+00  0.00000000000E+00  0.50000000000E+03  0.50000000000E+03  0.00000000000E+00 0. -1.
         11   -1    0    0    0    0 -0.00000000000E+00 -0.00000000000E+00 -0.50000000000E+03  0.50000000000E+03  0.00000000000E+00 0.  1.
         23    2    1    2    0    0 -0.80902069372E+02 -0.22147996147E+02 -0.17337299824E+03  0.21216615657E+03  0.88997769148E+02 0.  0.
        -11    1    1    2    0    0  0.17920476392E+01 -0.86329861504E+02  0.46173955842E+03  0.46974405396E+03  0.00000000000E+00 0. -1.
         11    1    1    2    0    0  0.79110021733E+02  0.10847785765E+03 -0.28836656018E+03  0.31808978947E+03  0.00000000000E+00 0.  1.
        -15    1    3    3    0    0 -0.98904658492E+02 -0.14182002451E+02 -0.15872676688E+03  0.18756493521E+03  0.17770000000E+01 0.  1.
         15    1    3    3    0    0  0.18002589121E+02 -0.79659936959E+01 -0.14646231354E+02  0.24601221362E+02  0.17770000000E+01 0. -1.
</event>
<event>
 7    1  0.4133533E-006  0.5162563E+03  0.7546771E-02  0.9364152E-01
        -11   -1    0    0    0    0  0.00000000000E+00  0.00000000000E+00  0.50000000000E+03  0.50000000000E+03  0.00000000000E+00 0. -1.
         11   -1    0    0    0    0 -0.00000000000E+00 -0.00000000000E+00 -0.50000000000E+03  0.50000000000E+03  0.00000000000E+00 0.  1.
         23    2    1    2    0    0 -0.33588774072E+02 -0.19170569755E+02  0.19962106584E+03  0.22871649057E+03  0.10472319057E+03 0.  0.
        -11    1    1    2    0    0 -0.79019066188E+02  0.65853139497E+02  0.26851160532E+03  0.28753979028E+03  0.00000000000E+00 0. -1.
         11    1    1    2    0    0  0.11260784026E+03 -0.46682569742E+02 -0.46813267116E+03  0.48374371915E+03  0.00000000000E+00 0.  1.
        -15    1    3    3    0    0 -0.25540995251E+02  0.41032045250E+02  0.65020293090E+02  0.81035593527E+02  0.17770000000E+01 0. -1.
         15    1    3    3    0    0 -0.80477788206E+01 -0.60202615005E+02  0.13460077275E+03  0.14768089704E+03  0.17770000000E+01 0.  1.
</event>
<event>
 7    1  0.4133533E-006  0.5126899E+03  0.7546771E-02  0.9371854E-01
        -11   -1    0    0    0    0  0.00000000000E+00  0.00000000000E+00  0.50000000000E+03  0.50000000000E+03  0.00000000000E+00 0. -1.
         11   -1    0    0    0    0 -0.00000000000E+00 -0.00000000000E+00 -0.50000000000E+03  0.50000000000E+03  0.00000000000E+00 0.  1.
         23    2    1    2    0    0 -0.33447050659E+02 -0.55848531148E+02  0.18061719735E+03  0.21266772690E+03  0.91472544821E+02 0.  0.
        -11    1    1    2    0    0 -0.83746007731E+02 -0.87056077360E+01  0.28796546228E+03  0.30002214732E+03  0.00000000000E+00 0. -1.
         11    1    1    2    0    0  0.11719305839E+03  0.64554138884E+02 -0.46858265963E+03  0.48731012578E+03  0.00000000000E+00 0.  1.
        -15    1    3    3    0    0 -0.25146578158E+02 -0.56226712038E+01  0.15212583426E+03  0.15430292286E+03  0.17770000000E+01 0.  1.
         15    1    3    3    0    0 -0.83004725010E+01 -0.50225859944E+02  0.28491363092E+02  0.58364804040E+02  0.17770000000E+01 0. -1.
</event>
<event>
 7    1  0.4133533E-006  0.3743027E+03  0.7546771E-02  0.9735532E-01
        -11   -1    0    0    0    0  0.00000000000E+00  0.00000000000E+00  0.50000000000E+03  0.50000000000E+03  0.00000000000E+00 0. -1.
         11   -1    0    0    0    0 -0.00000000000E+00 -0.00000000000E+00 -0.50000000000E+03  0.50000000000E+03  0.00000000000E+00 0. -1.
         23    2    1    2    0    0  0.24071081570E+03  0.28046925181E+03  0.29719084747E+02  0.38166864237E+03  0.90460104818E+02 0.  0.
        -11    1    1    2    0    0 -0.42566163170E+02 -0.37831156279E+03 -0.86000835390E+02  0.39029176327E+03  0.00000000000E+00 0. -1.
         11    1    1    2    0    0 -0.19814465253E+03  0.97842310974E+02  0.56281750643E+02  0.22803959436E+03  0.00000000000E+00 0. -1.
        -15    1    3    3    0    0  0.18913637394E+03  0.22280487152E+03  0.60374496048E+02  0.29843393946E+03  0.17770000000E+01 0. -1.
         15    1    3    3    0    0  0.51574441760E+02  0.57664380290E+02 -0.30655411301E+02  0.83234702908E+02  0.17770000000E+01 0.  1.
</event>
<event>
 7    1  0.4133533E-006  0.5095086E+03  0.7546771E-02  0.9378781E-01
        -11   -1    0    0    0    0  0.00000000000E+00  0.00000000000E+00  0.50000000000E+03  0.50000000000E+03  0.00000000000E+00 0. -1.
         11   -1    0    0    0    0 -0.00000000000E+00 -0.00000000000E+00 -0.50000000000E+03  0.50000000000E+03  0.00000000000E+00 0.  1.
         23    2    1    2    0    0  0.52474497978E+01 -0.17663030782E+03  0.26783732877E+03  0.33400699845E+03  0.92725611140E+02 0.  0.
        -11    1    1    2    0    0 -0.32064278890E+02 -0.55683034798E+02  0.16331595912E+03  0.17550162634E+03  0.00000000000E+00 0. -1.
         11    1    1    2    0    0  0.26816829093E+02  0.23231334262E+03 -0.43115328790E+03  0.49049137520E+03  0.00000000000E+00 0.  1.
        -15    1    3    3    0    0 -0.19769822195E+02 -0.48795247529E+02  0.24726981066E+02  0.58192812036E+02  0.17770000000E+01 0.  1.
         15    1    3    3    0    0  0.25017271993E+02 -0.12783506029E+03  0.24311034771E+03  0.27581418642E+03  0.17770000000E+01 0. -1.
</event>
<event>
 7    1  0.4133533E-006  0.5094121E+03  0.7546771E-02  0.9378992E-01
        -11   -1    0    0    0    0  0.00000000000E+00  0.00000000000E+00  0.50000000000E+03  0.50000000000E+03  0.00000000000E+00 0. -1.
         11   -1    0    0    0    0 -0.00000000000E+00 -0.00000000000E+00 -0.50000000000E+03  0.50000000000E+03  0.00000000000E+00 0.  1.
         23    2    1    2    0    0  0.58052762018E+02 -0.69128419660E+02 -0.38321226918E+03  0.40389671391E+03  0.90177883474E+02 0.  0.
        -11    1    1    2    0    0 -0.84480513944E+02  0.41273752015E+02  0.48149347894E+03  0.49058786176E+03  0.00000000000E+00 0. -1.
         11    1    1    2    0    0  0.26427751927E+02  0.27854667645E+02 -0.98281209756E+02  0.10551542434E+03  0.00000000000E+00 0.  1.
        -15    1    3    3    0    0  0.49849360008E+02 -0.20349182990E+02 -0.31525580724E+03  0.31982562385E+03  0.17770000000E+01 0.  1.
         15    1    3    3    0    0  0.82034020099E+01 -0.48779236670E+02 -0.67956461943E+02  0.84071090057E+02  0.17770000000E+01 0. -1.
</event>
<event>
 7    1  0.4133533E-006  0.3169842E+03  0.7546771E-02  0.9939533E-01
        -11   -1    0    0    0    0  0.00000000000E+00  0.00000000000E+00  0.50000000000E+03  0.50000000000E+03  0.00000000000E+00 0. -1.
         11   -1    0    0    0    0 -0.00000000000E+00 -0.00000000000E+00 -0.50000000000E+03  0.50000000000E+03  0.00000000000E+00 0.  1.
         23    2    1    2    0    0  0.29843878812E+02 -0.26505838812E+03 -0.11151066531E+03  0.30322374631E+03  0.91451657337E+02 0.  0.
        -11    1    1    2    0    0  0.68192982058E+01  0.64709172781E+02  0.36547822707E+03  0.37122515315E+03  0.00000000000E+00 0. -1.
         11    1    1    2    0    0 -0.36663177018E+02  0.20034921534E+03 -0.25396756176E+03  0.32555110054E+03  0.00000000000E+00 0.  1.
        -15    1    3    3    0    0 -0.24945966030E+02 -0.26500237042E+02 -0.22176248264E+02  0.42655685443E+02  0.17770000000E+01 0. -1.
         15    1    3    3    0    0  0.54789844842E+02 -0.23855815108E+03 -0.89334417051E+02  0.26056806086E+03  0.17770000000E+01 0.  1.
</event>
<event>
 7    1  0.4133533E-006  0.4142188E+03  0.7546771E-02  0.9615297E-01
        -11   -1    0    0    0    0  0.00000000000E+00  0.00000000000E+00  0.50000000000E+03  0.50000000000E+03  0.00000000000E+00 0. -1.
         11   -1    0    0    0    0 -0.00000000000E+00 -0.00000000000E+00 -0.50000000000E+03  0.50000000000E+03  0.00000000000E+00 0. -1.
         23    2    1    2    0    0  0.18779701604E+03  0.30053202885E+03 -0.28364417580E+03  0.46245829484E+03  0.88467148714E+02 0.  0.
        -11    1    1    2    0    0 -0.18123671465E+03 -0.13640060230E+03  0.29588152934E+03  0.37282402075E+03  0.00000000000E+00 0. -1.
         11    1    1    2    0    0 -0.65603013975E+01 -0.16413142655E+03 -0.12237353548E+02  0.16471768441E+03  0.00000000000E+00 0. -1.
        -15    1    3    3    0    0  0.16296534017E+03  0.22634278548E+03 -0.25845033456E+03  0.38024793464E+03  0.17770000000E+01 0. -1.
         15    1    3    3    0    0  0.24831675876E+02  0.74189243372E+02 -0.25193841237E+02  0.82210360200E+02  0.17770000000E+01 0.  1.
</event>
<event>
 7    1  0.4133533E-006  0.5156319E+03  0.7546771E-02  0.9365496E-01
        -11   -1    0    0    0    0  0.00000000000E+00  0.00000000000E+00  0.50000000000E+03  0.50000000000E+03  0.00000000000E+00 0.  1.
         11   -1    0    0    0    0 -0.00000000000E+00 -0.00000000000E+00 -0.50000000000E+03  0.50000000000E+03  0.00000000000E+00 0. -1.
         23    2    1    2    0    0 -0.22034128781E+02  0.89131686218E+02 -0.28172980022E+03  0.30805790556E+03  0.84249822090E+02 0.  0.
        -11    1    1    2    0    0  0.83351117052E+02 -0.44839381061E+02  0.47503104958E+03  0.48436812124E+03  0.00000000000E+00 0.  1.
         11    1    1    2    0    0 -0.61316988271E+02 -0.44292305157E+02 -0.19330124936E+03  0.20757397320E+03  0.00000000000E+00 0. -1.
        -15    1    3    3    0    0 -0.24951738020E+02  0.10245841769E+03 -0.20973009800E+03  0.23475559274E+03  0.17770000000E+01 0. -1.
         15    1    3    3    0    0  0.29176092392E+01 -0.13326731469E+02 -0.71999702224E+02  0.73302312819E+02  0.17770000000E+01 0.  1.
</event>
<event>
 7    1  0.4133533E-006  0.5091074E+03  0.7546771E-02  0.9379659E-01
        -11   -1    0    0    0    0  0.00000000000E+00  0.00000000000E+00  0.50000000000E+03  0.50000000000E+03  0.00000000000E+00 0. -1.
         11   -1    0    0    0    0 -0.00000000000E+00 -0.00000000000E+00 -0.50000000000E+03  0.50000000000E+03  0.00000000000E+00 0. -1.
         23    2    1    2    0    0 -0.28873487563E+03 -0.10657166591E+03 -0.37147453353E+03  0.49089264940E+03  0.90867572817E+02 0.  0.
        -11    1    1    2    0    0  0.19210306768E+02  0.23737304898E+02  0.14291533445E+03  0.14614133006E+03  0.00000000000E+00 0. -1.
         11    1    1    2    0    0  0.26952456886E+03  0.82834361013E+02  0.22855919908E+03  0.36296602054E+03  0.00000000000E+00 0. -1.
        -15    1    3    3    0    0 -0.10284041529E+03 -0.84751959855E+02 -0.14170948189E+03  0.19453478019E+03  0.17770000000E+01 0.  1.
         15    1    3    3    0    0 -0.18589446034E+03 -0.21819706056E+02 -0.22976505164E+03  0.29635786921E+03  0.17770000000E+01 0. -1.
</event>
<event>
 7    1  0.4133533E-006  0.5259046E+03  0.7546771E-02  0.9343642E-01
        -11   -1    0    0    0    0  0.00000000000E+00  0.00000000000E+00  0.50000000000E+03  0.50000000000E+03  0.00000000000E+00 0. -1.
         11   -1    0    0    0    0 -0.00000000000E+00 -0.00000000000E+00 -0.50000000000E+03  0.50000000000E+03  0.00000000000E+00 0.  1.
         23    2    1    2    0    0  0.93800708752E+01 -0.74147349099E+02 -0.32275355217E+03  0.34137082009E+03  0.82330834224E+02 0.  0.
        -11    1    1    2    0    0  0.91736422784E+02  0.14016522322E+02  0.46492408118E+03  0.47409538642E+03  0.00000000000E+00 0. -1.
         11    1    1    2    0    0 -0.10111649366E+03  0.60130826778E+02 -0.14217052901E+03  0.18453379349E+03  0.00000000000E+00 0.  1.
        -15    1    3    3    0    0  0.32021561522E+00 -0.90169523830E+02 -0.29066642303E+03  0.30433661097E+03  0.17770000000E+01 0.  1.
         15    1    3    3    0    0  0.90598552599E+01  0.16022174731E+02 -0.32087129137E+02  0.37034209127E+02  0.17770000000E+01 0. -1.
</event>
<event>
 7    1  0.4133533E-006  0.5359705E+03  0.7546771E-02  0.9322735E-01
        -11   -1    0    0    0    0  0.00000000000E+00  0.00000000000E+00  0.50000000000E+03  0.50000000000E+03  0.00000000000E+00 0.  1.
         11   -1    0    0    0    0 -0.00000000000E+00 -0.00000000000E+00 -0.50000000000E+03  0.50000000000E+03  0.00000000000E+00 0. -1.
         23    2    1    2    0    0 -0.38054296132E+02  0.86146080042E+01  0.51661061122E+02  0.11103191332E+03  0.90204654064E+02 0.  0.
        -11    1    1    2    0    0  0.11294279690E+03  0.22679763192E+03  0.34114446624E+03  0.42493856975E+03  0.00000000000E+00 0.  1.
         11    1    1    2    0    0 -0.74888500772E+02 -0.23541223993E+03 -0.39280552736E+03  0.46402951693E+03  0.00000000000E+00 0. -1.
        -15    1    3    3    0    0  0.27635126661E+02  0.11704388241E+02  0.28106598612E+02  0.41156184762E+02  0.17770000000E+01 0. -1.
         15    1    3    3    0    0 -0.65689422793E+02 -0.30897802369E+01  0.23554462511E+02  0.69875728561E+02  0.17770000000E+01 0.  1.
</event>
<event>
 7    1  0.4133533E-006  0.5108638E+03  0.7546771E-02  0.9375824E-01
        -11   -1    0    0    0    0  0.00000000000E+00  0.00000000000E+00  0.50000000000E+03  0.50000000000E+03  0.00000000000E+00 0.  1.
         11   -1    0    0    0    0 -0.00000000000E+00 -0.00000000000E+00 -0.50000000000E+03  0.50000000000E+03  0.00000000000E+00 0. -1.
         23    2    1    2    0    0 -0.55336068601E+02 -0.43132306028E+02  0.16269004401E+03  0.19869441520E+03  0.89938556255E+02 0.  0.
        -11    1    1    2    0    0 -0.81043684334E+02 -0.69577408874E+02  0.29332678495E+03  0.31216934085E+03  0.00000000000E+00 0.  1.
         11    1    1    2    0    0  0.13637975294E+03  0.11270971490E+03 -0.45601682896E+03  0.48913624395E+03  0.00000000000E+00 0. -1.
        -15    1    3    3    0    0 -0.37343384881E+02  0.15823011362E+02  0.11113279595E+03  0.11831547721E+03  0.17770000000E+01 0.  1.
         15    1    3    3    0    0 -0.17992683720E+02 -0.58955317390E+02  0.51557248056E+02  0.80378937989E+02  0.17770000000E+01 0. -1.
</event>
<event>
 7    1  0.4133533E-006  0.4550711E+03  0.7546771E-02  0.9506364E-01
        -11   -1    0    0    0    0  0.00000000000E+00  0.00000000000E+00  0.50000000000E+03  0.50000000000E+03  0.00000000000E+00 0.  1.
         11   -1    0    0    0    0 -0.00000000000E+00 -0.00000000000E+00 -0.50000000000E+03  0.50000000000E+03  0.00000000000E+00 0.  1.
         23    2    1    2    0    0  0.69348955271E+02 -0.49923964688E+02  0.40243391235E+03  0.42222627168E+03  0.94975211731E+02 0.  0.
        -11    1    1    2    0    0 -0.11971336505E+02 -0.71310967183E+02  0.61447086534E+02  0.94891050061E+02  0.00000000000E+00 0.  1.
         11    1    1    2    0    0 -0.57377618766E+02  0.12123493187E+03 -0.46388099888E+03  0.48288267826E+03  0.00000000000E+00 0.  1.
        -15    1    3    3    0    0 -0.12875360931E+02  0.15294310904E+02  0.10275662296E+03  0.10469848211E+03  0.17770000000E+01 0. -1.
         15    1    3    3    0    0  0.82224316202E+02 -0.65218275592E+02  0.29967728939E+03  0.31752778957E+03  0.17770000000E+01 0.  1.
</event>
<event>
 7    1  0.4133533E-006  0.5168704E+03  0.7546771E-02  0.9362832E-01
        -11   -1    0    0    0    0  0.00000000000E+00  0.00000000000E+00  0.50000000000E+03  0.50000000000E+03  0.00000000000E+00 0.  1.
         11   -1    0    0    0    0 -0.00000000000E+00 -0.00000000000E+00 -0.50000000000E+03  0.50000000000E+03  0.00000000000E+00 0. -1.
         23    2    1    2    0    0 -0.47604509245E+02 -0.43026473692E+02  0.13861770265E+03  0.17982512083E+03  0.94893307741E+02 0.  0.
        -11    1    1    2    0    0 -0.62568289997E+02  0.14047519875E+02  0.33088881419E+03  0.33704529530E+03  0.00000000000E+00 0.  1.
         11    1    1    2    0    0  0.11017279924E+03  0.28978953817E+02 -0.46950651684E+03  0.48312958387E+03  0.00000000000E+00 0. -1.
        -15    1    3    3    0    0 -0.66340670629E+02 -0.31947685107E+00  0.95434377335E+02  0.11624140721E+03  0.17770000000E+01 0. -1.
         15    1    3    3    0    0  0.18736161384E+02 -0.42706996841E+02  0.43183325316E+02  0.63583713614E+02  0.17770000000E+01 0.  1.
</event>
<event>
 7    1  0.4133533E-006  0.5393331E+03  0.7546771E-02  0.9315860E-01
        -11   -1    0    0    0    0  0.00000000000E+00  0.00000000000E+00  0.50000000000E+03  0.50000000000E+03  0.00000000000E+00 0. -1.
         11   -1    0    0    0    0 -0.00000000000E+00 -0.00000000000E+00 -0.50000000000E+03  0.50000000000E+03  0.00000000000E+00 0.  1.
         23    2    1    2    0    0  0.54452525461E+02  0.51159487934E+02 -0.16408936429E+03  0.20192580197E+03  0.90919410977E+02 0.  0.
        -11    1    1    2    0    0  0.30331770452E+02  0.11557517959E+03  0.44490041014E+03  0.46066692239E+03  0.00000000000E+00 0. -1.
         11    1    1    2    0    0 -0.84784295913E+02 -0.16673466752E+03 -0.28081104585E+03  0.33740727564E+03  0.00000000000E+00 0.  1.
        -15    1    3    3    0    0 -0.10040420985E+02  0.45919193547E+02 -0.10157177834E+03  0.11193465180E+03  0.17770000000E+01 0.  1.
         15    1    3    3    0    0  0.64492946446E+02  0.52402943872E+01 -0.62517585956E+02  0.89991150172E+02  0.17770000000E+01 0. -1.
</event>
<event>
 7    1  0.4133533E-006  0.3894607E+03  0.7546771E-02  0.9688064E-01
        -11   -1    0    0    0    0  0.00000000000E+00  0.00000000000E+00  0.50000000000E+03  0.50000000000E+03  0.00000000000E+00 0.  1.
         11   -1    0    0    0    0 -0.00000000000E+00 -0.00000000000E+00 -0.50000000000E+03  0.50000000000E+03  0.00000000000E+00 0. -1.
         23    2    1    2    0    0  0.21314319728E+02 -0.18138424195E+03 -0.42394869039E+03  0.47048205177E+03  0.90919335113E+02 0.  0.
        -11    1    1    2    0    0  0.84451338964E+02  0.48110617347E+02  0.30965787313E+03  0.32455301346E+03  0.00000000000E+00 0.  1.
         11    1    1    2    0    0 -0.10576565869E+03  0.13327362460E+03  0.11429081726E+03  0.20496493477E+03  0.00000000000E+00 0. -1.
        -15    1    3    3    0    0  0.43933035561E+02 -0.15363493142E+03 -0.28253745247E+03  0.32459878857E+03  0.17770000000E+01 0. -1.
         15    1    3    3    0    0 -0.22618715833E+02 -0.27749310534E+02 -0.14141123793E+03  0.14588326320E+03  0.17770000000E+01 0.  1.
</event>
<event>
 7    1  0.4133533E-006  0.5081781E+03  0.7546771E-02  0.9381694E-01
        -11   -1    0    0    0    0  0.00000000000E+00  0.00000000000E+00  0.50000000000E+03  0.50000000000E+03  0.00000000000E+00 0.  1.
         11   -1    0    0    0    0 -0.00000000000E+00 -0.00000000000E+00 -0.50000000000E+03  0.50000000000E+03  0.00000000000E+00 0.  1.
         23    2    1    2    0    0  0.70875518136E+02 -0.92752686613E+02  0.31182195819E+03  0.34476323987E+03  0.89455899802E+02 0.  0.
        -11    1    1    2    0    0  0.33751747083E+02  0.93144790766E+00  0.15988856767E+03  0.16341481603E+03  0.00000000000E+00 0.  1.
         11    1    1    2    0    0 -0.10462726522E+03  0.91821238705E+02 -0.47171052585E+03  0.49182194411E+03  0.00000000000E+00 0.  1.
        -15    1    3    3    0    0  0.33166789633E+02 -0.57689720853E+02  0.66514364063E+02  0.94103444051E+02  0.17770000000E+01 0.  1.
         15    1    3    3    0    0  0.37708728504E+02 -0.35062965760E+02  0.24530759413E+03  0.25065979581E+03  0.17770000000E+01 0. -1.
</event>
<event>
 7    1  0.4133533E-006  0.4050930E+03  0.7546771E-02  0.9641471E-01
        -11   -1    0    0    0    0  0.00000000000E+00  0.00000000000E+00  0.50000000000E+03  0.50000000000E+03  0.00000000000E+00 0.  1.
         11   -1    0    0    0    0 -0.00000000000E+00 -0.00000000000E+00 -0.50000000000E+03  0.50000000000E+03  0.00000000000E+00 0.  1.
         23    2    1    2    0    0 -0.56092863072E+02 -0.72453706102E+02 -0.35448348618E+03  0.37745967950E+03  0.91767744086E+02 0.  0.
        -11    1    1    2    0    0 -0.12649836051E+02 -0.72885605986E+02  0.43603356360E+03  0.44226417275E+03  0.00000000000E+00 0.  1.
         11    1    1    2    0    0  0.68742699123E+02  0.14533931209E+03 -0.81550077421E+02  0.18027614775E+03  0.00000000000E+00 0.  1.
        -15    1    3    3    0    0  0.13026185776E+02  0.10608709432E+02 -0.93006651872E+02  0.94528415057E+02  0.17770000000E+01 0. -1.
         15    1    3    3    0    0 -0.69119048848E+02 -0.83062415534E+02 -0.26147683431E+03  0.28293126444E+03  0.17770000000E+01 0.  1.
</event>
<event>
 7    1  0.4133533E-006  0.3490729E+03  0.7546771E-02  0.9820133E-01
        -11   -1    0    0    0    0  0.00000000000E+00  0.00000000000E+00  0.50000000000E+03  0.50000000000E+03  0.00000000000E+00 0.  1.
         11   -1    0    0    0    0 -0.00000000000E+00 -0.00000000000E+00 -0.50000000000E+03  0.50000000000E+03  0.00000000000E+00 0. -1.
         23    2    1    2    0    0  0.36783751539E+02  0.19399375733E+02 -0.27760139840E+03  0.29484165899E+03  0.90220215724E+02 0.  0.
        -11    1    1    2    0    0  0.15754499761E+03  0.11660389515E+03  0.39466113136E+03  0.44065213405E+03  0.00000000000E+00 0.  1.
         11    1    1    2    0    0 -0.19432874915E+03 -0.13600327088E+03 -0.11705973296E+03  0.26450620696E+03  0.00000000000E+00 0. -1.
        -15    1    3    3    0    0  0.40839978797E+02 -0.16757691758E+02 -0.61687172575E+02  0.75876143092E+02  0.17770000000E+01 0.  1.
         15    1    3    3    0    0 -0.40562272587E+01  0.36157067491E+02 -0.21591422583E+03  0.21896551590E+03  0.17770000000E+01 0. -1.
</event>
<event>
 7    1  0.4133533E-006  0.4296081E+03  0.7546771E-02  0.9572749E-01
        -11   -1    0    0    0    0  0.00000000000E+00  0.00000000000E+00  0.50000000000E+03  0.50000000000E+03  0.00000000000E+00 0.  1.
         11   -1    0    0    0    0 -0.00000000000E+00 -0.00000000000E+00 -0.50000000000E+03  0.50000000000E+03  0.00000000000E+00 0.  1.
         23    2    1    2    0    0  0.11317910903E+03 -0.27616430270E+01 -0.41088701129E+03  0.43628345062E+03  0.93262939294E+02 0.  0.
        -11    1    1    2    0    0 -0.39045790995E+02 -0.11546348213E+03  0.40619942893E+03  0.42409240215E+03  0.00000000000E+00 0.  1.
         11    1    1    2    0    0 -0.74133318033E+02  0.11822512516E+03  0.46875823639E+01  0.13962414723E+03  0.00000000000E+00 0.  1.
        -15    1    3    3    0    0  0.68181632242E+02 -0.24402202376E+02 -0.11292699452E+03  0.13416358029E+03  0.17770000000E+01 0. -1.
         15    1    3    3    0    0  0.44997476787E+02  0.21640559349E+02 -0.29796001677E+03  0.30211987033E+03  0.17770000000E+01 0.  1.
</event>
<event>
 7    1  0.4133533E-006  0.5001681E+03  0.7546771E-02  0.9399434E-01
        -11   -1    0    0    0    0  0.00000000000E+00  0.00000000000E+00  0.50000000000E+03  0.50000000000E+03  0.00000000000E+00 0. -1.
         11   -1    0    0    0    0 -0.00000000000E+00 -0.00000000000E+00 -0.50000000000E+03  0.50000000000E+03  0.00000000000E+00 0.  1.
         23    2    1    2    0    0  0.59476146295E+02  0.43421688429E+02 -0.48630727672E+03  0.50016809150E+03  0.90832248452E+02 0.  0.
        -11    1    1    2    0    0  0.23691867599E+02 -0.11173039406E+02  0.10228840673E+03  0.10558910716E+03  0.00000000000E+00 0.  1.
         11    1    1    2    0    0 -0.83168013894E+02 -0.32248649023E+02  0.38401886999E+03  0.39424280134E+03  0.00000000000E+00 0. -1.
        -15    1    3    3    0    0 -0.19992424445E+01  0.54363137862E+02 -0.23275829883E+03  0.23903750989E+03  0.17770000000E+01 0. -1.
         15    1    3    3    0    0  0.61475388739E+02 -0.10941449433E+02 -0.25354897789E+03  0.26113058161E+03  0.17770000000E+01 0.  1.
</event>
<event>
 7    1  0.4133533E-006  0.5134999E+03  0.7546771E-02  0.9370099E-01
        -11   -1    0    0    0    0  0.00000000000E+00  0.00000000000E+00  0.50000000000E+03  0.50000000000E+03  0.00000000000E+00 0.  1.
         11   -1    0    0    0    0 -0.00000000000E+00 -0.00000000000E+00 -0.50000000000E+03  0.50000000000E+03  0.00000000000E+00 0.  1.
         23    2    1    2    0    0 -0.14220653044E+03  0.14486709460E+02  0.30536377630E+03  0.34956050286E+03  0.92265634082E+02 0.  0.
        -11    1    1    2    0    0 -0.19538475116E+02  0.74408266290E+02  0.14476799854E+03  0.16393936532E+03  0.00000000000E+00 0.  1.
         11    1    1    2    0    0  0.16174500556E+03 -0.88894975750E+02 -0.45013177484E+03  0.48650013182E+03  0.00000000000E+00 0.  1.
        -15    1    3    3    0    0 -0.89437906025E+02  0.36524905781E+02  0.25727587917E+03  0.27482220345E+03  0.17770000000E+01 0.  1.
         15    1    3    3    0    0 -0.52768624415E+02 -0.22038196322E+02  0.48087897136E+02  0.74738299417E+02  0.17770000000E+01 0. -1.
</event>
<event>
 7    1  0.4133533E-006  0.4867093E+03  0.7546771E-02  0.9430050E-01
        -11   -1    0    0    0    0  0.00000000000E+00  0.00000000000E+00  0.50000000000E+03  0.50000000000E+03  0.00000000000E+00 0.  1.
         11   -1    0    0    0    0 -0.00000000000E+00 -0.00000000000E+00 -0.50000000000E+03  0.50000000000E+03  0.00000000000E+00 0. -1.
         23    2    1    2    0    0 -0.15866098101E+03 -0.32173036832E+02 -0.44530942895E+03  0.48238699681E+03  0.90489314232E+02 0.  0.
        -11    1    1    2    0    0  0.16032825656E+03  0.66117481620E+02  0.45096287545E+03  0.48316062160E+03  0.00000000000E+00 0.  1.
         11    1    1    2    0    0 -0.16672755513E+01 -0.33944444788E+02 -0.56534465038E+01  0.34452381588E+02  0.00000000000E+00 0. -1.
        -15    1    3    3    0    0  0.11704830336E+02 -0.36001760952E+01 -0.23185013532E+02  0.26280542281E+02  0.17770000000E+01 0.  1.
         15    1    3    3    0    0 -0.17036581135E+03 -0.28572860737E+02 -0.42212441542E+03  0.45610645453E+03  0.17770000000E+01 0. -1.
</event>
<event>
 6    1  0.4433229E-006  0.5268368E+03  0.7546771E-02  0.9341685E-01
        -11   -1    0    0    0    0  0.00000000000E+00  0.00000000000E+00  0.50000000000E+03  0.50000000000E+03  0.00000000000E+00 0.  1.
         11   -1    0    0    0    0 -0.00000000000E+00 -0.00000000000E+00 -0.50000000000E+03  0.50000000000E+03  0.00000000000E+00 0.  1.
        -11    1    1    2    0    0  0.12023500166E+02  0.40242798721E+02  0.18900856280E+03  0.19361891493E+03  0.00000000000E+00 0.  1.
         11    1    1    2    0    0  0.75616520366E+02 -0.20973073281E+03 -0.41734705291E+03  0.47316318645E+03  0.00000000000E+00 0.  1.
        -15    1    1    2    0    0 -0.64442910047E+02  0.17438595038E+03  0.11768026180E+03  0.22003442933E+03  0.17770000000E+01 0. -1.
         15    1    1    2    0    0 -0.23197110485E+02 -0.48980162845E+01  0.11065822831E+03  0.11318346929E+03  0.17770000000E+01 0.  1.
</event>
<event>
 7    1  0.4133533E-006  0.5143012E+03  0.7546771E-02  0.9368366E-01
        -11   -1    0    0    0    0  0.00000000000E+00  0.00000000000E+00  0.50000000000E+03  0.50000000000E+03  0.00000000000E+00 0.  1.
         11   -1    0    0    0    0 -0.00000000000E+00 -0.00000000000E+00 -0.50000000000E+03  0.50000000000E+03  0.00000000000E+00 0. -1.
         23    2    1    2    0    0  0.26385456066E+01 -0.19749831571E+02 -0.26610903425E+03  0.28118847980E+03  0.88633657777E+02 0.  0.
        -11    1    1    2    0    0 -0.22106963105E+02  0.14098924021E+03  0.46425926634E+03  0.48569882650E+03  0.00000000000E+00 0.  1.
         11    1    1    2    0    0  0.19468417498E+02 -0.12123940864E+03 -0.19815023209E+03  0.23311269370E+03  0.00000000000E+00 0. -1.
        -15    1    3    3    0    0  0.40314406074E+02 -0.22989266756E+02 -0.92553868265E+02  0.10355256628E+03  0.17770000000E+01 0.  1.
         15    1    3    3    0    0 -0.37675860467E+02  0.32394351852E+01 -0.17355516599E+03  0.17763591352E+03  0.17770000000E+01 0. -1.
</event>
<event>
 7    1  0.4133533E-006  0.4079425E+03  0.7546771E-02  0.9633220E-01
        -11   -1    0    0    0    0  0.00000000000E+00  0.00000000000E+00  0.50000000000E+03  0.50000000000E+03  0.00000000000E+00 0.  1.
         11   -1    0    0    0    0 -0.00000000000E+00 -0.00000000000E+00 -0.50000000000E+03  0.50000000000E+03  0.00000000000E+00 0.  1.
         23    2    1    2    0    0 -0.42088915568E+02 -0.56796088202E+02 -0.37686826194E+03  0.39393924775E+03  0.90339203054E+02 0.  0.
        -11    1    1    2    0    0  0.17061848719E+03 -0.61733432997E+02  0.39059653315E+03  0.43068240808E+03  0.00000000000E+00 0.  1.
         11    1    1    2    0    0 -0.12852957162E+03  0.11852952120E+03 -0.13728271208E+02  0.17537834418E+03  0.00000000000E+00 0.  1.
        -15    1    3    3    0    0 -0.57113090768E+02 -0.16824224283E+02 -0.30121529492E+03  0.30704848360E+03  0.17770000000E+01 0. -1.
         15    1    3    3    0    0  0.15024175199E+02 -0.39971863919E+02 -0.75652967021E+02  0.86890764145E+02  0.17770000000E+01 0.  1.
</event>
<event>
 7    1  0.4133533E-006  0.4822917E+03  0.7546771E-02  0.9440329E-01
        -11   -1    0    0    0    0  0.00000000000E+00  0.00000000000E+00  0.50000000000E+03  0.50000000000E+03  0.00000000000E+00 0. -1.
         11   -1    0    0    0    0 -0.00000000000E+00 -0.00000000000E+00 -0.50000000000E+03  0.50000000000E+03  0.00000000000E+00 0. -1.
         23    2    1    2    0    0  0.78442491487E+02  0.57624521169E+02 -0.44871986102E+03  0.46800864629E+03  0.90602259449E+02 0.  0.
        -11    1    1    2    0    0 -0.78608300929E+02 -0.29938444728E+02  0.48166646498E+03  0.48895619327E+03  0.00000000000E+00 0. -1.
         11    1    1    2    0    0  0.16580944234E+00 -0.27686076441E+02 -0.32946603960E+02  0.43035160439E+02  0.00000000000E+00 0. -1.
        -15    1    3    3    0    0  0.68888891978E+02  0.66987110305E+02 -0.44308110989E+03  0.45338392126E+03  0.17770000000E+01 0. -1.
         15    1    3    3    0    0  0.95535995087E+01 -0.93625891362E+01 -0.56387511283E+01  0.14624725030E+02  0.17770000000E+01 0.  1.
</event>
<event>
 7    1  0.4133533E-006  0.5020850E+03  0.7546771E-02  0.9395156E-01
        -11   -1    0    0    0    0  0.00000000000E+00  0.00000000000E+00  0.50000000000E+03  0.50000000000E+03  0.00000000000E+00 0. -1.
         11   -1    0    0    0    0 -0.00000000000E+00 -0.00000000000E+00 -0.50000000000E+03  0.50000000000E+03  0.00000000000E+00 0. -1.
         23    2    1    2    0    0 -0.71143161489E+02 -0.10362740327E+02 -0.48425879672E+03  0.49791497132E+03  0.90796479293E+02 0.  0.
        -11    1    1    2    0    0  0.13060029697E+02  0.50817100546E+02  0.30275017454E+03  0.30726309617E+03  0.00000000000E+00 0. -1.
         11    1    1    2    0    0  0.58083131793E+02 -0.40454360219E+02  0.18150862218E+03  0.19482193251E+03  0.00000000000E+00 0. -1.
        -15    1    3    3    0    0 -0.79675411723E+02 -0.36528222470E+02 -0.34611158320E+03  0.35704182951E+03  0.17770000000E+01 0. -1.
         15    1    3    3    0    0  0.85322502341E+01  0.26165482143E+02 -0.13814721352E+03  0.14087314181E+03  0.17770000000E+01 0.  1.
</event>
<event>
 7    1  0.4133533E-006  0.4663817E+03  0.7546771E-02  0.9478344E-01
        -11   -1    0    0    0    0  0.00000000000E+00  0.00000000000E+00  0.50000000000E+03  0.50000000000E+03  0.00000000000E+00 0. -1.
         11   -1    0    0    0    0 -0.00000000000E+00 -0.00000000000E+00 -0.50000000000E+03  0.50000000000E+03  0.00000000000E+00 0. -1.
         23    2    1    2    0    0  0.44907784398E+02  0.22248428751E+03  0.37725994850E+03  0.45088548351E+03  0.97245479118E+02 0.  0.
        -11    1    1    2    0    0 -0.24952114744E+02 -0.37445256686E+02  0.59357728925E+02  0.74485537264E+02  0.00000000000E+00 0. -1.
         11    1    1    2    0    0 -0.19955669654E+02 -0.18503903083E+03 -0.43661767742E+03  0.47462897923E+03  0.00000000000E+00 0. -1.
        -15    1    3    3    0    0  0.62118578355E+02  0.21215194233E+03  0.36657829439E+03  0.42807705855E+03  0.17770000000E+01 0. -1.
         15    1    3    3    0    0 -0.17210793957E+02  0.10332345181E+02  0.10681654110E+02  0.22808424959E+02  0.17770000000E+01 0.  1.
</event>
<event>
 7    1  0.4133533E-006  0.5257370E+03  0.7546771E-02  0.9343994E-01
        -11   -1    0    0    0    0  0.00000000000E+00  0.00000000000E+00  0.50000000000E+03  0.50000000000E+03  0.00000000000E+00 0.  1.
         11   -1    0    0    0    0 -0.00000000000E+00 -0.00000000000E+00 -0.50000000000E+03  0.50000000000E+03  0.00000000000E+00 0. -1.
         23    2    1    2    0    0 -0.22858660679E+02 -0.10141009107E+03 -0.22397229643E+03  0.25912854449E+03  0.78596997796E+02 0.  0.
        -11    1    1    2    0    0  0.15524351011E+03  0.37966095873E+02  0.44652375930E+03  0.47426304883E+03  0.00000000000E+00 0.  1.
         11    1    1    2    0    0 -0.13238484944E+03  0.63443995198E+02 -0.22255146287E+03  0.26660840668E+03  0.00000000000E+00 0. -1.
        -15    1    3    3    0    0  0.16178045197E+01 -0.44149949677E+02 -0.25352562081E+02  0.50968082964E+02  0.17770000000E+01 0. -1.
         15    1    3    3    0    0 -0.24476465199E+02 -0.57260141394E+02 -0.19861973435E+03  0.20816046152E+03  0.17770000000E+01 0.  1.
</event>
<event>
 7    1  0.4133533E-006  0.5128067E+03  0.7546771E-02  0.9371601E-01
        -11   -1    0    0    0    0  0.00000000000E+00  0.00000000000E+00  0.50000000000E+03  0.50000000000E+03  0.00000000000E+00 0.  1.
         11   -1    0    0    0    0 -0.00000000000E+00 -0.00000000000E+00 -0.50000000000E+03  0.50000000000E+03  0.00000000000E+00 0. -1.
         23    2    1    2    0    0  0.21433363882E+02 -0.10731471972E+03  0.30250032707E+03  0.33435282819E+03  0.91156610765E+02 0.  0.
        -11    1    1    2    0    0  0.66491620897E+02  0.45378671850E+01  0.16554175091E+03  0.17845391333E+03  0.00000000000E+00 0.  1.
         11    1    1    2    0    0 -0.87924984779E+02  0.10277685253E+03 -0.46804207797E+03  0.48719325849E+03  0.00000000000E+00 0. -1.
        -15    1    3    3    0    0 -0.30993390563E+02 -0.61402617164E+02  0.18922189227E+03  0.20134287645E+03  0.17770000000E+01 0.  1.
         15    1    3    3    0    0  0.52426754446E+02 -0.45912102553E+02  0.11327843479E+03  0.13300995173E+03  0.17770000000E+01 0. -1.
</event>
<event>
 7    1  0.4133533E-006  0.5416958E+03  0.7546771E-02  0.9311060E-01
        -11   -1    0    0    0    0  0.00000000000E+00  0.00000000000E+00  0.50000000000E+03  0.50000000000E+03  0.00000000000E+00 0.  1.
         11   -1    0    0    0    0 -0.00000000000E+00 -0.00000000000E+00 -0.50000000000E+03  0.50000000000E+03  0.00000000000E+00 0. -1.
         23    2    1    2    0    0  0.51425460386E+02  0.98030172063E+02 -0.20081814575E+03  0.24660076681E+03  0.90716690403E+02 0.  0.
        -11    1    1    2    0    0 -0.20387261192E+03  0.46923628559E+02  0.40777062936E+03  0.45830421663E+03  0.00000000000E+00 0.  1.
         11    1    1    2    0    0  0.15244715154E+03 -0.14495380062E+03 -0.20695248361E+03  0.29509501656E+03  0.00000000000E+00 0. -1.
        -15    1    3    3    0    0  0.72658757001E+02  0.82546389782E+02 -0.18677517902E+03  0.21675176276E+03  0.17770000000E+01 0.  1.
         15    1    3    3    0    0 -0.21233296615E+02  0.15483782281E+02 -0.14042966731E+02  0.29849004045E+02  0.17770000000E+01 0. -1.
</event>
<event>
 7    1  0.4133533E-006  0.4077223E+03  0.7546771E-02  0.9633855E-01
        -11   -1    0    0    0    0  0.00000000000E+00  0.00000000000E+00  0.50000000000E+03  0.50000000000E+03  0.00000000000E+00 0. -1.
         11   -1    0    0    0    0 -0.00000000000E+00 -0.00000000000E+00 -0.50000000000E+03  0.50000000000E+03  0.00000000000E+00 0.  1.
         23    2    1    2    0    0  0.76729241887E+02  0.18070411445E+02 -0.34552744756E+03  0.36696461876E+03  0.95183496881E+02 0.  0.
        -11    1    1    2    0    0 -0.18078718416E+03  0.11227043745E+03  0.40373302626E+03  0.45638691214E+03  0.00000000000E+00 0. -1.
         11    1    1    2    0    0  0.10405794228E+03 -0.13034084890E+03 -0.58205578701E+02  0.17664846909E+03  0.00000000000E+00 0.  1.
        -15    1    3    3    0    0 -0.12469335499E+02  0.27190444819E+02 -0.51709395981E+02  0.59764738592E+02  0.17770000000E+01 0. -1.
         15    1    3    3    0    0  0.89198577386E+02 -0.91200333739E+01 -0.29381805158E+03  0.30719988017E+03  0.17770000000E+01 0.  1.
</event>
<event>
 7    1  0.4133533E-006  0.5236452E+03  0.7546771E-02  0.9348403E-01
        -11   -1    0    0    0    0  0.00000000000E+00  0.00000000000E+00  0.50000000000E+03  0.50000000000E+03  0.00000000000E+00 0. -1.
         11   -1    0    0    0    0 -0.00000000000E+00 -0.00000000000E+00 -0.50000000000E+03  0.50000000000E+03  0.00000000000E+00 0.  1.
         23    2    1    2    0    0  0.57242278731E+01 -0.63339768235E+02 -0.40134965854E+03  0.41820957799E+03  0.98858533720E+02 0.  0.
        -11    1    1    2    0    0 -0.89313105414E+02  0.53443996691E+02  0.46484490906E+03  0.47635478486E+03  0.00000000000E+00 0. -1.
         11    1    1    2    0    0  0.83588877541E+02  0.98957715437E+01 -0.63495250520E+02  0.10543563715E+03  0.00000000000E+00 0.  1.
        -15    1    3    3    0    0 -0.21285438571E+02 -0.42309608199E+01 -0.15030509085E+02  0.26458360815E+02  0.17770000000E+01 0. -1.
         15    1    3    3    0    0  0.27009666445E+02 -0.59108807415E+02 -0.38631914945E+03  0.39175121718E+03  0.17770000000E+01 0.  1.
</event>
<event>
 7    1  0.4133533E-006  0.5196466E+03  0.7546771E-02  0.9356891E-01
        -11   -1    0    0    0    0  0.00000000000E+00  0.00000000000E+00  0.50000000000E+03  0.50000000000E+03  0.00000000000E+00 0. -1.
         11   -1    0    0    0    0 -0.00000000000E+00 -0.00000000000E+00 -0.50000000000E+03  0.50000000000E+03  0.00000000000E+00 0. -1.
         23    2    1    2    0    0 -0.23391311973E+02 -0.42405249266E+01 -0.32550304806E+03  0.33905549002E+03  0.91876305364E+02 0.  0.
        -11    1    1    2    0    0 -0.79779277773E+02  0.75869469912E+00  0.47368145452E+03  0.48035344190E+03  0.00000000000E+00 0. -1.
         11    1    1    2    0    0  0.10317058975E+03  0.34818302275E+01 -0.14817840646E+03  0.18059106808E+03  0.00000000000E+00 0. -1.
        -15    1    3    3    0    0 -0.38286433500E+02  0.30579684910E+02 -0.24769887278E+03  0.25250516316E+03  0.17770000000E+01 0.  1.
         15    1    3    3    0    0  0.14895121527E+02 -0.34820209837E+02 -0.77804175285E+02  0.86550326857E+02  0.17770000000E+01 0. -1.
</event>
<event>
 7    1  0.4133533E-006  0.5120542E+03  0.7546771E-02  0.9373234E-01
        -11   -1    0    0    0    0  0.00000000000E+00  0.00000000000E+00  0.50000000000E+03  0.50000000000E+03  0.00000000000E+00 0.  1.
         11   -1    0    0    0    0 -0.00000000000E+00 -0.00000000000E+00 -0.50000000000E+03  0.50000000000E+03  0.00000000000E+00 0. -1.
         23    2    1    2    0    0  0.39472691481E+02 -0.25487974428E+03 -0.40385332835E+03  0.48794578896E+03  0.92042407247E+02 0.  0.
        -11    1    1    2    0    0  0.25292273459E+02  0.17968852692E+03  0.36083545808E+03  0.40389341863E+03  0.00000000000E+00 0.  1.
         11    1    1    2    0    0 -0.64764964940E+02  0.75191217360E+02  0.43017870265E+02  0.10816079241E+03  0.00000000000E+00 0. -1.
        -15    1    3    3    0    0 -0.11569488952E+02 -0.14348590895E+02 -0.46559438366E+01  0.19093733980E+02  0.17770000000E+01 0.  1.
         15    1    3    3    0    0  0.51042180433E+02 -0.24053115338E+03 -0.39919738451E+03  0.46885205498E+03  0.17770000000E+01 0. -1.
</event>
<event>
 7    1  0.4133533E-006  0.4673723E+03  0.7546771E-02  0.9475930E-01
        -11   -1    0    0    0    0  0.00000000000E+00  0.00000000000E+00  0.50000000000E+03  0.50000000000E+03  0.00000000000E+00 0.  1.
         11   -1    0    0    0    0 -0.00000000000E+00 -0.00000000000E+00 -0.50000000000E+03  0.50000000000E+03  0.00000000000E+00 0. -1.
         23    2    1    2    0    0 -0.11893179586E+03  0.82919430135E+02  0.40537594331E+03  0.43975082918E+03  0.89614353676E+02 0.  0.
        -11    1    1    2    0    0 -0.12370088000E+02 -0.31053937475E+02  0.62859304401E+02  0.71194510038E+02  0.00000000000E+00 0.  1.
         11    1    1    2    0    0  0.13130188386E+03 -0.51865492659E+02 -0.46823524771E+03  0.48905466078E+03  0.00000000000E+00 0. -1.
        -15    1    3    3    0    0 -0.12212220537E+03  0.54031423743E+02  0.26933837014E+03  0.30063190641E+03  0.17770000000E+01 0. -1.
         15    1    3    3    0    0  0.31904095147E+01  0.28888006392E+02  0.13603757318E+03  0.13911892277E+03  0.17770000000E+01 0.  1.
</event>
<event>
 7    1  0.4133533E-006  0.4806215E+03  0.7546771E-02  0.9444246E-01
        -11   -1    0    0    0    0  0.00000000000E+00  0.00000000000E+00  0.50000000000E+03  0.50000000000E+03  0.00000000000E+00 0.  1.
         11   -1    0    0    0    0 -0.00000000000E+00 -0.00000000000E+00 -0.50000000000E+03  0.50000000000E+03  0.00000000000E+00 0. -1.
         23    2    1    2    0    0  0.15047843213E+02  0.13086508920E+03 -0.46419463105E+03  0.49113982518E+03  0.91594558927E+02 0.  0.
        -11    1    1    2    0    0  0.61414076974E+01 -0.90997967973E+02  0.45334243884E+03  0.46242590100E+03  0.00000000000E+00 0.  1.
         11    1    1    2    0    0 -0.21189250911E+02 -0.39867121226E+02  0.10852192215E+02  0.46434273817E+02  0.00000000000E+00 0. -1.
        -15    1    3    3    0    0  0.52274082785E+02  0.69733533217E+02 -0.28963064252E+03  0.30246390232E+03  0.17770000000E+01 0. -1.
         15    1    3    3    0    0 -0.37226239572E+02  0.61131555982E+02 -0.17456398853E+03  0.18867592287E+03  0.17770000000E+01 0.  1.
</event>
<event>
 7    1  0.4133533E-006  0.5203524E+03  0.7546771E-02  0.9355387E-01
        -11   -1    0    0    0    0  0.00000000000E+00  0.00000000000E+00  0.50000000000E+03  0.50000000000E+03  0.00000000000E+00 0. -1.
         11   -1    0    0    0    0 -0.00000000000E+00 -0.00000000000E+00 -0.50000000000E+03  0.50000000000E+03  0.00000000000E+00 0.  1.
         23    2    1    2    0    0 -0.46780002091E+01  0.45633440704E+02  0.88100168726E+02  0.13411496032E+03  0.90115971148E+02 0.  0.
        -11    1    1    2    0    0  0.43899854873E+02  0.47471225057E+02  0.38078683741E+03  0.38623740110E+03  0.00000000000E+00 0. -1.
         11    1    1    2    0    0 -0.39221854664E+02 -0.93104665761E+02 -0.46888700614E+03  0.47964763858E+03  0.00000000000E+00 0.  1.
        -15    1    3    3    0    0 -0.33464618679E+02  0.51420095528E+02  0.84559803654E+02  0.10448648262E+03  0.17770000000E+01 0.  1.
         15    1    3    3    0    0  0.28786618470E+02 -0.57866548237E+01  0.35403650719E+01  0.29628477700E+02  0.17770000000E+01 0. -1.
</event>
<event>
 7    1  0.4133533E-006  0.5154768E+03  0.7546771E-02  0.9365830E-01
        -11   -1    0    0    0    0  0.00000000000E+00  0.00000000000E+00  0.50000000000E+03  0.50000000000E+03  0.00000000000E+00 0.  1.
         11   -1    0    0    0    0 -0.00000000000E+00 -0.00000000000E+00 -0.50000000000E+03  0.50000000000E+03  0.00000000000E+00 0.  1.
         23    2    1    2    0    0  0.70948214230E+02 -0.73032234268E+02 -0.39598357007E+03  0.41899213636E+03  0.91564546768E+02 0.  0.
        -11    1    1    2    0    0 -0.14643844765E+03  0.94569985030E+02  0.45207853793E+03  0.48452317331E+03  0.00000000000E+00 0.  1.
         11    1    1    2    0    0  0.75490233416E+02 -0.21537750762E+02 -0.56094967856E+02  0.96484690329E+02  0.00000000000E+00 0.  1.
        -15    1    3    3    0    0  0.72312663687E+02 -0.13115542141E+02 -0.26368388527E+03  0.27373981781E+03  0.17770000000E+01 0.  1.
         15    1    3    3    0    0 -0.13644494569E+01 -0.59916692127E+02 -0.13229968480E+03  0.14525231855E+03  0.17770000000E+01 0. -1.
</event>
<event>
 7    1  0.4133533E-006  0.3514723E+03  0.7546771E-02  0.9811762E-01
        -11   -1    0    0    0    0  0.00000000000E+00  0.00000000000E+00  0.50000000000E+03  0.50000000000E+03  0.00000000000E+00 0.  1.
         11   -1    0    0    0    0 -0.00000000000E+00 -0.00000000000E+00 -0.50000000000E+03  0.50000000000E+03  0.00000000000E+00 0. -1.
         23    2    1    2    0    0 -0.15902297569E+03  0.70526362159E+02 -0.34669470849E+03  0.39885775674E+03  0.92887107079E+02 0.  0.
        -11    1    1    2    0    0 -0.20235033804E+02  0.11784673889E+03  0.31774854596E+03  0.33950176571E+03  0.00000000000E+00 0.  1.
         11    1    1    2    0    0  0.17925800949E+03 -0.18837310105E+03  0.28946162534E+02  0.26164047755E+03  0.00000000000E+00 0. -1.
        -15    1    3    3    0    0 -0.16977998887E+03  0.55501604411E+02 -0.31532426678E+03  0.36240615842E+03  0.17770000000E+01 0. -1.
         15    1    3    3    0    0  0.10757013181E+02  0.15024757748E+02 -0.31370441719E+02  0.36451598327E+02  0.17770000000E+01 0.  1.
</event>
<event>
 7    1  0.4133533E-006  0.3659685E+03  0.7546771E-02  0.9762668E-01
        -11   -1    0    0    0    0  0.00000000000E+00  0.00000000000E+00  0.50000000000E+03  0.50000000000E+03  0.00000000000E+00 0. -1.
         11   -1    0    0    0    0 -0.00000000000E+00 -0.00000000000E+00 -0.50000000000E+03  0.50000000000E+03  0.00000000000E+00 0.  1.
         23    2    1    2    0    0 -0.84493689275E+02  0.15340135431E+03 -0.13157130888E+03  0.23598817536E+03  0.87796643208E+02 0.  0.
        -11    1    1    2    0    0  0.31558846270E+02 -0.12268243869E+03  0.43572292752E+03  0.45376360707E+03  0.00000000000E+00 0. -1.
         11    1    1    2    0    0  0.52934843005E+02 -0.30718915622E+02 -0.30415161864E+03  0.31024821756E+03  0.00000000000E+00 0.  1.
        -15    1    3    3    0    0 -0.10243907054E+03  0.12722690274E+03 -0.11753718807E+03  0.20124263033E+03  0.17770000000E+01 0.  1.
         15    1    3    3    0    0  0.17945381262E+02  0.26174451578E+02 -0.14034120810E+02  0.34745545037E+02  0.17770000000E+01 0. -1.
</event>
<event>
 7    1  0.4133533E-006  0.4410763E+03  0.7546771E-02  0.9542260E-01
        -11   -1    0    0    0    0  0.00000000000E+00  0.00000000000E+00  0.50000000000E+03  0.50000000000E+03  0.00000000000E+00 0. -1.
         11   -1    0    0    0    0 -0.00000000000E+00 -0.00000000000E+00 -0.50000000000E+03  0.50000000000E+03  0.00000000000E+00 0.  1.
         23    2    1    2    0    0  0.65151873185E+02  0.23975351859E+02 -0.12688285224E+02  0.11502885630E+03  0.90835351725E+02 0.  0.
        -11    1    1    2    0    0  0.10880370361E+03 -0.16081632373E+03  0.39674236878E+03  0.44170651238E+03  0.00000000000E+00 0. -1.
         11    1    1    2    0    0 -0.17395557679E+03  0.13684097187E+03 -0.38405408356E+03  0.44326463132E+03  0.00000000000E+00 0.  1.
        -15    1    3    3    0    0  0.47841676668E+02  0.55091508685E+02 -0.25247365945E+02  0.77230094987E+02  0.17770000000E+01 0.  1.
         15    1    3    3    0    0  0.17310196517E+02 -0.31116156826E+02  0.12559080721E+02  0.37798761311E+02  0.17770000000E+01 0. -1.
</event>
<event>
 7    1  0.4133533E-006  0.3591613E+03  0.7546771E-02  0.9785412E-01
        -11   -1    0    0    0    0  0.00000000000E+00  0.00000000000E+00  0.50000000000E+03  0.50000000000E+03  0.00000000000E+00 0.  1.
         11   -1    0    0    0    0 -0.00000000000E+00 -0.00000000000E+00 -0.50000000000E+03  0.50000000000E+03  0.00000000000E+00 0.  1.
         23    2    1    2    0    0  0.25929396250E+02 -0.22390080758E+03 -0.25262277380E+03  0.35067984267E+03  0.91401208870E+02 0.  0.
        -11    1    1    2    0    0 -0.24831291274E+03  0.11504909718E+03  0.29020248825E+03  0.39888981133E+03  0.00000000000E+00 0.  1.
         11    1    1    2    0    0  0.22238351649E+03  0.10885171040E+03 -0.37579714446E+02  0.25043034601E+03  0.00000000000E+00 0.  1.
        -15    1    3    3    0    0  0.51207528932E+02 -0.13170250066E+03 -0.11052349260E+03  0.17940557362E+03  0.17770000000E+01 0.  1.
         15    1    3    3    0    0 -0.25278132682E+02 -0.92198306920E+02 -0.14209928120E+03  0.17127426905E+03  0.17770000000E+01 0. -1.
</event>
<event>
 7    1  0.4133533E-006  0.4752758E+03  0.7546771E-02  0.9456897E-01
        -11   -1    0    0    0    0  0.00000000000E+00  0.00000000000E+00  0.50000000000E+03  0.50000000000E+03  0.00000000000E+00 0. -1.
         11   -1    0    0    0    0 -0.00000000000E+00 -0.00000000000E+00 -0.50000000000E+03  0.50000000000E+03  0.00000000000E+00 0.  1.
         23    2    1    2    0    0 -0.93470702078E+02  0.47013678149E+02 -0.43825275547E+03  0.45602620913E+03  0.70337526645E+02 0.  0.
        -11    1    1    2    0    0  0.11643046146E+03 -0.83497198231E+02  0.46940804009E+03  0.49078686063E+03  0.00000000000E+00 0. -1.
         11    1    1    2    0    0 -0.22959759379E+02  0.36483520082E+02 -0.31155284622E+02  0.53186930239E+02  0.00000000000E+00 0.  1.
        -15    1    3    3    0    0 -0.67742017058E+02 -0.24264794901E+01 -0.28464093434E+03  0.29260637024E+03  0.17770000000E+01 0.  1.
         15    1    3    3    0    0 -0.25728685019E+02  0.49440157639E+02 -0.15361182113E+03  0.16341983889E+03  0.17770000000E+01 0. -1.
</event>
<event>
 7    1  0.4133533E-006  0.5126068E+03  0.7546771E-02  0.9372035E-01
        -11   -1    0    0    0    0  0.00000000000E+00  0.00000000000E+00  0.50000000000E+03  0.50000000000E+03  0.00000000000E+00 0.  1.
         11   -1    0    0    0    0 -0.00000000000E+00 -0.00000000000E+00 -0.50000000000E+03  0.50000000000E+03  0.00000000000E+00 0. -1.
         23    2    1    2    0    0 -0.74571373101E+02 -0.18487292588E+02  0.23631053937E+03  0.26440607085E+03  0.90361660084E+02 0.  0.
        -11    1    1    2    0    0 -0.15734424231E+01  0.42752490538E+02  0.24448593833E+03  0.24820077601E+03  0.00000000000E+00 0.  1.
         11    1    1    2    0    0  0.76144815524E+02 -0.24265197950E+02 -0.48079647770E+03  0.48739315314E+03  0.00000000000E+00 0. -1.
        -15    1    3    3    0    0 -0.79777807627E+01 -0.28119413037E+02  0.15997487026E+03  0.16263290940E+03  0.17770000000E+01 0.  1.
         15    1    3    3    0    0 -0.66593592338E+02  0.96321204488E+01  0.76335669102E+02  0.10177316145E+03  0.17770000000E+01 0. -1.
</event>
<event>
 7    1  0.4133533E-006  0.5281551E+03  0.7546771E-02  0.9338925E-01
        -11   -1    0    0    0    0  0.00000000000E+00  0.00000000000E+00  0.50000000000E+03  0.50000000000E+03  0.00000000000E+00 0.  1.
         11   -1    0    0    0    0 -0.00000000000E+00 -0.00000000000E+00 -0.50000000000E+03  0.50000000000E+03  0.00000000000E+00 0. -1.
         23    2    1    2    0    0 -0.31199336169E+03  0.16464164972E+03  0.16440850101E+03  0.39980031851E+03  0.91451675314E+02 0.  0.
        -11    1    1    2    0    0 -0.23514927313E+01  0.39779735330E+02  0.12201224135E+03  0.12835475800E+03  0.00000000000E+00 0.  1.
         11    1    1    2    0    0  0.31434485442E+03 -0.20442138505E+03 -0.28642074236E+03  0.47184492349E+03  0.00000000000E+00 0. -1.
        -15    1    3    3    0    0 -0.31682374178E+03  0.15389235973E+03  0.16174498249E+03  0.38758836261E+03  0.17770000000E+01 0.  1.
         15    1    3    3    0    0  0.48303800906E+01  0.10749289994E+02  0.26635185245E+01  0.12211955909E+02  0.17770000000E+01 0. -1.
</event>
<event>
 7    1  0.4133533E-006  0.5187119E+03  0.7546771E-02  0.9358887E-01
        -11   -1    0    0    0    0  0.00000000000E+00  0.00000000000E+00  0.50000000000E+03  0.50000000000E+03  0.00000000000E+00 0.  1.
         11   -1    0    0    0    0 -0.00000000000E+00 -0.00000000000E+00 -0.50000000000E+03  0.50000000000E+03  0.00000000000E+00 0. -1.
         23    2    1    2    0    0 -0.57316019390E+02  0.90723876013E+01  0.72231371652E+02  0.12893832711E+03  0.89667646623E+02 0.  0.
        -11    1    1    2    0    0 -0.18510558778E+03  0.54778167293E+02  0.33861296648E+03  0.38977361033E+03  0.00000000000E+00 0.  1.
         11    1    1    2    0    0  0.24242160717E+03 -0.63850554895E+02 -0.41084433814E+03  0.48128806256E+03  0.00000000000E+00 0. -1.
        -15    1    3    3    0    0 -0.37062389604E+02 -0.24215246585E+02  0.77805116690E+02  0.89536544508E+02  0.17770000000E+01 0. -1.
         15    1    3    3    0    0 -0.20253629786E+02  0.33287634186E+02 -0.55737450381E+01  0.39401782599E+02  0.17770000000E+01 0.  1.
</event>
<event>
 7    1  0.4133533E-006  0.5063460E+03  0.7546771E-02  0.9385721E-01
        -11   -1    0    0    0    0  0.00000000000E+00  0.00000000000E+00  0.50000000000E+03  0.50000000000E+03  0.00000000000E+00 0. -1.
         11   -1    0    0    0    0 -0.00000000000E+00 -0.00000000000E+00 -0.50000000000E+03  0.50000000000E+03  0.00000000000E+00 0.  1.
         23    2    1    2    0    0  0.83468882541E+02 -0.30545713436E+02  0.37570093453E+03  0.39667412513E+03  0.91099255658E+02 0.  0.
        -11    1    1    2    0    0  0.23915186097E+02  0.15541606670E+02  0.10589827599E+03  0.10967188574E+03  0.00000000000E+00 0. -1.
         11    1    1    2    0    0 -0.10738406864E+03  0.15004106766E+02 -0.48159921052E+03  0.49365398913E+03  0.00000000000E+00 0.  1.
        -15    1    3    3    0    0  0.84668094153E+02  0.11216140737E+02  0.25643190646E+03  0.27028682610E+03  0.17770000000E+01 0.  1.
         15    1    3    3    0    0 -0.11992116121E+01 -0.41761854173E+02  0.11926902807E+03  0.12638729903E+03  0.17770000000E+01 0. -1.
</event>
<event>
 7    1  0.4133533E-006  0.5190660E+03  0.7546771E-02  0.9358130E-01
        -11   -1    0    0    0    0  0.00000000000E+00  0.00000000000E+00  0.50000000000E+03  0.50000000000E+03  0.00000000000E+00 0. -1.
         11   -1    0    0    0    0 -0.00000000000E+00 -0.00000000000E+00 -0.50000000000E+03  0.50000000000E+03  0.00000000000E+00 0.  1.
         23    2    1    2    0    0 -0.75581390168E+02 -0.18279280784E+03  0.28532719751E+03  0.35572767628E+03  0.77490727793E+02 0.  0.
        -11    1    1    2    0    0  0.35447433014E+02  0.41531839895E+01  0.15939144978E+03  0.16333831060E+03  0.00000000000E+00 0. -1.
         11    1    1    2    0    0  0.40133957155E+02  0.17863962385E+03 -0.44471864729E+03  0.48093401312E+03  0.00000000000E+00 0.  1.
        -15    1    3    3    0    0 -0.58896288502E+02 -0.70009725008E+02  0.17277258734E+03  0.19550871863E+03  0.17770000000E+01 0.  1.
         15    1    3    3    0    0 -0.16685101666E+02 -0.11278308283E+03  0.11255461018E+03  0.16021895766E+03  0.17770000000E+01 0. -1.
</event>
<event>
 7    1  0.4133533E-006  0.5210337E+03  0.7546771E-02  0.9353937E-01
        -11   -1    0    0    0    0  0.00000000000E+00  0.00000000000E+00  0.50000000000E+03  0.50000000000E+03  0.00000000000E+00 0.  1.
         11   -1    0    0    0    0 -0.00000000000E+00 -0.00000000000E+00 -0.50000000000E+03  0.50000000000E+03  0.00000000000E+00 0.  1.
         23    2    1    2    0    0  0.11555089786E+03 -0.53034604371E+02  0.24795284677E+03  0.29422450963E+03  0.94460407512E+02 0.  0.
        -11    1    1    2    0    0 -0.41465138787E+02  0.60022472058E+01  0.22290588978E+03  0.22680921587E+03  0.00000000000E+00 0.  1.
         11    1    1    2    0    0 -0.74085759069E+02  0.47032357166E+02 -0.47085873655E+03  0.47896627450E+03  0.00000000000E+00 0.  1.
        -15    1    3    3    0    0  0.11323620955E+03 -0.66343941021E+02  0.16837351529E+03  0.21348713320E+03  0.17770000000E+01 0. -1.
         15    1    3    3    0    0  0.23146883100E+01  0.13309336650E+02  0.79579331485E+02  0.80737376429E+02  0.17770000000E+01 0.  1.
</event>
<event>
 7    1  0.4133533E-006  0.4480229E+03  0.7546771E-02  0.9524268E-01
        -11   -1    0    0    0    0  0.00000000000E+00  0.00000000000E+00  0.50000000000E+03  0.50000000000E+03  0.00000000000E+00 0. -1.
         11   -1    0    0    0    0 -0.00000000000E+00 -0.00000000000E+00 -0.50000000000E+03  0.50000000000E+03  0.00000000000E+00 0.  1.
         23    2    1    2    0    0  0.18231366103E+02 -0.40186490823E+02 -0.23147308380E+02  0.10256958619E+03  0.89651466084E+02 0.  0.
        -11    1    1    2    0    0  0.97900770362E+02 -0.42691068277E+02  0.44211704295E+03  0.45483465987E+03  0.00000000000E+00 0. -1.
         11    1    1    2    0    0 -0.11613213646E+03  0.82877559100E+02 -0.41896973457E+03  0.44259575394E+03  0.00000000000E+00 0.  1.
        -15    1    3    3    0    0  0.34504922389E+02  0.11591320234E+02  0.11427672671E+02  0.38192902554E+02  0.17770000000E+01 0. -1.
         15    1    3    3    0    0 -0.16273556286E+02 -0.51777811057E+02 -0.34574981051E+02  0.64376683634E+02  0.17770000000E+01 0.  1.
</event>
<event>
 7    1  0.4133533E-006  0.4102982E+03  0.7546771E-02  0.9626453E-01
        -11   -1    0    0    0    0  0.00000000000E+00  0.00000000000E+00  0.50000000000E+03  0.50000000000E+03  0.00000000000E+00 0. -1.
         11   -1    0    0    0    0 -0.00000000000E+00 -0.00000000000E+00 -0.50000000000E+03  0.50000000000E+03  0.00000000000E+00 0. -1.
         23    2    1    2    0    0  0.10728141003E+03 -0.59100500398E+02  0.70406846564E+01  0.17028308684E+03  0.11808720650E+03 0.  0.
        -11    1    1    2    0    0  0.22927697545E+03  0.25724412837E+03  0.18868109614E+03  0.39286515383E+03  0.00000000000E+00 0. -1.
         11    1    1    2    0    0 -0.33655838548E+03 -0.19814362797E+03 -0.19572178080E+03  0.43685175933E+03  0.00000000000E+00 0. -1.
        -15    1    3    3    0    0  0.40896078895E+02  0.21948634436E+02  0.39092375969E+02  0.60709170728E+02  0.17770000000E+01 0. -1.
         15    1    3    3    0    0  0.66385331138E+02 -0.81049134834E+02 -0.32051691312E+02  0.10957391611E+03  0.17770000000E+01 0.  1.
</event>
<event>
 7    1  0.4133533E-006  0.4295580E+03  0.7546771E-02  0.9572885E-01
        -11   -1    0    0    0    0  0.00000000000E+00  0.00000000000E+00  0.50000000000E+03  0.50000000000E+03  0.00000000000E+00 0.  1.
         11   -1    0    0    0    0 -0.00000000000E+00 -0.00000000000E+00 -0.50000000000E+03  0.50000000000E+03  0.00000000000E+00 0. -1.
         23    2    1    2    0    0  0.10231278757E+03  0.97958779339E+02 -0.36860063467E+03  0.40524233912E+03  0.91055458814E+02 0.  0.
        -11    1    1    2    0    0  0.94588705471E+01 -0.76436186895E+02  0.44889981770E+03  0.45545911697E+03  0.00000000000E+00 0.  1.
         11    1    1    2    0    0 -0.11177165812E+03 -0.21522592445E+02 -0.80299183023E+02  0.13929854392E+03  0.00000000000E+00 0. -1.
        -15    1    3    3    0    0  0.68488234859E+02  0.98905701534E+02 -0.20106512387E+03  0.23431457035E+03  0.17770000000E+01 0.  1.
         15    1    3    3    0    0  0.33824552710E+02 -0.94692219433E+00 -0.16753551080E+03  0.17092776877E+03  0.17770000000E+01 0. -1.
</event>
<event>
 7    1  0.4133533E-006  0.3138954E+03  0.7546771E-02  0.9951824E-01
        -11   -1    0    0    0    0  0.00000000000E+00  0.00000000000E+00  0.50000000000E+03  0.50000000000E+03  0.00000000000E+00 0. -1.
         11   -1    0    0    0    0 -0.00000000000E+00 -0.00000000000E+00 -0.50000000000E+03  0.50000000000E+03  0.00000000000E+00 0.  1.
         23    2    1    2    0    0 -0.27212533668E+03 -0.73192511518E+02 -0.22831273816E+03  0.37311332389E+03  0.87621364120E+02 0.  0.
        -11    1    1    2    0    0  0.37682961503E+02 -0.13301420952E+03  0.27824168850E+03  0.31069474206E+03  0.00000000000E+00 0. -1.
         11    1    1    2    0    0  0.23444237518E+03  0.20620672104E+03 -0.49928950340E+02  0.31619193406E+03  0.00000000000E+00 0.  1.
        -15    1    3    3    0    0 -0.11764016496E+03 -0.12200822677E+02 -0.14550303126E+03  0.18751628814E+03  0.17770000000E+01 0. -1.
         15    1    3    3    0    0 -0.15448517173E+03 -0.60991688841E+02 -0.82809706900E+02  0.18559703574E+03  0.17770000000E+01 0.  1.
</event>
<event>
 7    1  0.4133533E-006  0.5065703E+03  0.7546771E-02  0.9385227E-01
        -11   -1    0    0    0    0  0.00000000000E+00  0.00000000000E+00  0.50000000000E+03  0.50000000000E+03  0.00000000000E+00 0.  1.
         11   -1    0    0    0    0 -0.00000000000E+00 -0.00000000000E+00 -0.50000000000E+03  0.50000000000E+03  0.00000000000E+00 0.  1.
         23    2    1    2    0    0 -0.51162576244E+02 -0.46369167330E+02 -0.47906032353E+03  0.49342968835E+03  0.95949751849E+02 0.  0.
        -11    1    1    2    0    0  0.81348543165E+02  0.19292128986E+02  0.44734382091E+03  0.45508929434E+03  0.00000000000E+00 0.  1.
         11    1    1    2    0    0 -0.30185966921E+02  0.27077038344E+02  0.31716502618E+02  0.51481017305E+02  0.00000000000E+00 0.  1.
        -15    1    3    3    0    0 -0.50802417318E+02  0.14907604722E+02 -0.28617571565E+03  0.29103748941E+03  0.17770000000E+01 0. -1.
         15    1    3    3    0    0 -0.36015892628E+00 -0.61276772052E+02 -0.19288460788E+03  0.20239219894E+03  0.17770000000E+01 0.  1.
</event>
<event>
 7    1  0.4843459E-006  0.5096721E+03  0.7546771E-02  0.9378424E-01
        -11   -1    0    0    0    0  0.00000000000E+00  0.00000000000E+00  0.50000000000E+03  0.50000000000E+03  0.00000000000E+00 0.  1.
         11   -1    0    0    0    0 -0.00000000000E+00 -0.00000000000E+00 -0.50000000000E+03  0.50000000000E+03  0.00000000000E+00 0.  1.
         23    2    1    2    0    0 -0.52795476456E+02  0.51928076211E+02  0.28616190245E+03  0.30962941660E+03  0.92183804292E+02 0.  0.
        -11    1    1    2    0    0 -0.43116554483E+02 -0.23882691945E+02  0.19387536745E+03  0.20004269132E+03  0.00000000000E+00 0.  1.
         11    1    1    2    0    0  0.95912030939E+02 -0.28045384267E+02 -0.48003726991E+03  0.49032789208E+03  0.00000000000E+00 0.  1.
        -15    1    3    3    0    0 -0.27569671702E+02  0.77040853641E+02  0.18249391938E+03  0.20000642056E+03  0.17770000000E+01 0.  1.
         15    1    3    3    0    0 -0.25225804754E+02 -0.25112777429E+02  0.10366798307E+03  0.10962299603E+03  0.17770000000E+01 0. -1.
</event>
<event>
 7    1  0.4133533E-006  0.5075769E+03  0.7546771E-02  0.9383014E-01
        -11   -1    0    0    0    0  0.00000000000E+00  0.00000000000E+00  0.50000000000E+03  0.50000000000E+03  0.00000000000E+00 0. -1.
         11   -1    0    0    0    0 -0.00000000000E+00 -0.00000000000E+00 -0.50000000000E+03  0.50000000000E+03  0.00000000000E+00 0.  1.
         23    2    1    2    0    0 -0.22291837422E+01  0.59445706515E+02 -0.35974673914E+03  0.37833641915E+03  0.10090574041E+03 0.  0.
        -11    1    1    2    0    0  0.16099583474E+02 -0.98145212680E+02  0.48227459197E+03  0.49242305127E+03  0.00000000000E+00 0. -1.
         11    1    1    2    0    0 -0.13870399732E+02  0.38699506165E+02 -0.12252785283E+03  0.12924052958E+03  0.00000000000E+00 0.  1.
        -15    1    3    3    0    0  0.38791243402E+02  0.12163746287E+02 -0.23774193797E+03  0.24119930367E+03  0.17770000000E+01 0. -1.
         15    1    3    3    0    0 -0.41020427144E+02  0.47281960228E+02 -0.12200480116E+03  0.13713711548E+03  0.17770000000E+01 0.  1.
</event>
<event>
 7    1  0.4133533E-006  0.4294764E+03  0.7546771E-02  0.9573105E-01
        -11   -1    0    0    0    0  0.00000000000E+00  0.00000000000E+00  0.50000000000E+03  0.50000000000E+03  0.00000000000E+00 0.  1.
         11   -1    0    0    0    0 -0.00000000000E+00 -0.00000000000E+00 -0.50000000000E+03  0.50000000000E+03  0.00000000000E+00 0. -1.
         23    2    1    2    0    0 -0.15266811652E+03  0.88713243412E+02 -0.41509346793E+03  0.46185001774E+03  0.99122441477E+02 0.  0.
        -11    1    1    2    0    0  0.11319057779E+03  0.41573703701E+02  0.37840923776E+03  0.39715743850E+03  0.00000000000E+00 0.  1.
         11    1    1    2    0    0  0.39477538728E+02 -0.13028694711E+03  0.36684230176E+02  0.14099254376E+03  0.00000000000E+00 0. -1.
        -15    1    3    3    0    0  0.90610033618E+01  0.22880109381E+02 -0.83735402060E+02  0.87294767737E+02  0.17770000000E+01 0.  1.
         15    1    3    3    0    0 -0.16172911988E+03  0.65833134031E+02 -0.33135806587E+03  0.37455525000E+03  0.17770000000E+01 0. -1.
</event>
<event>
 7    1  0.4133533E-006  0.4417203E+03  0.7546771E-02  0.9540577E-01
        -11   -1    0    0    0    0  0.00000000000E+00  0.00000000000E+00  0.50000000000E+03  0.50000000000E+03  0.00000000000E+00 0. -1.
         11   -1    0    0    0    0 -0.00000000000E+00 -0.00000000000E+00 -0.50000000000E+03  0.50000000000E+03  0.00000000000E+00 0.  1.
         23    2    1    2    0    0 -0.11967212944E+03  0.11621867862E+03 -0.36914830172E+03  0.41596862497E+03  0.94505176960E+02 0.  0.
        -11    1    1    2    0    0  0.20820681287E+03 -0.50363983916E+02  0.41303788221E+03  0.46528152762E+03  0.00000000000E+00 0. -1.
         11    1    1    2    0    0 -0.88534683436E+02 -0.65854694700E+02 -0.43889580490E+02  0.11874984741E+03  0.00000000000E+00 0.  1.
        -15    1    3    3    0    0  0.15464031141E+02  0.48516214743E+01 -0.25390468768E+02  0.30174627145E+02  0.17770000000E+01 0. -1.
         15    1    3    3    0    0 -0.13513616058E+03  0.11136705714E+03 -0.34375783295E+03  0.38579399782E+03  0.17770000000E+01 0.  1.
</event>
<event>
 7    1  0.4133533E-006  0.5281973E+03  0.7546771E-02  0.9338836E-01
        -11   -1    0    0    0    0  0.00000000000E+00  0.00000000000E+00  0.50000000000E+03  0.50000000000E+03  0.00000000000E+00 0.  1.
         11   -1    0    0    0    0 -0.00000000000E+00 -0.00000000000E+00 -0.50000000000E+03  0.50000000000E+03  0.00000000000E+00 0.  1.
         23    2    1    2    0    0  0.46871785801E+02 -0.21431447178E+01 -0.22786313445E+03  0.24913889126E+03  0.89146069585E+02 0.  0.
        -11    1    1    2    0    0  0.93447365837E+02 -0.75432503112E+02  0.45626228810E+03  0.47180265816E+03  0.00000000000E+00 0.  1.
         11    1    1    2    0    0 -0.14031915164E+03  0.77575647830E+02 -0.22839915365E+03  0.27905845058E+03  0.00000000000E+00 0.  1.
        -15    1    3    3    0    0  0.21308585080E+02  0.42137623024E+02 -0.83014189128E+02  0.95520408279E+02  0.17770000000E+01 0.  1.
         15    1    3    3    0    0  0.25563200721E+02 -0.44280767742E+02 -0.14484894532E+03  0.15361848298E+03  0.17770000000E+01 0. -1.
</event>
<event>
 7    1  0.4133533E-006  0.3904355E+03  0.7546771E-02  0.9685091E-01
        -11   -1    0    0    0    0  0.00000000000E+00  0.00000000000E+00  0.50000000000E+03  0.50000000000E+03  0.00000000000E+00 0. -1.
         11   -1    0    0    0    0 -0.00000000000E+00 -0.00000000000E+00 -0.50000000000E+03  0.50000000000E+03  0.00000000000E+00 0.  1.
         23    2    1    2    0    0 -0.79926696568E+02  0.12456945091E+03 -0.10332783396E+03  0.19853766588E+03  0.82672477751E+02 0.  0.
        -11    1    1    2    0    0  0.21328754709E+03  0.24690258127E+02  0.39390261316E+03  0.44862061393E+03  0.00000000000E+00 0. -1.
         11    1    1    2    0    0 -0.13336085052E+03 -0.14925970904E+03 -0.29057477921E+03  0.35284172019E+03  0.00000000000E+00 0.  1.
        -15    1    3    3    0    0 -0.85840104304E+02  0.10603880886E+03 -0.11261247529E+03  0.17691093752E+03  0.17770000000E+01 0.  1.
         15    1    3    3    0    0  0.59134077366E+01  0.18530642051E+02  0.92846413388E+01  0.21626728362E+02  0.17770000000E+01 0. -1.
</event>
<event>
 7    1  0.4133533E-006  0.5220497E+03  0.7546771E-02  0.9351780E-01
        -11   -1    0    0    0    0  0.00000000000E+00  0.00000000000E+00  0.50000000000E+03  0.50000000000E+03  0.00000000000E+00 0. -1.
         11   -1    0    0    0    0 -0.00000000000E+00 -0.00000000000E+00 -0.50000000000E+03  0.50000000000E+03  0.00000000000E+00 0.  1.
         23    2    1    2    0    0  0.17853428031E+02  0.17776791642E+03 -0.33656479184E+03  0.39154517164E+03  0.90064339949E+02 0.  0.
        -11    1    1    2    0    0 -0.59259813113E+02 -0.13796519127E+03  0.45375139002E+03  0.47795025201E+03  0.00000000000E+00 0. -1.
         11    1    1    2    0    0  0.41406385082E+02 -0.39802725148E+02 -0.11718659818E+03  0.13050457635E+03  0.00000000000E+00 0.  1.
        -15    1    3    3    0    0 -0.26838185383E+02  0.14716887560E+02 -0.60365038050E+02  0.67705025824E+02  0.17770000000E+01 0.  1.
         15    1    3    3    0    0  0.44691613413E+02  0.16305102886E+03 -0.27619975379E+03  0.32384014582E+03  0.17770000000E+01 0. -1.
</event>
<event>
 7    1  0.4133533E-006  0.5195304E+03  0.7546771E-02  0.9357139E-01
        -11   -1    0    0    0    0  0.00000000000E+00  0.00000000000E+00  0.50000000000E+03  0.50000000000E+03  0.00000000000E+00 0. -1.
         11   -1    0    0    0    0 -0.00000000000E+00 -0.00000000000E+00 -0.50000000000E+03  0.50000000000E+03  0.00000000000E+00 0.  1.
         23    2    1    2    0    0 -0.28653118564E+01  0.33343554648E+02 -0.88789305539E+02  0.13017887912E+03  0.89123493773E+02 0.  0.
        -11    1    1    2    0    0  0.71856918314E+02 -0.63710115595E+02  0.47077447201E+03  0.48046956099E+03  0.00000000000E+00 0. -1.
         11    1    1    2    0    0 -0.68991606457E+02  0.30366560947E+02 -0.38198516647E+03  0.38935155989E+03  0.00000000000E+00 0.  1.
        -15    1    3    3    0    0 -0.12686794596E+01 -0.21032610483E+02  0.50106308223E+01  0.21731185001E+02  0.17770000000E+01 0. -1.
         15    1    3    3    0    0 -0.15966323968E+01  0.54376165132E+02 -0.93799936362E+02  0.10844769412E+03  0.17770000000E+01 0.  1.
</event>
<event>
 7    1  0.4133533E-006  0.5195830E+03  0.7546771E-02  0.9357027E-01
        -11   -1    0    0    0    0  0.00000000000E+00  0.00000000000E+00  0.50000000000E+03  0.50000000000E+03  0.00000000000E+00 0. -1.
         11   -1    0    0    0    0 -0.00000000000E+00 -0.00000000000E+00 -0.50000000000E+03  0.50000000000E+03  0.00000000000E+00 0.  1.
         23    2    1    2    0    0  0.27271111974E+02  0.39465278078E+02 -0.15546354063E+03  0.18760671619E+03  0.93413841444E+02 0.  0.
        -11    1    1    2    0    0 -0.21826277713E+03 -0.17648358089E+03  0.38989146605E+03  0.48041695380E+03  0.00000000000E+00 0. -1.
         11    1    1    2    0    0  0.19099166516E+03  0.13701830281E+03 -0.23442792542E+03  0.33197633000E+03  0.00000000000E+00 0.  1.
        -15    1    3    3    0    0  0.46591147087E+02 -0.13134540025E+02 -0.81303226964E+02  0.94639439835E+02  0.17770000000E+01 0. -1.
         15    1    3    3    0    0 -0.19320035113E+02  0.52599818103E+02 -0.74160313669E+02  0.92967276359E+02  0.17770000000E+01 0.  1.
</event>
<event>
 7    1  0.4133533E-006  0.4412613E+03  0.7546771E-02  0.9541776E-01
        -11   -1    0    0    0    0  0.00000000000E+00  0.00000000000E+00  0.50000000000E+03  0.50000000000E+03  0.00000000000E+00 0. -1.
         11   -1    0    0    0    0 -0.00000000000E+00 -0.00000000000E+00 -0.50000000000E+03  0.50000000000E+03  0.00000000000E+00 0.  1.
         23    2    1    2    0    0  0.35640957532E+02  0.48158343501E+02  0.38757329587E+02  0.11459738041E+03  0.89671205507E+02 0.  0.
        -11    1    1    2    0    0 -0.78983359262E+02  0.17859583673E+02  0.41601559092E+03  0.42382343925E+03  0.00000000000E+00 0. -1.
         11    1    1    2    0    0  0.43342401730E+02 -0.66017927174E+02 -0.45477292051E+03  0.46157918034E+03  0.00000000000E+00 0.  1.
        -15    1    3    3    0    0  0.33497728798E+02 -0.20281191223E+02  0.17019901963E+02  0.42734755690E+02  0.17770000000E+01 0. -1.
         15    1    3    3    0    0  0.21432287333E+01  0.68439534724E+02  0.21737427625E+02  0.71862624718E+02  0.17770000000E+01 0.  1.
</event>
<event>
 7    1  0.4133533E-006  0.5264530E+03  0.7546771E-02  0.9342490E-01
        -11   -1    0    0    0    0  0.00000000000E+00  0.00000000000E+00  0.50000000000E+03  0.50000000000E+03  0.00000000000E+00 0.  1.
         11   -1    0    0    0    0 -0.00000000000E+00 -0.00000000000E+00 -0.50000000000E+03  0.50000000000E+03  0.00000000000E+00 0. -1.
         23    2    1    2    0    0  0.84381327160E+00  0.14462939894E+03  0.16142676324E+03  0.23492925584E+03  0.90635425198E+02 0.  0.
        -11    1    1    2    0    0  0.47598436449E+02 -0.22481515776E+01  0.28760292813E+03  0.29152377194E+03  0.00000000000E+00 0.  1.
         11    1    1    2    0    0 -0.48442249721E+02 -0.14238124737E+03 -0.44902969137E+03  0.47354697221E+03  0.00000000000E+00 0. -1.
        -15    1    3    3    0    0 -0.12697763053E+02 -0.34152242529E+01  0.42557241524E+02  0.44577724015E+02  0.17770000000E+01 0.  1.
         15    1    3    3    0    0  0.13541576325E+02  0.14804462320E+03  0.11886952172E+03  0.19035153183E+03  0.17770000000E+01 0. -1.
</event>
<event>
 7    1  0.4133533E-006  0.5120449E+03  0.7546771E-02  0.9373255E-01
        -11   -1    0    0    0    0  0.00000000000E+00  0.00000000000E+00  0.50000000000E+03  0.50000000000E+03  0.00000000000E+00 0.  1.
         11   -1    0    0    0    0 -0.00000000000E+00 -0.00000000000E+00 -0.50000000000E+03  0.50000000000E+03  0.00000000000E+00 0. -1.
         23    2    1    2    0    0  0.34896041121E+02 -0.82241790290E+00 -0.30069343876E+03  0.31646651093E+03  0.92282708948E+02 0.  0.
        -11    1    1    2    0    0 -0.96677677541E+02  0.69001215949E+02  0.47327842229E+03  0.48795512718E+03  0.00000000000E+00 0.  1.
         11    1    1    2    0    0  0.61781636420E+02 -0.68178798046E+02 -0.17258498353E+03  0.19557836189E+03  0.00000000000E+00 0. -1.
        -15    1    3    3    0    0 -0.12262621245E+02  0.20957485802E+02 -0.21513689597E+02  0.32489762388E+02  0.17770000000E+01 0.  1.
         15    1    3    3    0    0  0.47158662367E+02 -0.21779903705E+02 -0.27917974916E+03  0.28397674854E+03  0.17770000000E+01 0. -1.
</event>
<event>
 7    1  0.4133533E-006  0.4466262E+03  0.7546771E-02  0.9527857E-01
        -11   -1    0    0    0    0  0.00000000000E+00  0.00000000000E+00  0.50000000000E+03  0.50000000000E+03  0.00000000000E+00 0. -1.
         11   -1    0    0    0    0 -0.00000000000E+00 -0.00000000000E+00 -0.50000000000E+03  0.50000000000E+03  0.00000000000E+00 0. -1.
         23    2    1    2    0    0  0.62397564765E+02  0.12860394073E+03 -0.44232692407E+03  0.47373246024E+03  0.91306661676E+02 0.  0.
        -11    1    1    2    0    0  0.21773145335E+02 -0.66087002767E+02  0.41098761075E+03  0.41683615245E+03  0.00000000000E+00 0. -1.
         11    1    1    2    0    0 -0.84170710100E+02 -0.62516937959E+02  0.31339313318E+02  0.10943138731E+03  0.00000000000E+00 0. -1.
        -15    1    3    3    0    0  0.17136373409E+02 -0.96758426100E+01 -0.97151345543E+02  0.99140399906E+02  0.17770000000E+01 0.  1.
         15    1    3    3    0    0  0.45261191356E+02  0.13827978334E+03 -0.34517557853E+03  0.37459206033E+03  0.17770000000E+01 0. -1.
</event>
<event>
 7    1  0.4133533E-006  0.3378678E+03  0.7546771E-02  0.9860203E-01
        -11   -1    0    0    0    0  0.00000000000E+00  0.00000000000E+00  0.50000000000E+03  0.50000000000E+03  0.00000000000E+00 0. -1.
         11   -1    0    0    0    0 -0.00000000000E+00 -0.00000000000E+00 -0.50000000000E+03  0.50000000000E+03  0.00000000000E+00 0.  1.
         23    2    1    2    0    0 -0.18499912716E+03 -0.15336204248E+03  0.10018775206E+03  0.27584472613E+03  0.91148966792E+02 0.  0.
        -11    1    1    2    0    0  0.15943452270E+03 -0.31420524500E+02  0.26684919677E+03  0.31243416940E+03  0.00000000000E+00 0. -1.
         11    1    1    2    0    0  0.25564604461E+02  0.18478256698E+03 -0.36703694883E+03  0.41172110447E+03  0.00000000000E+00 0.  1.
        -15    1    3    3    0    0 -0.13889824868E+03 -0.14237874285E+03  0.46631023712E+02  0.20430868802E+03  0.17770000000E+01 0.  1.
         15    1    3    3    0    0 -0.46100878487E+02 -0.10983299632E+02  0.53556728346E+02  0.71536038109E+02  0.17770000000E+01 0. -1.
</event>
<event>
 7    1  0.4133533E-006  0.3427276E+03  0.7546771E-02  0.9842623E-01
        -11   -1    0    0    0    0  0.00000000000E+00  0.00000000000E+00  0.50000000000E+03  0.50000000000E+03  0.00000000000E+00 0.  1.
         11   -1    0    0    0    0 -0.00000000000E+00 -0.00000000000E+00 -0.50000000000E+03  0.50000000000E+03  0.00000000000E+00 0. -1.
         23    2    1    2    0    0 -0.20084304134E+03  0.13699229188E+02 -0.23064004824E+03  0.31937343815E+03  0.90988818039E+02 0.  0.
        -11    1    1    2    0    0 -0.31928995609E+01 -0.84560674447E+02  0.39830661192E+03  0.40719634007E+03  0.00000000000E+00 0.  1.
         11    1    1    2    0    0  0.20403594090E+03  0.70861445259E+02 -0.16766656368E+03  0.27343022178E+03  0.00000000000E+00 0. -1.
        -15    1    3    3    0    0 -0.16716606208E+03  0.15578374154E+02 -0.23102857565E+03  0.28559506044E+03  0.17770000000E+01 0. -1.
         15    1    3    3    0    0 -0.33676979261E+02 -0.18791449653E+01  0.38852741291E+00  0.33778377706E+02  0.17770000000E+01 0.  1.
</event>
<event>
 7    1  0.4133533E-006  0.5134920E+03  0.7546771E-02  0.9370116E-01
        -11   -1    0    0    0    0  0.00000000000E+00  0.00000000000E+00  0.50000000000E+03  0.50000000000E+03  0.00000000000E+00 0.  1.
         11   -1    0    0    0    0 -0.00000000000E+00 -0.00000000000E+00 -0.50000000000E+03  0.50000000000E+03  0.00000000000E+00 0. -1.
         23    2    1    2    0    0 -0.83680031479E+02 -0.69927875239E+01  0.36443122475E+03  0.38583808648E+03  0.94919253388E+02 0.  0.
        -11    1    1    2    0    0 -0.62519736905E+01 -0.68167650970E+02  0.10774792005E+03  0.12765394662E+03  0.00000000000E+00 0.  1.
         11    1    1    2    0    0  0.89932005169E+02  0.75160438494E+02 -0.47217914480E+03  0.48650796689E+03  0.00000000000E+00 0. -1.
        -15    1    3    3    0    0  0.10408043465E+02 -0.21949116940E+02  0.13865837028E+03  0.14078136411E+03  0.17770000000E+01 0. -1.
         15    1    3    3    0    0 -0.94088074944E+02  0.14956329416E+02  0.22577285447E+03  0.24505672238E+03  0.17770000000E+01 0.  1.
</event>
<event>
 7    1  0.4133533E-006  0.5307223E+03  0.7546771E-02  0.9333574E-01
        -11   -1    0    0    0    0  0.00000000000E+00  0.00000000000E+00  0.50000000000E+03  0.50000000000E+03  0.00000000000E+00 0.  1.
         11   -1    0    0    0    0 -0.00000000000E+00 -0.00000000000E+00 -0.50000000000E+03  0.50000000000E+03  0.00000000000E+00 0. -1.
         23    2    1    2    0    0  0.15163451713E+01 -0.32449284296E+02 -0.13905671844E+03  0.17013876473E+03  0.92494178013E+02 0.  0.
        -11    1    1    2    0    0 -0.93616454652E+02 -0.15522151349E+03  0.43285545177E+03  0.46927774395E+03  0.00000000000E+00 0.  1.
         11    1    1    2    0    0  0.92100109481E+02  0.18767079778E+03 -0.29379873334E+03  0.36058349133E+03  0.00000000000E+00 0. -1.
        -15    1    3    3    0    0  0.28180914763E+02 -0.38499167680E+02 -0.13403222829E+03  0.14228192372E+03  0.17770000000E+01 0. -1.
         15    1    3    3    0    0 -0.26664569592E+02  0.60498833848E+01 -0.50244901479E+01  0.27856841005E+02  0.17770000000E+01 0.  1.
</event>
<event>
 7    1  0.4133533E-006  0.4689836E+03  0.7546771E-02  0.9472018E-01
        -11   -1    0    0    0    0  0.00000000000E+00  0.00000000000E+00  0.50000000000E+03  0.50000000000E+03  0.00000000000E+00 0. -1.
         11   -1    0    0    0    0 -0.00000000000E+00 -0.00000000000E+00 -0.50000000000E+03  0.50000000000E+03  0.00000000000E+00 0.  1.
         23    2    1    2    0    0 -0.40159678019E+02  0.10132179341E+03 -0.41533960248E+03  0.43919662679E+03  0.92237660631E+02 0.  0.
        -11    1    1    2    0    0  0.75636808723E+02 -0.11451356729E+03  0.47262268875E+03  0.49214478545E+03  0.00000000000E+00 0. -1.
         11    1    1    2    0    0 -0.35477130704E+02  0.13191773875E+02 -0.57283086267E+02  0.68658587761E+02  0.00000000000E+00 0.  1.
        -15    1    3    3    0    0 -0.22774677959E+02  0.11208652821E+03 -0.39083816081E+03  0.40723420956E+03  0.17770000000E+01 0.  1.
         15    1    3    3    0    0 -0.17385000060E+02 -0.10764734797E+02 -0.24501441668E+02  0.31962417230E+02  0.17770000000E+01 0. -1.
</event>
<event>
 7    1  0.4133533E-006  0.5303652E+03  0.7546771E-02  0.9334316E-01
        -11   -1    0    0    0    0  0.00000000000E+00  0.00000000000E+00  0.50000000000E+03  0.50000000000E+03  0.00000000000E+00 0. -1.
         11   -1    0    0    0    0 -0.00000000000E+00 -0.00000000000E+00 -0.50000000000E+03  0.50000000000E+03  0.00000000000E+00 0.  1.
         23    2    1    2    0    0  0.78113831533E+01 -0.70084780533E+02 -0.34812896083E+03  0.36584489408E+03  0.87611751430E+02 0.  0.
        -11    1    1    2    0    0  0.87856789378E+02 -0.13110871330E+01  0.46134186197E+03  0.46963480279E+03  0.00000000000E+00 0. -1.
         11    1    1    2    0    0 -0.95668172531E+02  0.71395867666E+02 -0.11321290114E+03  0.16452030312E+03  0.00000000000E+00 0.  1.
        -15    1    3    3    0    0  0.44495761970E+02 -0.54598380450E+02 -0.18624490254E+03  0.19912603404E+03  0.17770000000E+01 0.  1.
         15    1    3    3    0    0 -0.36684378817E+02 -0.15486400084E+02 -0.16188405829E+03  0.16671886005E+03  0.17770000000E+01 0. -1.
</event>
<event>
 7    1  0.4133533E-006  0.5221711E+03  0.7546771E-02  0.9351522E-01
        -11   -1    0    0    0    0  0.00000000000E+00  0.00000000000E+00  0.50000000000E+03  0.50000000000E+03  0.00000000000E+00 0.  1.
         11   -1    0    0    0    0 -0.00000000000E+00 -0.00000000000E+00 -0.50000000000E+03  0.50000000000E+03  0.00000000000E+00 0. -1.
         23    2    1    2    0    0  0.20758507861E+02  0.34094918874E+02 -0.87091128978E+02  0.11447140024E+03  0.62653472245E+02 0.  0.
        -11    1    1    2    0    0 -0.14126343741E+03  0.14569993724E+03  0.43259286619E+03  0.47782885884E+03  0.00000000000E+00 0.  1.
         11    1    1    2    0    0  0.12050492955E+03 -0.17979485612E+03 -0.34550173721E+03  0.40769974092E+03  0.00000000000E+00 0. -1.
        -15    1    3    3    0    0  0.38993604673E+02  0.21314930980E+02 -0.79101682294E+02  0.90747238849E+02  0.17770000000E+01 0. -1.
         15    1    3    3    0    0 -0.18235096812E+02  0.12779987895E+02 -0.79894466842E+01  0.23724161390E+02  0.17770000000E+01 0.  1.
</event>
<event>
 7    1  0.4133533E-006  0.5236021E+03  0.7546771E-02  0.9348494E-01
        -11   -1    0    0    0    0  0.00000000000E+00  0.00000000000E+00  0.50000000000E+03  0.50000000000E+03  0.00000000000E+00 0.  1.
         11   -1    0    0    0    0 -0.00000000000E+00 -0.00000000000E+00 -0.50000000000E+03  0.50000000000E+03  0.00000000000E+00 0. -1.
         23    2    1    2    0    0  0.13965538288E+03  0.71654463056E+01 -0.38578041762E+03  0.41998900302E+03  0.89494482817E+02 0.  0.
        -11    1    1    2    0    0 -0.84575978422E+02 -0.40145778677E+02  0.46710832643E+03  0.47639790962E+03  0.00000000000E+00 0.  1.
         11    1    1    2    0    0 -0.55079404462E+02  0.32980332372E+02 -0.81327908815E+02  0.10361308736E+03  0.00000000000E+00 0. -1.
        -15    1    3    3    0    0  0.43112099536E+02  0.98994141321E+01 -0.35834523385E+02  0.56955441547E+02  0.17770000000E+01 0.  1.
         15    1    3    3    0    0  0.96543283348E+02 -0.27339678265E+01 -0.34994589423E+03  0.36303356147E+03  0.17770000000E+01 0. -1.
</event>
<event>
 7    1  0.4470407E-006  0.5113400E+03  0.7546771E-02  0.9374787E-01
        -11   -1    0    0    0    0  0.00000000000E+00  0.00000000000E+00  0.50000000000E+03  0.50000000000E+03  0.00000000000E+00 0.  1.
         11   -1    0    0    0    0 -0.00000000000E+00 -0.00000000000E+00 -0.50000000000E+03  0.50000000000E+03  0.00000000000E+00 0.  1.
         23    2    1    2    0    0 -0.36652851832E+02 -0.94176323341E+02  0.28531843325E+03  0.31795188532E+03  0.97335407762E+02 0.  0.
        -11    1    1    2    0    0  0.30356065048E+02 -0.18781490310E+02  0.19006506774E+03  0.19338812021E+03  0.00000000000E+00 0.  1.
         11    1    1    2    0    0  0.62967867845E+01  0.11295781365E+03 -0.47538350098E+03  0.48865999447E+03  0.00000000000E+00 0.  1.
        -15    1    3    3    0    0 -0.52195074919E+02 -0.27086362055E+02  0.19899548265E+03  0.20750989542E+03  0.17770000000E+01 0.  1.
         15    1    3    3    0    0  0.15542223086E+02 -0.67089961285E+02  0.86322950597E+02  0.11044198990E+03  0.17770000000E+01 0. -1.
</event>
<event>
 7    1  0.4133533E-006  0.3967986E+03  0.7546771E-02  0.9665907E-01
        -11   -1    0    0    0    0  0.00000000000E+00  0.00000000000E+00  0.50000000000E+03  0.50000000000E+03  0.00000000000E+00 0.  1.
         11   -1    0    0    0    0 -0.00000000000E+00 -0.00000000000E+00 -0.50000000000E+03  0.50000000000E+03  0.00000000000E+00 0. -1.
         23    2    1    2    0    0  0.35059269326E+03 -0.51161094770E+02 -0.71150825832E+01  0.36625654820E+03  0.92523189061E+02 0.  0.
        -11    1    1    2    0    0  0.54642192822E+02  0.51462088567E+02  0.17858927844E+03  0.19372208488E+03  0.00000000000E+00 0.  1.
         11    1    1    2    0    0 -0.40523488608E+03 -0.30099379704E+00 -0.17147419586E+03  0.44002136692E+03  0.00000000000E+00 0. -1.
        -15    1    3    3    0    0  0.24885617781E+03  0.65942870663E+01  0.13047349990E+01  0.24895329264E+03  0.17770000000E+01 0.  1.
         15    1    3    3    0    0  0.10173651545E+03 -0.57755381836E+02 -0.84198175822E+01  0.11730325556E+03  0.17770000000E+01 0. -1.
</event>
<event>
 7    1  0.4133533E-006  0.5433583E+03  0.7546771E-02  0.9307699E-01
        -11   -1    0    0    0    0  0.00000000000E+00  0.00000000000E+00  0.50000000000E+03  0.50000000000E+03  0.00000000000E+00 0.  1.
         11   -1    0    0    0    0 -0.00000000000E+00 -0.00000000000E+00 -0.50000000000E+03  0.50000000000E+03  0.00000000000E+00 0.  1.
         23    2    1    2    0    0  0.25144111883E+02  0.99758823212E+01  0.29805356908E+02  0.11801125194E+03  0.11093489845E+03 0.  0.
        -11    1    1    2    0    0  0.43403860534E+02 -0.59018654265E+02  0.41899043142E+03  0.42534700925E+03  0.00000000000E+00 0.  1.
         11    1    1    2    0    0 -0.68547972417E+02  0.49042771943E+02 -0.44879578833E+03  0.45664173881E+03  0.00000000000E+00 0.  1.
        -15    1    3    3    0    0 -0.13917219952E+02  0.39684396222E+02  0.49610267038E+02  0.65060561320E+02  0.17770000000E+01 0. -1.
         15    1    3    3    0    0  0.39061331835E+02 -0.29708513901E+02 -0.19804910130E+02  0.52950690620E+02  0.17770000000E+01 0.  1.
</event>
<event>
 7    1  0.4133533E-006  0.4800716E+03  0.7546771E-02  0.9445539E-01
        -11   -1    0    0    0    0  0.00000000000E+00  0.00000000000E+00  0.50000000000E+03  0.50000000000E+03  0.00000000000E+00 0. -1.
         11   -1    0    0    0    0 -0.00000000000E+00 -0.00000000000E+00 -0.50000000000E+03  0.50000000000E+03  0.00000000000E+00 0. -1.
         23    2    1    2    0    0  0.33568443547E+01 -0.22736918977E+03  0.40682167481E+03  0.47335215270E+03  0.82766953024E+02 0.  0.
        -11    1    1    2    0    0 -0.45293694729E+01  0.32176775360E+02  0.32473068724E+02  0.45938657498E+02  0.00000000000E+00 0. -1.
         11    1    1    2    0    0  0.11725251182E+01  0.19519241441E+03 -0.43929474354E+03  0.48070918980E+03  0.00000000000E+00 0. -1.
        -15    1    3    3    0    0 -0.17763326129E+01 -0.77181146254E+02  0.68790960281E+02  0.10341875381E+03  0.17770000000E+01 0. -1.
         15    1    3    3    0    0  0.51331769676E+01 -0.15018804351E+03  0.33803071453E+03  0.36993339889E+03  0.17770000000E+01 0.  1.
</event>
<event>
 7    1  0.4133533E-006  0.5169644E+03  0.7546771E-02  0.9362631E-01
        -11   -1    0    0    0    0  0.00000000000E+00  0.00000000000E+00  0.50000000000E+03  0.50000000000E+03  0.00000000000E+00 0.  1.
         11   -1    0    0    0    0 -0.00000000000E+00 -0.00000000000E+00 -0.50000000000E+03  0.50000000000E+03  0.00000000000E+00 0. -1.
         23    2    1    2    0    0 -0.34155680189E+02  0.76490431261E+02 -0.32046601046E+03  0.34540622229E+03  0.97926492731E+02 0.  0.
        -11    1    1    2    0    0  0.12220328141E+03 -0.47755072585E+02  0.46487549451E+03  0.48303562429E+03  0.00000000000E+00 0.  1.
         11    1    1    2    0    0 -0.88047601219E+02 -0.28735358676E+02 -0.14440948405E+03  0.17155815341E+03  0.00000000000E+00 0. -1.
        -15    1    3    3    0    0 -0.18002198649E+02  0.95545827538E+02 -0.29055045016E+03  0.30639158952E+03  0.17770000000E+01 0. -1.
         15    1    3    3    0    0 -0.16153481540E+02 -0.19055396277E+02 -0.29915560299E+02  0.39014632769E+02  0.17770000000E+01 0.  1.
</event>
<event>
 7    1  0.4133533E-006  0.5373402E+03  0.7546771E-02  0.9319928E-01
        -11   -1    0    0    0    0  0.00000000000E+00  0.00000000000E+00  0.50000000000E+03  0.50000000000E+03  0.00000000000E+00 0. -1.
         11   -1    0    0    0    0 -0.00000000000E+00 -0.00000000000E+00 -0.50000000000E+03  0.50000000000E+03  0.00000000000E+00 0. -1.
         23    2    1    2    0    0  0.69546246097E+02  0.57407689806E+02 -0.32674578154E+03  0.35085574428E+03  0.90579381454E+02 0.  0.
        -11    1    1    2    0    0  0.48285110421E+02 -0.15522479253E+03  0.43316032006E+03  0.46265975725E+03  0.00000000000E+00 0. -1.
         11    1    1    2    0    0 -0.11783135652E+03  0.97817102721E+02 -0.10641453851E+03  0.18648449847E+03  0.00000000000E+00 0. -1.
        -15    1    3    3    0    0  0.22346489005E+02  0.12559484689E+02 -0.10147011483E+02  0.27626541541E+02  0.17770000000E+01 0.  1.
         15    1    3    3    0    0  0.47199757092E+02  0.44848205117E+02 -0.31659877006E+03  0.32322920274E+03  0.17770000000E+01 0. -1.
</event>
<event>
 7    1  0.4133533E-006  0.5294499E+03  0.7546771E-02  0.9336222E-01
        -11   -1    0    0    0    0  0.00000000000E+00  0.00000000000E+00  0.50000000000E+03  0.50000000000E+03  0.00000000000E+00 0.  1.
         11   -1    0    0    0    0 -0.00000000000E+00 -0.00000000000E+00 -0.50000000000E+03  0.50000000000E+03  0.00000000000E+00 0. -1.
         23    2    1    2    0    0  0.44612167682E+02  0.41075176792E+02 -0.20199794614E+03  0.22973658553E+03  0.91095075781E+02 0.  0.
        -11    1    1    2    0    0  0.87723983423E+02  0.30113603087E+02  0.46131888014E+03  0.47055014136E+03  0.00000000000E+00 0.  1.
         11    1    1    2    0    0 -0.13233615110E+03 -0.71188779879E+02 -0.25932093400E+03  0.29971327311E+03  0.00000000000E+00 0. -1.
        -15    1    3    3    0    0  0.43017333965E+02  0.53112432718E+02 -0.20582360577E+03  0.21688230899E+03  0.17770000000E+01 0.  1.
         15    1    3    3    0    0  0.15948337163E+01 -0.12037255926E+02  0.38256596284E+01  0.12854276541E+02  0.17770000000E+01 0. -1.
</event>
<event>
 7    1  0.4133533E-006  0.4645172E+03  0.7546771E-02  0.9482904E-01
        -11   -1    0    0    0    0  0.00000000000E+00  0.00000000000E+00  0.50000000000E+03  0.50000000000E+03  0.00000000000E+00 0. -1.
         11   -1    0    0    0    0 -0.00000000000E+00 -0.00000000000E+00 -0.50000000000E+03  0.50000000000E+03  0.00000000000E+00 0. -1.
         23    2    1    2    0    0  0.75412116988E+02 -0.33863239238E+02 -0.47124427870E+03  0.48683875902E+03  0.90039439753E+02 0.  0.
        -11    1    1    2    0    0 -0.41340890411E+02  0.85520595897E+02  0.42610869901E+03  0.43656782396E+03  0.00000000000E+00 0. -1.
         11    1    1    2    0    0 -0.34071226578E+02 -0.51657356658E+02  0.45135579687E+02  0.76593417022E+02  0.00000000000E+00 0. -1.
        -15    1    3    3    0    0 -0.18082000632E+02 -0.20019352617E+02 -0.85046738276E+02  0.89240342035E+02  0.17770000000E+01 0.  1.
         15    1    3    3    0    0  0.93494117621E+02 -0.13843886621E+02 -0.38619754043E+03  0.39759841698E+03  0.17770000000E+01 0. -1.
</event>
<event>
 6    1  0.4133533E-006  0.5305031E+03  0.7546771E-02  0.9334030E-01
        -11   -1    0    0    0    0  0.00000000000E+00  0.00000000000E+00  0.50000000000E+03  0.50000000000E+03  0.00000000000E+00 0.  1.
         11   -1    0    0    0    0 -0.00000000000E+00 -0.00000000000E+00 -0.50000000000E+03  0.50000000000E+03  0.00000000000E+00 0.  1.
        -11    1    1    2    0    0  0.69855765385E+02  0.45893381881E+02  0.46199706824E+03  0.46949688126E+03  0.00000000000E+00 0.  1.
         11    1    1    2    0    0 -0.29018868324E+02 -0.22188958181E+02 -0.22020171869E+03  0.22321120379E+03  0.00000000000E+00 0.  1.
        -15    1    1    2    0    0 -0.51001014119E+02 -0.99701587159E+02 -0.12826291195E+03  0.17028224287E+03  0.17770000000E+01 0.  1.
         15    1    1    2    0    0  0.10164117058E+02  0.75997163458E+02 -0.11353243759E+03  0.13700967208E+03  0.17770000000E+01 0. -1.
</event>
<event>
 7    1  0.4133533E-006  0.3584918E+03  0.7546771E-02  0.9787679E-01
        -11   -1    0    0    0    0  0.00000000000E+00  0.00000000000E+00  0.50000000000E+03  0.50000000000E+03  0.00000000000E+00 0. -1.
         11   -1    0    0    0    0 -0.00000000000E+00 -0.00000000000E+00 -0.50000000000E+03  0.50000000000E+03  0.00000000000E+00 0. -1.
         23    2    1    2    0    0  0.49687799150E+02  0.15160772850E+03 -0.16111315255E+03  0.24801817568E+03  0.10050764556E+03 0.  0.
        -11    1    1    2    0    0 -0.28853375741E+02  0.11580352107E+03  0.38470301690E+03  0.40278950333E+03  0.00000000000E+00 0. -1.
         11    1    1    2    0    0 -0.20834423408E+02 -0.26741124957E+03 -0.22358986435E+03  0.34919232099E+03  0.00000000000E+00 0. -1.
        -15    1    3    3    0    0 -0.15184581316E+02  0.56947117348E+01 -0.52276073494E+02  0.54762640919E+02  0.17770000000E+01 0.  1.
         15    1    3    3    0    0  0.64872380466E+02  0.14591301677E+03 -0.10883707906E+03  0.19325553476E+03  0.17770000000E+01 0. -1.
</event>
<event>
 7    1  0.4133533E-006  0.5023550E+03  0.7546771E-02  0.9394556E-01
        -11   -1    0    0    0    0  0.00000000000E+00  0.00000000000E+00  0.50000000000E+03  0.50000000000E+03  0.00000000000E+00 0.  1.
         11   -1    0    0    0    0 -0.00000000000E+00 -0.00000000000E+00 -0.50000000000E+03  0.50000000000E+03  0.00000000000E+00 0. -1.
         23    2    1    2    0    0 -0.53184556748E+02 -0.12587170160E+03 -0.46962960033E+03  0.49764500106E+03  0.91794897619E+02 0.  0.
        -11    1    1    2    0    0  0.10558077203E+02  0.10784936481E+03  0.42299093010E+03  0.43665121714E+03  0.00000000000E+00 0.  1.
         11    1    1    2    0    0  0.42626479545E+02  0.18022336792E+02  0.46638670238E+02  0.65703781805E+02  0.00000000000E+00 0. -1.
        -15    1    3    3    0    0 -0.33167971760E+02 -0.23897116113E+01 -0.52612836291E+02  0.62266309863E+02  0.17770000000E+01 0.  1.
         15    1    3    3    0    0 -0.20016584988E+02 -0.12348198999E+03 -0.41701676404E+03  0.43537869120E+03  0.17770000000E+01 0. -1.
</event>
<event>
 6    1  0.4133533E-006  0.3440386E+03  0.7546771E-02  0.9837933E-01
        -11   -1    0    0    0    0  0.00000000000E+00  0.00000000000E+00  0.50000000000E+03  0.50000000000E+03  0.00000000000E+00 0.  1.
         11   -1    0    0    0    0 -0.00000000000E+00 -0.00000000000E+00 -0.50000000000E+03  0.50000000000E+03  0.00000000000E+00 0. -1.
        -11    1    1    2    0    0  0.45560880534E+02 -0.66057190123E+02  0.30579381641E+03  0.31614744085E+03  0.00000000000E+00 0.  1.
         11    1    1    2    0    0 -0.16957139161E+03  0.16428676449E+03 -0.31028152385E+03  0.38989642456E+03  0.00000000000E+00 0. -1.
        -15    1    1    2    0    0  0.14546788910E+03 -0.89414564222E+02  0.98483130745E+02  0.19712421420E+03  0.17770000000E+01 0.  1.
         15    1    1    2    0    0 -0.21457378026E+02 -0.88150101474E+01 -0.93995423305E+02  0.96831920392E+02  0.17770000000E+01 0. -1.
</event>
<event>
 7    1  0.4133533E-006  0.5276141E+03  0.7546771E-02  0.9340056E-01
        -11   -1    0    0    0    0  0.00000000000E+00  0.00000000000E+00  0.50000000000E+03  0.50000000000E+03  0.00000000000E+00 0.  1.
         11   -1    0    0    0    0 -0.00000000000E+00 -0.00000000000E+00 -0.50000000000E+03  0.50000000000E+03  0.00000000000E+00 0. -1.
         23    2    1    2    0    0 -0.15996129463E+03 -0.67862919069E+00  0.36237500126E+03  0.40647369182E+03  0.91198378751E+02 0.  0.
        -11    1    1    2    0    0 -0.12754820956E+02  0.10096533227E+03  0.65713932286E+02  0.12114043369E+03  0.00000000000E+00 0.  1.
         11    1    1    2    0    0  0.17271611559E+03 -0.10028670308E+03 -0.42808893354E+03  0.47238587449E+03  0.00000000000E+00 0. -1.
        -15    1    3    3    0    0 -0.78391419310E+02 -0.39039302828E+02  0.23179745342E+03  0.24779527624E+03  0.17770000000E+01 0.  1.
         15    1    3    3    0    0 -0.81569875323E+02  0.38360673637E+02  0.13057754784E+03  0.15867841558E+03  0.17770000000E+01 0. -1.
</event>
<event>
 7    1  0.4133533E-006  0.4763963E+03  0.7546771E-02  0.9454231E-01
        -11   -1    0    0    0    0  0.00000000000E+00  0.00000000000E+00  0.50000000000E+03  0.50000000000E+03  0.00000000000E+00 0.  1.
         11   -1    0    0    0    0 -0.00000000000E+00 -0.00000000000E+00 -0.50000000000E+03  0.50000000000E+03  0.00000000000E+00 0. -1.
         23    2    1    2    0    0  0.39725412893E+02 -0.57615689782E+02 -0.45562273243E+03  0.47046190932E+03  0.94046040222E+02 0.  0.
        -11    1    1    2    0    0 -0.33588087400E+02  0.11208570277E+03  0.45990479705E+03  0.47455641048E+03  0.00000000000E+00 0.  1.
         11    1    1    2    0    0 -0.61373254935E+01 -0.54470012992E+02 -0.42820646197E+01  0.54981680194E+02  0.00000000000E+00 0. -1.
        -15    1    3    3    0    0 -0.24126270193E+02 -0.73580488089E+01 -0.42776058632E+02  0.49690710568E+02  0.17770000000E+01 0.  1.
         15    1    3    3    0    0  0.63851683086E+02 -0.50257640973E+02 -0.41284667380E+03  0.42077119876E+03  0.17770000000E+01 0. -1.
</event>
<event>
 7    1  0.4133533E-006  0.5263205E+03  0.7546771E-02  0.9342768E-01
        -11   -1    0    0    0    0  0.00000000000E+00  0.00000000000E+00  0.50000000000E+03  0.50000000000E+03  0.00000000000E+00 0. -1.
         11   -1    0    0    0    0 -0.00000000000E+00 -0.00000000000E+00 -0.50000000000E+03  0.50000000000E+03  0.00000000000E+00 0.  1.
         23    2    1    2    0    0 -0.94224047356E+00  0.10355542956E+03  0.13813726912E+03  0.19594164827E+03  0.92663960622E+02 0.  0.
        -11    1    1    2    0    0 -0.49203348205E+02 -0.22766035361E+02  0.32590018174E+03  0.33037885874E+03  0.00000000000E+00 0. -1.
         11    1    1    2    0    0  0.50145588679E+02 -0.80789394199E+02 -0.46403745086E+03  0.47367949299E+03  0.00000000000E+00 0.  1.
        -15    1    3    3    0    0  0.12813856881E+02  0.78737976276E+02  0.14605393867E+03  0.16642948827E+03  0.17770000000E+01 0. -1.
         15    1    3    3    0    0 -0.13756097354E+02  0.24817453283E+02 -0.79166695512E+01  0.29512159997E+02  0.17770000000E+01 0.  1.
</event>
<event>
 7    1  0.4133533E-006  0.4030488E+03  0.7546771E-02  0.9647435E-01
        -11   -1    0    0    0    0  0.00000000000E+00  0.00000000000E+00  0.50000000000E+03  0.50000000000E+03  0.00000000000E+00 0.  1.
         11   -1    0    0    0    0 -0.00000000000E+00 -0.00000000000E+00 -0.50000000000E+03  0.50000000000E+03  0.00000000000E+00 0. -1.
         23    2    1    2    0    0 -0.66164609996E+01 -0.14365055449E+03  0.58449229276E+02  0.17909262457E+03  0.89322989262E+02 0.  0.
        -11    1    1    2    0    0 -0.70817581764E+02  0.41267421779E+02  0.36724449885E+03  0.37628001796E+03  0.00000000000E+00 0.  1.
         11    1    1    2    0    0  0.77434042764E+02  0.10238313271E+03 -0.42569372812E+03  0.44462735746E+03  0.00000000000E+00 0. -1.
        -15    1    3    3    0    0 -0.31142615369E+02 -0.28355395273E+02 -0.92364600452E+01  0.43155079148E+02  0.17770000000E+01 0.  1.
         15    1    3    3    0    0  0.24526154370E+02 -0.11529515922E+03  0.67685689322E+02  0.13593754542E+03  0.17770000000E+01 0. -1.
</event>
<event>
 7    1  0.4133533E-006  0.4812625E+03  0.7546771E-02  0.9442741E-01
        -11   -1    0    0    0    0  0.00000000000E+00  0.00000000000E+00  0.50000000000E+03  0.50000000000E+03  0.00000000000E+00 0. -1.
         11   -1    0    0    0    0 -0.00000000000E+00 -0.00000000000E+00 -0.50000000000E+03  0.50000000000E+03  0.00000000000E+00 0.  1.
         23    2    1    2    0    0  0.71988791126E+02  0.51963126762E+02 -0.44597083361E+03  0.46409966515E+03  0.92822207333E+02 0.  0.
        -11    1    1    2    0    0 -0.10459977440E+03 -0.65093497482E+02  0.47474537641E+03  0.49047063994E+03  0.00000000000E+00 0. -1.
         11    1    1    2    0    0  0.32610983279E+02  0.13130370720E+02 -0.28774542805E+02  0.45429694906E+02  0.00000000000E+00 0.  1.
        -15    1    3    3    0    0 -0.18974458624E+02  0.59715084331E+01 -0.31673230712E+02  0.37443828140E+02  0.17770000000E+01 0. -1.
         15    1    3    3    0    0  0.90963249750E+02  0.45991618329E+02 -0.41429760290E+03  0.42665583701E+03  0.17770000000E+01 0.  1.
</event>
<event>
 7    1  0.4133533E-006  0.4385263E+03  0.7546771E-02  0.9548953E-01
        -11   -1    0    0    0    0  0.00000000000E+00  0.00000000000E+00  0.50000000000E+03  0.50000000000E+03  0.00000000000E+00 0. -1.
         11   -1    0    0    0    0 -0.00000000000E+00 -0.00000000000E+00 -0.50000000000E+03  0.50000000000E+03  0.00000000000E+00 0.  1.
         23    2    1    2    0    0  0.35527430157E+02 -0.68367189780E+02 -0.22287327270E+01  0.11956677579E+03  0.91405556125E+02 0.  0.
        -11    1    1    2    0    0 -0.20006743178E+03 -0.53602063772E+02  0.39017311923E+03  0.44174112494E+03  0.00000000000E+00 0. -1.
         11    1    1    2    0    0  0.16454000162E+03  0.12196925355E+03 -0.38794438650E+03  0.43869209927E+03  0.00000000000E+00 0.  1.
        -15    1    3    3    0    0 -0.18724607253E+02 -0.15879524605E+02  0.28840418658E+02  0.37916984266E+02  0.17770000000E+01 0.  1.
         15    1    3    3    0    0  0.54252037410E+02 -0.52487665175E+02 -0.31069151385E+02  0.81649791521E+02  0.17770000000E+01 0. -1.
</event>
<event>
 7    1  0.4133533E-006  0.5083308E+03  0.7546771E-02  0.9381359E-01
        -11   -1    0    0    0    0  0.00000000000E+00  0.00000000000E+00  0.50000000000E+03  0.50000000000E+03  0.00000000000E+00 0.  1.
         11   -1    0    0    0    0 -0.00000000000E+00 -0.00000000000E+00 -0.50000000000E+03  0.50000000000E+03  0.00000000000E+00 0. -1.
         23    2    1    2    0    0  0.25034926938E+01  0.40194203426E+02 -0.36906540348E+03  0.38152887315E+03  0.87938430401E+02 0.  0.
        -11    1    1    2    0    0 -0.27803876890E+02 -0.91314339926E+02  0.48231446413E+03  0.49166920440E+03  0.00000000000E+00 0.  1.
         11    1    1    2    0    0  0.25300384197E+02  0.51120136500E+02 -0.11324906065E+03  0.12680192244E+03  0.00000000000E+00 0. -1.
        -15    1    3    3    0    0  0.14053402551E+02 -0.23827274358E+02 -0.66546269932E+02  0.72088840311E+02  0.17770000000E+01 0.  1.
         15    1    3    3    0    0 -0.11549909857E+02  0.64021477785E+02 -0.30251913355E+03  0.30944003284E+03  0.17770000000E+01 0. -1.
</event>
<event>
 7    1  0.4133533E-006  0.5226478E+03  0.7546771E-02  0.9350512E-01
        -11   -1    0    0    0    0  0.00000000000E+00  0.00000000000E+00  0.50000000000E+03  0.50000000000E+03  0.00000000000E+00 0.  1.
         11   -1    0    0    0    0 -0.00000000000E+00 -0.00000000000E+00 -0.50000000000E+03  0.50000000000E+03  0.00000000000E+00 0. -1.
         23    2    1    2    0    0  0.13744739296E+03 -0.97438246044E+02  0.23401008868E+03  0.30254753592E+03  0.91587620665E+02 0.  0.
        -11    1    1    2    0    0 -0.43727098762E+02 -0.54379276370E+02  0.20874614768E+03  0.22010024769E+03  0.00000000000E+00 0.  1.
         11    1    1    2    0    0 -0.93720294203E+02  0.15181752241E+03 -0.44275623636E+03  0.47735221639E+03  0.00000000000E+00 0. -1.
        -15    1    3    3    0    0  0.11290746806E+03 -0.29076295277E+02  0.16720021564E+03  0.20384454157E+03  0.17770000000E+01 0.  1.
         15    1    3    3    0    0  0.24539924901E+02 -0.68361950767E+02  0.66809873047E+02  0.98702994343E+02  0.17770000000E+01 0. -1.
</event>
<event>
 7    1  0.4133533E-006  0.5385052E+03  0.7546771E-02  0.9317547E-01
        -11   -1    0    0    0    0  0.00000000000E+00  0.00000000000E+00  0.50000000000E+03  0.50000000000E+03  0.00000000000E+00 0. -1.
         11   -1    0    0    0    0 -0.00000000000E+00 -0.00000000000E+00 -0.50000000000E+03  0.50000000000E+03  0.00000000000E+00 0.  1.
         23    2    1    2    0    0  0.10756441552E+03 -0.99248223635E+02 -0.22695183523E+03  0.28584138405E+03  0.93690169932E+02 0.  0.
        -11    1    1    2    0    0 -0.12919463468E+03 -0.31778830138E+02  0.44190078184E+03  0.46149479810E+03  0.00000000000E+00 0. -1.
         11    1    1    2    0    0  0.21630219162E+02  0.13102705377E+03 -0.21494894661E+03  0.25266381785E+03  0.00000000000E+00 0.  1.
        -15    1    3    3    0    0  0.50334677189E+01 -0.28964203858E+02 -0.28806704016E+01  0.29592514144E+02  0.17770000000E+01 0. -1.
         15    1    3    3    0    0  0.10253094780E+03 -0.70284019778E+02 -0.22407116483E+03  0.25624886991E+03  0.17770000000E+01 0.  1.
</event>
<event>
 7    1  0.4133533E-006  0.4025753E+03  0.7546771E-02  0.9648822E-01
        -11   -1    0    0    0    0  0.00000000000E+00  0.00000000000E+00  0.50000000000E+03  0.50000000000E+03  0.00000000000E+00 0.  1.
         11   -1    0    0    0    0 -0.00000000000E+00 -0.00000000000E+00 -0.50000000000E+03  0.50000000000E+03  0.00000000000E+00 0.  1.
         23    2    1    2    0    0 -0.66488278382E+02  0.90448414518E+01 -0.40842584661E+03  0.42436056469E+03  0.93636084765E+02 0.  0.
        -11    1    1    2    0    0 -0.11220450244E+03  0.22328185482E+02  0.37383045076E+03  0.39094450265E+03  0.00000000000E+00 0.  1.
         11    1    1    2    0    0  0.17869278082E+03 -0.31373026934E+02  0.34595395844E+02  0.18469493266E+03  0.00000000000E+00 0.  1.
        -15    1    3    3    0    0 -0.87890941626E+01 -0.36450619260E+02 -0.19644137327E+03  0.19999566666E+03  0.17770000000E+01 0. -1.
         15    1    3    3    0    0 -0.57699184219E+02  0.45495460712E+02 -0.21198447333E+03  0.22436489803E+03  0.17770000000E+01 0.  1.
</event>
<event>
 7    1  0.4133533E-006  0.3386604E+03  0.7546771E-02  0.9857314E-01
        -11   -1    0    0    0    0  0.00000000000E+00  0.00000000000E+00  0.50000000000E+03  0.50000000000E+03  0.00000000000E+00 0.  1.
         11   -1    0    0    0    0 -0.00000000000E+00 -0.00000000000E+00 -0.50000000000E+03  0.50000000000E+03  0.00000000000E+00 0.  1.
         23    2    1    2    0    0 -0.18135445267E+03 -0.23737123266E+03 -0.46432723403E+02  0.31579679478E+03  0.91307602048E+02 0.  0.
        -11    1    1    2    0    0  0.12672235895E+02 -0.52513143991E+02  0.27375497064E+03  0.27903404775E+03  0.00000000000E+00 0.  1.
         11    1    1    2    0    0  0.16868221677E+03  0.28988437665E+03 -0.22732224723E+03  0.40516915748E+03  0.00000000000E+00 0.  1.
        -15    1    3    3    0    0 -0.67734264633E+02 -0.14743371524E+03  0.41286466942E+01  0.16231091906E+03  0.17770000000E+01 0. -1.
         15    1    3    3    0    0 -0.11362018803E+03 -0.89937517424E+02 -0.50561370098E+02  0.15348587572E+03  0.17770000000E+01 0.  1.
</event>
<event>
 7    1  0.4133533E-006  0.4040384E+03  0.7546771E-02  0.9644543E-01
        -11   -1    0    0    0    0  0.00000000000E+00  0.00000000000E+00  0.50000000000E+03  0.50000000000E+03  0.00000000000E+00 0. -1.
         11   -1    0    0    0    0 -0.00000000000E+00 -0.00000000000E+00 -0.50000000000E+03  0.50000000000E+03  0.00000000000E+00 0.  1.
         23    2    1    2    0    0 -0.87842049449E+01 -0.12878304925E+03  0.35420147772E+03  0.38768997272E+03  0.90457681273E+02 0.  0.
        -11    1    1    2    0    0 -0.12801936579E+03  0.11720288077E+03  0.53892011833E+02  0.18174108566E+03  0.00000000000E+00 0. -1.
         11    1    1    2    0    0  0.13680357074E+03  0.11580168476E+02 -0.40809348955E+03  0.43056894161E+03  0.00000000000E+00 0.  1.
        -15    1    3    3    0    0  0.38792348622E+02 -0.82682657051E+02  0.20410666377E+03  0.22361564349E+03  0.17770000000E+01 0. -1.
         15    1    3    3    0    0 -0.47576553567E+02 -0.46100392195E+02  0.15009481395E+03  0.16407432923E+03  0.17770000000E+01 0.  1.
</event>
<event>
 7    1  0.4133533E-006  0.4494216E+03  0.7546771E-02  0.9520687E-01
        -11   -1    0    0    0    0  0.00000000000E+00  0.00000000000E+00  0.50000000000E+03  0.50000000000E+03  0.00000000000E+00 0.  1.
         11   -1    0    0    0    0 -0.00000000000E+00 -0.00000000000E+00 -0.50000000000E+03  0.50000000000E+03  0.00000000000E+00 0. -1.
         23    2    1    2    0    0 -0.17963341350E+02 -0.81026874865E+02 -0.38431841266E+03  0.41016614640E+03  0.11682289699E+03 0.  0.
        -11    1    1    2    0    0  0.92381222071E+02  0.75892858979E+02  0.46489933037E+03  0.48002646137E+03  0.00000000000E+00 0.  1.
         11    1    1    2    0    0 -0.74417880722E+02  0.51340158859E+01 -0.80580917711E+02  0.10980739223E+03  0.00000000000E+00 0. -1.
        -15    1    3    3    0    0 -0.19131462197E+02  0.63860480924E+00 -0.21274779845E+01  0.19341782582E+02  0.17770000000E+01 0.  1.
         15    1    3    3    0    0  0.11681208469E+01 -0.81665479674E+02 -0.38219093467E+03  0.39082436382E+03  0.17770000000E+01 0. -1.
</event>
<event>
 7    1  0.4133533E-006  0.4477502E+03  0.7546771E-02  0.9524968E-01
        -11   -1    0    0    0    0  0.00000000000E+00  0.00000000000E+00  0.50000000000E+03  0.50000000000E+03  0.00000000000E+00 0. -1.
         11   -1    0    0    0    0 -0.00000000000E+00 -0.00000000000E+00 -0.50000000000E+03  0.50000000000E+03  0.00000000000E+00 0. -1.
         23    2    1    2    0    0  0.13643051734E+03 -0.19729533040E+02 -0.38799490164E+03  0.42150154659E+03  0.90116422178E+02 0.  0.
        -11    1    1    2    0    0 -0.92827446133E+02 -0.47011683885E+02  0.45966604059E+03  0.47129598136E+03  0.00000000000E+00 0. -1.
         11    1    1    2    0    0 -0.43603071210E+02  0.66741216925E+02 -0.71671138949E+02  0.10720247205E+03  0.00000000000E+00 0. -1.
        -15    1    3    3    0    0  0.79461767142E+02  0.14349491594E+02 -0.11488748741E+03  0.14043636580E+03  0.17770000000E+01 0.  1.
         15    1    3    3    0    0  0.56968750202E+02 -0.34079024634E+02 -0.27310741423E+03  0.28106518079E+03  0.17770000000E+01 0. -1.
</event>
<event>
 7    1  0.4133533E-006  0.4463331E+03  0.7546771E-02  0.9528612E-01
        -11   -1    0    0    0    0  0.00000000000E+00  0.00000000000E+00  0.50000000000E+03  0.50000000000E+03  0.00000000000E+00 0.  1.
         11   -1    0    0    0    0 -0.00000000000E+00 -0.00000000000E+00 -0.50000000000E+03  0.50000000000E+03  0.00000000000E+00 0. -1.
         23    2    1    2    0    0  0.36280285469E+02  0.34016197758E+02 -0.16209996477E+02  0.10580262548E+03  0.91967770170E+02 0.  0.
        -11    1    1    2    0    0  0.13417837370E+03  0.88133935275E+02  0.41426427979E+03  0.44428180249E+03  0.00000000000E+00 0.  1.
         11    1    1    2    0    0 -0.17045865917E+03 -0.12215013303E+03 -0.39805428331E+03  0.44991557202E+03  0.00000000000E+00 0. -1.
        -15    1    3    3    0    0  0.60589047233E+02  0.40707120365E+01 -0.25824503844E+02  0.66012620527E+02  0.17770000000E+01 0. -1.
         15    1    3    3    0    0 -0.24308761764E+02  0.29945485721E+02  0.96145073669E+01  0.39790004957E+02  0.17770000000E+01 0.  1.
</event>
<event>
 7    1  0.4133533E-006  0.5254304E+03  0.7546771E-02  0.9344639E-01
        -11   -1    0    0    0    0  0.00000000000E+00  0.00000000000E+00  0.50000000000E+03  0.50000000000E+03  0.00000000000E+00 0. -1.
         11   -1    0    0    0    0 -0.00000000000E+00 -0.00000000000E+00 -0.50000000000E+03  0.50000000000E+03  0.00000000000E+00 0. -1.
         23    2    1    2    0    0  0.71398319255E+02 -0.87845761391E+01 -0.37242530636E+03  0.39065843102E+03  0.93480009340E+02 0.  0.
        -11    1    1    2    0    0 -0.36297566842E+02  0.10341037794E+03  0.46174140896E+03  0.47456964544E+03  0.00000000000E+00 0. -1.
         11    1    1    2    0    0 -0.35100752413E+02 -0.94625801803E+02 -0.89316102609E+02  0.13477192353E+03  0.00000000000E+00 0. -1.
        -15    1    3    3    0    0  0.12008086678E+02  0.17675274592E+02 -0.12326614146E+02  0.24732824806E+02  0.17770000000E+01 0.  1.
         15    1    3    3    0    0  0.59390232577E+02 -0.26459850731E+02 -0.36009869221E+03  0.36592560622E+03  0.17770000000E+01 0. -1.
</event>
<event>
 7    1  0.4133533E-006  0.3332321E+03  0.7546771E-02  0.9877271E-01
        -11   -1    0    0    0    0  0.00000000000E+00  0.00000000000E+00  0.50000000000E+03  0.50000000000E+03  0.00000000000E+00 0. -1.
         11   -1    0    0    0    0 -0.00000000000E+00 -0.00000000000E+00 -0.50000000000E+03  0.50000000000E+03  0.00000000000E+00 0. -1.
         23    2    1    2    0    0 -0.41245102046E+02 -0.11287025196E+03 -0.26746306432E+03  0.30675903925E+03  0.90131931977E+02 0.  0.
        -11    1    1    2    0    0  0.18873743645E+03 -0.12141670161E+03  0.33968933239E+03  0.40712734849E+03  0.00000000000E+00 0. -1.
         11    1    1    2    0    0 -0.14749233441E+03  0.23428695358E+03 -0.72226268062E+02  0.28611361226E+03  0.00000000000E+00 0. -1.
        -15    1    3    3    0    0  0.42034499962E+01 -0.36087069796E+02 -0.15647769242E+02  0.39597424279E+02  0.17770000000E+01 0. -1.
         15    1    3    3    0    0 -0.45448552042E+02 -0.76783182168E+02 -0.25181529508E+03  0.26716161497E+03  0.17770000000E+01 0.  1.
</event>
<event>
 7    1  0.4133533E-006  0.5304989E+03  0.7546771E-02  0.9334039E-01
        -11   -1    0    0    0    0  0.00000000000E+00  0.00000000000E+00  0.50000000000E+03  0.50000000000E+03  0.00000000000E+00 0.  1.
         11   -1    0    0    0    0 -0.00000000000E+00 -0.00000000000E+00 -0.50000000000E+03  0.50000000000E+03  0.00000000000E+00 0. -1.
         23    2    1    2    0    0 -0.11790593938E+02 -0.52359495359E+02 -0.20526904480E+03  0.23096148600E+03  0.91253999380E+02 0.  0.
        -11    1    1    2    0    0 -0.17170716660E+03  0.20607462376E+03  0.38533258786E+03  0.46950112341E+03  0.00000000000E+00 0.  1.
         11    1    1    2    0    0  0.18349776054E+03 -0.15371512840E+03 -0.18006354305E+03  0.29953739059E+03  0.00000000000E+00 0. -1.
        -15    1    3    3    0    0 -0.15333122465E+02 -0.63854177805E+02 -0.20831424637E+03  0.21842720443E+03  0.17770000000E+01 0. -1.
         15    1    3    3    0    0  0.35425285264E+01  0.11494682446E+02  0.30452015654E+01  0.12534281570E+02  0.17770000000E+01 0.  1.
</event>
<event>
 7    1  0.4133533E-006  0.5151751E+03  0.7546771E-02  0.9366480E-01
        -11   -1    0    0    0    0  0.00000000000E+00  0.00000000000E+00  0.50000000000E+03  0.50000000000E+03  0.00000000000E+00 0.  1.
         11   -1    0    0    0    0 -0.00000000000E+00 -0.00000000000E+00 -0.50000000000E+03  0.50000000000E+03  0.00000000000E+00 0. -1.
         23    2    1    2    0    0 -0.74139394078E+02 -0.21831289755E+02 -0.41464711458E+03  0.43015990684E+03  0.84451529600E+02 0.  0.
        -11    1    1    2    0    0  0.13366023213E+03  0.59539423631E+02  0.46221764399E+03  0.48482486635E+03  0.00000000000E+00 0.  1.
         11    1    1    2    0    0 -0.59520838048E+02 -0.37708133876E+02 -0.47570529406E+02  0.85015226814E+02  0.00000000000E+00 0. -1.
        -15    1    3    3    0    0 -0.63741187826E+01 -0.39057489684E+02 -0.21491330793E+03  0.21853376065E+03  0.17770000000E+01 0. -1.
         15    1    3    3    0    0 -0.67765275295E+02  0.17226199929E+02 -0.19973380665E+03  0.21162614618E+03  0.17770000000E+01 0.  1.
</event>
<event>
 7    1  0.4133533E-006  0.4617487E+03  0.7546771E-02  0.9489718E-01
        -11   -1    0    0    0    0  0.00000000000E+00  0.00000000000E+00  0.50000000000E+03  0.50000000000E+03  0.00000000000E+00 0.  1.
         11   -1    0    0    0    0 -0.00000000000E+00 -0.00000000000E+00 -0.50000000000E+03  0.50000000000E+03  0.00000000000E+00 0. -1.
         23    2    1    2    0    0  0.10485853907E+03 -0.11657314154E+03  0.44804735066E+03  0.48254868159E+03  0.86730566248E+02 0.  0.
        -11    1    1    2    0    0 -0.18286547412E+02 -0.55312619933E+02 -0.56467408580E+02  0.81132311515E+02  0.00000000000E+00 0.  1.
         11    1    1    2    0    0 -0.86571991657E+02  0.17188576147E+03 -0.39157994209E+03  0.43631900690E+03  0.00000000000E+00 0. -1.
        -15    1    3    3    0    0  0.28436016086E+02 -0.48218282909E+02  0.28107351542E+03  0.28659917763E+03  0.17770000000E+01 0.  1.
         15    1    3    3    0    0  0.76422522984E+02 -0.68354858627E+02  0.16697383525E+03  0.19594950396E+03  0.17770000000E+01 0. -1.
</event>
<event>
 7    1  0.4133533E-006  0.4080989E+03  0.7546771E-02  0.9632769E-01
        -11   -1    0    0    0    0  0.00000000000E+00  0.00000000000E+00  0.50000000000E+03  0.50000000000E+03  0.00000000000E+00 0.  1.
         11   -1    0    0    0    0 -0.00000000000E+00 -0.00000000000E+00 -0.50000000000E+03  0.50000000000E+03  0.00000000000E+00 0. -1.
         23    2    1    2    0    0  0.16067781931E+03  0.19518296783E+03  0.27561414888E+03  0.38467235692E+03  0.89977278056E+02 0.  0.
        -11    1    1    2    0    0  0.13531486472E+02 -0.12434869759E+03  0.12247124655E+03  0.17505686490E+03  0.00000000000E+00 0.  1.
         11    1    1    2    0    0 -0.17420930578E+03 -0.70834270237E+02 -0.39808539543E+03  0.44027077818E+03  0.00000000000E+00 0. -1.
        -15    1    3    3    0    0  0.93595375965E+02  0.13231776791E+03  0.11208675816E+03  0.19706518005E+03  0.17770000000E+01 0.  1.
         15    1    3    3    0    0  0.67082443341E+02  0.62865199925E+02  0.16352739073E+03  0.18760717687E+03  0.17770000000E+01 0. -1.
</event>
<event>
 7    1  0.4133533E-006  0.4723292E+03  0.7546771E-02  0.9463947E-01
        -11   -1    0    0    0    0  0.00000000000E+00  0.00000000000E+00  0.50000000000E+03  0.50000000000E+03  0.00000000000E+00 0. -1.
         11   -1    0    0    0    0 -0.00000000000E+00 -0.00000000000E+00 -0.50000000000E+03  0.50000000000E+03  0.00000000000E+00 0. -1.
         23    2    1    2    0    0 -0.73233306546E+02 -0.34047124679E+02 -0.46786782317E+03  0.48295079537E+03  0.88424243884E+02 0.  0.
        -11    1    1    2    0    0  0.11028222136E+03  0.71639502146E+02  0.43598326690E+03  0.45538532654E+03  0.00000000000E+00 0. -1.
         11    1    1    2    0    0 -0.37048914811E+02 -0.37592377467E+02  0.31884556266E+02  0.61663878086E+02  0.00000000000E+00 0. -1.
        -15    1    3    3    0    0 -0.38426900246E+02 -0.59048399746E+02 -0.36066789388E+03  0.36748854075E+03  0.17770000000E+01 0. -1.
         15    1    3    3    0    0 -0.34806406300E+02  0.25001275067E+02 -0.10719992928E+03  0.11546225462E+03  0.17770000000E+01 0.  1.
</event>
<event>
 7    1  0.4133533E-006  0.3790076E+03  0.7546771E-02  0.9720545E-01
        -11   -1    0    0    0    0  0.00000000000E+00  0.00000000000E+00  0.50000000000E+03  0.50000000000E+03  0.00000000000E+00 0.  1.
         11   -1    0    0    0    0 -0.00000000000E+00 -0.00000000000E+00 -0.50000000000E+03  0.50000000000E+03  0.00000000000E+00 0. -1.
         23    2    1    2    0    0 -0.11503651350E+03 -0.70814559949E+02 -0.29705937730E+03  0.33858700209E+03  0.90270609849E+02 0.  0.
        -11    1    1    2    0    0  0.18047051456E+03 -0.12194504856E+03  0.38288176308E+03  0.44049817933E+03  0.00000000000E+00 0.  1.
         11    1    1    2    0    0 -0.65434001061E+02  0.19275960851E+03 -0.85822385788E+02  0.22091481858E+03  0.00000000000E+00 0. -1.
        -15    1    3    3    0    0 -0.90740354756E+02 -0.29762729432E+02 -0.11069397492E+03  0.14620514990E+03  0.17770000000E+01 0.  1.
         15    1    3    3    0    0 -0.24296158746E+02 -0.41051830517E+02 -0.18636540238E+03  0.19238185219E+03  0.17770000000E+01 0. -1.
</event>
<event>
 7    1  0.4133533E-006  0.3619967E+03  0.7546771E-02  0.9775874E-01
        -11   -1    0    0    0    0  0.00000000000E+00  0.00000000000E+00  0.50000000000E+03  0.50000000000E+03  0.00000000000E+00 0.  1.
         11   -1    0    0    0    0 -0.00000000000E+00 -0.00000000000E+00 -0.50000000000E+03  0.50000000000E+03  0.00000000000E+00 0.  1.
         23    2    1    2    0    0 -0.12595128043E+03  0.15408029099E+03 -0.33589989566E+03  0.40085342846E+03  0.90830997402E+02 0.  0.
        -11    1    1    2    0    0 -0.65907080708E+02 -0.11630714108E+00  0.34670364236E+03  0.35291241468E+03  0.00000000000E+00 0.  1.
         11    1    1    2    0    0  0.19185836114E+03 -0.15396398385E+03 -0.10803746698E+02  0.24623415686E+03  0.00000000000E+00 0.  1.
        -15    1    3    3    0    0 -0.75907958994E+02  0.10407025135E+03 -0.12952586205E+03  0.18268207938E+03  0.17770000000E+01 0.  1.
         15    1    3    3    0    0 -0.50043321435E+02  0.50010039638E+02 -0.20637403361E+03  0.21817134908E+03  0.17770000000E+01 0. -1.
</event>
<event>
 7    1  0.4133533E-006  0.5118638E+03  0.7546771E-02  0.9373648E-01
        -11   -1    0    0    0    0  0.00000000000E+00  0.00000000000E+00  0.50000000000E+03  0.50000000000E+03  0.00000000000E+00 0.  1.
         11   -1    0    0    0    0 -0.00000000000E+00 -0.00000000000E+00 -0.50000000000E+03  0.50000000000E+03  0.00000000000E+00 0.  1.
         23    2    1    2    0    0  0.26721981538E+03  0.81961205857E+02 -0.18136116666E+03  0.34545078657E+03  0.91215701321E+02 0.  0.
        -11    1    1    2    0    0 -0.38571737989E+03 -0.52717497120E+02  0.29448245145E+03  0.48813619602E+03  0.00000000000E+00 0.  1.
         11    1    1    2    0    0  0.11849756451E+03 -0.29243708736E+02 -0.11312128478E+03  0.16641301741E+03  0.00000000000E+00 0.  1.
        -15    1    3    3    0    0  0.20499569697E+03  0.73748107035E+02 -0.92602789796E+02  0.23672864946E+03  0.17770000000E+01 0.  1.
         15    1    3    3    0    0  0.62224118418E+02  0.82130988221E+01 -0.88758376868E+02  0.10872213711E+03  0.17770000000E+01 0. -1.
</event>
<event>
 7    1  0.4133533E-006  0.5247455E+03  0.7546771E-02  0.9346081E-01
        -11   -1    0    0    0    0  0.00000000000E+00  0.00000000000E+00  0.50000000000E+03  0.50000000000E+03  0.00000000000E+00 0.  1.
         11   -1    0    0    0    0 -0.00000000000E+00 -0.00000000000E+00 -0.50000000000E+03  0.50000000000E+03  0.00000000000E+00 0. -1.
         23    2    1    2    0    0  0.56547340123E+02  0.48554625006E+02 -0.35633307496E+03  0.37541559580E+03  0.91697633437E+02 0.  0.
        -11    1    1    2    0    0 -0.15534080274E+03  0.14431278637E+02  0.44891846779E+03  0.47525447659E+03  0.00000000000E+00 0.  1.
         11    1    1    2    0    0  0.98793462618E+02 -0.62985903643E+02 -0.92585392829E+02  0.14932992761E+03  0.00000000000E+00 0. -1.
        -15    1    3    3    0    0  0.41685116679E+01 -0.21899530389E+02 -0.29656401355E+02  0.37143314218E+02  0.17770000000E+01 0.  1.
         15    1    3    3    0    0  0.52378828455E+02  0.70454155394E+02 -0.32667667360E+03  0.33827228158E+03  0.17770000000E+01 0. -1.
</event>
<event>
 7    1  0.4133533E-006  0.4863566E+03  0.7546771E-02  0.9430866E-01
        -11   -1    0    0    0    0  0.00000000000E+00  0.00000000000E+00  0.50000000000E+03  0.50000000000E+03  0.00000000000E+00 0.  1.
         11   -1    0    0    0    0 -0.00000000000E+00 -0.00000000000E+00 -0.50000000000E+03  0.50000000000E+03  0.00000000000E+00 0. -1.
         23    2    1    2    0    0 -0.23691965141E+03 -0.42271832237E+03  0.56044535968E+01  0.49328186659E+03  0.92053727298E+02 0.  0.
        -11    1    1    2    0    0  0.12342599746E+02  0.10053005319E+02  0.31649147866E+02  0.35426984702E+02  0.00000000000E+00 0.  1.
         11    1    1    2    0    0  0.22457705166E+03  0.41266531705E+03 -0.37253601463E+02  0.47129114871E+03  0.00000000000E+00 0. -1.
        -15    1    3    3    0    0 -0.20748312532E+03 -0.41166650207E+03 -0.14741913380E+01  0.46100313143E+03  0.17770000000E+01 0.  1.
         15    1    3    3    0    0 -0.29436526091E+02 -0.11051820305E+02  0.70786449348E+01  0.32278735159E+02  0.17770000000E+01 0. -1.
</event>
<event>
 7    1  0.4133533E-006  0.5102892E+03  0.7546771E-02  0.9377077E-01
        -11   -1    0    0    0    0  0.00000000000E+00  0.00000000000E+00  0.50000000000E+03  0.50000000000E+03  0.00000000000E+00 0. -1.
         11   -1    0    0    0    0 -0.00000000000E+00 -0.00000000000E+00 -0.50000000000E+03  0.50000000000E+03  0.00000000000E+00 0.  1.
         23    2    1    2    0    0  0.27416391966E+03 -0.18878629015E+03 -0.34743937136E+03  0.48971083344E+03  0.91084935202E+02 0.  0.
        -11    1    1    2    0    0 -0.96904631735E+02  0.10429582238E+03  0.25765485541E+03  0.29437077086E+03  0.00000000000E+00 0. -1.
         11    1    1    2    0    0 -0.17725928793E+03  0.84490467764E+02  0.89784515955E+02  0.21591839571E+03  0.00000000000E+00 0.  1.
        -15    1    3    3    0    0  0.92409141116E+02 -0.11836518556E+03 -0.14957244267E+03  0.21195480615E+03  0.17770000000E+01 0. -1.
         15    1    3    3    0    0  0.18175477854E+03 -0.70421104587E+02 -0.19786692869E+03  0.27775602729E+03  0.17770000000E+01 0.  1.
</event>
<event>
 7    1  0.7333662E-006  0.5126273E+03  0.7546771E-02  0.9371990E-01
        -11   -1    0    0    0    0  0.00000000000E+00  0.00000000000E+00  0.50000000000E+03  0.50000000000E+03  0.00000000000E+00 0. -1.
         11   -1    0    0    0    0 -0.00000000000E+00 -0.00000000000E+00 -0.50000000000E+03  0.50000000000E+03  0.00000000000E+00 0.  1.
         23    2    1    2    0    0  0.20620369693E+02  0.98052310523E+01  0.30943704688E+03  0.32302342667E+03  0.89841560516E+02 0.  0.
        -11    1    1    2    0    0  0.25528370428E+02  0.88637996309E+02  0.16565391249E+03  0.18960382593E+03  0.00000000000E+00 0. -1.
         11    1    1    2    0    0 -0.46148740121E+02 -0.98443227362E+02 -0.47509095937E+03  0.48737274739E+03  0.00000000000E+00 0.  1.
        -15    1    3    3    0    0  0.25997507550E+02 -0.36833742767E+02  0.16992384340E+03  0.17581201691E+03  0.17770000000E+01 0. -1.
         15    1    3    3    0    0 -0.53771378566E+01  0.46638973819E+02  0.13951320348E+03  0.14721140976E+03  0.17770000000E+01 0.  1.
</event>
<event>
 7    1  0.4133533E-006  0.3638103E+03  0.7546771E-02  0.9769821E-01
        -11   -1    0    0    0    0  0.00000000000E+00  0.00000000000E+00  0.50000000000E+03  0.50000000000E+03  0.00000000000E+00 0. -1.
         11   -1    0    0    0    0 -0.00000000000E+00 -0.00000000000E+00 -0.50000000000E+03  0.50000000000E+03  0.00000000000E+00 0. -1.
         23    2    1    2    0    0  0.94101731209E+02 -0.12437164930E+03 -0.15795189031E+03  0.23927397968E+03  0.89329696819E+02 0.  0.
        -11    1    1    2    0    0  0.12107679570E+03 -0.14626016640E+03  0.32525892014E+03  0.37662314303E+03  0.00000000000E+00 0. -1.
         11    1    1    2    0    0 -0.21517852691E+03  0.27063181570E+03 -0.16730702983E+03  0.38410287729E+03  0.00000000000E+00 0. -1.
        -15    1    3    3    0    0  0.28087799256E+02 -0.10597582039E+03 -0.11204317362E+03  0.15676935114E+03  0.17770000000E+01 0. -1.
         15    1    3    3    0    0  0.66013931953E+02 -0.18395828914E+02 -0.45908716695E+02  0.82504628542E+02  0.17770000000E+01 0.  1.
</event>
<event>
 7    1  0.4133533E-006  0.5186694E+03  0.7546771E-02  0.9358978E-01
        -11   -1    0    0    0    0  0.00000000000E+00  0.00000000000E+00  0.50000000000E+03  0.50000000000E+03  0.00000000000E+00 0.  1.
         11   -1    0    0    0    0 -0.00000000000E+00 -0.00000000000E+00 -0.50000000000E+03  0.50000000000E+03  0.00000000000E+00 0. -1.
         23    2    1    2    0    0  0.68116586702E+02 -0.55335743050E+02  0.23136495926E+03  0.26390744874E+03  0.91735943240E+02 0.  0.
        -11    1    1    2    0    0  0.14104184867E+02  0.77150491097E+02  0.24238920370E+03  0.25476195237E+03  0.00000000000E+00 0.  1.
         11    1    1    2    0    0 -0.82220771569E+02 -0.21814748047E+02 -0.47375416296E+03  0.48133059889E+03  0.00000000000E+00 0. -1.
        -15    1    3    3    0    0  0.41755663991E+02 -0.72755156266E+02  0.10921187421E+03  0.13772160119E+03  0.17770000000E+01 0.  1.
         15    1    3    3    0    0  0.26360922711E+02  0.17419413216E+02  0.12215308505E+03  0.12618584754E+03  0.17770000000E+01 0. -1.
</event>
<event>
 7    1  0.4133533E-006  0.5209296E+03  0.7546771E-02  0.9354159E-01
        -11   -1    0    0    0    0  0.00000000000E+00  0.00000000000E+00  0.50000000000E+03  0.50000000000E+03  0.00000000000E+00 0. -1.
         11   -1    0    0    0    0 -0.00000000000E+00 -0.00000000000E+00 -0.50000000000E+03  0.50000000000E+03  0.00000000000E+00 0. -1.
         23    2    1    2    0    0 -0.40570578749E+02 -0.42364068779E+02 -0.93944210676E+02  0.14002159489E+03  0.85672901981E+02 0.  0.
        -11    1    1    2    0    0 -0.77563368009E+01  0.12043411495E+03  0.46362041977E+03  0.47907038150E+03  0.00000000000E+00 0. -1.
         11    1    1    2    0    0  0.48326915550E+02 -0.78070046167E+02 -0.36967620909E+03  0.38090802360E+03  0.00000000000E+00 0. -1.
        -15    1    3    3    0    0  0.13876403717E+02 -0.20759576597E+02  0.45190098193E+01  0.25438038041E+02  0.17770000000E+01 0. -1.
         15    1    3    3    0    0 -0.54446982466E+02 -0.21604492182E+02 -0.98463220496E+02  0.11458355685E+03  0.17770000000E+01 0.  1.
</event>
<event>
 7    1  0.4133533E-006  0.5156720E+03  0.7546771E-02  0.9365409E-01
        -11   -1    0    0    0    0  0.00000000000E+00  0.00000000000E+00  0.50000000000E+03  0.50000000000E+03  0.00000000000E+00 0. -1.
         11   -1    0    0    0    0 -0.00000000000E+00 -0.00000000000E+00 -0.50000000000E+03  0.50000000000E+03  0.00000000000E+00 0.  1.
         23    2    1    2    0    0  0.11107637738E+03 -0.71043477750E+02 -0.28133582093E+03  0.32442987874E+03  0.93379680538E+02 0.  0.
        -11    1    1    2    0    0 -0.16748162963E+03  0.12057623201E+02  0.45428860062E+03  0.48432800372E+03  0.00000000000E+00 0. -1.
         11    1    1    2    0    0  0.56405252247E+02  0.58985854548E+02 -0.17295277969E+03  0.19124211753E+03  0.00000000000E+00 0.  1.
        -15    1    3    3    0    0  0.10920288410E+03 -0.46473354885E+02 -0.15250220943E+03  0.19324886603E+03  0.17770000000E+01 0. -1.
         15    1    3    3    0    0  0.18734932761E+01 -0.24570122865E+02 -0.12883361151E+03  0.13118101272E+03  0.17770000000E+01 0.  1.
</event>
<event>
 7    1  0.4133533E-006  0.3676741E+03  0.7546771E-02  0.9757052E-01
        -11   -1    0    0    0    0  0.00000000000E+00  0.00000000000E+00  0.50000000000E+03  0.50000000000E+03  0.00000000000E+00 0. -1.
         11   -1    0    0    0    0 -0.00000000000E+00 -0.00000000000E+00 -0.50000000000E+03  0.50000000000E+03  0.00000000000E+00 0.  1.
         23    2    1    2    0    0  0.36625563681E+02  0.12050229834E+03 -0.28272104452E+03  0.32245535128E+03  0.90465621822E+02 0.  0.
        -11    1    1    2    0    0 -0.53163896717E+02  0.64218538218E+02  0.43168860853E+03  0.43966518546E+03  0.00000000000E+00 0. -1.
         11    1    1    2    0    0  0.16538333036E+02 -0.18472083656E+03 -0.14896756401E+03  0.23787946327E+03  0.00000000000E+00 0.  1.
        -15    1    3    3    0    0  0.28038719563E+02  0.17760641708E+02 -0.15389560433E+03  0.15744403752E+03  0.17770000000E+01 0.  1.
         15    1    3    3    0    0  0.85868441186E+01  0.10274165663E+03 -0.12882544019E+03  0.16501131376E+03  0.17770000000E+01 0. -1.
</event>
<event>
 7    1  0.4133533E-006  0.5174890E+03  0.7546771E-02  0.9361505E-01
        -11   -1    0    0    0    0  0.00000000000E+00  0.00000000000E+00  0.50000000000E+03  0.50000000000E+03  0.00000000000E+00 0.  1.
         11   -1    0    0    0    0 -0.00000000000E+00 -0.00000000000E+00 -0.50000000000E+03  0.50000000000E+03  0.00000000000E+00 0. -1.
         23    2    1    2    0    0  0.12308427240E+03 -0.11119434363E+03  0.27281037559E+03  0.33210351840E+03  0.91396530225E+02 0.  0.
        -11    1    1    2    0    0  0.21004256501E+02  0.33603977289E+02  0.18110047836E+03  0.18538551546E+03  0.00000000000E+00 0.  1.
         11    1    1    2    0    0 -0.14408852890E+03  0.77590366340E+02 -0.45391085395E+03  0.48251096614E+03  0.00000000000E+00 0. -1.
        -15    1    3    3    0    0  0.95444432049E+02 -0.11688463877E+03  0.17901689747E+03  0.23414069637E+03  0.17770000000E+01 0.  1.
         15    1    3    3    0    0  0.27639840354E+02  0.56902951356E+01  0.93793478116E+02  0.97962822027E+02  0.17770000000E+01 0. -1.
</event>
<event>
 7    1  0.4133533E-006  0.5279588E+03  0.7546771E-02  0.9339335E-01
        -11   -1    0    0    0    0  0.00000000000E+00  0.00000000000E+00  0.50000000000E+03  0.50000000000E+03  0.00000000000E+00 0.  1.
         11   -1    0    0    0    0 -0.00000000000E+00 -0.00000000000E+00 -0.50000000000E+03  0.50000000000E+03  0.00000000000E+00 0. -1.
         23    2    1    2    0    0  0.20496520874E+02  0.33618970665E+02 -0.29595074511E+03  0.31013372639E+03  0.83938919203E+02 0.  0.
        -11    1    1    2    0    0  0.13225520129E+03 -0.53086449996E+02  0.45001471994E+03  0.47204116092E+03  0.00000000000E+00 0.  1.
         11    1    1    2    0    0 -0.15275172216E+03  0.19467479331E+02 -0.15406397483E+03  0.21782511269E+03  0.00000000000E+00 0. -1.
        -15    1    3    3    0    0  0.46003200777E+02  0.45193894494E+02 -0.19835445178E+03  0.20858194756E+03  0.17770000000E+01 0. -1.
         15    1    3    3    0    0 -0.25506679902E+02 -0.11574923828E+02 -0.97596293333E+02  0.10155177883E+03  0.17770000000E+01 0.  1.
</event>
<event>
 7    1  0.4133533E-006  0.5272726E+03  0.7546771E-02  0.9340771E-01
        -11   -1    0    0    0    0  0.00000000000E+00  0.00000000000E+00  0.50000000000E+03  0.50000000000E+03  0.00000000000E+00 0.  1.
         11   -1    0    0    0    0 -0.00000000000E+00 -0.00000000000E+00 -0.50000000000E+03  0.50000000000E+03  0.00000000000E+00 0. -1.
         23    2    1    2    0    0  0.25236039599E+02 -0.24434936582E+02 -0.38592561627E+03  0.39761777062E+03  0.89035871428E+02 0.  0.
        -11    1    1    2    0    0 -0.12344415545E+03  0.80751773658E+02  0.44912342847E+03  0.47272736590E+03  0.00000000000E+00 0.  1.
         11    1    1    2    0    0  0.98208115850E+02 -0.56316837076E+02 -0.63197812201E+02  0.12965486348E+03  0.00000000000E+00 0. -1.
        -15    1    3    3    0    0  0.57528007168E+02 -0.23123548355E+02 -0.22064179255E+03  0.22919452098E+03  0.17770000000E+01 0.  1.
         15    1    3    3    0    0 -0.32291967569E+02 -0.13113882267E+01 -0.16528382372E+03  0.16842324965E+03  0.17770000000E+01 0. -1.
</event>
<event>
 7    1  0.4133533E-006  0.3412928E+03  0.7546771E-02  0.9847780E-01
        -11   -1    0    0    0    0  0.00000000000E+00  0.00000000000E+00  0.50000000000E+03  0.50000000000E+03  0.00000000000E+00 0. -1.
         11   -1    0    0    0    0 -0.00000000000E+00 -0.00000000000E+00 -0.50000000000E+03  0.50000000000E+03  0.00000000000E+00 0. -1.
         23    2    1    2    0    0  0.86413422639E+02 -0.19363370648E+03  0.14387867732E+03  0.27090085462E+03  0.87891452087E+02 0.  0.
        -11    1    1    2    0    0  0.17604321172E+03  0.66032358742E+02  0.20239455845E+03  0.27625177299E+03  0.00000000000E+00 0. -1.
         11    1    1    2    0    0 -0.26245663436E+03  0.12760134774E+03 -0.34627323577E+03  0.45284737238E+03  0.00000000000E+00 0. -1.
        -15    1    3    3    0    0 -0.92990410965E+01 -0.42571860454E+02  0.57844154364E+02  0.72442662782E+02  0.17770000000E+01 0.  1.
         15    1    3    3    0    0  0.95712463735E+02 -0.15106184603E+03  0.86034522957E+02  0.19845819184E+03  0.17770000000E+01 0. -1.
</event>
<event>
 7    1  0.6325119E-006  0.5130447E+03  0.7546771E-02  0.9371085E-01
        -11   -1    0    0    0    0  0.00000000000E+00  0.00000000000E+00  0.50000000000E+03  0.50000000000E+03  0.00000000000E+00 0.  1.
         11   -1    0    0    0    0 -0.00000000000E+00 -0.00000000000E+00 -0.50000000000E+03  0.50000000000E+03  0.00000000000E+00 0. -1.
         23    2    1    2    0    0  0.25658220750E+02  0.42913898135E+02  0.22236242364E+03  0.24554177402E+03  0.91355177157E+02 0.  0.
        -11    1    1    2    0    0 -0.66833297358E+02  0.31866293285E+02  0.25705183705E+03  0.26750289198E+03  0.00000000000E+00 0.  1.
         11    1    1    2    0    0  0.41175076609E+02 -0.74780191421E+02 -0.47941426069E+03  0.48695533401E+03  0.00000000000E+00 0. -1.
        -15    1    3    3    0    0 -0.20819593653E+02 -0.14951179389E+02  0.92011764092E+02  0.95531752341E+02  0.17770000000E+01 0.  1.
         15    1    3    3    0    0  0.46477814403E+02  0.57865077525E+02  0.13035065955E+03  0.15001002167E+03  0.17770000000E+01 0. -1.
</event>
<event>
 7    1  0.4133533E-006  0.4339640E+03  0.7546771E-02  0.9561050E-01
        -11   -1    0    0    0    0  0.00000000000E+00  0.00000000000E+00  0.50000000000E+03  0.50000000000E+03  0.00000000000E+00 0. -1.
         11   -1    0    0    0    0 -0.00000000000E+00 -0.00000000000E+00 -0.50000000000E+03  0.50000000000E+03  0.00000000000E+00 0. -1.
         23    2    1    2    0    0  0.51557293312E+02  0.34749038777E+02  0.65771289628E+02  0.12736581607E+03  0.89613271194E+02 0.  0.
        -11    1    1    2    0    0 -0.63883158923E+02 -0.15740045472E+03  0.37674427599E+03  0.41327014244E+03  0.00000000000E+00 0. -1.
         11    1    1    2    0    0  0.12325865610E+02  0.12265141594E+03 -0.44251556562E+03  0.45936404149E+03  0.00000000000E+00 0. -1.
        -15    1    3    3    0    0  0.42518293937E+02  0.64076293730E+02  0.37385091696E+02  0.85524145992E+02  0.17770000000E+01 0. -1.
         15    1    3    3    0    0  0.90389993750E+01 -0.29327254953E+02  0.28386197933E+02  0.41841670078E+02  0.17770000000E+01 0.  1.
</event>
<event>
 7    1  0.4133533E-006  0.5301716E+03  0.7546771E-02  0.9334719E-01
        -11   -1    0    0    0    0  0.00000000000E+00  0.00000000000E+00  0.50000000000E+03  0.50000000000E+03  0.00000000000E+00 0.  1.
         11   -1    0    0    0    0 -0.00000000000E+00 -0.00000000000E+00 -0.50000000000E+03  0.50000000000E+03  0.00000000000E+00 0. -1.
         23    2    1    2    0    0 -0.76469340450E+02  0.11443669462E+03 -0.35353329025E+03  0.39035871807E+03  0.91928365332E+02 0.  0.
        -11    1    1    2    0    0  0.13106858712E+03 -0.23994144094E+03  0.38208358688E+03  0.46982841227E+03  0.00000000000E+00 0.  1.
         11    1    1    2    0    0 -0.54599246674E+02  0.12550474632E+03 -0.28550296627E+02  0.13981286967E+03  0.00000000000E+00 0. -1.
        -15    1    3    3    0    0 -0.64213706393E+02  0.12925319033E+03 -0.32793660059E+03  0.35829507258E+03  0.17770000000E+01 0. -1.
         15    1    3    3    0    0 -0.12255634057E+02 -0.14816495715E+02 -0.25596689664E+02  0.32063645491E+02  0.17770000000E+01 0.  1.
</event>
<event>
 7    1  0.4133533E-006  0.4527820E+03  0.7546771E-02  0.9512141E-01
        -11   -1    0    0    0    0  0.00000000000E+00  0.00000000000E+00  0.50000000000E+03  0.50000000000E+03  0.00000000000E+00 0.  1.
         11   -1    0    0    0    0 -0.00000000000E+00 -0.00000000000E+00 -0.50000000000E+03  0.50000000000E+03  0.00000000000E+00 0. -1.
         23    2    1    2    0    0  0.16497024493E+02 -0.11273140840E+02 -0.12467447138E+02  0.94129809584E+02  0.91135878186E+02 0.  0.
        -11    1    1    2    0    0  0.35667833329E+02 -0.10896909190E+03  0.44208078529E+03  0.45670765052E+03  0.00000000000E+00 0.  1.
         11    1    1    2    0    0 -0.52164857822E+02  0.12024223274E+03 -0.42961333815E+03  0.44916253989E+03  0.00000000000E+00 0. -1.
        -15    1    3    3    0    0  0.54250952644E+02 -0.92670093941E+01 -0.31751352229E+01  0.55156890218E+02  0.17770000000E+01 0.  1.
         15    1    3    3    0    0 -0.37753928151E+02 -0.20061314458E+01 -0.92923119155E+01  0.38972919366E+02  0.17770000000E+01 0. -1.
</event>
<event>
 7    1  0.4133533E-006  0.4095778E+03  0.7546771E-02  0.9628517E-01
        -11   -1    0    0    0    0  0.00000000000E+00  0.00000000000E+00  0.50000000000E+03  0.50000000000E+03  0.00000000000E+00 0. -1.
         11   -1    0    0    0    0 -0.00000000000E+00 -0.00000000000E+00 -0.50000000000E+03  0.50000000000E+03  0.00000000000E+00 0.  1.
         23    2    1    2    0    0 -0.52424696923E+02 -0.25911575162E+01 -0.38240109788E+03  0.39654411020E+03  0.90893172071E+02 0.  0.
        -11    1    1    2    0    0 -0.96291174861E+02  0.85867266247E+02  0.41087028862E+03  0.43065017339E+03  0.00000000000E+00 0. -1.
         11    1    1    2    0    0  0.14871587178E+03 -0.83276108731E+02 -0.28469190741E+02  0.17280571642E+03  0.00000000000E+00 0.  1.
        -15    1    3    3    0    0 -0.47651367509E+02 -0.31481524848E+02 -0.34128629025E+03  0.34603645599E+03  0.17770000000E+01 0.  1.
         15    1    3    3    0    0 -0.47733294141E+01  0.28890367332E+02 -0.41114807628E+02  0.50507654208E+02  0.17770000000E+01 0. -1.
</event>
<event>
 7    1  0.4133533E-006  0.3620668E+03  0.7546771E-02  0.9775639E-01
        -11   -1    0    0    0    0  0.00000000000E+00  0.00000000000E+00  0.50000000000E+03  0.50000000000E+03  0.00000000000E+00 0.  1.
         11   -1    0    0    0    0 -0.00000000000E+00 -0.00000000000E+00 -0.50000000000E+03  0.50000000000E+03  0.00000000000E+00 0. -1.
         23    2    1    2    0    0 -0.13742953907E+03  0.31624166805E+02 -0.17383004809E+03  0.24205981200E+03  0.92136316572E+02 0.  0.
        -11    1    1    2    0    0 -0.96040079682E+02  0.24421876518E+03  0.27754858723E+03  0.38196821915E+03  0.00000000000E+00 0.  1.
         11    1    1    2    0    0  0.23346961875E+03 -0.27584293198E+03 -0.10371853914E+03  0.37597196885E+03  0.00000000000E+00 0. -1.
        -15    1    3    3    0    0 -0.99137418866E+02  0.56534325677E+02 -0.15529799273E+03  0.19273033512E+03  0.17770000000E+01 0.  1.
         15    1    3    3    0    0 -0.38292120200E+02 -0.24910158872E+02 -0.18532055358E+02  0.49329476880E+02  0.17770000000E+01 0. -1.
</event>
<event>
 7    1  0.4133533E-006  0.5085030E+03  0.7546771E-02  0.9380982E-01
        -11   -1    0    0    0    0  0.00000000000E+00  0.00000000000E+00  0.50000000000E+03  0.50000000000E+03  0.00000000000E+00 0.  1.
         11   -1    0    0    0    0 -0.00000000000E+00 -0.00000000000E+00 -0.50000000000E+03  0.50000000000E+03  0.00000000000E+00 0.  1.
         23    2    1    2    0    0  0.32908385733E+02  0.62654707558E+02 -0.31273835164E+03  0.33258572841E+03  0.88314301927E+02 0.  0.
        -11    1    1    2    0    0 -0.75139999560E+02 -0.13944458882E+03  0.46527253287E+03  0.49149704244E+03  0.00000000000E+00 0.  1.
         11    1    1    2    0    0  0.42231613827E+02  0.76789881260E+02 -0.15253418122E+03  0.17591722915E+03  0.00000000000E+00 0.  1.
        -15    1    3    3    0    0 -0.23601137616E+02  0.32612590429E+02 -0.18919279744E+03  0.19343646782E+03  0.17770000000E+01 0.  1.
         15    1    3    3    0    0  0.56509523349E+02  0.30042117129E+02 -0.12354555421E+03  0.13914926059E+03  0.17770000000E+01 0. -1.
</event>
<event>
 7    1  0.4133533E-006  0.4463157E+03  0.7546771E-02  0.9528657E-01
        -11   -1    0    0    0    0  0.00000000000E+00  0.00000000000E+00  0.50000000000E+03  0.50000000000E+03  0.00000000000E+00 0. -1.
         11   -1    0    0    0    0 -0.00000000000E+00 -0.00000000000E+00 -0.50000000000E+03  0.50000000000E+03  0.00000000000E+00 0.  1.
         23    2    1    2    0    0  0.74863848068E+01 -0.18685716096E+03 -0.38244526905E+03  0.43518148215E+03  0.90260146411E+02 0.  0.
        -11    1    1    2    0    0  0.52827324878E+02  0.27538291470E+03  0.35835852000E+03  0.45502451013E+03  0.00000000000E+00 0. -1.
         11    1    1    2    0    0 -0.60313709684E+02 -0.88525753740E+02  0.24086749050E+02  0.10979400772E+03  0.00000000000E+00 0.  1.
        -15    1    3    3    0    0 -0.75982399392E+01  0.70533073732E+01 -0.79400032233E+01  0.13178914039E+02  0.17770000000E+01 0. -1.
         15    1    3    3    0    0  0.15084624746E+02 -0.19391046834E+03 -0.37450526582E+03  0.42200256811E+03  0.17770000000E+01 0.  1.
</event>
<event>
 7    1  0.4133533E-006  0.4672370E+03  0.7546771E-02  0.9476260E-01
        -11   -1    0    0    0    0  0.00000000000E+00  0.00000000000E+00  0.50000000000E+03  0.50000000000E+03  0.00000000000E+00 0. -1.
         11   -1    0    0    0    0 -0.00000000000E+00 -0.00000000000E+00 -0.50000000000E+03  0.50000000000E+03  0.00000000000E+00 0. -1.
         23    2    1    2    0    0 -0.15376755496E+03  0.30231820256E+03 -0.33784364856E+03  0.48633000203E+03  0.85660862999E+02 0.  0.
        -11    1    1    2    0    0  0.10001696772E+03 -0.25713637628E+03  0.34649255587E+03  0.44292166476E+03  0.00000000000E+00 0. -1.
         11    1    1    2    0    0  0.53750587237E+02 -0.45181826272E+02 -0.86489073111E+01  0.70748333205E+02  0.00000000000E+00 0. -1.
        -15    1    3    3    0    0 -0.53578106909E+02  0.74368992948E+02 -0.45595768996E+02  0.10238892778E+03  0.17770000000E+01 0.  1.
         15    1    3    3    0    0 -0.10018944805E+03  0.22794920961E+03 -0.29224787956E+03  0.38394107426E+03  0.17770000000E+01 0. -1.
</event>
<event>
 7    1  0.4133533E-006  0.3901888E+03  0.7546771E-02  0.9685842E-01
        -11   -1    0    0    0    0  0.00000000000E+00  0.00000000000E+00  0.50000000000E+03  0.50000000000E+03  0.00000000000E+00 0.  1.
         11   -1    0    0    0    0 -0.00000000000E+00 -0.00000000000E+00 -0.50000000000E+03  0.50000000000E+03  0.00000000000E+00 0. -1.
         23    2    1    2    0    0  0.15124364300E+03  0.80171894491E+02  0.31370343230E+02  0.20045301698E+03  0.99474325161E+02 0.  0.
        -11    1    1    2    0    0 -0.74387668703E+02  0.27356638071E+02  0.36926371063E+03  0.37767393197E+03  0.00000000000E+00 0.  1.
         11    1    1    2    0    0 -0.76855974295E+02 -0.10752853256E+03 -0.40063405386E+03  0.42187305106E+03  0.00000000000E+00 0. -1.
        -15    1    3    3    0    0  0.15673225465E+03  0.57153277577E+02  0.78203793124E+01  0.16702039650E+03  0.17770000000E+01 0.  1.
         15    1    3    3    0    0 -0.54886116485E+01  0.23018616915E+02  0.23549963918E+02  0.33432620478E+02  0.17770000000E+01 0. -1.
</event>
<event>
 7    1  0.4133533E-006  0.4424712E+03  0.7546771E-02  0.9538619E-01
        -11   -1    0    0    0    0  0.00000000000E+00  0.00000000000E+00  0.50000000000E+03  0.50000000000E+03  0.00000000000E+00 0.  1.
         11   -1    0    0    0    0 -0.00000000000E+00 -0.00000000000E+00 -0.50000000000E+03  0.50000000000E+03  0.00000000000E+00 0. -1.
         23    2    1    2    0    0 -0.38690340887E+03 -0.11264547024E+03  0.12149796875E+03  0.43061462029E+03  0.91016180094E+02 0.  0.
        -11    1    1    2    0    0  0.25742540187E+02 -0.33530631363E+02  0.10884662211E+03  0.11676715617E+03  0.00000000000E+00 0.  1.
         11    1    1    2    0    0  0.36116086868E+03  0.14617610160E+03 -0.23034459086E+03  0.45261822354E+03  0.00000000000E+00 0. -1.
        -15    1    3    3    0    0 -0.13186446526E+03 -0.70327600360E+02  0.12283923509E+02  0.14996086515E+03  0.17770000000E+01 0. -1.
         15    1    3    3    0    0 -0.25503894360E+03 -0.42317869876E+02  0.10921404524E+03  0.28065375513E+03  0.17770000000E+01 0.  1.
</event>
<event>
 7    1  0.4133533E-006  0.4268265E+03  0.7546771E-02  0.9580298E-01
        -11   -1    0    0    0    0  0.00000000000E+00  0.00000000000E+00  0.50000000000E+03  0.50000000000E+03  0.00000000000E+00 0. -1.
         11   -1    0    0    0    0 -0.00000000000E+00 -0.00000000000E+00 -0.50000000000E+03  0.50000000000E+03  0.00000000000E+00 0. -1.
         23    2    1    2    0    0  0.11157392281E+03  0.85043256640E+01  0.28791431508E+02  0.13856311692E+03  0.76483508274E+02 0.  0.
        -11    1    1    2    0    0 -0.15853195665E+02 -0.78318962007E+02  0.40446025116E+03  0.41227815658E+03  0.00000000000E+00 0. -1.
         11    1    1    2    0    0 -0.95720727142E+02  0.69814636343E+02 -0.43325168267E+03  0.44915872650E+03  0.00000000000E+00 0. -1.
        -15    1    3    3    0    0  0.27453724931E+02  0.35066768222E+02  0.22963877142E+02  0.50138634092E+02  0.17770000000E+01 0.  1.
         15    1    3    3    0    0  0.84120197876E+02 -0.26562442558E+02  0.58275543658E+01  0.88424482833E+02  0.17770000000E+01 0. -1.
</event>
<event>
 7    1  0.4133533E-006  0.3427391E+03  0.7546771E-02  0.9842581E-01
        -11   -1    0    0    0    0  0.00000000000E+00  0.00000000000E+00  0.50000000000E+03  0.50000000000E+03  0.00000000000E+00 0.  1.
         11   -1    0    0    0    0 -0.00000000000E+00 -0.00000000000E+00 -0.50000000000E+03  0.50000000000E+03  0.00000000000E+00 0.  1.
         23    2    1    2    0    0  0.72532528357E+02  0.51698105168E+02 -0.23749872232E+03  0.26909670512E+03  0.89853947362E+02 0.  0.
        -11    1    1    2    0    0  0.11017874459E+03  0.64515256140E+02  0.42543590266E+03  0.44418158596E+03  0.00000000000E+00 0.  1.
         11    1    1    2    0    0 -0.18271127294E+03 -0.11621336131E+03 -0.18793718035E+03  0.28672170892E+03  0.00000000000E+00 0.  1.
        -15    1    3    3    0    0  0.74550918882E+02  0.73409873378E+02 -0.19667886186E+03  0.22278371001E+03  0.17770000000E+01 0.  1.
         15    1    3    3    0    0 -0.20183905250E+01 -0.21711768210E+02 -0.40819860460E+02  0.46312995110E+02  0.17770000000E+01 0. -1.
</event>
<event>
 7    1  0.4133533E-006  0.3349793E+03  0.7546771E-02  0.9870803E-01
        -11   -1    0    0    0    0  0.00000000000E+00  0.00000000000E+00  0.50000000000E+03  0.50000000000E+03  0.00000000000E+00 0.  1.
         11   -1    0    0    0    0 -0.00000000000E+00 -0.00000000000E+00 -0.50000000000E+03  0.50000000000E+03  0.00000000000E+00 0. -1.
         23    2    1    2    0    0  0.20270400304E+03  0.21553420935E+03  0.78720668762E+02  0.32263024327E+03  0.10173210867E+03 0.  0.
        -11    1    1    2    0    0 -0.12561915669E+03 -0.27243433403E+02  0.25554553165E+03  0.28605226085E+03  0.00000000000E+00 0.  1.
         11    1    1    2    0    0 -0.77084846353E+02 -0.18829077595E+03 -0.33426620041E+03  0.39131749588E+03  0.00000000000E+00 0. -1.
        -15    1    3    3    0    0  0.12142657166E+03  0.61468395983E+02  0.55086656314E+02  0.14683485092E+03  0.17770000000E+01 0.  1.
         15    1    3    3    0    0  0.81277431377E+02  0.15406581337E+03  0.23634012448E+02  0.17579539236E+03  0.17770000000E+01 0. -1.
</event>
<event>
 7    1  0.4133533E-006  0.4237594E+03  0.7546771E-02  0.9588692E-01
        -11   -1    0    0    0    0  0.00000000000E+00  0.00000000000E+00  0.50000000000E+03  0.50000000000E+03  0.00000000000E+00 0.  1.
         11   -1    0    0    0    0 -0.00000000000E+00 -0.00000000000E+00 -0.50000000000E+03  0.50000000000E+03  0.00000000000E+00 0. -1.
         23    2    1    2    0    0 -0.80117575237E+02 -0.65560713602E+02  0.40298648695E+02  0.14523150854E+03  0.93547725551E+02 0.  0.
        -11    1    1    2    0    0  0.36113425646E+02 -0.80823935527E+02  0.38906422687E+03  0.39900834665E+03  0.00000000000E+00 0.  1.
         11    1    1    2    0    0  0.44004149592E+02  0.14638464913E+03 -0.42936287557E+03  0.45576014481E+03  0.00000000000E+00 0. -1.
        -15    1    3    3    0    0 -0.61712672335E+02  0.60464899065E+01  0.34662724820E+02  0.71061073647E+02  0.17770000000E+01 0.  1.
         15    1    3    3    0    0 -0.18404902903E+02 -0.71607203508E+02  0.56359238754E+01  0.74170434892E+02  0.17770000000E+01 0. -1.
</event>
<event>
 7    1  0.4133533E-006  0.3294684E+03  0.7546771E-02  0.9891349E-01
        -11   -1    0    0    0    0  0.00000000000E+00  0.00000000000E+00  0.50000000000E+03  0.50000000000E+03  0.00000000000E+00 0.  1.
         11   -1    0    0    0    0 -0.00000000000E+00 -0.00000000000E+00 -0.50000000000E+03  0.50000000000E+03  0.00000000000E+00 0. -1.
         23    2    1    2    0    0 -0.88116742408E+02 -0.20009030698E+03 -0.16235330792E+03  0.28700842803E+03  0.90634154306E+02 0.  0.
        -11    1    1    2    0    0  0.10650441893E+02 -0.65231779497E+02  0.36457289978E+03  0.37051587850E+03  0.00000000000E+00 0.  1.
         11    1    1    2    0    0  0.77466300514E+02  0.26532208648E+03 -0.20221959186E+03  0.34247569347E+03  0.00000000000E+00 0. -1.
        -15    1    3    3    0    0 -0.95972017442E+01 -0.66549140998E+02 -0.70263742440E+01  0.67627081209E+02  0.17770000000E+01 0. -1.
         15    1    3    3    0    0 -0.78519540663E+02 -0.13354116598E+03 -0.15532693368E+03  0.21938134682E+03  0.17770000000E+01 0.  1.
</event>
<event>
 7    1  0.4133533E-006  0.3529050E+03  0.7546771E-02  0.9806798E-01
        -11   -1    0    0    0    0  0.00000000000E+00  0.00000000000E+00  0.50000000000E+03  0.50000000000E+03  0.00000000000E+00 0. -1.
         11   -1    0    0    0    0 -0.00000000000E+00 -0.00000000000E+00 -0.50000000000E+03  0.50000000000E+03  0.00000000000E+00 0. -1.
         23    2    1    2    0    0 -0.90288020270E+02  0.90162779312E+02 -0.20116915597E+03  0.25507185567E+03  0.91166709195E+02 0.  0.
        -11    1    1    2    0    0 -0.56394387542E+02  0.27303270882E+03  0.21641505009E+03  0.35293435783E+03  0.00000000000E+00 0. -1.
         11    1    1    2    0    0  0.14668240781E+03 -0.36319548814E+03 -0.15245894122E+02  0.39199378650E+03  0.00000000000E+00 0. -1.
        -15    1    3    3    0    0 -0.60861558924E+01 -0.13073223649E+02 -0.56762959862E+02  0.58593018452E+02  0.17770000000E+01 0. -1.
         15    1    3    3    0    0 -0.84201864378E+02  0.10323600296E+03 -0.14440619610E+03  0.19647883722E+03  0.17770000000E+01 0.  1.
</event>
<event>
 7    1  0.4133533E-006  0.4329929E+03  0.7546771E-02  0.9563646E-01
        -11   -1    0    0    0    0  0.00000000000E+00  0.00000000000E+00  0.50000000000E+03  0.50000000000E+03  0.00000000000E+00 0.  1.
         11   -1    0    0    0    0 -0.00000000000E+00 -0.00000000000E+00 -0.50000000000E+03  0.50000000000E+03  0.00000000000E+00 0. -1.
         23    2    1    2    0    0 -0.28792024369E+02 -0.20202033933E+01 -0.42298389242E+03  0.43271092285E+03  0.86546563321E+02 0.  0.
        -11    1    1    2    0    0  0.74251420668E+02  0.12580658280E+03  0.40944645125E+03  0.43472631182E+03  0.00000000000E+00 0.  1.
         11    1    1    2    0    0 -0.45459396299E+02 -0.12378637941E+03  0.13537441167E+02  0.13256276533E+03  0.00000000000E+00 0. -1.
        -15    1    3    3    0    0 -0.41861072072E+02  0.32894813606E+02 -0.22299990001E+03  0.22927392188E+03  0.17770000000E+01 0. -1.
         15    1    3    3    0    0  0.13069047702E+02 -0.34915016999E+02 -0.19998399240E+03  0.20343700098E+03  0.17770000000E+01 0.  1.
</event>
<event>
 7    1  0.4133533E-006  0.5169689E+03  0.7546771E-02  0.9362621E-01
        -11   -1    0    0    0    0  0.00000000000E+00  0.00000000000E+00  0.50000000000E+03  0.50000000000E+03  0.00000000000E+00 0.  1.
         11   -1    0    0    0    0 -0.00000000000E+00 -0.00000000000E+00 -0.50000000000E+03  0.50000000000E+03  0.00000000000E+00 0. -1.
         23    2    1    2    0    0 -0.41968734271E+02  0.95301367313E+01 -0.33740987260E+03  0.35196843068E+03  0.90466324708E+02 0.  0.
        -11    1    1    2    0    0  0.26640071356E+02 -0.10577339575E+03  0.47055426595E+03  0.48303107752E+03  0.00000000000E+00 0.  1.
         11    1    1    2    0    0  0.15328662915E+02  0.96243259020E+02 -0.13314439335E+03  0.16500049180E+03  0.00000000000E+00 0. -1.
        -15    1    3    3    0    0 -0.58596017183E+02 -0.23250215809E+02 -0.19929208541E+03  0.20903243480E+03  0.17770000000E+01 0.  1.
         15    1    3    3    0    0  0.16627282912E+02  0.32780352540E+02 -0.13811778719E+03  0.14293599588E+03  0.17770000000E+01 0. -1.
</event>
<event>
 7    1  0.4133533E-006  0.3845494E+03  0.7546771E-02  0.9703187E-01
        -11   -1    0    0    0    0  0.00000000000E+00  0.00000000000E+00  0.50000000000E+03  0.50000000000E+03  0.00000000000E+00 0.  1.
         11   -1    0    0    0    0 -0.00000000000E+00 -0.00000000000E+00 -0.50000000000E+03  0.50000000000E+03  0.00000000000E+00 0. -1.
         23    2    1    2    0    0  0.16875529167E+03 -0.44278407199E+02 -0.67653524494E+02  0.20846426924E+03  0.91877235272E+02 0.  0.
        -11    1    1    2    0    0  0.15505003418E+03  0.52674284012E+02  0.33412748002E+03  0.37209711932E+03  0.00000000000E+00 0.  1.
         11    1    1    2    0    0 -0.32380532585E+03 -0.83958768136E+01 -0.26647395553E+03  0.41943861145E+03  0.00000000000E+00 0. -1.
        -15    1    3    3    0    0  0.48293206830E+02  0.22512360204E+02  0.34904182325E+01  0.53426406732E+02  0.17770000000E+01 0.  1.
         15    1    3    3    0    0  0.12046208484E+03 -0.66790767403E+02 -0.71143942727E+02  0.15503786250E+03  0.17770000000E+01 0. -1.
</event>
<event>
 7    1  0.4133533E-006  0.4544908E+03  0.7546771E-02  0.9507825E-01
        -11   -1    0    0    0    0  0.00000000000E+00  0.00000000000E+00  0.50000000000E+03  0.50000000000E+03  0.00000000000E+00 0. -1.
         11   -1    0    0    0    0 -0.00000000000E+00 -0.00000000000E+00 -0.50000000000E+03  0.50000000000E+03  0.00000000000E+00 0. -1.
         23    2    1    2    0    0  0.63774572938E+02 -0.47817579556E+02  0.39283209540E+03  0.41389488636E+03  0.10314167300E+03 0.  0.
        -11    1    1    2    0    0  0.54780351115E+02 -0.31349299483E+02  0.74425282658E+02  0.97584774146E+02  0.00000000000E+00 0. -1.
         11    1    1    2    0    0 -0.11855492405E+03  0.79166879038E+02 -0.46725737806E+03  0.48852033950E+03  0.00000000000E+00 0. -1.
        -15    1    3    3    0    0  0.42463668150E+02 -0.78544025165E+02  0.22802482865E+03  0.24488937750E+03  0.17770000000E+01 0.  1.
         15    1    3    3    0    0  0.21310904787E+02  0.30726445609E+02  0.16480726675E+03  0.16900550886E+03  0.17770000000E+01 0. -1.
</event>
<event>
 7    1  0.4133533E-006  0.3359509E+03  0.7546771E-02  0.9867225E-01
        -11   -1    0    0    0    0  0.00000000000E+00  0.00000000000E+00  0.50000000000E+03  0.50000000000E+03  0.00000000000E+00 0. -1.
         11   -1    0    0    0    0 -0.00000000000E+00 -0.00000000000E+00 -0.50000000000E+03  0.50000000000E+03  0.00000000000E+00 0.  1.
         23    2    1    2    0    0 -0.12805943637E+03  0.16814552143E+03 -0.15512112333E+03  0.27876023577E+03  0.94723653460E+02 0.  0.
        -11    1    1    2    0    0  0.13056207021E+03 -0.57609382544E+02  0.41498275004E+03  0.43883479576E+03  0.00000000000E+00 0. -1.
         11    1    1    2    0    0 -0.25026338445E+01 -0.11053613889E+03 -0.25986162672E+03  0.28240496847E+03  0.00000000000E+00 0.  1.
        -15    1    3    3    0    0 -0.36620376323E+02  0.12219647202E+03 -0.10262858418E+03  0.16373397251E+03  0.17770000000E+01 0.  1.
         15    1    3    3    0    0 -0.91439060043E+02  0.45949049415E+02 -0.52492539146E+02  0.11502626326E+03  0.17770000000E+01 0. -1.
</event>
<event>
 7    1  0.4133533E-006  0.5162144E+03  0.7546771E-02  0.9364242E-01
        -11   -1    0    0    0    0  0.00000000000E+00  0.00000000000E+00  0.50000000000E+03  0.50000000000E+03  0.00000000000E+00 0. -1.
         11   -1    0    0    0    0 -0.00000000000E+00 -0.00000000000E+00 -0.50000000000E+03  0.50000000000E+03  0.00000000000E+00 0.  1.
         23    2    1    2    0    0  0.17190042710E+02  0.31601089753E+02 -0.15421272912E+03  0.18383612463E+03  0.93381092591E+02 0.  0.
        -11    1    1    2    0    0 -0.12376452960E+03 -0.23601861898E+01  0.46768071985E+03  0.48378557748E+03  0.00000000000E+00 0. -1.
         11    1    1    2    0    0  0.10657448689E+03 -0.29240903563E+02 -0.31346799073E+03  0.33237829789E+03  0.00000000000E+00 0.  1.
        -15    1    3    3    0    0  0.12879850755E+02 -0.89387828775E+00  0.99667794515E+01  0.16406827710E+02  0.17770000000E+01 0. -1.
         15    1    3    3    0    0  0.43101919550E+01  0.32494968041E+02 -0.16417950857E+03  0.16742929692E+03  0.17770000000E+01 0.  1.
</event>
<event>
 7    1  0.4133533E-006  0.4809843E+03  0.7546771E-02  0.9443394E-01
        -11   -1    0    0    0    0  0.00000000000E+00  0.00000000000E+00  0.50000000000E+03  0.50000000000E+03  0.00000000000E+00 0.  1.
         11   -1    0    0    0    0 -0.00000000000E+00 -0.00000000000E+00 -0.50000000000E+03  0.50000000000E+03  0.00000000000E+00 0. -1.
         23    2    1    2    0    0 -0.12148497511E+03  0.65977142393E+02 -0.46042752873E+03  0.48932754339E+03  0.91303630877E+02 0.  0.
        -11    1    1    2    0    0  0.79154128259E+02 -0.49517264444E+02  0.45551955366E+03  0.46498967652E+03  0.00000000000E+00 0.  1.
         11    1    1    2    0    0  0.42330846854E+02 -0.16459877949E+02  0.49079750741E+01  0.45682780090E+02  0.00000000000E+00 0. -1.
        -15    1    3    3    0    0 -0.91814488068E+02  0.88865282352E+02 -0.36907989474E+03  0.39057658027E+03  0.17770000000E+01 0.  1.
         15    1    3    3    0    0 -0.29670487044E+02 -0.22888139958E+02 -0.91347633999E+02  0.98750963127E+02  0.17770000000E+01 0. -1.
</event>
<event>
 7    1  0.4133533E-006  0.5345863E+03  0.7546771E-02  0.9325581E-01
        -11   -1    0    0    0    0  0.00000000000E+00  0.00000000000E+00  0.50000000000E+03  0.50000000000E+03  0.00000000000E+00 0.  1.
         11   -1    0    0    0    0 -0.00000000000E+00 -0.00000000000E+00 -0.50000000000E+03  0.50000000000E+03  0.00000000000E+00 0. -1.
         23    2    1    2    0    0  0.82409706769E+02  0.10989869541E+03 -0.23311547521E+03  0.28890700527E+03  0.10126870142E+03 0.  0.
        -11    1    1    2    0    0 -0.82704024179E+02 -0.10708986371E+02  0.45788124554E+03  0.46541365797E+03  0.00000000000E+00 0.  1.
         11    1    1    2    0    0  0.29431740983E+00 -0.99189709044E+02 -0.22476577033E+03  0.24567933677E+03  0.00000000000E+00 0. -1.
        -15    1    3    3    0    0  0.66587863628E+02  0.84241221922E+01 -0.78705819133E+02  0.10345372449E+03  0.17770000000E+01 0.  1.
         15    1    3    3    0    0  0.15821843141E+02  0.10147457322E+03 -0.15440965608E+03  0.18545328077E+03  0.17770000000E+01 0. -1.
</event>
<event>
 7    1  0.4133533E-006  0.4858866E+03  0.7546771E-02  0.9431955E-01
        -11   -1    0    0    0    0  0.00000000000E+00  0.00000000000E+00  0.50000000000E+03  0.50000000000E+03  0.00000000000E+00 0. -1.
         11   -1    0    0    0    0 -0.00000000000E+00 -0.00000000000E+00 -0.50000000000E+03  0.50000000000E+03  0.00000000000E+00 0. -1.
         23    2    1    2    0    0 -0.84364211334E+02  0.46262811336E+02 -0.47053198913E+03  0.48619450961E+03  0.75678137635E+02 0.  0.
        -11    1    1    2    0    0  0.95881114780E+02 -0.77155486558E+02  0.46419497528E+03  0.48023237329E+03  0.00000000000E+00 0. -1.
         11    1    1    2    0    0 -0.11516903446E+02  0.30892675222E+02  0.63370138418E+01  0.33573117099E+02  0.00000000000E+00 0. -1.
        -15    1    3    3    0    0 -0.95915876758E+02  0.28256302158E+02 -0.40809631921E+03  0.42017143824E+03  0.17770000000E+01 0. -1.
         15    1    3    3    0    0  0.11551665424E+02  0.18006509178E+02 -0.62435669914E+02  0.66023071372E+02  0.17770000000E+01 0.  1.
</event>
<event>
 7    1  0.4133533E-006  0.4168120E+03  0.7546771E-02  0.9607991E-01
        -11   -1    0    0    0    0  0.00000000000E+00  0.00000000000E+00  0.50000000000E+03  0.50000000000E+03  0.00000000000E+00 0.  1.
         11   -1    0    0    0    0 -0.00000000000E+00 -0.00000000000E+00 -0.50000000000E+03  0.50000000000E+03  0.00000000000E+00 0. -1.
         23    2    1    2    0    0  0.10699122993E+03  0.11704493102E+02 -0.69805386345E+02  0.15656314229E+03  0.89750248575E+02 0.  0.
        -11    1    1    2    0    0 -0.35486352436E+02  0.10800993013E+03  0.43653211916E+03  0.45109391181E+03  0.00000000000E+00 0.  1.
         11    1    1    2    0    0 -0.71504877495E+02 -0.11971442323E+03 -0.36672673282E+03  0.39234294590E+03  0.00000000000E+00 0. -1.
        -15    1    3    3    0    0  0.11253906596E+02  0.15145111280E+02 -0.56788368638E+02  0.59867364656E+02  0.17770000000E+01 0.  1.
         15    1    3    3    0    0  0.95737323335E+02 -0.34406181789E+01 -0.13017017708E+02  0.96695777631E+02  0.17770000000E+01 0. -1.
</event>
<event>
 7    1  0.4133533E-006  0.5130405E+03  0.7546771E-02  0.9371094E-01
        -11   -1    0    0    0    0  0.00000000000E+00  0.00000000000E+00  0.50000000000E+03  0.50000000000E+03  0.00000000000E+00 0.  1.
         11   -1    0    0    0    0 -0.00000000000E+00 -0.00000000000E+00 -0.50000000000E+03  0.50000000000E+03  0.00000000000E+00 0. -1.
         23    2    1    2    0    0  0.83458072981E+02 -0.51326862562E+02 -0.36478794989E+03  0.38948818136E+03  0.95032090725E+02 0.  0.
        -11    1    1    2    0    0 -0.12681348361E+03  0.35195691507E+01  0.47014418121E+03  0.48695954464E+03  0.00000000000E+00 0.  1.
         11    1    1    2    0    0  0.43355410626E+02  0.47807293412E+02 -0.10535623131E+03  0.12355227400E+03  0.00000000000E+00 0. -1.
        -15    1    3    3    0    0 -0.57794455395E+01  0.20802740007E+02 -0.53374047652E+02  0.57602974527E+02  0.17770000000E+01 0.  1.
         15    1    3    3    0    0  0.89237518521E+02 -0.72129602569E+02 -0.31141390224E+03  0.33188520684E+03  0.17770000000E+01 0. -1.
</event>
<event>
 6    1  0.4133533E-006  0.5326548E+03  0.7546771E-02  0.9329568E-01
        -11   -1    0    0    0    0  0.00000000000E+00  0.00000000000E+00  0.50000000000E+03  0.50000000000E+03  0.00000000000E+00 0.  1.
         11   -1    0    0    0    0 -0.00000000000E+00 -0.00000000000E+00 -0.50000000000E+03  0.50000000000E+03  0.00000000000E+00 0. -1.
        -11    1    1    2    0    0  0.50620451188E+02 -0.11568603594E+03  0.21724428379E+03  0.25127826772E+03  0.00000000000E+00 0.  1.
         11    1    1    2    0    0  0.69839442688E+02  0.16784529652E+03 -0.43053675586E+03  0.46734515026E+03  0.00000000000E+00 0. -1.
        -15    1    1    2    0    0 -0.10060457667E+03  0.58491323845E+01  0.19127708219E+03  0.21620724570E+03  0.17770000000E+01 0.  1.
         15    1    1    2    0    0 -0.19855317208E+02 -0.58008392961E+02  0.22015389893E+02  0.65169336320E+02  0.17770000000E+01 0. -1.
</event>
<event>
 7    1  0.4133533E-006  0.5106811E+03  0.7546771E-02  0.9376222E-01
        -11   -1    0    0    0    0  0.00000000000E+00  0.00000000000E+00  0.50000000000E+03  0.50000000000E+03  0.00000000000E+00 0.  1.
         11   -1    0    0    0    0 -0.00000000000E+00 -0.00000000000E+00 -0.50000000000E+03  0.50000000000E+03  0.00000000000E+00 0.  1.
         23    2    1    2    0    0  0.72147707721E+02  0.79088674413E+02  0.32913785484E+03  0.35807790883E+03  0.91802784019E+02 0.  0.
        -11    1    1    2    0    0  0.35739564225E+02 -0.28978687333E+02  0.14550133407E+03  0.15260314213E+03  0.00000000000E+00 0.  1.
         11    1    1    2    0    0 -0.10788727195E+03 -0.50109987080E+02 -0.47463918891E+03  0.48931894905E+03  0.00000000000E+00 0.  1.
        -15    1    3    3    0    0  0.33481030962E+02  0.72699002275E+02  0.29627567275E+03  0.30690154180E+03  0.17770000000E+01 0.  1.
         15    1    3    3    0    0  0.38666676758E+02  0.63896721383E+01  0.32862182082E+02  0.51176367024E+02  0.17770000000E+01 0. -1.
</event>
<event>
 7    1  0.4133533E-006  0.5102395E+03  0.7546771E-02  0.9377185E-01
        -11   -1    0    0    0    0  0.00000000000E+00  0.00000000000E+00  0.50000000000E+03  0.50000000000E+03  0.00000000000E+00 0. -1.
         11   -1    0    0    0    0 -0.00000000000E+00 -0.00000000000E+00 -0.50000000000E+03  0.50000000000E+03  0.00000000000E+00 0. -1.
         23    2    1    2    0    0 -0.61400957914E+01  0.10222132776E+03 -0.24415339384E+03  0.28017733207E+03  0.91660007935E+02 0.  0.
        -11    1    1    2    0    0 -0.16742887456E+02 -0.24190091948E+03  0.42552201122E+03  0.48976051408E+03  0.00000000000E+00 0. -1.
         11    1    1    2    0    0  0.22882983248E+02  0.13967959172E+03 -0.18136861738E+03  0.23006215385E+03  0.00000000000E+00 0. -1.
        -15    1    3    3    0    0  0.21733633109E+02  0.36014179442E+02 -0.17661005025E+03  0.18155891470E+03  0.17770000000E+01 0. -1.
         15    1    3    3    0    0 -0.27873728900E+02  0.66207148321E+02 -0.67543343590E+02  0.98618417367E+02  0.17770000000E+01 0.  1.
</event>
<event>
 7    1  0.4133533E-006  0.3617642E+03  0.7546771E-02  0.9776652E-01
        -11   -1    0    0    0    0  0.00000000000E+00  0.00000000000E+00  0.50000000000E+03  0.50000000000E+03  0.00000000000E+00 0. -1.
         11   -1    0    0    0    0 -0.00000000000E+00 -0.00000000000E+00 -0.50000000000E+03  0.50000000000E+03  0.00000000000E+00 0.  1.
         23    2    1    2    0    0 -0.86167434386E+02  0.14041383950E+03 -0.14817825999E+03  0.24330261942E+03  0.10049126733E+03 0.  0.
        -11    1    1    2    0    0  0.34500292201E+02 -0.92928096592E+02  0.44283808769E+03  0.45379673116E+03  0.00000000000E+00 0. -1.
         11    1    1    2    0    0  0.51667142184E+02 -0.47485742903E+02 -0.29465982770E+03  0.30290064942E+03  0.00000000000E+00 0.  1.
        -15    1    3    3    0    0  0.11442052732E+02  0.18931798969E+02 -0.60593887785E+02  0.64529919796E+02  0.17770000000E+01 0. -1.
         15    1    3    3    0    0 -0.97609487118E+02  0.12148204053E+03 -0.87584372209E+02  0.17877269962E+03  0.17770000000E+01 0.  1.
</event>
<event>
 7    1  0.4133533E-006  0.5300011E+03  0.7546771E-02  0.9335074E-01
        -11   -1    0    0    0    0  0.00000000000E+00  0.00000000000E+00  0.50000000000E+03  0.50000000000E+03  0.00000000000E+00 0. -1.
         11   -1    0    0    0    0 -0.00000000000E+00 -0.00000000000E+00 -0.50000000000E+03  0.50000000000E+03  0.00000000000E+00 0.  1.
         23    2    1    2    0    0 -0.49071622341E+02 -0.12703374546E+02 -0.29488962735E+03  0.31369949212E+03  0.94223559648E+02 0.  0.
        -11    1    1    2    0    0 -0.72251858136E+02  0.92815856657E+02  0.45504267150E+03  0.46999887993E+03  0.00000000000E+00 0. -1.
         11    1    1    2    0    0  0.12132348048E+03 -0.80112482111E+02 -0.16015304415E+03  0.21630162795E+03  0.00000000000E+00 0.  1.
        -15    1    3    3    0    0 -0.53485959514E+02 -0.47669793339E+02 -0.20139161391E+03  0.21376364739E+03  0.17770000000E+01 0.  1.
         15    1    3    3    0    0  0.44143371729E+01  0.34966418793E+02 -0.93498013438E+02  0.99935844729E+02  0.17770000000E+01 0. -1.
</event>
<event>
 7    1  0.4133533E-006  0.4012314E+03  0.7546771E-02  0.9652769E-01
        -11   -1    0    0    0    0  0.00000000000E+00  0.00000000000E+00  0.50000000000E+03  0.50000000000E+03  0.00000000000E+00 0. -1.
         11   -1    0    0    0    0 -0.00000000000E+00 -0.00000000000E+00 -0.50000000000E+03  0.50000000000E+03  0.00000000000E+00 0. -1.
         23    2    1    2    0    0  0.22055549172E+03 -0.21738748490E+01  0.24712444113E+03  0.35294893681E+03  0.12187293355E+03 0.  0.
        -11    1    1    2    0    0 -0.62493438871E+02 -0.52623609503E+02  0.17492068047E+03  0.19305936557E+03  0.00000000000E+00 0. -1.
         11    1    1    2    0    0 -0.15806205285E+03  0.54797484352E+02 -0.42204512160E+03  0.45399169762E+03  0.00000000000E+00 0. -1.
        -15    1    3    3    0    0 -0.71999959300E+01  0.11258338768E+02  0.48849732719E+02  0.50675874427E+02  0.17770000000E+01 0.  1.
         15    1    3    3    0    0  0.22775548765E+03 -0.13432213617E+02  0.19827470841E+03  0.30227306238E+03  0.17770000000E+01 0. -1.
</event>
<event>
 7    1  0.4133533E-006  0.4000430E+03  0.7546771E-02  0.9656274E-01
        -11   -1    0    0    0    0  0.00000000000E+00  0.00000000000E+00  0.50000000000E+03  0.50000000000E+03  0.00000000000E+00 0.  1.
         11   -1    0    0    0    0 -0.00000000000E+00 -0.00000000000E+00 -0.50000000000E+03  0.50000000000E+03  0.00000000000E+00 0. -1.
         23    2    1    2    0    0 -0.20771351490E+03  0.18216986197E+03 -0.32982093591E+03  0.43922743176E+03  0.88363590724E+02 0.  0.
        -11    1    1    2    0    0  0.50324424276E+02 -0.84233476920E+02  0.35984653970E+03  0.37298439437E+03  0.00000000000E+00 0.  1.
         11    1    1    2    0    0  0.15738909062E+03 -0.97936385046E+02 -0.30025603791E+02  0.18778817387E+03  0.00000000000E+00 0. -1.
        -15    1    3    3    0    0 -0.49136131072E+02  0.93836321289E+01 -0.94799707513E+02  0.10720333111E+03  0.17770000000E+01 0.  1.
         15    1    3    3    0    0 -0.15857738382E+03  0.17278622984E+03 -0.23502122839E+03  0.33202410064E+03  0.17770000000E+01 0. -1.
</event>
<event>
 7    1  0.4133533E-006  0.4880185E+03  0.7546771E-02  0.9427026E-01
        -11   -1    0    0    0    0  0.00000000000E+00  0.00000000000E+00  0.50000000000E+03  0.50000000000E+03  0.00000000000E+00 0.  1.
         11   -1    0    0    0    0 -0.00000000000E+00 -0.00000000000E+00 -0.50000000000E+03  0.50000000000E+03  0.00000000000E+00 0. -1.
         23    2    1    2    0    0  0.20424783825E+03  0.13495059715E+03  0.41299801984E+03  0.48850344175E+03  0.90218651684E+02 0.  0.
        -11    1    1    2    0    0 -0.24980213626E+02  0.19287254964E+02  0.42956754814E+01  0.31850621731E+02  0.00000000000E+00 0.  1.
         11    1    1    2    0    0 -0.17926762463E+03 -0.15423785211E+03 -0.41729369532E+03  0.47964593652E+03  0.00000000000E+00 0. -1.
        -15    1    3    3    0    0  0.17399515045E+03  0.14677704658E+03  0.37258658514E+03  0.43662539429E+03  0.17770000000E+01 0.  1.
         15    1    3    3    0    0  0.30252687804E+02 -0.11826449427E+02  0.40411434698E+02  0.51878047465E+02  0.17770000000E+01 0. -1.
</event>
<event>
 7    1  0.4133533E-006  0.5250150E+03  0.7546771E-02  0.9345513E-01
        -11   -1    0    0    0    0  0.00000000000E+00  0.00000000000E+00  0.50000000000E+03  0.50000000000E+03  0.00000000000E+00 0. -1.
         11   -1    0    0    0    0 -0.00000000000E+00 -0.00000000000E+00 -0.50000000000E+03  0.50000000000E+03  0.00000000000E+00 0.  1.
         23    2    1    2    0    0 -0.33343864718E+01  0.47884138261E+02 -0.20712013988E+03  0.23041218943E+03  0.88808872675E+02 0.  0.
        -11    1    1    2    0    0  0.15538043878E+03  0.27193547155E+02  0.44802703109E+03  0.47498504224E+03  0.00000000000E+00 0. -1.
         11    1    1    2    0    0 -0.15204605231E+03 -0.75077685416E+02 -0.24090689122E+03  0.29460276833E+03  0.00000000000E+00 0.  1.
        -15    1    3    3    0    0 -0.31846914445E+02  0.54860775448E+02 -0.93170078435E+02  0.11272866489E+03  0.17770000000E+01 0. -1.
         15    1    3    3    0    0  0.28512527973E+02 -0.69766371865E+01 -0.11395006144E+03  0.11768352455E+03  0.17770000000E+01 0.  1.
</event>
<event>
 7    1  0.4133533E-006  0.5138039E+03  0.7546771E-02  0.9369441E-01
        -11   -1    0    0    0    0  0.00000000000E+00  0.00000000000E+00  0.50000000000E+03  0.50000000000E+03  0.00000000000E+00 0. -1.
         11   -1    0    0    0    0 -0.00000000000E+00 -0.00000000000E+00 -0.50000000000E+03  0.50000000000E+03  0.00000000000E+00 0.  1.
         23    2    1    2    0    0  0.78217355449E+01  0.22008472916E+02 -0.25603111617E+03  0.27423203288E+03  0.95423912012E+02 0.  0.
        -11    1    1    2    0    0  0.79616834644E+02 -0.23163629578E+02  0.47907334248E+03  0.48619611431E+03  0.00000000000E+00 0. -1.
         11    1    1    2    0    0 -0.87438570189E+02  0.11551566621E+01 -0.22304222630E+03  0.23957185281E+03  0.00000000000E+00 0.  1.
        -15    1    3    3    0    0 -0.24768333529E+02  0.29857524690E+02 -0.22561507737E+03  0.22893287879E+03  0.17770000000E+01 0.  1.
         15    1    3    3    0    0  0.32590069074E+02 -0.78490517740E+01 -0.30416038805E+02  0.45299154094E+02  0.17770000000E+01 0. -1.
</event>
<event>
 7    1  0.4133533E-006  0.3568655E+03  0.7546771E-02  0.9793206E-01
        -11   -1    0    0    0    0  0.00000000000E+00  0.00000000000E+00  0.50000000000E+03  0.50000000000E+03  0.00000000000E+00 0. -1.
         11   -1    0    0    0    0 -0.00000000000E+00 -0.00000000000E+00 -0.50000000000E+03  0.50000000000E+03  0.00000000000E+00 0. -1.
         23    2    1    2    0    0 -0.14626505336E+03  0.49046450945E+02 -0.17232026136E+03  0.24972987124E+03  0.94189786762E+02 0.  0.
        -11    1    1    2    0    0 -0.11749763279E+03 -0.97928573054E+02  0.38090251514E+03  0.41046610721E+03  0.00000000000E+00 0. -1.
         11    1    1    2    0    0  0.26376268615E+03  0.48882122109E+02 -0.20858225378E+03  0.33980402155E+03  0.00000000000E+00 0. -1.
        -15    1    3    3    0    0 -0.33879570570E+02  0.33769737131E+02 -0.11077748894E+03  0.12067738078E+03  0.17770000000E+01 0.  1.
         15    1    3    3    0    0 -0.11238548279E+03  0.15276713814E+02 -0.61542772417E+02  0.12905249046E+03  0.17770000000E+01 0. -1.
</event>
<event>
 7    1  0.4133533E-006  0.5303684E+03  0.7546771E-02  0.9334310E-01
        -11   -1    0    0    0    0  0.00000000000E+00  0.00000000000E+00  0.50000000000E+03  0.50000000000E+03  0.00000000000E+00 0.  1.
         11   -1    0    0    0    0 -0.00000000000E+00 -0.00000000000E+00 -0.50000000000E+03  0.50000000000E+03  0.00000000000E+00 0. -1.
         23    2    1    2    0    0 -0.67531368724E+01 -0.22221446767E+02  0.23136559766E+03  0.25169360129E+03  0.96333958694E+02 0.  0.
        -11    1    1    2    0    0  0.59386599342E+02  0.17293522549E+03  0.21030046504E+03  0.27867480329E+03  0.00000000000E+00 0.  1.
         11    1    1    2    0    0 -0.52633462469E+02 -0.15071377872E+03 -0.44166606270E+03  0.46963159541E+03  0.00000000000E+00 0. -1.
        -15    1    3    3    0    0 -0.22637666978E+02  0.21617308191E+02  0.17827911790E+03  0.18101484356E+03  0.17770000000E+01 0.  1.
         15    1    3    3    0    0  0.15884530106E+02 -0.43838754958E+02  0.53086479759E+02  0.70678757737E+02  0.17770000000E+01 0. -1.
</event>
<event>
 7    1  0.4133533E-006  0.3701234E+03  0.7546771E-02  0.9749044E-01
        -11   -1    0    0    0    0  0.00000000000E+00  0.00000000000E+00  0.50000000000E+03  0.50000000000E+03  0.00000000000E+00 0.  1.
         11   -1    0    0    0    0 -0.00000000000E+00 -0.00000000000E+00 -0.50000000000E+03  0.50000000000E+03  0.00000000000E+00 0. -1.
         23    2    1    2    0    0  0.25825702619E+02 -0.20192223240E+03 -0.60333284610E+02  0.22990594899E+03  0.88187784278E+02 0.  0.
        -11    1    1    2    0    0  0.10502877626E+03  0.56547448773E+02  0.37836902824E+03  0.39672632801E+03  0.00000000000E+00 0.  1.
         11    1    1    2    0    0 -0.13085447888E+03  0.14537478362E+03 -0.31803574363E+03  0.37336772300E+03  0.00000000000E+00 0. -1.
        -15    1    3    3    0    0  0.34051004263E+02 -0.15688893879E+03 -0.80790944760E+02  0.17973298109E+03  0.17770000000E+01 0. -1.
         15    1    3    3    0    0 -0.82253016440E+01 -0.45033293604E+02  0.20457660149E+02  0.50172967899E+02  0.17770000000E+01 0.  1.
</event>
