<event>
 6    1  0.3068779E-006  0.9311536E+03  0.7546771E-02  0.8752842E-01
        -11   -1    0    0    0    0  0.00000000000E+00  0.00000000000E+00  0.50000000000E+03  0.50000000000E+03  0.00000000000E+00 0. -1.
         11   -1    0    0    0    0 -0.00000000000E+00 -0.00000000000E+00 -0.50000000000E+03  0.50000000000E+03  0.00000000000E+00 0.  1.
        -11    1    1    2    0    0 -0.49136429807E+02 -0.37705914201E+02  0.20683449035E+02  0.65298773066E+02  0.00000000000E+00 0.  1.
         11    1    1    2    0    0 -0.18381205614E+01 -0.29818823982E+01  0.56124451465E+00  0.35475773762E+01  0.00000000000E+00 0. -1.
        -15    1    1    2    0    0 -0.35113204995E+03  0.26297956128E+03 -0.13277135383E+03  0.45834850963E+03  0.17770000000E+01 0. -1.
         15    1    1    2    0    0  0.40210660032E+03 -0.22229176468E+03  0.11152666028E+03  0.47280513993E+03  0.17770000000E+01 0.  1.
</event>
<event>
 6    1  0.3068779E-006  0.9479227E+03  0.7546771E-02  0.8735605E-01
        -11   -1    0    0    0    0  0.00000000000E+00  0.00000000000E+00  0.50000000000E+03  0.50000000000E+03  0.00000000000E+00 0. -1.
         11   -1    0    0    0    0 -0.00000000000E+00 -0.00000000000E+00 -0.50000000000E+03  0.50000000000E+03  0.00000000000E+00 0.  1.
        -11    1    1    2    0    0  0.23288602461E+01 -0.30877533051E+01 -0.62719263755E+01  0.73685053422E+01  0.00000000000E+00 0.  1.
         11    1    1    2    0    0  0.26723786618E+02  0.35867767496E+02  0.62583626457E+00  0.44733088284E+02  0.00000000000E+00 0. -1.
        -15    1    1    2    0    0 -0.78261917852E+02  0.44620975980E+03 -0.76467732978E+02  0.45943285630E+03  0.17770000000E+01 0. -1.
         15    1    1    2    0    0  0.49209270988E+02 -0.47898977399E+03  0.82113823089E+02  0.48846555008E+03  0.17770000000E+01 0.  1.
</event>
<event>
 6    1  0.3068779E-006  0.1000000E+04  0.7546771E-02  0.8684367E-01
        -11   -1    0    0    0    0  0.00000000000E+00  0.00000000000E+00  0.50000000000E+03  0.50000000000E+03  0.00000000000E+00 0. -1.
         11   -1    0    0    0    0 -0.00000000000E+00 -0.00000000000E+00 -0.50000000000E+03  0.50000000000E+03  0.00000000000E+00 0.  1.
        -11    1    1    2    0    0  0.25631630607E+01  0.20569238759E+01  0.34415673671E+01  0.47586895937E+01  0.00000000000E+00 0.  1.
         11    1    1    2    0    0  0.42575554635E+02 -0.38915126845E+02  0.38673440001E+03  0.39101222628E+03  0.00000000000E+00 0. -1.
        -15    1    1    2    0    0  0.14356140224E+03  0.56268610958E+02  0.16892304762E+02  0.15512749750E+03  0.17770000000E+01 0. -1.
         15    1    1    2    0    0 -0.18870011993E+03 -0.19410407989E+02 -0.40706827214E+03  0.44910158663E+03  0.17770000000E+01 0.  1.
</event>
<event>
 6    1  0.3068779E-006  0.1000000E+04  0.7546771E-02  0.8684367E-01
        -11   -1    0    0    0    0  0.00000000000E+00  0.00000000000E+00  0.50000000000E+03  0.50000000000E+03  0.00000000000E+00 0.  1.
         11   -1    0    0    0    0 -0.00000000000E+00 -0.00000000000E+00 -0.50000000000E+03  0.50000000000E+03  0.00000000000E+00 0. -1.
        -11    1    1    2    0    0  0.23540730300E+01  0.34303563457E+01 -0.13406653484E+02  0.14037355952E+02  0.00000000000E+00 0.  1.
         11    1    1    2    0    0 -0.35840063106E+00 -0.98649005731E+00 -0.57819068461E+01  0.58763985929E+01  0.00000000000E+00 0. -1.
        -15    1    1    2    0    0  0.33674882835E+03 -0.20424603654E+03 -0.28158877558E+03  0.48416073065E+03  0.17770000000E+01 0. -1.
         15    1    1    2    0    0 -0.33874450075E+03  0.20180217026E+03  0.30077733591E+03  0.49592551481E+03  0.17770000000E+01 0.  1.
</event>
<event>
 6    1  0.3068779E-006  0.9457210E+03  0.7546771E-02  0.8737847E-01
        -11   -1    0    0    0    0  0.00000000000E+00  0.00000000000E+00  0.50000000000E+03  0.50000000000E+03  0.00000000000E+00 0. -1.
         11   -1    0    0    0    0 -0.00000000000E+00 -0.00000000000E+00 -0.50000000000E+03  0.50000000000E+03  0.00000000000E+00 0.  1.
        -11    1    1    2    0    0  0.81273134311E+00 -0.13671228865E+01 -0.85662880290E+01  0.87126831584E+01  0.00000000000E+00 0. -1.
         11    1    1    2    0    0  0.91020642829E+01 -0.31539171733E+01 -0.44536489316E+02  0.45566365318E+02  0.00000000000E+00 0.  1.
        -15    1    1    2    0    0  0.22419980853E+02  0.46734235146E+03  0.10301963411E+03  0.47909052563E+03  0.17770000000E+01 0. -1.
         15    1    1    2    0    0 -0.32334776479E+02 -0.46282131140E+03 -0.49916856770E+02  0.46663042589E+03  0.17770000000E+01 0.  1.
</event>
<event>
 6    1  0.3068779E-006  0.9491747E+03  0.7546771E-02  0.8734333E-01
        -11   -1    0    0    0    0  0.00000000000E+00  0.00000000000E+00  0.50000000000E+03  0.50000000000E+03  0.00000000000E+00 0. -1.
         11   -1    0    0    0    0 -0.00000000000E+00 -0.00000000000E+00 -0.50000000000E+03  0.50000000000E+03  0.00000000000E+00 0.  1.
        -11    1    1    2    0    0 -0.26325300821E+02  0.25639637442E+02 -0.19491409953E+02  0.41597205837E+02  0.00000000000E+00 0.  1.
         11    1    1    2    0    0 -0.51414410787E+01  0.37151939814E+01 -0.67023252271E+01  0.92281225683E+01  0.00000000000E+00 0. -1.
        -15    1    1    2    0    0  0.39954787737E+03  0.22942606399E+03  0.14641526564E+03  0.48344121968E+03  0.17770000000E+01 0. -1.
         15    1    1    2    0    0 -0.36808113547E+03 -0.25878089541E+03 -0.12022153046E+03  0.46573345191E+03  0.17770000000E+01 0.  1.
</event>
<event>
 6    1  0.3068779E-006  0.8957291E+03  0.7546771E-02  0.8790538E-01
        -11   -1    0    0    0    0  0.00000000000E+00  0.00000000000E+00  0.50000000000E+03  0.50000000000E+03  0.00000000000E+00 0.  1.
         11   -1    0    0    0    0 -0.00000000000E+00 -0.00000000000E+00 -0.50000000000E+03  0.50000000000E+03  0.00000000000E+00 0. -1.
        -11    1    1    2    0    0 -0.19233165350E+01  0.13089159615E+02  0.12509646959E+02  0.18207594925E+02  0.00000000000E+00 0. -1.
         11    1    1    2    0    0 -0.16152651721E+01  0.79904249406E+00  0.86044423267E+02  0.86063292558E+02  0.00000000000E+00 0.  1.
        -15    1    1    2    0    0  0.12934233896E+03 -0.39217336114E+03  0.13405600176E+03  0.43416996116E+03  0.17770000000E+01 0.  1.
         15    1    1    2    0    0 -0.12580375725E+03  0.37828515903E+03 -0.23261007198E+03  0.46155915136E+03  0.17770000000E+01 0. -1.
</event>
<event>
 6    1  0.3068779E-006  0.9812110E+03  0.7546771E-02  0.8702469E-01
        -11   -1    0    0    0    0  0.00000000000E+00  0.00000000000E+00  0.50000000000E+03  0.50000000000E+03  0.00000000000E+00 0.  1.
         11   -1    0    0    0    0 -0.00000000000E+00 -0.00000000000E+00 -0.50000000000E+03  0.50000000000E+03  0.00000000000E+00 0. -1.
        -11    1    1    2    0    0 -0.24442140738E+01 -0.24760549601E+01  0.71805039188E+01  0.79790141705E+01  0.00000000000E+00 0. -1.
         11    1    1    2    0    0  0.16025014393E+00  0.10506830015E+01  0.10757598248E+02  0.10809973864E+02  0.00000000000E+00 0.  1.
        -15    1    1    2    0    0 -0.10016926508E+03 -0.47100691470E+03  0.79526397842E+02  0.48806659488E+03  0.17770000000E+01 0.  1.
         15    1    1    2    0    0  0.10245322901E+03  0.47243228666E+03 -0.97464500009E+02  0.49314441708E+03  0.17770000000E+01 0. -1.
</event>
<event>
 6    1  0.3068779E-006  0.8244949E+03  0.7546771E-02  0.8872193E-01
        -11   -1    0    0    0    0  0.00000000000E+00  0.00000000000E+00  0.50000000000E+03  0.50000000000E+03  0.00000000000E+00 0.  1.
         11   -1    0    0    0    0 -0.00000000000E+00 -0.00000000000E+00 -0.50000000000E+03  0.50000000000E+03  0.00000000000E+00 0. -1.
        -11    1    1    2    0    0  0.15730465426E+03 -0.18295259234E+02  0.32918075068E+02  0.16175002451E+03  0.00000000000E+00 0. -1.
         11    1    1    2    0    0  0.10922887616E+02  0.29615110648E+01 -0.78180877813E+01  0.13755090629E+02  0.00000000000E+00 0.  1.
        -15    1    1    2    0    0  0.55329532639E+02  0.36175530755E+03  0.12348947800E+03  0.38623965181E+03  0.17770000000E+01 0.  1.
         15    1    1    2    0    0 -0.22355707452E+03 -0.34642155938E+03 -0.14858946529E+03  0.43825523305E+03  0.17770000000E+01 0. -1.
</event>
<event>
 6    1  0.3068779E-006  0.8053281E+03  0.7546771E-02  0.8895652E-01
        -11   -1    0    0    0    0  0.00000000000E+00  0.00000000000E+00  0.50000000000E+03  0.50000000000E+03  0.00000000000E+00 0. -1.
         11   -1    0    0    0    0 -0.00000000000E+00 -0.00000000000E+00 -0.50000000000E+03  0.50000000000E+03  0.00000000000E+00 0. -1.
        -11    1    1    2    0    0 -0.55091178962E+01 -0.36553989155E+01  0.15268343902E+01  0.67855393655E+01  0.00000000000E+00 0. -1.
         11    1    1    2    0    0  0.12789758088E+03  0.62857975946E+02  0.12355031073E+03  0.18860963818E+03  0.00000000000E+00 0. -1.
        -15    1    1    2    0    0 -0.43914724920E+03 -0.15153009513E+03 -0.84375175702E+02  0.47215887603E+03  0.17770000000E+01 0. -1.
         15    1    1    2    0    0  0.31675878622E+03  0.92327518100E+02 -0.40701969414E+02  0.33244594642E+03  0.17770000000E+01 0.  1.
</event>
<event>
 6    1  0.3068779E-006  0.1000000E+04  0.7546771E-02  0.8684367E-01
        -11   -1    0    0    0    0  0.00000000000E+00  0.00000000000E+00  0.50000000000E+03  0.50000000000E+03  0.00000000000E+00 0.  1.
         11   -1    0    0    0    0 -0.00000000000E+00 -0.00000000000E+00 -0.50000000000E+03  0.50000000000E+03  0.00000000000E+00 0. -1.
        -11    1    1    2    0    0  0.18785771934E+02 -0.26096063424E+01 -0.86917445335E+02  0.88962675185E+02  0.00000000000E+00 0.  1.
         11    1    1    2    0    0  0.55304478653E+02 -0.37969194861E+02 -0.24954070210E+03  0.25840047818E+03  0.00000000000E+00 0. -1.
        -15    1    1    2    0    0 -0.22297404027E+03  0.12827001333E+03  0.39397185372E+03  0.47051843556E+03  0.17770000000E+01 0.  1.
         15    1    1    2    0    0  0.14888378968E+03 -0.87691212129E+02 -0.57513706280E+02  0.18211841108E+03  0.17770000000E+01 0. -1.
</event>
<event>
 6    1  0.3068779E-006  0.9138128E+03  0.7546771E-02  0.8771071E-01
        -11   -1    0    0    0    0  0.00000000000E+00  0.00000000000E+00  0.50000000000E+03  0.50000000000E+03  0.00000000000E+00 0.  1.
         11   -1    0    0    0    0 -0.00000000000E+00 -0.00000000000E+00 -0.50000000000E+03  0.50000000000E+03  0.00000000000E+00 0. -1.
        -11    1    1    2    0    0  0.11598166298E+02  0.27718260904E+02  0.70387021582E+02  0.76532034183E+02  0.00000000000E+00 0. -1.
         11    1    1    2    0    0  0.16604671740E+01  0.20498727876E+01  0.92877577776E+01  0.96551320144E+01  0.00000000000E+00 0.  1.
        -15    1    1    2    0    0  0.39112009628E+03 -0.21766220445E+03 -0.12733526368E+03  0.46536995183E+03  0.17770000000E+01 0. -1.
         15    1    1    2    0    0 -0.40437872975E+03  0.18789407076E+03  0.47660484318E+02  0.44844288198E+03  0.17770000000E+01 0.  1.
</event>
<event>
 6    1  0.3068779E-006  0.9374060E+03  0.7546771E-02  0.8746371E-01
        -11   -1    0    0    0    0  0.00000000000E+00  0.00000000000E+00  0.50000000000E+03  0.50000000000E+03  0.00000000000E+00 0.  1.
         11   -1    0    0    0    0 -0.00000000000E+00 -0.00000000000E+00 -0.50000000000E+03  0.50000000000E+03  0.00000000000E+00 0. -1.
        -11    1    1    2    0    0 -0.66988815790E+00  0.52043917211E+00  0.93151783058E+01  0.93537240683E+01  0.00000000000E+00 0. -1.
         11    1    1    2    0    0 -0.11871017651E+01 -0.40614181785E+00  0.53225523151E+02  0.53240308757E+02  0.00000000000E+00 0.  1.
        -15    1    1    2    0    0 -0.14311031816E+03 -0.41658533885E+03  0.12548439504E+03  0.45801026062E+03  0.17770000000E+01 0.  1.
         15    1    1    2    0    0  0.14496730808E+03  0.41647104150E+03 -0.18802509649E+03  0.47939570655E+03  0.17770000000E+01 0. -1.
</event>
<event>
 6    1  0.3068779E-006  0.1000000E+04  0.7546771E-02  0.8684367E-01
        -11   -1    0    0    0    0  0.00000000000E+00  0.00000000000E+00  0.50000000000E+03  0.50000000000E+03  0.00000000000E+00 0.  1.
         11   -1    0    0    0    0 -0.00000000000E+00 -0.00000000000E+00 -0.50000000000E+03  0.50000000000E+03  0.00000000000E+00 0. -1.
        -11    1    1    2    0    0  0.63694251525E+02  0.38217955977E+02 -0.59692640156E+02  0.95293132623E+02  0.00000000000E+00 0.  1.
         11    1    1    2    0    0  0.10006243270E+03 -0.63176838104E+02 -0.16767928709E+03  0.20523193374E+03  0.00000000000E+00 0. -1.
        -15    1    1    2    0    0  0.21064838642E+03 -0.18527404577E+02 -0.66334341526E+02  0.22162899183E+03  0.17770000000E+01 0. -1.
         15    1    1    2    0    0 -0.37440507065E+03  0.43486286704E+02  0.29370626877E+03  0.47784594181E+03  0.17770000000E+01 0.  1.
</event>
<event>
 6    1  0.3068779E-006  0.1000000E+04  0.7546771E-02  0.8684367E-01
        -11   -1    0    0    0    0  0.00000000000E+00  0.00000000000E+00  0.50000000000E+03  0.50000000000E+03  0.00000000000E+00 0. -1.
         11   -1    0    0    0    0 -0.00000000000E+00 -0.00000000000E+00 -0.50000000000E+03  0.50000000000E+03  0.00000000000E+00 0.  1.
        -11    1    1    2    0    0 -0.17283214768E+01 -0.13699242777E+01  0.22459603627E+01  0.31477175230E+01  0.00000000000E+00 0. -1.
         11    1    1    2    0    0  0.28987092518E+00 -0.55229207978E+01  0.93155883425E+01  0.10833598915E+02  0.00000000000E+00 0.  1.
        -15    1    1    2    0    0 -0.12380021070E+03 -0.48495311895E+02 -0.47994462561E+03  0.49802438578E+03  0.17770000000E+01 0.  1.
         15    1    1    2    0    0  0.12523866125E+03  0.55388156970E+02  0.46838307691E+03  0.48799429778E+03  0.17770000000E+01 0. -1.
</event>
<event>
 6    1  0.3068779E-006  0.4496130E+03  0.7546771E-02  0.9520198E-01
        -11   -1    0    0    0    0  0.00000000000E+00  0.00000000000E+00  0.50000000000E+03  0.50000000000E+03  0.00000000000E+00 0.  1.
         11   -1    0    0    0    0 -0.00000000000E+00 -0.00000000000E+00 -0.50000000000E+03  0.50000000000E+03  0.00000000000E+00 0. -1.
        -11    1    1    2    0    0  0.44099267968E+00 -0.16482659125E+01 -0.11277146978E+00  0.17099627090E+01  0.00000000000E+00 0.  1.
         11    1    1    2    0    0  0.66881271917E+02 -0.21518801818E+02 -0.62561898048E+02  0.94075259512E+02  0.00000000000E+00 0. -1.
        -15    1    1    2    0    0 -0.83151383518E+02  0.81317617666E+02  0.47421965205E+03  0.48827670807E+03  0.17770000000E+01 0.  1.
         15    1    1    2    0    0  0.15829118921E+02 -0.58150549936E+02 -0.41154498253E+03  0.41593806971E+03  0.17770000000E+01 0. -1.
</event>
<event>
 6    1  0.3068779E-006  0.1000000E+04  0.7546771E-02  0.8684367E-01
        -11   -1    0    0    0    0  0.00000000000E+00  0.00000000000E+00  0.50000000000E+03  0.50000000000E+03  0.00000000000E+00 0. -1.
         11   -1    0    0    0    0 -0.00000000000E+00 -0.00000000000E+00 -0.50000000000E+03  0.50000000000E+03  0.00000000000E+00 0.  1.
        -11    1    1    2    0    0 -0.77018421287E+01 -0.32156224919E+01 -0.22869224221E+02  0.24344609601E+02  0.00000000000E+00 0. -1.
         11    1    1    2    0    0  0.98363298633E+00 -0.62233379797E+01 -0.30840004071E+02  0.31477028459E+02  0.00000000000E+00 0.  1.
        -15    1    1    2    0    0  0.21924168929E+03  0.25307528680E+03 -0.31086600361E+03  0.45689697858E+03  0.17770000000E+01 0.  1.
         15    1    1    2    0    0 -0.21252348014E+03 -0.24363632632E+03  0.36457523191E+03  0.48728138336E+03  0.17770000000E+01 0. -1.
</event>
<event>
 6    1  0.3068779E-006  0.1000000E+04  0.7546771E-02  0.8684367E-01
        -11   -1    0    0    0    0  0.00000000000E+00  0.00000000000E+00  0.50000000000E+03  0.50000000000E+03  0.00000000000E+00 0. -1.
         11   -1    0    0    0    0 -0.00000000000E+00 -0.00000000000E+00 -0.50000000000E+03  0.50000000000E+03  0.00000000000E+00 0.  1.
        -11    1    1    2    0    0  0.54526243164E+01 -0.14247360912E+02 -0.24484448617E+02  0.28847991766E+02  0.00000000000E+00 0.  1.
         11    1    1    2    0    0  0.14707264133E+01 -0.18435716834E+01 -0.53035907287E+01  0.58042973177E+01  0.00000000000E+00 0. -1.
        -15    1    1    2    0    0 -0.31477930034E+03  0.23815042007E+03  0.30304187772E+03  0.49763356788E+03  0.17770000000E+01 0. -1.
         15    1    1    2    0    0  0.30785594961E+03 -0.22205948748E+03 -0.27325383837E+03  0.46771414304E+03  0.17770000000E+01 0.  1.
</event>
<event>
 6    1  0.3068779E-006  0.1000000E+04  0.7546771E-02  0.8684367E-01
        -11   -1    0    0    0    0  0.00000000000E+00  0.00000000000E+00  0.50000000000E+03  0.50000000000E+03  0.00000000000E+00 0.  1.
         11   -1    0    0    0    0 -0.00000000000E+00 -0.00000000000E+00 -0.50000000000E+03  0.50000000000E+03  0.00000000000E+00 0. -1.
        -11    1    1    2    0    0 -0.46079955323E+02 -0.87327708948E+01 -0.47928655634E+02  0.67058031592E+02  0.00000000000E+00 0.  1.
         11    1    1    2    0    0 -0.39008084395E+02 -0.30611603302E+02 -0.41761307995E+02  0.64828294365E+02  0.00000000000E+00 0. -1.
        -15    1    1    2    0    0  0.22447934531E+03  0.12176973268E+03  0.42495077216E+03  0.49578741488E+03  0.17770000000E+01 0.  1.
         15    1    1    2    0    0 -0.13939130559E+03 -0.82425358478E+02 -0.33526080853E+03  0.37232625916E+03  0.17770000000E+01 0. -1.
</event>
<event>
 6    1  0.3068779E-006  0.4914627E+03  0.7546771E-02  0.9419118E-01
        -11   -1    0    0    0    0  0.00000000000E+00  0.00000000000E+00  0.50000000000E+03  0.50000000000E+03  0.00000000000E+00 0.  1.
         11   -1    0    0    0    0 -0.00000000000E+00 -0.00000000000E+00 -0.50000000000E+03  0.50000000000E+03  0.00000000000E+00 0. -1.
        -11    1    1    2    0    0  0.45044145278E+01  0.30584850457E+00 -0.35834550571E+01  0.57640648584E+01  0.00000000000E+00 0.  1.
         11    1    1    2    0    0 -0.17581669267E+01 -0.24494794155E+01 -0.10785740473E+02  0.11199254346E+02  0.00000000000E+00 0. -1.
        -15    1    1    2    0    0  0.29080570230E+02  0.23440879733E+03  0.43869844876E+03  0.49824958656E+03  0.17770000000E+01 0.  1.
         15    1    1    2    0    0 -0.31826817831E+02 -0.23226516642E+03 -0.42432925323E+03  0.48478709424E+03  0.17770000000E+01 0. -1.
</event>
<event>
 6    1  0.3068779E-006  0.7981376E+03  0.7546771E-02  0.8904630E-01
        -11   -1    0    0    0    0  0.00000000000E+00  0.00000000000E+00  0.50000000000E+03  0.50000000000E+03  0.00000000000E+00 0.  1.
         11   -1    0    0    0    0 -0.00000000000E+00 -0.00000000000E+00 -0.50000000000E+03  0.50000000000E+03  0.00000000000E+00 0. -1.
        -11    1    1    2    0    0  0.89436745953E+01  0.54817799392E+01 -0.83296355656E+02  0.83954285729E+02  0.00000000000E+00 0.  1.
         11    1    1    2    0    0 -0.21846212126E+02  0.24997657708E+02 -0.11313789594E+03  0.11790811411E+03  0.00000000000E+00 0. -1.
        -15    1    1    2    0    0  0.33754218064E+03 -0.72009939372E+02 -0.97056228466E+02  0.35852925166E+03  0.17770000000E+01 0.  1.
         15    1    1    2    0    0 -0.32463964311E+03  0.41530501724E+02  0.29349048006E+03  0.43960834850E+03  0.17770000000E+01 0. -1.
</event>
<event>
 6    1  0.3068779E-006  0.8942491E+03  0.7546771E-02  0.8792152E-01
        -11   -1    0    0    0    0  0.00000000000E+00  0.00000000000E+00  0.50000000000E+03  0.50000000000E+03  0.00000000000E+00 0.  1.
         11   -1    0    0    0    0 -0.00000000000E+00 -0.00000000000E+00 -0.50000000000E+03  0.50000000000E+03  0.00000000000E+00 0. -1.
        -11    1    1    2    0    0 -0.13635788264E+01  0.36567393543E-01 -0.24526882330E+01  0.28064860517E+01  0.00000000000E+00 0. -1.
         11    1    1    2    0    0 -0.48836950244E+02  0.62464105244E+02 -0.65656261134E+02  0.10294443540E+03  0.00000000000E+00 0.  1.
        -15    1    1    2    0    0 -0.27273490051E+03 -0.34470263737E+03  0.13583957257E+03  0.46006497517E+03  0.17770000000E+01 0.  1.
         15    1    1    2    0    0  0.32293542959E+03  0.28220196474E+03 -0.67730623202E+02  0.43418410338E+03  0.17770000000E+01 0. -1.
</event>
<event>
 6    1  0.3068779E-006  0.9787478E+03  0.7546771E-02  0.8704873E-01
        -11   -1    0    0    0    0  0.00000000000E+00  0.00000000000E+00  0.50000000000E+03  0.50000000000E+03  0.00000000000E+00 0.  1.
         11   -1    0    0    0    0 -0.00000000000E+00 -0.00000000000E+00 -0.50000000000E+03  0.50000000000E+03  0.00000000000E+00 0. -1.
        -11    1    1    2    0    0 -0.13966245529E+02 -0.36195951835E+01 -0.82132751161E+01  0.16601667735E+02  0.00000000000E+00 0. -1.
         11    1    1    2    0    0 -0.13939639599E+01  0.39253814871E+01 -0.19933242981E+01  0.46179104688E+01  0.00000000000E+00 0.  1.
        -15    1    1    2    0    0  0.33009209017E+03 -0.25959865524E+03  0.26628297903E+03  0.49725449464E+03  0.17770000000E+01 0.  1.
         15    1    1    2    0    0 -0.31473188068E+03  0.25929286894E+03 -0.25607637961E+03  0.48152592715E+03  0.17770000000E+01 0. -1.
</event>
<event>
 6    1  0.3068779E-006  0.1000000E+04  0.7546771E-02  0.8684367E-01
        -11   -1    0    0    0    0  0.00000000000E+00  0.00000000000E+00  0.50000000000E+03  0.50000000000E+03  0.00000000000E+00 0. -1.
         11   -1    0    0    0    0 -0.00000000000E+00 -0.00000000000E+00 -0.50000000000E+03  0.50000000000E+03  0.00000000000E+00 0.  1.
        -11    1    1    2    0    0 -0.88625702917E-01  0.65103324786E+00  0.73346627833E+00  0.98471903936E+00  0.00000000000E+00 0.  1.
         11    1    1    2    0    0 -0.50094508127E+01 -0.23558108149E+01  0.10127347735E+02  0.11541560301E+02  0.00000000000E+00 0. -1.
        -15    1    1    2    0    0 -0.26829760956E+03 -0.19189507469E+03  0.35961718188E+03  0.48799078088E+03  0.17770000000E+01 0. -1.
         15    1    1    2    0    0  0.27339568608E+03  0.19359985226E+03 -0.37047799590E+03  0.49948293978E+03  0.17770000000E+01 0.  1.
</event>
<event>
 6    1  0.3068779E-006  0.4621079E+03  0.7546771E-02  0.9488831E-01
        -11   -1    0    0    0    0  0.00000000000E+00  0.00000000000E+00  0.50000000000E+03  0.50000000000E+03  0.00000000000E+00 0.  1.
         11   -1    0    0    0    0 -0.00000000000E+00 -0.00000000000E+00 -0.50000000000E+03  0.50000000000E+03  0.00000000000E+00 0. -1.
        -11    1    1    2    0    0  0.29908314282E+02  0.12915378633E+02  0.21813976943E+02  0.39206681299E+02  0.00000000000E+00 0.  1.
         11    1    1    2    0    0  0.18836426967E+02 -0.29299798203E+02 -0.29292545535E+01  0.34955252651E+02  0.00000000000E+00 0. -1.
        -15    1    1    2    0    0 -0.35633190479E+03  0.77659280633E+02 -0.32432214390E+03  0.48804856417E+03  0.17770000000E+01 0. -1.
         15    1    1    2    0    0  0.30758716354E+03 -0.61274861063E+02  0.30543742151E+03  0.43778950188E+03  0.17770000000E+01 0.  1.
</event>
<event>
 6    1  0.3068779E-006  0.7168474E+03  0.7546771E-02  0.9013613E-01
        -11   -1    0    0    0    0  0.00000000000E+00  0.00000000000E+00  0.50000000000E+03  0.50000000000E+03  0.00000000000E+00 0.  1.
         11   -1    0    0    0    0 -0.00000000000E+00 -0.00000000000E+00 -0.50000000000E+03  0.50000000000E+03  0.00000000000E+00 0. -1.
        -11    1    1    2    0    0  0.24016085663E+02 -0.12663686416E+01 -0.76409306985E+02  0.80104670613E+02  0.00000000000E+00 0. -1.
         11    1    1    2    0    0 -0.60853543760E+01 -0.10514543699E+03 -0.17359686576E+03  0.20304794079E+03  0.00000000000E+00 0.  1.
        -15    1    1    2    0    0 -0.28467077851E+03  0.21902554296E+03  0.44813896052E+02  0.36196834615E+03  0.17770000000E+01 0.  1.
         15    1    1    2    0    0  0.26674004722E+03 -0.11261373733E+03  0.20519227669E+03  0.35487904245E+03  0.17770000000E+01 0. -1.
</event>
<event>
 6    1  0.3068779E-006  0.1000000E+04  0.7546771E-02  0.8684367E-01
        -11   -1    0    0    0    0  0.00000000000E+00  0.00000000000E+00  0.50000000000E+03  0.50000000000E+03  0.00000000000E+00 0. -1.
         11   -1    0    0    0    0 -0.00000000000E+00 -0.00000000000E+00 -0.50000000000E+03  0.50000000000E+03  0.00000000000E+00 0.  1.
        -11    1    1    2    0    0  0.64290820639E+00 -0.28331685680E+00 -0.12068529472E+02  0.12088962033E+02  0.00000000000E+00 0. -1.
         11    1    1    2    0    0  0.27070562192E+02 -0.31226594409E+01 -0.25429643782E+03  0.25575231109E+03  0.00000000000E+00 0.  1.
        -15    1    1    2    0    0  0.95776080803E+02  0.13748353606E+03  0.44587388322E+03  0.47632075097E+03  0.17770000000E+01 0. -1.
         15    1    1    2    0    0 -0.12348955120E+03 -0.13407755976E+03 -0.17950891593E+03  0.25583797590E+03  0.17770000000E+01 0.  1.
</event>
<event>
 6    1  0.3068779E-006  0.1000000E+04  0.7546771E-02  0.8684367E-01
        -11   -1    0    0    0    0  0.00000000000E+00  0.00000000000E+00  0.50000000000E+03  0.50000000000E+03  0.00000000000E+00 0. -1.
         11   -1    0    0    0    0 -0.00000000000E+00 -0.00000000000E+00 -0.50000000000E+03  0.50000000000E+03  0.00000000000E+00 0.  1.
        -11    1    1    2    0    0  0.34027541022E+02 -0.38812087202E+02  0.37778939737E+02  0.63964833687E+02  0.00000000000E+00 0. -1.
         11    1    1    2    0    0 -0.35477864555E+01 -0.72726548546E+01  0.41936092035E+01  0.91139813210E+01  0.00000000000E+00 0.  1.
        -15    1    1    2    0    0 -0.28788283367E+03  0.60736911118E+02 -0.39327785076E+03  0.49115794193E+03  0.17770000000E+01 0. -1.
         15    1    1    2    0    0  0.25740307910E+03 -0.14652169061E+02  0.35130530182E+03  0.43576324306E+03  0.17770000000E+01 0.  1.
</event>
<event>
 6    1  0.3068779E-006  0.4588835E+03  0.7546771E-02  0.9496824E-01
        -11   -1    0    0    0    0  0.00000000000E+00  0.00000000000E+00  0.50000000000E+03  0.50000000000E+03  0.00000000000E+00 0.  1.
         11   -1    0    0    0    0 -0.00000000000E+00 -0.00000000000E+00 -0.50000000000E+03  0.50000000000E+03  0.00000000000E+00 0. -1.
        -11    1    1    2    0    0 -0.25338993052E+02 -0.13636332504E+02  0.67070799130E+02  0.72982917378E+02  0.00000000000E+00 0. -1.
         11    1    1    2    0    0 -0.47127354180E+01 -0.38783005743E+01  0.39858581909E+00  0.61163682950E+01  0.00000000000E+00 0.  1.
        -15    1    1    2    0    0 -0.74854390547E+02 -0.23672910809E+03  0.34505113828E+03  0.42509680798E+03  0.17770000000E+01 0.  1.
         15    1    1    2    0    0  0.10490611902E+03  0.25424374116E+03 -0.41252052323E+03  0.49580390634E+03  0.17770000000E+01 0. -1.
</event>
<event>
 6    1  0.3068779E-006  0.9632103E+03  0.7546771E-02  0.8720213E-01
        -11   -1    0    0    0    0  0.00000000000E+00  0.00000000000E+00  0.50000000000E+03  0.50000000000E+03  0.00000000000E+00 0. -1.
         11   -1    0    0    0    0 -0.00000000000E+00 -0.00000000000E+00 -0.50000000000E+03  0.50000000000E+03  0.00000000000E+00 0.  1.
        -11    1    1    2    0    0 -0.14615397390E+02  0.13257609061E+02 -0.30283029901E+02  0.36144652977E+02  0.00000000000E+00 0.  1.
         11    1    1    2    0    0 -0.56166787249E+00  0.29182431014E+00  0.29784058904E-01  0.63365551930E+00  0.00000000000E+00 0. -1.
        -15    1    1    2    0    0  0.23141257102E+03 -0.28538076885E+03  0.33793343596E+03  0.49919547887E+03  0.17770000000E+01 0. -1.
         15    1    1    2    0    0 -0.21623550575E+03  0.27183133548E+03 -0.30768019012E+03  0.46402621264E+03  0.17770000000E+01 0.  1.
</event>
<event>
 6    1  0.3068779E-006  0.4890039E+03  0.7546771E-02  0.9424756E-01
        -11   -1    0    0    0    0  0.00000000000E+00  0.00000000000E+00  0.50000000000E+03  0.50000000000E+03  0.00000000000E+00 0. -1.
         11   -1    0    0    0    0 -0.00000000000E+00 -0.00000000000E+00 -0.50000000000E+03  0.50000000000E+03  0.00000000000E+00 0.  1.
        -11    1    1    2    0    0  0.21680178886E+01  0.69352744351E+00 -0.33356886851E+01  0.40383289718E+01  0.00000000000E+00 0. -1.
         11    1    1    2    0    0 -0.72473916621E+01  0.92294930550E+01 -0.13315632987E+02  0.17748642477E+02  0.00000000000E+00 0.  1.
        -15    1    1    2    0    0 -0.88792870429E+02 -0.14700719894E+03 -0.45064045390E+03  0.48226057977E+03  0.17770000000E+01 0.  1.
         15    1    1    2    0    0  0.93872244203E+02  0.13708417844E+03  0.46729177557E+03  0.49595244878E+03  0.17770000000E+01 0. -1.
</event>
<event>
 6    1  0.3068779E-006  0.1000000E+04  0.7546771E-02  0.8684367E-01
        -11   -1    0    0    0    0  0.00000000000E+00  0.00000000000E+00  0.50000000000E+03  0.50000000000E+03  0.00000000000E+00 0.  1.
         11   -1    0    0    0    0 -0.00000000000E+00 -0.00000000000E+00 -0.50000000000E+03  0.50000000000E+03  0.00000000000E+00 0. -1.
        -11    1    1    2    0    0 -0.35044121379E+01 -0.69498444308E+01 -0.13318017549E+02  0.15425655042E+02  0.00000000000E+00 0. -1.
         11    1    1    2    0    0 -0.19597465525E+01 -0.26707434434E+00 -0.30829379974E+01  0.36628461545E+01  0.00000000000E+00 0.  1.
        -15    1    1    2    0    0 -0.16674557282E+03  0.29643376596E+03  0.36321834492E+03  0.49760203725E+03  0.17770000000E+01 0.  1.
         15    1    1    2    0    0  0.17220973151E+03 -0.28921684719E+03 -0.34681738938E+03  0.48330946155E+03  0.17770000000E+01 0. -1.
</event>
<event>
 6    1  0.3068779E-006  0.9348014E+03  0.7546771E-02  0.8749060E-01
        -11   -1    0    0    0    0  0.00000000000E+00  0.00000000000E+00  0.50000000000E+03  0.50000000000E+03  0.00000000000E+00 0.  1.
         11   -1    0    0    0    0 -0.00000000000E+00 -0.00000000000E+00 -0.50000000000E+03  0.50000000000E+03  0.00000000000E+00 0. -1.
        -11    1    1    2    0    0  0.88088061711E+01  0.25784853523E+01 -0.30023334011E+02  0.31394971540E+02  0.00000000000E+00 0. -1.
         11    1    1    2    0    0  0.47680322094E+01 -0.35884476461E+01 -0.33272726631E+02  0.33803630354E+02  0.00000000000E+00 0.  1.
        -15    1    1    2    0    0 -0.31588266797E+03  0.34792079221E+03 -0.27286434479E+01  0.46993759246E+03  0.17770000000E+01 0.  1.
         15    1    1    2    0    0  0.30230582959E+03 -0.34691082992E+03  0.66024704090E+02  0.46486380565E+03  0.17770000000E+01 0. -1.
</event>
<event>
 6    1  0.3068780E-006  0.1000000E+04  0.7546771E-02  0.8684367E-01
        -11   -1    0    0    0    0  0.00000000000E+00  0.00000000000E+00  0.50000000000E+03  0.50000000000E+03  0.00000000000E+00 0. -1.
         11   -1    0    0    0    0 -0.00000000000E+00 -0.00000000000E+00 -0.50000000000E+03  0.50000000000E+03  0.00000000000E+00 0.  1.
        -11    1    1    2    0    0  0.26925332909E+01 -0.31575329667E+01 -0.21901890080E+02  0.22291535143E+02  0.00000000000E+00 0.  1.
         11    1    1    2    0    0  0.27965802325E+01 -0.62762088999E+00 -0.14621308521E+02  0.14899578244E+02  0.00000000000E+00 0. -1.
        -15    1    1    2    0    0  0.84088337071E+02  0.34149572078E+03  0.34797417952E+03  0.49475181968E+03  0.17770000000E+01 0. -1.
         15    1    1    2    0    0 -0.89577450594E+02 -0.33771056692E+03 -0.31145098091E+03  0.46805706693E+03  0.17770000000E+01 0.  1.
</event>
<event>
 6    1  0.3068779E-006  0.9886734E+03  0.7546771E-02  0.8695229E-01
        -11   -1    0    0    0    0  0.00000000000E+00  0.00000000000E+00  0.50000000000E+03  0.50000000000E+03  0.00000000000E+00 0. -1.
         11   -1    0    0    0    0 -0.00000000000E+00 -0.00000000000E+00 -0.50000000000E+03  0.50000000000E+03  0.00000000000E+00 0.  1.
        -11    1    1    2    0    0 -0.41634258747E+01  0.62144818700E+01 -0.34329432698E+01  0.82303705518E+01  0.00000000000E+00 0. -1.
         11    1    1    2    0    0  0.21270730675E+01  0.22341771623E+01  0.10905890684E+00  0.30867266274E+01  0.00000000000E+00 0.  1.
        -15    1    1    2    0    0  0.28865536056E+03  0.22154719032E+03  0.33428904280E+03  0.49412285576E+03  0.17770000000E+01 0. -1.
         15    1    1    2    0    0 -0.28661900775E+03 -0.22999584935E+03 -0.33096515843E+03  0.49456004706E+03  0.17770000000E+01 0.  1.
</event>
<event>
 6    1  0.3068779E-006  0.9859768E+03  0.7546771E-02  0.8697838E-01
        -11   -1    0    0    0    0  0.00000000000E+00  0.00000000000E+00  0.50000000000E+03  0.50000000000E+03  0.00000000000E+00 0. -1.
         11   -1    0    0    0    0 -0.00000000000E+00 -0.00000000000E+00 -0.50000000000E+03  0.50000000000E+03  0.00000000000E+00 0.  1.
        -11    1    1    2    0    0  0.38139904111E+01  0.57939139988E+01 -0.52486022330E+01  0.86984934145E+01  0.00000000000E+00 0. -1.
         11    1    1    2    0    0 -0.32958734820E+01 -0.37242391533E+01  0.19856209929E+01  0.53549444449E+01  0.00000000000E+00 0.  1.
        -15    1    1    2    0    0  0.16517658643E+03 -0.43455383943E+03 -0.16482599570E+03  0.49324548721E+03  0.17770000000E+01 0.  1.
         15    1    1    2    0    0 -0.16569470336E+03  0.43248416458E+03  0.16808897695E+03  0.49270107493E+03  0.17770000000E+01 0. -1.
</event>
<event>
 6    1  0.3068779E-006  0.9909322E+03  0.7546771E-02  0.8693051E-01
        -11   -1    0    0    0    0  0.00000000000E+00  0.00000000000E+00  0.50000000000E+03  0.50000000000E+03  0.00000000000E+00 0. -1.
         11   -1    0    0    0    0 -0.00000000000E+00 -0.00000000000E+00 -0.50000000000E+03  0.50000000000E+03  0.00000000000E+00 0.  1.
        -11    1    1    2    0    0  0.42104134302E+01  0.18794657735E+01 -0.18472014367E+01  0.49671043873E+01  0.00000000000E+00 0. -1.
         11    1    1    2    0    0 -0.21519427559E+01  0.25569862530E+01 -0.23614748688E+01  0.40921387902E+01  0.00000000000E+00 0.  1.
        -15    1    1    2    0    0 -0.18911240328E+03 -0.37974682012E+03  0.26207425386E+03  0.49865541282E+03  0.17770000000E+01 0.  1.
         15    1    1    2    0    0  0.18705393261E+03  0.37531036810E+03 -0.25786557755E+03  0.49228534400E+03  0.17770000000E+01 0. -1.
</event>
<event>
 6    1  0.3068779E-006  0.1000000E+04  0.7546771E-02  0.8684367E-01
        -11   -1    0    0    0    0  0.00000000000E+00  0.00000000000E+00  0.50000000000E+03  0.50000000000E+03  0.00000000000E+00 0.  1.
         11   -1    0    0    0    0 -0.00000000000E+00 -0.00000000000E+00 -0.50000000000E+03  0.50000000000E+03  0.00000000000E+00 0. -1.
        -11    1    1    2    0    0 -0.40356963154E+01 -0.41158350201E+00 -0.49354087778E+01  0.63886231328E+01  0.00000000000E+00 0. -1.
         11    1    1    2    0    0 -0.19802051758E+01 -0.20464057610E+01 -0.35348386514E+01  0.45391710001E+01  0.00000000000E+00 0.  1.
        -15    1    1    2    0    0  0.39144826815E+03  0.28727537625E+03  0.11305578224E+03  0.49854152893E+03  0.17770000000E+01 0. -1.
         15    1    1    2    0    0 -0.38543236666E+03 -0.28481738698E+03 -0.10458553482E+03  0.49053067694E+03  0.17770000000E+01 0.  1.
</event>
<event>
 6    1  0.3068779E-006  0.8812214E+03  0.7546771E-02  0.8806507E-01
        -11   -1    0    0    0    0  0.00000000000E+00  0.00000000000E+00  0.50000000000E+03  0.50000000000E+03  0.00000000000E+00 0. -1.
         11   -1    0    0    0    0 -0.00000000000E+00 -0.00000000000E+00 -0.50000000000E+03  0.50000000000E+03  0.00000000000E+00 0.  1.
        -11    1    1    2    0    0 -0.45640495182E+01  0.45494535325E+01 -0.10594425552E+03  0.10614006478E+03  0.00000000000E+00 0.  1.
         11    1    1    2    0    0 -0.13037505168E+01 -0.85742079194E+00 -0.12541846441E+02  0.12638546118E+02  0.00000000000E+00 0. -1.
        -15    1    1    2    0    0  0.33007958181E+03 -0.25092993169E+03  0.20785047613E+03  0.46381390568E+03  0.17770000000E+01 0. -1.
         15    1    1    2    0    0 -0.32421178177E+03  0.24723789895E+03 -0.89364374169E+02  0.41740748342E+03  0.17770000000E+01 0.  1.
</event>
<event>
 6    1  0.4270312E-006  0.1000000E+04  0.7546771E-02  0.8684367E-01
        -11   -1    0    0    0    0  0.00000000000E+00  0.00000000000E+00  0.50000000000E+03  0.50000000000E+03  0.00000000000E+00 0.  1.
         11   -1    0    0    0    0 -0.00000000000E+00 -0.00000000000E+00 -0.50000000000E+03  0.50000000000E+03  0.00000000000E+00 0. -1.
        -11    1    1    2    0    0  0.32654419065E+01 -0.18016170225E+00  0.38513214040E+02  0.38651820459E+02  0.00000000000E+00 0.  1.
         11    1    1    2    0    0 -0.24032948317E+00  0.49080849533E+00  0.22702091712E+02  0.22708668374E+02  0.00000000000E+00 0. -1.
        -15    1    1    2    0    0  0.28473845317E+02  0.95455674137E+02 -0.48904447265E+03  0.49908937030E+03  0.17770000000E+01 0. -1.
         15    1    1    2    0    0 -0.31498957740E+02 -0.95766320930E+02  0.42782916689E+03  0.43955014087E+03  0.17770000000E+01 0.  1.
</event>
<event>
 6    1  0.3068779E-006  0.9837691E+03  0.7546771E-02  0.8699980E-01
        -11   -1    0    0    0    0  0.00000000000E+00  0.00000000000E+00  0.50000000000E+03  0.50000000000E+03  0.00000000000E+00 0.  1.
         11   -1    0    0    0    0 -0.00000000000E+00 -0.00000000000E+00 -0.50000000000E+03  0.50000000000E+03  0.00000000000E+00 0. -1.
        -11    1    1    2    0    0  0.55612494515E+00 -0.55407175229E+01 -0.11104127628E+02  0.12422176782E+02  0.00000000000E+00 0. -1.
         11    1    1    2    0    0  0.27838257645E+00  0.25161145688E+01 -0.28123872513E+01  0.37838936869E+01  0.00000000000E+00 0.  1.
        -15    1    1    2    0    0  0.35892188954E+03 -0.31919634762E+03  0.10660736336E+03  0.49201577087E+03  0.17770000000E+01 0.  1.
         15    1    1    2    0    0 -0.35975639707E+03  0.32222095058E+03 -0.92690848480E+02  0.49177815867E+03  0.17770000000E+01 0. -1.
</event>
<event>
 6    1  0.3068779E-006  0.1000000E+04  0.7546771E-02  0.8684367E-01
        -11   -1    0    0    0    0  0.00000000000E+00  0.00000000000E+00  0.50000000000E+03  0.50000000000E+03  0.00000000000E+00 0.  1.
         11   -1    0    0    0    0 -0.00000000000E+00 -0.00000000000E+00 -0.50000000000E+03  0.50000000000E+03  0.00000000000E+00 0. -1.
        -11    1    1    2    0    0  0.81797842980E+00 -0.57876574370E+01 -0.16761505008E+02  0.17751453953E+02  0.00000000000E+00 0.  1.
         11    1    1    2    0    0 -0.37269412586E+01 -0.10583566747E+02 -0.21463763496E+02  0.24219725837E+02  0.00000000000E+00 0. -1.
        -15    1    1    2    0    0 -0.18528644682E+03 -0.84183447870E+02 -0.41215010306E+03  0.45966159885E+03  0.17770000000E+01 0. -1.
         15    1    1    2    0    0  0.18819540965E+03  0.10055467205E+03  0.45037537157E+03  0.49836722136E+03  0.17770000000E+01 0.  1.
</event>
