<event>
 6    1  0.1150066E-005  0.3124151E+03  0.7546771E-02  0.9957768E-01
        -11   -1    0    0    0    0  0.00000000000E+00  0.00000000000E+00  0.18250000000E+03  0.18250000000E+03  0.00000000000E+00 0. -1.
         11   -1    0    0    0    0 -0.00000000000E+00 -0.00000000000E+00 -0.18250000000E+03  0.18250000000E+03  0.00000000000E+00 0.  1.
        -11    1    1    2    0    0 -0.70519908089E+00  0.17246699589E+01 -0.13913809181E+02  0.14038015463E+02  0.00000000000E+00 0. -1.
         11    1    1    2    0    0 -0.30690795450E+01  0.25086351369E+01 -0.38342512215E+02  0.38546864237E+02  0.00000000000E+00 0.  1.
        -15    1    1    2    0    0 -0.93143505384E+02 -0.87166704298E+02  0.11363210279E+03  0.17084835219E+03  0.17770000000E+01 0. -1.
         15    1    1    2    0    0  0.96917784010E+02  0.82933399202E+02 -0.61375781397E+02  0.14156676810E+03  0.17770000000E+01 0.  1.
</event>
<event>
 6    1  0.1150066E-005  0.3650000E+03  0.7546771E-02  0.9765871E-01
        -11   -1    0    0    0    0  0.00000000000E+00  0.00000000000E+00  0.18250000000E+03  0.18250000000E+03  0.00000000000E+00 0.  1.
         11   -1    0    0    0    0 -0.00000000000E+00 -0.00000000000E+00 -0.18250000000E+03  0.18250000000E+03  0.00000000000E+00 0. -1.
        -11    1    1    2    0    0  0.23177686393E+01  0.41462942577E+00  0.12539306425E+02  0.12758455026E+02  0.00000000000E+00 0.  1.
         11    1    1    2    0    0  0.12169350986E+01  0.47690662988E+00  0.11397266446E+02  0.11471968158E+02  0.00000000000E+00 0. -1.
        -15    1    1    2    0    0  0.68249788356E+02 -0.99580905883E+02  0.10731847414E+03  0.16153885925E+03  0.17770000000E+01 0.  1.
         15    1    1    2    0    0 -0.71784492094E+02  0.98689369827E+02 -0.13125504702E+03  0.17923071756E+03  0.17770000000E+01 0. -1.
</event>
<event>
 6    1  0.1150066E-005  0.3650000E+03  0.7546771E-02  0.9765871E-01
        -11   -1    0    0    0    0  0.00000000000E+00  0.00000000000E+00  0.18250000000E+03  0.18250000000E+03  0.00000000000E+00 0.  1.
         11   -1    0    0    0    0 -0.00000000000E+00 -0.00000000000E+00 -0.18250000000E+03  0.18250000000E+03  0.00000000000E+00 0. -1.
        -11    1    1    2    0    0 -0.67179507495E+01 -0.11965886983E+01 -0.10882934800E+02  0.12845269816E+02  0.00000000000E+00 0. -1.
         11    1    1    2    0    0 -0.25559227453E+02  0.91349692766E+01 -0.33670755478E+02  0.43248601667E+02  0.00000000000E+00 0.  1.
        -15    1    1    2    0    0  0.97417451429E+02 -0.71996014109E+02  0.13427177815E+03  0.18084704594E+03  0.17770000000E+01 0.  1.
         15    1    1    2    0    0 -0.65140273226E+02  0.64057633531E+02 -0.89718087870E+02  0.12805908257E+03  0.17770000000E+01 0. -1.
</event>
<event>
 6    1  0.1150066E-005  0.3650000E+03  0.7546771E-02  0.9765871E-01
        -11   -1    0    0    0    0  0.00000000000E+00  0.00000000000E+00  0.18250000000E+03  0.18250000000E+03  0.00000000000E+00 0.  1.
         11   -1    0    0    0    0 -0.00000000000E+00 -0.00000000000E+00 -0.18250000000E+03  0.18250000000E+03  0.00000000000E+00 0. -1.
        -11    1    1    2    0    0  0.58384898281E+00 -0.17129075679E-02 -0.41666739725E+00  0.71728257243E+00  0.00000000000E+00 0. -1.
         11    1    1    2    0    0  0.97006774510E+01  0.56665415722E+00 -0.22922436174E+01  0.99839181058E+01  0.00000000000E+00 0.  1.
        -15    1    1    2    0    0 -0.17875918163E+03 -0.23746554644E+02 -0.24737471621E+02  0.18202704223E+03  0.17770000000E+01 0.  1.
         15    1    1    2    0    0  0.16847465519E+03  0.23181613394E+02  0.27446382636E+02  0.17227175709E+03  0.17770000000E+01 0. -1.
</event>
<event>
 6    1  0.1150066E-005  0.3380383E+03  0.7546771E-02  0.9859581E-01
        -11   -1    0    0    0    0  0.00000000000E+00  0.00000000000E+00  0.18250000000E+03  0.18250000000E+03  0.00000000000E+00 0. -1.
         11   -1    0    0    0    0 -0.00000000000E+00 -0.00000000000E+00 -0.18250000000E+03  0.18250000000E+03  0.00000000000E+00 0.  1.
        -11    1    1    2    0    0 -0.11359811789E+01 -0.24474288465E+00 -0.12348528562E+00  0.11685892923E+01  0.00000000000E+00 0. -1.
         11    1    1    2    0    0 -0.56781877801E+01 -0.10531388884E+01  0.25126035087E+02  0.25781166715E+02  0.00000000000E+00 0.  1.
        -15    1    1    2    0    0 -0.99201493503E+02 -0.82112544530E+01  0.12142100184E+03  0.15701776469E+03  0.17770000000E+01 0. -1.
         15    1    1    2    0    0  0.10601566246E+03  0.95091362261E+01 -0.14642355164E+03  0.18103247930E+03  0.17770000000E+01 0.  1.
</event>
<event>
 6    1  0.1150066E-005  0.3650000E+03  0.7546771E-02  0.9765871E-01
        -11   -1    0    0    0    0  0.00000000000E+00  0.00000000000E+00  0.18250000000E+03  0.18250000000E+03  0.00000000000E+00 0.  1.
         11   -1    0    0    0    0 -0.00000000000E+00 -0.00000000000E+00 -0.18250000000E+03  0.18250000000E+03  0.00000000000E+00 0. -1.
        -11    1    1    2    0    0  0.32698982873E+00 -0.10606466138E+01 -0.35978084338E+02  0.35995200322E+02  0.00000000000E+00 0. -1.
         11    1    1    2    0    0 -0.89611610679E+00 -0.58246856131E+00 -0.12388351126E+02  0.12434369197E+02  0.00000000000E+00 0.  1.
        -15    1    1    2    0    0  0.37430887565E+02  0.53373841244E+01  0.17787394701E+03  0.18185669568E+03  0.17770000000E+01 0.  1.
         15    1    1    2    0    0 -0.36861761287E+02 -0.36942689493E+01 -0.12950751154E+03  0.13471373480E+03  0.17770000000E+01 0. -1.
</event>
<event>
 6    1  0.1150066E-005  0.3129818E+03  0.7546771E-02  0.9955488E-01
        -11   -1    0    0    0    0  0.00000000000E+00  0.00000000000E+00  0.18250000000E+03  0.18250000000E+03  0.00000000000E+00 0. -1.
         11   -1    0    0    0    0 -0.00000000000E+00 -0.00000000000E+00 -0.18250000000E+03  0.18250000000E+03  0.00000000000E+00 0.  1.
        -11    1    1    2    0    0  0.29565631744E+02 -0.16293608456E+02 -0.35412642465E+02  0.48925080513E+02  0.00000000000E+00 0.  1.
         11    1    1    2    0    0  0.34937832541E-01 -0.28903698373E+01 -0.35429708218E+00  0.29122130538E+01  0.00000000000E+00 0. -1.
        -15    1    1    2    0    0 -0.11936515733E+03  0.10260973205E+03  0.87536658590E+02  0.18011835615E+03  0.17770000000E+01 0. -1.
         15    1    1    2    0    0  0.89764587755E+02 -0.83425753753E+02 -0.51769719043E+02  0.13304435029E+03  0.17770000000E+01 0.  1.
</event>
<event>
 6    1  0.1150066E-005  0.3598196E+03  0.7546771E-02  0.9783190E-01
        -11   -1    0    0    0    0  0.00000000000E+00  0.00000000000E+00  0.18250000000E+03  0.18250000000E+03  0.00000000000E+00 0.  1.
         11   -1    0    0    0    0 -0.00000000000E+00 -0.00000000000E+00 -0.18250000000E+03  0.18250000000E+03  0.00000000000E+00 0. -1.
        -11    1    1    2    0    0 -0.19972015270E+00 -0.75017550986E+00  0.73808020386E+00  0.10711740392E+01  0.00000000000E+00 0. -1.
         11    1    1    2    0    0 -0.22743260799E+01  0.79851678867E+00  0.33280482622E+01  0.41092692069E+01  0.00000000000E+00 0.  1.
        -15    1    1    2    0    0 -0.11376256021E+03 -0.13711332806E+03 -0.20490664135E+02  0.17934606180E+03  0.17770000000E+01 0.  1.
         15    1    1    2    0    0  0.11623660644E+03  0.13706498679E+03  0.16424535669E+02  0.18047349495E+03  0.17770000000E+01 0. -1.
</event>
<event>
 6    1  0.1150066E-005  0.1680343E+03  0.7546771E-02  0.1080591E+00
        -11   -1    0    0    0    0  0.00000000000E+00  0.00000000000E+00  0.18250000000E+03  0.18250000000E+03  0.00000000000E+00 0.  1.
         11   -1    0    0    0    0 -0.00000000000E+00 -0.00000000000E+00 -0.18250000000E+03  0.18250000000E+03  0.00000000000E+00 0. -1.
        -11    1    1    2    0    0  0.96866949450E+01 -0.91312301344E+01  0.12088467991E+02  0.17981726310E+02  0.00000000000E+00 0.  1.
         11    1    1    2    0    0 -0.34954675024E+01  0.91223857525E+01 -0.46279977038E+01  0.10809929585E+02  0.00000000000E+00 0. -1.
        -15    1    1    2    0    0  0.13211498341E+03  0.31488037653E+02  0.91034310972E+02  0.16351228963E+03  0.17770000000E+01 0.  1.
         15    1    1    2    0    0 -0.13830621085E+03 -0.31479193272E+02 -0.98494781259E+02  0.17269605448E+03  0.17770000000E+01 0. -1.
</event>
<event>
 6    1  0.1150066E-005  0.1799427E+03  0.7546771E-02  0.1070509E+00
        -11   -1    0    0    0    0  0.00000000000E+00  0.00000000000E+00  0.18250000000E+03  0.18250000000E+03  0.00000000000E+00 0. -1.
         11   -1    0    0    0    0 -0.00000000000E+00 -0.00000000000E+00 -0.18250000000E+03  0.18250000000E+03  0.00000000000E+00 0.  1.
        -11    1    1    2    0    0  0.29693451399E+00 -0.46677879273E+00 -0.54226091249E+00  0.77466085751E+00  0.00000000000E+00 0.  1.
         11    1    1    2    0    0 -0.20996029806E+01 -0.43191782594E+00 -0.37377740254E+01  0.43088096209E+01  0.00000000000E+00 0. -1.
        -15    1    1    2    0    0  0.15268933647E+03  0.59039866398E+02 -0.74696034954E+02  0.17995108964E+03  0.17770000000E+01 0.  1.
         15    1    1    2    0    0 -0.15088666801E+03 -0.58141169779E+02  0.78976069891E+02  0.17996543988E+03  0.17770000000E+01 0. -1.
</event>
<event>
 6    1  0.1150066E-005  0.3650000E+03  0.7546771E-02  0.9765871E-01
        -11   -1    0    0    0    0  0.00000000000E+00  0.00000000000E+00  0.18250000000E+03  0.18250000000E+03  0.00000000000E+00 0. -1.
         11   -1    0    0    0    0 -0.00000000000E+00 -0.00000000000E+00 -0.18250000000E+03  0.18250000000E+03  0.00000000000E+00 0.  1.
        -11    1    1    2    0    0  0.44969347816E+01 -0.73438658649E+01 -0.19230090020E+02  0.21070148325E+02  0.00000000000E+00 0.  1.
         11    1    1    2    0    0  0.68850120775E-01 -0.10517248177E+01 -0.18647085274E+01  0.21419624935E+01  0.00000000000E+00 0. -1.
        -15    1    1    2    0    0  0.79064333862E+01  0.13006061789E+03  0.12553995377E+03  0.18094671518E+03  0.17770000000E+01 0. -1.
         15    1    1    2    0    0 -0.12472218289E+02 -0.12166502720E+03 -0.10444515522E+03  0.16084117400E+03  0.17770000000E+01 0.  1.
</event>
<event>
 6    1  0.1150066E-005  0.3572689E+03  0.7546771E-02  0.9791832E-01
        -11   -1    0    0    0    0  0.00000000000E+00  0.00000000000E+00  0.18250000000E+03  0.18250000000E+03  0.00000000000E+00 0. -1.
         11   -1    0    0    0    0 -0.00000000000E+00 -0.00000000000E+00 -0.18250000000E+03  0.18250000000E+03  0.00000000000E+00 0.  1.
        -11    1    1    2    0    0 -0.57589746730E+00  0.53099964954E+00 -0.22627250750E+01  0.23944818408E+01  0.00000000000E+00 0.  1.
         11    1    1    2    0    0 -0.22430932759E+01  0.32281189750E+01 -0.36093266537E+01  0.53366148872E+01  0.00000000000E+00 0. -1.
        -15    1    1    2    0    0 -0.91304571302E+02 -0.14478671783E+03 -0.50679528857E+02  0.17852532250E+03  0.17770000000E+01 0. -1.
         15    1    1    2    0    0  0.94123562045E+02  0.14102759921E+03  0.56551580586E+02  0.17874358077E+03  0.17770000000E+01 0.  1.
</event>
<event>
 6    1  0.1150066E-005  0.3322355E+03  0.7546771E-02  0.9880979E-01
        -11   -1    0    0    0    0  0.00000000000E+00  0.00000000000E+00  0.18250000000E+03  0.18250000000E+03  0.00000000000E+00 0.  1.
         11   -1    0    0    0    0 -0.00000000000E+00 -0.00000000000E+00 -0.18250000000E+03  0.18250000000E+03  0.00000000000E+00 0. -1.
        -11    1    1    2    0    0 -0.25659355068E+02 -0.17282496199E+02  0.78054563112E+01  0.31906305421E+02  0.00000000000E+00 0.  1.
         11    1    1    2    0    0 -0.78913556162E+00  0.29716810840E+00  0.15957790122E+00  0.85820098219E+00  0.00000000000E+00 0. -1.
        -15    1    1    2    0    0  0.91104993499E+02  0.22268682825E+02  0.14122632756E+03  0.16954069541E+03  0.17770000000E+01 0.  1.
         15    1    1    2    0    0 -0.64656502870E+02 -0.52833547341E+01 -0.14919136177E+03  0.16269479819E+03  0.17770000000E+01 0. -1.
</event>
<event>
 6    1  0.1150066E-005  0.3650000E+03  0.7546771E-02  0.9765871E-01
        -11   -1    0    0    0    0  0.00000000000E+00  0.00000000000E+00  0.18250000000E+03  0.18250000000E+03  0.00000000000E+00 0.  1.
         11   -1    0    0    0    0 -0.00000000000E+00 -0.00000000000E+00 -0.18250000000E+03  0.18250000000E+03  0.00000000000E+00 0. -1.
        -11    1    1    2    0    0 -0.37353170403E+01 -0.61694408950E+00 -0.54766867860E+01  0.66578759040E+01  0.00000000000E+00 0. -1.
         11    1    1    2    0    0 -0.31216924686E+01 -0.15424268219E+01 -0.15271590377E+02  0.15663509090E+02  0.00000000000E+00 0.  1.
        -15    1    1    2    0    0  0.22310831599E+02 -0.64867230532E+02  0.16727363251E+03  0.18080142882E+03  0.17770000000E+01 0.  1.
         15    1    1    2    0    0 -0.15453822090E+02  0.67026601444E+02 -0.14652535534E+03  0.16187718618E+03  0.17770000000E+01 0. -1.
</event>
<event>
 6    1  0.1150066E-005  0.2758828E+03  0.7546771E-02  0.1011679E+00
        -11   -1    0    0    0    0  0.00000000000E+00  0.00000000000E+00  0.18250000000E+03  0.18250000000E+03  0.00000000000E+00 0.  1.
         11   -1    0    0    0    0 -0.00000000000E+00 -0.00000000000E+00 -0.18250000000E+03  0.18250000000E+03  0.00000000000E+00 0. -1.
        -11    1    1    2    0    0 -0.65370132300E+01  0.82356767246E+01 -0.70579457328E+02  0.71358382197E+02  0.00000000000E+00 0. -1.
         11    1    1    2    0    0 -0.12409287918E+01  0.31975074585E+01 -0.17424467935E+02  0.17758829945E+02  0.00000000000E+00 0.  1.
        -15    1    1    2    0    0  0.41436825720E+01  0.11181014096E+03  0.10246700397E+03  0.15172779033E+03  0.17770000000E+01 0.  1.
         15    1    1    2    0    0  0.36342594498E+01 -0.12324332515E+03 -0.14463078710E+02  0.12415499752E+03  0.17770000000E+01 0. -1.
</event>
<event>
 6    1  0.1150066E-005  0.3510772E+03  0.7546771E-02  0.9813136E-01
        -11   -1    0    0    0    0  0.00000000000E+00  0.00000000000E+00  0.18250000000E+03  0.18250000000E+03  0.00000000000E+00 0.  1.
         11   -1    0    0    0    0 -0.00000000000E+00 -0.00000000000E+00 -0.18250000000E+03  0.18250000000E+03  0.00000000000E+00 0. -1.
        -11    1    1    2    0    0  0.12943119121E+01  0.20885620763E+01  0.10352670603E+02  0.10640259559E+02  0.00000000000E+00 0.  1.
         11    1    1    2    0    0 -0.77445547990E+00  0.72379996098E-01  0.31890728810E+01  0.32825608897E+01  0.00000000000E+00 0. -1.
        -15    1    1    2    0    0 -0.83985479464E+02  0.14121933109E+03  0.52504659545E+02  0.17250031083E+03  0.17770000000E+01 0.  1.
         15    1    1    2    0    0  0.83465623032E+02 -0.14338027316E+03 -0.66046403029E+02  0.17857686872E+03  0.17770000000E+01 0. -1.
</event>
<event>
 6    1  0.1150066E-005  0.3650000E+03  0.7546771E-02  0.9765871E-01
        -11   -1    0    0    0    0  0.00000000000E+00  0.00000000000E+00  0.18250000000E+03  0.18250000000E+03  0.00000000000E+00 0.  1.
         11   -1    0    0    0    0 -0.00000000000E+00 -0.00000000000E+00 -0.18250000000E+03  0.18250000000E+03  0.00000000000E+00 0. -1.
        -11    1    1    2    0    0 -0.12702445734E+01 -0.29622373283E+01 -0.54759150811E+01  0.63540551808E+01  0.00000000000E+00 0. -1.
         11    1    1    2    0    0 -0.12978027309E+01 -0.70180054424E+00 -0.16714045595E+01  0.22294414399E+01  0.00000000000E+00 0.  1.
        -15    1    1    2    0    0  0.11198100179E+03  0.14072048216E+03  0.17705716475E+02  0.18071704122E+03  0.17770000000E+01 0.  1.
         15    1    1    2    0    0 -0.10941295449E+03 -0.13705644429E+03 -0.10558396834E+02  0.17569946216E+03  0.17770000000E+01 0. -1.
</event>
<event>
 6    1  0.1150066E-005  0.3650000E+03  0.7546771E-02  0.9765871E-01
        -11   -1    0    0    0    0  0.00000000000E+00  0.00000000000E+00  0.18250000000E+03  0.18250000000E+03  0.00000000000E+00 0. -1.
         11   -1    0    0    0    0 -0.00000000000E+00 -0.00000000000E+00 -0.18250000000E+03  0.18250000000E+03  0.00000000000E+00 0.  1.
        -11    1    1    2    0    0  0.14091755821E+01 -0.21611998638E+01  0.32684556737E+01  0.41640560952E+01  0.00000000000E+00 0.  1.
         11    1    1    2    0    0  0.13349937112E+02 -0.45747929849E+02  0.24041578107E+02  0.53376880616E+02  0.00000000000E+00 0. -1.
        -15    1    1    2    0    0 -0.63299355249E+01 -0.12340289994E+03 -0.52169375931E+02  0.13413853030E+03  0.17770000000E+01 0. -1.
         15    1    1    2    0    0 -0.84291771694E+01  0.17131202966E+03  0.24859342150E+02  0.17332053298E+03  0.17770000000E+01 0.  1.
</event>
<event>
 6    1  0.1150066E-005  0.3650000E+03  0.7546771E-02  0.9765871E-01
        -11   -1    0    0    0    0  0.00000000000E+00  0.00000000000E+00  0.18250000000E+03  0.18250000000E+03  0.00000000000E+00 0.  1.
         11   -1    0    0    0    0 -0.00000000000E+00 -0.00000000000E+00 -0.18250000000E+03  0.18250000000E+03  0.00000000000E+00 0.  1.
        -11    1    1    2    0    0  0.41514680591E+02 -0.73524117386E+02  0.12435167407E+03  0.15030836100E+03  0.00000000000E+00 0.  1.
         11    1    1    2    0    0 -0.40419511635E+00 -0.10636289449E+01  0.62747026693E+01  0.63770348762E+01  0.00000000000E+00 0.  1.
        -15    1    1    2    0    0 -0.28372053663E+02  0.10015349161E+03 -0.14320833179E+03  0.17705219381E+03  0.17770000000E+01 0.  1.
         15    1    1    2    0    0 -0.12738431812E+02 -0.25565745276E+02  0.12581955059E+02  0.31262410314E+02  0.17770000000E+01 0. -1.
</event>
<event>
 6    1  0.1150066E-005  0.3268349E+03  0.7546771E-02  0.9901321E-01
        -11   -1    0    0    0    0  0.00000000000E+00  0.00000000000E+00  0.18250000000E+03  0.18250000000E+03  0.00000000000E+00 0.  1.
         11   -1    0    0    0    0 -0.00000000000E+00 -0.00000000000E+00 -0.18250000000E+03  0.18250000000E+03  0.00000000000E+00 0. -1.
        -11    1    1    2    0    0 -0.28972979817E+01 -0.28465606591E+01 -0.53135565362E+01  0.66881332406E+01  0.00000000000E+00 0.  1.
         11    1    1    2    0    0  0.59500898216E+01 -0.11761515037E+02  0.28931736942E+02  0.31792801187E+02  0.00000000000E+00 0. -1.
        -15    1    1    2    0    0  0.13454807236E+03  0.93197601927E+02  0.11900623928E+02  0.16411507962E+03  0.17770000000E+01 0.  1.
         15    1    1    2    0    0 -0.13760086420E+03 -0.78589526231E+02 -0.35518804333E+02  0.16240398595E+03  0.17770000000E+01 0. -1.
</event>
<event>
 6    1  0.1150066E-005  0.3650000E+03  0.7546771E-02  0.9765871E-01
        -11   -1    0    0    0    0  0.00000000000E+00  0.00000000000E+00  0.18250000000E+03  0.18250000000E+03  0.00000000000E+00 0. -1.
         11   -1    0    0    0    0 -0.00000000000E+00 -0.00000000000E+00 -0.18250000000E+03  0.18250000000E+03  0.00000000000E+00 0.  1.
        -11    1    1    2    0    0 -0.23630171098E+02  0.21245398948E+02 -0.51551689808E+02  0.60558473269E+02  0.00000000000E+00 0.  1.
         11    1    1    2    0    0 -0.36868108112E+01  0.13184760340E+01 -0.73482908503E+01  0.83263636379E+01  0.00000000000E+00 0. -1.
        -15    1    1    2    0    0  0.21945746191E+02  0.59868247195E+02 -0.99076687759E+02  0.11783535371E+03  0.17770000000E+01 0.  1.
         15    1    1    2    0    0  0.53712357177E+01 -0.82432122177E+02  0.15797666842E+03  0.17827980938E+03  0.17770000000E+01 0. -1.
</event>
<event>
 6    1  0.1150066E-005  0.3650000E+03  0.7546771E-02  0.9765871E-01
        -11   -1    0    0    0    0  0.00000000000E+00  0.00000000000E+00  0.18250000000E+03  0.18250000000E+03  0.00000000000E+00 0. -1.
         11   -1    0    0    0    0 -0.00000000000E+00 -0.00000000000E+00 -0.18250000000E+03  0.18250000000E+03  0.00000000000E+00 0.  1.
        -11    1    1    2    0    0 -0.88966004402E+00  0.11392064946E+01  0.23914417153E+01  0.27943299570E+01  0.00000000000E+00 0. -1.
         11    1    1    2    0    0  0.61295620052E+00  0.19149208292E+00  0.95680070116E+00  0.11523246519E+01  0.00000000000E+00 0.  1.
        -15    1    1    2    0    0  0.10664128972E+03  0.24046580232E+02 -0.14531134229E+03  0.18184924147E+03  0.17770000000E+01 0.  1.
         15    1    1    2    0    0 -0.10636458588E+03 -0.25377278809E+02  0.14196309987E+03  0.17920410393E+03  0.17770000000E+01 0. -1.
</event>
<event>
 6    1  0.1150066E-005  0.3168483E+03  0.7546771E-02  0.9940071E-01
        -11   -1    0    0    0    0  0.00000000000E+00  0.00000000000E+00  0.18250000000E+03  0.18250000000E+03  0.00000000000E+00 0. -1.
         11   -1    0    0    0    0 -0.00000000000E+00 -0.00000000000E+00 -0.18250000000E+03  0.18250000000E+03  0.00000000000E+00 0.  1.
        -11    1    1    2    0    0 -0.40295692268E+01  0.93357060480E+01 -0.33475771938E+00  0.10173735710E+02  0.00000000000E+00 0.  1.
         11    1    1    2    0    0 -0.28830595749E+02  0.24639976593E+02 -0.19986873668E+01  0.37977973207E+02  0.00000000000E+00 0. -1.
        -15    1    1    2    0    0 -0.92597521800E+02 -0.88001714528E+02 -0.86148588888E+02  0.15408874034E+03  0.17770000000E+01 0. -1.
         15    1    1    2    0    0  0.12545768678E+03  0.54026031887E+02  0.88482033974E+02  0.16275955074E+03  0.17770000000E+01 0.  1.
</event>
<event>
 6    1  0.1162189E-005  0.1748794E+03  0.7546771E-02  0.1074688E+00
        -11   -1    0    0    0    0  0.00000000000E+00  0.00000000000E+00  0.18250000000E+03  0.18250000000E+03  0.00000000000E+00 0.  1.
         11   -1    0    0    0    0 -0.00000000000E+00 -0.00000000000E+00 -0.18250000000E+03  0.18250000000E+03  0.00000000000E+00 0. -1.
        -11    1    1    2    0    0 -0.97034344787E+01 -0.15394980276E+01  0.25763890390E+01  0.10156991451E+02  0.00000000000E+00 0. -1.
         11    1    1    2    0    0 -0.91090217929E+00 -0.41506843141E+01  0.23224066941E+01  0.48426744582E+01  0.00000000000E+00 0.  1.
        -15    1    1    2    0    0 -0.24049573919E+02 -0.16798102806E+03  0.21050193162E+02  0.17100373141E+03  0.17770000000E+01 0.  1.
         15    1    1    2    0    0  0.34663910577E+02  0.17367121040E+03 -0.25948988895E+02  0.17899660268E+03  0.17770000000E+01 0. -1.
</event>
<event>
 6    1  0.1150066E-005  0.3650000E+03  0.7546771E-02  0.9765871E-01
        -11   -1    0    0    0    0  0.00000000000E+00  0.00000000000E+00  0.18250000000E+03  0.18250000000E+03  0.00000000000E+00 0. -1.
         11   -1    0    0    0    0 -0.00000000000E+00 -0.00000000000E+00 -0.18250000000E+03  0.18250000000E+03  0.00000000000E+00 0.  1.
        -11    1    1    2    0    0 -0.18524759142E+01  0.20743586556E+01  0.80679322077E+00  0.28957807489E+01  0.00000000000E+00 0. -1.
         11    1    1    2    0    0 -0.11816011502E+02  0.67413506798E+01  0.88119943760E+01  0.16208491036E+02  0.00000000000E+00 0.  1.
        -15    1    1    2    0    0 -0.47542498768E+02  0.12187089706E+03  0.99995050607E+02  0.16466624613E+03  0.17770000000E+01 0. -1.
         15    1    1    2    0    0  0.61210986184E+02 -0.13068660640E+03 -0.10961383820E+03  0.18122948208E+03  0.17770000000E+01 0.  1.
</event>
<event>
 6    1  0.1150066E-005  0.3650000E+03  0.7546771E-02  0.9765871E-01
        -11   -1    0    0    0    0  0.00000000000E+00  0.00000000000E+00  0.18250000000E+03  0.18250000000E+03  0.00000000000E+00 0. -1.
         11   -1    0    0    0    0 -0.00000000000E+00 -0.00000000000E+00 -0.18250000000E+03  0.18250000000E+03  0.00000000000E+00 0.  1.
        -11    1    1    2    0    0 -0.13739060794E+01  0.58549242978E+01  0.89734182174E+01  0.10802314148E+02  0.00000000000E+00 0. -1.
         11    1    1    2    0    0  0.14014784267E+01  0.24545832901E+02  0.96760250231E+01  0.26421345818E+02  0.00000000000E+00 0.  1.
        -15    1    1    2    0    0 -0.61092366873E+02  0.12100283191E+03  0.57958674870E+02  0.14743245349E+03  0.17770000000E+01 0. -1.
         15    1    1    2    0    0  0.61064794526E+02 -0.15140358911E+03 -0.76608118111E+02  0.18034388655E+03  0.17770000000E+01 0.  1.
</event>
<event>
 6    1  0.1150066E-005  0.3535096E+03  0.7546771E-02  0.9804711E-01
        -11   -1    0    0    0    0  0.00000000000E+00  0.00000000000E+00  0.18250000000E+03  0.18250000000E+03  0.00000000000E+00 0.  1.
         11   -1    0    0    0    0 -0.00000000000E+00 -0.00000000000E+00 -0.18250000000E+03  0.18250000000E+03  0.00000000000E+00 0. -1.
        -11    1    1    2    0    0  0.57378152844E+00 -0.34774912925E+00 -0.81506708340E+00  0.10556936344E+01  0.00000000000E+00 0.  1.
         11    1    1    2    0    0  0.86460620347E+00 -0.19106551382E+01 -0.10221738797E+02  0.10434658163E+02  0.00000000000E+00 0. -1.
        -15    1    1    2    0    0  0.16131741033E+03  0.59486882081E+02  0.44841054648E+02  0.17769601551E+03  0.17770000000E+01 0.  1.
         15    1    1    2    0    0 -0.16275579807E+03 -0.57228477814E+02 -0.33804248768E+02  0.17581363269E+03  0.17770000000E+01 0. -1.
</event>
<event>
 6    1  0.1150066E-005  0.3650000E+03  0.7546771E-02  0.9765871E-01
        -11   -1    0    0    0    0  0.00000000000E+00  0.00000000000E+00  0.18250000000E+03  0.18250000000E+03  0.00000000000E+00 0.  1.
         11   -1    0    0    0    0 -0.00000000000E+00 -0.00000000000E+00 -0.18250000000E+03  0.18250000000E+03  0.00000000000E+00 0. -1.
        -11    1    1    2    0    0 -0.52452767718E+00  0.27080356876E+01 -0.35318013697E+01  0.44813176059E+01  0.00000000000E+00 0.  1.
         11    1    1    2    0    0 -0.10354676371E+01  0.69217827480E+00 -0.76575355115E+00  0.14620815616E+01  0.00000000000E+00 0. -1.
        -15    1    1    2    0    0  0.97117989532E+02  0.55730353733E+01  0.15344285372E+03  0.18168882657E+03  0.17770000000E+01 0.  1.
         15    1    1    2    0    0 -0.95557994218E+02 -0.89732493356E+01 -0.14914529880E+03  0.17736777426E+03  0.17770000000E+01 0. -1.
</event>
<event>
 6    1  0.1150066E-005  0.3650000E+03  0.7546771E-02  0.9765871E-01
        -11   -1    0    0    0    0  0.00000000000E+00  0.00000000000E+00  0.18250000000E+03  0.18250000000E+03  0.00000000000E+00 0.  1.
         11   -1    0    0    0    0 -0.00000000000E+00 -0.00000000000E+00 -0.18250000000E+03  0.18250000000E+03  0.00000000000E+00 0. -1.
        -11    1    1    2    0    0  0.42481990521E+01 -0.12564676958E+00  0.37620926219E+01  0.56759424938E+01  0.00000000000E+00 0. -1.
         11    1    1    2    0    0  0.67582135718E+01  0.33541659379E+01 -0.93417560377E+00  0.76024051378E+01  0.00000000000E+00 0.  1.
        -15    1    1    2    0    0  0.16928372711E+03 -0.20233289793E+02 -0.58346409551E+01  0.17059767597E+03  0.17770000000E+01 0.  1.
         15    1    1    2    0    0 -0.18029013974E+03  0.17004770625E+02  0.30067239370E+01  0.18112397640E+03  0.17770000000E+01 0. -1.
</event>
<event>
 6    1  0.1150066E-005  0.1724293E+03  0.7546771E-02  0.1076766E+00
        -11   -1    0    0    0    0  0.00000000000E+00  0.00000000000E+00  0.18250000000E+03  0.18250000000E+03  0.00000000000E+00 0.  1.
         11   -1    0    0    0    0 -0.00000000000E+00 -0.00000000000E+00 -0.18250000000E+03  0.18250000000E+03  0.00000000000E+00 0. -1.
        -11    1    1    2    0    0  0.37498725425E+01  0.70597166746E+01  0.62481938822E+01  0.10145987897E+02  0.00000000000E+00 0. -1.
         11    1    1    2    0    0 -0.72941707936E+01  0.59777122316E+01  0.19643396660E+01  0.96330992631E+01  0.00000000000E+00 0.  1.
        -15    1    1    2    0    0 -0.56957618242E+02  0.27201027273E+02 -0.16268149977E+03  0.17450643042E+03  0.17770000000E+01 0. -1.
         15    1    1    2    0    0  0.60501916493E+02 -0.40238456179E+02  0.15446896622E+03  0.17071448242E+03  0.17770000000E+01 0.  1.
</event>
<event>
 6    1  0.1150066E-005  0.3650000E+03  0.7546771E-02  0.9765871E-01
        -11   -1    0    0    0    0  0.00000000000E+00  0.00000000000E+00  0.18250000000E+03  0.18250000000E+03  0.00000000000E+00 0. -1.
         11   -1    0    0    0    0 -0.00000000000E+00 -0.00000000000E+00 -0.18250000000E+03  0.18250000000E+03  0.00000000000E+00 0.  1.
        -11    1    1    2    0    0  0.52685844032E+00 -0.41608085116E+00  0.19271531609E+01  0.20407406489E+01  0.00000000000E+00 0.  1.
         11    1    1    2    0    0 -0.12715054091E+01 -0.70396983000E+01  0.25822980647E+02  0.26795529621E+02  0.00000000000E+00 0. -1.
        -15    1    1    2    0    0  0.50411195119E+02 -0.36852909783E+02 -0.16890835876E+03  0.18009057982E+03  0.17770000000E+01 0.  1.
         15    1    1    2    0    0 -0.49666548151E+02  0.44308688934E+02  0.14115822495E+03  0.15607314991E+03  0.17770000000E+01 0. -1.
</event>
<event>
 6    1  0.1150066E-005  0.3601011E+03  0.7546771E-02  0.9782240E-01
        -11   -1    0    0    0    0  0.00000000000E+00  0.00000000000E+00  0.18250000000E+03  0.18250000000E+03  0.00000000000E+00 0. -1.
         11   -1    0    0    0    0 -0.00000000000E+00 -0.00000000000E+00 -0.18250000000E+03  0.18250000000E+03  0.00000000000E+00 0.  1.
        -11    1    1    2    0    0  0.82768149426E+00 -0.52431044367E+00 -0.10358176233E+01  0.14257896921E+01  0.00000000000E+00 0. -1.
         11    1    1    2    0    0 -0.43476413972E+00 -0.71095164061E+00 -0.33716386495E+01  0.34730993760E+01  0.00000000000E+00 0.  1.
        -15    1    1    2    0    0  0.14823866328E+03  0.87655417613E+02  0.55135967687E+02  0.18083502479E+03  0.17770000000E+01 0.  1.
         15    1    1    2    0    0 -0.14863158063E+03 -0.86420155529E+02 -0.50728511414E+02  0.17926608615E+03  0.17770000000E+01 0. -1.
</event>
<event>
 6    1  0.1150066E-005  0.3589265E+03  0.7546771E-02  0.9786207E-01
        -11   -1    0    0    0    0  0.00000000000E+00  0.00000000000E+00  0.18250000000E+03  0.18250000000E+03  0.00000000000E+00 0.  1.
         11   -1    0    0    0    0 -0.00000000000E+00 -0.00000000000E+00 -0.18250000000E+03  0.18250000000E+03  0.00000000000E+00 0. -1.
        -11    1    1    2    0    0 -0.24003570946E+01 -0.34972609746E+00  0.24738466376E+01  0.34646702168E+01  0.00000000000E+00 0.  1.
         11    1    1    2    0    0 -0.23941635490E+01 -0.10179657540E+00  0.10313334792E+01  0.26088369798E+01  0.00000000000E+00 0. -1.
        -15    1    1    2    0    0 -0.96380769929E+01  0.17768874290E+03  0.21850349234E+02  0.17929522407E+03  0.17770000000E+01 0.  1.
         15    1    1    2    0    0  0.14432597636E+02 -0.17723722023E+03 -0.25355529351E+02  0.17963126874E+03  0.17770000000E+01 0. -1.
</event>
<event>
 6    1  0.1150066E-005  0.2825254E+03  0.7546771E-02  0.1008596E+00
        -11   -1    0    0    0    0  0.00000000000E+00  0.00000000000E+00  0.18250000000E+03  0.18250000000E+03  0.00000000000E+00 0. -1.
         11   -1    0    0    0    0 -0.00000000000E+00 -0.00000000000E+00 -0.18250000000E+03  0.18250000000E+03  0.00000000000E+00 0.  1.
        -11    1    1    2    0    0 -0.94482176823E+01  0.93580684648E+01 -0.62265572244E+02  0.63669802494E+02  0.00000000000E+00 0.  1.
         11    1    1    2    0    0 -0.10594659656E+01 -0.17081935839E+02 -0.49297413487E+01  0.17810596563E+02  0.00000000000E+00 0. -1.
        -15    1    1    2    0    0  0.39573343511E+02  0.93607142073E+02  0.13592867820E+03  0.16972951968E+03  0.17770000000E+01 0. -1.
         15    1    1    2    0    0 -0.29065659864E+02 -0.85883274698E+02 -0.68733364605E+02  0.11379008127E+03  0.17770000000E+01 0.  1.
</event>
<event>
 6    1  0.1150066E-005  0.3650000E+03  0.7546771E-02  0.9765871E-01
        -11   -1    0    0    0    0  0.00000000000E+00  0.00000000000E+00  0.18250000000E+03  0.18250000000E+03  0.00000000000E+00 0. -1.
         11   -1    0    0    0    0 -0.00000000000E+00 -0.00000000000E+00 -0.18250000000E+03  0.18250000000E+03  0.00000000000E+00 0.  1.
        -11    1    1    2    0    0  0.48877762354E+00  0.43973250480E+00 -0.15995123049E+01  0.17293663159E+01  0.00000000000E+00 0.  1.
         11    1    1    2    0    0  0.65750972965E+01  0.14017130182E+02 -0.16956981231E+02  0.22961947990E+02  0.00000000000E+00 0. -1.
        -15    1    1    2    0    0 -0.88181091433E+02 -0.81899927782E+02  0.13654999424E+03  0.18202351967E+03  0.17770000000E+01 0. -1.
         15    1    1    2    0    0  0.81117216513E+02  0.67443065096E+02 -0.11799350071E+03  0.15828516602E+03  0.17770000000E+01 0.  1.
</event>
<event>
 6    1  0.1150066E-005  0.3650000E+03  0.7546771E-02  0.9765871E-01
        -11   -1    0    0    0    0  0.00000000000E+00  0.00000000000E+00  0.18250000000E+03  0.18250000000E+03  0.00000000000E+00 0.  1.
         11   -1    0    0    0    0 -0.00000000000E+00 -0.00000000000E+00 -0.18250000000E+03  0.18250000000E+03  0.00000000000E+00 0. -1.
        -11    1    1    2    0    0 -0.46783620397E+00  0.21514887403E+01  0.61445876021E+00  0.22858989657E+01  0.00000000000E+00 0. -1.
         11    1    1    2    0    0  0.43914741699E+00  0.83166508795E+00  0.32237860390E+00  0.99420583212E+00  0.00000000000E+00 0.  1.
        -15    1    1    2    0    0 -0.81082473003E+02 -0.15748981817E+03  0.41886548977E+02  0.18203035728E+03  0.17770000000E+01 0.  1.
         15    1    1    2    0    0  0.81111161790E+02  0.15450666434E+03 -0.42823386342E+02  0.17968953793E+03  0.17770000000E+01 0. -1.
</event>
<event>
 6    1  0.1150066E-005  0.3650000E+03  0.7546771E-02  0.9765871E-01
        -11   -1    0    0    0    0  0.00000000000E+00  0.00000000000E+00  0.18250000000E+03  0.18250000000E+03  0.00000000000E+00 0. -1.
         11   -1    0    0    0    0 -0.00000000000E+00 -0.00000000000E+00 -0.18250000000E+03  0.18250000000E+03  0.00000000000E+00 0.  1.
        -11    1    1    2    0    0 -0.58160273522E+00  0.51819407913E+00  0.96053216177E+00  0.12366927181E+01  0.00000000000E+00 0. -1.
         11    1    1    2    0    0  0.12779440854E+01  0.31833705018E+01  0.45547013652E+01  0.57019552228E+01  0.00000000000E+00 0.  1.
        -15    1    1    2    0    0  0.77207874023E+02  0.11327403434E+03  0.11028445670E+03  0.17594852027E+03  0.17770000000E+01 0. -1.
         15    1    1    2    0    0 -0.77904215373E+02 -0.11697559892E+03 -0.11579969023E+03  0.18211283179E+03  0.17770000000E+01 0.  1.
</event>
<event>
 6    1  0.1150066E-005  0.3650000E+03  0.7546771E-02  0.9765871E-01
        -11   -1    0    0    0    0  0.00000000000E+00  0.00000000000E+00  0.18250000000E+03  0.18250000000E+03  0.00000000000E+00 0. -1.
         11   -1    0    0    0    0 -0.00000000000E+00 -0.00000000000E+00 -0.18250000000E+03  0.18250000000E+03  0.00000000000E+00 0.  1.
        -11    1    1    2    0    0  0.29222009416E+00 -0.66198012628E+00  0.43485539046E+00  0.84422122789E+00  0.00000000000E+00 0. -1.
         11    1    1    2    0    0  0.20424049875E+02 -0.44772200805E+01  0.68400386986E+01  0.21999396409E+02  0.00000000000E+00 0.  1.
        -15    1    1    2    0    0  0.13499532117E+03  0.58437384892E+02  0.66918563172E+02  0.16161657253E+03  0.17770000000E+01 0. -1.
         15    1    1    2    0    0 -0.15571159114E+03 -0.53298184685E+02 -0.74193457261E+02  0.18053980983E+03  0.17770000000E+01 0.  1.
</event>
<event>
 6    1  0.1150066E-005  0.3426427E+03  0.7546771E-02  0.9842927E-01
        -11   -1    0    0    0    0  0.00000000000E+00  0.00000000000E+00  0.18250000000E+03  0.18250000000E+03  0.00000000000E+00 0. -1.
         11   -1    0    0    0    0 -0.00000000000E+00 -0.00000000000E+00 -0.18250000000E+03  0.18250000000E+03  0.00000000000E+00 0.  1.
        -11    1    1    2    0    0 -0.23771570329E+00  0.14835077984E+01 -0.61800611535E+01  0.63600676100E+01  0.00000000000E+00 0.  1.
         11    1    1    2    0    0 -0.56405492128E+01  0.66154176696E+01 -0.13428751125E+02  0.15997215481E+02  0.00000000000E+00 0. -1.
        -15    1    1    2    0    0  0.13381394371E+02  0.16418595767E+03  0.38425252688E+02  0.16916189933E+03  0.17770000000E+01 0. -1.
         15    1    1    2    0    0 -0.75031294548E+01 -0.17228488314E+03 -0.18816440409E+02  0.17348081758E+03  0.17770000000E+01 0.  1.
</event>
<event>
 6    1  0.1150066E-005  0.3650000E+03  0.7546771E-02  0.9765871E-01
        -11   -1    0    0    0    0  0.00000000000E+00  0.00000000000E+00  0.18250000000E+03  0.18250000000E+03  0.00000000000E+00 0. -1.
         11   -1    0    0    0    0 -0.00000000000E+00 -0.00000000000E+00 -0.18250000000E+03  0.18250000000E+03  0.00000000000E+00 0.  1.
        -11    1    1    2    0    0  0.14790215406E+01  0.20059611108E+01 -0.33386617220E+00  0.25145280505E+01  0.00000000000E+00 0. -1.
         11    1    1    2    0    0  0.27996127613E+01  0.28222002499E+01 -0.39053518119E+01  0.55726491580E+01  0.00000000000E+00 0.  1.
        -15    1    1    2    0    0 -0.17343325310E+03  0.32477204253E+02  0.37807744047E+02  0.18046175582E+03  0.17770000000E+01 0. -1.
         15    1    1    2    0    0  0.16915461880E+03 -0.37305365613E+02 -0.33568526063E+02  0.17645106697E+03  0.17770000000E+01 0.  1.
</event>
<event>
 6    1  0.1150066E-005  0.3650000E+03  0.7546771E-02  0.9765871E-01
        -11   -1    0    0    0    0  0.00000000000E+00  0.00000000000E+00  0.18250000000E+03  0.18250000000E+03  0.00000000000E+00 0.  1.
         11   -1    0    0    0    0 -0.00000000000E+00 -0.00000000000E+00 -0.18250000000E+03  0.18250000000E+03  0.00000000000E+00 0. -1.
        -11    1    1    2    0    0 -0.69792797506E+01  0.42889419084E+01 -0.81394931113E+02  0.81806113338E+02  0.00000000000E+00 0. -1.
         11    1    1    2    0    0 -0.11830734784E+01  0.78816533491E+00 -0.25953115232E+02  0.25992019115E+02  0.00000000000E+00 0.  1.
        -15    1    1    2    0    0  0.28432887120E+02 -0.46430887150E+02  0.17051682833E+03  0.17900671167E+03  0.17770000000E+01 0.  1.
         15    1    1    2    0    0 -0.20270533891E+02  0.41353779906E+02 -0.63168781980E+02  0.78195155877E+02  0.17770000000E+01 0. -1.
</event>
<event>
 6    1  0.1150066E-005  0.3650000E+03  0.7546771E-02  0.9765871E-01
        -11   -1    0    0    0    0  0.00000000000E+00  0.00000000000E+00  0.18250000000E+03  0.18250000000E+03  0.00000000000E+00 0.  1.
         11   -1    0    0    0    0 -0.00000000000E+00 -0.00000000000E+00 -0.18250000000E+03  0.18250000000E+03  0.00000000000E+00 0. -1.
        -11    1    1    2    0    0  0.42144380653E+01  0.29701850571E+00 -0.12570543589E+02  0.13261533634E+02  0.00000000000E+00 0. -1.
         11    1    1    2    0    0 -0.83266767665E+00 -0.16020858948E+01 -0.21708591799E+01  0.28235871251E+01  0.00000000000E+00 0.  1.
        -15    1    1    2    0    0 -0.73089726447E+02  0.14224100466E+03  0.79812928785E+02  0.17873967900E+03  0.17770000000E+01 0.  1.
         15    1    1    2    0    0  0.69707956058E+02 -0.14093593727E+03 -0.65071526016E+02  0.17017520024E+03  0.17770000000E+01 0. -1.
</event>
<event>
 6    1  0.1150066E-005  0.3650000E+03  0.7546771E-02  0.9765871E-01
        -11   -1    0    0    0    0  0.00000000000E+00  0.00000000000E+00  0.18250000000E+03  0.18250000000E+03  0.00000000000E+00 0.  1.
         11   -1    0    0    0    0 -0.00000000000E+00 -0.00000000000E+00 -0.18250000000E+03  0.18250000000E+03  0.00000000000E+00 0. -1.
        -11    1    1    2    0    0 -0.14450600467E+02 -0.34080598853E+01 -0.18822079696E+02  0.23973014206E+02  0.00000000000E+00 0.  1.
         11    1    1    2    0    0 -0.23247264329E+01  0.18744486106E+01 -0.61569880496E+00  0.30490975058E+01  0.00000000000E+00 0. -1.
        -15    1    1    2    0    0  0.10943078477E+03  0.75979758950E+02  0.12224404094E+03  0.18081698952E+03  0.17770000000E+01 0.  1.
         15    1    1    2    0    0 -0.92655457866E+02 -0.74446147676E+02 -0.10280626244E+03  0.15716089877E+03  0.17770000000E+01 0. -1.
</event>
<event>
 6    1  0.1150066E-005  0.2022436E+03  0.7546771E-02  0.1053742E+00
        -11   -1    0    0    0    0  0.00000000000E+00  0.00000000000E+00  0.18250000000E+03  0.18250000000E+03  0.00000000000E+00 0. -1.
         11   -1    0    0    0    0 -0.00000000000E+00 -0.00000000000E+00 -0.18250000000E+03  0.18250000000E+03  0.00000000000E+00 0.  1.
        -11    1    1    2    0    0  0.70638868179E+02  0.28030442679E+02  0.51906222644E+02  0.92031578078E+02  0.00000000000E+00 0.  1.
         11    1    1    2    0    0  0.53151094164E+02 -0.88800321703E+01  0.45805092899E+02  0.70724821086E+02  0.00000000000E+00 0. -1.
        -15    1    1    2    0    0 -0.41959158499E+02  0.20891155788E+02  0.21991869020E+02  0.51805515190E+02  0.17770000000E+01 0.  1.
         15    1    1    2    0    0 -0.81830803844E+02 -0.40041566296E+02 -0.11970318456E+03  0.15043808565E+03  0.17770000000E+01 0.  1.
</event>
<event>
 6    1  0.1150066E-005  0.3650000E+03  0.7546771E-02  0.9765871E-01
        -11   -1    0    0    0    0  0.00000000000E+00  0.00000000000E+00  0.18250000000E+03  0.18250000000E+03  0.00000000000E+00 0.  1.
         11   -1    0    0    0    0 -0.00000000000E+00 -0.00000000000E+00 -0.18250000000E+03  0.18250000000E+03  0.00000000000E+00 0. -1.
        -11    1    1    2    0    0 -0.12685987874E+01 -0.80197645906E+00 -0.18146054333E+01  0.23548464924E+01  0.00000000000E+00 0. -1.
         11    1    1    2    0    0 -0.57965911300E+01 -0.26747582352E+01 -0.11253735010E+01  0.64823811876E+01  0.00000000000E+00 0.  1.
        -15    1    1    2    0    0 -0.68701505728E+02 -0.16076374521E+03  0.10196055919E+02  0.17513422266E+03  0.17770000000E+01 0.  1.
         15    1    1    2    0    0  0.75766695645E+02  0.16424047990E+03 -0.72560769846E+01  0.18102854966E+03  0.17770000000E+01 0. -1.
</event>
<event>
 6    1  0.1150066E-005  0.3300358E+03  0.7546771E-02  0.9889214E-01
        -11   -1    0    0    0    0  0.00000000000E+00  0.00000000000E+00  0.18250000000E+03  0.18250000000E+03  0.00000000000E+00 0.  1.
         11   -1    0    0    0    0 -0.00000000000E+00 -0.00000000000E+00 -0.18250000000E+03  0.18250000000E+03  0.00000000000E+00 0. -1.
        -11    1    1    2    0    0  0.69765500822E+00  0.10647977787E+01 -0.97451225386E+01  0.98279158581E+01  0.00000000000E+00 0.  1.
         11    1    1    2    0    0 -0.17498535626E+01  0.24044182272E+01 -0.24959806931E+02  0.25136331803E+02  0.00000000000E+00 0. -1.
        -15    1    1    2    0    0  0.15397090721E+03 -0.24534701065E+02  0.71195159511E+02  0.17140857706E+03  0.17770000000E+01 0.  1.
         15    1    1    2    0    0 -0.15291870866E+03  0.21065485059E+02 -0.36490230042E+02  0.15862717528E+03  0.17770000000E+01 0. -1.
</event>
<event>
 6    1  0.1150066E-005  0.1745839E+03  0.7546771E-02  0.1074937E+00
        -11   -1    0    0    0    0  0.00000000000E+00  0.00000000000E+00  0.18250000000E+03  0.18250000000E+03  0.00000000000E+00 0. -1.
         11   -1    0    0    0    0 -0.00000000000E+00 -0.00000000000E+00 -0.18250000000E+03  0.18250000000E+03  0.00000000000E+00 0.  1.
        -11    1    1    2    0    0 -0.19735209790E+01 -0.33614066404E+01 -0.54581543171E+01  0.67071072905E+01  0.00000000000E+00 0.  1.
         11    1    1    2    0    0 -0.70790758591E+01  0.41941093162E+01 -0.33789092293E+01  0.88949927237E+01  0.00000000000E+00 0. -1.
        -15    1    1    2    0    0 -0.16164933218E+03  0.18079231813E+02 -0.46095023332E+02  0.16907180167E+03  0.17770000000E+01 0. -1.
         15    1    1    2    0    0  0.17070192901E+03 -0.18911934489E+02  0.54932086879E+02  0.18032609831E+03  0.17770000000E+01 0.  1.
</event>
<event>
 6    1  0.1150066E-005  0.3057190E+03  0.7546771E-02  0.9985106E-01
        -11   -1    0    0    0    0  0.00000000000E+00  0.00000000000E+00  0.18250000000E+03  0.18250000000E+03  0.00000000000E+00 0. -1.
         11   -1    0    0    0    0 -0.00000000000E+00 -0.00000000000E+00 -0.18250000000E+03  0.18250000000E+03  0.00000000000E+00 0.  1.
        -11    1    1    2    0    0 -0.16569123181E+00  0.47390776353E+00  0.63776361584E+01  0.63973654828E+01  0.00000000000E+00 0. -1.
         11    1    1    2    0    0 -0.12782477203E+01  0.61806532391E+00  0.52864614738E+02  0.52883678138E+02  0.00000000000E+00 0.  1.
        -15    1    1    2    0    0 -0.82290749589E+02  0.11089924954E+03 -0.86889989725E+02  0.16316690553E+03  0.17770000000E+01 0. -1.
         15    1    1    2    0    0  0.83734688541E+02 -0.11199122263E+03  0.27647738829E+02  0.14255205085E+03  0.17770000000E+01 0.  1.
</event>
<event>
 6    1  0.1150066E-005  0.3602774E+03  0.7546771E-02  0.9781647E-01
        -11   -1    0    0    0    0  0.00000000000E+00  0.00000000000E+00  0.18250000000E+03  0.18250000000E+03  0.00000000000E+00 0.  1.
         11   -1    0    0    0    0 -0.00000000000E+00 -0.00000000000E+00 -0.18250000000E+03  0.18250000000E+03  0.00000000000E+00 0. -1.
        -11    1    1    2    0    0  0.99084501991E+00  0.59968270730E+00  0.98011425187E+00  0.15172399776E+01  0.00000000000E+00 0. -1.
         11    1    1    2    0    0 -0.15919169381E+01 -0.10539295728E+00  0.27730178612E+01  0.31992085384E+01  0.00000000000E+00 0.  1.
        -15    1    1    2    0    0  0.69315975639E+02 -0.13442625676E+03 -0.10025754459E+03  0.18146585343E+03  0.17770000000E+01 0.  1.
         15    1    1    2    0    0 -0.68714903720E+02  0.13393196701E+03  0.96504412474E+02  0.17881769805E+03  0.17770000000E+01 0. -1.
</event>
<event>
 6    1  0.1150066E-005  0.3463169E+03  0.7546771E-02  0.9829838E-01
        -11   -1    0    0    0    0  0.00000000000E+00  0.00000000000E+00  0.18250000000E+03  0.18250000000E+03  0.00000000000E+00 0.  1.
         11   -1    0    0    0    0 -0.00000000000E+00 -0.00000000000E+00 -0.18250000000E+03  0.18250000000E+03  0.00000000000E+00 0. -1.
        -11    1    1    2    0    0  0.13174977069E+02  0.19998654775E+01  0.81891896256E+01  0.15641045662E+02  0.00000000000E+00 0. -1.
         11    1    1    2    0    0  0.13108777662E+01  0.15860499803E+01  0.22405345323E+01  0.30420305797E+01  0.00000000000E+00 0.  1.
        -15    1    1    2    0    0 -0.10883423132E+02  0.14910330020E+03  0.79227544382E+02  0.16920521431E+03  0.17770000000E+01 0.  1.
         15    1    1    2    0    0 -0.36024317030E+01 -0.15268921566E+03 -0.89657268540E+02  0.17711170945E+03  0.17770000000E+01 0. -1.
</event>
<event>
 6    1  0.1150066E-005  0.3391897E+03  0.7546771E-02  0.9855390E-01
        -11   -1    0    0    0    0  0.00000000000E+00  0.00000000000E+00  0.18250000000E+03  0.18250000000E+03  0.00000000000E+00 0.  1.
         11   -1    0    0    0    0 -0.00000000000E+00 -0.00000000000E+00 -0.18250000000E+03  0.18250000000E+03  0.00000000000E+00 0. -1.
        -11    1    1    2    0    0  0.16223793206E+01 -0.58070791181E+00 -0.13425588591E+02  0.13535721826E+02  0.00000000000E+00 0. -1.
         11    1    1    2    0    0 -0.18855166712E+01  0.27361063267E+00 -0.12125768406E+02  0.12274538497E+02  0.00000000000E+00 0.  1.
        -15    1    1    2    0    0 -0.12548551978E+03  0.11255709208E+03  0.26297519434E+02  0.17061779482E+03  0.17770000000E+01 0.  1.
         15    1    1    2    0    0  0.12574865714E+03 -0.11224999480E+03 -0.74616243754E+00  0.16857194485E+03  0.17770000000E+01 0. -1.
</event>
<event>
 6    1  0.1150066E-005  0.3650000E+03  0.7546771E-02  0.9765871E-01
        -11   -1    0    0    0    0  0.00000000000E+00  0.00000000000E+00  0.18250000000E+03  0.18250000000E+03  0.00000000000E+00 0. -1.
         11   -1    0    0    0    0 -0.00000000000E+00 -0.00000000000E+00 -0.18250000000E+03  0.18250000000E+03  0.00000000000E+00 0.  1.
        -11    1    1    2    0    0 -0.10491940902E+01  0.12711623986E+01  0.67703603541E+01  0.69681017076E+01  0.00000000000E+00 0.  1.
         11    1    1    2    0    0 -0.18300950499E+01  0.37376092118E+01  0.25989881420E+02  0.26320959457E+02  0.00000000000E+00 0. -1.
        -15    1    1    2    0    0  0.23033662529E+02  0.13371804234E+03  0.74854455290E+02  0.15497551956E+03  0.17770000000E+01 0. -1.
         15    1    1    2    0    0 -0.20154373389E+02 -0.13872681395E+03 -0.10761469706E+03  0.17673541928E+03  0.17770000000E+01 0.  1.
</event>
<event>
 6    1  0.1150066E-005  0.3051839E+03  0.7546771E-02  0.9987323E-01
        -11   -1    0    0    0    0  0.00000000000E+00  0.00000000000E+00  0.18250000000E+03  0.18250000000E+03  0.00000000000E+00 0. -1.
         11   -1    0    0    0    0 -0.00000000000E+00 -0.00000000000E+00 -0.18250000000E+03  0.18250000000E+03  0.00000000000E+00 0.  1.
        -11    1    1    2    0    0  0.18065748457E+01  0.31969812154E+00 -0.31099066749E+02  0.31153135833E+02  0.00000000000E+00 0. -1.
         11    1    1    2    0    0  0.29860784439E+01  0.28568360030E+01 -0.28363469330E+02  0.28662947665E+02  0.00000000000E+00 0.  1.
        -15    1    1    2    0    0 -0.11089044381E+03  0.14467934522E+02 -0.73743521816E+02  0.13396744529E+03  0.17770000000E+01 0.  1.
         15    1    1    2    0    0  0.10609779052E+03 -0.17644468647E+02  0.13320605790E+03  0.17121647122E+03  0.17770000000E+01 0. -1.
</event>
<event>
 6    1  0.1150066E-005  0.1781685E+03  0.7546771E-02  0.1071956E+00
        -11   -1    0    0    0    0  0.00000000000E+00  0.00000000000E+00  0.18250000000E+03  0.18250000000E+03  0.00000000000E+00 0. -1.
         11   -1    0    0    0    0 -0.00000000000E+00 -0.00000000000E+00 -0.18250000000E+03  0.18250000000E+03  0.00000000000E+00 0.  1.
        -11    1    1    2    0    0  0.31875484804E+01  0.89682720679E+00  0.30667290607E+01  0.45132683817E+01  0.00000000000E+00 0. -1.
         11    1    1    2    0    0 -0.25303149866E+01  0.37846502462E+00  0.31933534600E+01  0.40918499517E+01  0.00000000000E+00 0.  1.
        -15    1    1    2    0    0 -0.86037230781E+02  0.67120186186E+02 -0.14387615918E+03  0.18058524686E+03  0.17770000000E+01 0.  1.
         15    1    1    2    0    0  0.85379997287E+02 -0.68395478417E+02  0.13761607666E+03  0.17580963480E+03  0.17770000000E+01 0. -1.
</event>
<event>
 6    1  0.1150066E-005  0.1947391E+03  0.7546771E-02  0.1059109E+00
        -11   -1    0    0    0    0  0.00000000000E+00  0.00000000000E+00  0.18250000000E+03  0.18250000000E+03  0.00000000000E+00 0. -1.
         11   -1    0    0    0    0 -0.00000000000E+00 -0.00000000000E+00 -0.18250000000E+03  0.18250000000E+03  0.00000000000E+00 0. -1.
        -11    1    1    2    0    0 -0.43395328941E+00  0.18784454873E+01  0.71276495356E+02  0.71302564211E+02  0.00000000000E+00 0. -1.
         11    1    1    2    0    0  0.10667719463E+01  0.28885773211E+01  0.98910381711E+02  0.98958301782E+02  0.00000000000E+00 0. -1.
        -15    1    1    2    0    0 -0.86466487776E+01  0.44100652984E+02 -0.86046002108E+02  0.97091216577E+02  0.17770000000E+01 0.  1.
         15    1    1    2    0    0  0.80138301207E+01 -0.48867675792E+02 -0.84140874959E+02  0.97647917430E+02  0.17770000000E+01 0. -1.
</event>
<event>
 6    1  0.1150066E-005  0.3650000E+03  0.7546771E-02  0.9765871E-01
        -11   -1    0    0    0    0  0.00000000000E+00  0.00000000000E+00  0.18250000000E+03  0.18250000000E+03  0.00000000000E+00 0.  1.
         11   -1    0    0    0    0 -0.00000000000E+00 -0.00000000000E+00 -0.18250000000E+03  0.18250000000E+03  0.00000000000E+00 0. -1.
        -11    1    1    2    0    0 -0.17817834543E+02 -0.22223372575E+02  0.21387243149E+00  0.28485070788E+02  0.00000000000E+00 0. -1.
         11    1    1    2    0    0 -0.44788426141E+01 -0.11345901951E+02 -0.32300538821E+01  0.12618350539E+02  0.00000000000E+00 0.  1.
        -15    1    1    2    0    0 -0.13683589980E+03 -0.35439627821E+02 -0.36486811981E+02  0.14599478028E+03  0.17770000000E+01 0.  1.
         15    1    1    2    0    0  0.15913257695E+03  0.69008902348E+02  0.39502993432E+02  0.17790179839E+03  0.17770000000E+01 0. -1.
</event>
<event>
 6    1  0.1150066E-005  0.3650000E+03  0.7546771E-02  0.9765871E-01
        -11   -1    0    0    0    0  0.00000000000E+00  0.00000000000E+00  0.18250000000E+03  0.18250000000E+03  0.00000000000E+00 0.  1.
         11   -1    0    0    0    0 -0.00000000000E+00 -0.00000000000E+00 -0.18250000000E+03  0.18250000000E+03  0.00000000000E+00 0. -1.
        -11    1    1    2    0    0  0.64562030621E+01 -0.43540326087E+01  0.17749644136E+02  0.19382724909E+02  0.00000000000E+00 0.  1.
         11    1    1    2    0    0 -0.40737303965E+00  0.25830620427E+01  0.36015152880E+02  0.36109962604E+02  0.00000000000E+00 0. -1.
        -15    1    1    2    0    0 -0.49558313082E+02  0.50487564403E+02  0.11134885690E+03  0.13193462858E+03  0.17770000000E+01 0.  1.
         15    1    1    2    0    0  0.43509483059E+02 -0.48716593837E+02 -0.16511365392E+03  0.17757268391E+03  0.17770000000E+01 0. -1.
</event>
<event>
 6    1  0.1150066E-005  0.2821451E+03  0.7546771E-02  0.1008770E+00
        -11   -1    0    0    0    0  0.00000000000E+00  0.00000000000E+00  0.18250000000E+03  0.18250000000E+03  0.00000000000E+00 0. -1.
         11   -1    0    0    0    0 -0.00000000000E+00 -0.00000000000E+00 -0.18250000000E+03  0.18250000000E+03  0.00000000000E+00 0. -1.
        -11    1    1    2    0    0 -0.20691149270E+02  0.59832210890E+01 -0.97229576225E+01  0.23631726506E+02  0.00000000000E+00 0. -1.
         11    1    1    2    0    0 -0.37543239280E+02 -0.22250183583E+02 -0.40035265868E+02  0.59223204897E+02  0.00000000000E+00 0. -1.
        -15    1    1    2    0    0  0.40106396343E+02 -0.21422238239E+02  0.15888107210E+03  0.16526883590E+03  0.17770000000E+01 0. -1.
         15    1    1    2    0    0  0.18127992206E+02  0.37689200733E+02 -0.10912284861E+03  0.11687623270E+03  0.17770000000E+01 0.  1.
</event>
<event>
 6    1  0.1150066E-005  0.2812855E+03  0.7546771E-02  0.1009165E+00
        -11   -1    0    0    0    0  0.00000000000E+00  0.00000000000E+00  0.18250000000E+03  0.18250000000E+03  0.00000000000E+00 0.  1.
         11   -1    0    0    0    0 -0.00000000000E+00 -0.00000000000E+00 -0.18250000000E+03  0.18250000000E+03  0.00000000000E+00 0. -1.
        -11    1    1    2    0    0  0.35360569873E+01 -0.25934207904E+02 -0.45986255044E+01  0.26575067171E+02  0.00000000000E+00 0. -1.
         11    1    1    2    0    0 -0.13020733703E+02  0.28386694654E+01  0.55449279440E+02  0.57028239855E+02  0.00000000000E+00 0.  1.
        -15    1    1    2    0    0  0.48255489525E+02 -0.87370824885E+02  0.63032192216E+02  0.11806129042E+03  0.17770000000E+01 0.  1.
         15    1    1    2    0    0 -0.38770812810E+02  0.11046636332E+03 -0.11388284615E+03  0.16333540256E+03  0.17770000000E+01 0. -1.
</event>
<event>
 6    1  0.1150066E-005  0.3650000E+03  0.7546771E-02  0.9765871E-01
        -11   -1    0    0    0    0  0.00000000000E+00  0.00000000000E+00  0.18250000000E+03  0.18250000000E+03  0.00000000000E+00 0. -1.
         11   -1    0    0    0    0 -0.00000000000E+00 -0.00000000000E+00 -0.18250000000E+03  0.18250000000E+03  0.00000000000E+00 0.  1.
        -11    1    1    2    0    0  0.39584551409E+00 -0.36008290920E+00 -0.57348530684E+00  0.78437157628E+00  0.00000000000E+00 0.  1.
         11    1    1    2    0    0  0.30728979528E+02  0.32645059822E+02 -0.72725649877E+02  0.85434128214E+02  0.00000000000E+00 0. -1.
        -15    1    1    2    0    0  0.13195137515E+02  0.43709279369E+02 -0.85665071314E+02  0.97089005193E+02  0.17770000000E+01 0.  1.
         15    1    1    2    0    0 -0.44319962557E+02 -0.75994256283E+02  0.15896420650E+03  0.18169249502E+03  0.17770000000E+01 0. -1.
</event>
