<event>
 7    1  0.1253049E-005  0.3186436E+03  0.7546771E-02  0.9932993E-01
        -11   -1    0    0    0    0  0.00000000000E+00  0.00000000000E+00  0.50000000000E+03  0.50000000000E+03  0.00000000000E+00 0. -1.
         11   -1    0    0    0    0 -0.00000000000E+00 -0.00000000000E+00 -0.50000000000E+03  0.50000000000E+03  0.00000000000E+00 0.  1.
         23    2    1    2    0    0  0.34822166523E+03 -0.11681778126E+03 -0.28142617197E+02  0.37958101059E+03  0.91569725046E+02 0.  0.
        -11    1    1    2    0    0 -0.19884376654E+03 -0.88994452207E+02  0.21404465775E+03  0.30540787731E+03  0.00000000000E+00 0. -1.
         11    1    1    2    0    0 -0.14937789869E+03  0.20581223347E+03 -0.18590204055E+03  0.31501111210E+03  0.00000000000E+00 0.  1.
        -15    1    3    3    0    0  0.79054538071E+02  0.12247403191E+02 -0.65405169062E+01  0.80284213672E+02  0.17770000000E+01 0. -1.
         15    1    3    3    0    0  0.26916712716E+03 -0.12906518445E+03 -0.21602100290E+02  0.29929679692E+03  0.17770000000E+01 0.  1.
</event>
<event>
 7    1  0.1253049E-005  0.3429640E+03  0.7546771E-02  0.9841775E-01
        -11   -1    0    0    0    0  0.00000000000E+00  0.00000000000E+00  0.50000000000E+03  0.50000000000E+03  0.00000000000E+00 0.  1.
         11   -1    0    0    0    0 -0.00000000000E+00 -0.00000000000E+00 -0.50000000000E+03  0.50000000000E+03  0.00000000000E+00 0. -1.
         23    2    1    2    0    0 -0.63722747052E+02  0.59613782593E+02 -0.39473469614E+03  0.41407703526E+03  0.89609816592E+02 0.  0.
        -11    1    1    2    0    0 -0.17153603946E+03 -0.26508706436E+02  0.26054927904E+03  0.31307068078E+03  0.00000000000E+00 0.  1.
         11    1    1    2    0    0  0.23525878652E+03 -0.33105076157E+02  0.13418541710E+03  0.27285228396E+03  0.00000000000E+00 0. -1.
        -15    1    3    3    0    0 -0.51282866536E+02  0.72602033492E+02 -0.38138117195E+03  0.39160661858E+03  0.17770000000E+01 0. -1.
         15    1    3    3    0    0 -0.12439880516E+02 -0.12988250899E+02 -0.13353524186E+02  0.22470416682E+02  0.17770000000E+01 0.  1.
</event>
<event>
 7    1  0.1253049E-005  0.3211150E+03  0.7546771E-02  0.9923330E-01
        -11   -1    0    0    0    0  0.00000000000E+00  0.00000000000E+00  0.50000000000E+03  0.50000000000E+03  0.00000000000E+00 0. -1.
         11   -1    0    0    0    0 -0.00000000000E+00 -0.00000000000E+00 -0.50000000000E+03  0.50000000000E+03  0.00000000000E+00 0. -1.
         23    2    1    2    0    0  0.22167567632E+03 -0.13289289976E+03 -0.24545851080E+03  0.36838109736E+03  0.93027544787E+02 0.  0.
        -11    1    1    2    0    0  0.70671111598E+02  0.21063682239E+03  0.24278444574E+03  0.32909962634E+03  0.00000000000E+00 0. -1.
         11    1    1    2    0    0 -0.29234678792E+03 -0.77743922625E+02  0.26740650585E+01  0.30251927630E+03  0.00000000000E+00 0. -1.
        -15    1    3    3    0    0  0.49620759436E+02 -0.25652479821E+02 -0.85131273484E+01  0.56532296559E+02  0.17770000000E+01 0.  1.
         15    1    3    3    0    0  0.17205491688E+03 -0.10724041994E+03 -0.23694538345E+03  0.31184880080E+03  0.17770000000E+01 0. -1.
</event>
<event>
 7    1  0.1253049E-005  0.5285225E+03  0.7546771E-02  0.9338157E-01
        -11   -1    0    0    0    0  0.00000000000E+00  0.00000000000E+00  0.50000000000E+03  0.50000000000E+03  0.00000000000E+00 0.  1.
         11   -1    0    0    0    0 -0.00000000000E+00 -0.00000000000E+00 -0.50000000000E+03  0.50000000000E+03  0.00000000000E+00 0. -1.
         23    2    1    2    0    0  0.81095241020E+02 -0.27111996619E+02 -0.17705826255E+03  0.21639798384E+03  0.90371237650E+02 0.  0.
        -11    1    1    2    0    0 -0.50899891891E+02  0.24197444121E+03  0.40143316434E+03  0.47147748051E+03  0.00000000000E+00 0.  1.
         11    1    1    2    0    0 -0.30195349129E+02 -0.21486244459E+03 -0.22437490179E+03  0.31212453565E+03  0.00000000000E+00 0. -1.
        -15    1    3    3    0    0  0.12271913588E+02 -0.41229568702E+02 -0.11443540753E+03  0.12226650164E+03  0.17770000000E+01 0. -1.
         15    1    3    3    0    0  0.68823327431E+02  0.14117572083E+02 -0.62622855027E+02  0.94131482199E+02  0.17770000000E+01 0.  1.
</event>
<event>
 7    1  0.1253049E-005  0.5216783E+03  0.7546771E-02  0.9352568E-01
        -11   -1    0    0    0    0  0.00000000000E+00  0.00000000000E+00  0.50000000000E+03  0.50000000000E+03  0.00000000000E+00 0. -1.
         11   -1    0    0    0    0 -0.00000000000E+00 -0.00000000000E+00 -0.50000000000E+03  0.50000000000E+03  0.00000000000E+00 0. -1.
         23    2    1    2    0    0 -0.51895118767E+02  0.45632901796E+02 -0.38976138240E+03  0.40604633678E+03  0.90466719398E+02 0.  0.
        -11    1    1    2    0    0  0.14596105941E+03 -0.77808821894E+02  0.44881268035E+03  0.47832171775E+03  0.00000000000E+00 0. -1.
         11    1    1    2    0    0 -0.94065940644E+02  0.32175920097E+02 -0.59051297949E+02  0.11563194547E+03  0.00000000000E+00 0. -1.
        -15    1    3    3    0    0  0.20743073113E+02 -0.18590436734E+01 -0.34533844059E+02  0.40366759097E+02  0.17770000000E+01 0.  1.
         15    1    3    3    0    0 -0.72638191881E+02  0.47491945470E+02 -0.35522753835E+03  0.36567957768E+03  0.17770000000E+01 0. -1.
</event>
<event>
 7    1  0.1253049E-005  0.3264217E+03  0.7546771E-02  0.9902894E-01
        -11   -1    0    0    0    0  0.00000000000E+00  0.00000000000E+00  0.50000000000E+03  0.50000000000E+03  0.00000000000E+00 0.  1.
         11   -1    0    0    0    0 -0.00000000000E+00 -0.00000000000E+00 -0.50000000000E+03  0.50000000000E+03  0.00000000000E+00 0.  1.
         23    2    1    2    0    0 -0.23361372253E+03  0.17927095898E+02 -0.25085588306E+03  0.35527495250E+03  0.91623499646E+02 0.  0.
        -11    1    1    2    0    0 -0.10511502377E+03  0.65791510573E+02  0.26808742049E+03  0.29537866563E+03  0.00000000000E+00 0.  1.
         11    1    1    2    0    0  0.33872874630E+03 -0.83718606471E+02 -0.17231537427E+02  0.34934638187E+03  0.00000000000E+00 0.  1.
        -15    1    3    3    0    0 -0.14826590273E+02  0.12447615109E+02 -0.65962054158E+02  0.68767152179E+02  0.17770000000E+01 0. -1.
         15    1    3    3    0    0 -0.21878713225E+03  0.54794807886E+01 -0.18489382890E+03  0.28650780032E+03  0.17770000000E+01 0.  1.
</event>
<event>
 7    1  0.1253049E-005  0.4785011E+03  0.7546771E-02  0.9449243E-01
        -11   -1    0    0    0    0  0.00000000000E+00  0.00000000000E+00  0.50000000000E+03  0.50000000000E+03  0.00000000000E+00 0.  1.
         11   -1    0    0    0    0 -0.00000000000E+00 -0.00000000000E+00 -0.50000000000E+03  0.50000000000E+03  0.00000000000E+00 0.  1.
         23    2    1    2    0    0 -0.21996908751E+02  0.23004803814E+02 -0.45420815199E+03  0.46434458432E+03  0.91092055976E+02 0.  0.
        -11    1    1    2    0    0 -0.82400423544E+01 -0.51853122848E+02  0.48239710856E+03  0.48524593249E+03  0.00000000000E+00 0.  1.
         11    1    1    2    0    0  0.30236951105E+02  0.28848319034E+02 -0.28188956573E+02  0.50409483194E+02  0.00000000000E+00 0.  1.
        -15    1    3    3    0    0  0.34794291820E+01 -0.33083647367E+02 -0.20115884900E+03  0.20389868664E+03  0.17770000000E+01 0.  1.
         15    1    3    3    0    0 -0.25476337933E+02  0.56088451181E+02 -0.25304930298E+03  0.26044589768E+03  0.17770000000E+01 0. -1.
</event>
<event>
 7    1  0.1253049E-005  0.4832541E+03  0.7546771E-02  0.9438080E-01
        -11   -1    0    0    0    0  0.00000000000E+00  0.00000000000E+00  0.50000000000E+03  0.50000000000E+03  0.00000000000E+00 0.  1.
         11   -1    0    0    0    0 -0.00000000000E+00 -0.00000000000E+00 -0.50000000000E+03  0.50000000000E+03  0.00000000000E+00 0. -1.
         23    2    1    2    0    0 -0.12551747816E+03 -0.59747947656E+02  0.45777884257E+03  0.48712887873E+03  0.91698534438E+02 0.  0.
        -11    1    1    2    0    0  0.30014022812E+01  0.41169833338E+02 -0.28609165929E+01  0.41378115429E+02  0.00000000000E+00 0.  1.
         11    1    1    2    0    0  0.12251607588E+03  0.18578114317E+02 -0.45491792598E+03  0.47149300584E+03  0.00000000000E+00 0. -1.
        -15    1    3    3    0    0 -0.11098113076E+03 -0.82475940273E+02  0.40250334920E+03  0.42559510800E+03  0.17770000000E+01 0.  1.
         15    1    3    3    0    0 -0.14536347400E+02  0.22727992617E+02  0.55275493373E+02  0.61533770734E+02  0.17770000000E+01 0. -1.
</event>
<event>
 7    1  0.1253049E-005  0.5157012E+03  0.7546771E-02  0.9365347E-01
        -11   -1    0    0    0    0  0.00000000000E+00  0.00000000000E+00  0.50000000000E+03  0.50000000000E+03  0.00000000000E+00 0.  1.
         11   -1    0    0    0    0 -0.00000000000E+00 -0.00000000000E+00 -0.50000000000E+03  0.50000000000E+03  0.00000000000E+00 0. -1.
         23    2    1    2    0    0  0.10358201186E+03 -0.38338966203E+02 -0.26065538702E+03  0.30314847519E+03  0.10843734468E+03 0.  0.
        -11    1    1    2    0    0 -0.23207155510E+03  0.12443065479E+03  0.40645431799E+03  0.48429877880E+03  0.00000000000E+00 0.  1.
         11    1    1    2    0    0  0.12848954323E+03 -0.86091688587E+02 -0.14579893097E+03  0.21255274601E+03  0.00000000000E+00 0. -1.
        -15    1    3    3    0    0 -0.19333903467E+02  0.22436998209E+01 -0.12338898077E+02  0.23113635519E+02  0.17770000000E+01 0.  1.
         15    1    3    3    0    0  0.12291591533E+03 -0.40582666024E+02 -0.24831648894E+03  0.28003483967E+03  0.17770000000E+01 0. -1.
</event>
<event>
 7    1  0.1253049E-005  0.4177558E+03  0.7546771E-02  0.9605346E-01
        -11   -1    0    0    0    0  0.00000000000E+00  0.00000000000E+00  0.50000000000E+03  0.50000000000E+03  0.00000000000E+00 0. -1.
         11   -1    0    0    0    0 -0.00000000000E+00 -0.00000000000E+00 -0.50000000000E+03  0.50000000000E+03  0.00000000000E+00 0.  1.
         23    2    1    2    0    0  0.12255098641E+03 -0.84760447145E+02 -0.34371188201E+03  0.38692256804E+03  0.96789142749E+02 0.  0.
        -11    1    1    2    0    0 -0.10352655204E+03 -0.43170479739E+02  0.43856786624E+03  0.45268444925E+03  0.00000000000E+00 0. -1.
         11    1    1    2    0    0 -0.19024434366E+02  0.12793092688E+03 -0.94855984227E+02  0.16039298270E+03  0.00000000000E+00 0.  1.
        -15    1    3    3    0    0  0.84545199923E+01 -0.25411637744E+02 -0.89358860958E+01  0.28288478758E+02  0.17770000000E+01 0. -1.
         15    1    3    3    0    0  0.11409646641E+03 -0.59348809402E+02 -0.33477599592E+03  0.35863408929E+03  0.17770000000E+01 0.  1.
</event>
<event>
 7    1  0.1253049E-005  0.5278189E+03  0.7546771E-02  0.9339628E-01
        -11   -1    0    0    0    0  0.00000000000E+00  0.00000000000E+00  0.50000000000E+03  0.50000000000E+03  0.00000000000E+00 0.  1.
         11   -1    0    0    0    0 -0.00000000000E+00 -0.00000000000E+00 -0.50000000000E+03  0.50000000000E+03  0.00000000000E+00 0. -1.
         23    2    1    2    0    0  0.81370584421E+00  0.99571718195E+02  0.18014651420E+03  0.23660092244E+03  0.11667065073E+03 0.  0.
        -11    1    1    2    0    0  0.14994630437E+03  0.19280069729E+03  0.15859349898E+03  0.29121796131E+03  0.00000000000E+00 0.  1.
         11    1    1    2    0    0 -0.15076001021E+03 -0.29237241548E+03 -0.33874001318E+03  0.47218111625E+03  0.00000000000E+00 0. -1.
        -15    1    3    3    0    0  0.37642862375E+02  0.69412978715E+02  0.17063131810E+03  0.18802486843E+03  0.17770000000E+01 0.  1.
         15    1    3    3    0    0 -0.36829156531E+02  0.30158739480E+02  0.95151960967E+01  0.48576054014E+02  0.17770000000E+01 0. -1.
</event>
<event>
 7    1  0.1253049E-005  0.5219892E+03  0.7546771E-02  0.9351908E-01
        -11   -1    0    0    0    0  0.00000000000E+00  0.00000000000E+00  0.50000000000E+03  0.50000000000E+03  0.00000000000E+00 0.  1.
         11   -1    0    0    0    0 -0.00000000000E+00 -0.00000000000E+00 -0.50000000000E+03  0.50000000000E+03  0.00000000000E+00 0.  1.
         23    2    1    2    0    0  0.29237107758E+01  0.86998407507E+02 -0.38615786026E+03  0.41022106998E+03  0.10763903669E+03 0.  0.
        -11    1    1    2    0    0 -0.31910614263E+02 -0.27399369402E+02  0.47615685734E+03  0.47801084249E+03  0.00000000000E+00 0.  1.
         11    1    1    2    0    0  0.28986903487E+02 -0.59599038105E+02 -0.89998997071E+02  0.11176808753E+03  0.00000000000E+00 0.  1.
        -15    1    3    3    0    0  0.81820741946E+01  0.23225696503E+02 -0.69503934897E+01  0.25648489523E+02  0.17770000000E+01 0. -1.
         15    1    3    3    0    0 -0.52583634188E+01  0.63772711004E+02 -0.37920746677E+03  0.38457258046E+03  0.17770000000E+01 0.  1.
</event>
<event>
 7    1  0.1253049E-005  0.4675531E+03  0.7546771E-02  0.9475490E-01
        -11   -1    0    0    0    0  0.00000000000E+00  0.00000000000E+00  0.50000000000E+03  0.50000000000E+03  0.00000000000E+00 0.  1.
         11   -1    0    0    0    0 -0.00000000000E+00 -0.00000000000E+00 -0.50000000000E+03  0.50000000000E+03  0.00000000000E+00 0. -1.
         23    2    1    2    0    0  0.34117417171E+02  0.86510674889E+01 -0.42539045590E+03  0.43682225115E+03  0.92832106575E+02 0.  0.
        -11    1    1    2    0    0 -0.68431174791E+02  0.31845911537E+01  0.48693308798E+03  0.49172837977E+03  0.00000000000E+00 0.  1.
         11    1    1    2    0    0  0.34313757619E+02 -0.11835658643E+02 -0.61542632085E+02  0.71449369076E+02  0.00000000000E+00 0. -1.
        -15    1    3    3    0    0 -0.12976118460E+02  0.22029493203E+02 -0.35054551260E+02  0.43424158185E+02  0.17770000000E+01 0.  1.
         15    1    3    3    0    0  0.47093535631E+02 -0.13378425715E+02 -0.39033590464E+03  0.39339809297E+03  0.17770000000E+01 0. -1.
</event>
<event>
 7    1  0.1253049E-005  0.5448983E+03  0.7546771E-02  0.9304596E-01
        -11   -1    0    0    0    0  0.00000000000E+00  0.00000000000E+00  0.50000000000E+03  0.50000000000E+03  0.00000000000E+00 0.  1.
         11   -1    0    0    0    0 -0.00000000000E+00 -0.00000000000E+00 -0.50000000000E+03  0.50000000000E+03  0.00000000000E+00 0.  1.
         23    2    1    2    0    0 -0.60851500982E+02  0.95215674501E+02  0.88386233916E+02  0.18465982827E+03  0.11626777708E+03 0.  0.
        -11    1    1    2    0    0  0.40239872385E+02 -0.84134555488E+01  0.35788507875E+03  0.36023848095E+03  0.00000000000E+00 0.  1.
         11    1    1    2    0    0  0.20611628597E+02 -0.86802218952E+02 -0.44627131267E+03  0.45510169079E+03  0.00000000000E+00 0.  1.
        -15    1    3    3    0    0 -0.21287353192E+02  0.10504712237E+03  0.95104821918E+02  0.14330434119E+03  0.17770000000E+01 0. -1.
         15    1    3    3    0    0 -0.39564147790E+02 -0.98314478645E+01 -0.67185880029E+01  0.41355487075E+02  0.17770000000E+01 0.  1.
</event>
<event>
 7    1  0.1253049E-005  0.4732058E+03  0.7546771E-02  0.9461844E-01
        -11   -1    0    0    0    0  0.00000000000E+00  0.00000000000E+00  0.50000000000E+03  0.50000000000E+03  0.00000000000E+00 0.  1.
         11   -1    0    0    0    0 -0.00000000000E+00 -0.00000000000E+00 -0.50000000000E+03  0.50000000000E+03  0.00000000000E+00 0. -1.
         23    2    1    2    0    0 -0.96378053668E+02  0.69459373441E+01 -0.44839212426E+03  0.46817740446E+03  0.93795573872E+02 0.  0.
        -11    1    1    2    0    0  0.12088243898E+03  0.48763794927E+02  0.45242545716E+03  0.47082827659E+03  0.00000000000E+00 0.  1.
         11    1    1    2    0    0 -0.24504385315E+02 -0.55709732271E+02 -0.40333329053E+01  0.60994318946E+02  0.00000000000E+00 0. -1.
        -15    1    3    3    0    0 -0.49327480656E+02 -0.31231793756E+02 -0.11147785529E+03  0.12585346732E+03  0.17770000000E+01 0. -1.
         15    1    3    3    0    0 -0.47050573012E+02  0.38177731100E+02 -0.33691426897E+03  0.34232393714E+03  0.17770000000E+01 0. -1.
</event>
<event>
 7    1  0.1253049E-005  0.5197707E+03  0.7546771E-02  0.9356626E-01
        -11   -1    0    0    0    0  0.00000000000E+00  0.00000000000E+00  0.50000000000E+03  0.50000000000E+03  0.00000000000E+00 0.  1.
         11   -1    0    0    0    0 -0.00000000000E+00 -0.00000000000E+00 -0.50000000000E+03  0.50000000000E+03  0.00000000000E+00 0. -1.
         23    2    1    2    0    0 -0.31443450111E+02  0.44388239984E+02 -0.33192603334E+03  0.34841756028E+03  0.90889483994E+02 0.  0.
        -11    1    1    2    0    0 -0.63014054172E+02 -0.89507519449E+02  0.46758717585E+03  0.48022925159E+03  0.00000000000E+00 0.  1.
         11    1    1    2    0    0  0.94457504283E+02  0.45119279465E+02 -0.13566114251E+03  0.17135318813E+03  0.00000000000E+00 0. -1.
        -15    1    3    3    0    0  0.19633875994E+01  0.39219520006E+02 -0.29768255540E+03  0.30026669339E+03  0.17770000000E+01 0. -1.
         15    1    3    3    0    0 -0.33406837710E+02  0.51687199775E+01 -0.34243477933E+02  0.48150866887E+02  0.17770000000E+01 0.  1.
</event>
<event>
 7    1  0.1253049E-005  0.4542556E+03  0.7546771E-02  0.9508418E-01
        -11   -1    0    0    0    0  0.00000000000E+00  0.00000000000E+00  0.50000000000E+03  0.50000000000E+03  0.00000000000E+00 0.  1.
         11   -1    0    0    0    0 -0.00000000000E+00 -0.00000000000E+00 -0.50000000000E+03  0.50000000000E+03  0.00000000000E+00 0. -1.
         23    2    1    2    0    0  0.68535408187E+02  0.61186453672E+01 -0.42347529785E+03  0.43906393954E+03  0.93334211974E+02 0.  0.
        -11    1    1    2    0    0 -0.13025187673E+03  0.65265444027E+02  0.44145535793E+03  0.46487413632E+03  0.00000000000E+00 0.  1.
         11    1    1    2    0    0  0.61716468546E+02 -0.71384089394E+02 -0.17980060081E+02  0.96061924137E+02  0.00000000000E+00 0. -1.
        -15    1    3    3    0    0  0.77310505352E+01  0.24460240463E+02 -0.26092322742E+02  0.36633857850E+02  0.17770000000E+01 0.  1.
         15    1    3    3    0    0  0.60804357652E+02 -0.18341595096E+02 -0.39738297510E+03  0.40243008169E+03  0.17770000000E+01 0. -1.
</event>
<event>
 7    1  0.1253049E-005  0.3818053E+03  0.7546771E-02  0.9711743E-01
        -11   -1    0    0    0    0  0.00000000000E+00  0.00000000000E+00  0.50000000000E+03  0.50000000000E+03  0.00000000000E+00 0. -1.
         11   -1    0    0    0    0 -0.00000000000E+00 -0.00000000000E+00 -0.50000000000E+03  0.50000000000E+03  0.00000000000E+00 0. -1.
         23    2    1    2    0    0  0.10594050139E+03  0.71488109192E+02 -0.38750721008E+03  0.41730301412E+03  0.87441569856E+02 0.  0.
        -11    1    1    2    0    0  0.10483466371E+03 -0.43692935158E+02  0.34851052224E+03  0.36655008309E+03  0.00000000000E+00 0. -1.
         11    1    1    2    0    0 -0.21077516511E+03 -0.27795174034E+02  0.38996687833E+02  0.21614690279E+03  0.00000000000E+00 0. -1.
        -15    1    3    3    0    0  0.26761699771E+02  0.59089920000E+02 -0.24854458788E+03  0.25687619024E+03  0.17770000000E+01 0.  1.
         15    1    3    3    0    0  0.79178801624E+02  0.12398189192E+02 -0.13896262220E+03  0.16042682387E+03  0.17770000000E+01 0. -1.
</event>
<event>
 7    1  0.1253049E-005  0.5316712E+03  0.7546771E-02  0.9331605E-01
        -11   -1    0    0    0    0  0.00000000000E+00  0.00000000000E+00  0.50000000000E+03  0.50000000000E+03  0.00000000000E+00 0. -1.
         11   -1    0    0    0    0 -0.00000000000E+00 -0.00000000000E+00 -0.50000000000E+03  0.50000000000E+03  0.00000000000E+00 0. -1.
         23    2    1    2    0    0 -0.51115119666E+02  0.11828894775E+03 -0.15421960566E+03  0.22150274215E+03  0.93138323977E+02 0.  0.
        -11    1    1    2    0    0  0.88484268890E+01 -0.87667932483E+02  0.45996514267E+03  0.46832883054E+03  0.00000000000E+00 0. -1.
         11    1    1    2    0    0  0.42266692777E+02 -0.30621015272E+02 -0.30574553701E+03  0.31016842731E+03  0.00000000000E+00 0. -1.
        -15    1    3    3    0    0 -0.14883666757E+02 -0.70531432607E+01  0.33678936045E+01  0.16904756796E+02  0.17770000000E+01 0.  1.
         15    1    3    3    0    0 -0.36231452908E+02  0.12534209102E+03 -0.15758749926E+03  0.20459798536E+03  0.17770000000E+01 0. -1.
</event>
<event>
 7    1  0.1253049E-005  0.5270050E+03  0.7546771E-02  0.9341332E-01
        -11   -1    0    0    0    0  0.00000000000E+00  0.00000000000E+00  0.50000000000E+03  0.50000000000E+03  0.00000000000E+00 0.  1.
         11   -1    0    0    0    0 -0.00000000000E+00 -0.00000000000E+00 -0.50000000000E+03  0.50000000000E+03  0.00000000000E+00 0. -1.
         23    2    1    2    0    0 -0.57155877735E+02 -0.38187582164E+02 -0.11263261593E+03  0.15971298894E+03  0.89983592247E+02 0.  0.
        -11    1    1    2    0    0  0.12920478130E+03 -0.10690881231E+03  0.44226789745E+03  0.47299499234E+03  0.00000000000E+00 0.  1.
         11    1    1    2    0    0 -0.72048903564E+02  0.14509639448E+03 -0.32963528152E+03  0.36729201872E+03  0.00000000000E+00 0. -1.
        -15    1    3    3    0    0 -0.48866049224E+02 -0.66796794422E+02 -0.75163997484E+02  0.11181451944E+03  0.17770000000E+01 0. -1.
         15    1    3    3    0    0 -0.82898285108E+01  0.28609212258E+02 -0.37468618445E+02  0.47898469495E+02  0.17770000000E+01 0.  1.
</event>
<event>
 7    1  0.1253049E-005  0.4323259E+03  0.7546771E-02  0.9565433E-01
        -11   -1    0    0    0    0  0.00000000000E+00  0.00000000000E+00  0.50000000000E+03  0.50000000000E+03  0.00000000000E+00 0. -1.
         11   -1    0    0    0    0 -0.00000000000E+00 -0.00000000000E+00 -0.50000000000E+03  0.50000000000E+03  0.00000000000E+00 0.  1.
         23    2    1    2    0    0 -0.92108876019E+02 -0.13820060753E+02 -0.18233440123E+02  0.13015513474E+03  0.89066613491E+02 0.  0.
        -11    1    1    2    0    0 -0.14207717001E+03 -0.21846825648E+03  0.32692228513E+03  0.41808190805E+03  0.00000000000E+00 0. -1.
         11    1    1    2    0    0  0.23418604603E+03  0.23228831723E+03 -0.30868884501E+03  0.45176295721E+03  0.00000000000E+00 0.  1.
        -15    1    3    3    0    0  0.12067025796E+02 -0.13630306768E+02  0.11744735009E+02  0.21736947890E+02  0.17770000000E+01 0.  1.
         15    1    3    3    0    0 -0.10417590182E+03 -0.18975398532E+00 -0.29978175132E+02  0.10841818685E+03  0.17770000000E+01 0. -1.
</event>
<event>
 7    1  0.1253049E-005  0.4049374E+03  0.7546771E-02  0.9641924E-01
        -11   -1    0    0    0    0  0.00000000000E+00  0.00000000000E+00  0.50000000000E+03  0.50000000000E+03  0.00000000000E+00 0.  1.
         11   -1    0    0    0    0 -0.00000000000E+00 -0.00000000000E+00 -0.50000000000E+03  0.50000000000E+03  0.00000000000E+00 0. -1.
         23    2    1    2    0    0 -0.11631546836E+03 -0.80156512202E+02 -0.51424630746E+02  0.17629131930E+03  0.92085731721E+02 0.  0.
        -11    1    1    2    0    0  0.16777547093E+03 -0.34085002424E+03  0.11008236518E+03  0.39553188847E+03  0.00000000000E+00 0.  1.
         11    1    1    2    0    0 -0.51460002569E+02  0.42100653645E+03 -0.58657734432E+02  0.42817679223E+03  0.00000000000E+00 0. -1.
        -15    1    3    3    0    0  0.15524966731E+00  0.27908735212E+01  0.17314453488E+02  0.17628417571E+02  0.17770000000E+01 0.  1.
         15    1    3    3    0    0 -0.11647071802E+03 -0.82947385723E+02 -0.68739084234E+02  0.15866290173E+03  0.17770000000E+01 0. -1.
</event>
<event>
 7    1  0.1253049E-005  0.3334930E+03  0.7546771E-02  0.9876302E-01
        -11   -1    0    0    0    0  0.00000000000E+00  0.00000000000E+00  0.50000000000E+03  0.50000000000E+03  0.00000000000E+00 0.  1.
         11   -1    0    0    0    0 -0.00000000000E+00 -0.00000000000E+00 -0.50000000000E+03  0.50000000000E+03  0.00000000000E+00 0. -1.
         23    2    1    2    0    0  0.63050164335E+02  0.48167286551E+02 -0.25427665545E+03  0.28179220675E+03  0.91950092758E+02 0.  0.
        -11    1    1    2    0    0  0.96662622265E+02  0.15460070862E+03  0.38712308779E+03  0.42791275600E+03  0.00000000000E+00 0.  1.
         11    1    1    2    0    0 -0.15971278660E+03 -0.20276799517E+03 -0.13284643233E+03  0.29029503725E+03  0.00000000000E+00 0. -1.
        -15    1    3    3    0    0 -0.10978737848E+02  0.93353446582E+01 -0.42717450424E+00  0.14526580867E+02  0.17770000000E+01 0. -1.
         15    1    3    3    0    0  0.74028902184E+02  0.38831941893E+02 -0.25384948095E+03  0.26726562588E+03  0.17770000000E+01 0.  1.
</event>
<event>
 7    1  0.1253049E-005  0.3968003E+03  0.7546771E-02  0.9665902E-01
        -11   -1    0    0    0    0  0.00000000000E+00  0.00000000000E+00  0.50000000000E+03  0.50000000000E+03  0.00000000000E+00 0.  1.
         11   -1    0    0    0    0 -0.00000000000E+00 -0.00000000000E+00 -0.50000000000E+03  0.50000000000E+03  0.00000000000E+00 0. -1.
         23    2    1    2    0    0  0.14481192816E+03  0.30130764121E+03 -0.24360092586E+03  0.42357179090E+03  0.91185863892E+02 0.  0.
        -11    1    1    2    0    0 -0.38892167727E+02  0.61069974440E+02  0.17941184279E+03  0.19347028666E+03  0.00000000000E+00 0.  1.
         11    1    1    2    0    0 -0.10591976043E+03 -0.36237761565E+03  0.64189083076E+02  0.38295792244E+03  0.00000000000E+00 0. -1.
        -15    1    3    3    0    0  0.96554222490E+02  0.15132684834E+03 -0.17829282489E+03  0.25300992480E+03  0.17770000000E+01 0. -1.
         15    1    3    3    0    0  0.48257705670E+02  0.14998079287E+03 -0.65308100972E+02  0.17056186610E+03  0.17770000000E+01 0.  1.
</event>
<event>
 7    1  0.1253049E-005  0.4736593E+03  0.7546771E-02  0.9460758E-01
        -11   -1    0    0    0    0  0.00000000000E+00  0.00000000000E+00  0.50000000000E+03  0.50000000000E+03  0.00000000000E+00 0. -1.
         11   -1    0    0    0    0 -0.00000000000E+00 -0.00000000000E+00 -0.50000000000E+03  0.50000000000E+03  0.00000000000E+00 0. -1.
         23    2    1    2    0    0 -0.83861901018E+02 -0.74575214877E+02 -0.42602655019E+03  0.45014673768E+03  0.92407699180E+02 0.  0.
        -11    1    1    2    0    0  0.90487878441E+02  0.47806316716E+02  0.47917211188E+03  0.48997899227E+03  0.00000000000E+00 0. -1.
         11    1    1    2    0    0 -0.66259774224E+01  0.26768898162E+02 -0.53145561696E+02  0.59874270046E+02  0.00000000000E+00 0. -1.
        -15    1    3    3    0    0  0.14659011523E+02 -0.26453359140E+01 -0.14296942208E+02  0.20723047711E+02  0.17770000000E+01 0.  1.
         15    1    3    3    0    0 -0.98520912541E+02 -0.71929878963E+02 -0.41172960798E+03  0.42942368997E+03  0.17770000000E+01 0. -1.
</event>
<event>
 7    1  0.1253049E-005  0.5135885E+03  0.7546771E-02  0.9369907E-01
        -11   -1    0    0    0    0  0.00000000000E+00  0.00000000000E+00  0.50000000000E+03  0.50000000000E+03  0.00000000000E+00 0.  1.
         11   -1    0    0    0    0 -0.00000000000E+00 -0.00000000000E+00 -0.50000000000E+03  0.50000000000E+03  0.00000000000E+00 0. -1.
         23    2    1    2    0    0 -0.59188316047E+02  0.89684356060E+02  0.22586813205E+03  0.26515011061E+03  0.87986519425E+02 0.  0.
        -11    1    1    2    0    0 -0.61555356062E+02 -0.18800432248E+02  0.23995649007E+03  0.24843839325E+03  0.00000000000E+00 0.  1.
         11    1    1    2    0    0  0.12074367211E+03 -0.70883923812E+02 -0.46582462212E+03  0.48641149615E+03  0.00000000000E+00 0. -1.
        -15    1    3    3    0    0 -0.65681384219E+01  0.85730786771E+02  0.14436818022E+03  0.16804236796E+03  0.17770000000E+01 0.  1.
         15    1    3    3    0    0 -0.52620177625E+02  0.39535692889E+01  0.81499951837E+02  0.97107742646E+02  0.17770000000E+01 0. -1.
</event>
<event>
 7    1  0.1253049E-005  0.4611246E+03  0.7546771E-02  0.9491261E-01
        -11   -1    0    0    0    0  0.00000000000E+00  0.00000000000E+00  0.50000000000E+03  0.50000000000E+03  0.00000000000E+00 0.  1.
         11   -1    0    0    0    0 -0.00000000000E+00 -0.00000000000E+00 -0.50000000000E+03  0.50000000000E+03  0.00000000000E+00 0.  1.
         23    2    1    2    0    0 -0.75417668295E+02  0.14242988047E+03 -0.40280749473E+03  0.44319850084E+03  0.90536941556E+02 0.  0.
        -11    1    1    2    0    0  0.29354933712E+02 -0.10539746936E+03  0.46103183979E+03  0.47383614888E+03  0.00000000000E+00 0.  1.
         11    1    1    2    0    0  0.46062734583E+02 -0.37032411116E+02 -0.58224345059E+02  0.82965350285E+02  0.00000000000E+00 0.  1.
        -15    1    3    3    0    0  0.19684899523E+02  0.35079665934E+02 -0.69133019152E+02  0.80003814267E+02  0.17770000000E+01 0. -1.
         15    1    3    3    0    0 -0.95102567818E+02  0.10735021454E+03 -0.33367447558E+03  0.36319468657E+03  0.17770000000E+01 0.  1.
</event>
<event>
 7    1  0.1253049E-005  0.4689399E+03  0.7546771E-02  0.9472123E-01
        -11   -1    0    0    0    0  0.00000000000E+00  0.00000000000E+00  0.50000000000E+03  0.50000000000E+03  0.00000000000E+00 0.  1.
         11   -1    0    0    0    0 -0.00000000000E+00 -0.00000000000E+00 -0.50000000000E+03  0.50000000000E+03  0.00000000000E+00 0. -1.
         23    2    1    2    0    0 -0.22656560329E+02 -0.26756782528E+01 -0.44189356000E+03  0.45181844677E+03  0.91375661379E+02 0.  0.
        -11    1    1    2    0    0  0.69600259960E+02  0.42089006505E+02  0.47265356286E+03  0.47960094989E+03  0.00000000000E+00 0.  1.
         11    1    1    2    0    0 -0.46943699631E+02 -0.39413328253E+02 -0.30760002861E+02  0.68580603344E+02  0.00000000000E+00 0. -1.
        -15    1    3    3    0    0  0.74386932995E+01  0.17391074324E+02 -0.17336461649E+02  0.25719530626E+02  0.17770000000E+01 0.  1.
         15    1    3    3    0    0 -0.30095253628E+02 -0.20066752576E+02 -0.42455709835E+03  0.42609891614E+03  0.17770000000E+01 0. -1.
</event>
<event>
 7    1  0.1408089E-005  0.5298245E+03  0.7546771E-02  0.9335442E-01
        -11   -1    0    0    0    0  0.00000000000E+00  0.00000000000E+00  0.50000000000E+03  0.50000000000E+03  0.00000000000E+00 0. -1.
         11   -1    0    0    0    0 -0.00000000000E+00 -0.00000000000E+00 -0.50000000000E+03  0.50000000000E+03  0.00000000000E+00 0. -1.
         23    2    1    2    0    0  0.44231939831E+02 -0.80131027122E+02 -0.11497545180E+03  0.17475087089E+03  0.94557212059E+02 0.  0.
        -11    1    1    2    0    0 -0.21718091302E+02  0.44612817765E+02  0.46755004822E+03  0.47017552742E+03  0.00000000000E+00 0. -1.
         11    1    1    2    0    0 -0.22513848528E+02  0.35518209357E+02 -0.35257459642E+03  0.35507360169E+03  0.00000000000E+00 0. -1.
        -15    1    3    3    0    0  0.23848658368E+01 -0.28561807505E+02  0.12252976713E+02  0.31221108250E+02  0.17770000000E+01 0.  1.
         15    1    3    3    0    0  0.41847073994E+02 -0.51569219617E+02 -0.12722842851E+03  0.14352976264E+03  0.17770000000E+01 0. -1.
</event>
<event>
 7    1  0.1253049E-005  0.5315000E+03  0.7546771E-02  0.9331960E-01
        -11   -1    0    0    0    0  0.00000000000E+00  0.00000000000E+00  0.50000000000E+03  0.50000000000E+03  0.00000000000E+00 0. -1.
         11   -1    0    0    0    0 -0.00000000000E+00 -0.00000000000E+00 -0.50000000000E+03  0.50000000000E+03  0.00000000000E+00 0. -1.
         23    2    1    2    0    0 -0.16907060299E+02 -0.12585063151E+03 -0.24773161021E+03  0.29299866900E+03  0.91394962671E+02 0.  0.
        -11    1    1    2    0    0  0.21442297027E+02  0.31937938295E+02  0.46691806893E+03  0.46850003959E+03  0.00000000000E+00 0. -1.
         11    1    1    2    0    0 -0.45352367276E+01  0.93912693214E+02 -0.21918645872E+03  0.23850129141E+03  0.00000000000E+00 0. -1.
        -15    1    3    3    0    0  0.34313643035E+02 -0.24306684207E+02 -0.55782572023E+02  0.69879138990E+02  0.17770000000E+01 0.  1.
         15    1    3    3    0    0 -0.51220703334E+02 -0.10154394730E+03 -0.19194903818E+03  0.22311953001E+03  0.17770000000E+01 0. -1.
</event>
<event>
 7    1  0.1253049E-005  0.3436972E+03  0.7546771E-02  0.9839152E-01
        -11   -1    0    0    0    0  0.00000000000E+00  0.00000000000E+00  0.50000000000E+03  0.50000000000E+03  0.00000000000E+00 0.  1.
         11   -1    0    0    0    0 -0.00000000000E+00 -0.00000000000E+00 -0.50000000000E+03  0.50000000000E+03  0.00000000000E+00 0. -1.
         23    2    1    2    0    0  0.13491594418E+03  0.19911505305E+03  0.53420939382E+02  0.26978504389E+03  0.10991386081E+03 0.  0.
        -11    1    1    2    0    0  0.77705495861E+01 -0.74719700926E+02  0.31079407611E+03  0.31974423042E+03  0.00000000000E+00 0.  1.
         11    1    1    2    0    0 -0.14268649377E+03 -0.12439535212E+03 -0.36421501549E+03  0.41047072568E+03  0.00000000000E+00 0. -1.
        -15    1    3    3    0    0 -0.44660776596E+01  0.52071722842E+02 -0.17460122880E+02  0.55130969422E+02  0.17770000000E+01 0. -1.
         15    1    3    3    0    0  0.13938202184E+03  0.14704333021E+03  0.70881062262E+02  0.21465407447E+03  0.17770000000E+01 0.  1.
</event>
<event>
 7    1  0.1253049E-005  0.5352917E+03  0.7546771E-02  0.9324130E-01
        -11   -1    0    0    0    0  0.00000000000E+00  0.00000000000E+00  0.50000000000E+03  0.50000000000E+03  0.00000000000E+00 0. -1.
         11   -1    0    0    0    0 -0.00000000000E+00 -0.00000000000E+00 -0.50000000000E+03  0.50000000000E+03  0.00000000000E+00 0.  1.
         23    2    1    2    0    0 -0.96956168676E+01 -0.37686104139E+02  0.56084089478E+02  0.11592929027E+03  0.93701269033E+02 0.  0.
        -11    1    1    2    0    0  0.62487301670E+02  0.10920549428E+03  0.40004289725E+03  0.41936239995E+03  0.00000000000E+00 0. -1.
         11    1    1    2    0    0 -0.52791684803E+02 -0.71519390146E+02 -0.45612698673E+03  0.46470830978E+03  0.00000000000E+00 0.  1.
        -15    1    3    3    0    0 -0.42068808262E+02 -0.50150457897E+02  0.27819494644E+02  0.71147277299E+02  0.17770000000E+01 0.  1.
         15    1    3    3    0    0  0.32373191394E+02  0.12464353758E+02  0.28264594834E+02  0.44782012972E+02  0.17770000000E+01 0. -1.
</event>
<event>
 7    1  0.1253049E-005  0.5316390E+03  0.7546771E-02  0.9331671E-01
        -11   -1    0    0    0    0  0.00000000000E+00  0.00000000000E+00  0.50000000000E+03  0.50000000000E+03  0.00000000000E+00 0.  1.
         11   -1    0    0    0    0 -0.00000000000E+00 -0.00000000000E+00 -0.50000000000E+03  0.50000000000E+03  0.00000000000E+00 0. -1.
         23    2    1    2    0    0 -0.20872145336E+01 -0.92674848784E+02 -0.69807726254E+02  0.14434568409E+03  0.85846221867E+02 0.  0.
        -11    1    1    2    0    0 -0.17020533716E+03  0.13923771373E+03  0.41352752563E+03  0.46836098490E+03  0.00000000000E+00 0.  1.
         11    1    1    2    0    0  0.17229255170E+03 -0.46562864941E+02 -0.34371979938E+03  0.38729333101E+03  0.00000000000E+00 0. -1.
        -15    1    3    3    0    0 -0.32938163685E+02 -0.67210691097E+02 -0.72492443272E+02  0.10421377877E+03  0.17770000000E+01 0. -1.
         15    1    3    3    0    0  0.30850949151E+02 -0.25464157687E+02  0.26847170174E+01  0.40131905321E+02  0.17770000000E+01 0.  1.
</event>
<event>
 7    1  0.1253049E-005  0.3780133E+03  0.7546771E-02  0.9723692E-01
        -11   -1    0    0    0    0  0.00000000000E+00  0.00000000000E+00  0.50000000000E+03  0.50000000000E+03  0.00000000000E+00 0. -1.
         11   -1    0    0    0    0 -0.00000000000E+00 -0.00000000000E+00 -0.50000000000E+03  0.50000000000E+03  0.00000000000E+00 0. -1.
         23    2    1    2    0    0 -0.17607645967E+02 -0.41706840447E+02 -0.34244753102E+03  0.35749207643E+03  0.92091169360E+02 0.  0.
        -11    1    1    2    0    0  0.95607401015E+01 -0.17768643499E+03  0.38016651480E+03  0.41975046862E+03  0.00000000000E+00 0. -1.
         11    1    1    2    0    0  0.80469058657E+01  0.21939327543E+03 -0.37718983782E+02  0.22275745495E+03  0.00000000000E+00 0. -1.
        -15    1    3    3    0    0 -0.23028161824E+00  0.28035214892E+02 -0.63656002293E+02  0.69579240155E+02  0.17770000000E+01 0.  1.
         15    1    3    3    0    0 -0.17377364349E+02 -0.69742055339E+02 -0.27879152872E+03  0.28791283628E+03  0.17770000000E+01 0. -1.
</event>
<event>
 7    1  0.1253049E-005  0.5191385E+03  0.7546771E-02  0.9357976E-01
        -11   -1    0    0    0    0  0.00000000000E+00  0.00000000000E+00  0.50000000000E+03  0.50000000000E+03  0.00000000000E+00 0. -1.
         11   -1    0    0    0    0 -0.00000000000E+00 -0.00000000000E+00 -0.50000000000E+03  0.50000000000E+03  0.00000000000E+00 0. -1.
         23    2    1    2    0    0  0.26855964840E+02  0.62932384750E+01 -0.22287869033E+03  0.24242793242E+03  0.91299201076E+02 0.  0.
        -11    1    1    2    0    0  0.71123899158E+02 -0.94974747295E+02  0.46599242886E+03  0.48086147216E+03  0.00000000000E+00 0. -1.
         11    1    1    2    0    0 -0.97979863998E+02  0.88681508820E+02 -0.24311373853E+03  0.27671059542E+03  0.00000000000E+00 0. -1.
        -15    1    3    3    0    0  0.41439148868E+02 -0.28826759619E+02 -0.80390866924E+02  0.94942268473E+02  0.17770000000E+01 0. -1.
         15    1    3    3    0    0 -0.14583184028E+02  0.35119998094E+02 -0.14248782340E+03  0.14748566395E+03  0.17770000000E+01 0.  1.
</event>
