<event>
 7    1  0.4412602E-007  0.1412956E+03  0.7546771E-02  0.1106998E+00
        -11   -1    0    0    0    0  0.00000000000E+00  0.00000000000E+00  0.18250000000E+03  0.18250000000E+03  0.00000000000E+00 0. -1.
         11   -1    0    0    0    0 -0.00000000000E+00 -0.00000000000E+00 -0.18250000000E+03  0.18250000000E+03  0.00000000000E+00 0.  1.
         23    2    1    2    0    0  0.20992812580E+02 -0.81682305068E+01  0.74623971221E+02  0.12228214121E+03  0.94216595183E+02 0.  0.
        -11    1    1    2    0    0  0.80496359465E+02  0.56041751674E+02  0.14847898548E+02  0.99200816071E+02  0.00000000000E+00 0. -1.
         11    1    1    2    0    0 -0.10148917205E+03 -0.47873521168E+02 -0.89471869770E+02  0.14351704272E+03  0.00000000000E+00 0.  1.
        -15    1    3    3    0    0  0.33200794765E+02  0.37918359189E+01 -0.10787406528E+02  0.35159588468E+02  0.17770000000E+01 0. -1.
         15    1    3    3    0    0 -0.12207982185E+02 -0.11960066426E+02  0.85411377749E+02  0.87122552740E+02  0.17770000000E+01 0.  1.
</event>
<event>
 7    1  0.4412602E-007  0.1294305E+03  0.7546771E-02  0.1120871E+00
        -11   -1    0    0    0    0  0.00000000000E+00  0.00000000000E+00  0.18250000000E+03  0.18250000000E+03  0.00000000000E+00 0. -1.
         11   -1    0    0    0    0 -0.00000000000E+00 -0.00000000000E+00 -0.18250000000E+03  0.18250000000E+03  0.00000000000E+00 0.  1.
         23    2    1    2    0    0 -0.19823430589E+02  0.30033511538E+02 -0.29034267089E+02  0.10204194884E+03  0.90964775835E+02 0.  0.
        -11    1    1    2    0    0 -0.84059105999E+02 -0.63991144338E+02  0.89141427826E+02  0.13822805073E+03  0.00000000000E+00 0. -1.
         11    1    1    2    0    0  0.10388253659E+03  0.33957632801E+02 -0.60107160737E+02  0.12473000042E+03  0.00000000000E+00 0.  1.
        -15    1    3    3    0    0 -0.21698476655E+02  0.31756572243E+02  0.26295406864E+02  0.46625206926E+02  0.17770000000E+01 0. -1.
         15    1    3    3    0    0  0.18750460656E+01 -0.17230607051E+01 -0.55329673953E+02  0.55416741917E+02  0.17770000000E+01 0.  1.
</event>
<event>
 7    1  0.4412602E-007  0.1524619E+03  0.7546771E-02  0.1095248E+00
        -11   -1    0    0    0    0  0.00000000000E+00  0.00000000000E+00  0.18250000000E+03  0.18250000000E+03  0.00000000000E+00 0. -1.
         11   -1    0    0    0    0 -0.00000000000E+00 -0.00000000000E+00 -0.18250000000E+03  0.18250000000E+03  0.00000000000E+00 0. -1.
         23    2    1    2    0    0 -0.52856559169E+01  0.21534760189E+02 -0.13095930781E+03  0.15904323842E+03  0.87479868141E+02 0.  0.
        -11    1    1    2    0    0  0.70642896332E+02  0.11762309313E+02  0.10707269900E+03  0.12881511399E+03  0.00000000000E+00 0. -1.
         11    1    1    2    0    0 -0.65357240415E+02 -0.33297069501E+02  0.23886608810E+02  0.77141647587E+02  0.00000000000E+00 0. -1.
        -15    1    3    3    0    0  0.14067375251E+02 -0.17677364584E+02 -0.18713957379E+01  0.22738516136E+02  0.17770000000E+01 0.  1.
         15    1    3    3    0    0 -0.19353031168E+02  0.39212124772E+02 -0.12908791207E+03  0.13630472228E+03  0.17770000000E+01 0. -1.
</event>
<event>
 7    1  0.4412602E-007  0.1467639E+03  0.7546771E-02  0.1101100E+00
        -11   -1    0    0    0    0  0.00000000000E+00  0.00000000000E+00  0.18250000000E+03  0.18250000000E+03  0.00000000000E+00 0. -1.
         11   -1    0    0    0    0 -0.00000000000E+00 -0.00000000000E+00 -0.18250000000E+03  0.18250000000E+03  0.00000000000E+00 0. -1.
         23    2    1    2    0    0  0.50963528719E+02  0.14898882854E+02 -0.87966046453E+02  0.13596289174E+03  0.89042824710E+02 0.  0.
        -11    1    1    2    0    0  0.14467988632E+02 -0.55358888573E+02  0.12952395991E+03  0.14159938358E+03  0.00000000000E+00 0. -1.
         11    1    1    2    0    0 -0.65431517351E+02  0.40460005719E+02 -0.41557913460E+02  0.87437724677E+02  0.00000000000E+00 0. -1.
        -15    1    3    3    0    0  0.38194321680E+02  0.51913954825E+02 -0.54414455625E+02  0.84367977481E+02  0.17770000000E+01 0. -1.
         15    1    3    3    0    0  0.12769207040E+02 -0.37015071972E+02 -0.33551590828E+02  0.51594914261E+02  0.17770000000E+01 0.  1.
</event>
<event>
 7    1  0.4412602E-007  0.1274246E+03  0.7546771E-02  0.1123379E+00
        -11   -1    0    0    0    0  0.00000000000E+00  0.00000000000E+00  0.18250000000E+03  0.18250000000E+03  0.00000000000E+00 0. -1.
         11   -1    0    0    0    0 -0.00000000000E+00 -0.00000000000E+00 -0.18250000000E+03  0.18250000000E+03  0.00000000000E+00 0. -1.
         23    2    1    2    0    0  0.15625487727E+02 -0.10368320089E+02 -0.48295130579E+02  0.10493801243E+03  0.91257377164E+02 0.  0.
        -11    1    1    2    0    0  0.91410692479E+02  0.38946211342E+01  0.10458217221E+03  0.13895507733E+03  0.00000000000E+00 0. -1.
         11    1    1    2    0    0 -0.10703618021E+03  0.64736989546E+01 -0.56287041629E+02  0.12110691024E+03  0.00000000000E+00 0. -1.
        -15    1    3    3    0    0  0.45415250232E+02 -0.32318509139E+02 -0.24536096595E+02  0.60927897976E+02  0.17770000000E+01 0.  1.
         15    1    3    3    0    0 -0.29789762505E+02  0.21950189050E+02 -0.23759033984E+02  0.44010114454E+02  0.17770000000E+01 0. -1.
</event>
<event>
 7    1  0.4412602E-007  0.1483564E+03  0.7546771E-02  0.1099436E+00
        -11   -1    0    0    0    0  0.00000000000E+00  0.00000000000E+00  0.18250000000E+03  0.18250000000E+03  0.00000000000E+00 0. -1.
         11   -1    0    0    0    0 -0.00000000000E+00 -0.00000000000E+00 -0.18250000000E+03  0.18250000000E+03  0.00000000000E+00 0. -1.
         23    2    1    2    0    0 -0.45643159655E+02 -0.59505236198E+02 -0.57457205967E+02  0.13303775418E+03  0.93667189350E+02 0.  0.
        -11    1    1    2    0    0  0.96224021485E+02  0.86189596220E+01  0.10746466835E+03  0.14450606810E+03  0.00000000000E+00 0. -1.
         11    1    1    2    0    0 -0.50580861830E+02  0.50886276576E+02 -0.50007462381E+02  0.87456177718E+02  0.00000000000E+00 0. -1.
        -15    1    3    3    0    0 -0.59766505455E+02 -0.74644213629E+02 -0.33530815722E+02  0.10134726012E+03  0.17770000000E+01 0.  1.
         15    1    3    3    0    0  0.14123345799E+02  0.15138977431E+02 -0.23926390245E+02  0.31690494054E+02  0.17770000000E+01 0. -1.
</event>
<event>
 7    1  0.4412602E-007  0.1175393E+03  0.7546771E-02  0.1136529E+00
        -11   -1    0    0    0    0  0.00000000000E+00  0.00000000000E+00  0.18250000000E+03  0.18250000000E+03  0.00000000000E+00 0. -1.
         11   -1    0    0    0    0 -0.00000000000E+00 -0.00000000000E+00 -0.18250000000E+03  0.18250000000E+03  0.00000000000E+00 0. -1.
         23    2    1    2    0    0  0.12290931011E+02  0.82665782483E+02 -0.34289736523E+02  0.11316187311E+03  0.68155153262E+02 0.  0.
        -11    1    1    2    0    0  0.60339480156E+02 -0.12272283553E+02  0.10961518706E+03  0.12572569762E+03  0.00000000000E+00 0. -1.
         11    1    1    2    0    0 -0.72630411168E+02 -0.70393498930E+02 -0.75325450533E+02  0.12611242927E+03  0.00000000000E+00 0. -1.
        -15    1    3    3    0    0  0.14872719245E+02  0.82409687621E+02 -0.49726132627E+02  0.97408420512E+02  0.17770000000E+01 0. -1.
         15    1    3    3    0    0 -0.25817882338E+01  0.25609486203E+00  0.15436396104E+02  0.15753452598E+02  0.17770000000E+01 0.  1.
</event>
<event>
 7    1  0.4412602E-007  0.1666444E+03  0.7546771E-02  0.1081827E+00
        -11   -1    0    0    0    0  0.00000000000E+00  0.00000000000E+00  0.18250000000E+03  0.18250000000E+03  0.00000000000E+00 0. -1.
         11   -1    0    0    0    0 -0.00000000000E+00 -0.00000000000E+00 -0.18250000000E+03  0.18250000000E+03  0.00000000000E+00 0.  1.
         23    2    1    2    0    0 -0.18675621787E+02 -0.11428596246E+02 -0.13964659094E+03  0.16829299984E+03  0.91334395347E+02 0.  0.
        -11    1    1    2    0    0  0.36129627494E+02  0.60291600758E+02  0.12395993319E+03  0.14250084962E+03  0.00000000000E+00 0. -1.
         11    1    1    2    0    0 -0.17454005707E+02 -0.48863004513E+02  0.15686657749E+02  0.54206150542E+02  0.00000000000E+00 0.  1.
        -15    1    3    3    0    0 -0.90927655066E+01 -0.30370008010E+02 -0.14321660477E+03  0.14669413548E+03  0.17770000000E+01 0.  1.
         15    1    3    3    0    0 -0.95828562804E+01  0.18941411764E+02  0.35700138342E+01  0.21598864366E+02  0.17770000000E+01 0. -1.
</event>
<event>
 7    1  0.4412602E-007  0.1643750E+03  0.7546771E-02  0.1083874E+00
        -11   -1    0    0    0    0  0.00000000000E+00  0.00000000000E+00  0.18250000000E+03  0.18250000000E+03  0.00000000000E+00 0. -1.
         11   -1    0    0    0    0 -0.00000000000E+00 -0.00000000000E+00 -0.18250000000E+03  0.18250000000E+03  0.00000000000E+00 0.  1.
         23    2    1    2    0    0 -0.28054736516E+02  0.51416002598E+02 -0.11800194178E+03  0.16226414660E+03  0.94733950846E+02 0.  0.
        -11    1    1    2    0    0 -0.27402562873E+02 -0.35311572534E+02  0.13526822096E+03  0.14246157099E+03  0.00000000000E+00 0. -1.
         11    1    1    2    0    0  0.55457299389E+02 -0.16104430064E+02 -0.17266279183E+02  0.60274282410E+02  0.00000000000E+00 0.  1.
        -15    1    3    3    0    0 -0.50250439211E+02  0.44814888344E+02 -0.12136002623E+03  0.13879803512E+03  0.17770000000E+01 0.  1.
         15    1    3    3    0    0  0.22195702695E+02  0.66011142535E+01  0.33580844515E+01  0.23466111473E+02  0.17770000000E+01 0. -1.
</event>
<event>
 7    1  0.4412602E-007  0.1462651E+03  0.7546771E-02  0.1101626E+00
        -11   -1    0    0    0    0  0.00000000000E+00  0.00000000000E+00  0.18250000000E+03  0.18250000000E+03  0.00000000000E+00 0.  1.
         11   -1    0    0    0    0 -0.00000000000E+00 -0.00000000000E+00 -0.18250000000E+03  0.18250000000E+03  0.00000000000E+00 0. -1.
         23    2    1    2    0    0  0.13205108246E+02 -0.37071917643E+02 -0.98699337569E+02  0.14283654903E+03  0.95456893620E+02 0.  0.
        -11    1    1    2    0    0  0.68514253761E+02  0.75391847056E+02  0.81084057651E+02  0.13020275718E+03  0.00000000000E+00 0.  1.
         11    1    1    2    0    0 -0.81719362007E+02 -0.38319929414E+02  0.17615279918E+02  0.91960693797E+02  0.00000000000E+00 0. -1.
        -15    1    3    3    0    0  0.14461647181E+01 -0.29949262918E+02  0.11207046459E+02  0.32059403629E+02  0.17770000000E+01 0.  1.
         15    1    3    3    0    0  0.11758943528E+02 -0.71226547251E+01 -0.10990638403E+03  0.11077714540E+03  0.17770000000E+01 0. -1.
</event>
<event>
 7    1  0.4412602E-007  0.1888869E+03  0.7546771E-02  0.1063482E+00
        -11   -1    0    0    0    0  0.00000000000E+00  0.00000000000E+00  0.18250000000E+03  0.18250000000E+03  0.00000000000E+00 0.  1.
         11   -1    0    0    0    0 -0.00000000000E+00 -0.00000000000E+00 -0.18250000000E+03  0.18250000000E+03  0.00000000000E+00 0. -1.
         23    2    1    2    0    0 -0.12374817608E+03  0.26397661374E+02 -0.10030209210E+03  0.18521222386E+03  0.90733734515E+02 0.  0.
        -11    1    1    2    0    0 -0.30194036062E+01  0.66799659772E+01 -0.72302126609E+01  0.10296344920E+02  0.00000000000E+00 0. -1.
         11    1    1    2    0    0  0.12676757968E+03 -0.33077627351E+02  0.10753230476E+03  0.16949143122E+03  0.00000000000E+00 0.  1.
        -15    1    3    3    0    0 -0.11635939016E+03  0.33047506088E+02 -0.45121525032E+02  0.12911527828E+03  0.17770000000E+01 0. -1.
         15    1    3    3    0    0 -0.73887859216E+01 -0.66498447142E+01 -0.55180567068E+02  0.56096945577E+02  0.17770000000E+01 0.  1.
</event>
<event>
 7    1  0.4412602E-007  0.1616260E+03  0.7546771E-02  0.1086403E+00
        -11   -1    0    0    0    0  0.00000000000E+00  0.00000000000E+00  0.18250000000E+03  0.18250000000E+03  0.00000000000E+00 0. -1.
         11   -1    0    0    0    0 -0.00000000000E+00 -0.00000000000E+00 -0.18250000000E+03  0.18250000000E+03  0.00000000000E+00 0. -1.
         23    2    1    2    0    0  0.94584955376E+01  0.14892617184E+02 -0.10879258328E+03  0.14363241769E+03  0.92104245551E+02 0.  0.
        -11    1    1    2    0    0 -0.59938311931E+02 -0.36535365197E+02  0.14113560346E+03  0.15762833727E+03  0.00000000000E+00 0. -1.
         11    1    1    2    0    0  0.50479816393E+02  0.21642748014E+02 -0.32343020175E+02  0.63739245044E+02  0.00000000000E+00 0. -1.
        -15    1    3    3    0    0  0.13572632812E+02  0.43684780556E+02 -0.19596096880E+02  0.49796999464E+02  0.17770000000E+01 0.  1.
         15    1    3    3    0    0 -0.41141372745E+01 -0.28792163373E+02 -0.89196486403E+02  0.93835418221E+02  0.17770000000E+01 0. -1.
</event>
<event>
 7    1  0.4412602E-007  0.1451081E+03  0.7546771E-02  0.1102856E+00
        -11   -1    0    0    0    0  0.00000000000E+00  0.00000000000E+00  0.18250000000E+03  0.18250000000E+03  0.00000000000E+00 0.  1.
         11   -1    0    0    0    0 -0.00000000000E+00 -0.00000000000E+00 -0.18250000000E+03  0.18250000000E+03  0.00000000000E+00 0. -1.
         23    2    1    2    0    0  0.26378272191E+02 -0.55819452788E+02  0.64717560222E+02  0.12693145176E+03  0.90064456314E+02 0.  0.
        -11    1    1    2    0    0 -0.57358216121E+02  0.49191089345E+01  0.70076634841E+02  0.90691219751E+02  0.00000000000E+00 0.  1.
         11    1    1    2    0    0  0.30979943930E+02  0.50900343854E+02 -0.13479419506E+03  0.14737732849E+03  0.00000000000E+00 0. -1.
        -15    1    3    3    0    0  0.60056629302E+02 -0.36617834969E+02  0.42956460664E+02  0.82438339398E+02  0.17770000000E+01 0. -1.
         15    1    3    3    0    0 -0.33678357111E+02 -0.19201617819E+02  0.21761099558E+02  0.44493112361E+02  0.17770000000E+01 0.  1.
</event>
<event>
 7    1  0.4412602E-007  0.1819199E+03  0.7546771E-02  0.1068917E+00
        -11   -1    0    0    0    0  0.00000000000E+00  0.00000000000E+00  0.18250000000E+03  0.18250000000E+03  0.00000000000E+00 0. -1.
         11   -1    0    0    0    0 -0.00000000000E+00 -0.00000000000E+00 -0.18250000000E+03  0.18250000000E+03  0.00000000000E+00 0. -1.
         23    2    1    2    0    0 -0.76676874664E+02 -0.69524454683E+02  0.10631085178E+03  0.17500677480E+03  0.92802915426E+02 0.  0.
        -11    1    1    2    0    0  0.64783663746E+01 -0.22557052620E+02  0.10328600803E+02  0.25641174862E+02  0.00000000000E+00 0. -1.
         11    1    1    2    0    0  0.70198508289E+02  0.92081507302E+02 -0.11663945258E+03  0.16435205034E+03  0.00000000000E+00 0. -1.
        -15    1    3    3    0    0 -0.76035492072E+02 -0.50001457592E+02  0.12034459016E+03  0.15088909810E+03  0.17770000000E+01 0. -1.
         15    1    3    3    0    0 -0.64138259151E+00 -0.19522997090E+02 -0.14033738384E+02  0.24117676693E+02  0.17770000000E+01 0.  1.
</event>
<event>
 7    1  0.4412602E-007  0.1507902E+03  0.7546771E-02  0.1096936E+00
        -11   -1    0    0    0    0  0.00000000000E+00  0.00000000000E+00  0.18250000000E+03  0.18250000000E+03  0.00000000000E+00 0. -1.
         11   -1    0    0    0    0 -0.00000000000E+00 -0.00000000000E+00 -0.18250000000E+03  0.18250000000E+03  0.00000000000E+00 0.  1.
         23    2    1    2    0    0  0.46695914131E+02 -0.10404886506E+03 -0.14844827280E+02  0.14488699137E+03  0.88120353233E+02 0.  0.
        -11    1    1    2    0    0 -0.50993976776E+02 -0.30032666252E+02  0.54262127342E+02  0.80291501252E+02  0.00000000000E+00 0. -1.
         11    1    1    2    0    0  0.42980626443E+01  0.13408153131E+03 -0.39417300062E+02  0.13982150738E+03  0.00000000000E+00 0.  1.
        -15    1    3    3    0    0 -0.12833467081E+02 -0.66265365287E+02 -0.28079314098E+02  0.73125933315E+02  0.17770000000E+01 0.  1.
         15    1    3    3    0    0  0.59529381212E+02 -0.37783499774E+02  0.13234486819E+02  0.71761058054E+02  0.17770000000E+01 0. -1.
</event>
<event>
 7    1  0.4412602E-007  0.1624390E+03  0.7546771E-02  0.1085649E+00
        -11   -1    0    0    0    0  0.00000000000E+00  0.00000000000E+00  0.18250000000E+03  0.18250000000E+03  0.00000000000E+00 0.  1.
         11   -1    0    0    0    0 -0.00000000000E+00 -0.00000000000E+00 -0.18250000000E+03  0.18250000000E+03  0.00000000000E+00 0. -1.
         23    2    1    2    0    0 -0.17094435004E+02  0.12516423316E+03 -0.39431381353E+02  0.15989414187E+03  0.89738496736E+02 0.  0.
        -11    1    1    2    0    0 -0.34910221156E+02 -0.12050425094E+03  0.70935734301E+02  0.14412451712E+03  0.00000000000E+00 0.  1.
         11    1    1    2    0    0  0.52004656161E+02 -0.46599822226E+01 -0.31504352949E+02  0.60981341010E+02  0.00000000000E+00 0. -1.
        -15    1    3    3    0    0 -0.77975090825E+01  0.38946649815E+01  0.21922394061E+02  0.23658373857E+02  0.17770000000E+01 0.  1.
         15    1    3    3    0    0 -0.92969259219E+01  0.12126956818E+03 -0.61353775414E+02  0.13623576801E+03  0.17770000000E+01 0. -1.
</event>
<event>
 7    1  0.4412602E-007  0.1334052E+03  0.7546771E-02  0.1116047E+00
        -11   -1    0    0    0    0  0.00000000000E+00  0.00000000000E+00  0.18250000000E+03  0.18250000000E+03  0.00000000000E+00 0. -1.
         11   -1    0    0    0    0 -0.00000000000E+00 -0.00000000000E+00 -0.18250000000E+03  0.18250000000E+03  0.00000000000E+00 0.  1.
         23    2    1    2    0    0 -0.12431284407E+02  0.34914164354E+01  0.22605182361E+02  0.96922481884E+02  0.93360839779E+02 0.  0.
        -11    1    1    2    0    0  0.80824324243E+02  0.10030763462E+03  0.31332643896E+02  0.13257423402E+03  0.00000000000E+00 0. -1.
         11    1    1    2    0    0 -0.68393039836E+02 -0.10379905106E+03 -0.53937826257E+02  0.13550328409E+03  0.00000000000E+00 0.  1.
        -15    1    3    3    0    0 -0.39053090341E+02  0.39939021649E+00 -0.21995670033E+02  0.44858339324E+02  0.17770000000E+01 0. -1.
         15    1    3    3    0    0  0.26621805934E+02  0.30920262189E+01  0.44600852393E+02  0.52064142560E+02  0.17770000000E+01 0.  1.
</event>
<event>
 7    1  0.4412602E-007  0.1838617E+03  0.7546771E-02  0.1067376E+00
        -11   -1    0    0    0    0  0.00000000000E+00  0.00000000000E+00  0.18250000000E+03  0.18250000000E+03  0.00000000000E+00 0. -1.
         11   -1    0    0    0    0 -0.00000000000E+00 -0.00000000000E+00 -0.18250000000E+03  0.18250000000E+03  0.00000000000E+00 0.  1.
         23    2    1    2    0    0 -0.15211087641E+02  0.31734480234E+02 -0.15571330297E+03  0.18386170737E+03  0.91214254885E+02 0.  0.
        -11    1    1    2    0    0  0.40922264156E+02 -0.47074798511E+02  0.99109040835E+02  0.11710367344E+03  0.00000000000E+00 0.  1.
         11    1    1    2    0    0 -0.25711176515E+02  0.15340318278E+02  0.56604262132E+02  0.64034619185E+02  0.00000000000E+00 0. -1.
        -15    1    3    3    0    0 -0.37470914572E+02 -0.17195685699E+02 -0.89506404428E+02  0.98561225683E+02  0.17770000000E+01 0. -1.
         15    1    3    3    0    0  0.22259826932E+02  0.48930165933E+02 -0.66206898539E+02  0.85300481689E+02  0.17770000000E+01 0.  1.
</event>
<event>
 7    1  0.4412602E-007  0.1350418E+03  0.7546771E-02  0.1114114E+00
        -11   -1    0    0    0    0  0.00000000000E+00  0.00000000000E+00  0.18250000000E+03  0.18250000000E+03  0.00000000000E+00 0. -1.
         11   -1    0    0    0    0 -0.00000000000E+00 -0.00000000000E+00 -0.18250000000E+03  0.18250000000E+03  0.00000000000E+00 0.  1.
         23    2    1    2    0    0 -0.43475732615E+02 -0.21649415593E+02  0.50263843453E+02  0.11396205300E+03  0.90011438398E+02 0.  0.
        -11    1    1    2    0    0  0.57906864337E+02 -0.39881350981E+02  0.79845550589E+02  0.10639097256E+03  0.00000000000E+00 0. -1.
         11    1    1    2    0    0 -0.14431131722E+02  0.61530766574E+02 -0.13010939404E+03  0.14464697444E+03  0.00000000000E+00 0.  1.
        -15    1    3    3    0    0  0.11401850101E+02 -0.29224449896E+02  0.49379821713E+02  0.58528584289E+02  0.17770000000E+01 0. -1.
         15    1    3    3    0    0 -0.54877582716E+02  0.75750343035E+01  0.88402174047E+00  0.55433468707E+02  0.17770000000E+01 0.  1.
</event>
<event>
 7    1  0.4412602E-007  0.1417978E+03  0.7546771E-02  0.1106444E+00
        -11   -1    0    0    0    0  0.00000000000E+00  0.00000000000E+00  0.18250000000E+03  0.18250000000E+03  0.00000000000E+00 0.  1.
         11   -1    0    0    0    0 -0.00000000000E+00 -0.00000000000E+00 -0.18250000000E+03  0.18250000000E+03  0.00000000000E+00 0. -1.
         23    2    1    2    0    0  0.30904509042E+02 -0.40862530810E+02 -0.81024625487E+02  0.13102049457E+03  0.89311505188E+02 0.  0.
        -11    1    1    2    0    0 -0.10188222691E+03 -0.22326580077E+02  0.91012685444E+02  0.13842605698E+03  0.00000000000E+00 0.  1.
         11    1    1    2    0    0  0.70977717872E+02  0.63189110887E+02 -0.99880599569E+01  0.95553448450E+02  0.00000000000E+00 0. -1.
        -15    1    3    3    0    0  0.32377037604E+02  0.31849530608E+00  0.75665751323E+01  0.33298420256E+02  0.17770000000E+01 0.  1.
         15    1    3    3    0    0 -0.14725285617E+01 -0.41181026116E+02 -0.88591200620E+02  0.97722074316E+02  0.17770000000E+01 0. -1.
</event>
<event>
 7    1  0.4412602E-007  0.1426333E+03  0.7546771E-02  0.1105528E+00
        -11   -1    0    0    0    0  0.00000000000E+00  0.00000000000E+00  0.18250000000E+03  0.18250000000E+03  0.00000000000E+00 0. -1.
         11   -1    0    0    0    0 -0.00000000000E+00 -0.00000000000E+00 -0.18250000000E+03  0.18250000000E+03  0.00000000000E+00 0. -1.
         23    2    1    2    0    0  0.16366925436E+02 -0.55430904194E+02 -0.81552850510E+02  0.13928309217E+03  0.96997169808E+02 0.  0.
        -11    1    1    2    0    0 -0.67876959746E+02 -0.55023744197E+02  0.46083165931E+02  0.98785384911E+02  0.00000000000E+00 0. -1.
         11    1    1    2    0    0  0.51510034310E+02  0.11045464839E+03  0.35469684579E+02  0.12693152292E+03  0.00000000000E+00 0. -1.
        -15    1    3    3    0    0 -0.39947792784E+02 -0.28894650611E+02 -0.46613792570E+02  0.67872898635E+02  0.17770000000E+01 0.  1.
         15    1    3    3    0    0  0.56314718220E+02 -0.26536253584E+02 -0.34939057939E+02  0.71410193538E+02  0.17770000000E+01 0. -1.
</event>
<event>
 7    1  0.4412602E-007  0.1506901E+03  0.7546771E-02  0.1097037E+00
        -11   -1    0    0    0    0  0.00000000000E+00  0.00000000000E+00  0.18250000000E+03  0.18250000000E+03  0.00000000000E+00 0. -1.
         11   -1    0    0    0    0 -0.00000000000E+00 -0.00000000000E+00 -0.18250000000E+03  0.18250000000E+03  0.00000000000E+00 0.  1.
         23    2    1    2    0    0 -0.54159998146E+02  0.52942217119E+02 -0.85013624177E+02  0.14607482092E+03  0.91511492497E+02 0.  0.
        -11    1    1    2    0    0  0.25203987108E+02  0.64857642227E+01  0.13409034704E+03  0.13659255936E+03  0.00000000000E+00 0. -1.
         11    1    1    2    0    0  0.28956011038E+02 -0.59427981342E+02 -0.49076722866E+02  0.82332619713E+02  0.00000000000E+00 0.  1.
        -15    1    3    3    0    0  0.24016712371E+02  0.26812374345E+02 -0.21159899193E+02  0.41792403066E+02  0.17770000000E+01 0.  1.
         15    1    3    3    0    0 -0.78176710517E+02  0.26129842775E+02 -0.63853724984E+02  0.10428241786E+03  0.17770000000E+01 0. -1.
</event>
<event>
 7    1  0.4412602E-007  0.1687528E+03  0.7546771E-02  0.1079957E+00
        -11   -1    0    0    0    0  0.00000000000E+00  0.00000000000E+00  0.18250000000E+03  0.18250000000E+03  0.00000000000E+00 0.  1.
         11   -1    0    0    0    0 -0.00000000000E+00 -0.00000000000E+00 -0.18250000000E+03  0.18250000000E+03  0.00000000000E+00 0. -1.
         23    2    1    2    0    0 -0.13935336403E+02  0.72323754425E+01 -0.14233994157E+03  0.16981355823E+03  0.91266010856E+02 0.  0.
        -11    1    1    2    0    0  0.52700098743E+02 -0.36716382300E+02  0.12991200249E+03  0.14492246729E+03  0.00000000000E+00 0.  1.
         11    1    1    2    0    0 -0.38764762340E+02  0.29484006858E+02  0.12427939089E+02  0.50263974472E+02  0.00000000000E+00 0. -1.
        -15    1    3    3    0    0  0.18428710616E+02  0.15099605013E+02 -0.28197534585E+00  0.23892523635E+02  0.17770000000E+01 0.  1.
         15    1    3    3    0    0 -0.32364047020E+02 -0.78672295704E+01 -0.14205796623E+03  0.14592103460E+03  0.17770000000E+01 0. -1.
</event>
<event>
 7    1  0.4412602E-007  0.1647347E+03  0.7546771E-02  0.1083547E+00
        -11   -1    0    0    0    0  0.00000000000E+00  0.00000000000E+00  0.18250000000E+03  0.18250000000E+03  0.00000000000E+00 0.  1.
         11   -1    0    0    0    0 -0.00000000000E+00 -0.00000000000E+00 -0.18250000000E+03  0.18250000000E+03  0.00000000000E+00 0.  1.
         23    2    1    2    0    0  0.86971776779E+01  0.76286549474E+02  0.93757046415E+02  0.14864286040E+03  0.86075766997E+02 0.  0.
        -11    1    1    2    0    0  0.36229364677E+02  0.40397953763E+02  0.83819025077E+01  0.54907356728E+02  0.00000000000E+00 0.  1.
         11    1    1    2    0    0 -0.44926542355E+02 -0.11668450324E+03 -0.10213894892E+03  0.16144978288E+03  0.00000000000E+00 0.  1.
        -15    1    3    3    0    0  0.93837021940E+01 -0.81325857554E+01 -0.91496650837E+01  0.15526329833E+02  0.17770000000E+01 0. -1.
         15    1    3    3    0    0 -0.68652451609E+00  0.84419135229E+02  0.10290671150E+03  0.13311653056E+03  0.17770000000E+01 0.  1.
</event>
<event>
 7    1  0.4421836E-007  0.1586635E+03  0.7546771E-02  0.1089190E+00
        -11   -1    0    0    0    0  0.00000000000E+00  0.00000000000E+00  0.18250000000E+03  0.18250000000E+03  0.00000000000E+00 0.  1.
         11   -1    0    0    0    0 -0.00000000000E+00 -0.00000000000E+00 -0.18250000000E+03  0.18250000000E+03  0.00000000000E+00 0. -1.
         23    2    1    2    0    0 -0.18358847069E+02  0.12819022872E+02  0.95828534838E+02  0.13280775496E+03  0.89181932443E+02 0.  0.
        -11    1    1    2    0    0 -0.23687040989E+02  0.17350589418E+02  0.60647236748E+02  0.67381052153E+02  0.00000000000E+00 0.  1.
         11    1    1    2    0    0  0.42045888058E+02 -0.30169612290E+02 -0.15647577159E+03  0.16481119289E+03  0.00000000000E+00 0. -1.
        -15    1    3    3    0    0 -0.21821808484E+01 -0.26120951798E+02 -0.19151649593E+01  0.26341822676E+02  0.17770000000E+01 0. -1.
         15    1    3    3    0    0 -0.16176666220E+02  0.38939974670E+02  0.97743699798E+02  0.10646593228E+03  0.17770000000E+01 0.  1.
</event>
<event>
 7    1  0.4412602E-007  0.1604450E+03  0.7546771E-02  0.1087506E+00
        -11   -1    0    0    0    0  0.00000000000E+00  0.00000000000E+00  0.18250000000E+03  0.18250000000E+03  0.00000000000E+00 0.  1.
         11   -1    0    0    0    0 -0.00000000000E+00 -0.00000000000E+00 -0.18250000000E+03  0.18250000000E+03  0.00000000000E+00 0.  1.
         23    2    1    2    0    0  0.62183607045E+02  0.61241168733E+02 -0.10020906127E+03  0.16115186119E+03  0.91163505161E+02 0.  0.
        -11    1    1    2    0    0  0.31448641616E+02  0.27708467105E+02  0.50099232066E+02  0.65320052530E+02  0.00000000000E+00 0.  1.
         11    1    1    2    0    0 -0.93632248661E+02 -0.88949635838E+02  0.50109829201E+02  0.13852808628E+03  0.00000000000E+00 0.  1.
        -15    1    3    3    0    0  0.85684638439E+02  0.50181538416E+02 -0.86638745268E+02  0.13179330018E+03  0.17770000000E+01 0.  1.
         15    1    3    3    0    0 -0.23501031394E+02  0.11059630317E+02 -0.13570315999E+02  0.29358561011E+02  0.17770000000E+01 0. -1.
</event>
<event>
 7    1  0.4412602E-007  0.1612781E+03  0.7546771E-02  0.1086726E+00
        -11   -1    0    0    0    0  0.00000000000E+00  0.00000000000E+00  0.18250000000E+03  0.18250000000E+03  0.00000000000E+00 0. -1.
         11   -1    0    0    0    0 -0.00000000000E+00 -0.00000000000E+00 -0.18250000000E+03  0.18250000000E+03  0.00000000000E+00 0. -1.
         23    2    1    2    0    0 -0.68125265646E+02 -0.31475289356E+02 -0.11667613045E+03  0.16634866881E+03  0.91797682640E+02 0.  0.
        -11    1    1    2    0    0  0.81258508165E+01  0.53345865004E+02  0.12315921972E+03  0.13446190600E+03  0.00000000000E+00 0. -1.
         11    1    1    2    0    0  0.59999414829E+02 -0.21870575647E+02 -0.64830892646E+01  0.64189425184E+02  0.00000000000E+00 0. -1.
        -15    1    3    3    0    0 -0.32562620114E+02 -0.40225810597E+02 -0.89479716159E+01  0.52551536532E+02  0.17770000000E+01 0. -1.
         15    1    3    3    0    0 -0.35562645532E+02  0.87505212403E+01 -0.10772815884E+03  0.11379713228E+03  0.17770000000E+01 0.  1.
</event>
<event>
 7    1  0.4412602E-007  0.1452281E+03  0.7546771E-02  0.1102728E+00
        -11   -1    0    0    0    0  0.00000000000E+00  0.00000000000E+00  0.18250000000E+03  0.18250000000E+03  0.00000000000E+00 0.  1.
         11   -1    0    0    0    0 -0.00000000000E+00 -0.00000000000E+00 -0.18250000000E+03  0.18250000000E+03  0.00000000000E+00 0. -1.
         23    2    1    2    0    0  0.90129116387E+02 -0.46745002368E+02 -0.50572146131E+02  0.14444482552E+03  0.89433845882E+02 0.  0.
        -11    1    1    2    0    0 -0.27162103550E+02  0.56545004851E+02  0.11433144404E+03  0.13041010903E+03  0.00000000000E+00 0.  1.
         11    1    1    2    0    0 -0.62967012837E+02 -0.98000024828E+01 -0.63759297905E+02  0.90145065442E+02  0.00000000000E+00 0. -1.
        -15    1    3    3    0    0  0.87547998297E+02 -0.62097445322E+02 -0.18750582838E+02  0.10897470719E+03  0.17770000000E+01 0.  1.
         15    1    3    3    0    0  0.25811180899E+01  0.15352442953E+02 -0.31821563293E+02  0.35470118334E+02  0.17770000000E+01 0. -1.
</event>
<event>
 7    1  0.4412602E-007  0.1899974E+03  0.7546771E-02  0.1062639E+00
        -11   -1    0    0    0    0  0.00000000000E+00  0.00000000000E+00  0.18250000000E+03  0.18250000000E+03  0.00000000000E+00 0.  1.
         11   -1    0    0    0    0 -0.00000000000E+00 -0.00000000000E+00 -0.18250000000E+03  0.18250000000E+03  0.00000000000E+00 0.  1.
         23    2    1    2    0    0 -0.14692799703E+02 -0.28783661261E+02 -0.16316618626E+03  0.18999742925E+03  0.91822879864E+02 0.  0.
        -11    1    1    2    0    0  0.26886140750E+02  0.16791307053E+02  0.15028553325E+03  0.15359216796E+03  0.00000000000E+00 0.  1.
         11    1    1    2    0    0 -0.12193341046E+02  0.11992354208E+02  0.12880653011E+02  0.21410402783E+02  0.00000000000E+00 0.  1.
        -15    1    3    3    0    0  0.27956882538E+02 -0.62684434927E+01 -0.11648378705E+02  0.30979398324E+02  0.17770000000E+01 0. -1.
         15    1    3    3    0    0 -0.42649682241E+02 -0.22515217769E+02 -0.15151780755E+03  0.15901803093E+03  0.17770000000E+01 0.  1.
</event>
<event>
 7    1  0.4412602E-007  0.2129401E+03  0.7546771E-02  0.1046515E+00
        -11   -1    0    0    0    0  0.00000000000E+00  0.00000000000E+00  0.18250000000E+03  0.18250000000E+03  0.00000000000E+00 0.  1.
         11   -1    0    0    0    0 -0.00000000000E+00 -0.00000000000E+00 -0.18250000000E+03  0.18250000000E+03  0.00000000000E+00 0.  1.
         23    2    1    2    0    0 -0.19005034451E+02  0.39117484882E+02 -0.62140809984E+02  0.11877536391E+03  0.91404255087E+02 0.  0.
        -11    1    1    2    0    0  0.28942046927E+02 -0.46555859840E+01  0.14920759423E+03  0.15205993139E+03  0.00000000000E+00 0.  1.
         11    1    1    2    0    0 -0.99370124761E+01 -0.34461898898E+02 -0.87066784241E+02  0.94164704697E+02  0.00000000000E+00 0.  1.
        -15    1    3    3    0    0 -0.64699621773E+01 -0.11288939727E+02 -0.65395942169E+02  0.66701480883E+02  0.17770000000E+01 0.  1.
         15    1    3    3    0    0 -0.12535072274E+02  0.50406424610E+02  0.32551321849E+01  0.52073883026E+02  0.17770000000E+01 0. -1.
</event>
<event>
 7    1  0.4412602E-007  0.1530830E+03  0.7546771E-02  0.1094627E+00
        -11   -1    0    0    0    0  0.00000000000E+00  0.00000000000E+00  0.18250000000E+03  0.18250000000E+03  0.00000000000E+00 0. -1.
         11   -1    0    0    0    0 -0.00000000000E+00 -0.00000000000E+00 -0.18250000000E+03  0.18250000000E+03  0.00000000000E+00 0. -1.
         23    2    1    2    0    0 -0.15787152439E+02 -0.78141802357E+02 -0.64490817525E+02  0.13648967649E+03  0.90083243639E+02 0.  0.
        -11    1    1    2    0    0 -0.11803308680E+02 -0.67577514597E+02  0.36062808302E+02  0.77502030409E+02  0.00000000000E+00 0. -1.
         11    1    1    2    0    0  0.27590461120E+02  0.14571931695E+03  0.28428009222E+02  0.15100829311E+03  0.00000000000E+00 0. -1.
        -15    1    3    3    0    0 -0.13538007765E+02  0.12197763284E+02  0.86204182944E+01  0.20236907470E+02  0.17770000000E+01 0.  1.
         15    1    3    3    0    0 -0.22491446742E+01 -0.90339565640E+02 -0.73111235819E+02  0.11625276902E+03  0.17770000000E+01 0. -1.
</event>
<event>
 7    1  0.4412602E-007  0.1851541E+03  0.7546771E-02  0.1066362E+00
        -11   -1    0    0    0    0  0.00000000000E+00  0.00000000000E+00  0.18250000000E+03  0.18250000000E+03  0.00000000000E+00 0. -1.
         11   -1    0    0    0    0 -0.00000000000E+00 -0.00000000000E+00 -0.18250000000E+03  0.18250000000E+03  0.00000000000E+00 0. -1.
         23    2    1    2    0    0  0.31751819494E+02 -0.54162204216E+01 -0.15748951891E+03  0.19139960360E+03  0.10389103045E+03 0.  0.
        -11    1    1    2    0    0 -0.33737319593E+02  0.25568681769E+02  0.14179916694E+03  0.14798299891E+03  0.00000000000E+00 0. -1.
         11    1    1    2    0    0  0.19855000985E+01 -0.20152461347E+02  0.15690351973E+02  0.25617397487E+02  0.00000000000E+00 0. -1.
        -15    1    3    3    0    0  0.25004121000E+02  0.34260828932E+02 -0.17827438578E+02  0.46043303111E+02  0.17770000000E+01 0.  1.
         15    1    3    3    0    0  0.67476984939E+01 -0.39677049354E+02 -0.13966208034E+03  0.14535630049E+03  0.17770000000E+01 0. -1.
</event>
<event>
 7    1  0.4412602E-007  0.2119988E+03  0.7546771E-02  0.1047132E+00
        -11   -1    0    0    0    0  0.00000000000E+00  0.00000000000E+00  0.18250000000E+03  0.18250000000E+03  0.00000000000E+00 0.  1.
         11   -1    0    0    0    0 -0.00000000000E+00 -0.00000000000E+00 -0.18250000000E+03  0.18250000000E+03  0.00000000000E+00 0. -1.
         23    2    1    2    0    0 -0.30540250616E+02 -0.35440629468E+02 -0.26155521772E+02  0.10756992758E+03  0.93265389487E+02 0.  0.
        -11    1    1    2    0    0  0.10515170597E+03  0.55085284212E+02  0.96530290036E+02  0.15300119836E+03  0.00000000000E+00 0.  1.
         11    1    1    2    0    0 -0.74611455350E+02 -0.19644654744E+02 -0.70374768264E+02  0.10442887406E+03  0.00000000000E+00 0. -1.
        -15    1    3    3    0    0  0.31306754956E+00  0.13474693518E+02  0.26213725085E+02  0.29529349612E+02  0.17770000000E+01 0.  1.
         15    1    3    3    0    0 -0.30853318165E+02 -0.48915322986E+02 -0.52369246856E+02  0.78040577970E+02  0.17770000000E+01 0. -1.
</event>
<event>
 7    1  0.4412602E-007  0.1398216E+03  0.7546771E-02  0.1108638E+00
        -11   -1    0    0    0    0  0.00000000000E+00  0.00000000000E+00  0.18250000000E+03  0.18250000000E+03  0.00000000000E+00 0. -1.
         11   -1    0    0    0    0 -0.00000000000E+00 -0.00000000000E+00 -0.18250000000E+03  0.18250000000E+03  0.00000000000E+00 0.  1.
         23    2    1    2    0    0  0.46424347146E+02 -0.50360591533E+02  0.39073654008E+02  0.12133590187E+03  0.92218444237E+02 0.  0.
        -11    1    1    2    0    0 -0.53592157219E+02 -0.30233708975E+02  0.79242288615E+02  0.10032714876E+03  0.00000000000E+00 0. -1.
         11    1    1    2    0    0  0.71678100727E+01  0.80594300508E+02 -0.11831594262E+03  0.14333694937E+03  0.00000000000E+00 0.  1.
        -15    1    3    3    0    0 -0.27352001945E+02 -0.41816291124E+01  0.11514442293E+02  0.30022627179E+02  0.17770000000E+01 0.  1.
         15    1    3    3    0    0  0.73776349091E+02 -0.46178962420E+02  0.27559211715E+02  0.91313274691E+02  0.17770000000E+01 0. -1.
</event>
<event>
 7    1  0.4412602E-007  0.2173674E+03  0.7546771E-02  0.1043657E+00
        -11   -1    0    0    0    0  0.00000000000E+00  0.00000000000E+00  0.18250000000E+03  0.18250000000E+03  0.00000000000E+00 0.  1.
         11   -1    0    0    0    0 -0.00000000000E+00 -0.00000000000E+00 -0.18250000000E+03  0.18250000000E+03  0.00000000000E+00 0.  1.
         23    2    1    2    0    0 -0.36778537722E+02  0.41914896694E+02 -0.19503308022E+02  0.11213343352E+03  0.95310064990E+02 0.  0.
        -11    1    1    2    0    0  0.48315493845E+02 -0.71349518489E+02  0.11987601042E+03  0.14763264750E+03  0.00000000000E+00 0.  1.
         11    1    1    2    0    0 -0.11536956123E+02  0.29434621795E+02 -0.10037270240E+03  0.10523391898E+03  0.00000000000E+00 0.  1.
        -15    1    3    3    0    0  0.98088508599E+01 -0.24940346739E+02  0.43507994405E+01  0.27208852152E+02  0.17770000000E+01 0.  1.
         15    1    3    3    0    0 -0.46587388582E+02  0.66855243434E+02 -0.23854107462E+02  0.84924581372E+02  0.17770000000E+01 0. -1.
</event>
<event>
 7    1  0.4412602E-007  0.1610531E+03  0.7546771E-02  0.1086936E+00
        -11   -1    0    0    0    0  0.00000000000E+00  0.00000000000E+00  0.18250000000E+03  0.18250000000E+03  0.00000000000E+00 0.  1.
         11   -1    0    0    0    0 -0.00000000000E+00 -0.00000000000E+00 -0.18250000000E+03  0.18250000000E+03  0.00000000000E+00 0. -1.
         23    2    1    2    0    0 -0.34118596389E+02 -0.36244749566E+02 -0.11384737982E+03  0.15457977774E+03  0.91956083556E+02 0.  0.
        -11    1    1    2    0    0  0.29553461164E+02 -0.22299630354E+02  0.14096021811E+03  0.14574108436E+03  0.00000000000E+00 0.  1.
         11    1    1    2    0    0  0.45651352251E+01  0.58544379920E+02 -0.27112838289E+02  0.64679137903E+02  0.00000000000E+00 0. -1.
        -15    1    3    3    0    0  0.28132343468E+01  0.17596114139E+02  0.53248351073E+01  0.18682856265E+02  0.17770000000E+01 0.  1.
         15    1    3    3    0    0 -0.36931830735E+02 -0.53840863706E+02 -0.11917221493E+03  0.13589692147E+03  0.17770000000E+01 0. -1.
</event>
<event>
 7    1  0.4412602E-007  0.1709796E+03  0.7546771E-02  0.1078014E+00
        -11   -1    0    0    0    0  0.00000000000E+00  0.00000000000E+00  0.18250000000E+03  0.18250000000E+03  0.00000000000E+00 0.  1.
         11   -1    0    0    0    0 -0.00000000000E+00 -0.00000000000E+00 -0.18250000000E+03  0.18250000000E+03  0.00000000000E+00 0. -1.
         23    2    1    2    0    0 -0.54841513698E+02  0.32418997840E+02 -0.98574733174E+02  0.15977706746E+03  0.10841194685E+03 0.  0.
        -11    1    1    2    0    0  0.10839014461E+03 -0.14297631806E+02  0.10071812997E+03  0.14865055475E+03  0.00000000000E+00 0.  1.
         11    1    1    2    0    0 -0.53548630908E+02 -0.18121366034E+02 -0.21433967950E+01  0.56572377790E+02  0.00000000000E+00 0. -1.
        -15    1    3    3    0    0 -0.39446420847E+02  0.69126525177E+02 -0.40422861732E+02  0.89284164779E+02  0.17770000000E+01 0.  1.
         15    1    3    3    0    0 -0.15395092851E+02 -0.36707527337E+02 -0.58151871443E+02  0.70492902681E+02  0.17770000000E+01 0. -1.
</event>
<event>
 7    1  0.4412602E-007  0.1672963E+03  0.7546771E-02  0.1081245E+00
        -11   -1    0    0    0    0  0.00000000000E+00  0.00000000000E+00  0.18250000000E+03  0.18250000000E+03  0.00000000000E+00 0.  1.
         11   -1    0    0    0    0 -0.00000000000E+00 -0.00000000000E+00 -0.18250000000E+03  0.18250000000E+03  0.00000000000E+00 0.  1.
         23    2    1    2    0    0  0.12190666706E+03 -0.25980827639E+02  0.11855440047E+02  0.15454710132E+03  0.90598102573E+02 0.  0.
        -11    1    1    2    0    0 -0.15607272149E+03  0.60733945391E+01  0.22833598561E+02  0.15785104921E+03  0.00000000000E+00 0.  1.
         11    1    1    2    0    0  0.34166054431E+02  0.19907433100E+02 -0.34689038608E+02  0.52601849469E+02  0.00000000000E+00 0.  1.
        -15    1    3    3    0    0 -0.12913692810E+01  0.13447093017E+02  0.20807900682E+02  0.24872040629E+02  0.17770000000E+01 0. -1.
         15    1    3    3    0    0  0.12319803634E+03 -0.39427920657E+02 -0.89524606346E+01  0.12967506069E+03  0.17770000000E+01 0.  1.
</event>
<event>
 7    1  0.4412602E-007  0.1379357E+03  0.7546771E-02  0.1110769E+00
        -11   -1    0    0    0    0  0.00000000000E+00  0.00000000000E+00  0.18250000000E+03  0.18250000000E+03  0.00000000000E+00 0.  1.
         11   -1    0    0    0    0 -0.00000000000E+00 -0.00000000000E+00 -0.18250000000E+03  0.18250000000E+03  0.00000000000E+00 0.  1.
         23    2    1    2    0    0 -0.51539664253E+02 -0.41631879565E+02 -0.11067038139E+03  0.15703999664E+03  0.89577211617E+02 0.  0.
        -11    1    1    2    0    0  0.10163295729E+03  0.36064930721E+01  0.30714643720E+02  0.10623395944E+03  0.00000000000E+00 0.  1.
         11    1    1    2    0    0 -0.50093293034E+02  0.38025386493E+02  0.79955737670E+02  0.10172604392E+03  0.00000000000E+00 0.  1.
        -15    1    3    3    0    0 -0.44069751811E+02  0.17400928191E+02 -0.71452105386E+02  0.85752530106E+02  0.17770000000E+01 0.  1.
         15    1    3    3    0    0 -0.74699124420E+01 -0.59032807756E+02 -0.39218276004E+02  0.71287466536E+02  0.17770000000E+01 0. -1.
</event>
<event>
 7    1  0.4412602E-007  0.1466222E+03  0.7546771E-02  0.1101249E+00
        -11   -1    0    0    0    0  0.00000000000E+00  0.00000000000E+00  0.18250000000E+03  0.18250000000E+03  0.00000000000E+00 0. -1.
         11   -1    0    0    0    0 -0.00000000000E+00 -0.00000000000E+00 -0.18250000000E+03  0.18250000000E+03  0.00000000000E+00 0.  1.
         23    2    1    2    0    0  0.85009024072E+02  0.72670022117E+02 -0.73154892453E+01  0.14300382059E+03  0.88820662198E+02 0.  0.
        -11    1    1    2    0    0  0.35459793840E+02 -0.49969295638E+02  0.62530360767E+02  0.87546407712E+02  0.00000000000E+00 0. -1.
         11    1    1    2    0    0 -0.12046881791E+03 -0.22700726479E+02 -0.55214871522E+02  0.13444977169E+03  0.00000000000E+00 0.  1.
        -15    1    3    3    0    0  0.45964368773E+02  0.44592061084E+02 -0.47946936651E+02  0.80020257258E+02  0.17770000000E+01 0. -1.
         15    1    3    3    0    0  0.39044655299E+02  0.28077961033E+02  0.40631447405E+02  0.62983563335E+02  0.17770000000E+01 0.  1.
</event>
<event>
 7    1  0.4412602E-007  0.1444225E+03  0.7546771E-02  0.1103590E+00
        -11   -1    0    0    0    0  0.00000000000E+00  0.00000000000E+00  0.18250000000E+03  0.18250000000E+03  0.00000000000E+00 0.  1.
         11   -1    0    0    0    0 -0.00000000000E+00 -0.00000000000E+00 -0.18250000000E+03  0.18250000000E+03  0.00000000000E+00 0. -1.
         23    2    1    2    0    0  0.39891849144E+02 -0.33432070248E+02 -0.85669451599E+02  0.13414775426E+03  0.89147642068E+02 0.  0.
        -11    1    1    2    0    0 -0.59910531436E+02 -0.50482041621E+02  0.11550690668E+03  0.13956917208E+03  0.00000000000E+00 0.  1.
         11    1    1    2    0    0  0.20018682293E+02  0.83914111870E+02 -0.29837455083E+02  0.91283073663E+02  0.00000000000E+00 0. -1.
        -15    1    3    3    0    0  0.59040992331E+02  0.58195545167E+01 -0.53076998966E+02  0.79624314996E+02  0.17770000000E+01 0. -1.
         15    1    3    3    0    0 -0.19149143188E+02 -0.39251624765E+02 -0.32592452632E+02  0.54523439263E+02  0.17770000000E+01 0.  1.
</event>
<event>
 7    1  0.4412602E-007  0.1839704E+03  0.7546771E-02  0.1067290E+00
        -11   -1    0    0    0    0  0.00000000000E+00  0.00000000000E+00  0.18250000000E+03  0.18250000000E+03  0.00000000000E+00 0. -1.
         11   -1    0    0    0    0 -0.00000000000E+00 -0.00000000000E+00 -0.18250000000E+03  0.18250000000E+03  0.00000000000E+00 0. -1.
         23    2    1    2    0    0  0.37383401817E+01 -0.10997595656E+02 -0.16274753106E+03  0.18690458410E+03  0.91168209340E+02 0.  0.
        -11    1    1    2    0    0  0.15608372468E+02  0.13605844504E+02  0.15610837877E+03  0.15747560515E+03  0.00000000000E+00 0. -1.
         11    1    1    2    0    0 -0.19346712650E+02 -0.26082488473E+01  0.66391522907E+01  0.20619810754E+02  0.00000000000E+00 0. -1.
        -15    1    3    3    0    0  0.37787792318E+02 -0.53723028139E+01 -0.26894250318E+02  0.46725125093E+02  0.17770000000E+01 0.  1.
         15    1    3    3    0    0 -0.34049452137E+02 -0.56252928426E+01 -0.13585328074E+03  0.14017945900E+03  0.17770000000E+01 0. -1.
</event>
<event>
 7    1  0.4412602E-007  0.1732811E+03  0.7546771E-02  0.1076039E+00
        -11   -1    0    0    0    0  0.00000000000E+00  0.00000000000E+00  0.18250000000E+03  0.18250000000E+03  0.00000000000E+00 0. -1.
         11   -1    0    0    0    0 -0.00000000000E+00 -0.00000000000E+00 -0.18250000000E+03  0.18250000000E+03  0.00000000000E+00 0. -1.
         23    2    1    2    0    0 -0.80454207431E+02 -0.40776225959E+02 -0.10044782942E+03  0.16551989809E+03  0.95767897192E+02 0.  0.
        -11    1    1    2    0    0 -0.38102141403E+02 -0.14717276979E+02  0.16997223426E+02  0.44241123690E+02  0.00000000000E+00 0. -1.
         11    1    1    2    0    0  0.11855634883E+03  0.55493502938E+02  0.83450605995E+02  0.15523897822E+03  0.00000000000E+00 0. -1.
        -15    1    3    3    0    0 -0.91513497116E+02 -0.59115662726E+02 -0.75339702986E+02  0.13247116784E+03  0.17770000000E+01 0.  1.
         15    1    3    3    0    0  0.11059289685E+02  0.18339436767E+02 -0.25108126434E+02  0.33048730253E+02  0.17770000000E+01 0. -1.
</event>
<event>
 7    1  0.4412602E-007  0.1261453E+03  0.7546771E-02  0.1125005E+00
        -11   -1    0    0    0    0  0.00000000000E+00  0.00000000000E+00  0.18250000000E+03  0.18250000000E+03  0.00000000000E+00 0. -1.
         11   -1    0    0    0    0 -0.00000000000E+00 -0.00000000000E+00 -0.18250000000E+03  0.18250000000E+03  0.00000000000E+00 0. -1.
         23    2    1    2    0    0 -0.32648832715E+02  0.66217087640E+01 -0.51546747447E+02  0.10535141709E+03  0.85627452407E+02 0.  0.
        -11    1    1    2    0    0 -0.14946284315E+02  0.68599200282E+02  0.12557849153E+03  0.14387216280E+03  0.00000000000E+00 0. -1.
         11    1    1    2    0    0  0.47595117030E+02 -0.75220909046E+02 -0.74031744079E+02  0.11577642011E+03  0.00000000000E+00 0. -1.
        -15    1    3    3    0    0 -0.30146399899E+02  0.41386763235E+02 -0.12024267904E+02  0.52625187368E+02  0.17770000000E+01 0. -1.
         15    1    3    3    0    0 -0.25024328158E+01 -0.34765054471E+02 -0.39522479542E+02  0.52726229720E+02  0.17770000000E+01 0.  1.
</event>
<event>
 7    1  0.4412602E-007  0.1554876E+03  0.7546771E-02  0.1092254E+00
        -11   -1    0    0    0    0  0.00000000000E+00  0.00000000000E+00  0.18250000000E+03  0.18250000000E+03  0.00000000000E+00 0. -1.
         11   -1    0    0    0    0 -0.00000000000E+00 -0.00000000000E+00 -0.18250000000E+03  0.18250000000E+03  0.00000000000E+00 0. -1.
         23    2    1    2    0    0  0.56950900111E+02 -0.19203644619E+02 -0.73101157787E+02  0.13276435482E+03  0.93115034510E+02 0.  0.
        -11    1    1    2    0    0 -0.49964666975E+02  0.56777142331E+02  0.13774332852E+03  0.15714113525E+03  0.00000000000E+00 0. -1.
         11    1    1    2    0    0 -0.69862331366E+01 -0.37573497712E+02 -0.64642170731E+02  0.75094509923E+02  0.00000000000E+00 0. -1.
        -15    1    3    3    0    0  0.53132114956E+02 -0.26967791680E+02 -0.93300702116E+02  0.11071793970E+03  0.17770000000E+01 0. -1.
         15    1    3    3    0    0  0.38187851554E+01  0.77641470604E+01  0.20199544328E+02  0.22046415121E+02  0.17770000000E+01 0.  1.
</event>
<event>
 7    1  0.4412602E-007  0.1801415E+03  0.7546771E-02  0.1070348E+00
        -11   -1    0    0    0    0  0.00000000000E+00  0.00000000000E+00  0.18250000000E+03  0.18250000000E+03  0.00000000000E+00 0.  1.
         11   -1    0    0    0    0 -0.00000000000E+00 -0.00000000000E+00 -0.18250000000E+03  0.18250000000E+03  0.00000000000E+00 0. -1.
         23    2    1    2    0    0 -0.17003722703E+02  0.49149254813E+02 -0.14966447873E+03  0.18408224974E+03  0.93712553270E+02 0.  0.
        -11    1    1    2    0    0  0.33745457657E+01 -0.70273679651E+02  0.13386115107E+03  0.15122362704E+03  0.00000000000E+00 0.  1.
         11    1    1    2    0    0  0.13629176937E+02  0.21124424838E+02  0.15803327659E+02  0.29694123220E+02  0.00000000000E+00 0. -1.
        -15    1    3    3    0    0 -0.14560678524E+01  0.68705266439E+02 -0.60859096266E+02  0.91812423437E+02  0.17770000000E+01 0.  1.
         15    1    3    3    0    0 -0.15547654851E+02 -0.19556011626E+02 -0.88805382462E+02  0.92269826299E+02  0.17770000000E+01 0. -1.
</event>
<event>
 7    1  0.4412602E-007  0.1796670E+03  0.7546771E-02  0.1070732E+00
        -11   -1    0    0    0    0  0.00000000000E+00  0.00000000000E+00  0.18250000000E+03  0.18250000000E+03  0.00000000000E+00 0.  1.
         11   -1    0    0    0    0 -0.00000000000E+00 -0.00000000000E+00 -0.18250000000E+03  0.18250000000E+03  0.00000000000E+00 0. -1.
         23    2    1    2    0    0 -0.26079101182E+02  0.54545259284E+02 -0.13674040472E+03  0.17567262598E+03  0.92236806131E+02 0.  0.
        -11    1    1    2    0    0  0.54528779401E+02 -0.47459658528E+02  0.14218562763E+03  0.15950724020E+03  0.00000000000E+00 0.  1.
         11    1    1    2    0    0 -0.28449678219E+02 -0.70856007564E+01 -0.54452229092E+01  0.29820133826E+02  0.00000000000E+00 0. -1.
        -15    1    3    3    0    0 -0.47696247060E+02  0.68426089560E+01 -0.30068771333E+02  0.56824660310E+02  0.17770000000E+01 0.  1.
         15    1    3    3    0    0  0.21617145877E+02  0.47702650328E+02 -0.10667163339E+03  0.11884796567E+03  0.17770000000E+01 0. -1.
</event>
<event>
 7    1  0.4412602E-007  0.1822220E+03  0.7546771E-02  0.1068676E+00
        -11   -1    0    0    0    0  0.00000000000E+00  0.00000000000E+00  0.18250000000E+03  0.18250000000E+03  0.00000000000E+00 0.  1.
         11   -1    0    0    0    0 -0.00000000000E+00 -0.00000000000E+00 -0.18250000000E+03  0.18250000000E+03  0.00000000000E+00 0. -1.
         23    2    1    2    0    0 -0.15548281081E+01  0.31401455426E+02 -0.13819790291E+03  0.17404496270E+03  0.10101742315E+03 0.  0.
        -11    1    1    2    0    0 -0.11192474059E+00 -0.58659283564E+02  0.15010775418E+03  0.16116222244E+03  0.00000000000E+00 0.  1.
         11    1    1    2    0    0  0.16667528487E+01  0.27257828138E+02 -0.11909851271E+02  0.29792814858E+02  0.00000000000E+00 0. -1.
        -15    1    3    3    0    0 -0.58903412091E+01 -0.13048447194E+02  0.11098578759E+02  0.18201490961E+02  0.17770000000E+01 0.  1.
         15    1    3    3    0    0  0.43355131010E+01  0.44449902620E+02 -0.14929648167E+03  0.15584347174E+03  0.17770000000E+01 0. -1.
</event>
<event>
 7    1  0.4412602E-007  0.1243560E+03  0.7546771E-02  0.1127316E+00
        -11   -1    0    0    0    0  0.00000000000E+00  0.00000000000E+00  0.18250000000E+03  0.18250000000E+03  0.00000000000E+00 0.  1.
         11   -1    0    0    0    0 -0.00000000000E+00 -0.00000000000E+00 -0.18250000000E+03  0.18250000000E+03  0.00000000000E+00 0.  1.
         23    2    1    2    0    0  0.19895596968E+02  0.21987925312E+02 -0.39872030705E+02  0.11137273639E+03  0.99673486649E+02 0.  0.
        -11    1    1    2    0    0  0.81616587136E+02 -0.28802717577E+02  0.10250193370E+03  0.13415479957E+03  0.00000000000E+00 0.  1.
         11    1    1    2    0    0 -0.10151218410E+03  0.68147922654E+01 -0.62629902991E+02  0.11947246404E+03  0.00000000000E+00 0.  1.
        -15    1    3    3    0    0  0.49107103457E+02  0.67591564374E+01  0.10936319767E+02  0.50793253732E+02  0.17770000000E+01 0. -1.
         15    1    3    3    0    0 -0.29211506489E+02  0.15228768875E+02 -0.50808350472E+02  0.60579482661E+02  0.17770000000E+01 0.  1.
</event>
<event>
 7    1  0.4412602E-007  0.1710340E+03  0.7546771E-02  0.1077967E+00
        -11   -1    0    0    0    0  0.00000000000E+00  0.00000000000E+00  0.18250000000E+03  0.18250000000E+03  0.00000000000E+00 0.  1.
         11   -1    0    0    0    0 -0.00000000000E+00 -0.00000000000E+00 -0.18250000000E+03  0.18250000000E+03  0.00000000000E+00 0. -1.
         23    2    1    2    0    0  0.16009504516E+02  0.17677088853E+02 -0.12671102102E+03  0.15461059743E+03  0.85322741897E+02 0.  0.
        -11    1    1    2    0    0 -0.33597746257E+01 -0.11007339548E+02  0.16712456111E+03  0.16752035260E+03  0.00000000000E+00 0.  1.
         11    1    1    2    0    0 -0.12649729890E+02 -0.66697493052E+01 -0.40413540097E+02  0.42869049969E+02  0.00000000000E+00 0. -1.
        -15    1    3    3    0    0 -0.78869265031E+01  0.25654201481E+01 -0.12598665966E+03  0.12627185407E+03  0.17770000000E+01 0. -1.
         15    1    3    3    0    0  0.23896431019E+02  0.15111668705E+02 -0.72436135688E+00  0.28338743354E+02  0.17770000000E+01 0.  1.
</event>
<event>
 7    1  0.4412602E-007  0.1312903E+03  0.7546771E-02  0.1118590E+00
        -11   -1    0    0    0    0  0.00000000000E+00  0.00000000000E+00  0.18250000000E+03  0.18250000000E+03  0.00000000000E+00 0.  1.
         11   -1    0    0    0    0 -0.00000000000E+00 -0.00000000000E+00 -0.18250000000E+03  0.18250000000E+03  0.00000000000E+00 0.  1.
         23    2    1    2    0    0  0.49076147119E+02 -0.13957403200E+03 -0.33931793016E+02  0.16406328845E+03  0.62257669540E+02 0.  0.
        -11    1    1    2    0    0 -0.29583308091E+01  0.60322592629E+02  0.78452317354E+02  0.99006732098E+02  0.00000000000E+00 0.  1.
         11    1    1    2    0    0 -0.46117816309E+02  0.79251439369E+02 -0.44520524338E+02  0.10192997945E+03  0.00000000000E+00 0.  1.
        -15    1    3    3    0    0  0.51073342891E+02 -0.13755134669E+03 -0.18064418398E+02  0.14784566369E+03  0.17770000000E+01 0.  1.
         15    1    3    3    0    0 -0.19971957725E+01 -0.20226853102E+01 -0.15867374618E+02  0.16217624767E+02  0.17770000000E+01 0. -1.
</event>
<event>
 7    1  0.4412602E-007  0.1477007E+03  0.7546771E-02  0.1100118E+00
        -11   -1    0    0    0    0  0.00000000000E+00  0.00000000000E+00  0.18250000000E+03  0.18250000000E+03  0.00000000000E+00 0. -1.
         11   -1    0    0    0    0 -0.00000000000E+00 -0.00000000000E+00 -0.18250000000E+03  0.18250000000E+03  0.00000000000E+00 0.  1.
         23    2    1    2    0    0  0.12328655205E+02 -0.50459780914E+01 -0.12846645099E+03  0.15534861456E+03  0.86325577786E+02 0.  0.
        -11    1    1    2    0    0 -0.18560763850E+02  0.81520366292E+02  0.93205158397E+02  0.12520891992E+03  0.00000000000E+00 0. -1.
         11    1    1    2    0    0  0.62321086453E+01 -0.76474388201E+02  0.35261292594E+02  0.84442465527E+02  0.00000000000E+00 0.  1.
        -15    1    3    3    0    0  0.22885779265E+02 -0.31541665121E+02 -0.11902159898E+03  0.12525148416E+03  0.17770000000E+01 0.  1.
         15    1    3    3    0    0 -0.10557124061E+02  0.26495687030E+02 -0.94448520107E+01  0.30097130397E+02  0.17770000000E+01 0. -1.
</event>
<event>
 7    1  0.4412602E-007  0.1730257E+03  0.7546771E-02  0.1076257E+00
        -11   -1    0    0    0    0  0.00000000000E+00  0.00000000000E+00  0.18250000000E+03  0.18250000000E+03  0.00000000000E+00 0. -1.
         11   -1    0    0    0    0 -0.00000000000E+00 -0.00000000000E+00 -0.18250000000E+03  0.18250000000E+03  0.00000000000E+00 0. -1.
         23    2    1    2    0    0  0.15407262083E+03  0.33119108520E+02 -0.15263925375E+02  0.18418351254E+03  0.94102768466E+02 0.  0.
        -11    1    1    2    0    0 -0.20518252497E+02 -0.11393032780E+02  0.36956391035E+02  0.43778701668E+02  0.00000000000E+00 0. -1.
         11    1    1    2    0    0 -0.13355436834E+03 -0.21726075741E+02 -0.21692465659E+02  0.13703778579E+03  0.00000000000E+00 0. -1.
        -15    1    3    3    0    0  0.12954769951E+03  0.13241769799E+02 -0.47879891759E+02  0.13875731577E+03  0.17770000000E+01 0. -1.
         15    1    3    3    0    0  0.24524921322E+02  0.19877338721E+02  0.32615966384E+02  0.45426196766E+02  0.17770000000E+01 0.  1.
</event>
<event>
 7    1  0.4412602E-007  0.1726159E+03  0.7546771E-02  0.1076607E+00
        -11   -1    0    0    0    0  0.00000000000E+00  0.00000000000E+00  0.18250000000E+03  0.18250000000E+03  0.00000000000E+00 0. -1.
         11   -1    0    0    0    0 -0.00000000000E+00 -0.00000000000E+00 -0.18250000000E+03  0.18250000000E+03  0.00000000000E+00 0.  1.
         23    2    1    2    0    0  0.37743689966E+02  0.20324918378E+01 -0.13761210293E+03  0.16913572538E+03  0.90780425048E+02 0.  0.
        -11    1    1    2    0    0 -0.78390147767E+02  0.94656064357E+01  0.13121605535E+03  0.15314132739E+03  0.00000000000E+00 0. -1.
         11    1    1    2    0    0  0.40646457800E+02 -0.11498098273E+02  0.63960475802E+01  0.42722947233E+02  0.00000000000E+00 0.  1.
        -15    1    3    3    0    0  0.58755078498E+02  0.74476491402E+01 -0.13471946514E+03  0.14717377057E+03  0.17770000000E+01 0.  1.
         15    1    3    3    0    0 -0.21011388532E+02 -0.54151573025E+01 -0.28926377868E+01  0.21961954808E+02  0.17770000000E+01 0. -1.
</event>
<event>
 7    1  0.4412602E-007  0.1821297E+03  0.7546771E-02  0.1068750E+00
        -11   -1    0    0    0    0  0.00000000000E+00  0.00000000000E+00  0.18250000000E+03  0.18250000000E+03  0.00000000000E+00 0. -1.
         11   -1    0    0    0    0 -0.00000000000E+00 -0.00000000000E+00 -0.18250000000E+03  0.18250000000E+03  0.00000000000E+00 0.  1.
         23    2    1    2    0    0  0.46542866493E+02 -0.41769326076E+02 -0.15232007676E+03  0.18562904036E+03  0.85707758212E+02 0.  0.
        -11    1    1    2    0    0 -0.44601249992E+02  0.20483147762E+02  0.15005398266E+03  0.15787662448E+03  0.00000000000E+00 0. -1.
         11    1    1    2    0    0 -0.19416165012E+01  0.21286178315E+02  0.22660940958E+01  0.21494335168E+02  0.00000000000E+00 0.  1.
        -15    1    3    3    0    0  0.47637168922E+02 -0.53961519817E+02 -0.63655541659E+02  0.96105833313E+02  0.17770000000E+01 0.  1.
         15    1    3    3    0    0 -0.10943024288E+01  0.12192193741E+02 -0.88664535099E+02  0.89523207043E+02  0.17770000000E+01 0. -1.
</event>
<event>
 7    1  0.4412602E-007  0.1479038E+03  0.7546771E-02  0.1099906E+00
        -11   -1    0    0    0    0  0.00000000000E+00  0.00000000000E+00  0.18250000000E+03  0.18250000000E+03  0.00000000000E+00 0. -1.
         11   -1    0    0    0    0 -0.00000000000E+00 -0.00000000000E+00 -0.18250000000E+03  0.18250000000E+03  0.00000000000E+00 0.  1.
         23    2    1    2    0    0  0.64773720236E+02  0.14997551446E+02  0.50275720964E+02  0.12169107277E+03  0.88659504230E+02 0.  0.
        -11    1    1    2    0    0  0.21140524931E+02  0.53013685477E+02  0.63478528572E+02  0.85363319007E+02  0.00000000000E+00 0. -1.
         11    1    1    2    0    0 -0.85914245167E+02 -0.68011236923E+02 -0.11375424954E+03  0.15794560823E+03  0.00000000000E+00 0.  1.
        -15    1    3    3    0    0  0.23482615395E+02  0.42988082388E+02 -0.24605939834E+01  0.49077700689E+02  0.17770000000E+01 0.  1.
         15    1    3    3    0    0  0.41291104841E+02 -0.27990530942E+02  0.52736314948E+02  0.72613372079E+02  0.17770000000E+01 0. -1.
</event>
<event>
 7    1  0.4412602E-007  0.1468062E+03  0.7546771E-02  0.1101056E+00
        -11   -1    0    0    0    0  0.00000000000E+00  0.00000000000E+00  0.18250000000E+03  0.18250000000E+03  0.00000000000E+00 0. -1.
         11   -1    0    0    0    0 -0.00000000000E+00 -0.00000000000E+00 -0.18250000000E+03  0.18250000000E+03  0.00000000000E+00 0. -1.
         23    2    1    2    0    0  0.10653140304E+02  0.10026175950E+03 -0.31734037764E+02  0.14062967629E+03  0.92756384597E+02 0.  0.
        -11    1    1    2    0    0  0.76935995501E+02 -0.98915870474E+02  0.49941476740E+02  0.13489865802E+03  0.00000000000E+00 0. -1.
         11    1    1    2    0    0 -0.87589135804E+02 -0.13458890284E+01 -0.18207438976E+02  0.89471665695E+02  0.00000000000E+00 0. -1.
        -15    1    3    3    0    0 -0.19476802174E+02 -0.48557802312E+01  0.11299020733E+02  0.23103030604E+02  0.17770000000E+01 0.  1.
         15    1    3    3    0    0  0.30129942478E+02  0.10511753973E+03 -0.43033058497E+02  0.11752664569E+03  0.17770000000E+01 0. -1.
</event>
<event>
 7    1  0.4412602E-007  0.1482001E+03  0.7546771E-02  0.1099598E+00
        -11   -1    0    0    0    0  0.00000000000E+00  0.00000000000E+00  0.18250000000E+03  0.18250000000E+03  0.00000000000E+00 0.  1.
         11   -1    0    0    0    0 -0.00000000000E+00 -0.00000000000E+00 -0.18250000000E+03  0.18250000000E+03  0.00000000000E+00 0.  1.
         23    2    1    2    0    0  0.35526855854E+02 -0.22565935394E+02  0.72404842920E+02  0.12375327889E+03  0.91110009504E+02 0.  0.
        -11    1    1    2    0    0 -0.18931481746E+02  0.20127903144E+02  0.81692488188E+02  0.86239179684E+02  0.00000000000E+00 0.  1.
         11    1    1    2    0    0 -0.16595374108E+02  0.24380322498E+01 -0.15409733111E+03  0.15500754142E+03  0.00000000000E+00 0.  1.
        -15    1    3    3    0    0  0.35968935116E+02 -0.34200709362E+02 -0.73575443939E+00  0.49670432632E+02  0.17770000000E+01 0. -1.
         15    1    3    3    0    0 -0.44207926225E+00  0.11634773968E+02  0.73140597359E+02  0.74082846263E+02  0.17770000000E+01 0.  1.
</event>
<event>
 7    1  0.4412602E-007  0.1635437E+03  0.7546771E-02  0.1084633E+00
        -11   -1    0    0    0    0  0.00000000000E+00  0.00000000000E+00  0.18250000000E+03  0.18250000000E+03  0.00000000000E+00 0.  1.
         11   -1    0    0    0    0 -0.00000000000E+00 -0.00000000000E+00 -0.18250000000E+03  0.18250000000E+03  0.00000000000E+00 0. -1.
         23    2    1    2    0    0 -0.25720203325E+01 -0.65001542849E+02 -0.10727801585E+03  0.15480978456E+03  0.90695539304E+02 0.  0.
        -11    1    1    2    0    0 -0.51382364459E+02  0.55258660697E+02  0.13042318386E+03  0.15067804700E+03  0.00000000000E+00 0.  1.
         11    1    1    2    0    0  0.53954384791E+02  0.97428821520E+01 -0.23145168011E+02  0.59512168446E+02  0.00000000000E+00 0. -1.
        -15    1    3    3    0    0  0.33252039222E+02 -0.36510123245E+02 -0.14759109367E+02  0.51572049117E+02  0.17770000000E+01 0.  1.
         15    1    3    3    0    0 -0.35824059554E+02 -0.28491419604E+02 -0.92518906478E+02  0.10323773544E+03  0.17770000000E+01 0. -1.
</event>
<event>
 7    1  0.4412602E-007  0.1332301E+03  0.7546771E-02  0.1116255E+00
        -11   -1    0    0    0    0  0.00000000000E+00  0.00000000000E+00  0.18250000000E+03  0.18250000000E+03  0.00000000000E+00 0.  1.
         11   -1    0    0    0    0 -0.00000000000E+00 -0.00000000000E+00 -0.18250000000E+03  0.18250000000E+03  0.00000000000E+00 0. -1.
         23    2    1    2    0    0 -0.19294217204E+02 -0.18492202597E+02 -0.79125395153E+02  0.12411365678E+03  0.91810365790E+02 0.  0.
        -11    1    1    2    0    0 -0.83984734174E+02 -0.54468331612E+02  0.46025747167E+02  0.11017533356E+03  0.00000000000E+00 0.  1.
         11    1    1    2    0    0  0.10327895138E+03  0.72960534209E+02  0.33099647986E+02  0.13071100966E+03  0.00000000000E+00 0. -1.
        -15    1    3    3    0    0 -0.13890267883E+02 -0.37744233832E+02 -0.91891568163E+02  0.10032340085E+03  0.17770000000E+01 0. -1.
         15    1    3    3    0    0 -0.54039493217E+01  0.19252031234E+02  0.12766173010E+02  0.23790255930E+02  0.17770000000E+01 0.  1.
</event>
<event>
 7    1  0.4412602E-007  0.1751603E+03  0.7546771E-02  0.1074452E+00
        -11   -1    0    0    0    0  0.00000000000E+00  0.00000000000E+00  0.18250000000E+03  0.18250000000E+03  0.00000000000E+00 0.  1.
         11   -1    0    0    0    0 -0.00000000000E+00 -0.00000000000E+00 -0.18250000000E+03  0.18250000000E+03  0.00000000000E+00 0. -1.
         23    2    1    2    0    0 -0.42546517481E+02 -0.13773028636E+02 -0.15526553280E+03  0.18289505654E+03  0.85693136049E+02 0.  0.
        -11    1    1    2    0    0  0.60697479381E+02 -0.71876425057E+01  0.13359712942E+03  0.14691507478E+03  0.00000000000E+00 0.  1.
         11    1    1    2    0    0 -0.18150961900E+02  0.20960671142E+02  0.21668403372E+02  0.35189868675E+02  0.00000000000E+00 0. -1.
        -15    1    3    3    0    0  0.21200188902E+02 -0.18372691371E+02 -0.76157421954E+02  0.81179519864E+02  0.17770000000E+01 0. -1.
         15    1    3    3    0    0 -0.63746706382E+02  0.45996627346E+01 -0.79108110842E+02  0.10171553668E+03  0.17770000000E+01 0.  1.
</event>
<event>
 7    1  0.4412602E-007  0.1877007E+03  0.7546771E-02  0.1064389E+00
        -11   -1    0    0    0    0  0.00000000000E+00  0.00000000000E+00  0.18250000000E+03  0.18250000000E+03  0.00000000000E+00 0. -1.
         11   -1    0    0    0    0 -0.00000000000E+00 -0.00000000000E+00 -0.18250000000E+03  0.18250000000E+03  0.00000000000E+00 0. -1.
         23    2    1    2    0    0  0.10159131301E+03 -0.13280342993E+02 -0.12479960325E+03  0.18770067935E+03  0.95704972013E+02 0.  0.
        -11    1    1    2    0    0 -0.22339314003E+02 -0.14953740022E+02  0.74679180176E+02  0.79370266741E+02  0.00000000000E+00 0. -1.
         11    1    1    2    0    0 -0.79251999008E+02  0.28234083015E+02  0.50120423073E+02  0.97929053909E+02  0.00000000000E+00 0. -1.
        -15    1    3    3    0    0  0.45824539174E+02  0.25022148199E+02 -0.10485128382E+03  0.11714497743E+03  0.17770000000E+01 0. -1.
         15    1    3    3    0    0  0.55766773837E+02 -0.38302491192E+02 -0.19948319433E+02  0.70555701916E+02  0.17770000000E+01 0.  1.
</event>
<event>
 7    1  0.4412602E-007  0.1731837E+03  0.7546771E-02  0.1076122E+00
        -11   -1    0    0    0    0  0.00000000000E+00  0.00000000000E+00  0.18250000000E+03  0.18250000000E+03  0.00000000000E+00 0.  1.
         11   -1    0    0    0    0 -0.00000000000E+00 -0.00000000000E+00 -0.18250000000E+03  0.18250000000E+03  0.00000000000E+00 0. -1.
         23    2    1    2    0    0 -0.11098983021E+01  0.15894459962E+02 -0.15687032805E+03  0.18344247959E+03  0.93749548061E+02 0.  0.
        -11    1    1    2    0    0 -0.19200608396E+02 -0.43062017830E+02  0.12999356903E+03  0.13827989272E+03  0.00000000000E+00 0.  1.
         11    1    1    2    0    0  0.20310506698E+02  0.27167557868E+02  0.26876759028E+02  0.43277627692E+02  0.00000000000E+00 0. -1.
        -15    1    3    3    0    0 -0.45748737369E+02  0.10584338290E+02 -0.56756075310E+02  0.73684360630E+02  0.17770000000E+01 0.  1.
         15    1    3    3    0    0  0.44638839067E+02  0.53101216727E+01 -0.10011425274E+03  0.10975811896E+03  0.17770000000E+01 0. -1.
</event>
<event>
 7    1  0.4412602E-007  0.1606189E+03  0.7546771E-02  0.1087343E+00
        -11   -1    0    0    0    0  0.00000000000E+00  0.00000000000E+00  0.18250000000E+03  0.18250000000E+03  0.00000000000E+00 0.  1.
         11   -1    0    0    0    0 -0.00000000000E+00 -0.00000000000E+00 -0.18250000000E+03  0.18250000000E+03  0.00000000000E+00 0. -1.
         23    2    1    2    0    0  0.66526551628E+02 -0.31214445651E+02  0.10550697833E+03  0.15745769908E+03  0.90890488145E+02 0.  0.
        -11    1    1    2    0    0 -0.32609749490E+02  0.45818168481E+02  0.32313600407E+02  0.64860381559E+02  0.00000000000E+00 0.  1.
         11    1    1    2    0    0 -0.33916802138E+02 -0.14603722830E+02 -0.13782057874E+03  0.14268191936E+03  0.00000000000E+00 0. -1.
        -15    1    3    3    0    0  0.53760987961E+02 -0.62028650637E+02  0.63523551187E+02  0.10380846117E+03  0.17770000000E+01 0.  1.
         15    1    3    3    0    0  0.12765563667E+02  0.30814204987E+02  0.41983427145E+02  0.53649237912E+02  0.17770000000E+01 0. -1.
</event>
<event>
 7    1  0.4412602E-007  0.1701348E+03  0.7546771E-02  0.1078747E+00
        -11   -1    0    0    0    0  0.00000000000E+00  0.00000000000E+00  0.18250000000E+03  0.18250000000E+03  0.00000000000E+00 0.  1.
         11   -1    0    0    0    0 -0.00000000000E+00 -0.00000000000E+00 -0.18250000000E+03  0.18250000000E+03  0.00000000000E+00 0. -1.
         23    2    1    2    0    0  0.11345259435E+03  0.54918383157E+02 -0.88271487436E+02  0.18148090697E+03  0.96207817391E+02 0.  0.
        -11    1    1    2    0    0 -0.64556440129E+02 -0.63020127767E+02  0.97792006757E+02  0.13305016742E+03  0.00000000000E+00 0.  1.
         11    1    1    2    0    0 -0.48896154224E+02  0.81017446103E+01 -0.95205193216E+01  0.50468925605E+02  0.00000000000E+00 0. -1.
        -15    1    3    3    0    0  0.48448521033E+01  0.13923767375E+02  0.18517931619E+02  0.23736373149E+02  0.17770000000E+01 0.  1.
         15    1    3    3    0    0  0.10860774225E+03  0.40994615782E+02 -0.10678941905E+03  0.15774453382E+03  0.17770000000E+01 0. -1.
</event>
<event>
 7    1  0.4412602E-007  0.1583692E+03  0.7546771E-02  0.1089471E+00
        -11   -1    0    0    0    0  0.00000000000E+00  0.00000000000E+00  0.18250000000E+03  0.18250000000E+03  0.00000000000E+00 0.  1.
         11   -1    0    0    0    0 -0.00000000000E+00 -0.00000000000E+00 -0.18250000000E+03  0.18250000000E+03  0.00000000000E+00 0.  1.
         23    2    1    2    0    0 -0.16060855146E+02 -0.53292453240E+02 -0.10875463079E+03  0.15212230008E+03  0.90639879875E+02 0.  0.
        -11    1    1    2    0    0  0.19940090007E+02 -0.63229955456E+01  0.14265996002E+03  0.14418547658E+03  0.00000000000E+00 0.  1.
         11    1    1    2    0    0 -0.38792348609E+01  0.59615448785E+02 -0.33905329229E+02  0.68692223338E+02  0.00000000000E+00 0.  1.
        -15    1    3    3    0    0 -0.27159606752E+02 -0.75614745565E+02 -0.73492998708E+02  0.10890184835E+03  0.17770000000E+01 0. -1.
         15    1    3    3    0    0  0.11098751606E+02  0.22322292326E+02 -0.35261632085E+02  0.43220451735E+02  0.17770000000E+01 0.  1.
</event>
<event>
 7    1  0.4412602E-007  0.1811656E+03  0.7546771E-02  0.1069522E+00
        -11   -1    0    0    0    0  0.00000000000E+00  0.00000000000E+00  0.18250000000E+03  0.18250000000E+03  0.00000000000E+00 0. -1.
         11   -1    0    0    0    0 -0.00000000000E+00 -0.00000000000E+00 -0.18250000000E+03  0.18250000000E+03  0.00000000000E+00 0. -1.
         23    2    1    2    0    0 -0.29619847026E+02  0.43562145543E+01 -0.14936332518E+03  0.17777366947E+03  0.91639307653E+02 0.  0.
        -11    1    1    2    0    0  0.54911271830E+02 -0.12230029044E+02  0.15054337531E+03  0.16071132267E+03  0.00000000000E+00 0. -1.
         11    1    1    2    0    0 -0.25291424804E+02  0.78738144901E+01 -0.11800501368E+01  0.26515007856E+02  0.00000000000E+00 0. -1.
        -15    1    3    3    0    0 -0.15466115748E+02 -0.35324473428E+02 -0.23872787713E+02  0.45388179975E+02  0.17770000000E+01 0.  1.
         15    1    3    3    0    0 -0.14153731278E+02  0.39680687982E+02 -0.12549053746E+03  0.13238548950E+03  0.17770000000E+01 0. -1.
</event>
<event>
 7    1  0.4412602E-007  0.1866073E+03  0.7546771E-02  0.1065232E+00
        -11   -1    0    0    0    0  0.00000000000E+00  0.00000000000E+00  0.18250000000E+03  0.18250000000E+03  0.00000000000E+00 0.  1.
         11   -1    0    0    0    0 -0.00000000000E+00 -0.00000000000E+00 -0.18250000000E+03  0.18250000000E+03  0.00000000000E+00 0. -1.
         23    2    1    2    0    0 -0.90963389397E+02 -0.44808725730E+01 -0.13555921972E+03  0.18917830188E+03  0.95486708076E+02 0.  0.
        -11    1    1    2    0    0  0.81778592599E+02  0.19438027691E+02  0.13402418134E+03  0.15820257998E+03  0.00000000000E+00 0.  1.
         11    1    1    2    0    0  0.91847967983E+01 -0.14957155118E+02  0.15350383828E+01  0.17619118147E+02  0.00000000000E+00 0. -1.
        -15    1    3    3    0    0 -0.65249066932E+01 -0.32745207529E+02 -0.93674623999E+01  0.34723624585E+02  0.17770000000E+01 0.  1.
         15    1    3    3    0    0 -0.84438482704E+02  0.28264334956E+02 -0.12619175732E+03  0.15445467729E+03  0.17770000000E+01 0. -1.
</event>
<event>
 7    1  0.4412602E-007  0.1503204E+03  0.7546771E-02  0.1097414E+00
        -11   -1    0    0    0    0  0.00000000000E+00  0.00000000000E+00  0.18250000000E+03  0.18250000000E+03  0.00000000000E+00 0.  1.
         11   -1    0    0    0    0 -0.00000000000E+00 -0.00000000000E+00 -0.18250000000E+03  0.18250000000E+03  0.00000000000E+00 0. -1.
         23    2    1    2    0    0 -0.57034407678E+02 -0.13909534847E+03  0.80728717829E+01  0.17464918285E+03  0.88525285570E+02 0.  0.
        -11    1    1    2    0    0  0.38260497722E+01  0.63823912220E+02  0.50205863182E+02  0.81294274865E+02  0.00000000000E+00 0.  1.
         11    1    1    2    0    0  0.53208357906E+02  0.75271436251E+02 -0.58278734965E+02  0.10905654229E+03  0.00000000000E+00 0. -1.
        -15    1    3    3    0    0 -0.71931358787E+02 -0.14097927184E+03  0.18285652809E+01  0.15829016661E+03  0.17770000000E+01 0. -1.
         15    1    3    3    0    0  0.14896951109E+02  0.18839233690E+01  0.62443065019E+01  0.16359016238E+02  0.17770000000E+01 0.  1.
</event>
<event>
 7    1  0.4412602E-007  0.1667667E+03  0.7546771E-02  0.1081717E+00
        -11   -1    0    0    0    0  0.00000000000E+00  0.00000000000E+00  0.18250000000E+03  0.18250000000E+03  0.00000000000E+00 0.  1.
         11   -1    0    0    0    0 -0.00000000000E+00 -0.00000000000E+00 -0.18250000000E+03  0.18250000000E+03  0.00000000000E+00 0. -1.
         23    2    1    2    0    0  0.55959858867E+02 -0.30090685131E+02 -0.91895983235E+02  0.14679482158E+03  0.95220233001E+02 0.  0.
        -11    1    1    2    0    0 -0.90067780506E+02  0.14910271312E+02  0.13386633306E+03  0.16203307194E+03  0.00000000000E+00 0.  1.
         11    1    1    2    0    0  0.34107921639E+02  0.15180413819E+02 -0.41970349821E+02  0.56172106480E+02  0.00000000000E+00 0. -1.
        -15    1    3    3    0    0  0.44930840746E+02 -0.45850630807E+02 -0.12940989813E+02  0.65510974210E+02  0.17770000000E+01 0.  1.
         15    1    3    3    0    0  0.11029018120E+02  0.15759945677E+02 -0.78954993422E+02  0.81283847372E+02  0.17770000000E+01 0. -1.
</event>
<event>
 7    1  0.4412602E-007  0.1847256E+03  0.7546771E-02  0.1066697E+00
        -11   -1    0    0    0    0  0.00000000000E+00  0.00000000000E+00  0.18250000000E+03  0.18250000000E+03  0.00000000000E+00 0.  1.
         11   -1    0    0    0    0 -0.00000000000E+00 -0.00000000000E+00 -0.18250000000E+03  0.18250000000E+03  0.00000000000E+00 0. -1.
         23    2    1    2    0    0  0.89362020906E+02 -0.29947752493E+02 -0.13118283630E+03  0.18472557614E+03  0.89622336949E+02 0.  0.
        -11    1    1    2    0    0 -0.76134470684E+02  0.14817100144E+01  0.44764165512E+02  0.88331668188E+02  0.00000000000E+00 0. -1.
         11    1    1    2    0    0 -0.13227550222E+02  0.28466042479E+02  0.86418670791E+02  0.91942755672E+02  0.00000000000E+00 0.  1.
        -15    1    3    3    0    0  0.59889968275E+01 -0.20321252793E+02 -0.87595180073E+02  0.90138197781E+02  0.17770000000E+01 0.  1.
         15    1    3    3    0    0  0.83373024078E+02 -0.96264997000E+01 -0.43587656229E+02  0.94587378360E+02  0.17770000000E+01 0. -1.
</event>
<event>
 7    1  0.4412602E-007  0.1484668E+03  0.7546771E-02  0.1099321E+00
        -11   -1    0    0    0    0  0.00000000000E+00  0.00000000000E+00  0.18250000000E+03  0.18250000000E+03  0.00000000000E+00 0.  1.
         11   -1    0    0    0    0 -0.00000000000E+00 -0.00000000000E+00 -0.18250000000E+03  0.18250000000E+03  0.00000000000E+00 0. -1.
         23    2    1    2    0    0  0.44235002937E+02 -0.16606565166E+02  0.33831688774E+02  0.12032816083E+03  0.10536493550E+03 0.  0.
        -11    1    1    2    0    0  0.51571493452E+02 -0.59414746922E+02  0.52839275064E+02  0.94771937187E+02  0.00000000000E+00 0.  1.
         11    1    1    2    0    0 -0.95806496389E+02  0.76021312088E+02 -0.86670963838E+02  0.14989990198E+03  0.00000000000E+00 0. -1.
        -15    1    3    3    0    0  0.24242652855E+02  0.31087511518E+02 -0.21194215591E+02  0.44793884553E+02  0.17770000000E+01 0.  1.
         15    1    3    3    0    0  0.19992350082E+02 -0.47694076684E+02  0.55025904365E+02  0.75534276277E+02  0.17770000000E+01 0. -1.
</event>
<event>
 7    1  0.4412602E-007  0.1422155E+03  0.7546771E-02  0.1105985E+00
        -11   -1    0    0    0    0  0.00000000000E+00  0.00000000000E+00  0.18250000000E+03  0.18250000000E+03  0.00000000000E+00 0. -1.
         11   -1    0    0    0    0 -0.00000000000E+00 -0.00000000000E+00 -0.18250000000E+03  0.18250000000E+03  0.00000000000E+00 0.  1.
         23    2    1    2    0    0  0.58644266363E+01  0.32286986678E+01 -0.10435491672E+03  0.13846687216E+03  0.90765136738E+02 0.  0.
        -11    1    1    2    0    0 -0.90920432777E+02 -0.42161029273E+02  0.84079212405E+02  0.13081816175E+03  0.00000000000E+00 0. -1.
         11    1    1    2    0    0  0.85056006141E+02  0.38932330606E+02  0.20275704319E+02  0.95714966085E+02  0.00000000000E+00 0.  1.
        -15    1    3    3    0    0 -0.25053173205E+01  0.70010651356E+01 -0.11999836180E+03  0.12024165706E+03  0.17770000000E+01 0.  1.
         15    1    3    3    0    0  0.83697439568E+01 -0.37723664679E+01  0.15643445078E+02  0.18225215104E+02  0.17770000000E+01 0. -1.
</event>
<event>
 7    1  0.4412602E-007  0.1617898E+03  0.7546771E-02  0.1086250E+00
        -11   -1    0    0    0    0  0.00000000000E+00  0.00000000000E+00  0.18250000000E+03  0.18250000000E+03  0.00000000000E+00 0.  1.
         11   -1    0    0    0    0 -0.00000000000E+00 -0.00000000000E+00 -0.18250000000E+03  0.18250000000E+03  0.00000000000E+00 0. -1.
         23    2    1    2    0    0  0.47425418825E+01  0.10062972221E+03 -0.65552270866E+02  0.16023120422E+03  0.10596275710E+03 0.  0.
        -11    1    1    2    0    0 -0.70845281272E+02 -0.77141486350E+02  0.81639206084E+02  0.13279616999E+03  0.00000000000E+00 0.  1.
         11    1    1    2    0    0  0.66102739390E+02 -0.23488235859E+02 -0.16086935218E+02  0.71972625791E+02  0.00000000000E+00 0. -1.
        -15    1    3    3    0    0 -0.25731992913E+02  0.45306486186E+02  0.18286372874E+02  0.55248188311E+02  0.17770000000E+01 0.  1.
         15    1    3    3    0    0  0.30474534796E+02  0.55323236023E+02 -0.83838643740E+02  0.10498301590E+03  0.17770000000E+01 0. -1.
</event>
<event>
 7    1  0.4412602E-007  0.1486580E+03  0.7546771E-02  0.1099123E+00
        -11   -1    0    0    0    0  0.00000000000E+00  0.00000000000E+00  0.18250000000E+03  0.18250000000E+03  0.00000000000E+00 0.  1.
         11   -1    0    0    0    0 -0.00000000000E+00 -0.00000000000E+00 -0.18250000000E+03  0.18250000000E+03  0.00000000000E+00 0. -1.
         23    2    1    2    0    0 -0.94003413637E+02 -0.87508488952E+02 -0.25715856553E+02  0.16048942315E+03  0.92742505091E+02 0.  0.
        -11    1    1    2    0    0  0.58831691402E+02 -0.19850778106E+02  0.60107175568E+02  0.86418133858E+02  0.00000000000E+00 0.  1.
         11    1    1    2    0    0  0.35171722235E+02  0.10735926706E+03 -0.34391319015E+02  0.11809244299E+03  0.00000000000E+00 0. -1.
        -15    1    3    3    0    0 -0.10954502981E+02 -0.10331104786E+02  0.30403582012E+02  0.33974525601E+02  0.17770000000E+01 0.  1.
         15    1    3    3    0    0 -0.83048910656E+02 -0.77177384166E+02 -0.56119438565E+02  0.12651489755E+03  0.17770000000E+01 0. -1.
</event>
<event>
 7    1  0.4412602E-007  0.2144177E+03  0.7546771E-02  0.1045553E+00
        -11   -1    0    0    0    0  0.00000000000E+00  0.00000000000E+00  0.18250000000E+03  0.18250000000E+03  0.00000000000E+00 0.  1.
         11   -1    0    0    0    0 -0.00000000000E+00 -0.00000000000E+00 -0.18250000000E+03  0.18250000000E+03  0.00000000000E+00 0.  1.
         23    2    1    2    0    0  0.24030401819E+02 -0.46079304385E+02  0.22336756325E+02  0.10681722848E+03  0.90610303568E+02 0.  0.
        -11    1    1    2    0    0 -0.48493446479E+01 -0.10304858378E+03 -0.30583091059E+02  0.10760042854E+03  0.00000000000E+00 0.  1.
         11    1    1    2    0    0 -0.19181057171E+02  0.14912788816E+03  0.82463347341E+01  0.15058234299E+03  0.00000000000E+00 0.  1.
        -15    1    3    3    0    0 -0.21113481988E+01 -0.25440726831E+02 -0.33270715945E+02  0.41973642222E+02  0.17770000000E+01 0.  1.
         15    1    3    3    0    0  0.26141750018E+02 -0.20638577554E+02  0.55607472270E+02  0.64843586258E+02  0.17770000000E+01 0. -1.
</event>
<event>
 7    1  0.4412602E-007  0.1350631E+03  0.7546771E-02  0.1114089E+00
        -11   -1    0    0    0    0  0.00000000000E+00  0.00000000000E+00  0.18250000000E+03  0.18250000000E+03  0.00000000000E+00 0.  1.
         11   -1    0    0    0    0 -0.00000000000E+00 -0.00000000000E+00 -0.18250000000E+03  0.18250000000E+03  0.00000000000E+00 0. -1.
         23    2    1    2    0    0  0.19678471336E+02 -0.65490371227E+00 -0.13970625901E+02  0.93797019439E+02  0.90636810042E+02 0.  0.
        -11    1    1    2    0    0  0.11714389881E+02 -0.10003325454E+03  0.94806765810E+02  0.13831920253E+03  0.00000000000E+00 0.  1.
         11    1    1    2    0    0 -0.31392861217E+02  0.10068815826E+03 -0.80836139909E+02  0.13288377803E+03  0.00000000000E+00 0. -1.
        -15    1    3    3    0    0 -0.32459690113E+02 -0.12578583657E+02  0.83041329100E+01  0.35832507608E+02  0.17770000000E+01 0.  1.
         15    1    3    3    0    0  0.52138161450E+02  0.11923679944E+02 -0.22274758811E+02  0.57964511831E+02  0.17770000000E+01 0. -1.
</event>
<event>
 7    1  0.4412602E-007  0.1372420E+03  0.7546771E-02  0.1111563E+00
        -11   -1    0    0    0    0  0.00000000000E+00  0.00000000000E+00  0.18250000000E+03  0.18250000000E+03  0.00000000000E+00 0.  1.
         11   -1    0    0    0    0 -0.00000000000E+00 -0.00000000000E+00 -0.18250000000E+03  0.18250000000E+03  0.00000000000E+00 0.  1.
         23    2    1    2    0    0 -0.70894231714E+02 -0.27161300532E+01 -0.94688314315E+02  0.15001266066E+03  0.92220128158E+02 0.  0.
        -11    1    1    2    0    0  0.51502741400E+01  0.81274963491E+02  0.74921038983E+02  0.11065851570E+03  0.00000000000E+00 0.  1.
         11    1    1    2    0    0  0.65743957574E+02 -0.78558833438E+02  0.19767275332E+02  0.10432882364E+03  0.00000000000E+00 0.  1.
        -15    1    3    3    0    0 -0.37205385464E+02  0.44388378083E+02 -0.40628775874E+02  0.70770219544E+02  0.17770000000E+01 0. -1.
         15    1    3    3    0    0 -0.33688846250E+02 -0.47104508136E+02 -0.54059538442E+02  0.79242441116E+02  0.17770000000E+01 0.  1.
</event>
<event>
 7    1  0.4412602E-007  0.1407149E+03  0.7546771E-02  0.1107641E+00
        -11   -1    0    0    0    0  0.00000000000E+00  0.00000000000E+00  0.18250000000E+03  0.18250000000E+03  0.00000000000E+00 0. -1.
         11   -1    0    0    0    0 -0.00000000000E+00 -0.00000000000E+00 -0.18250000000E+03  0.18250000000E+03  0.00000000000E+00 0.  1.
         23    2    1    2    0    0 -0.14490218249E+02 -0.65945504720E+02 -0.86425784364E+02  0.14202884974E+03  0.90244124123E+02 0.  0.
        -11    1    1    2    0    0 -0.88934638004E+02  0.14791873771E+02  0.37863652084E+02  0.97784587312E+02  0.00000000000E+00 0.  1.
         11    1    1    2    0    0  0.10342485625E+03  0.51153630950E+02  0.48562132280E+02  0.12518656294E+03  0.00000000000E+00 0. -1.
        -15    1    3    3    0    0 -0.50497203937E+02 -0.46053604330E+02 -0.69563107801E+02  0.97535048947E+02  0.17770000000E+01 0.  1.
         15    1    3    3    0    0  0.36006985687E+02 -0.19891900390E+02 -0.16862676563E+02  0.44493800796E+02  0.17770000000E+01 0. -1.
</event>
<event>
 7    1  0.4412602E-007  0.1783206E+03  0.7546771E-02  0.1071831E+00
        -11   -1    0    0    0    0  0.00000000000E+00  0.00000000000E+00  0.18250000000E+03  0.18250000000E+03  0.00000000000E+00 0. -1.
         11   -1    0    0    0    0 -0.00000000000E+00 -0.00000000000E+00 -0.18250000000E+03  0.18250000000E+03  0.00000000000E+00 0.  1.
         23    2    1    2    0    0 -0.21381461215E+02  0.74837680654E+01 -0.14112739767E+03  0.16888505100E+03  0.89955791412E+02 0.  0.
        -11    1    1    2    0    0  0.39323035111E+02 -0.26846381550E+02  0.15784463539E+03  0.16486951875E+03  0.00000000000E+00 0. -1.
         11    1    1    2    0    0 -0.17941573896E+02  0.19362613485E+02 -0.16717237712E+02  0.31245430251E+02  0.00000000000E+00 0.  1.
        -15    1    3    3    0    0  0.17342020233E+02 -0.32614487724E+02 -0.55001027486E+02  0.66277607295E+02  0.17770000000E+01 0. -1.
         15    1    3    3    0    0 -0.38723481447E+02  0.40098255789E+02 -0.86126370187E+02  0.10260744370E+03  0.17770000000E+01 0.  1.
</event>
<event>
 7    1  0.4412602E-007  0.1861714E+03  0.7546771E-02  0.1065569E+00
        -11   -1    0    0    0    0  0.00000000000E+00  0.00000000000E+00  0.18250000000E+03  0.18250000000E+03  0.00000000000E+00 0.  1.
         11   -1    0    0    0    0 -0.00000000000E+00 -0.00000000000E+00 -0.18250000000E+03  0.18250000000E+03  0.00000000000E+00 0. -1.
         23    2    1    2    0    0  0.45988359130E+01 -0.80918914965E+02  0.14016843285E+03  0.18545903031E+03  0.90436951875E+02 0.  0.
        -11    1    1    2    0    0  0.15173022023E+02  0.32392658987E+01  0.26755660809E+01  0.15743954228E+02  0.00000000000E+00 0.  1.
         11    1    1    2    0    0 -0.19771857936E+02  0.77679649066E+02 -0.14284399893E+03  0.16379701547E+03  0.00000000000E+00 0. -1.
        -15    1    3    3    0    0 -0.82405324468E+01 -0.76758531132E+02  0.14997101754E+03  0.16868385313E+03  0.17770000000E+01 0.  1.
         15    1    3    3    0    0  0.12839368360E+02 -0.41603838324E+01 -0.98025846937E+01  0.16775177173E+02  0.17770000000E+01 0. -1.
</event>
<event>
 7    1  0.4412602E-007  0.1739285E+03  0.7546771E-02  0.1075490E+00
        -11   -1    0    0    0    0  0.00000000000E+00  0.00000000000E+00  0.18250000000E+03  0.18250000000E+03  0.00000000000E+00 0. -1.
         11   -1    0    0    0    0 -0.00000000000E+00 -0.00000000000E+00 -0.18250000000E+03  0.18250000000E+03  0.00000000000E+00 0.  1.
         23    2    1    2    0    0 -0.26209807298E+02 -0.24962125939E+02 -0.13196531603E+03  0.16636806523E+03  0.94622548921E+02 0.  0.
        -11    1    1    2    0    0  0.59887736983E+02  0.24743033549E+01  0.14433771775E+03  0.15628832324E+03  0.00000000000E+00 0. -1.
         11    1    1    2    0    0 -0.33677929685E+02  0.22487822584E+02 -0.12372401715E+02  0.42343611521E+02  0.00000000000E+00 0.  1.
        -15    1    3    3    0    0  0.16007962131E+02  0.25294773384E+02 -0.18384930693E+02  0.35174476794E+02  0.17770000000E+01 0. -1.
         15    1    3    3    0    0 -0.42217769429E+02 -0.50256899322E+02 -0.11358038534E+03  0.13119358844E+03  0.17770000000E+01 0.  1.
</event>
<event>
 7    1  0.4412602E-007  0.1677769E+03  0.7546771E-02  0.1080818E+00
        -11   -1    0    0    0    0  0.00000000000E+00  0.00000000000E+00  0.18250000000E+03  0.18250000000E+03  0.00000000000E+00 0. -1.
         11   -1    0    0    0    0 -0.00000000000E+00 -0.00000000000E+00 -0.18250000000E+03  0.18250000000E+03  0.00000000000E+00 0.  1.
         23    2    1    2    0    0 -0.76531404439E+02  0.77507515888E+02  0.76358119071E+02  0.16137379563E+03  0.91359009866E+02 0.  0.
        -11    1    1    2    0    0  0.35783533054E+02  0.19975315705E+02  0.32216065392E+02  0.52128201050E+02  0.00000000000E+00 0. -1.
         11    1    1    2    0    0  0.40747871385E+02 -0.97482831594E+02 -0.10857418446E+03  0.15149800332E+03  0.00000000000E+00 0.  1.
        -15    1    3    3    0    0 -0.74972018303E+02  0.23181010422E+02  0.72510108293E+02  0.10685989101E+03  0.17770000000E+01 0. -1.
         15    1    3    3    0    0 -0.15593861365E+01  0.54326505466E+02  0.38480107777E+01  0.54513904623E+02  0.17770000000E+01 0.  1.
</event>
<event>
 7    1  0.4412602E-007  0.1238356E+03  0.7546771E-02  0.1127996E+00
        -11   -1    0    0    0    0  0.00000000000E+00  0.00000000000E+00  0.18250000000E+03  0.18250000000E+03  0.00000000000E+00 0.  1.
         11   -1    0    0    0    0 -0.00000000000E+00 -0.00000000000E+00 -0.18250000000E+03  0.18250000000E+03  0.00000000000E+00 0. -1.
         23    2    1    2    0    0  0.47692935182E+02  0.12926582421E+02  0.76316014340E+00  0.11244642731E+03  0.10100447515E+03 0.  0.
        -11    1    1    2    0    0 -0.66112173319E+02  0.33846952440E+02  0.10895813203E+03  0.13186474201E+03  0.00000000000E+00 0.  1.
         11    1    1    2    0    0  0.18419238137E+02 -0.46773534861E+02 -0.10972129217E+03  0.12068883069E+03  0.00000000000E+00 0. -1.
        -15    1    3    3    0    0  0.10835334883E+02  0.53547560414E+02 -0.12312400728E+02  0.56031229230E+02  0.17770000000E+01 0. -1.
         15    1    3    3    0    0  0.36857600298E+02 -0.40620977992E+02  0.13075560872E+02  0.56415198076E+02  0.17770000000E+01 0.  1.
</event>
<event>
 7    1  0.4412602E-007  0.1340398E+03  0.7546771E-02  0.1115294E+00
        -11   -1    0    0    0    0  0.00000000000E+00  0.00000000000E+00  0.18250000000E+03  0.18250000000E+03  0.00000000000E+00 0.  1.
         11   -1    0    0    0    0 -0.00000000000E+00 -0.00000000000E+00 -0.18250000000E+03  0.18250000000E+03  0.00000000000E+00 0. -1.
         23    2    1    2    0    0  0.10152700881E+02 -0.25943521702E+02  0.34949218076E+01  0.95453950805E+02  0.91231017709E+02 0.  0.
        -11    1    1    2    0    0 -0.95706670981E+01  0.56217224741E+02  0.12507340078E+03  0.13746028375E+03  0.00000000000E+00 0.  1.
         11    1    1    2    0    0 -0.58203378329E+00 -0.30273703039E+02 -0.12856832259E+03  0.13208576544E+03  0.00000000000E+00 0. -1.
        -15    1    3    3    0    0 -0.32674891483E+01 -0.25404568310E+00  0.44804589360E+02  0.44959425945E+02  0.17770000000E+01 0.  1.
         15    1    3    3    0    0  0.13420190030E+02 -0.25689476018E+02 -0.41309667553E+02  0.50494524860E+02  0.17770000000E+01 0. -1.
</event>
<event>
 7    1  0.4412602E-007  0.1620701E+03  0.7546771E-02  0.1085990E+00
        -11   -1    0    0    0    0  0.00000000000E+00  0.00000000000E+00  0.18250000000E+03  0.18250000000E+03  0.00000000000E+00 0.  1.
         11   -1    0    0    0    0 -0.00000000000E+00 -0.00000000000E+00 -0.18250000000E+03  0.18250000000E+03  0.00000000000E+00 0.  1.
         23    2    1    2    0    0 -0.19446458380E+02  0.10095907272E+03 -0.11342910851E+03  0.17580107783E+03  0.86423128854E+02 0.  0.
        -11    1    1    2    0    0  0.52420528283E+02 -0.10681837564E+02  0.26920961631E+02  0.59889495025E+02  0.00000000000E+00 0.  1.
         11    1    1    2    0    0 -0.32974069903E+02 -0.90277235151E+02  0.86508146880E+02  0.12930942715E+03  0.00000000000E+00 0.  1.
        -15    1    3    3    0    0 -0.44397026392E+02  0.76357873576E+02 -0.10920207487E+03  0.14046306168E+03  0.17770000000E+01 0.  1.
         15    1    3    3    0    0  0.24950568012E+02  0.24601199139E+02 -0.42270336362E+01  0.35338016152E+02  0.17770000000E+01 0. -1.
</event>
<event>
 7    1  0.4412602E-007  0.1832825E+03  0.7546771E-02  0.1067834E+00
        -11   -1    0    0    0    0  0.00000000000E+00  0.00000000000E+00  0.18250000000E+03  0.18250000000E+03  0.00000000000E+00 0.  1.
         11   -1    0    0    0    0 -0.00000000000E+00 -0.00000000000E+00 -0.18250000000E+03  0.18250000000E+03  0.00000000000E+00 0. -1.
         23    2    1    2    0    0  0.38238866310E+01  0.20210279907E+02 -0.16344192327E+03  0.18816967114E+03  0.90947706584E+02 0.  0.
        -11    1    1    2    0    0  0.13770902709E+02  0.11263723208E+02  0.12758517999E+02  0.21892670085E+02  0.00000000000E+00 0. -1.
         11    1    1    2    0    0 -0.17594789340E+02 -0.31474003114E+02  0.15068340527E+03  0.15493765878E+03  0.00000000000E+00 0.  1.
        -15    1    3    3    0    0  0.22962294409E+02  0.50161203792E+02 -0.11944519119E+03  0.13158162774E+03  0.17770000000E+01 0. -1.
         15    1    3    3    0    0 -0.19138407778E+02 -0.29950923885E+02 -0.43996732078E+02  0.56588043405E+02  0.17770000000E+01 0.  1.
</event>
<event>
 7    1  0.4412602E-007  0.1864867E+03  0.7546771E-02  0.1065325E+00
        -11   -1    0    0    0    0  0.00000000000E+00  0.00000000000E+00  0.18250000000E+03  0.18250000000E+03  0.00000000000E+00 0.  1.
         11   -1    0    0    0    0 -0.00000000000E+00 -0.00000000000E+00 -0.18250000000E+03  0.18250000000E+03  0.00000000000E+00 0. -1.
         23    2    1    2    0    0  0.78717799692E+02  0.11328980949E+02 -0.13802876201E+03  0.18387759184E+03  0.91837856249E+02 0.  0.
        -11    1    1    2    0    0 -0.90146901025E+02 -0.22230473787E+02  0.13672973968E+03  0.16527455776E+03  0.00000000000E+00 0.  1.
         11    1    1    2    0    0  0.11429101333E+02  0.10901492838E+02  0.12990223278E+01  0.15847850403E+02  0.00000000000E+00 0. -1.
        -15    1    3    3    0    0 -0.31642008114E+01  0.35192630513E+02 -0.31232568913E+02  0.47192843728E+02  0.17770000000E+01 0.  1.
         15    1    3    3    0    0  0.81882000503E+02 -0.23863649564E+02 -0.10679619310E+03  0.13668474811E+03  0.17770000000E+01 0. -1.
</event>
<event>
 7    1  0.4412602E-007  0.1756261E+03  0.7546771E-02  0.1074062E+00
        -11   -1    0    0    0    0  0.00000000000E+00  0.00000000000E+00  0.18250000000E+03  0.18250000000E+03  0.00000000000E+00 0.  1.
         11   -1    0    0    0    0 -0.00000000000E+00 -0.00000000000E+00 -0.18250000000E+03  0.18250000000E+03  0.00000000000E+00 0.  1.
         23    2    1    2    0    0 -0.18997757174E+02 -0.58140391868E+01 -0.16144255913E+03  0.18496576487E+03  0.88056325418E+02 0.  0.
        -11    1    1    2    0    0  0.43446135482E+02 -0.43205427409E+01  0.13778213777E+03  0.14453425638E+03  0.00000000000E+00 0.  1.
         11    1    1    2    0    0 -0.24448378309E+02  0.10134581928E+02  0.23660421360E+02  0.35499978756E+02  0.00000000000E+00 0.  1.
        -15    1    3    3    0    0 -0.22021990867E+02 -0.18070457598E+02 -0.62093911200E+01  0.29209994636E+02  0.17770000000E+01 0. -1.
         15    1    3    3    0    0  0.30242336935E+01  0.12256418411E+02 -0.15523316801E+03  0.15575577023E+03  0.17770000000E+01 0.  1.
</event>
<event>
 7    1  0.4412602E-007  0.1751281E+03  0.7546771E-02  0.1074479E+00
        -11   -1    0    0    0    0  0.00000000000E+00  0.00000000000E+00  0.18250000000E+03  0.18250000000E+03  0.00000000000E+00 0. -1.
         11   -1    0    0    0    0 -0.00000000000E+00 -0.00000000000E+00 -0.18250000000E+03  0.18250000000E+03  0.00000000000E+00 0.  1.
         23    2    1    2    0    0  0.16518855453E+00 -0.86622361610E+02  0.10090587331E+03  0.16187927153E+03  0.92300825913E+02 0.  0.
        -11    1    1    2    0    0 -0.43400845682E+00 -0.38266846129E+02  0.59842166179E+01  0.38734361031E+02  0.00000000000E+00 0. -1.
         11    1    1    2    0    0  0.26881990230E+00  0.12488920774E+03 -0.10689008993E+03  0.16438636744E+03  0.00000000000E+00 0.  1.
        -15    1    3    3    0    0 -0.37447222327E+02 -0.62853907827E+02  0.32085616857E+02  0.79909653530E+02  0.17770000000E+01 0.  1.
         15    1    3    3    0    0  0.37612410882E+02 -0.23768453783E+02  0.68820256456E+02  0.81969618002E+02  0.17770000000E+01 0. -1.
</event>
<event>
 7    1  0.4412602E-007  0.1434310E+03  0.7546771E-02  0.1104660E+00
        -11   -1    0    0    0    0  0.00000000000E+00  0.00000000000E+00  0.18250000000E+03  0.18250000000E+03  0.00000000000E+00 0.  1.
         11   -1    0    0    0    0 -0.00000000000E+00 -0.00000000000E+00 -0.18250000000E+03  0.18250000000E+03  0.00000000000E+00 0. -1.
         23    2    1    2    0    0  0.36606418062E+02 -0.79592956997E+01 -0.12867286396E+03  0.16139164690E+03  0.89928735892E+02 0.  0.
        -11    1    1    2    0    0 -0.23149002647E+02  0.80589602633E+02  0.71664843687E+02  0.11030145147E+03  0.00000000000E+00 0.  1.
         11    1    1    2    0    0 -0.13457415415E+02 -0.72630306934E+02  0.57008020275E+02  0.93306901624E+02  0.00000000000E+00 0. -1.
        -15    1    3    3    0    0  0.41832831713E+02 -0.28002894452E+02 -0.13111578922E+03  0.14045873350E+03  0.17770000000E+01 0. -1.
         15    1    3    3    0    0 -0.52264136510E+01  0.20043598752E+02  0.24429252554E+01  0.20932913399E+02  0.17770000000E+01 0.  1.
</event>
<event>
 7    1  0.4412602E-007  0.1701523E+03  0.7546771E-02  0.1078732E+00
        -11   -1    0    0    0    0  0.00000000000E+00  0.00000000000E+00  0.18250000000E+03  0.18250000000E+03  0.00000000000E+00 0.  1.
         11   -1    0    0    0    0 -0.00000000000E+00 -0.00000000000E+00 -0.18250000000E+03  0.18250000000E+03  0.00000000000E+00 0.  1.
         23    2    1    2    0    0  0.30621675651E+02 -0.12032979696E+01  0.11772787174E+03  0.15329338430E+03  0.93273120147E+02 0.  0.
        -11    1    1    2    0    0 -0.43849529016E+02 -0.28068834599E+02 -0.15440806722E+03  0.16294935377E+03  0.00000000000E+00 0.  1.
         11    1    1    2    0    0  0.13227853365E+02  0.29272132568E+02  0.36680195487E+02  0.48757261928E+02  0.00000000000E+00 0.  1.
        -15    1    3    3    0    0  0.48869890835E+02  0.33260433275E+02  0.70999010673E+02  0.92404220128E+02  0.17770000000E+01 0.  1.
         15    1    3    3    0    0 -0.18248215185E+02 -0.34463731244E+02  0.46728861062E+02  0.60889164175E+02  0.17770000000E+01 0. -1.
</event>
<event>
 7    1  0.4412602E-007  0.1501056E+03  0.7546771E-02  0.1097634E+00
        -11   -1    0    0    0    0  0.00000000000E+00  0.00000000000E+00  0.18250000000E+03  0.18250000000E+03  0.00000000000E+00 0.  1.
         11   -1    0    0    0    0 -0.00000000000E+00 -0.00000000000E+00 -0.18250000000E+03  0.18250000000E+03  0.00000000000E+00 0. -1.
         23    2    1    2    0    0 -0.12479931929E+03  0.42435424005E+02 -0.30767146375E+02  0.16267279849E+03  0.90222983579E+02 0.  0.
        -11    1    1    2    0    0  0.79160513581E+02 -0.67012106323E+01  0.89592850131E+02  0.11974210592E+03  0.00000000000E+00 0.  1.
         11    1    1    2    0    0  0.45638805711E+02 -0.35734213373E+02 -0.58825703756E+02  0.82585095596E+02  0.00000000000E+00 0. -1.
        -15    1    3    3    0    0 -0.45708528799E+02 -0.23940063628E+01  0.28672186773E+02  0.54039364307E+02  0.17770000000E+01 0.  1.
         15    1    3    3    0    0 -0.79090790493E+02  0.44829430368E+02 -0.59439333148E+02  0.10863343418E+03  0.17770000000E+01 0. -1.
</event>
<event>
 7    1  0.4412602E-007  0.1539984E+03  0.7546771E-02  0.1093718E+00
        -11   -1    0    0    0    0  0.00000000000E+00  0.00000000000E+00  0.18250000000E+03  0.18250000000E+03  0.00000000000E+00 0.  1.
         11   -1    0    0    0    0 -0.00000000000E+00 -0.00000000000E+00 -0.18250000000E+03  0.18250000000E+03  0.00000000000E+00 0.  1.
         23    2    1    2    0    0  0.73976516009E+02 -0.39879440271E+02 -0.10415622292E+03  0.15827052508E+03  0.84487547363E+02 0.  0.
        -11    1    1    2    0    0 -0.46224102394E+01  0.52989021100E+02  0.12271621100E+03  0.13374779055E+03  0.00000000000E+00 0.  1.
         11    1    1    2    0    0 -0.69354105769E+02 -0.13109580829E+02 -0.18559988085E+02  0.72981684375E+02  0.00000000000E+00 0.  1.
        -15    1    3    3    0    0  0.31180736386E+02 -0.33883390750E+02 -0.10536731297E+03  0.11500326457E+03  0.17770000000E+01 0.  1.
         15    1    3    3    0    0  0.42795779623E+02 -0.59960495214E+01  0.12110900588E+01  0.43267260504E+02  0.17770000000E+01 0. -1.
</event>
<event>
 7    1  0.4412602E-007  0.1388297E+03  0.7546771E-02  0.1109754E+00
        -11   -1    0    0    0    0  0.00000000000E+00  0.00000000000E+00  0.18250000000E+03  0.18250000000E+03  0.00000000000E+00 0. -1.
         11   -1    0    0    0    0 -0.00000000000E+00 -0.00000000000E+00 -0.18250000000E+03  0.18250000000E+03  0.00000000000E+00 0. -1.
         23    2    1    2    0    0  0.18188565297E+02 -0.24790847107E+02 -0.15297820302E+03  0.17172579540E+03  0.71707797331E+02 0.  0.
        -11    1    1    2    0    0 -0.44260596253E+02 -0.32661398870E+02  0.73149400572E+02  0.91523779210E+02  0.00000000000E+00 0. -1.
         11    1    1    2    0    0  0.26072030956E+02  0.57452245977E+02  0.79828802452E+02  0.10175042539E+03  0.00000000000E+00 0. -1.
        -15    1    3    3    0    0 -0.25110525432E+01 -0.20146599885E+02 -0.14860088880E+03  0.14999190896E+03  0.17770000000E+01 0. -1.
         15    1    3    3    0    0  0.20699617840E+02 -0.46442472222E+01 -0.43773142200E+01  0.21733886440E+02  0.17770000000E+01 0.  1.
</event>
<event>
 7    1  0.4412602E-007  0.1311871E+03  0.7546771E-02  0.1118716E+00
        -11   -1    0    0    0    0  0.00000000000E+00  0.00000000000E+00  0.18250000000E+03  0.18250000000E+03  0.00000000000E+00 0.  1.
         11   -1    0    0    0    0 -0.00000000000E+00 -0.00000000000E+00 -0.18250000000E+03  0.18250000000E+03  0.00000000000E+00 0. -1.
         23    2    1    2    0    0 -0.74503994761E+02 -0.44008058565E+02  0.72703555338E+01  0.12666873218E+03  0.92220145240E+02 0.  0.
        -11    1    1    2    0    0  0.42645434992E+02  0.60920562753E+02  0.10030837792E+03  0.12486680413E+03  0.00000000000E+00 0.  1.
         11    1    1    2    0    0  0.31858559769E+02 -0.16912504188E+02 -0.10757873346E+03  0.11346446369E+03  0.00000000000E+00 0. -1.
        -15    1    3    3    0    0  0.16816986780E+02 -0.23598952916E+02  0.15148920548E+02  0.32747047895E+02  0.17770000000E+01 0.  1.
         15    1    3    3    0    0 -0.91320981540E+02 -0.20409105649E+02 -0.78785650140E+01  0.93921684283E+02  0.17770000000E+01 0. -1.
</event>
<event>
 7    1  0.4412602E-007  0.1690179E+03  0.7546771E-02  0.1079724E+00
        -11   -1    0    0    0    0  0.00000000000E+00  0.00000000000E+00  0.18250000000E+03  0.18250000000E+03  0.00000000000E+00 0.  1.
         11   -1    0    0    0    0 -0.00000000000E+00 -0.00000000000E+00 -0.18250000000E+03  0.18250000000E+03  0.00000000000E+00 0.  1.
         23    2    1    2    0    0 -0.10842317540E+03 -0.98897337442E+02  0.65752286512E+01  0.17225389318E+03  0.89954998556E+02 0.  0.
        -11    1    1    2    0    0  0.25153154120E+02 -0.79388138552E+01  0.41364725889E+02  0.49058602462E+02  0.00000000000E+00 0.  1.
         11    1    1    2    0    0  0.83270021282E+02  0.10683615130E+03 -0.47939954541E+02  0.14368750436E+03  0.00000000000E+00 0.  1.
        -15    1    3    3    0    0 -0.10335491286E+01 -0.13696358983E+01  0.25791705518E+02  0.25909726529E+02  0.17770000000E+01 0. -1.
         15    1    3    3    0    0 -0.10738962627E+03 -0.97527701543E+02 -0.19216476867E+02  0.14634416665E+03  0.17770000000E+01 0.  1.
</event>
<event>
 7    1  0.4412602E-007  0.1733361E+03  0.7546771E-02  0.1075993E+00
        -11   -1    0    0    0    0  0.00000000000E+00  0.00000000000E+00  0.18250000000E+03  0.18250000000E+03  0.00000000000E+00 0.  1.
         11   -1    0    0    0    0 -0.00000000000E+00 -0.00000000000E+00 -0.18250000000E+03  0.18250000000E+03  0.00000000000E+00 0. -1.
         23    2    1    2    0    0 -0.13577446024E+03  0.36027563456E+02  0.83249330256E+01  0.16574783666E+03  0.87580542745E+02 0.  0.
        -11    1    1    2    0    0 -0.10746169842E+02  0.77184331252E+01  0.37382835324E+02  0.39655147876E+02  0.00000000000E+00 0.  1.
         11    1    1    2    0    0  0.14652063008E+03 -0.43745996581E+02 -0.45707768350E+02  0.15959701546E+03  0.00000000000E+00 0. -1.
        -15    1    3    3    0    0 -0.12656097487E+03  0.43900038923E+02 -0.19466308771E+02  0.13537720888E+03  0.17770000000E+01 0.  1.
         15    1    3    3    0    0 -0.92134853697E+01 -0.78724754670E+01  0.27791241796E+02  0.30370627788E+02  0.17770000000E+01 0. -1.
</event>
<event>
 7    1  0.4412602E-007  0.1493376E+03  0.7546771E-02  0.1098421E+00
        -11   -1    0    0    0    0  0.00000000000E+00  0.00000000000E+00  0.18250000000E+03  0.18250000000E+03  0.00000000000E+00 0. -1.
         11   -1    0    0    0    0 -0.00000000000E+00 -0.00000000000E+00 -0.18250000000E+03  0.18250000000E+03  0.00000000000E+00 0. -1.
         23    2    1    2    0    0 -0.40672490649E+02  0.29159460732E+02 -0.69998941100E+02  0.12481502905E+03  0.90412466378E+02 0.  0.
        -11    1    1    2    0    0  0.29705201934E+02 -0.17266583883E+02  0.15239268735E+03  0.15621800504E+03  0.00000000000E+00 0. -1.
         11    1    1    2    0    0  0.10967288715E+02 -0.11892876848E+02 -0.82393746253E+02  0.83966965904E+02  0.00000000000E+00 0. -1.
        -15    1    3    3    0    0 -0.10861208929E+02  0.50449015848E+01 -0.83312100211E+02  0.84187176351E+02  0.17770000000E+01 0.  1.
         15    1    3    3    0    0 -0.29811281720E+02  0.24114559147E+02  0.13313159111E+02  0.40627852701E+02  0.17770000000E+01 0. -1.
</event>
<event>
 7    1  0.4412602E-007  0.1862073E+03  0.7546771E-02  0.1065542E+00
        -11   -1    0    0    0    0  0.00000000000E+00  0.00000000000E+00  0.18250000000E+03  0.18250000000E+03  0.00000000000E+00 0.  1.
         11   -1    0    0    0    0 -0.00000000000E+00 -0.00000000000E+00 -0.18250000000E+03  0.18250000000E+03  0.00000000000E+00 0.  1.
         23    2    1    2    0    0  0.45747525221E+02  0.37581280091E+02  0.15107392940E+03  0.18620727087E+03  0.91348929389E+02 0.  0.
        -11    1    1    2    0    0 -0.50291227421E+02  0.66353980361E+01 -0.89069737866E+02  0.10250197201E+03  0.00000000000E+00 0.  1.
         11    1    1    2    0    0  0.45437021996E+01 -0.44216678127E+02 -0.62004191538E+02  0.76290757124E+02  0.00000000000E+00 0.  1.
        -15    1    3    3    0    0  0.71034735689E+02  0.20383172197E+02  0.80613429515E+02  0.10937591202E+03  0.17770000000E+01 0.  1.
         15    1    3    3    0    0 -0.25287210467E+02  0.17198107894E+02  0.70460499888E+02  0.76831358844E+02  0.17770000000E+01 0. -1.
</event>
<event>
 7    1  0.4412602E-007  0.1929280E+03  0.7546771E-02  0.1060444E+00
        -11   -1    0    0    0    0  0.00000000000E+00  0.00000000000E+00  0.18250000000E+03  0.18250000000E+03  0.00000000000E+00 0. -1.
         11   -1    0    0    0    0 -0.00000000000E+00 -0.00000000000E+00 -0.18250000000E+03  0.18250000000E+03  0.00000000000E+00 0. -1.
         23    2    1    2    0    0 -0.43679291654E+02 -0.70624412854E+02 -0.14275912118E+03  0.19292795923E+03  0.99726338358E+02 0.  0.
        -11    1    1    2    0    0  0.25475961435E+02  0.72881693834E+02  0.12192557947E+03  0.14431428493E+03  0.00000000000E+00 0. -1.
         11    1    1    2    0    0  0.18203330219E+02 -0.22572809805E+01  0.20833541715E+02  0.27757755833E+02  0.00000000000E+00 0. -1.
        -15    1    3    3    0    0  0.18505642779E+02 -0.35607615635E+02 -0.87806684689E+01  0.41117137225E+02  0.17770000000E+01 0.  1.
         15    1    3    3    0    0 -0.62184934433E+02 -0.35016797219E+02 -0.13397845271E+03  0.15181082201E+03  0.17770000000E+01 0. -1.
</event>
<event>
 7    1  0.4412602E-007  0.1581870E+03  0.7546771E-02  0.1089645E+00
        -11   -1    0    0    0    0  0.00000000000E+00  0.00000000000E+00  0.18250000000E+03  0.18250000000E+03  0.00000000000E+00 0.  1.
         11   -1    0    0    0    0 -0.00000000000E+00 -0.00000000000E+00 -0.18250000000E+03  0.18250000000E+03  0.00000000000E+00 0.  1.
         23    2    1    2    0    0 -0.18264139720E+02  0.12710185742E+02 -0.13424809205E+03  0.16432355970E+03  0.92111641140E+02 0.  0.
        -11    1    1    2    0    0 -0.49849479380E+02 -0.50967003323E+01  0.12086978976E+03  0.13084514904E+03  0.00000000000E+00 0.  1.
         11    1    1    2    0    0  0.68113619100E+02 -0.76134854094E+01  0.13378302286E+02  0.69831291260E+02  0.00000000000E+00 0.  1.
        -15    1    3    3    0    0 -0.38108113074E+02  0.25913259647E+02 -0.13257106362E+03  0.14036370594E+03  0.17770000000E+01 0.  1.
         15    1    3    3    0    0  0.19843973354E+02 -0.13203073905E+02 -0.16770284315E+01  0.23959853763E+02  0.17770000000E+01 0. -1.
</event>
<event>
 7    1  0.5177889E-007  0.1355706E+03  0.7546771E-02  0.1113496E+00
        -11   -1    0    0    0    0  0.00000000000E+00  0.00000000000E+00  0.18250000000E+03  0.18250000000E+03  0.00000000000E+00 0. -1.
         11   -1    0    0    0    0 -0.00000000000E+00 -0.00000000000E+00 -0.18250000000E+03  0.18250000000E+03  0.00000000000E+00 0.  1.
         23    2    1    2    0    0 -0.77430965326E+02  0.65996358583E+01 -0.45755213915E+02  0.12282236925E+03  0.83382763218E+02 0.  0.
        -11    1    1    2    0    0  0.31068287903E+02 -0.32346588315E+02  0.13284501895E+03  0.14021176608E+03  0.00000000000E+00 0. -1.
         11    1    1    2    0    0  0.46362677423E+02  0.25746952457E+02 -0.87089805030E+02  0.10196586467E+03  0.00000000000E+00 0.  1.
        -15    1    3    3    0    0 -0.68527777602E+02 -0.14701296939E+02 -0.62758009252E+02  0.94095217142E+02  0.17770000000E+01 0.  1.
         15    1    3    3    0    0 -0.89031877239E+01  0.21300932798E+02  0.17002795337E+02  0.28727152103E+02  0.17770000000E+01 0. -1.
</event>
<event>
 7    1  0.4412602E-007  0.1234005E+03  0.7546771E-02  0.1128567E+00
        -11   -1    0    0    0    0  0.00000000000E+00  0.00000000000E+00  0.18250000000E+03  0.18250000000E+03  0.00000000000E+00 0. -1.
         11   -1    0    0    0    0 -0.00000000000E+00 -0.00000000000E+00 -0.18250000000E+03  0.18250000000E+03  0.00000000000E+00 0.  1.
         23    2    1    2    0    0 -0.24873955673E+02  0.48084777000E+02  0.31644985336E+02  0.11035715615E+03  0.90809896857E+02 0.  0.
        -11    1    1    2    0    0 -0.60437982325E+01 -0.44176211157E+02  0.10521861383E+03  0.11427607723E+03  0.00000000000E+00 0. -1.
         11    1    1    2    0    0  0.30917753906E+02 -0.39085658424E+01 -0.13686359917E+03  0.14036676662E+03  0.00000000000E+00 0.  1.
        -15    1    3    3    0    0 -0.16770109971E+02  0.75344381779E+02  0.24063761897E+02  0.80871718293E+02  0.17770000000E+01 0.  1.
         15    1    3    3    0    0 -0.81038457025E+01 -0.27259604779E+02  0.75812234396E+01  0.29485437859E+02  0.17770000000E+01 0. -1.
</event>
<event>
 7    1  0.4412602E-007  0.1719967E+03  0.7546771E-02  0.1077137E+00
        -11   -1    0    0    0    0  0.00000000000E+00  0.00000000000E+00  0.18250000000E+03  0.18250000000E+03  0.00000000000E+00 0.  1.
         11   -1    0    0    0    0 -0.00000000000E+00 -0.00000000000E+00 -0.18250000000E+03  0.18250000000E+03  0.00000000000E+00 0.  1.
         23    2    1    2    0    0 -0.19066585897E+02  0.50853745475E+02 -0.13844796518E+03  0.17332011246E+03  0.89007776017E+02 0.  0.
        -11    1    1    2    0    0 -0.19601510655E+02 -0.67936039504E+02  0.13084592759E+03  0.14872854955E+03  0.00000000000E+00 0.  1.
         11    1    1    2    0    0  0.38668096552E+02  0.17082294029E+02  0.76020375945E+01  0.42951337998E+02  0.00000000000E+00 0.  1.
        -15    1    3    3    0    0  0.12220143095E+02 -0.81728011657E+01  0.45375855758E+01  0.15487865831E+02  0.17770000000E+01 0. -1.
         15    1    3    3    0    0 -0.31286728993E+02  0.59026546641E+02 -0.14298555076E+03  0.15783224662E+03  0.17770000000E+01 0.  1.
</event>
<event>
 7    1  0.4412602E-007  0.1634114E+03  0.7546771E-02  0.1084754E+00
        -11   -1    0    0    0    0  0.00000000000E+00  0.00000000000E+00  0.18250000000E+03  0.18250000000E+03  0.00000000000E+00 0. -1.
         11   -1    0    0    0    0 -0.00000000000E+00 -0.00000000000E+00 -0.18250000000E+03  0.18250000000E+03  0.00000000000E+00 0. -1.
         23    2    1    2    0    0  0.83055713767E+02 -0.42221627303E+02 -0.93613779072E+02  0.15926449359E+03  0.88998437549E+02 0.  0.
        -11    1    1    2    0    0  0.41365641810E+02 -0.14014390012E+02  0.39418675650E+02  0.58833251140E+02  0.00000000000E+00 0. -1.
         11    1    1    2    0    0 -0.12442135558E+03  0.56236017315E+02  0.54195103423E+02  0.14690225527E+03  0.00000000000E+00 0. -1.
        -15    1    3    3    0    0  0.37424163998E+02 -0.61962323111E+02 -0.29682978171E+02  0.78256849275E+02  0.17770000000E+01 0. -1.
         15    1    3    3    0    0  0.45631549769E+02  0.19740695808E+02 -0.63930800901E+02  0.81007644320E+02  0.17770000000E+01 0.  1.
</event>
<event>
 7    1  0.4412602E-007  0.1734831E+03  0.7546771E-02  0.1075868E+00
        -11   -1    0    0    0    0  0.00000000000E+00  0.00000000000E+00  0.18250000000E+03  0.18250000000E+03  0.00000000000E+00 0.  1.
         11   -1    0    0    0    0 -0.00000000000E+00 -0.00000000000E+00 -0.18250000000E+03  0.18250000000E+03  0.00000000000E+00 0. -1.
         23    2    1    2    0    0 -0.57939287853E+02  0.22172990377E+02 -0.13606066135E+03  0.17306636975E+03  0.87125554182E+02 0.  0.
        -11    1    1    2    0    0  0.21199104137E+02 -0.23385747460E+02  0.14949850142E+03  0.15279429677E+03  0.00000000000E+00 0.  1.
         11    1    1    2    0    0  0.36740183716E+02  0.12127570832E+01 -0.13437840064E+02  0.39139333474E+02  0.00000000000E+00 0. -1.
        -15    1    3    3    0    0 -0.62124244486E+01  0.22468583052E+02  0.40264477243E+01  0.23723436769E+02  0.17770000000E+01 0.  1.
         15    1    3    3    0    0 -0.51726863404E+02 -0.29559267434E+00 -0.14008710908E+03  0.14934293298E+03  0.17770000000E+01 0. -1.
</event>
<event>
 7    1  0.4412602E-007  0.1361556E+03  0.7546771E-02  0.1112816E+00
        -11   -1    0    0    0    0  0.00000000000E+00  0.00000000000E+00  0.18250000000E+03  0.18250000000E+03  0.00000000000E+00 0. -1.
         11   -1    0    0    0    0 -0.00000000000E+00 -0.00000000000E+00 -0.18250000000E+03  0.18250000000E+03  0.00000000000E+00 0.  1.
         23    2    1    2    0    0  0.16313991197E+02 -0.52182641414E+02 -0.59377382719E+02  0.12308787769E+03  0.92928885074E+02 0.  0.
        -11    1    1    2    0    0  0.72634955952E+02 -0.50024979459E+02  0.59554186506E+02  0.10641915488E+03  0.00000000000E+00 0. -1.
         11    1    1    2    0    0 -0.88948947148E+02  0.10220762087E+03 -0.17680378784E+00  0.13549296743E+03  0.00000000000E+00 0.  1.
        -15    1    3    3    0    0 -0.45366902929E+01 -0.63654737381E+02 -0.71887583615E+02  0.96143068168E+02  0.17770000000E+01 0.  1.
         15    1    3    3    0    0  0.20850681490E+02  0.11472095967E+02  0.12510200896E+02  0.26944809517E+02  0.17770000000E+01 0. -1.
</event>
<event>
 7    1  0.4412602E-007  0.1362638E+03  0.7546771E-02  0.1112691E+00
        -11   -1    0    0    0    0  0.00000000000E+00  0.00000000000E+00  0.18250000000E+03  0.18250000000E+03  0.00000000000E+00 0. -1.
         11   -1    0    0    0    0 -0.00000000000E+00 -0.00000000000E+00 -0.18250000000E+03  0.18250000000E+03  0.00000000000E+00 0. -1.
         23    2    1    2    0    0 -0.57972035851E+02 -0.14431557252E+02 -0.54642684022E+02  0.12099123286E+03  0.89911226928E+02 0.  0.
        -11    1    1    2    0    0  0.56977671377E+02  0.11858526758E+03  0.46474038218E+02  0.13953048753E+03  0.00000000000E+00 0. -1.
         11    1    1    2    0    0  0.99436447386E+00 -0.10415371033E+03  0.81686458043E+01  0.10447827961E+03  0.00000000000E+00 0. -1.
        -15    1    3    3    0    0 -0.55225843026E+02  0.29214770087E+02 -0.21524704378E+02  0.66104970742E+02  0.17770000000E+01 0. -1.
         15    1    3    3    0    0 -0.27461928245E+01 -0.43646327339E+02 -0.33117979644E+02  0.54886262123E+02  0.17770000000E+01 0.  1.
</event>
<event>
 7    1  0.4412602E-007  0.1344035E+03  0.7546771E-02  0.1114864E+00
        -11   -1    0    0    0    0  0.00000000000E+00  0.00000000000E+00  0.18250000000E+03  0.18250000000E+03  0.00000000000E+00 0.  1.
         11   -1    0    0    0    0 -0.00000000000E+00 -0.00000000000E+00 -0.18250000000E+03  0.18250000000E+03  0.00000000000E+00 0. -1.
         23    2    1    2    0    0 -0.17325354054E+02 -0.37853708288E+02 -0.42323896732E+02  0.10950072947E+03  0.92011012355E+02 0.  0.
        -11    1    1    2    0    0 -0.57653806979E+02  0.93600445372E+02  0.97544092719E+02  0.14696889078E+03  0.00000000000E+00 0.  1.
         11    1    1    2    0    0  0.74979161032E+02 -0.55746737084E+02 -0.55220195987E+02  0.10853037975E+03  0.00000000000E+00 0. -1.
        -15    1    3    3    0    0  0.15498431470E+01  0.27260632308E+02  0.35974242297E+01  0.27597885385E+02  0.17770000000E+01 0.  1.
         15    1    3    3    0    0 -0.18875197201E+02 -0.65114340597E+02 -0.45921320961E+02  0.81902844081E+02  0.17770000000E+01 0. -1.
</event>
<event>
 7    1  0.4412602E-007  0.1494331E+03  0.7546771E-02  0.1098323E+00
        -11   -1    0    0    0    0  0.00000000000E+00  0.00000000000E+00  0.18250000000E+03  0.18250000000E+03  0.00000000000E+00 0.  1.
         11   -1    0    0    0    0 -0.00000000000E+00 -0.00000000000E+00 -0.18250000000E+03  0.18250000000E+03  0.00000000000E+00 0.  1.
         23    2    1    2    0    0  0.70753266249E+02 -0.94338454538E+01  0.64834693084E+02  0.13221635407E+03  0.90457751082E+02 0.  0.
        -11    1    1    2    0    0  0.73304161331E+02  0.26369416702E+02 -0.30972231033E+02  0.83833914980E+02  0.00000000000E+00 0.  1.
         11    1    1    2    0    0 -0.14405742758E+03 -0.16935571248E+02 -0.33862462051E+02  0.14894973095E+03  0.00000000000E+00 0.  1.
        -15    1    3    3    0    0  0.57520188676E+02 -0.41789345863E+02  0.17315867882E+02  0.73197804218E+02  0.17770000000E+01 0.  1.
         15    1    3    3    0    0  0.13233077574E+02  0.32355500409E+02  0.47518825203E+02  0.59018549850E+02  0.17770000000E+01 0. -1.
</event>
<event>
 7    1  0.4412602E-007  0.1658173E+03  0.7546771E-02  0.1082569E+00
        -11   -1    0    0    0    0  0.00000000000E+00  0.00000000000E+00  0.18250000000E+03  0.18250000000E+03  0.00000000000E+00 0. -1.
         11   -1    0    0    0    0 -0.00000000000E+00 -0.00000000000E+00 -0.18250000000E+03  0.18250000000E+03  0.00000000000E+00 0.  1.
         23    2    1    2    0    0  0.61756402848E+02 -0.77962296654E+02 -0.91316549062E+02  0.16801039756E+03  0.99984041547E+02 0.  0.
        -11    1    1    2    0    0 -0.25543620885E+02  0.44001049662E+02  0.12636207220E+03  0.13622019758E+03  0.00000000000E+00 0. -1.
         11    1    1    2    0    0 -0.36212781963E+02  0.33961246991E+02 -0.35045523135E+02  0.60769404856E+02  0.00000000000E+00 0.  1.
        -15    1    3    3    0    0 -0.26087788745E+01 -0.70612620980E+01 -0.69308313141E+02  0.69738562855E+02  0.17770000000E+01 0. -1.
         15    1    3    3    0    0  0.64365181723E+02 -0.70901034556E+02 -0.22008235921E+02  0.98271834707E+02  0.17770000000E+01 0.  1.
</event>
<event>
 7    1  0.4412602E-007  0.1927923E+03  0.7546771E-02  0.1060545E+00
        -11   -1    0    0    0    0  0.00000000000E+00  0.00000000000E+00  0.18250000000E+03  0.18250000000E+03  0.00000000000E+00 0. -1.
         11   -1    0    0    0    0 -0.00000000000E+00 -0.00000000000E+00 -0.18250000000E+03  0.18250000000E+03  0.00000000000E+00 0. -1.
         23    2    1    2    0    0  0.61261958919E+01  0.13664329031E+01 -0.16808537427E+03  0.19279234562E+03  0.94216761096E+02 0.  0.
        -11    1    1    2    0    0 -0.19696928601E+02 -0.85157228117E+01  0.81705639652E+02  0.84476612635E+02  0.00000000000E+00 0. -1.
         11    1    1    2    0    0  0.13570732709E+02  0.71492899086E+01  0.86379734619E+02  0.87731041743E+02  0.00000000000E+00 0. -1.
        -15    1    3    3    0    0 -0.13305410259E+02  0.25881366161E+02 -0.87999220592E+01  0.30454481013E+02  0.17770000000E+01 0.  1.
         15    1    3    3    0    0  0.19431606151E+02 -0.24514933258E+02 -0.15928545221E+03  0.16233786461E+03  0.17770000000E+01 0. -1.
</event>
<event>
 7    1  0.4412602E-007  0.1403479E+03  0.7546771E-02  0.1108050E+00
        -11   -1    0    0    0    0  0.00000000000E+00  0.00000000000E+00  0.18250000000E+03  0.18250000000E+03  0.00000000000E+00 0.  1.
         11   -1    0    0    0    0 -0.00000000000E+00 -0.00000000000E+00 -0.18250000000E+03  0.18250000000E+03  0.00000000000E+00 0.  1.
         23    2    1    2    0    0  0.50898776071E+00 -0.58085667539E+02 -0.58306153076E+02  0.12192083156E+03  0.89949307049E+02 0.  0.
        -11    1    1    2    0    0 -0.76467052549E+02  0.37774940194E+02  0.11712416990E+03  0.14488694699E+03  0.00000000000E+00 0.  1.
         11    1    1    2    0    0  0.75958064788E+02  0.20310727345E+02 -0.58818016825E+02  0.98192221458E+02  0.00000000000E+00 0.  1.
        -15    1    3    3    0    0 -0.88915232112E+01 -0.81224637550E+02 -0.48458295855E+02  0.95015078257E+02  0.17770000000E+01 0.  1.
         15    1    3    3    0    0  0.94005109719E+01  0.23138970011E+02 -0.98478572215E+01  0.26905753298E+02  0.17770000000E+01 0. -1.
</event>
<event>
 7    1  0.4412602E-007  0.1481315E+03  0.7546771E-02  0.1099669E+00
        -11   -1    0    0    0    0  0.00000000000E+00  0.00000000000E+00  0.18250000000E+03  0.18250000000E+03  0.00000000000E+00 0. -1.
         11   -1    0    0    0    0 -0.00000000000E+00 -0.00000000000E+00 -0.18250000000E+03  0.18250000000E+03  0.00000000000E+00 0.  1.
         23    2    1    2    0    0  0.33143587854E+02  0.33867152056E+02 -0.58914113133E+02  0.11854458247E+03  0.91304238147E+02 0.  0.
        -11    1    1    2    0    0 -0.62220468095E+02 -0.95001744785E+02  0.11269908685E+03  0.15999313216E+03  0.00000000000E+00 0. -1.
         11    1    1    2    0    0  0.29076880241E+02  0.61134592729E+02 -0.53784973716E+02  0.86462285364E+02  0.00000000000E+00 0.  1.
        -15    1    3    3    0    0  0.20257336019E+02  0.45997140975E+02 -0.77775906765E+02  0.92619361057E+02  0.17770000000E+01 0.  1.
         15    1    3    3    0    0  0.12886251835E+02 -0.12129988919E+02  0.18861793632E+02  0.25925221417E+02  0.17770000000E+01 0. -1.
</event>
<event>
 7    1  0.4412602E-007  0.1616627E+03  0.7546771E-02  0.1086368E+00
        -11   -1    0    0    0    0  0.00000000000E+00  0.00000000000E+00  0.18250000000E+03  0.18250000000E+03  0.00000000000E+00 0. -1.
         11   -1    0    0    0    0 -0.00000000000E+00 -0.00000000000E+00 -0.18250000000E+03  0.18250000000E+03  0.00000000000E+00 0.  1.
         23    2    1    2    0    0  0.16013603084E+02 -0.97996189352E+01 -0.15368955108E+03  0.17929763211E+03  0.90414018573E+02 0.  0.
        -11    1    1    2    0    0  0.42449772373E+02  0.78131564565E+01  0.45531918534E+02  0.62739016519E+02  0.00000000000E+00 0.  1.
         11    1    1    2    0    0 -0.58463375457E+02  0.19864624787E+01  0.10815763254E+03  0.12296335137E+03  0.00000000000E+00 0. -1.
        -15    1    3    3    0    0  0.40963279361E+02  0.14639229779E+02 -0.35908214676E+02  0.56434518823E+02  0.17770000000E+01 0. -1.
         15    1    3    3    0    0 -0.24949676277E+02 -0.24438848714E+02 -0.11778133640E+03  0.12286311329E+03  0.17770000000E+01 0.  1.
</event>
<event>
 7    1  0.4412602E-007  0.1523204E+03  0.7546771E-02  0.1095390E+00
        -11   -1    0    0    0    0  0.00000000000E+00  0.00000000000E+00  0.18250000000E+03  0.18250000000E+03  0.00000000000E+00 0.  1.
         11   -1    0    0    0    0 -0.00000000000E+00 -0.00000000000E+00 -0.18250000000E+03  0.18250000000E+03  0.00000000000E+00 0. -1.
         23    2    1    2    0    0 -0.23676243602E+02  0.43534108696E+02  0.75534437488E+02  0.12768310243E+03  0.90231592406E+02 0.  0.
        -11    1    1    2    0    0 -0.45271031231E+02 -0.11697806395E+02  0.63521431683E+02  0.78875073542E+02  0.00000000000E+00 0.  1.
         11    1    1    2    0    0  0.68947274832E+02 -0.31836302301E+02 -0.13905586917E+03  0.15844182403E+03  0.00000000000E+00 0. -1.
        -15    1    3    3    0    0 -0.51110026328E+02  0.40503702409E+02  0.24595661323E+02  0.69720075911E+02  0.17770000000E+01 0.  1.
         15    1    3    3    0    0  0.27433782727E+02  0.30304062878E+01  0.50938776164E+02  0.57963026518E+02  0.17770000000E+01 0. -1.
</event>
<event>
 6    1  0.6864290E-007  0.1905316E+03  0.7546771E-02  0.1062236E+00
        -11   -1    0    0    0    0  0.00000000000E+00  0.00000000000E+00  0.18250000000E+03  0.18250000000E+03  0.00000000000E+00 0.  1.
         11   -1    0    0    0    0 -0.00000000000E+00 -0.00000000000E+00 -0.18250000000E+03  0.18250000000E+03  0.00000000000E+00 0. -1.
        -11    1    1    2    0    0 -0.27021075684E+02 -0.49096437722E+02  0.80519724832E+02  0.98102114224E+02  0.00000000000E+00 0.  1.
         11    1    1    2    0    0  0.12662934264E+02  0.81768245581E+02 -0.15359953442E+03  0.17446837210E+03  0.00000000000E+00 0. -1.
        -15    1    1    2    0    0 -0.13909408746E+02 -0.41894861025E+01  0.10288261946E+02  0.17889368584E+02  0.17770000000E+01 0. -1.
         15    1    1    2    0    0  0.28267550165E+02 -0.28482321756E+02  0.62791547646E+02  0.74540145088E+02  0.17770000000E+01 0.  1.
</event>
<event>
 7    1  0.4412602E-007  0.1315154E+03  0.7546771E-02  0.1118317E+00
        -11   -1    0    0    0    0  0.00000000000E+00  0.00000000000E+00  0.18250000000E+03  0.18250000000E+03  0.00000000000E+00 0. -1.
         11   -1    0    0    0    0 -0.00000000000E+00 -0.00000000000E+00 -0.18250000000E+03  0.18250000000E+03  0.00000000000E+00 0. -1.
         23    2    1    2    0    0  0.68522503380E+02  0.18872338505E+02 -0.47022552410E+02  0.12401844553E+03  0.90099699033E+02 0.  0.
        -11    1    1    2    0    0  0.97284848538E+01 -0.24488733021E+02  0.12655365856E+03  0.12926782259E+03  0.00000000000E+00 0. -1.
         11    1    1    2    0    0 -0.78250988234E+02  0.56163945158E+01 -0.79531106145E+02  0.11171373189E+03  0.00000000000E+00 0. -1.
        -15    1    3    3    0    0  0.88255452784E+02  0.60940398488E+01 -0.47521436678E+02  0.10043707951E+03  0.17770000000E+01 0. -1.
         15    1    3    3    0    0 -0.19732949403E+02  0.12778298656E+02  0.49888426817E+00  0.23581366017E+02  0.17770000000E+01 0.  1.
</event>
<event>
 7    1  0.4412602E-007  0.1879487E+03  0.7546771E-02  0.1064199E+00
        -11   -1    0    0    0    0  0.00000000000E+00  0.00000000000E+00  0.18250000000E+03  0.18250000000E+03  0.00000000000E+00 0. -1.
         11   -1    0    0    0    0 -0.00000000000E+00 -0.00000000000E+00 -0.18250000000E+03  0.18250000000E+03  0.00000000000E+00 0.  1.
         23    2    1    2    0    0 -0.19722987539E+02  0.18064263425E+01 -0.15870872784E+03  0.18528842037E+03  0.93547202093E+02 0.  0.
        -11    1    1    2    0    0  0.26487931533E+02  0.91586392124E+01  0.16356049189E+03  0.16594434518E+03  0.00000000000E+00 0. -1.
         11    1    1    2    0    0 -0.67649439940E+01 -0.10965065555E+02 -0.48517640557E+01  0.13767234447E+02  0.00000000000E+00 0.  1.
        -15    1    3    3    0    0  0.32189275552E+02 -0.20639648085E+02 -0.75698264361E+02  0.84826466919E+02  0.17770000000E+01 0.  1.
         15    1    3    3    0    0 -0.51912263091E+02  0.22446074428E+02 -0.83010463475E+02  0.10046195345E+03  0.17770000000E+01 0. -1.
</event>
<event>
 7    1  0.4412602E-007  0.1507803E+03  0.7546771E-02  0.1096946E+00
        -11   -1    0    0    0    0  0.00000000000E+00  0.00000000000E+00  0.18250000000E+03  0.18250000000E+03  0.00000000000E+00 0.  1.
         11   -1    0    0    0    0 -0.00000000000E+00 -0.00000000000E+00 -0.18250000000E+03  0.18250000000E+03  0.00000000000E+00 0. -1.
         23    2    1    2    0    0  0.10873963001E+02 -0.20939646002E+02 -0.77181935590E+02  0.12201818931E+03  0.91513253108E+02 0.  0.
        -11    1    1    2    0    0 -0.35743508190E+02  0.19928142602E+02  0.15550463311E+03  0.16079931643E+03  0.00000000000E+00 0.  1.
         11    1    1    2    0    0  0.24869545189E+02  0.10115034000E+01 -0.78322697518E+02  0.82182494265E+02  0.00000000000E+00 0. -1.
        -15    1    3    3    0    0  0.14328686433E+02  0.27281856526E+02  0.71717153005E-01  0.30867034564E+02  0.17770000000E+01 0.  1.
         15    1    3    3    0    0 -0.34547234318E+01 -0.48221502528E+02 -0.77253652743E+02  0.91151154744E+02  0.17770000000E+01 0. -1.
</event>
<event>
 7    1  0.4412602E-007  0.1448041E+03  0.7546771E-02  0.1103181E+00
        -11   -1    0    0    0    0  0.00000000000E+00  0.00000000000E+00  0.18250000000E+03  0.18250000000E+03  0.00000000000E+00 0. -1.
         11   -1    0    0    0    0 -0.00000000000E+00 -0.00000000000E+00 -0.18250000000E+03  0.18250000000E+03  0.00000000000E+00 0.  1.
         23    2    1    2    0    0 -0.11356578931E+03 -0.77955375722E+02 -0.39113453245E+02  0.16797928508E+03  0.87823395997E+02 0.  0.
        -11    1    1    2    0    0  0.80509989499E+02  0.45670840683E+00  0.70594204561E+02  0.10707758266E+03  0.00000000000E+00 0. -1.
         11    1    1    2    0    0  0.33055799812E+02  0.77498667315E+02 -0.31480751316E+02  0.89943132258E+02  0.00000000000E+00 0.  1.
        -15    1    3    3    0    0 -0.11050510397E+03 -0.38672962091E+02 -0.49607784478E+02  0.12716550637E+03  0.17770000000E+01 0.  1.
         15    1    3    3    0    0 -0.30606853422E+01 -0.39282413631E+02  0.10494331233E+02  0.40813778709E+02  0.17770000000E+01 0. -1.
</event>
<event>
 7    1  0.4412602E-007  0.1428186E+03  0.7546771E-02  0.1105326E+00
        -11   -1    0    0    0    0  0.00000000000E+00  0.00000000000E+00  0.18250000000E+03  0.18250000000E+03  0.00000000000E+00 0. -1.
         11   -1    0    0    0    0 -0.00000000000E+00 -0.00000000000E+00 -0.18250000000E+03  0.18250000000E+03  0.00000000000E+00 0.  1.
         23    2    1    2    0    0  0.89793087308E+01  0.21722503982E+02 -0.34746943101E+02  0.11520684296E+03  0.10729758360E+03 0.  0.
        -11    1    1    2    0    0 -0.40815030510E+02 -0.30771892294E+02  0.13492847973E+03  0.14428607248E+03  0.00000000000E+00 0. -1.
         11    1    1    2    0    0  0.31835721779E+02  0.90493883123E+01 -0.10018153663E+03  0.10550708455E+03  0.00000000000E+00 0.  1.
        -15    1    3    3    0    0 -0.28654548814E+02  0.29802956727E+02  0.21805084405E+02  0.46775194626E+02  0.17770000000E+01 0. -1.
         15    1    3    3    0    0  0.37633857545E+02 -0.80804527454E+01 -0.56552027505E+02  0.68431648338E+02  0.17770000000E+01 0.  1.
</event>
<event>
 7    1  0.4412602E-007  0.1739587E+03  0.7546771E-02  0.1075465E+00
        -11   -1    0    0    0    0  0.00000000000E+00  0.00000000000E+00  0.18250000000E+03  0.18250000000E+03  0.00000000000E+00 0.  1.
         11   -1    0    0    0    0 -0.00000000000E+00 -0.00000000000E+00 -0.18250000000E+03  0.18250000000E+03  0.00000000000E+00 0. -1.
         23    2    1    2    0    0  0.64988630161E+02 -0.75478166746E+02  0.78467881831E+02  0.15668586494E+03  0.92047683766E+02 0.  0.
        -11    1    1    2    0    0  0.17250755949E+02 -0.26639136178E+02  0.25714624988E+02  0.40846959439E+02  0.00000000000E+00 0.  1.
         11    1    1    2    0    0 -0.82239386110E+02  0.10211730292E+03 -0.10418250682E+03  0.16746717562E+03  0.00000000000E+00 0. -1.
        -15    1    3    3    0    0 -0.16861312521E+02 -0.30713049036E+02  0.46082919490E+02  0.57917082443E+02  0.17770000000E+01 0.  1.
         15    1    3    3    0    0  0.81849942682E+02 -0.44765117711E+02  0.32384962340E+02  0.98768782494E+02  0.17770000000E+01 0. -1.
</event>
<event>
 7    1  0.4412602E-007  0.1302621E+03  0.7546771E-02  0.1119846E+00
        -11   -1    0    0    0    0  0.00000000000E+00  0.00000000000E+00  0.18250000000E+03  0.18250000000E+03  0.00000000000E+00 0.  1.
         11   -1    0    0    0    0 -0.00000000000E+00 -0.00000000000E+00 -0.18250000000E+03  0.18250000000E+03  0.00000000000E+00 0. -1.
         23    2    1    2    0    0  0.35807913220E+02  0.21248889783E+02 -0.97305970189E+01  0.10099007697E+03  0.91490923935E+02 0.  0.
        -11    1    1    2    0    0 -0.10847522217E+03  0.30617890392E+02  0.89779383366E+02  0.14409950283E+03  0.00000000000E+00 0.  1.
         11    1    1    2    0    0  0.72667308954E+02 -0.51866780175E+02 -0.80048786347E+02  0.11991042020E+03  0.00000000000E+00 0. -1.
        -15    1    3    3    0    0  0.52579803538E+02  0.32125499679E+02 -0.33277175128E+02  0.70051492369E+02  0.17770000000E+01 0. -1.
         15    1    3    3    0    0 -0.16771890317E+02 -0.10876609896E+02  0.23546578109E+02  0.30938584604E+02  0.17770000000E+01 0.  1.
</event>
<event>
 7    1  0.4412602E-007  0.1454612E+03  0.7546771E-02  0.1102479E+00
        -11   -1    0    0    0    0  0.00000000000E+00  0.00000000000E+00  0.18250000000E+03  0.18250000000E+03  0.00000000000E+00 0.  1.
         11   -1    0    0    0    0 -0.00000000000E+00 -0.00000000000E+00 -0.18250000000E+03  0.18250000000E+03  0.00000000000E+00 0. -1.
         23    2    1    2    0    0  0.13887189586E+02 -0.66673497746E+02  0.58443764074E+02  0.12800361620E+03  0.91274546643E+02 0.  0.
        -11    1    1    2    0    0 -0.73367023044E+02 -0.67970886370E+01  0.53072918673E+02  0.90805590031E+02  0.00000000000E+00 0.  1.
         11    1    1    2    0    0  0.59479833459E+02  0.73470586383E+02 -0.11151668275E+03  0.14619079377E+03  0.00000000000E+00 0. -1.
        -15    1    3    3    0    0 -0.64081255722E+01  0.11467042834E+02  0.44020384928E+02  0.45972917712E+02  0.17770000000E+01 0.  1.
         15    1    3    3    0    0  0.20295315158E+02 -0.78140540580E+02  0.14423379146E+02  0.82030698488E+02  0.17770000000E+01 0. -1.
</event>
<event>
 7    1  0.4412602E-007  0.1356447E+03  0.7546771E-02  0.1113410E+00
        -11   -1    0    0    0    0  0.00000000000E+00  0.00000000000E+00  0.18250000000E+03  0.18250000000E+03  0.00000000000E+00 0.  1.
         11   -1    0    0    0    0 -0.00000000000E+00 -0.00000000000E+00 -0.18250000000E+03  0.18250000000E+03  0.00000000000E+00 0.  1.
         23    2    1    2    0    0 -0.69357267739E+02  0.15732812409E+01 -0.93921417036E+02  0.14814347776E+03  0.91172098932E+02 0.  0.
        -11    1    1    2    0    0 -0.24778505287E+02  0.56217027997E+02  0.86568304631E+02  0.10615271983E+03  0.00000000000E+00 0.  1.
         11    1    1    2    0    0  0.94135773025E+02 -0.57790309238E+02  0.73531124046E+01  0.11070380241E+03  0.00000000000E+00 0.  1.
        -15    1    3    3    0    0 -0.50091552821E+02 -0.35933984093E+02 -0.84984219189E+02  0.10500423857E+03  0.17770000000E+01 0.  1.
         15    1    3    3    0    0 -0.19265714918E+02  0.37507265334E+02 -0.89371978467E+01  0.43139239196E+02  0.17770000000E+01 0. -1.
</event>
<event>
 7    1  0.4412602E-007  0.1337248E+03  0.7546771E-02  0.1115667E+00
        -11   -1    0    0    0    0  0.00000000000E+00  0.00000000000E+00  0.18250000000E+03  0.18250000000E+03  0.00000000000E+00 0.  1.
         11   -1    0    0    0    0 -0.00000000000E+00 -0.00000000000E+00 -0.18250000000E+03  0.18250000000E+03  0.00000000000E+00 0. -1.
         23    2    1    2    0    0  0.86737368000E+01  0.26558378049E+02  0.93909506373E+01  0.95931211865E+02  0.91290888381E+02 0.  0.
        -11    1    1    2    0    0  0.11997904026E+02 -0.50048952819E+02  0.12283996416E+03  0.13318597589E+03  0.00000000000E+00 0.  1.
         11    1    1    2    0    0 -0.20671640826E+02  0.23490574770E+02 -0.13223091479E+03  0.13588281225E+03  0.00000000000E+00 0. -1.
        -15    1    3    3    0    0 -0.18541780969E+02 -0.15626356461E+02  0.32540371358E+02  0.40620366257E+02  0.17770000000E+01 0.  1.
         15    1    3    3    0    0  0.27215517769E+02  0.42184734511E+02 -0.23149420721E+02  0.55310845608E+02  0.17770000000E+01 0. -1.
</event>
<event>
 7    1  0.6213765E-007  0.1433703E+03  0.7546771E-02  0.1104726E+00
        -11   -1    0    0    0    0  0.00000000000E+00  0.00000000000E+00  0.18250000000E+03  0.18250000000E+03  0.00000000000E+00 0.  1.
         11   -1    0    0    0    0 -0.00000000000E+00 -0.00000000000E+00 -0.18250000000E+03  0.18250000000E+03  0.00000000000E+00 0. -1.
         23    2    1    2    0    0  0.23825729293E+02  0.37664948611E+02 -0.14587732110E+02  0.11804514878E+03  0.10833070429E+03 0.  0.
        -11    1    1    2    0    0 -0.10077865390E+03 -0.51111446391E+02  0.85304247496E+02  0.14158224350E+03  0.00000000000E+00 0.  1.
         11    1    1    2    0    0  0.76952924610E+02  0.13446497779E+02 -0.70716515386E+02  0.10537260772E+03  0.00000000000E+00 0. -1.
        -15    1    3    3    0    0 -0.18415713235E+02  0.37539380184E+01  0.38060582036E+02  0.42485246598E+02  0.17770000000E+01 0.  1.
         15    1    3    3    0    0  0.42241442528E+02  0.33911010593E+02 -0.52648314146E+02  0.75559902182E+02  0.17770000000E+01 0. -1.
</event>
<event>
 7    1  0.4412602E-007  0.1496367E+03  0.7546771E-02  0.1098114E+00
        -11   -1    0    0    0    0  0.00000000000E+00  0.00000000000E+00  0.18250000000E+03  0.18250000000E+03  0.00000000000E+00 0.  1.
         11   -1    0    0    0    0 -0.00000000000E+00 -0.00000000000E+00 -0.18250000000E+03  0.18250000000E+03  0.00000000000E+00 0. -1.
         23    2    1    2    0    0 -0.84870018114E+01 -0.44578539815E+02 -0.80333521472E+02  0.12948272675E+03  0.90846169120E+02 0.  0.
        -11    1    1    2    0    0  0.82209845250E+02  0.43485381432E+02  0.11997865456E+03  0.15180353950E+03  0.00000000000E+00 0.  1.
         11    1    1    2    0    0 -0.73722843439E+02  0.10931583838E+01 -0.39645133090E+02  0.83713733746E+02  0.00000000000E+00 0. -1.
        -15    1    3    3    0    0 -0.32946252931E+02  0.66191087458E+01 -0.33300865260E+01  0.33815904365E+02  0.17770000000E+01 0.  1.
         15    1    3    3    0    0  0.24459251119E+02 -0.51197648561E+02 -0.77003434946E+02  0.95666822389E+02  0.17770000000E+01 0. -1.
</event>
<event>
 7    1  0.4412602E-007  0.1340905E+03  0.7546771E-02  0.1115234E+00
        -11   -1    0    0    0    0  0.00000000000E+00  0.00000000000E+00  0.18250000000E+03  0.18250000000E+03  0.00000000000E+00 0.  1.
         11   -1    0    0    0    0 -0.00000000000E+00 -0.00000000000E+00 -0.18250000000E+03  0.18250000000E+03  0.00000000000E+00 0. -1.
         23    2    1    2    0    0  0.29243191258E+02  0.27807532545E+02 -0.47399822346E+02  0.10929615480E+03  0.89835868086E+02 0.  0.
        -11    1    1    2    0    0 -0.65777441733E+02  0.33169365887E+02  0.12834061492E+03  0.14798037746E+03  0.00000000000E+00 0.  1.
         11    1    1    2    0    0  0.36534250475E+02 -0.60976898432E+02 -0.80940792572E+02  0.10772346774E+03  0.00000000000E+00 0. -1.
        -15    1    3    3    0    0 -0.26078237873E+02 -0.12384119762E+02 -0.66627819196E+01  0.29681497684E+02  0.17770000000E+01 0. -1.
         15    1    3    3    0    0  0.55321429131E+02  0.40191652307E+02 -0.40737040427E+02  0.79614657118E+02  0.17770000000E+01 0.  1.
</event>
<event>
 7    1  0.4412602E-007  0.1583348E+03  0.7546771E-02  0.1089504E+00
        -11   -1    0    0    0    0  0.00000000000E+00  0.00000000000E+00  0.18250000000E+03  0.18250000000E+03  0.00000000000E+00 0.  1.
         11   -1    0    0    0    0 -0.00000000000E+00 -0.00000000000E+00 -0.18250000000E+03  0.18250000000E+03  0.00000000000E+00 0.  1.
         23    2    1    2    0    0  0.18277182517E+02 -0.57779741825E+01 -0.14994864344E+03  0.17566534884E+03  0.89477811358E+02 0.  0.
        -11    1    1    2    0    0 -0.14392887945E+02  0.57467054576E+02  0.10575461627E+03  0.12121739334E+03  0.00000000000E+00 0.  1.
         11    1    1    2    0    0 -0.38842945714E+01 -0.51689080394E+02  0.44194027168E+02  0.68117257825E+02  0.00000000000E+00 0.  1.
        -15    1    3    3    0    0  0.29878922896E+02 -0.41994220156E+02 -0.10327077026E+03  0.11543082032E+03  0.17770000000E+01 0.  1.
         15    1    3    3    0    0 -0.11601740379E+02  0.36216245973E+02 -0.46677873179E+02  0.60234528518E+02  0.17770000000E+01 0. -1.
</event>
<event>
 7    1  0.4973287E-007  0.1566173E+03  0.7546771E-02  0.1091155E+00
        -11   -1    0    0    0    0  0.00000000000E+00  0.00000000000E+00  0.18250000000E+03  0.18250000000E+03  0.00000000000E+00 0. -1.
         11   -1    0    0    0    0 -0.00000000000E+00 -0.00000000000E+00 -0.18250000000E+03  0.18250000000E+03  0.00000000000E+00 0.  1.
         23    2    1    2    0    0  0.72350865456E+01  0.85663123656E+00  0.12603622052E+03  0.15596633606E+03  0.91582142397E+02 0.  0.
        -11    1    1    2    0    0 -0.27790017673E+02 -0.66268380043E+02 -0.77028487930E+01  0.72271136392E+02  0.00000000000E+00 0. -1.
         11    1    1    2    0    0  0.20554931127E+02  0.65411748807E+02 -0.11833337173E+03  0.13676252755E+03  0.00000000000E+00 0.  1.
        -15    1    3    3    0    0 -0.38756887355E+02  0.81643568523E+01  0.85321443521E+02  0.94083258308E+02  0.17770000000E+01 0. -1.
         15    1    3    3    0    0  0.45991973900E+02 -0.73077256158E+01  0.40714777003E+02  0.61883077754E+02  0.17770000000E+01 0.  1.
</event>
<event>
 7    1  0.4412602E-007  0.1571154E+03  0.7546771E-02  0.1090674E+00
        -11   -1    0    0    0    0  0.00000000000E+00  0.00000000000E+00  0.18250000000E+03  0.18250000000E+03  0.00000000000E+00 0. -1.
         11   -1    0    0    0    0 -0.00000000000E+00 -0.00000000000E+00 -0.18250000000E+03  0.18250000000E+03  0.00000000000E+00 0. -1.
         23    2    1    2    0    0  0.98913092816E+00  0.36820497718E+02 -0.14337463665E+03  0.17294100327E+03  0.89417988928E+02 0.  0.
        -11    1    1    2    0    0  0.19331105863E+02 -0.78807882541E+02  0.90896740550E+02  0.12184658980E+03  0.00000000000E+00 0. -1.
         11    1    1    2    0    0 -0.20320236791E+02  0.41987384823E+02  0.52477896101E+02  0.70212406929E+02  0.00000000000E+00 0. -1.
        -15    1    3    3    0    0  0.39686073395E+02  0.32426968212E+02 -0.11097173861E+03  0.12224719705E+03  0.17770000000E+01 0. -1.
         15    1    3    3    0    0 -0.38696942467E+02  0.43935295057E+01 -0.32402898045E+02  0.50693806215E+02  0.17770000000E+01 0.  1.
</event>
<event>
 7    1  0.4412602E-007  0.1362896E+03  0.7546771E-02  0.1112661E+00
        -11   -1    0    0    0    0  0.00000000000E+00  0.00000000000E+00  0.18250000000E+03  0.18250000000E+03  0.00000000000E+00 0.  1.
         11   -1    0    0    0    0 -0.00000000000E+00 -0.00000000000E+00 -0.18250000000E+03  0.18250000000E+03  0.00000000000E+00 0. -1.
         23    2    1    2    0    0 -0.44734171704E+02 -0.54513427715E+02  0.58268224114E+02  0.12775219144E+03  0.89177219947E+02 0.  0.
        -11    1    1    2    0    0 -0.54740892059E+02  0.84843152846E+02  0.25005081370E+02  0.10402009394E+03  0.00000000000E+00 0.  1.
         11    1    1    2    0    0  0.99475063763E+02 -0.30329725131E+02 -0.83273305484E+02  0.13322771462E+03  0.00000000000E+00 0. -1.
        -15    1    3    3    0    0 -0.63209245499E+02 -0.30671507871E+02  0.10256965774E+02  0.71024736449E+02  0.17770000000E+01 0. -1.
         15    1    3    3    0    0  0.18475073796E+02 -0.23841919844E+02  0.48011258340E+02  0.56727454993E+02  0.17770000000E+01 0.  1.
</event>
<event>
 7    1  0.4412602E-007  0.1859035E+03  0.7546771E-02  0.1065777E+00
        -11   -1    0    0    0    0  0.00000000000E+00  0.00000000000E+00  0.18250000000E+03  0.18250000000E+03  0.00000000000E+00 0. -1.
         11   -1    0    0    0    0 -0.00000000000E+00 -0.00000000000E+00 -0.18250000000E+03  0.18250000000E+03  0.00000000000E+00 0.  1.
         23    2    1    2    0    0 -0.12464237407E+01  0.46521971035E+02 -0.15124320950E+03  0.18235928864E+03  0.90634178822E+02 0.  0.
        -11    1    1    2    0    0  0.83735638753E+01  0.13639234930E+02 -0.35683900837E+01  0.16397521436E+02  0.00000000000E+00 0.  1.
         11    1    1    2    0    0 -0.71271401347E+01 -0.60161205965E+02  0.15481159959E+03  0.16624318993E+03  0.00000000000E+00 0. -1.
        -15    1    3    3    0    0  0.19002114362E+02 -0.17397733671E+02 -0.81940397041E+02  0.85913607091E+02  0.17770000000E+01 0. -1.
         15    1    3    3    0    0 -0.20248538103E+02  0.63919704706E+02 -0.69302812463E+02  0.96445681548E+02  0.17770000000E+01 0.  1.
</event>
<event>
 7    1  0.4412602E-007  0.1519285E+03  0.7546771E-02  0.1095784E+00
        -11   -1    0    0    0    0  0.00000000000E+00  0.00000000000E+00  0.18250000000E+03  0.18250000000E+03  0.00000000000E+00 0.  1.
         11   -1    0    0    0    0 -0.00000000000E+00 -0.00000000000E+00 -0.18250000000E+03  0.18250000000E+03  0.00000000000E+00 0.  1.
         23    2    1    2    0    0 -0.49910030552E+01  0.27621512636E+02 -0.12738158917E+03  0.15758062667E+03  0.88417908664E+02 0.  0.
        -11    1    1    2    0    0 -0.70301526486E+02 -0.21799317989E+02  0.10578991021E+03  0.12887598687E+03  0.00000000000E+00 0.  1.
         11    1    1    2    0    0  0.75292529541E+02 -0.58221946463E+01  0.21591678960E+02  0.78543386453E+02  0.00000000000E+00 0.  1.
        -15    1    3    3    0    0 -0.42847900455E+02 -0.44497662080E+01 -0.59923770666E+02  0.73822483110E+02  0.17770000000E+01 0. -1.
         15    1    3    3    0    0  0.37856897400E+02  0.32071278844E+02 -0.67457818501E+02  0.83758143564E+02  0.17770000000E+01 0.  1.
</event>
<event>
 7    1  0.4412602E-007  0.1275753E+03  0.7546771E-02  0.1123189E+00
        -11   -1    0    0    0    0  0.00000000000E+00  0.00000000000E+00  0.18250000000E+03  0.18250000000E+03  0.00000000000E+00 0. -1.
         11   -1    0    0    0    0 -0.00000000000E+00 -0.00000000000E+00 -0.18250000000E+03  0.18250000000E+03  0.00000000000E+00 0.  1.
         23    2    1    2    0    0 -0.29010997542E+02  0.40399702795E+02  0.24908835027E+01  0.10503497993E+03  0.92479016781E+02 0.  0.
        -11    1    1    2    0    0 -0.62403942995E+02 -0.83795965414E+02  0.78229212748E+02  0.13052136089E+03  0.00000000000E+00 0. -1.
         11    1    1    2    0    0  0.91414940537E+02  0.43396262619E+02 -0.80720096250E+02  0.12944365918E+03  0.00000000000E+00 0.  1.
        -15    1    3    3    0    0 -0.24152623942E+02  0.69576757010E+02 -0.67902827752E+01  0.73983376704E+02  0.17770000000E+01 0.  1.
         15    1    3    3    0    0 -0.48583736001E+01 -0.29177054215E+02  0.92811662778E+01  0.31051603230E+02  0.17770000000E+01 0. -1.
</event>
<event>
 7    1  0.4412602E-007  0.1710720E+03  0.7546771E-02  0.1077934E+00
        -11   -1    0    0    0    0  0.00000000000E+00  0.00000000000E+00  0.18250000000E+03  0.18250000000E+03  0.00000000000E+00 0.  1.
         11   -1    0    0    0    0 -0.00000000000E+00 -0.00000000000E+00 -0.18250000000E+03  0.18250000000E+03  0.00000000000E+00 0. -1.
         23    2    1    2    0    0  0.10118014398E+03 -0.45392051844E+02 -0.55209268259E+02  0.15605097148E+03  0.94899855073E+02 0.  0.
        -11    1    1    2    0    0  0.46257825688E+02 -0.29712616423E+01  0.12253604255E+02  0.47945444522E+02  0.00000000000E+00 0. -1.
         11    1    1    2    0    0 -0.14743796966E+03  0.48363313486E+02  0.42955664004E+02  0.16100358400E+03  0.00000000000E+00 0.  1.
        -15    1    3    3    0    0 -0.58168858974E+01  0.15904143009E+02  0.64047746915E+01  0.18192217958E+02  0.17770000000E+01 0.  1.
         15    1    3    3    0    0  0.10699702987E+03 -0.61296194853E+02 -0.61614042950E+02  0.13785875352E+03  0.17770000000E+01 0. -1.
</event>
<event>
 7    1  0.4412602E-007  0.1634557E+03  0.7546771E-02  0.1084713E+00
        -11   -1    0    0    0    0  0.00000000000E+00  0.00000000000E+00  0.18250000000E+03  0.18250000000E+03  0.00000000000E+00 0. -1.
         11   -1    0    0    0    0 -0.00000000000E+00 -0.00000000000E+00 -0.18250000000E+03  0.18250000000E+03  0.00000000000E+00 0.  1.
         23    2    1    2    0    0  0.23922744282E+02  0.60011224488E+02  0.77143013794E+02  0.13912495836E+03  0.96078429962E+02 0.  0.
        -11    1    1    2    0    0  0.11284931591E+02  0.33625225199E+02  0.51736507494E+02  0.62726961176E+02  0.00000000000E+00 0. -1.
         11    1    1    2    0    0 -0.35207675874E+02 -0.93636449687E+02 -0.12887952129E+03  0.16314808046E+03  0.00000000000E+00 0.  1.
        -15    1    3    3    0    0  0.50898131069E+02  0.88359708454E+01  0.14173820407E+02  0.53598032063E+02  0.17770000000E+01 0.  1.
         15    1    3    3    0    0 -0.26975386787E+02  0.51175253642E+02  0.62969193386E+02  0.85526926300E+02  0.17770000000E+01 0. -1.
</event>
<event>
 7    1  0.4412602E-007  0.1679593E+03  0.7546771E-02  0.1080657E+00
        -11   -1    0    0    0    0  0.00000000000E+00  0.00000000000E+00  0.18250000000E+03  0.18250000000E+03  0.00000000000E+00 0.  1.
         11   -1    0    0    0    0 -0.00000000000E+00 -0.00000000000E+00 -0.18250000000E+03  0.18250000000E+03  0.00000000000E+00 0. -1.
         23    2    1    2    0    0  0.47374072864E+02 -0.54966459007E+02 -0.11148621339E+03  0.16022582996E+03  0.89316999580E+02 0.  0.
        -11    1    1    2    0    0 -0.76652210409E+02  0.19200563193E+02  0.13228459115E+03  0.15408905232E+03  0.00000000000E+00 0.  1.
         11    1    1    2    0    0  0.29278137545E+02  0.35765895813E+02 -0.20798377760E+02  0.50685117726E+02  0.00000000000E+00 0. -1.
        -15    1    3    3    0    0  0.40242291053E+02  0.11936601512E+02 -0.19687918806E+02  0.46397158542E+02  0.17770000000E+01 0.  1.
         15    1    3    3    0    0  0.71317818102E+01 -0.66903060518E+02 -0.91798294586E+02  0.11382867142E+03  0.17770000000E+01 0. -1.
</event>
<event>
 7    1  0.4412602E-007  0.1861307E+03  0.7546771E-02  0.1065601E+00
        -11   -1    0    0    0    0  0.00000000000E+00  0.00000000000E+00  0.18250000000E+03  0.18250000000E+03  0.00000000000E+00 0.  1.
         11   -1    0    0    0    0 -0.00000000000E+00 -0.00000000000E+00 -0.18250000000E+03  0.18250000000E+03  0.00000000000E+00 0.  1.
         23    2    1    2    0    0 -0.40362088751E+02  0.79613501652E+01 -0.15883791663E+03  0.18613067664E+03  0.87878687519E+02 0.  0.
        -11    1    1    2    0    0  0.33257277424E+02 -0.35353436240E+02  0.66751524525E+02  0.82532890304E+02  0.00000000000E+00 0.  1.
         11    1    1    2    0    0  0.71048113273E+01  0.27392086075E+02  0.92086392107E+02  0.96336433060E+02  0.00000000000E+00 0.  1.
        -15    1    3    3    0    0  0.25853301485E+02  0.11033541367E+02 -0.68531176671E+02  0.74093266481E+02  0.17770000000E+01 0.  1.
         15    1    3    3    0    0 -0.66215390237E+02 -0.30721912018E+01 -0.90306739960E+02  0.11203741015E+03  0.17770000000E+01 0. -1.
</event>
<event>
 7    1  0.4412602E-007  0.1890175E+03  0.7546771E-02  0.1063382E+00
        -11   -1    0    0    0    0  0.00000000000E+00  0.00000000000E+00  0.18250000000E+03  0.18250000000E+03  0.00000000000E+00 0.  1.
         11   -1    0    0    0    0 -0.00000000000E+00 -0.00000000000E+00 -0.18250000000E+03  0.18250000000E+03  0.00000000000E+00 0.  1.
         23    2    1    2    0    0  0.32360254628E+01 -0.14606086996E+02 -0.16492754478E+03  0.18901745047E+03  0.91119108407E+02 0.  0.
        -11    1    1    2    0    0  0.12229570346E+02  0.27212419576E+02  0.14403776679E+03  0.14709505917E+03  0.00000000000E+00 0.  1.
         11    1    1    2    0    0 -0.15465595809E+02 -0.12606332580E+02  0.20889777985E+02  0.28887490357E+02  0.00000000000E+00 0.  1.
        -15    1    3    3    0    0  0.14994876257E+02 -0.41153251093E+02 -0.35634835074E+02  0.56492792365E+02  0.17770000000E+01 0.  1.
         15    1    3    3    0    0 -0.11758850795E+02  0.26547164097E+02 -0.12929270971E+03  0.13252465810E+03  0.17770000000E+01 0. -1.
</event>
<event>
 7    1  0.4412602E-007  0.1843082E+03  0.7546771E-02  0.1067025E+00
        -11   -1    0    0    0    0  0.00000000000E+00  0.00000000000E+00  0.18250000000E+03  0.18250000000E+03  0.00000000000E+00 0.  1.
         11   -1    0    0    0    0 -0.00000000000E+00 -0.00000000000E+00 -0.18250000000E+03  0.18250000000E+03  0.00000000000E+00 0. -1.
         23    2    1    2    0    0  0.16046620965E+02 -0.50664379632E+02 -0.14762585453E+03  0.18256104793E+03  0.93331505333E+02 0.  0.
        -11    1    1    2    0    0  0.59963639410E-01  0.40094412616E+02  0.15626404712E+03  0.16132581300E+03  0.00000000000E+00 0.  1.
         11    1    1    2    0    0 -0.16106584605E+02  0.10569967016E+02 -0.86381925904E+01  0.21113139074E+02  0.00000000000E+00 0. -1.
        -15    1    3    3    0    0  0.53237505529E+02 -0.43862933162E+02 -0.86285504826E+02  0.11048318864E+03  0.17770000000E+01 0. -1.
         15    1    3    3    0    0 -0.37190884563E+02 -0.68014464698E+01 -0.61340349700E+02  0.72077859284E+02  0.17770000000E+01 0.  1.
</event>
<event>
 7    1  0.4412602E-007  0.2215595E+03  0.7546771E-02  0.1041019E+00
        -11   -1    0    0    0    0  0.00000000000E+00  0.00000000000E+00  0.18250000000E+03  0.18250000000E+03  0.00000000000E+00 0.  1.
         11   -1    0    0    0    0 -0.00000000000E+00 -0.00000000000E+00 -0.18250000000E+03  0.18250000000E+03  0.00000000000E+00 0. -1.
         23    2    1    2    0    0  0.19312543584E+02  0.12590879002E+02 -0.15228881119E+02  0.97460459169E+02  0.93461851616E+02 0.  0.
        -11    1    1    2    0    0 -0.78640302208E+02  0.26364181226E+02  0.11702911816E+03  0.14344051617E+03  0.00000000000E+00 0.  1.
         11    1    1    2    0    0  0.59327758624E+02 -0.38955060228E+02 -0.10180023704E+03  0.12409902466E+03  0.00000000000E+00 0. -1.
        -15    1    3    3    0    0  0.79537482170E+01 -0.38638992451E+02 -0.20851429706E+02  0.44656172005E+02  0.17770000000E+01 0.  1.
         15    1    3    3    0    0  0.11358795367E+02  0.51229871453E+02  0.56225485870E+01  0.52804287164E+02  0.17770000000E+01 0. -1.
</event>
<event>
 7    1  0.4412602E-007  0.1889392E+03  0.7546771E-02  0.1063442E+00
        -11   -1    0    0    0    0  0.00000000000E+00  0.00000000000E+00  0.18250000000E+03  0.18250000000E+03  0.00000000000E+00 0.  1.
         11   -1    0    0    0    0 -0.00000000000E+00 -0.00000000000E+00 -0.18250000000E+03  0.18250000000E+03  0.00000000000E+00 0. -1.
         23    2    1    2    0    0 -0.42605155753E+02 -0.80765234531E+02 -0.13816147020E+03  0.18893915513E+03  0.90946083417E+02 0.  0.
        -11    1    1    2    0    0  0.44922757520E+02  0.24143618946E+02  0.79866522391E+02  0.94760909018E+02  0.00000000000E+00 0. -1.
         11    1    1    2    0    0 -0.23176017677E+01  0.56621615584E+02  0.58294947808E+02  0.81299935850E+02  0.00000000000E+00 0.  1.
        -15    1    3    3    0    0 -0.63243665568E+02 -0.76034931502E+02 -0.80646562614E+02  0.12762483235E+03  0.17770000000E+01 0. -1.
         15    1    3    3    0    0  0.20638509816E+02 -0.47303030289E+01 -0.57514907585E+02  0.61314322777E+02  0.17770000000E+01 0.  1.
</event>
<event>
 7    1  0.4412602E-007  0.1335787E+03  0.7546771E-02  0.1115840E+00
        -11   -1    0    0    0    0  0.00000000000E+00  0.00000000000E+00  0.18250000000E+03  0.18250000000E+03  0.00000000000E+00 0.  1.
         11   -1    0    0    0    0 -0.00000000000E+00 -0.00000000000E+00 -0.18250000000E+03  0.18250000000E+03  0.00000000000E+00 0. -1.
         23    2    1    2    0    0  0.34446400700E+01 -0.42291576994E+02 -0.58515344686E+02  0.12084832067E+03  0.96849512209E+02 0.  0.
        -11    1    1    2    0    0  0.99606969575E+02  0.51926966341E+01  0.85475021623E+02  0.13135635427E+03  0.00000000000E+00 0.  1.
         11    1    1    2    0    0 -0.10305160965E+03  0.37098880360E+02 -0.26959676936E+02  0.11279532506E+03  0.00000000000E+00 0. -1.
        -15    1    3    3    0    0  0.10947577593E+01 -0.36470824098E+02 -0.85557740387E+02  0.93030125089E+02  0.17770000000E+01 0. -1.
         15    1    3    3    0    0  0.23498823107E+01 -0.58207528956E+01  0.27042395701E+02  0.27818195581E+02  0.17770000000E+01 0.  1.
</event>
<event>
 7    1  0.4412602E-007  0.1562706E+03  0.7546771E-02  0.1091491E+00
        -11   -1    0    0    0    0  0.00000000000E+00  0.00000000000E+00  0.18250000000E+03  0.18250000000E+03  0.00000000000E+00 0.  1.
         11   -1    0    0    0    0 -0.00000000000E+00 -0.00000000000E+00 -0.18250000000E+03  0.18250000000E+03  0.00000000000E+00 0.  1.
         23    2    1    2    0    0 -0.84921532423E+02 -0.30302360373E+02 -0.11295504677E+03  0.17379130174E+03  0.96512560085E+02 0.  0.
        -11    1    1    2    0    0  0.13405317501E+02 -0.43609902118E+02  0.60448707522E+02  0.75733561524E+02  0.00000000000E+00 0.  1.
         11    1    1    2    0    0  0.71516214922E+02  0.73912262491E+02  0.52506339253E+02  0.11547513674E+03  0.00000000000E+00 0.  1.
        -15    1    3    3    0    0 -0.13474411233E+01 -0.39732465842E+02 -0.67018563633E+02  0.77943120542E+02  0.17770000000E+01 0. -1.
         15    1    3    3    0    0 -0.83574091300E+02  0.94301054690E+01 -0.45936483141E+02  0.95848181194E+02  0.17770000000E+01 0.  1.
</event>
<event>
 7    1  0.4412602E-007  0.1486098E+03  0.7546771E-02  0.1099173E+00
        -11   -1    0    0    0    0  0.00000000000E+00  0.00000000000E+00  0.18250000000E+03  0.18250000000E+03  0.00000000000E+00 0.  1.
         11   -1    0    0    0    0 -0.00000000000E+00 -0.00000000000E+00 -0.18250000000E+03  0.18250000000E+03  0.00000000000E+00 0.  1.
         23    2    1    2    0    0  0.14710832696E+02  0.29231609090E+02 -0.10111674703E+03  0.13999695580E+03  0.91124395941E+02 0.  0.
        -11    1    1    2    0    0 -0.99426377605E+02 -0.35775881163E+02  0.90970363825E+02  0.13943143595E+03  0.00000000000E+00 0.  1.
         11    1    1    2    0    0  0.84715544909E+02  0.65442720734E+01  0.10146383203E+02  0.85571608249E+02  0.00000000000E+00 0.  1.
        -15    1    3    3    0    0  0.15530782808E+02  0.10592316652E+02  0.13910170929E+02  0.23453208117E+02  0.17770000000E+01 0. -1.
         15    1    3    3    0    0 -0.81995011146E+00  0.18639292438E+02 -0.11502691796E+03  0.11654374768E+03  0.17770000000E+01 0.  1.
</event>
<event>
 7    1  0.4412602E-007  0.1877776E+03  0.7546771E-02  0.1064330E+00
        -11   -1    0    0    0    0  0.00000000000E+00  0.00000000000E+00  0.18250000000E+03  0.18250000000E+03  0.00000000000E+00 0.  1.
         11   -1    0    0    0    0 -0.00000000000E+00 -0.00000000000E+00 -0.18250000000E+03  0.18250000000E+03  0.00000000000E+00 0.  1.
         23    2    1    2    0    0 -0.45088701604E+02 -0.63355233430E+02 -0.14477157044E+03  0.18777758193E+03  0.90855577981E+02 0.  0.
        -11    1    1    2    0    0 -0.13678532394E+02  0.33695659357E+02  0.53457276254E+02  0.64654312249E+02  0.00000000000E+00 0.  1.
         11    1    1    2    0    0  0.58767233998E+02  0.29659574073E+02  0.91314294188E+02  0.11256810583E+03  0.00000000000E+00 0.  1.
        -15    1    3    3    0    0 -0.60103591156E+02 -0.11727193912E+02 -0.10228068574E+03  0.11922443186E+03  0.17770000000E+01 0.  1.
         15    1    3    3    0    0  0.15014889553E+02 -0.51628039517E+02 -0.42490884702E+02  0.68553150069E+02  0.17770000000E+01 0. -1.
</event>
<event>
 7    1  0.4412602E-007  0.2163456E+03  0.7546771E-02  0.1044310E+00
        -11   -1    0    0    0    0  0.00000000000E+00  0.00000000000E+00  0.18250000000E+03  0.18250000000E+03  0.00000000000E+00 0.  1.
         11   -1    0    0    0    0 -0.00000000000E+00 -0.00000000000E+00 -0.18250000000E+03  0.18250000000E+03  0.00000000000E+00 0. -1.
         23    2    1    2    0    0 -0.45177314275E+02  0.44982065971E+02  0.38688466572E+01  0.11116392227E+03  0.90983919761E+02 0.  0.
        -11    1    1    2    0    0 -0.34048682478E+02  0.35109851649E+02  0.93119101719E+02  0.10518165984E+03  0.00000000000E+00 0.  1.
         11    1    1    2    0    0  0.79225996754E+02 -0.80091917620E+02 -0.96987948376E+02  0.14865441790E+03  0.00000000000E+00 0. -1.
        -15    1    3    3    0    0 -0.63083257418E+01  0.25814317034E+02 -0.40914191745E+02  0.48819081851E+02  0.17770000000E+01 0. -1.
         15    1    3    3    0    0 -0.38868988533E+02  0.19167748938E+02  0.44783038403E+02  0.62344840416E+02  0.17770000000E+01 0.  1.
</event>
<event>
 7    1  0.4412602E-007  0.1754494E+03  0.7546771E-02  0.1074210E+00
        -11   -1    0    0    0    0  0.00000000000E+00  0.00000000000E+00  0.18250000000E+03  0.18250000000E+03  0.00000000000E+00 0. -1.
         11   -1    0    0    0    0 -0.00000000000E+00 -0.00000000000E+00 -0.18250000000E+03  0.18250000000E+03  0.00000000000E+00 0. -1.
         23    2    1    2    0    0  0.41560214302E+02  0.10333862599E+02 -0.12968859405E+03  0.16246823132E+03  0.87992923770E+02 0.  0.
        -11    1    1    2    0    0 -0.31406186147E+02 -0.52782786102E+01  0.16365324316E+03  0.16672310203E+03  0.00000000000E+00 0. -1.
         11    1    1    2    0    0 -0.10154028156E+02 -0.50555839891E+01 -0.33964649115E+02  0.35808666644E+02  0.00000000000E+00 0. -1.
        -15    1    3    3    0    0  0.27838852949E+00  0.22742475455E+02 -0.11446773318E+03  0.11671896743E+03  0.17770000000E+01 0.  1.
         15    1    3    3    0    0  0.41281825773E+02 -0.12408612856E+02 -0.15220860873E+02  0.45749263894E+02  0.17770000000E+01 0. -1.
</event>
<event>
 7    1  0.4412602E-007  0.1533780E+03  0.7546771E-02  0.1094334E+00
        -11   -1    0    0    0    0  0.00000000000E+00  0.00000000000E+00  0.18250000000E+03  0.18250000000E+03  0.00000000000E+00 0.  1.
         11   -1    0    0    0    0 -0.00000000000E+00 -0.00000000000E+00 -0.18250000000E+03  0.18250000000E+03  0.00000000000E+00 0. -1.
         23    2    1    2    0    0  0.35609764953E+02 -0.13186720358E+02 -0.75995672514E+02  0.12541908197E+03  0.92264071699E+02 0.  0.
        -11    1    1    2    0    0 -0.79057753332E+02  0.53013994079E+01  0.14056331229E+03  0.16135760893E+03  0.00000000000E+00 0.  1.
         11    1    1    2    0    0  0.43447988379E+02  0.78853209496E+01 -0.64567639777E+02  0.78223309103E+02  0.00000000000E+00 0. -1.
        -15    1    3    3    0    0  0.56883118743E+02 -0.26759524522E+02 -0.77822494014E+02  0.10005628243E+03  0.17770000000E+01 0.  1.
         15    1    3    3    0    0 -0.21273353790E+02  0.13572804164E+02  0.18268214999E+01  0.25362799533E+02  0.17770000000E+01 0. -1.
</event>
<event>
 7    1  0.4412602E-007  0.1290287E+03  0.7546771E-02  0.1121369E+00
        -11   -1    0    0    0    0  0.00000000000E+00  0.00000000000E+00  0.18250000000E+03  0.18250000000E+03  0.00000000000E+00 0.  1.
         11   -1    0    0    0    0 -0.00000000000E+00 -0.00000000000E+00 -0.18250000000E+03  0.18250000000E+03  0.00000000000E+00 0. -1.
         23    2    1    2    0    0  0.44162136572E+02 -0.22112961121E+02 -0.19142472062E+01  0.10225186197E+03  0.89512577760E+02 0.  0.
        -11    1    1    2    0    0 -0.38471178384E+02 -0.61667554637E+02  0.10630293535E+03  0.12877590196E+03  0.00000000000E+00 0.  1.
         11    1    1    2    0    0 -0.56909581882E+01  0.83780515758E+02 -0.10438868815E+03  0.13397223607E+03  0.00000000000E+00 0. -1.
        -15    1    3    3    0    0  0.42923069578E+01 -0.32938466744E+02  0.33938362152E+02  0.47521959608E+02  0.17770000000E+01 0. -1.
         15    1    3    3    0    0  0.39869829614E+02  0.10825505623E+02 -0.35852609358E+02  0.54729902359E+02  0.17770000000E+01 0.  1.
</event>
<event>
 7    1  0.4412602E-007  0.1493413E+03  0.7546771E-02  0.1098418E+00
        -11   -1    0    0    0    0  0.00000000000E+00  0.00000000000E+00  0.18250000000E+03  0.18250000000E+03  0.00000000000E+00 0.  1.
         11   -1    0    0    0    0 -0.00000000000E+00 -0.00000000000E+00 -0.18250000000E+03  0.18250000000E+03  0.00000000000E+00 0. -1.
         23    2    1    2    0    0 -0.13394698785E+02 -0.34982715520E+02  0.75106998187E+02  0.12448966656E+03  0.91942414381E+02 0.  0.
        -11    1    1    2    0    0 -0.36901614997E+02 -0.71583312892E+02  0.26636239166E+02  0.84825639466E+02  0.00000000000E+00 0.  1.
         11    1    1    2    0    0  0.50296313782E+02  0.10656602841E+03 -0.10174323735E+03  0.15568469398E+03  0.00000000000E+00 0. -1.
        -15    1    3    3    0    0 -0.45133174295E+02  0.15081371802E+01  0.57174680256E+02  0.72879213025E+02  0.17770000000E+01 0.  1.
         15    1    3    3    0    0  0.31738475510E+02 -0.36490852700E+02  0.17932317931E+02  0.51610453533E+02  0.17770000000E+01 0. -1.
</event>
<event>
 7    1  0.9023743E-007  0.1587112E+03  0.7546771E-02  0.1089145E+00
        -11   -1    0    0    0    0  0.00000000000E+00  0.00000000000E+00  0.18250000000E+03  0.18250000000E+03  0.00000000000E+00 0.  1.
         11   -1    0    0    0    0 -0.00000000000E+00 -0.00000000000E+00 -0.18250000000E+03  0.18250000000E+03  0.00000000000E+00 0.  1.
         23    2    1    2    0    0  0.32910178794E+00 -0.24892081697E+02  0.94934683540E+02  0.13620908322E+03  0.94448907736E+02 0.  0.
        -11    1    1    2    0    0  0.28758454947E+02 -0.47399445786E+02  0.43137897383E+02  0.70246952834E+02  0.00000000000E+00 0.  1.
         11    1    1    2    0    0 -0.29087556734E+02  0.72291527483E+02 -0.13807258092E+03  0.15854396395E+03  0.00000000000E+00 0.  1.
        -15    1    3    3    0    0 -0.12253885829E+02 -0.57425298586E+02  0.39854405458E+02  0.70988407497E+02  0.17770000000E+01 0.  1.
         15    1    3    3    0    0  0.12582987617E+02  0.32533216890E+02  0.55080278082E+02  0.65220675718E+02  0.17770000000E+01 0. -1.
</event>
<event>
 6    1  0.4412602E-007  0.1137079E+03  0.7546771E-02  0.1142018E+00
        -11   -1    0    0    0    0  0.00000000000E+00  0.00000000000E+00  0.18250000000E+03  0.18250000000E+03  0.00000000000E+00 0.  1.
         11   -1    0    0    0    0 -0.00000000000E+00 -0.00000000000E+00 -0.18250000000E+03  0.18250000000E+03  0.00000000000E+00 0. -1.
        -11    1    1    2    0    0  0.68965122202E+02  0.56456439178E+02  0.68279837291E+02  0.11227490274E+03  0.00000000000E+00 0.  1.
         11    1    1    2    0    0 -0.42372128931E+02 -0.65335101951E+02  0.11939342806E+02  0.78782109414E+02  0.00000000000E+00 0. -1.
        -15    1    1    2    0    0  0.44059282394E+02  0.12351800770E+02  0.21052401070E+02  0.50399887571E+02  0.17770000000E+01 0.  1.
         15    1    1    2    0    0 -0.70652275665E+02 -0.34731379974E+01 -0.10127158117E+03  0.12354310027E+03  0.17770000000E+01 0. -1.
</event>
<event>
 6    1  0.4412602E-007  0.1532154E+03  0.7546771E-02  0.1094495E+00
        -11   -1    0    0    0    0  0.00000000000E+00  0.00000000000E+00  0.18250000000E+03  0.18250000000E+03  0.00000000000E+00 0.  1.
         11   -1    0    0    0    0 -0.00000000000E+00 -0.00000000000E+00 -0.18250000000E+03  0.18250000000E+03  0.00000000000E+00 0. -1.
        -11    1    1    2    0    0 -0.13291712194E+03  0.76658961082E+02  0.24072363911E+02  0.15531592425E+03  0.00000000000E+00 0.  1.
         11    1    1    2    0    0  0.12875920613E+03 -0.82544608771E+02  0.15004544720E+02  0.15368045407E+03  0.00000000000E+00 0. -1.
        -15    1    1    2    0    0  0.78864808742E+01  0.20067557624E+02 -0.10982259621E+02  0.24262547372E+02  0.17770000000E+01 0.  1.
         15    1    1    2    0    0 -0.37285650560E+01 -0.14181909936E+02 -0.28094649010E+02  0.31741074317E+02  0.17770000000E+01 0. -1.
</event>
<event>
 7    1  0.4412602E-007  0.1537416E+03  0.7546771E-02  0.1093972E+00
        -11   -1    0    0    0    0  0.00000000000E+00  0.00000000000E+00  0.18250000000E+03  0.18250000000E+03  0.00000000000E+00 0.  1.
         11   -1    0    0    0    0 -0.00000000000E+00 -0.00000000000E+00 -0.18250000000E+03  0.18250000000E+03  0.00000000000E+00 0. -1.
         23    2    1    2    0    0  0.48847632968E+02  0.92641918108E+02 -0.64124987476E+02  0.15399109003E+03  0.92911923627E+02 0.  0.
        -11    1    1    2    0    0  0.11242660743E+02 -0.73810960956E+02  0.11010842613E+03  0.13303503630E+03  0.00000000000E+00 0.  1.
         11    1    1    2    0    0 -0.60090293711E+02 -0.18830957152E+02 -0.45983438653E+02  0.77973873675E+02  0.00000000000E+00 0. -1.
        -15    1    3    3    0    0  0.40186085597E+02  0.58611557309E+02 -0.86768571537E+02  0.11217031185E+03  0.17770000000E+01 0. -1.
         15    1    3    3    0    0  0.86615473713E+01  0.34030360800E+02  0.22643584061E+02  0.41820778175E+02  0.17770000000E+01 0.  1.
</event>
<event>
 7    1  0.4412602E-007  0.1912884E+03  0.7546771E-02  0.1061667E+00
        -11   -1    0    0    0    0  0.00000000000E+00  0.00000000000E+00  0.18250000000E+03  0.18250000000E+03  0.00000000000E+00 0.  1.
         11   -1    0    0    0    0 -0.00000000000E+00 -0.00000000000E+00 -0.18250000000E+03  0.18250000000E+03  0.00000000000E+00 0.  1.
         23    2    1    2    0    0 -0.27613305052E+02 -0.27857632039E+02 -0.16308232846E+03  0.19128838028E+03  0.91961167338E+02 0.  0.
        -11    1    1    2    0    0  0.13252536640E+02  0.38047467926E+02  0.13172208152E+03  0.13774594841E+03  0.00000000000E+00 0.  1.
         11    1    1    2    0    0  0.14360768412E+02 -0.10189835886E+02  0.31360246931E+02  0.35965671305E+02  0.00000000000E+00 0.  1.
        -15    1    3    3    0    0 -0.59620911083E+01 -0.28634384543E+02 -0.26854973469E+01  0.29425229541E+02  0.17770000000E+01 0. -1.
         15    1    3    3    0    0 -0.21651213944E+02  0.77675250326E+00 -0.16039683111E+03  0.16186315074E+03  0.17770000000E+01 0.  1.
</event>
<event>
 7    1  0.4412602E-007  0.1721189E+03  0.7546771E-02  0.1077032E+00
        -11   -1    0    0    0    0  0.00000000000E+00  0.00000000000E+00  0.18250000000E+03  0.18250000000E+03  0.00000000000E+00 0. -1.
         11   -1    0    0    0    0 -0.00000000000E+00 -0.00000000000E+00 -0.18250000000E+03  0.18250000000E+03  0.00000000000E+00 0.  1.
         23    2    1    2    0    0  0.74581797858E+02  0.54784781333E+02 -0.98688650555E+02  0.16246138857E+03  0.89946852032E+02 0.  0.
        -11    1    1    2    0    0 -0.11539605450E+03 -0.40943743581E+02  0.10193160619E+03  0.15931946483E+03  0.00000000000E+00 0. -1.
         11    1    1    2    0    0  0.40814256645E+02 -0.13841037752E+02 -0.32429556341E+01  0.43219146599E+02  0.00000000000E+00 0.  1.
        -15    1    3    3    0    0  0.55741984778E+02  0.84375930116E+01 -0.54939032618E+01  0.56671884960E+02  0.17770000000E+01 0. -1.
         15    1    3    3    0    0  0.18839813080E+02  0.46347188322E+02 -0.93194747293E+02  0.10578950361E+03  0.17770000000E+01 0.  1.
</event>
<event>
 7    1  0.4412602E-007  0.2109008E+03  0.7546771E-02  0.1047857E+00
        -11   -1    0    0    0    0  0.00000000000E+00  0.00000000000E+00  0.18250000000E+03  0.18250000000E+03  0.00000000000E+00 0.  1.
         11   -1    0    0    0    0 -0.00000000000E+00 -0.00000000000E+00 -0.18250000000E+03  0.18250000000E+03  0.00000000000E+00 0. -1.
         23    2    1    2    0    0  0.34019043630E+02 -0.86617637970E+01 -0.66162390216E+02  0.11811432020E+03  0.91330221037E+02 0.  0.
        -11    1    1    2    0    0 -0.31324175415E+02 -0.38914968970E+02  0.14577720192E+03  0.15409922574E+03  0.00000000000E+00 0.  1.
         11    1    1    2    0    0 -0.26948682145E+01  0.47576732767E+02 -0.79614811701E+02  0.92786454063E+02  0.00000000000E+00 0. -1.
        -15    1    3    3    0    0 -0.26039113161E+02 -0.23649149466E+02 -0.17339598435E+02  0.39257318905E+02  0.17770000000E+01 0.  1.
         15    1    3    3    0    0  0.60058156791E+02  0.14987385669E+02 -0.48822791781E+02  0.78857001291E+02  0.17770000000E+01 0. -1.
</event>
<event>
 7    1  0.4412602E-007  0.1571582E+03  0.7546771E-02  0.1090632E+00
        -11   -1    0    0    0    0  0.00000000000E+00  0.00000000000E+00  0.18250000000E+03  0.18250000000E+03  0.00000000000E+00 0.  1.
         11   -1    0    0    0    0 -0.00000000000E+00 -0.00000000000E+00 -0.18250000000E+03  0.18250000000E+03  0.00000000000E+00 0. -1.
         23    2    1    2    0    0  0.27815239632E+01  0.12708572428E+03 -0.62007226817E+02  0.16804942273E+03  0.90758989151E+02 0.  0.
        -11    1    1    2    0    0  0.29899704620E+02 -0.74815736493E+02  0.96975183379E+02  0.12607764653E+03  0.00000000000E+00 0.  1.
         11    1    1    2    0    0 -0.32681228583E+02 -0.52269987788E+02 -0.34967956563E+02  0.70872930737E+02  0.00000000000E+00 0. -1.
        -15    1    3    3    0    0 -0.38895432621E+02  0.97371427825E+02 -0.38714365920E+02  0.11178555136E+03  0.17770000000E+01 0. -1.
         15    1    3    3    0    0  0.41676956584E+02  0.29714296455E+02 -0.23292860896E+02  0.56263871371E+02  0.17770000000E+01 0.  1.
</event>
<event>
 7    1  0.4412602E-007  0.1374522E+03  0.7546771E-02  0.1111322E+00
        -11   -1    0    0    0    0  0.00000000000E+00  0.00000000000E+00  0.18250000000E+03  0.18250000000E+03  0.00000000000E+00 0. -1.
         11   -1    0    0    0    0 -0.00000000000E+00 -0.00000000000E+00 -0.18250000000E+03  0.18250000000E+03  0.00000000000E+00 0.  1.
         23    2    1    2    0    0  0.37570684592E+02 -0.12227345050E+02 -0.85528533513E+02  0.11703966703E+03  0.69441265148E+02 0.  0.
        -11    1    1    2    0    0  0.30424423729E+01  0.81090584831E+02  0.13239783236E+03  0.15528723521E+03  0.00000000000E+00 0. -1.
         11    1    1    2    0    0 -0.40613126965E+02 -0.68863239781E+02 -0.46869298849E+02  0.92673097766E+02  0.00000000000E+00 0.  1.
        -15    1    3    3    0    0  0.50816018397E+02 -0.26821493516E+02 -0.75382819879E+02  0.94801832799E+02  0.17770000000E+01 0.  1.
         15    1    3    3    0    0 -0.13245333804E+02  0.14594148466E+02 -0.10145713634E+02  0.22237834229E+02  0.17770000000E+01 0. -1.
</event>
<event>
 7    1  0.4412602E-007  0.1592635E+03  0.7546771E-02  0.1088620E+00
        -11   -1    0    0    0    0  0.00000000000E+00  0.00000000000E+00  0.18250000000E+03  0.18250000000E+03  0.00000000000E+00 0.  1.
         11   -1    0    0    0    0 -0.00000000000E+00 -0.00000000000E+00 -0.18250000000E+03  0.18250000000E+03  0.00000000000E+00 0. -1.
         23    2    1    2    0    0 -0.58276352833E+02  0.58946968747E+02  0.86264911479E+02  0.14895271585E+03  0.88737805833E+02 0.  0.
        -11    1    1    2    0    0  0.21251258403E+02 -0.28340195946E+02  0.55792374946E+02  0.66087606948E+02  0.00000000000E+00 0.  1.
         11    1    1    2    0    0  0.37025094430E+02 -0.30606772801E+02 -0.14205728642E+03  0.14995967720E+03  0.00000000000E+00 0. -1.
        -15    1    3    3    0    0 -0.25217185620E+02  0.23869253613E+02  0.93889248705E+02  0.10011991046E+03  0.17770000000E+01 0.  1.
         15    1    3    3    0    0 -0.33059167214E+02  0.35077715133E+02 -0.76243372259E+01  0.48832805397E+02  0.17770000000E+01 0. -1.
</event>
<event>
 7    1  0.4412602E-007  0.1451608E+03  0.7546771E-02  0.1102799E+00
        -11   -1    0    0    0    0  0.00000000000E+00  0.00000000000E+00  0.18250000000E+03  0.18250000000E+03  0.00000000000E+00 0.  1.
         11   -1    0    0    0    0 -0.00000000000E+00 -0.00000000000E+00 -0.18250000000E+03  0.18250000000E+03  0.00000000000E+00 0. -1.
         23    2    1    2    0    0 -0.66551942795E+01  0.69281647266E+02 -0.74891307043E+02  0.12993386531E+03  0.80186427939E+02 0.  0.
        -11    1    1    2    0    0 -0.19481577913E+02 -0.28866152811E+02  0.14550223241E+03  0.14961178527E+03  0.00000000000E+00 0.  1.
         11    1    1    2    0    0  0.26136772193E+02 -0.40415494454E+02 -0.70610925367E+02  0.85454349415E+02  0.00000000000E+00 0. -1.
        -15    1    3    3    0    0 -0.24609409371E+02  0.50046915616E+02 -0.85010456549E+02  0.10168703085E+03  0.17770000000E+01 0. -1.
         15    1    3    3    0    0  0.17954215092E+02  0.19234731650E+02  0.10119149505E+02  0.28246834458E+02  0.17770000000E+01 0.  1.
</event>
<event>
 7    1  0.4412602E-007  0.1687627E+03  0.7546771E-02  0.1079948E+00
        -11   -1    0    0    0    0  0.00000000000E+00  0.00000000000E+00  0.18250000000E+03  0.18250000000E+03  0.00000000000E+00 0. -1.
         11   -1    0    0    0    0 -0.00000000000E+00 -0.00000000000E+00 -0.18250000000E+03  0.18250000000E+03  0.00000000000E+00 0. -1.
         23    2    1    2    0    0 -0.11505107462E+02  0.54598915394E+02 -0.11044223604E+03  0.15361367556E+03  0.91028922637E+02 0.  0.
        -11    1    1    2    0    0  0.47048038788E+02 -0.84721801658E+02  0.12890628187E+03  0.16127036658E+03  0.00000000000E+00 0. -1.
         11    1    1    2    0    0 -0.35542931326E+02  0.30122886264E+02 -0.18464045833E+02  0.50115957865E+02  0.00000000000E+00 0. -1.
        -15    1    3    3    0    0  0.82713437737E+01  0.26937015054E+02  0.88246727837E+01  0.29581252282E+02  0.17770000000E+01 0.  1.
         15    1    3    3    0    0 -0.19776451236E+02  0.27661900341E+02 -0.11926690882E+03  0.12403242327E+03  0.17770000000E+01 0. -1.
</event>
<event>
 7    1  0.4412602E-007  0.1331205E+03  0.7546771E-02  0.1116386E+00
        -11   -1    0    0    0    0  0.00000000000E+00  0.00000000000E+00  0.18250000000E+03  0.18250000000E+03  0.00000000000E+00 0. -1.
         11   -1    0    0    0    0 -0.00000000000E+00 -0.00000000000E+00 -0.18250000000E+03  0.18250000000E+03  0.00000000000E+00 0. -1.
         23    2    1    2    0    0  0.72800287328E+02 -0.56051882682E+02 -0.65780646932E+02  0.13608577154E+03  0.75832369860E+02 0.  0.
        -11    1    1    2    0    0 -0.81559373111E+02 -0.43204321745E+02  0.87224690517E+02  0.12699091068E+03  0.00000000000E+00 0. -1.
         11    1    1    2    0    0  0.87590857837E+01  0.99256204428E+02 -0.21444043586E+02  0.10192331778E+03  0.00000000000E+00 0. -1.
        -15    1    3    3    0    0  0.48862368379E+02 -0.71348247414E+02 -0.63941880345E+02  0.10756312214E+03  0.17770000000E+01 0. -1.
         15    1    3    3    0    0  0.23937918949E+02  0.15296364732E+02 -0.18387665869E+01  0.28522649407E+02  0.17770000000E+01 0.  1.
</event>
<event>
 7    1  0.4412602E-007  0.1495743E+03  0.7546771E-02  0.1098178E+00
        -11   -1    0    0    0    0  0.00000000000E+00  0.00000000000E+00  0.18250000000E+03  0.18250000000E+03  0.00000000000E+00 0. -1.
         11   -1    0    0    0    0 -0.00000000000E+00 -0.00000000000E+00 -0.18250000000E+03  0.18250000000E+03  0.00000000000E+00 0.  1.
         23    2    1    2    0    0  0.61507125015E+01 -0.13813889892E+02 -0.88357685074E+02  0.12968320487E+03  0.93712316664E+02 0.  0.
        -11    1    1    2    0    0  0.43836806608E+02  0.74031283471E+02  0.12269439005E+03  0.14985396190E+03  0.00000000000E+00 0. -1.
         11    1    1    2    0    0 -0.49987519109E+02 -0.60217393579E+02 -0.34336704979E+02  0.85462833237E+02  0.00000000000E+00 0.  1.
        -15    1    3    3    0    0 -0.27008102445E+02  0.29681799122E+02 -0.35734819841E+02  0.53764131862E+02  0.17770000000E+01 0. -1.
         15    1    3    3    0    0  0.33158814947E+02 -0.43495689014E+02 -0.52622865233E+02  0.75919073004E+02  0.17770000000E+01 0.  1.
</event>
<event>
 7    1  0.4412602E-007  0.1379856E+03  0.7546771E-02  0.1110713E+00
        -11   -1    0    0    0    0  0.00000000000E+00  0.00000000000E+00  0.18250000000E+03  0.18250000000E+03  0.00000000000E+00 0.  1.
         11   -1    0    0    0    0 -0.00000000000E+00 -0.00000000000E+00 -0.18250000000E+03  0.18250000000E+03  0.00000000000E+00 0. -1.
         23    2    1    2    0    0 -0.43139041861E+02  0.38814769157E+02 -0.10973695495E+03  0.15407708596E+03  0.91268756413E+02 0.  0.
        -11    1    1    2    0    0 -0.51700943430E+02 -0.57921115722E+02  0.75505000602E+02  0.10829980754E+03  0.00000000000E+00 0.  1.
         11    1    1    2    0    0  0.94839985292E+02  0.19106346565E+02  0.34231954349E+02  0.10262310650E+03  0.00000000000E+00 0. -1.
        -15    1    3    3    0    0 -0.56551027226E+02  0.87820869751E+01 -0.10658108575E+03  0.12098689723E+03  0.17770000000E+01 0. -1.
         15    1    3    3    0    0  0.13411985365E+02  0.30032682182E+02 -0.31558691975E+01  0.33090188725E+02  0.17770000000E+01 0.  1.
</event>
<event>
 7    1  0.4412602E-007  0.1209585E+03  0.7546771E-02  0.1131824E+00
        -11   -1    0    0    0    0  0.00000000000E+00  0.00000000000E+00  0.18250000000E+03  0.18250000000E+03  0.00000000000E+00 0.  1.
         11   -1    0    0    0    0 -0.00000000000E+00 -0.00000000000E+00 -0.18250000000E+03  0.18250000000E+03  0.00000000000E+00 0.  1.
         23    2    1    2    0    0  0.22560440421E+02 -0.61519477753E+02 -0.14736150285E+02  0.11393312340E+03  0.92032509837E+02 0.  0.
        -11    1    1    2    0    0  0.20403449654E+02  0.50749634430E+02  0.12271675198E+03  0.13435485615E+03  0.00000000000E+00 0.  1.
         11    1    1    2    0    0 -0.42963890075E+02  0.10769843323E+02 -0.10798060170E+03  0.11671202046E+03  0.00000000000E+00 0.  1.
        -15    1    3    3    0    0 -0.48096296186E+01 -0.59967083039E+02 -0.43421925875E+02  0.74214587252E+02  0.17770000000E+01 0. -1.
         15    1    3    3    0    0  0.27370070040E+02 -0.15523947135E+01  0.28685775590E+02  0.39718536145E+02  0.17770000000E+01 0.  1.
</event>
<event>
 7    1  0.4412602E-007  0.1485712E+03  0.7546771E-02  0.1099213E+00
        -11   -1    0    0    0    0  0.00000000000E+00  0.00000000000E+00  0.18250000000E+03  0.18250000000E+03  0.00000000000E+00 0. -1.
         11   -1    0    0    0    0 -0.00000000000E+00 -0.00000000000E+00 -0.18250000000E+03  0.18250000000E+03  0.00000000000E+00 0.  1.
         23    2    1    2    0    0  0.93407083504E+02 -0.52156831267E+02 -0.97788868210E+02  0.17219287597E+03  0.92965076744E+02 0.  0.
        -11    1    1    2    0    0 -0.32229082289E+02 -0.91961022923E+01  0.10068449499E+03  0.10611620787E+03  0.00000000000E+00 0. -1.
         11    1    1    2    0    0 -0.61178001215E+02  0.61352933559E+02 -0.28956267770E+01  0.86690916152E+02  0.00000000000E+00 0.  1.
        -15    1    3    3    0    0 -0.94017366835E+01 -0.35605836545E+02 -0.18202698301E+02  0.41117687230E+02  0.17770000000E+01 0.  1.
         15    1    3    3    0    0  0.10280882019E+03 -0.16550994722E+02 -0.79586169909E+02  0.13107518874E+03  0.17770000000E+01 0. -1.
</event>
<event>
 7    1  0.4412602E-007  0.1560506E+03  0.7546771E-02  0.1091705E+00
        -11   -1    0    0    0    0  0.00000000000E+00  0.00000000000E+00  0.18250000000E+03  0.18250000000E+03  0.00000000000E+00 0.  1.
         11   -1    0    0    0    0 -0.00000000000E+00 -0.00000000000E+00 -0.18250000000E+03  0.18250000000E+03  0.00000000000E+00 0.  1.
         23    2    1    2    0    0 -0.47605732651E+02  0.32734900459E+02 -0.10153212927E+03  0.14735570193E+03  0.89816758603E+02 0.  0.
        -11    1    1    2    0    0  0.11835797017E+02 -0.95048763533E+02  0.10935223361E+03  0.14536940715E+03  0.00000000000E+00 0.  1.
         11    1    1    2    0    0  0.35769935634E+02  0.62313863074E+02 -0.78201043334E+01  0.72274890925E+02  0.00000000000E+00 0.  1.
        -15    1    3    3    0    0 -0.41959433600E+02 -0.24650120391E+02 -0.52915297247E+02  0.71912508752E+02  0.17770000000E+01 0. -1.
         15    1    3    3    0    0 -0.56462990514E+01  0.57385020850E+02 -0.48616832026E+02  0.75443193173E+02  0.17770000000E+01 0.  1.
</event>
<event>
 7    1  0.4412602E-007  0.1828294E+03  0.7546771E-02  0.1068193E+00
        -11   -1    0    0    0    0  0.00000000000E+00  0.00000000000E+00  0.18250000000E+03  0.18250000000E+03  0.00000000000E+00 0.  1.
         11   -1    0    0    0    0 -0.00000000000E+00 -0.00000000000E+00 -0.18250000000E+03  0.18250000000E+03  0.00000000000E+00 0.  1.
         23    2    1    2    0    0  0.56921378000E+02  0.24525704151E+02 -0.15400432606E+03  0.18217061571E+03  0.75014980819E+02 0.  0.
        -11    1    1    2    0    0 -0.32240890602E+02  0.20782990219E+02  0.10453462301E+03  0.11135032607E+03  0.00000000000E+00 0.  1.
         11    1    1    2    0    0 -0.24680487398E+02 -0.45308694370E+02  0.49469703051E+02  0.71479058218E+02  0.00000000000E+00 0.  1.
        -15    1    3    3    0    0  0.64038456530E+02  0.42802904760E+02 -0.13005319122E+03  0.15116217399E+03  0.17770000000E+01 0.  1.
         15    1    3    3    0    0 -0.71170785303E+01 -0.18277200609E+02 -0.23951134837E+02  0.31008441720E+02  0.17770000000E+01 0. -1.
</event>
<event>
 7    1  0.4412602E-007  0.1785134E+03  0.7546771E-02  0.1071673E+00
        -11   -1    0    0    0    0  0.00000000000E+00  0.00000000000E+00  0.18250000000E+03  0.18250000000E+03  0.00000000000E+00 0. -1.
         11   -1    0    0    0    0 -0.00000000000E+00 -0.00000000000E+00 -0.18250000000E+03  0.18250000000E+03  0.00000000000E+00 0.  1.
         23    2    1    2    0    0 -0.16050198352E+02  0.26054672333E+02 -0.14841945086E+03  0.17784647580E+03  0.93083729744E+02 0.  0.
        -11    1    1    2    0    0  0.74148485690E+01 -0.57062330916E+02  0.14348077880E+03  0.15458920879E+03  0.00000000000E+00 0. -1.
         11    1    1    2    0    0  0.86353497834E+01  0.31007658583E+02  0.49386720558E+01  0.32564315414E+02  0.00000000000E+00 0.  1.
        -15    1    3    3    0    0  0.29904560507E+02 -0.65793451405E+01 -0.17532942315E+02  0.35328916157E+02  0.17770000000E+01 0. -1.
         15    1    3    3    0    0 -0.45954758859E+02  0.32634017474E+02 -0.13088650854E+03  0.14251755964E+03  0.17770000000E+01 0.  1.
</event>
<event>
 7    1  0.4412602E-007  0.1383672E+03  0.7546771E-02  0.1110278E+00
        -11   -1    0    0    0    0  0.00000000000E+00  0.00000000000E+00  0.18250000000E+03  0.18250000000E+03  0.00000000000E+00 0.  1.
         11   -1    0    0    0    0 -0.00000000000E+00 -0.00000000000E+00 -0.18250000000E+03  0.18250000000E+03  0.00000000000E+00 0.  1.
         23    2    1    2    0    0  0.54056126961E+02  0.70063463736E+01 -0.72767855990E+02  0.12816295978E+03  0.90329561295E+02 0.  0.
        -11    1    1    2    0    0  0.74848952119E+02  0.32361589314E+02  0.60420039923E+02  0.10148999616E+03  0.00000000000E+00 0.  1.
         11    1    1    2    0    0 -0.12890507908E+03 -0.39367935687E+02  0.12347816067E+02  0.13534704406E+03  0.00000000000E+00 0.  1.
        -15    1    3    3    0    0  0.29286779862E+02  0.46117307321E+02 -0.20649540433E+02  0.58430152817E+02  0.17770000000E+01 0.  1.
         15    1    3    3    0    0  0.24769347099E+02 -0.39110960947E+02 -0.52118315558E+02  0.69732806967E+02  0.17770000000E+01 0. -1.
</event>
<event>
 7    1  0.4412602E-007  0.1745992E+03  0.7546771E-02  0.1074924E+00
        -11   -1    0    0    0    0  0.00000000000E+00  0.00000000000E+00  0.18250000000E+03  0.18250000000E+03  0.00000000000E+00 0. -1.
         11   -1    0    0    0    0 -0.00000000000E+00 -0.00000000000E+00 -0.18250000000E+03  0.18250000000E+03  0.00000000000E+00 0. -1.
         23    2    1    2    0    0 -0.27920492344E+01  0.25520323357E+02 -0.16057513728E+03  0.18601154212E+03  0.90315207176E+02 0.  0.
        -11    1    1    2    0    0 -0.22995429320E+02 -0.73234832419E+01  0.13822223707E+03  0.14031325667E+03  0.00000000000E+00 0. -1.
         11    1    1    2    0    0  0.25787478554E+02 -0.18196840116E+02  0.22352900209E+02  0.38675201203E+02  0.00000000000E+00 0. -1.
        -15    1    3    3    0    0 -0.40376917349E+02  0.11309560914E+01 -0.11575190111E+03  0.12261009280E+03  0.17770000000E+01 0.  1.
         15    1    3    3    0    0  0.37584868114E+02  0.24389367266E+02 -0.44823236172E+02  0.63401449327E+02  0.17770000000E+01 0. -1.
</event>
<event>
 7    1  0.4412602E-007  0.1415283E+03  0.7546771E-02  0.1106741E+00
        -11   -1    0    0    0    0  0.00000000000E+00  0.00000000000E+00  0.18250000000E+03  0.18250000000E+03  0.00000000000E+00 0. -1.
         11   -1    0    0    0    0 -0.00000000000E+00 -0.00000000000E+00 -0.18250000000E+03  0.18250000000E+03  0.00000000000E+00 0. -1.
         23    2    1    2    0    0  0.34680452496E+02 -0.90378613514E+02  0.28718172961E+02  0.13550245167E+03  0.90361238289E+02 0.  0.
        -11    1    1    2    0    0 -0.89641007412E+02 -0.30287662809E+02 -0.19317456155E+02  0.96571304437E+02  0.00000000000E+00 0. -1.
         11    1    1    2    0    0  0.54960554917E+02  0.12066627632E+03 -0.94007168063E+01  0.13292624389E+03  0.00000000000E+00 0. -1.
        -15    1    3    3    0    0 -0.20999513565E+02 -0.15780056367E+02  0.33101997797E+02  0.42295268484E+02  0.17770000000E+01 0.  1.
         15    1    3    3    0    0  0.55679966061E+02 -0.74598557146E+02 -0.43838248363E+01  0.93207183189E+02  0.17770000000E+01 0. -1.
</event>
<event>
 7    1  0.4412602E-007  0.1542995E+03  0.7546771E-02  0.1093421E+00
        -11   -1    0    0    0    0  0.00000000000E+00  0.00000000000E+00  0.18250000000E+03  0.18250000000E+03  0.00000000000E+00 0. -1.
         11   -1    0    0    0    0 -0.00000000000E+00 -0.00000000000E+00 -0.18250000000E+03  0.18250000000E+03  0.00000000000E+00 0. -1.
         23    2    1    2    0    0 -0.28321016878E+02  0.36495848031E+02 -0.10378112618E+03  0.14629725466E+03  0.92186428759E+02 0.  0.
        -11    1    1    2    0    0  0.32339321655E+02  0.68914040158E+02  0.85760387756E+01  0.76606299331E+02  0.00000000000E+00 0. -1.
         11    1    1    2    0    0 -0.40183047765E+01 -0.10540988819E+03  0.95205087408E+02  0.14209644601E+03  0.00000000000E+00 0. -1.
        -15    1    3    3    0    0 -0.84397408725E+01 -0.22828309311E+02  0.79982451018E+00  0.24416354770E+02  0.17770000000E+01 0.  1.
         15    1    3    3    0    0 -0.19881276006E+02  0.59324157342E+02 -0.10458095069E+03  0.12188089989E+03  0.17770000000E+01 0. -1.
</event>
<event>
 7    1  0.4412602E-007  0.1332144E+03  0.7546771E-02  0.1116274E+00
        -11   -1    0    0    0    0  0.00000000000E+00  0.00000000000E+00  0.18250000000E+03  0.18250000000E+03  0.00000000000E+00 0. -1.
         11   -1    0    0    0    0 -0.00000000000E+00 -0.00000000000E+00 -0.18250000000E+03  0.18250000000E+03  0.00000000000E+00 0.  1.
         23    2    1    2    0    0  0.63889259631E+02  0.53539722986E+02 -0.30697551302E+02  0.12716100713E+03  0.90990343694E+02 0.  0.
        -11    1    1    2    0    0 -0.42474316253E+02  0.53309529847E+01  0.12076524998E+03  0.12812779638E+03  0.00000000000E+00 0. -1.
         11    1    1    2    0    0 -0.21414943378E+02 -0.58870675971E+02 -0.90067698683E+02  0.10971119649E+03  0.00000000000E+00 0.  1.
        -15    1    3    3    0    0 -0.10637482574E+02  0.89160423610E+01  0.21611723953E+02  0.25746382040E+02  0.17770000000E+01 0. -1.
         15    1    3    3    0    0  0.74526742204E+02  0.44623680625E+02 -0.52309275255E+02  0.10141462509E+03  0.17770000000E+01 0.  1.
</event>
<event>
 7    1  0.4412602E-007  0.1559419E+03  0.7546771E-02  0.1091811E+00
        -11   -1    0    0    0    0  0.00000000000E+00  0.00000000000E+00  0.18250000000E+03  0.18250000000E+03  0.00000000000E+00 0. -1.
         11   -1    0    0    0    0 -0.00000000000E+00 -0.00000000000E+00 -0.18250000000E+03  0.18250000000E+03  0.00000000000E+00 0. -1.
         23    2    1    2    0    0 -0.14443237675E+01 -0.12565462038E+02 -0.12414944583E+03  0.15426721378E+03  0.90693502755E+02 0.  0.
        -11    1    1    2    0    0 -0.28226231411E+02  0.67252058689E+02  0.12087344594E+01  0.72945325941E+02  0.00000000000E+00 0. -1.
         11    1    1    2    0    0  0.29670555178E+02 -0.54686596651E+02  0.12294071137E+03  0.13778746028E+03  0.00000000000E+00 0. -1.
        -15    1    3    3    0    0  0.59837365492E+01  0.38432489517E+02 -0.65248693006E+02  0.75982965337E+02  0.17770000000E+01 0. -1.
         15    1    3    3    0    0 -0.74280603167E+01 -0.50997951555E+02 -0.58900752821E+02  0.78284248446E+02  0.17770000000E+01 0.  1.
</event>
<event>
 7    1  0.4412602E-007  0.1779839E+03  0.7546771E-02  0.1072108E+00
        -11   -1    0    0    0    0  0.00000000000E+00  0.00000000000E+00  0.18250000000E+03  0.18250000000E+03  0.00000000000E+00 0.  1.
         11   -1    0    0    0    0 -0.00000000000E+00 -0.00000000000E+00 -0.18250000000E+03  0.18250000000E+03  0.00000000000E+00 0. -1.
         23    2    1    2    0    0  0.40972241970E+02  0.21878397077E+02 -0.13420086557E+03  0.16900826897E+03  0.91632602231E+02 0.  0.
        -11    1    1    2    0    0 -0.33800476330E+02 -0.48402132828E+02  0.15212999264E+03  0.16318325075E+03  0.00000000000E+00 0.  1.
         11    1    1    2    0    0 -0.71717656396E+01  0.26523735752E+02 -0.17929127078E+02  0.32808480282E+02  0.00000000000E+00 0. -1.
        -15    1    3    3    0    0  0.19403193461E+02  0.12474489073E+02 -0.14221729645E+03  0.14408682775E+03  0.17770000000E+01 0. -1.
         15    1    3    3    0    0  0.21569048508E+02  0.94039080038E+01  0.80164308826E+01  0.24921441218E+02  0.17770000000E+01 0.  1.
</event>
<event>
 7    1  0.4412602E-007  0.1669664E+03  0.7546771E-02  0.1081539E+00
        -11   -1    0    0    0    0  0.00000000000E+00  0.00000000000E+00  0.18250000000E+03  0.18250000000E+03  0.00000000000E+00 0.  1.
         11   -1    0    0    0    0 -0.00000000000E+00 -0.00000000000E+00 -0.18250000000E+03  0.18250000000E+03  0.00000000000E+00 0. -1.
         23    2    1    2    0    0  0.63619375237E+02 -0.84641853078E+02 -0.11536325453E+03  0.18146254443E+03  0.91696817486E+02 0.  0.
        -11    1    1    2    0    0  0.17505310671E+02  0.70064128598E+01  0.50400911981E+02  0.53812430268E+02  0.00000000000E+00 0.  1.
         11    1    1    2    0    0 -0.81124685907E+02  0.77635440218E+02  0.64962342545E+02  0.12972502530E+03  0.00000000000E+00 0. -1.
        -15    1    3    3    0    0  0.81953933131E+02 -0.39454542775E+02 -0.80669799147E+02  0.12158898932E+03  0.17770000000E+01 0. -1.
         15    1    3    3    0    0 -0.18334557894E+02 -0.45187310303E+02 -0.34693455379E+02  0.59873555104E+02  0.17770000000E+01 0.  1.
</event>
<event>
 7    1  0.4412602E-007  0.1830152E+03  0.7546771E-02  0.1068045E+00
        -11   -1    0    0    0    0  0.00000000000E+00  0.00000000000E+00  0.18250000000E+03  0.18250000000E+03  0.00000000000E+00 0. -1.
         11   -1    0    0    0    0 -0.00000000000E+00 -0.00000000000E+00 -0.18250000000E+03  0.18250000000E+03  0.00000000000E+00 0. -1.
         23    2    1    2    0    0 -0.52810511626E+02  0.19872589906E+02 -0.14351113951E+03  0.17900827059E+03  0.90910086400E+02 0.  0.
        -11    1    1    2    0    0  0.42174462412E+02 -0.36754510235E+02  0.15371684692E+03  0.16358009759E+03  0.00000000000E+00 0. -1.
         11    1    1    2    0    0  0.10636049214E+02  0.16881920329E+02 -0.10205707410E+02  0.22411631816E+02  0.00000000000E+00 0. -1.
        -15    1    3    3    0    0 -0.27855507733E+02  0.46000351970E+02 -0.33930781280E+02  0.63611456042E+02  0.17770000000E+01 0.  1.
         15    1    3    3    0    0 -0.24955003894E+02 -0.26127762065E+02 -0.10958035823E+03  0.11539681455E+03  0.17770000000E+01 0. -1.
</event>
<event>
 7    1  0.4412602E-007  0.1676828E+03  0.7546771E-02  0.1080902E+00
        -11   -1    0    0    0    0  0.00000000000E+00  0.00000000000E+00  0.18250000000E+03  0.18250000000E+03  0.00000000000E+00 0.  1.
         11   -1    0    0    0    0 -0.00000000000E+00 -0.00000000000E+00 -0.18250000000E+03  0.18250000000E+03  0.00000000000E+00 0. -1.
         23    2    1    2    0    0  0.82444641820E+01 -0.61335745019E+02 -0.99992861087E+02  0.14887135714E+03  0.91291094311E+02 0.  0.
        -11    1    1    2    0    0  0.17198724597E+02  0.85567175423E+02  0.13868561988E+03  0.16386347610E+03  0.00000000000E+00 0.  1.
         11    1    1    2    0    0 -0.25443188779E+02 -0.24231430404E+02 -0.38692758789E+02  0.52265166769E+02  0.00000000000E+00 0. -1.
        -15    1    3    3    0    0 -0.19034786985E+02  0.13187701667E+02 -0.49813623503E+02  0.54961744935E+02  0.17770000000E+01 0. -1.
         15    1    3    3    0    0  0.27279251167E+02 -0.74523446686E+02 -0.50179237585E+02  0.93909612201E+02  0.17770000000E+01 0.  1.
</event>
<event>
 7    1  0.4412602E-007  0.1489940E+03  0.7546771E-02  0.1098776E+00
        -11   -1    0    0    0    0  0.00000000000E+00  0.00000000000E+00  0.18250000000E+03  0.18250000000E+03  0.00000000000E+00 0.  1.
         11   -1    0    0    0    0 -0.00000000000E+00 -0.00000000000E+00 -0.18250000000E+03  0.18250000000E+03  0.00000000000E+00 0. -1.
         23    2    1    2    0    0  0.22517241460E+02 -0.54784104997E+01 -0.67127351856E+01  0.66036808935E+02  0.61471620899E+02 0.  0.
        -11    1    1    2    0    0  0.99925539000E+02  0.95682283403E+02  0.38477471095E+02  0.14359919388E+03  0.00000000000E+00 0.  1.
         11    1    1    2    0    0 -0.12244278046E+03 -0.90203872903E+02 -0.31764735909E+02  0.15536399718E+03  0.00000000000E+00 0. -1.
        -15    1    3    3    0    0 -0.16253466839E+02 -0.95623532072E+01 -0.17244169792E+02  0.25615091332E+02  0.17770000000E+01 0. -1.
         15    1    3    3    0    0  0.38770708299E+02  0.40839427075E+01  0.10531434607E+02  0.40421717602E+02  0.17770000000E+01 0.  1.
</event>
<event>
 7    1  0.4412602E-007  0.1715006E+03  0.7546771E-02  0.1077564E+00
        -11   -1    0    0    0    0  0.00000000000E+00  0.00000000000E+00  0.18250000000E+03  0.18250000000E+03  0.00000000000E+00 0.  1.
         11   -1    0    0    0    0 -0.00000000000E+00 -0.00000000000E+00 -0.18250000000E+03  0.18250000000E+03  0.00000000000E+00 0. -1.
         23    2    1    2    0    0  0.12503129576E+02 -0.85038768267E+01 -0.12929508469E+03  0.15697350967E+03  0.87720121088E+02 0.  0.
        -11    1    1    2    0    0 -0.40169347566E+02 -0.46571645933E+01  0.15977327389E+03  0.16481130033E+03  0.00000000000E+00 0.  1.
         11    1    1    2    0    0  0.27666217990E+02  0.13161041420E+02 -0.30478189203E+02  0.43215189994E+02  0.00000000000E+00 0. -1.
        -15    1    3    3    0    0  0.17403008433E+02 -0.40520401395E+02 -0.11162800865E+03  0.12003640146E+03  0.17770000000E+01 0. -1.
         15    1    3    3    0    0 -0.48998788575E+01  0.32016524569E+02 -0.17667076043E+02  0.36937108214E+02  0.17770000000E+01 0.  1.
</event>
<event>
 7    1  0.4412603E-007  0.1366025E+03  0.7546771E-02  0.1112299E+00
        -11   -1    0    0    0    0  0.00000000000E+00  0.00000000000E+00  0.18250000000E+03  0.18250000000E+03  0.00000000000E+00 0.  1.
         11   -1    0    0    0    0 -0.00000000000E+00 -0.00000000000E+00 -0.18250000000E+03  0.18250000000E+03  0.00000000000E+00 0.  1.
         23    2    1    2    0    0  0.71233302793E+02 -0.29823596324E+02 -0.51024154978E+02  0.12026552092E+03  0.76789978549E+02 0.  0.
        -11    1    1    2    0    0 -0.42140132306E+02  0.81913619054E+01  0.14117988389E+03  0.14756235555E+03  0.00000000000E+00 0.  1.
         11    1    1    2    0    0 -0.29093170487E+02  0.21632234419E+02 -0.90155728915E+02  0.97172123529E+02  0.00000000000E+00 0.  1.
        -15    1    3    3    0    0  0.27083246741E+02 -0.90940772070E+01 -0.63703169888E+02  0.69838786337E+02  0.17770000000E+01 0. -1.
         15    1    3    3    0    0  0.44150056052E+02 -0.20729519117E+02  0.12679014910E+02  0.50426734579E+02  0.17770000000E+01 0.  1.
</event>
<event>
 7    1  0.4412602E-007  0.1692611E+03  0.7546771E-02  0.1079510E+00
        -11   -1    0    0    0    0  0.00000000000E+00  0.00000000000E+00  0.18250000000E+03  0.18250000000E+03  0.00000000000E+00 0.  1.
         11   -1    0    0    0    0 -0.00000000000E+00 -0.00000000000E+00 -0.18250000000E+03  0.18250000000E+03  0.00000000000E+00 0. -1.
         23    2    1    2    0    0 -0.40257811092E+02 -0.41118233687E+02 -0.13761620200E+03  0.17473324944E+03  0.91005982831E+02 0.  0.
        -11    1    1    2    0    0 -0.75472655816E+01  0.50821272902E+02  0.13140592537E+03  0.14109316149E+03  0.00000000000E+00 0.  1.
         11    1    1    2    0    0  0.47805076674E+02 -0.97030392150E+01  0.62102766309E+01  0.49173589066E+02  0.00000000000E+00 0. -1.
        -15    1    3    3    0    0 -0.41469968273E+02 -0.43912490975E+02 -0.30732992503E+02  0.67791885130E+02  0.17770000000E+01 0.  1.
         15    1    3    3    0    0  0.12121571812E+01  0.27942572886E+01 -0.10688320950E+03  0.10694136431E+03  0.17770000000E+01 0. -1.
</event>
<event>
 7    1  0.4412602E-007  0.1760659E+03  0.7546771E-02  0.1073695E+00
        -11   -1    0    0    0    0  0.00000000000E+00  0.00000000000E+00  0.18250000000E+03  0.18250000000E+03  0.00000000000E+00 0.  1.
         11   -1    0    0    0    0 -0.00000000000E+00 -0.00000000000E+00 -0.18250000000E+03  0.18250000000E+03  0.00000000000E+00 0. -1.
         23    2    1    2    0    0  0.19892560102E+02  0.89353449126E+02 -0.95476837661E+02  0.16050916497E+03  0.90926413607E+02 0.  0.
        -11    1    1    2    0    0 -0.22256503399E+02 -0.11483564439E+03  0.12103584938E+03  0.16832187619E+03  0.00000000000E+00 0.  1.
         11    1    1    2    0    0  0.23639432968E+01  0.25482195267E+02 -0.25559011723E+02  0.36168958844E+02  0.00000000000E+00 0. -1.
        -15    1    3    3    0    0 -0.34357460496E+02  0.31974081057E+02 -0.19309262037E+02  0.50781712068E+02  0.17770000000E+01 0. -1.
         15    1    3    3    0    0  0.54250020598E+02  0.57379368069E+02 -0.76167575624E+02  0.10972745290E+03  0.17770000000E+01 0.  1.
</event>
<event>
 7    1  0.4412602E-007  0.1672558E+03  0.7546771E-02  0.1081281E+00
        -11   -1    0    0    0    0  0.00000000000E+00  0.00000000000E+00  0.18250000000E+03  0.18250000000E+03  0.00000000000E+00 0. -1.
         11   -1    0    0    0    0 -0.00000000000E+00 -0.00000000000E+00 -0.18250000000E+03  0.18250000000E+03  0.00000000000E+00 0.  1.
         23    2    1    2    0    0 -0.13084924460E+03  0.43727595046E+02 -0.33479761425E+02  0.16913062208E+03  0.91927392649E+02 0.  0.
        -11    1    1    2    0    0  0.10499188101E+03 -0.55479398933E+02  0.78706336907E+02  0.14246384191E+03  0.00000000000E+00 0. -1.
         11    1    1    2    0    0  0.25857363591E+02  0.11751803888E+02 -0.45226575482E+02  0.53405536008E+02  0.00000000000E+00 0.  1.
        -15    1    3    3    0    0 -0.94254611689E+02  0.45383117843E+01 -0.57320805744E+02  0.11042355092E+03  0.17770000000E+01 0.  1.
         15    1    3    3    0    0 -0.36594632909E+02  0.39189283261E+02  0.23841044320E+02  0.58707071154E+02  0.17770000000E+01 0. -1.
</event>
<event>
 7    1  0.4412602E-007  0.2145924E+03  0.7546771E-02  0.1045440E+00
        -11   -1    0    0    0    0  0.00000000000E+00  0.00000000000E+00  0.18250000000E+03  0.18250000000E+03  0.00000000000E+00 0.  1.
         11   -1    0    0    0    0 -0.00000000000E+00 -0.00000000000E+00 -0.18250000000E+03  0.18250000000E+03  0.00000000000E+00 0. -1.
         23    2    1    2    0    0  0.28598646349E+02 -0.30734870075E+02  0.36716666739E+02  0.10512573562E+03  0.89111120864E+02 0.  0.
        -11    1    1    2    0    0 -0.32806142976E+02 -0.90271028263E+02  0.52515179889E+02  0.10946664186E+03  0.00000000000E+00 0.  1.
         11    1    1    2    0    0  0.42074966267E+01  0.12100589834E+03 -0.89231846628E+02  0.15040762252E+03  0.00000000000E+00 0. -1.
        -15    1    3    3    0    0  0.61212273225E+01 -0.21054913451E+02  0.64446841915E+02  0.68097958605E+02  0.17770000000E+01 0.  1.
         15    1    3    3    0    0  0.22477419026E+02 -0.96799566238E+01 -0.27730175176E+02  0.37027777014E+02  0.17770000000E+01 0. -1.
</event>
<event>
 7    1  0.4412602E-007  0.1306681E+03  0.7546771E-02  0.1119349E+00
        -11   -1    0    0    0    0  0.00000000000E+00  0.00000000000E+00  0.18250000000E+03  0.18250000000E+03  0.00000000000E+00 0. -1.
         11   -1    0    0    0    0 -0.00000000000E+00 -0.00000000000E+00 -0.18250000000E+03  0.18250000000E+03  0.00000000000E+00 0. -1.
         23    2    1    2    0    0 -0.24716161592E+02  0.26376536112E+02 -0.30346071040E+02  0.99436226542E+02  0.87521819109E+02 0.  0.
        -11    1    1    2    0    0 -0.31850026942E+02  0.21018379808E+00  0.13770258309E+03  0.14133813987E+03  0.00000000000E+00 0. -1.
         11    1    1    2    0    0  0.56566188535E+02 -0.26586719910E+02 -0.10735651205E+03  0.12422563359E+03  0.00000000000E+00 0. -1.
        -15    1    3    3    0    0  0.22367706738E+02  0.15331590607E+02  0.16737433921E+02  0.31916632004E+02  0.17770000000E+01 0.  1.
         15    1    3    3    0    0 -0.47083868330E+02  0.11044945505E+02 -0.47083504961E+02  0.67519594538E+02  0.17770000000E+01 0. -1.
</event>
<event>
 7    1  0.4412602E-007  0.2199098E+03  0.7546771E-02  0.1042050E+00
        -11   -1    0    0    0    0  0.00000000000E+00  0.00000000000E+00  0.18250000000E+03  0.18250000000E+03  0.00000000000E+00 0. -1.
         11   -1    0    0    0    0 -0.00000000000E+00 -0.00000000000E+00 -0.18250000000E+03  0.18250000000E+03  0.00000000000E+00 0.  1.
         23    2    1    2    0    0 -0.11356568599E+02 -0.67798503317E+01  0.18330358249E+02  0.94704587941E+02  0.91967488400E+02 0.  0.
        -11    1    1    2    0    0 -0.57028872964E+02  0.28305334682E+02  0.10780941108E+03  0.12520524526E+03  0.00000000000E+00 0. -1.
         11    1    1    2    0    0  0.68385441563E+02 -0.21525484350E+02 -0.12613976933E+03  0.14509016680E+03  0.00000000000E+00 0.  1.
        -15    1    3    3    0    0 -0.11071785114E+02  0.36637648452E+02 -0.13732005414E+02  0.40701688066E+02  0.17770000000E+01 0.  1.
         15    1    3    3    0    0 -0.28478348550E+00 -0.43417498784E+02  0.32062363663E+02  0.54002899875E+02  0.17770000000E+01 0. -1.
</event>
<event>
 7    1  0.4412602E-007  0.1635494E+03  0.7546771E-02  0.1084628E+00
        -11   -1    0    0    0    0  0.00000000000E+00  0.00000000000E+00  0.18250000000E+03  0.18250000000E+03  0.00000000000E+00 0. -1.
         11   -1    0    0    0    0 -0.00000000000E+00 -0.00000000000E+00 -0.18250000000E+03  0.18250000000E+03  0.00000000000E+00 0.  1.
         23    2    1    2    0    0  0.89647592977E+02 -0.31843305387E+02  0.63489587653E+02  0.14736880839E+03  0.92929817182E+02 0.  0.
        -11    1    1    2    0    0  0.10174413357E+02  0.18838211911E+02  0.56844674022E+02  0.60743015071E+02  0.00000000000E+00 0. -1.
         11    1    1    2    0    0 -0.99822006334E+02  0.13005093476E+02 -0.12033426167E+03  0.15688817654E+03  0.00000000000E+00 0.  1.
        -15    1    3    3    0    0  0.65904707639E+02 -0.61192567568E+02  0.62556856532E+02  0.10956495262E+03  0.17770000000E+01 0. -1.
         15    1    3    3    0    0  0.23742885338E+02  0.29349262181E+02  0.93273112085E+00  0.37803855770E+02  0.17770000000E+01 0.  1.
</event>
<event>
 7    1  0.4412602E-007  0.1354300E+03  0.7546771E-02  0.1113660E+00
        -11   -1    0    0    0    0  0.00000000000E+00  0.00000000000E+00  0.18250000000E+03  0.18250000000E+03  0.00000000000E+00 0.  1.
         11   -1    0    0    0    0 -0.00000000000E+00 -0.00000000000E+00 -0.18250000000E+03  0.18250000000E+03  0.00000000000E+00 0. -1.
         23    2    1    2    0    0  0.60499295788E+01 -0.10853615596E+02 -0.66459672566E+02  0.11195809313E+03  0.89237458055E+02 0.  0.
        -11    1    1    2    0    0 -0.98823512012E+02  0.49691652608E+02  0.97850144689E+02  0.14768208314E+03  0.00000000000E+00 0.  1.
         11    1    1    2    0    0  0.92773582433E+02 -0.38838037012E+02 -0.31390472122E+02  0.10535982373E+03  0.00000000000E+00 0. -1.
        -15    1    3    3    0    0  0.26169908902E+02  0.10959296670E+02 -0.75671658174E+02  0.80835189709E+02  0.17770000000E+01 0. -1.
         15    1    3    3    0    0 -0.20119979323E+02 -0.21812912266E+02  0.92119856080E+01  0.31122903421E+02  0.17770000000E+01 0.  1.
</event>
<event>
 7    1  0.4412602E-007  0.1620384E+03  0.7546771E-02  0.1086020E+00
        -11   -1    0    0    0    0  0.00000000000E+00  0.00000000000E+00  0.18250000000E+03  0.18250000000E+03  0.00000000000E+00 0.  1.
         11   -1    0    0    0    0 -0.00000000000E+00 -0.00000000000E+00 -0.18250000000E+03  0.18250000000E+03  0.00000000000E+00 0. -1.
         23    2    1    2    0    0  0.23374330736E+02  0.71970576025E+02  0.10871292046E+03  0.16030493954E+03  0.90294249069E+02 0.  0.
        -11    1    1    2    0    0  0.81822617535E+01 -0.54032369211E+02  0.29286762345E+02  0.62001296588E+02  0.00000000000E+00 0.  1.
         11    1    1    2    0    0 -0.31556592490E+02 -0.17938206814E+02 -0.13799968281E+03  0.14269376387E+03  0.00000000000E+00 0. -1.
        -15    1    3    3    0    0  0.35861101705E+01 -0.58642758320E+01  0.71364089227E+02  0.71716391971E+02  0.17770000000E+01 0. -1.
         15    1    3    3    0    0  0.19788220566E+02  0.77834851857E+02  0.37348831234E+02  0.88588547569E+02  0.17770000000E+01 0.  1.
</event>
<event>
 7    1  0.4412602E-007  0.2062029E+03  0.7546771E-02  0.1051011E+00
        -11   -1    0    0    0    0  0.00000000000E+00  0.00000000000E+00  0.18250000000E+03  0.18250000000E+03  0.00000000000E+00 0.  1.
         11   -1    0    0    0    0 -0.00000000000E+00 -0.00000000000E+00 -0.18250000000E+03  0.18250000000E+03  0.00000000000E+00 0. -1.
         23    2    1    2    0    0 -0.10354850696E+02  0.18761877795E+02 -0.64855189025E+02  0.11361392858E+03  0.90789306815E+02 0.  0.
        -11    1    1    2    0    0  0.37292623720E+02 -0.16966236743E+02  0.15342072411E+03  0.15879707668E+03  0.00000000000E+00 0.  1.
         11    1    1    2    0    0 -0.26937773025E+02 -0.17956410526E+01 -0.88565535090E+02  0.92588994746E+02  0.00000000000E+00 0. -1.
        -15    1    3    3    0    0 -0.82209223011E+01 -0.13330913677E+02  0.18468418569E+02  0.24280383778E+02  0.17770000000E+01 0.  1.
         15    1    3    3    0    0 -0.21339283944E+01  0.32092791473E+02 -0.83323607594E+02  0.89333544799E+02  0.17770000000E+01 0. -1.
</event>
<event>
 7    1  0.4412602E-007  0.1448228E+03  0.7546771E-02  0.1103161E+00
        -11   -1    0    0    0    0  0.00000000000E+00  0.00000000000E+00  0.18250000000E+03  0.18250000000E+03  0.00000000000E+00 0. -1.
         11   -1    0    0    0    0 -0.00000000000E+00 -0.00000000000E+00 -0.18250000000E+03  0.18250000000E+03  0.00000000000E+00 0. -1.
         23    2    1    2    0    0 -0.18227718671E+02 -0.44601636367E+01 -0.13020153092E+03  0.16039584431E+03  0.91772792434E+02 0.  0.
        -11    1    1    2    0    0 -0.29984772102E+02 -0.62220556280E+02  0.88777516419E+02  0.11248080549E+03  0.00000000000E+00 0. -1.
         11    1    1    2    0    0  0.48212490773E+02  0.66680719916E+02  0.41424014499E+02  0.92123350201E+02  0.00000000000E+00 0. -1.
        -15    1    3    3    0    0  0.17103838114E+02  0.34832701095E+02 -0.39444817314E+02  0.55361626473E+02  0.17770000000E+01 0.  1.
         15    1    3    3    0    0 -0.35331556785E+02 -0.39292864731E+02 -0.90756713603E+02  0.10503421784E+03  0.17770000000E+01 0. -1.
</event>
<event>
 7    1  0.4412602E-007  0.1259729E+03  0.7546771E-02  0.1125226E+00
        -11   -1    0    0    0    0  0.00000000000E+00  0.00000000000E+00  0.18250000000E+03  0.18250000000E+03  0.00000000000E+00 0.  1.
         11   -1    0    0    0    0 -0.00000000000E+00 -0.00000000000E+00 -0.18250000000E+03  0.18250000000E+03  0.00000000000E+00 0. -1.
         23    2    1    2    0    0 -0.51507735406E+02 -0.79628269038E+01 -0.21914396133E+02  0.10678818071E+03  0.90592612075E+02 0.  0.
        -11    1    1    2    0    0 -0.33450483706E+02  0.70170188142E+01  0.12213271212E+03  0.12682496908E+03  0.00000000000E+00 0.  1.
         11    1    1    2    0    0  0.84958219111E+02  0.94580808958E+00 -0.10021831599E+03  0.13138685021E+03  0.00000000000E+00 0. -1.
        -15    1    3    3    0    0 -0.58645782348E+02 -0.17979731441E+02 -0.47989986100E+02  0.77902471237E+02  0.17770000000E+01 0. -1.
         15    1    3    3    0    0  0.71380469426E+01  0.10016904537E+02  0.26075589967E+02  0.28885709473E+02  0.17770000000E+01 0.  1.
</event>
<event>
 7    1  0.4412602E-007  0.1501990E+03  0.7546771E-02  0.1097538E+00
        -11   -1    0    0    0    0  0.00000000000E+00  0.00000000000E+00  0.18250000000E+03  0.18250000000E+03  0.00000000000E+00 0. -1.
         11   -1    0    0    0    0 -0.00000000000E+00 -0.00000000000E+00 -0.18250000000E+03  0.18250000000E+03  0.00000000000E+00 0.  1.
         23    2    1    2    0    0  0.31819114592E+00 -0.11549589509E+02 -0.83236646135E+02  0.12784051390E+03  0.96339833247E+02 0.  0.
        -11    1    1    2    0    0  0.65977467127E+02  0.16810968331E+02 -0.52520150251E+02  0.85988377163E+02  0.00000000000E+00 0.  1.
         11    1    1    2    0    0 -0.66295658273E+02 -0.52613788223E+01  0.13575679639E+03  0.15117110894E+03  0.00000000000E+00 0. -1.
        -15    1    3    3    0    0  0.28286218575E+02 -0.34540012743E+01 -0.92839136734E+02  0.97130341936E+02  0.17770000000E+01 0. -1.
         15    1    3    3    0    0 -0.27968027429E+02 -0.80955882342E+01  0.96024905990E+01  0.30710171961E+02  0.17770000000E+01 0.  1.
</event>
<event>
 7    1  0.4412602E-007  0.1473195E+03  0.7546771E-02  0.1100517E+00
        -11   -1    0    0    0    0  0.00000000000E+00  0.00000000000E+00  0.18250000000E+03  0.18250000000E+03  0.00000000000E+00 0.  1.
         11   -1    0    0    0    0 -0.00000000000E+00 -0.00000000000E+00 -0.18250000000E+03  0.18250000000E+03  0.00000000000E+00 0.  1.
         23    2    1    2    0    0  0.62906139173E+01 -0.73032231829E+02 -0.86852571268E+02  0.14566743617E+03  0.91117254765E+02 0.  0.
        -11    1    1    2    0    0  0.44720778446E+02  0.11698445382E+02  0.12325998593E+03  0.13164279616E+03  0.00000000000E+00 0.  1.
         11    1    1    2    0    0 -0.51011392364E+02  0.61333786447E+02 -0.36407414664E+02  0.87689767666E+02  0.00000000000E+00 0.  1.
        -15    1    3    3    0    0 -0.26801388127E+01  0.17600303948E+02  0.25022823825E+01  0.18065796114E+02  0.17770000000E+01 0. -1.
         15    1    3    3    0    0  0.89707527300E+01 -0.90632535776E+02 -0.89354853650E+02  0.12760164006E+03  0.17770000000E+01 0.  1.
</event>
<event>
 7    1  0.4412602E-007  0.1654716E+03  0.7546771E-02  0.1082880E+00
        -11   -1    0    0    0    0  0.00000000000E+00  0.00000000000E+00  0.18250000000E+03  0.18250000000E+03  0.00000000000E+00 0.  1.
         11   -1    0    0    0    0 -0.00000000000E+00 -0.00000000000E+00 -0.18250000000E+03  0.18250000000E+03  0.00000000000E+00 0. -1.
         23    2    1    2    0    0 -0.12667130408E+03 -0.59956184843E+02  0.52590384804E+02  0.17518440276E+03  0.91013532058E+02 0.  0.
        -11    1    1    2    0    0  0.87570107570E+01  0.54575352980E+02  0.10061584210E+02  0.56181757423E+02  0.00000000000E+00 0.  1.
         11    1    1    2    0    0  0.11791429333E+03  0.53808318635E+01 -0.62651969014E+02  0.13363383982E+03  0.00000000000E+00 0. -1.
        -15    1    3    3    0    0 -0.99377417783E+02 -0.36652255269E+02 -0.63809009127E+01  0.10612790682E+03  0.17770000000E+01 0.  1.
         15    1    3    3    0    0 -0.27293886302E+02 -0.23303929575E+02  0.58971285716E+02  0.69056495937E+02  0.17770000000E+01 0. -1.
</event>
<event>
 7    1  0.4412602E-007  0.1703145E+03  0.7546771E-02  0.1078591E+00
        -11   -1    0    0    0    0  0.00000000000E+00  0.00000000000E+00  0.18250000000E+03  0.18250000000E+03  0.00000000000E+00 0.  1.
         11   -1    0    0    0    0 -0.00000000000E+00 -0.00000000000E+00 -0.18250000000E+03  0.18250000000E+03  0.00000000000E+00 0.  1.
         23    2    1    2    0    0  0.87274324114E+02  0.50500213060E+02  0.73542546911E+02  0.15430725216E+03  0.90747686993E+02 0.  0.
        -11    1    1    2    0    0  0.44826413012E+02  0.14202275307E+02 -0.18559946404E+01  0.47059076101E+02  0.00000000000E+00 0.  1.
         11    1    1    2    0    0 -0.13210073713E+03 -0.64702488367E+02 -0.71686552270E+02  0.16363367174E+03  0.00000000000E+00 0.  1.
        -15    1    3    3    0    0  0.29446764278E+01 -0.20344248030E+02 -0.20153791312E+01  0.20731112589E+02  0.17770000000E+01 0.  1.
         15    1    3    3    0    0  0.84329647687E+02  0.70844461090E+02  0.75557926042E+02  0.13357613957E+03  0.17770000000E+01 0. -1.
</event>
<event>
 7    1  0.4412602E-007  0.1625425E+03  0.7546771E-02  0.1085553E+00
        -11   -1    0    0    0    0  0.00000000000E+00  0.00000000000E+00  0.18250000000E+03  0.18250000000E+03  0.00000000000E+00 0. -1.
         11   -1    0    0    0    0 -0.00000000000E+00 -0.00000000000E+00 -0.18250000000E+03  0.18250000000E+03  0.00000000000E+00 0. -1.
         23    2    1    2    0    0 -0.21418125141E+02  0.19134381062E+02 -0.14848321482E+03  0.17757048257E+03  0.93054556982E+02 0.  0.
        -11    1    1    2    0    0 -0.22131565013E+02 -0.47278672534E+02  0.11335711171E+03  0.12479949448E+03  0.00000000000E+00 0. -1.
         11    1    1    2    0    0  0.43549690154E+02  0.28144291472E+02  0.35126103109E+02  0.62630022949E+02  0.00000000000E+00 0. -1.
        -15    1    3    3    0    0 -0.26842489933E+02 -0.24892223099E+02 -0.20257346564E+02  0.41876722119E+02  0.17770000000E+01 0.  1.
         15    1    3    3    0    0  0.54243647920E+01  0.44026604162E+02 -0.12822586825E+03  0.13569376045E+03  0.17770000000E+01 0. -1.
</event>
<event>
 7    1  0.4412602E-007  0.1410993E+03  0.7546771E-02  0.1107215E+00
        -11   -1    0    0    0    0  0.00000000000E+00  0.00000000000E+00  0.18250000000E+03  0.18250000000E+03  0.00000000000E+00 0. -1.
         11   -1    0    0    0    0 -0.00000000000E+00 -0.00000000000E+00 -0.18250000000E+03  0.18250000000E+03  0.00000000000E+00 0. -1.
         23    2    1    2    0    0 -0.11779548520E+02  0.91501849391E+02 -0.60087108775E+02  0.14186543901E+03  0.89465054292E+02 0.  0.
        -11    1    1    2    0    0 -0.74198768490E+02  0.11230446844E+01  0.62063966809E+02  0.96740138779E+02  0.00000000000E+00 0. -1.
         11    1    1    2    0    0  0.85978317010E+02 -0.92624894075E+02 -0.19768580344E+01  0.12639442221E+03  0.00000000000E+00 0. -1.
        -15    1    3    3    0    0 -0.15582036570E+02  0.78994172399E+02 -0.82858030237E+02  0.11554864794E+03  0.17770000000E+01 0. -1.
         15    1    3    3    0    0  0.38024880496E+01  0.12507676992E+02  0.22770921462E+02  0.26316791072E+02  0.17770000000E+01 0.  1.
</event>
<event>
 7    1  0.4412602E-007  0.1860397E+03  0.7546771E-02  0.1065672E+00
        -11   -1    0    0    0    0  0.00000000000E+00  0.00000000000E+00  0.18250000000E+03  0.18250000000E+03  0.00000000000E+00 0.  1.
         11   -1    0    0    0    0 -0.00000000000E+00 -0.00000000000E+00 -0.18250000000E+03  0.18250000000E+03  0.00000000000E+00 0. -1.
         23    2    1    2    0    0  0.42327717301E+02 -0.40316594893E+02  0.15052095073E+03  0.18568817433E+03  0.91686847481E+02 0.  0.
        -11    1    1    2    0    0  0.16160411018E+02  0.17482013898E+01 -0.37569047749E+01  0.16683207900E+02  0.00000000000E+00 0.  1.
         11    1    1    2    0    0 -0.58488128319E+02  0.38568393503E+02 -0.14676404596E+03  0.16262861777E+03  0.00000000000E+00 0. -1.
        -15    1    3    3    0    0  0.66923864987E+02 -0.83829818896E+01  0.10553828784E+03  0.12526198952E+03  0.17770000000E+01 0. -1.
         15    1    3    3    0    0 -0.24596147686E+02 -0.31933613004E+02  0.44982662894E+02  0.60426184808E+02  0.17770000000E+01 0.  1.
</event>
<event>
 7    1  0.4412602E-007  0.1474391E+03  0.7546771E-02  0.1100392E+00
        -11   -1    0    0    0    0  0.00000000000E+00  0.00000000000E+00  0.18250000000E+03  0.18250000000E+03  0.00000000000E+00 0.  1.
         11   -1    0    0    0    0 -0.00000000000E+00 -0.00000000000E+00 -0.18250000000E+03  0.18250000000E+03  0.00000000000E+00 0.  1.
         23    2    1    2    0    0 -0.26142450329E+02  0.83041401963E+02 -0.56304752157E+02  0.13888466061E+03  0.92408991384E+02 0.  0.
        -11    1    1    2    0    0  0.96966156476E+01  0.53197066027E+02  0.69722235358E+02  0.88233453362E+02  0.00000000000E+00 0.  1.
         11    1    1    2    0    0  0.16445834681E+02 -0.13623846799E+03 -0.13417483201E+02  0.13788188603E+03  0.00000000000E+00 0.  1.
        -15    1    3    3    0    0  0.57214165739E+01 -0.18882661829E+02 -0.12645256392E+02  0.23502122534E+02  0.17770000000E+01 0. -1.
         15    1    3    3    0    0 -0.31863866903E+02  0.10192406379E+03 -0.43659495765E+02  0.11538253808E+03  0.17770000000E+01 0.  1.
</event>
<event>
 7    1  0.4412602E-007  0.1391052E+03  0.7546771E-02  0.1109443E+00
        -11   -1    0    0    0    0  0.00000000000E+00  0.00000000000E+00  0.18250000000E+03  0.18250000000E+03  0.00000000000E+00 0.  1.
         11   -1    0    0    0    0 -0.00000000000E+00 -0.00000000000E+00 -0.18250000000E+03  0.18250000000E+03  0.00000000000E+00 0. -1.
         23    2    1    2    0    0 -0.49792313032E+02 -0.10510946582E+03 -0.89918231604E+01  0.14828360309E+03  0.91541792739E+02 0.  0.
        -11    1    1    2    0    0 -0.25395693909E+02  0.54757884646E+02  0.81038628358E+02  0.10104764463E+03  0.00000000000E+00 0.  1.
         11    1    1    2    0    0  0.75188006941E+02  0.50351581177E+02 -0.72046805198E+02  0.11566875228E+03  0.00000000000E+00 0. -1.
        -15    1    3    3    0    0 -0.76296682738E+02 -0.79371277669E+02  0.44669833857E+00  0.11011058434E+03  0.17770000000E+01 0.  1.
         15    1    3    3    0    0  0.26504369706E+02 -0.25738188154E+02 -0.94385214990E+01  0.38173018744E+02  0.17770000000E+01 0. -1.
</event>
<event>
 7    1  0.4412602E-007  0.1590032E+03  0.7546771E-02  0.1088867E+00
        -11   -1    0    0    0    0  0.00000000000E+00  0.00000000000E+00  0.18250000000E+03  0.18250000000E+03  0.00000000000E+00 0. -1.
         11   -1    0    0    0    0 -0.00000000000E+00 -0.00000000000E+00 -0.18250000000E+03  0.18250000000E+03  0.00000000000E+00 0.  1.
         23    2    1    2    0    0  0.67459973584E+02  0.31294675421E+02 -0.93199802435E+02  0.14341437362E+03  0.79694884663E+02 0.  0.
        -11    1    1    2    0    0 -0.74665045026E+02  0.77295561591E+01  0.14083248865E+03  0.15958823530E+03  0.00000000000E+00 0. -1.
         11    1    1    2    0    0  0.72050714413E+01 -0.39024231580E+02 -0.47632686213E+02  0.61997391080E+02  0.00000000000E+00 0.  1.
        -15    1    3    3    0    0  0.59362645589E+02  0.35724851108E+02 -0.23646951491E+02  0.73229261377E+02  0.17770000000E+01 0. -1.
         15    1    3    3    0    0  0.80973279952E+01 -0.44301756870E+01 -0.69552850944E+02  0.70185112244E+02  0.17770000000E+01 0.  1.
</event>
<event>
 7    1  0.4412602E-007  0.1620457E+03  0.7546771E-02  0.1086013E+00
        -11   -1    0    0    0    0  0.00000000000E+00  0.00000000000E+00  0.18250000000E+03  0.18250000000E+03  0.00000000000E+00 0.  1.
         11   -1    0    0    0    0 -0.00000000000E+00 -0.00000000000E+00 -0.18250000000E+03  0.18250000000E+03  0.00000000000E+00 0. -1.
         23    2    1    2    0    0 -0.36900189490E+02  0.11261593980E+01 -0.10027340559E+03  0.14143639108E+03  0.92663933827E+02 0.  0.
        -11    1    1    2    0    0  0.40187808778E+02 -0.40440674310E+02  0.14977767811E+03  0.16026185128E+03  0.00000000000E+00 0.  1.
         11    1    1    2    0    0 -0.32876192886E+01  0.39314514912E+02 -0.49504272523E+02  0.63301757648E+02  0.00000000000E+00 0. -1.
        -15    1    3    3    0    0  0.72816619717E+01  0.32985343915E+02 -0.87898974630E+01  0.34949614314E+02  0.17770000000E+01 0.  1.
         15    1    3    3    0    0 -0.44181851461E+02 -0.31859184517E+02 -0.91483508128E+02  0.10648677676E+03  0.17770000000E+01 0. -1.
</event>
<event>
 7    1  0.4412602E-007  0.1713091E+03  0.7546771E-02  0.1077729E+00
        -11   -1    0    0    0    0  0.00000000000E+00  0.00000000000E+00  0.18250000000E+03  0.18250000000E+03  0.00000000000E+00 0.  1.
         11   -1    0    0    0    0 -0.00000000000E+00 -0.00000000000E+00 -0.18250000000E+03  0.18250000000E+03  0.00000000000E+00 0.  1.
         23    2    1    2    0    0  0.14644918084E+02  0.11971579624E+03 -0.81089497531E+02  0.17212343630E+03  0.92220524934E+02 0.  0.
        -11    1    1    2    0    0 -0.18279323101E+02  0.20342448930E+02  0.36974937679E+02  0.45990160881E+02  0.00000000000E+00 0.  1.
         11    1    1    2    0    0  0.36344050165E+01 -0.14005824517E+03  0.44114559852E+02  0.14688640282E+03  0.00000000000E+00 0.  1.
        -15    1    3    3    0    0  0.32624611167E+02  0.12740726069E+03 -0.64881514004E+02  0.14666200571E+03  0.17770000000E+01 0.  1.
         15    1    3    3    0    0 -0.17979693083E+02 -0.76914644494E+01 -0.16207983528E+02  0.25461430591E+02  0.17770000000E+01 0. -1.
</event>
<event>
 7    1  0.4412602E-007  0.1354448E+03  0.7546771E-02  0.1113643E+00
        -11   -1    0    0    0    0  0.00000000000E+00  0.00000000000E+00  0.18250000000E+03  0.18250000000E+03  0.00000000000E+00 0.  1.
         11   -1    0    0    0    0 -0.00000000000E+00 -0.00000000000E+00 -0.18250000000E+03  0.18250000000E+03  0.00000000000E+00 0. -1.
         23    2    1    2    0    0 -0.39300585051E+02 -0.52941737668E+02 -0.38766803295E+02  0.11875017804E+03  0.90837085901E+02 0.  0.
        -11    1    1    2    0    0 -0.39639037756E+02  0.12187031963E+03  0.56333748808E+02  0.13998971168E+03  0.00000000000E+00 0.  1.
         11    1    1    2    0    0  0.78939622806E+02 -0.68928581967E+02 -0.17566945513E+02  0.10626011027E+03  0.00000000000E+00 0. -1.
        -15    1    3    3    0    0  0.14480310245E+02  0.11115049144E+02  0.11020728603E+02  0.21397146777E+02  0.17770000000E+01 0.  1.
         15    1    3    3    0    0 -0.53780895295E+02 -0.64056786811E+02 -0.49787531898E+02  0.97353031267E+02  0.17770000000E+01 0. -1.
</event>
<event>
 7    1  0.4412602E-007  0.1870875E+03  0.7546771E-02  0.1064861E+00
        -11   -1    0    0    0    0  0.00000000000E+00  0.00000000000E+00  0.18250000000E+03  0.18250000000E+03  0.00000000000E+00 0.  1.
         11   -1    0    0    0    0 -0.00000000000E+00 -0.00000000000E+00 -0.18250000000E+03  0.18250000000E+03  0.00000000000E+00 0. -1.
         23    2    1    2    0    0 -0.12430407999E+02  0.27715530945E+02 -0.15920291774E+03  0.18708746042E+03  0.93453106584E+02 0.  0.
        -11    1    1    2    0    0  0.30195260544E+02  0.99976526693E+01  0.36988464450E+02  0.48783740330E+02  0.00000000000E+00 0. -1.
         11    1    1    2    0    0 -0.17764852544E+02 -0.37713183615E+02  0.12221445329E+03  0.12912879925E+03  0.00000000000E+00 0.  1.
        -15    1    3    3    0    0  0.40434094203E+01 -0.27218119758E+02 -0.13928419896E+02  0.30892293743E+02  0.17770000000E+01 0.  1.
         15    1    3    3    0    0 -0.16473817420E+02  0.54933650703E+02 -0.14527449784E+03  0.15619516667E+03  0.17770000000E+01 0. -1.
</event>
<event>
 6    1  0.4412602E-007  0.1128804E+03  0.7546771E-02  0.1143235E+00
        -11   -1    0    0    0    0  0.00000000000E+00  0.00000000000E+00  0.18250000000E+03  0.18250000000E+03  0.00000000000E+00 0. -1.
         11   -1    0    0    0    0 -0.00000000000E+00 -0.00000000000E+00 -0.18250000000E+03  0.18250000000E+03  0.00000000000E+00 0. -1.
        -11    1    1    2    0    0 -0.40704837678E+02 -0.69411414943E+02  0.87840419826E+02  0.11912500867E+03  0.00000000000E+00 0. -1.
         11    1    1    2    0    0  0.44983549085E+02  0.13277766675E+02 -0.42477515677E+01  0.47094184030E+02  0.00000000000E+00 0. -1.
        -15    1    1    2    0    0 -0.56459694218E+02  0.28281469002E+02 -0.11542899737E+03  0.13158476250E+03  0.17770000000E+01 0.  1.
         15    1    1    2    0    0  0.52180982811E+02  0.27852179266E+02  0.31836329108E+02  0.67196044802E+02  0.17770000000E+01 0. -1.
</event>
<event>
 7    1  0.4412602E-007  0.1597487E+03  0.7546771E-02  0.1088161E+00
        -11   -1    0    0    0    0  0.00000000000E+00  0.00000000000E+00  0.18250000000E+03  0.18250000000E+03  0.00000000000E+00 0.  1.
         11   -1    0    0    0    0 -0.00000000000E+00 -0.00000000000E+00 -0.18250000000E+03  0.18250000000E+03  0.00000000000E+00 0. -1.
         23    2    1    2    0    0 -0.30497063879E+02  0.87688319027E+02 -0.11203193395E+03  0.17143436671E+03  0.90660220956E+02 0.  0.
        -11    1    1    2    0    0 -0.28413921742E+02 -0.57392372765E+02  0.11000694843E+03  0.12729007858E+03  0.00000000000E+00 0.  1.
         11    1    1    2    0    0  0.58910985621E+02 -0.30295946261E+02  0.20249855207E+01  0.66275554717E+02  0.00000000000E+00 0. -1.
        -15    1    3    3    0    0 -0.33085739492E+01  0.29945548010E+02  0.11564928565E+02  0.32320083678E+02  0.17770000000E+01 0.  1.
         15    1    3    3    0    0 -0.27188489930E+02  0.57742771016E+02 -0.12359686252E+03  0.13911428303E+03  0.17770000000E+01 0. -1.
</event>
<event>
 7    1  0.4412602E-007  0.1553976E+03  0.7546771E-02  0.1092342E+00
        -11   -1    0    0    0    0  0.00000000000E+00  0.00000000000E+00  0.18250000000E+03  0.18250000000E+03  0.00000000000E+00 0. -1.
         11   -1    0    0    0    0 -0.00000000000E+00 -0.00000000000E+00 -0.18250000000E+03  0.18250000000E+03  0.00000000000E+00 0. -1.
         23    2    1    2    0    0 -0.83721163814E+02  0.24718307796E+02 -0.11262567394E+03  0.16840054913E+03  0.89743938546E+02 0.  0.
        -11    1    1    2    0    0 -0.29245175112E+02 -0.61614651922E+01  0.66996853024E+02  0.73360904000E+02  0.00000000000E+00 0. -1.
         11    1    1    2    0    0  0.11296633893E+03 -0.18556842603E+02  0.45628820913E+02  0.12323854687E+03  0.00000000000E+00 0. -1.
        -15    1    3    3    0    0 -0.95668299223E+02  0.18397175380E+02 -0.11862011804E+03  0.15350820718E+03  0.17770000000E+01 0. -1.
         15    1    3    3    0    0  0.11947135409E+02  0.63211324156E+01  0.59944441059E+01  0.14892341946E+02  0.17770000000E+01 0.  1.
</event>
<event>
 7    1  0.4412602E-007  0.1794283E+03  0.7546771E-02  0.1070926E+00
        -11   -1    0    0    0    0  0.00000000000E+00  0.00000000000E+00  0.18250000000E+03  0.18250000000E+03  0.00000000000E+00 0.  1.
         11   -1    0    0    0    0 -0.00000000000E+00 -0.00000000000E+00 -0.18250000000E+03  0.18250000000E+03  0.00000000000E+00 0. -1.
         23    2    1    2    0    0 -0.34655281153E+02  0.71261502263E+01  0.13750214467E+03  0.16849752519E+03  0.90734809640E+02 0.  0.
        -11    1    1    2    0    0  0.86150948648E+01  0.91118328304E+01  0.26678385936E+02  0.29478494419E+02  0.00000000000E+00 0.  1.
         11    1    1    2    0    0  0.26040186289E+02 -0.16237983057E+02 -0.16418053060E+03  0.16702398039E+03  0.00000000000E+00 0. -1.
        -15    1    3    3    0    0 -0.48744222663E+02  0.35508938953E+02  0.61584350373E+02  0.86212956848E+02  0.17770000000E+01 0. -1.
         15    1    3    3    0    0  0.14088941510E+02 -0.28382788727E+02  0.75917794292E+02  0.82284568347E+02  0.17770000000E+01 0.  1.
</event>
<event>
 7    1  0.4412602E-007  0.2143877E+03  0.7546771E-02  0.1045572E+00
        -11   -1    0    0    0    0  0.00000000000E+00  0.00000000000E+00  0.18250000000E+03  0.18250000000E+03  0.00000000000E+00 0. -1.
         11   -1    0    0    0    0 -0.00000000000E+00 -0.00000000000E+00 -0.18250000000E+03  0.18250000000E+03  0.00000000000E+00 0. -1.
         23    2    1    2    0    0  0.45931556070E+02 -0.22366308198E+02  0.40118431168E+02  0.11133679611E+03  0.90423636644E+02 0.  0.
        -11    1    1    2    0    0 -0.14307887771E+02 -0.29551325496E+02  0.97680571742E+02  0.10305091260E+03  0.00000000000E+00 0. -1.
         11    1    1    2    0    0 -0.31623668299E+02  0.51917633695E+02 -0.13779900291E+03  0.15061229129E+03  0.00000000000E+00 0. -1.
        -15    1    3    3    0    0  0.43310473247E+02 -0.55521883598E+02  0.29639627521E+02  0.76420821114E+02  0.17770000000E+01 0. -1.
         15    1    3    3    0    0  0.26210828228E+01  0.33155575400E+02  0.10478803647E+02  0.34915974999E+02  0.17770000000E+01 0.  1.
</event>
<event>
 7    1  0.4412602E-007  0.1582916E+03  0.7546771E-02  0.1089545E+00
        -11   -1    0    0    0    0  0.00000000000E+00  0.00000000000E+00  0.18250000000E+03  0.18250000000E+03  0.00000000000E+00 0. -1.
         11   -1    0    0    0    0 -0.00000000000E+00 -0.00000000000E+00 -0.18250000000E+03  0.18250000000E+03  0.00000000000E+00 0. -1.
         23    2    1    2    0    0  0.12650220291E+02  0.31741709034E+02 -0.14388138692E+03  0.17418665091E+03  0.92041141282E+02 0.  0.
        -11    1    1    2    0    0  0.16165038019E+02 -0.72755966632E+02  0.95581977129E+02  0.12120500603E+03  0.00000000000E+00 0. -1.
         11    1    1    2    0    0 -0.28815258310E+02  0.41014257598E+02  0.48299409787E+02  0.69608343060E+02  0.00000000000E+00 0. -1.
        -15    1    3    3    0    0  0.50662661606E+02  0.31364624343E+02 -0.78994540543E+02  0.98963327075E+02  0.17770000000E+01 0.  1.
         15    1    3    3    0    0 -0.38012441314E+02  0.37708469123E+00 -0.64886846373E+02  0.75223323835E+02  0.17770000000E+01 0. -1.
</event>
<event>
 7    1  0.4412602E-007  0.2133305E+03  0.7546771E-02  0.1046260E+00
        -11   -1    0    0    0    0  0.00000000000E+00  0.00000000000E+00  0.18250000000E+03  0.18250000000E+03  0.00000000000E+00 0. -1.
         11   -1    0    0    0    0 -0.00000000000E+00 -0.00000000000E+00 -0.18250000000E+03  0.18250000000E+03  0.00000000000E+00 0.  1.
         23    2    1    2    0    0  0.22794554934E+01 -0.11915457367E+02 -0.69121039543E+02  0.11412238984E+03  0.89994598244E+02 0.  0.
        -11    1    1    2    0    0 -0.17192931611E+02 -0.55970108166E+02  0.13991212344E+03  0.15166954932E+03  0.00000000000E+00 0. -1.
         11    1    1    2    0    0  0.14913476118E+02  0.67885565533E+02 -0.70791083894E+02  0.99208060845E+02  0.00000000000E+00 0.  1.
        -15    1    3    3    0    0  0.35513380814E+02 -0.71205014950E+01 -0.71751229024E+02  0.80394641325E+02  0.17770000000E+01 0.  1.
         15    1    3    3    0    0 -0.33233925320E+02 -0.47949558719E+01  0.26301894811E+01  0.33727748512E+02  0.17770000000E+01 0. -1.
</event>
<event>
 7    1  0.4412602E-007  0.1876862E+03  0.7546771E-02  0.1064400E+00
        -11   -1    0    0    0    0  0.00000000000E+00  0.00000000000E+00  0.18250000000E+03  0.18250000000E+03  0.00000000000E+00 0. -1.
         11   -1    0    0    0    0 -0.00000000000E+00 -0.00000000000E+00 -0.18250000000E+03  0.18250000000E+03  0.00000000000E+00 0.  1.
         23    2    1    2    0    0  0.23990140240E+02 -0.43458601916E+02 -0.15914904154E+03  0.18999587124E+03  0.91136363533E+02 0.  0.
        -11    1    1    2    0    0 -0.19984021840E+02  0.53308965152E+02  0.15167135709E+03  0.16200434394E+03  0.00000000000E+00 0. -1.
         11    1    1    2    0    0 -0.40061183999E+01 -0.98503632355E+01  0.74776844512E+01  0.12999784816E+02  0.00000000000E+00 0.  1.
        -15    1    3    3    0    0  0.54009954858E+02 -0.26703680073E+02 -0.13529210953E+03  0.14811237080E+03  0.17770000000E+01 0.  1.
         15    1    3    3    0    0 -0.30019814618E+02 -0.16754921843E+02 -0.23856932004E+02  0.41883500443E+02  0.17770000000E+01 0. -1.
</event>
<event>
 7    1  0.4412602E-007  0.1467915E+03  0.7546771E-02  0.1101071E+00
        -11   -1    0    0    0    0  0.00000000000E+00  0.00000000000E+00  0.18250000000E+03  0.18250000000E+03  0.00000000000E+00 0. -1.
         11   -1    0    0    0    0 -0.00000000000E+00 -0.00000000000E+00 -0.18250000000E+03  0.18250000000E+03  0.00000000000E+00 0. -1.
         23    2    1    2    0    0 -0.92630907515E+01  0.10566010162E+02 -0.91615843275E+02  0.13071229196E+03  0.92167212769E+02 0.  0.
        -11    1    1    2    0    0 -0.72713301513E+02 -0.26685202451E+02  0.12273705701E+03  0.14513341934E+03  0.00000000000E+00 0. -1.
         11    1    1    2    0    0  0.81976392264E+02  0.16119192289E+02 -0.31121213735E+02  0.89154288697E+02  0.00000000000E+00 0. -1.
        -15    1    3    3    0    0  0.19230395343E+02  0.44669899041E+02 -0.50738398236E+02  0.70304699487E+02  0.17770000000E+01 0. -1.
         15    1    3    3    0    0 -0.28493486095E+02 -0.34103888879E+02 -0.40877445039E+02  0.60407592474E+02  0.17770000000E+01 0.  1.
</event>
<event>
 7    1  0.4412602E-007  0.1254605E+03  0.7546771E-02  0.1125884E+00
        -11   -1    0    0    0    0  0.00000000000E+00  0.00000000000E+00  0.18250000000E+03  0.18250000000E+03  0.00000000000E+00 0.  1.
         11   -1    0    0    0    0 -0.00000000000E+00 -0.00000000000E+00 -0.18250000000E+03  0.18250000000E+03  0.00000000000E+00 0. -1.
         23    2    1    2    0    0 -0.53336786247E+02 -0.23401917700E+02  0.17395145571E+01  0.10740170342E+03  0.90219939417E+02 0.  0.
        -11    1    1    2    0    0  0.76600519722E+01  0.77988034161E+02  0.10394891961E+03  0.13017752401E+03  0.00000000000E+00 0.  1.
         11    1    1    2    0    0  0.45676734275E+02 -0.54586116461E+02 -0.10568843417E+03  0.12742077257E+03  0.00000000000E+00 0. -1.
        -15    1    3    3    0    0 -0.72708300430E+02 -0.48057940373E+01 -0.16702113612E+02  0.74777743586E+02  0.17770000000E+01 0.  1.
         15    1    3    3    0    0  0.19371514183E+02 -0.18596123662E+02  0.18441628169E+02  0.32623959838E+02  0.17770000000E+01 0. -1.
</event>
<event>
 7    1  0.4412602E-007  0.1773220E+03  0.7546771E-02  0.1072653E+00
        -11   -1    0    0    0    0  0.00000000000E+00  0.00000000000E+00  0.18250000000E+03  0.18250000000E+03  0.00000000000E+00 0.  1.
         11   -1    0    0    0    0 -0.00000000000E+00 -0.00000000000E+00 -0.18250000000E+03  0.18250000000E+03  0.00000000000E+00 0. -1.
         23    2    1    2    0    0 -0.78478868497E+02 -0.50433308908E+02  0.11415880960E+03  0.17169690603E+03  0.88006490004E+02 0.  0.
        -11    1    1    2    0    0 -0.26158937663E+02  0.18289209504E+02  0.40746865523E+01  0.32177449781E+02  0.00000000000E+00 0.  1.
         11    1    1    2    0    0  0.10463780616E+03  0.32144099405E+02 -0.11823349615E+03  0.16112564419E+03  0.00000000000E+00 0. -1.
        -15    1    3    3    0    0 -0.74796510184E+02 -0.55525935721E+02  0.47244379326E+02  0.10446452307E+03  0.17770000000E+01 0.  1.
         15    1    3    3    0    0 -0.36823583128E+01  0.50926268132E+01  0.66914430271E+02  0.67232382957E+02  0.17770000000E+01 0. -1.
</event>
<event>
 7    1  0.4412602E-007  0.1519964E+03  0.7546771E-02  0.1095716E+00
        -11   -1    0    0    0    0  0.00000000000E+00  0.00000000000E+00  0.18250000000E+03  0.18250000000E+03  0.00000000000E+00 0. -1.
         11   -1    0    0    0    0 -0.00000000000E+00 -0.00000000000E+00 -0.18250000000E+03  0.18250000000E+03  0.00000000000E+00 0. -1.
         23    2    1    2    0    0  0.41052728147E+02  0.61745319355E+02 -0.10162491026E+03  0.16034510329E+03  0.99423934803E+02 0.  0.
        -11    1    1    2    0    0  0.22716626574E+02 -0.79928176113E+01  0.11733979857E+03  0.11978546900E+03  0.00000000000E+00 0. -1.
         11    1    1    2    0    0 -0.63769354722E+02 -0.53752501743E+02 -0.15714888308E+02  0.84869427710E+02  0.00000000000E+00 0. -1.
        -15    1    3    3    0    0 -0.21310092923E+02  0.35364845856E+01  0.64810572033E+01  0.22622745525E+02  0.17770000000E+01 0.  1.
         15    1    3    3    0    0  0.62362821070E+02  0.58208834769E+02 -0.10810596746E+03  0.13772235776E+03  0.17770000000E+01 0. -1.
</event>
<event>
 7    1  0.4412602E-007  0.1509723E+03  0.7546771E-02  0.1096751E+00
        -11   -1    0    0    0    0  0.00000000000E+00  0.00000000000E+00  0.18250000000E+03  0.18250000000E+03  0.00000000000E+00 0. -1.
         11   -1    0    0    0    0 -0.00000000000E+00 -0.00000000000E+00 -0.18250000000E+03  0.18250000000E+03  0.00000000000E+00 0.  1.
         23    2    1    2    0    0 -0.17357814484E+02 -0.20450195666E+02  0.77084443228E+02  0.12407506392E+03  0.93451088130E+02 0.  0.
        -11    1    1    2    0    0  0.25117721069E+02 -0.21399151237E+01  0.79050948158E+02  0.82973077278E+02  0.00000000000E+00 0. -1.
         11    1    1    2    0    0 -0.77599065847E+01  0.22590110790E+02 -0.15613539139E+03  0.15795185880E+03  0.00000000000E+00 0.  1.
        -15    1    3    3    0    0 -0.21511563469E+02 -0.68224316253E+01  0.96953762588E+02  0.99561452105E+02  0.17770000000E+01 0. -1.
         15    1    3    3    0    0  0.41537489851E+01 -0.13627764041E+02 -0.19869319361E+02  0.24513611815E+02  0.17770000000E+01 0.  1.
</event>
<event>
 7    1  0.4412602E-007  0.1541156E+03  0.7546771E-02  0.1093602E+00
        -11   -1    0    0    0    0  0.00000000000E+00  0.00000000000E+00  0.18250000000E+03  0.18250000000E+03  0.00000000000E+00 0.  1.
         11   -1    0    0    0    0 -0.00000000000E+00 -0.00000000000E+00 -0.18250000000E+03  0.18250000000E+03  0.00000000000E+00 0. -1.
         23    2    1    2    0    0 -0.85442573892E+02 -0.14480940682E+02  0.60513618286E+02  0.14014529922E+03  0.92025408552E+02 0.  0.
        -11    1    1    2    0    0  0.19733493484E+02  0.17803463499E+02  0.72086168701E+02  0.76829615355E+02  0.00000000000E+00 0.  1.
         11    1    1    2    0    0  0.65709080409E+02 -0.33225228167E+01 -0.13259978699E+03  0.14802508542E+03  0.00000000000E+00 0. -1.
        -15    1    3    3    0    0 -0.13844600589E+02 -0.29850231002E+02  0.58172487260E+02  0.66857350078E+02  0.17770000000E+01 0.  1.
         15    1    3    3    0    0 -0.71597973303E+02  0.15369290320E+02  0.23411310255E+01  0.73287949143E+02  0.17770000000E+01 0. -1.
</event>
<event>
 7    1  0.4412602E-007  0.1501409E+03  0.7546771E-02  0.1097597E+00
        -11   -1    0    0    0    0  0.00000000000E+00  0.00000000000E+00  0.18250000000E+03  0.18250000000E+03  0.00000000000E+00 0.  1.
         11   -1    0    0    0    0 -0.00000000000E+00 -0.00000000000E+00 -0.18250000000E+03  0.18250000000E+03  0.00000000000E+00 0.  1.
         23    2    1    2    0    0  0.18794948150E+02  0.72895711559E+02  0.82885726782E+02  0.13673938335E+03  0.78489364985E+02 0.  0.
        -11    1    1    2    0    0 -0.14494240882E+02 -0.38140893975E+02  0.64747143558E+02  0.76531061739E+02  0.00000000000E+00 0.  1.
         11    1    1    2    0    0 -0.43007072682E+01 -0.34754817584E+02 -0.14763287034E+03  0.15172955491E+03  0.00000000000E+00 0.  1.
        -15    1    3    3    0    0  0.73910019262E+01  0.32902423779E+02 -0.97775517699E+01  0.35156146655E+02  0.17770000000E+01 0. -1.
         15    1    3    3    0    0  0.11403946224E+02  0.39993287780E+02  0.92663278552E+02  0.10158323670E+03  0.17770000000E+01 0.  1.
</event>
<event>
 7    1  0.4412602E-007  0.1278600E+03  0.7546771E-02  0.1122830E+00
        -11   -1    0    0    0    0  0.00000000000E+00  0.00000000000E+00  0.18250000000E+03  0.18250000000E+03  0.00000000000E+00 0. -1.
         11   -1    0    0    0    0 -0.00000000000E+00 -0.00000000000E+00 -0.18250000000E+03  0.18250000000E+03  0.00000000000E+00 0.  1.
         23    2    1    2    0    0 -0.11778051248E+02 -0.19850196428E+02 -0.43142185157E+02  0.10464125004E+03  0.92497514998E+02 0.  0.
        -11    1    1    2    0    0  0.18736064653E+02 -0.47904367446E+02  0.13588342753E+03  0.14529340803E+03  0.00000000000E+00 0. -1.
         11    1    1    2    0    0 -0.69580134058E+01  0.67754563874E+02 -0.92741242374E+02  0.11506534193E+03  0.00000000000E+00 0.  1.
        -15    1    3    3    0    0 -0.11797542154E+01  0.29938811076E+02  0.94102539427E+01  0.31455283132E+02  0.17770000000E+01 0. -1.
         15    1    3    3    0    0 -0.10598297032E+02 -0.49789007504E+02 -0.52552439099E+02  0.73185966910E+02  0.17770000000E+01 0.  1.
</event>
<event>
 7    1  0.4412602E-007  0.1294413E+03  0.7546771E-02  0.1120858E+00
        -11   -1    0    0    0    0  0.00000000000E+00  0.00000000000E+00  0.18250000000E+03  0.18250000000E+03  0.00000000000E+00 0. -1.
         11   -1    0    0    0    0 -0.00000000000E+00 -0.00000000000E+00 -0.18250000000E+03  0.18250000000E+03  0.00000000000E+00 0. -1.
         23    2    1    2    0    0 -0.24554157283E+02 -0.15308507666E+02 -0.66964886826E+02  0.11697831491E+03  0.91446011640E+02 0.  0.
        -11    1    1    2    0    0 -0.76557988812E+02 -0.68990409128E+02  0.52286720556E+02  0.11556255167E+03  0.00000000000E+00 0. -1.
         11    1    1    2    0    0  0.10111214609E+03  0.84298916795E+02  0.14678166270E+02  0.13245913342E+03  0.00000000000E+00 0. -1.
        -15    1    3    3    0    0 -0.52797399856E+02 -0.32890746102E+02 -0.38650863891E+02  0.73255809457E+02  0.17770000000E+01 0.  1.
         15    1    3    3    0    0  0.28243242572E+02  0.17582238435E+02 -0.28314022935E+02  0.43722505454E+02  0.17770000000E+01 0. -1.
</event>
<event>
 7    1  0.4412602E-007  0.1795067E+03  0.7546771E-02  0.1070863E+00
        -11   -1    0    0    0    0  0.00000000000E+00  0.00000000000E+00  0.18250000000E+03  0.18250000000E+03  0.00000000000E+00 0.  1.
         11   -1    0    0    0    0 -0.00000000000E+00 -0.00000000000E+00 -0.18250000000E+03  0.18250000000E+03  0.00000000000E+00 0. -1.
         23    2    1    2    0    0 -0.11513326868E+02 -0.13065119369E+02 -0.15585260686E+03  0.18548652856E+03  0.99055354073E+02 0.  0.
        -11    1    1    2    0    0  0.14457793394E+02  0.42182292991E+02  0.13847457810E+03  0.14547708552E+03  0.00000000000E+00 0.  1.
         11    1    1    2    0    0 -0.29444665262E+01 -0.29117173623E+02  0.17378028765E+02  0.34036385923E+02  0.00000000000E+00 0. -1.
        -15    1    3    3    0    0  0.20008536459E+02 -0.26779471702E+02 -0.14584753341E+03  0.14964004266E+03  0.17770000000E+01 0. -1.
         15    1    3    3    0    0 -0.31521863327E+02  0.13714352333E+02 -0.10005073453E+02  0.35846485900E+02  0.17770000000E+01 0.  1.
</event>
<event>
 7    1  0.4412602E-007  0.1639042E+03  0.7546771E-02  0.1084303E+00
        -11   -1    0    0    0    0  0.00000000000E+00  0.00000000000E+00  0.18250000000E+03  0.18250000000E+03  0.00000000000E+00 0. -1.
         11   -1    0    0    0    0 -0.00000000000E+00 -0.00000000000E+00 -0.18250000000E+03  0.18250000000E+03  0.00000000000E+00 0.  1.
         23    2    1    2    0    0  0.81670541567E+02  0.80792966296E+01 -0.10022039718E+03  0.15848344291E+03  0.91310028322E+02 0.  0.
        -11    1    1    2    0    0 -0.45040190083E+02 -0.39361342003E+02  0.13462924993E+03  0.14731927539E+03  0.00000000000E+00 0. -1.
         11    1    1    2    0    0 -0.36630351484E+02  0.31282045373E+02 -0.34408852743E+02  0.59197281691E+02  0.00000000000E+00 0.  1.
        -15    1    3    3    0    0  0.86373025999E+02 -0.31623416344E+01 -0.11197242103E+03  0.14146123436E+03  0.17770000000E+01 0.  1.
         15    1    3    3    0    0 -0.47024844323E+01  0.11241638264E+02  0.11752023847E+02  0.17022208558E+02  0.17770000000E+01 0. -1.
</event>
<event>
 7    1  0.4412602E-007  0.1455726E+03  0.7546771E-02  0.1102361E+00
        -11   -1    0    0    0    0  0.00000000000E+00  0.00000000000E+00  0.18250000000E+03  0.18250000000E+03  0.00000000000E+00 0. -1.
         11   -1    0    0    0    0 -0.00000000000E+00 -0.00000000000E+00 -0.18250000000E+03  0.18250000000E+03  0.00000000000E+00 0. -1.
         23    2    1    2    0    0  0.35221852126E+02  0.14995797914E+02 -0.12660571084E+03  0.16176372971E+03  0.93129186675E+02 0.  0.
        -11    1    1    2    0    0 -0.86991123920E+02 -0.70746219114E+01  0.28128619115E+02  0.91699101028E+02  0.00000000000E+00 0. -1.
         11    1    1    2    0    0  0.51769271795E+02 -0.79211760027E+01  0.98477091726E+02  0.11153716926E+03  0.00000000000E+00 0. -1.
        -15    1    3    3    0    0 -0.15686169660E+02  0.40665212381E+02 -0.56722499077E+02  0.71556376705E+02  0.17770000000E+01 0.  1.
         15    1    3    3    0    0  0.50908021786E+02 -0.25669414467E+02 -0.69883211764E+02  0.90207353008E+02  0.17770000000E+01 0. -1.
</event>
