<event>
 7    1  0.9742770E-004  0.1468439E+03  0.7546771E-02  0.1101016E+00
        -11   -1    0    0    0    0  0.00000000000E+00  0.00000000000E+00  0.18250000000E+03  0.18250000000E+03  0.00000000000E+00 0. -1.
         11   -1    0    0    0    0 -0.00000000000E+00 -0.00000000000E+00 -0.18250000000E+03  0.18250000000E+03  0.00000000000E+00 0.  1.
         23    2    1    2    0    0 -0.18198177371E+02 -0.27911815513E+02  0.70021582344E+02  0.12114181972E+03  0.93070271231E+02 0.  0.
        -11    1    1    2    0    0  0.38585876410E+02 -0.57607282172E+02  0.56740197456E+02  0.89593073532E+02  0.00000000000E+00 0. -1.
         11    1    1    2    0    0 -0.20387699040E+02  0.85519097685E+02 -0.12676177980E+03  0.15426510674E+03  0.00000000000E+00 0.  1.
        -15    1    3    3    0    0 -0.29682787163E+02  0.20551338351E+02  0.60391858371E+02  0.70382949983E+02  0.17770000000E+01 0. -1.
         15    1    3    3    0    0  0.11484609792E+02 -0.48463153864E+02  0.96297239732E+01  0.50758869740E+02  0.17770000000E+01 0.  1.
</event>
<event>
 7    1  0.9742770E-004  0.1459986E+03  0.7546771E-02  0.1101908E+00
        -11   -1    0    0    0    0  0.00000000000E+00  0.00000000000E+00  0.18250000000E+03  0.18250000000E+03  0.00000000000E+00 0. -1.
         11   -1    0    0    0    0 -0.00000000000E+00 -0.00000000000E+00 -0.18250000000E+03  0.18250000000E+03  0.00000000000E+00 0.  1.
         23    2    1    2    0    0 -0.13223738579E+02 -0.44640049593E+02 -0.59061146001E+02  0.11917992607E+03  0.92455581346E+02 0.  0.
        -11    1    1    2    0    0  0.29598743396E+02  0.36827642772E+02  0.14783993881E+03  0.15520634133E+03  0.00000000000E+00 0. -1.
         11    1    1    2    0    0 -0.16375004817E+02  0.78124068201E+01 -0.88778792806E+02  0.90613732597E+02  0.00000000000E+00 0.  1.
        -15    1    3    3    0    0  0.17088150174E+02  0.17558851215E+02 -0.40753556828E+02  0.47584958290E+02  0.17770000000E+01 0. -1.
         15    1    3    3    0    0 -0.30311888754E+02 -0.62198900807E+02 -0.18307589173E+02  0.71594967782E+02  0.17770000000E+01 0.  1.
</event>
<event>
 7    1  0.9742770E-004  0.1803683E+03  0.7546771E-02  0.1070164E+00
        -11   -1    0    0    0    0  0.00000000000E+00  0.00000000000E+00  0.18250000000E+03  0.18250000000E+03  0.00000000000E+00 0.  1.
         11   -1    0    0    0    0 -0.00000000000E+00 -0.00000000000E+00 -0.18250000000E+03  0.18250000000E+03  0.00000000000E+00 0. -1.
         23    2    1    2    0    0  0.70518691288E+02 -0.86945292955E+02 -0.11372385724E+03  0.18392438145E+03  0.91447758851E+02 0.  0.
        -11    1    1    2    0    0 -0.89422845043E+02  0.69169777918E+02  0.10320572455E+03  0.15307620642E+03  0.00000000000E+00 0.  1.
         11    1    1    2    0    0  0.18904153756E+02  0.17775515037E+02  0.10518132690E+02  0.27999412125E+02  0.00000000000E+00 0. -1.
        -15    1    3    3    0    0 -0.21802714239E+02 -0.11114411989E+02 -0.25577896190E+02  0.35443969932E+02  0.17770000000E+01 0.  1.
         15    1    3    3    0    0  0.92321405527E+02 -0.75830880967E+02 -0.88145961051E+02  0.14848041152E+03  0.17770000000E+01 0. -1.
</event>
<event>
 7    1  0.9742770E-004  0.1276058E+03  0.7546771E-02  0.1123150E+00
        -11   -1    0    0    0    0  0.00000000000E+00  0.00000000000E+00  0.18250000000E+03  0.18250000000E+03  0.00000000000E+00 0.  1.
         11   -1    0    0    0    0 -0.00000000000E+00 -0.00000000000E+00 -0.18250000000E+03  0.18250000000E+03  0.00000000000E+00 0. -1.
         23    2    1    2    0    0 -0.10451265548E+02 -0.61829044423E+02 -0.17873935062E+02  0.10159066248E+03  0.77904592057E+02 0.  0.
        -11    1    1    2    0    0  0.15741568427E+02  0.68974081612E+02  0.13155998160E+03  0.14937620181E+03  0.00000000000E+00 0.  1.
         11    1    1    2    0    0 -0.52903028786E+01 -0.71450371897E+01 -0.11368604654E+03  0.11403313570E+03  0.00000000000E+00 0. -1.
        -15    1    3    3    0    0  0.22600762234E+02  0.37863589335E+01 -0.16128211825E+02  0.28078602408E+02  0.17770000000E+01 0.  1.
         15    1    3    3    0    0 -0.33052027782E+02 -0.65615403356E+02 -0.17457232372E+01  0.73512060077E+02  0.17770000000E+01 0. -1.
</event>
<event>
 7    1  0.9742770E-004  0.1934247E+03  0.7546771E-02  0.1060077E+00
        -11   -1    0    0    0    0  0.00000000000E+00  0.00000000000E+00  0.18250000000E+03  0.18250000000E+03  0.00000000000E+00 0. -1.
         11   -1    0    0    0    0 -0.00000000000E+00 -0.00000000000E+00 -0.18250000000E+03  0.18250000000E+03  0.00000000000E+00 0.  1.
         23    2    1    2    0    0  0.22415261414E+01 -0.53958036967E+01  0.17033687559E+03  0.19342467763E+03  0.91456632308E+02 0.  0.
        -11    1    1    2    0    0 -0.35867415039E+01  0.22850705164E+01 -0.69135722410E+01  0.81168801280E+01  0.00000000000E+00 0. -1.
         11    1    1    2    0    0  0.13452153625E+01  0.31107331803E+01 -0.16342330335E+03  0.16345844225E+03  0.00000000000E+00 0.  1.
        -15    1    3    3    0    0  0.20748998693E+02  0.62754831196E+01  0.17008593765E+03  0.17147094958E+03  0.17770000000E+01 0. -1.
         15    1    3    3    0    0 -0.18507472552E+02 -0.11671286816E+02  0.25093793675E+00  0.21953728044E+02  0.17770000000E+01 0.  1.
</event>
<event>
 7    1  0.9742770E-004  0.1476643E+03  0.7546771E-02  0.1100156E+00
        -11   -1    0    0    0    0  0.00000000000E+00  0.00000000000E+00  0.18250000000E+03  0.18250000000E+03  0.00000000000E+00 0. -1.
         11   -1    0    0    0    0 -0.00000000000E+00 -0.00000000000E+00 -0.18250000000E+03  0.18250000000E+03  0.00000000000E+00 0.  1.
         23    2    1    2    0    0 -0.77057356290E+02 -0.21436602431E+01 -0.44535205891E+02  0.12710395642E+03  0.90717141363E+02 0.  0.
        -11    1    1    2    0    0  0.74431888639E+02  0.46261955031E+00  0.13137744865E+03  0.15099786117E+03  0.00000000000E+00 0. -1.
         11    1    1    2    0    0  0.26254676515E+01  0.16810406928E+01 -0.86842242760E+02  0.86898182408E+02  0.00000000000E+00 0.  1.
        -15    1    3    3    0    0 -0.72278841537E+02 -0.13190587649E+01  0.94008395597E+01  0.72921220255E+02  0.17770000000E+01 0.  1.
         15    1    3    3    0    0 -0.47785147527E+01 -0.82460147815E+00 -0.53936045451E+02  0.54182736169E+02  0.17770000000E+01 0. -1.
</event>
<event>
 7    1  0.9742770E-004  0.1641193E+03  0.7546771E-02  0.1084107E+00
        -11   -1    0    0    0    0  0.00000000000E+00  0.00000000000E+00  0.18250000000E+03  0.18250000000E+03  0.00000000000E+00 0.  1.
         11   -1    0    0    0    0 -0.00000000000E+00 -0.00000000000E+00 -0.18250000000E+03  0.18250000000E+03  0.00000000000E+00 0. -1.
         23    2    1    2    0    0  0.15896077206E+02  0.77253069709E+02 -0.73825831079E+02  0.14559885048E+03  0.97611730218E+02 0.  0.
        -11    1    1    2    0    0 -0.15538926221E+02 -0.76373124262E+02  0.13625192682E+03  0.15696783078E+03  0.00000000000E+00 0.  1.
         11    1    1    2    0    0 -0.35715098471E+00 -0.87994544716E+00 -0.62426095736E+02  0.62433318746E+02  0.00000000000E+00 0. -1.
        -15    1    3    3    0    0 -0.20413874779E+01  0.61552592684E+02  0.63471078953E+01  0.61938133945E+02  0.17770000000E+01 0.  1.
         15    1    3    3    0    0  0.17937464684E+02  0.15700477025E+02 -0.80172938975E+02  0.83660716534E+02  0.17770000000E+01 0. -1.
</event>
<event>
 7    1  0.9742770E-004  0.1959165E+03  0.7546771E-02  0.1058250E+00
        -11   -1    0    0    0    0  0.00000000000E+00  0.00000000000E+00  0.18250000000E+03  0.18250000000E+03  0.00000000000E+00 0. -1.
         11   -1    0    0    0    0 -0.00000000000E+00 -0.00000000000E+00 -0.18250000000E+03  0.18250000000E+03  0.00000000000E+00 0.  1.
         23    2    1    2    0    0 -0.62632410614E+02  0.12340083772E+02  0.14938460098E+03  0.19591653881E+03  0.10950997509E+03 0.  0.
        -11    1    1    2    0    0  0.49939048844E+02 -0.21459461066E+02 -0.72424632395E+02  0.90552440311E+02  0.00000000000E+00 0. -1.
         11    1    1    2    0    0  0.12693361770E+02  0.91193772935E+01 -0.76959968584E+02  0.78531020875E+02  0.00000000000E+00 0.  1.
        -15    1    3    3    0    0 -0.68623086228E+02  0.92391274723E+01  0.16492647590E+03  0.17888093700E+03  0.17770000000E+01 0. -1.
         15    1    3    3    0    0  0.59906756142E+01  0.31009563000E+01 -0.15541874919E+02  0.17035601817E+02  0.17770000000E+01 0.  1.
</event>
<event>
 7    1  0.9742770E-004  0.1587116E+03  0.7546771E-02  0.1089144E+00
        -11   -1    0    0    0    0  0.00000000000E+00  0.00000000000E+00  0.18250000000E+03  0.18250000000E+03  0.00000000000E+00 0. -1.
         11   -1    0    0    0    0 -0.00000000000E+00 -0.00000000000E+00 -0.18250000000E+03  0.18250000000E+03  0.00000000000E+00 0.  1.
         23    2    1    2    0    0  0.10876660055E+02  0.21191006243E+02 -0.92074324335E+02  0.13300209496E+03  0.92975887109E+02 0.  0.
        -11    1    1    2    0    0 -0.19112358633E+02 -0.15374441608E+02  0.16073756394E+03  0.16259833999E+03  0.00000000000E+00 0. -1.
         11    1    1    2    0    0  0.82356985782E+01 -0.58165646350E+01 -0.68663239604E+02  0.69399565043E+02  0.00000000000E+00 0.  1.
        -15    1    3    3    0    0 -0.32133387532E+02  0.12765034629E+02 -0.80511612396E+02  0.87640048853E+02  0.17770000000E+01 0.  1.
         15    1    3    3    0    0  0.43010047586E+02  0.84259716137E+01 -0.11562711939E+02  0.45362046111E+02  0.17770000000E+01 0. -1.
</event>
<event>
 7    1  0.9742770E-004  0.2111106E+03  0.7546771E-02  0.1047718E+00
        -11   -1    0    0    0    0  0.00000000000E+00  0.00000000000E+00  0.18250000000E+03  0.18250000000E+03  0.00000000000E+00 0. -1.
         11   -1    0    0    0    0 -0.00000000000E+00 -0.00000000000E+00 -0.18250000000E+03  0.18250000000E+03  0.00000000000E+00 0.  1.
         23    2    1    2    0    0 -0.40464578063E+02 -0.10786926136E+02 -0.49247384259E+02  0.11006630364E+03  0.89081684352E+02 0.  0.
        -11    1    1    2    0    0  0.32524796495E+02  0.11442090754E+02  0.14997716662E+03  0.15388935745E+03  0.00000000000E+00 0. -1.
         11    1    1    2    0    0  0.79397815684E+01 -0.65516461819E+00 -0.10072978236E+03  0.10104433891E+03  0.00000000000E+00 0.  1.
        -15    1    3    3    0    0 -0.41240125558E+02 -0.55753828790E+01  0.15971868801E+02  0.44610437929E+02  0.17770000000E+01 0.  1.
         15    1    3    3    0    0  0.77554749463E+00 -0.52115432566E+01 -0.65219253060E+02  0.65455865709E+02  0.17770000000E+01 0. -1.
</event>
<event>
 7    1  0.9742770E-004  0.1645255E+03  0.7546771E-02  0.1083737E+00
        -11   -1    0    0    0    0  0.00000000000E+00  0.00000000000E+00  0.18250000000E+03  0.18250000000E+03  0.00000000000E+00 0.  1.
         11   -1    0    0    0    0 -0.00000000000E+00 -0.00000000000E+00 -0.18250000000E+03  0.18250000000E+03  0.00000000000E+00 0.  1.
         23    2    1    2    0    0  0.18388565098E+02 -0.14392222974E+02  0.12475587137E+03  0.15283670867E+03  0.85145502919E+02 0.  0.
        -11    1    1    2    0    0 -0.43784429609E+02 -0.19110932430E+02  0.26873866148E+02  0.54813398875E+02  0.00000000000E+00 0.  1.
         11    1    1    2    0    0  0.25395864511E+02  0.33503155404E+02 -0.15162973752E+03  0.15734989246E+03  0.00000000000E+00 0.  1.
        -15    1    3    3    0    0  0.62292088706E+01 -0.24936949798E+02  0.13243332837E+03  0.13491626552E+03  0.17770000000E+01 0. -1.
         15    1    3    3    0    0  0.12159356227E+02  0.10544726824E+02 -0.76774570048E+01  0.17920443151E+02  0.17770000000E+01 0.  1.
</event>
<event>
 7    1  0.9742770E-004  0.1585788E+03  0.7546771E-02  0.1089271E+00
        -11   -1    0    0    0    0  0.00000000000E+00  0.00000000000E+00  0.18250000000E+03  0.18250000000E+03  0.00000000000E+00 0.  1.
         11   -1    0    0    0    0 -0.00000000000E+00 -0.00000000000E+00 -0.18250000000E+03  0.18250000000E+03  0.00000000000E+00 0. -1.
         23    2    1    2    0    0  0.21652986882E+02 -0.25026784886E+02 -0.85550573692E+02  0.13374429089E+03  0.97331612972E+02 0.  0.
        -11    1    1    2    0    0 -0.25266408024E+02  0.12491816732E+02  0.15655033738E+03  0.15906742279E+03  0.00000000000E+00 0.  1.
         11    1    1    2    0    0  0.36134211419E+01  0.12534968155E+02 -0.70999763685E+02  0.72188286323E+02  0.00000000000E+00 0. -1.
        -15    1    3    3    0    0 -0.42201911101E+01 -0.31443091201E+02  0.10954054426E+02  0.33609924645E+02  0.17770000000E+01 0.  1.
         15    1    3    3    0    0  0.25873177992E+02  0.64163063144E+01 -0.96504628117E+02  0.10013436624E+03  0.17770000000E+01 0. -1.
</event>
<event>
 7    1  0.9742770E-004  0.1475048E+03  0.7546771E-02  0.1100323E+00
        -11   -1    0    0    0    0  0.00000000000E+00  0.00000000000E+00  0.18250000000E+03  0.18250000000E+03  0.00000000000E+00 0.  1.
         11   -1    0    0    0    0 -0.00000000000E+00 -0.00000000000E+00 -0.18250000000E+03  0.18250000000E+03  0.00000000000E+00 0. -1.
         23    2    1    2    0    0 -0.87203051723E+02 -0.17077006251E+01  0.12848493745E+03  0.17841750829E+03  0.87847251753E+02 0.  0.
        -11    1    1    2    0    0  0.89439714649E+02  0.15967848143E+02 -0.44135350641E+02  0.10100675179E+03  0.00000000000E+00 0.  1.
         11    1    1    2    0    0 -0.22366629262E+01 -0.14260147518E+02 -0.84349586811E+02  0.85575739923E+02  0.00000000000E+00 0. -1.
        -15    1    3    3    0    0 -0.36030490665E+02  0.30528329172E+02  0.14608014676E+02  0.49464400950E+02  0.17770000000E+01 0. -1.
         15    1    3    3    0    0 -0.51172561058E+02 -0.32236029797E+02  0.11387692277E+03  0.12895310734E+03  0.17770000000E+01 0.  1.
</event>
<event>
 7    1  0.9742770E-004  0.1966628E+03  0.7546771E-02  0.1057709E+00
        -11   -1    0    0    0    0  0.00000000000E+00  0.00000000000E+00  0.18250000000E+03  0.18250000000E+03  0.00000000000E+00 0. -1.
         11   -1    0    0    0    0 -0.00000000000E+00 -0.00000000000E+00 -0.18250000000E+03  0.18250000000E+03  0.00000000000E+00 0. -1.
         23    2    1    2    0    0 -0.53593089368E+01  0.22310676967E+01  0.16697474013E+03  0.19666282100E+03  0.10374006684E+03 0.  0.
        -11    1    1    2    0    0  0.49297624009E+00 -0.37937030030E+01 -0.50680199668E+01  0.63498058578E+01  0.00000000000E+00 0. -1.
         11    1    1    2    0    0  0.48663326967E+01  0.15626353063E+01 -0.16190672016E+03  0.16198737314E+03  0.00000000000E+00 0. -1.
        -15    1    3    3    0    0  0.17932497308E+02  0.30197324870E+02  0.15402991350E+03  0.15799311653E+03  0.17770000000E+01 0. -1.
         15    1    3    3    0    0 -0.23291806245E+02 -0.27966257174E+02  0.12944826631E+02  0.38669704472E+02  0.17770000000E+01 0.  1.
</event>
<event>
 7    1  0.9742770E-004  0.1768812E+03  0.7546771E-02  0.1073017E+00
        -11   -1    0    0    0    0  0.00000000000E+00  0.00000000000E+00  0.18250000000E+03  0.18250000000E+03  0.00000000000E+00 0.  1.
         11   -1    0    0    0    0 -0.00000000000E+00 -0.00000000000E+00 -0.18250000000E+03  0.18250000000E+03  0.00000000000E+00 0.  1.
         23    2    1    2    0    0  0.23516881827E+02 -0.19123652699E+02  0.14622386278E+03  0.17416281650E+03  0.89624275639E+02 0.  0.
        -11    1    1    2    0    0 -0.21095881870E+02  0.24297938582E+02  0.10623097299E+02  0.33886225039E+02  0.00000000000E+00 0.  1.
         11    1    1    2    0    0 -0.24209999570E+01 -0.51742858824E+01 -0.15684696008E+03  0.15695095846E+03  0.00000000000E+00 0.  1.
        -15    1    3    3    0    0  0.34643323344E+02 -0.49339306756E+02  0.11154678280E+03  0.12680839690E+03  0.17770000000E+01 0.  1.
         15    1    3    3    0    0 -0.11126441518E+02  0.30215654057E+02  0.34677079979E+02  0.47354419602E+02  0.17770000000E+01 0. -1.
</event>
<event>
 7    1  0.9742770E-004  0.1283585E+03  0.7546771E-02  0.1122205E+00
        -11   -1    0    0    0    0  0.00000000000E+00  0.00000000000E+00  0.18250000000E+03  0.18250000000E+03  0.00000000000E+00 0.  1.
         11   -1    0    0    0    0 -0.00000000000E+00 -0.00000000000E+00 -0.18250000000E+03  0.18250000000E+03  0.00000000000E+00 0.  1.
         23    2    1    2    0    0  0.63934894312E+02 -0.19776170382E+02 -0.84752284181E+01  0.99567850054E+02  0.73233596402E+02 0.  0.
        -11    1    1    2    0    0 -0.65891687386E+02  0.23518656549E+02  0.12797874227E+03  0.14585403713E+03  0.00000000000E+00 0.  1.
         11    1    1    2    0    0  0.19567930736E+01 -0.37424861667E+01 -0.11950351385E+03  0.11957811282E+03  0.00000000000E+00 0.  1.
        -15    1    3    3    0    0  0.21515908107E+02  0.26934153481E+02 -0.11471156971E+02  0.36374827789E+02  0.17770000000E+01 0. -1.
         15    1    3    3    0    0  0.42418986205E+02 -0.46710323863E+02  0.29959285528E+01  0.63193022265E+02  0.17770000000E+01 0.  1.
</event>
<event>
 7    1  0.9742770E-004  0.1946151E+03  0.7546771E-02  0.1059200E+00
        -11   -1    0    0    0    0  0.00000000000E+00  0.00000000000E+00  0.18250000000E+03  0.18250000000E+03  0.00000000000E+00 0.  1.
         11   -1    0    0    0    0 -0.00000000000E+00 -0.00000000000E+00 -0.18250000000E+03  0.18250000000E+03  0.00000000000E+00 0.  1.
         23    2    1    2    0    0  0.20439230684E+01 -0.74193281746E+00  0.17012787276E+03  0.19461507380E+03  0.94481774832E+02 0.  0.
        -11    1    1    2    0    0  0.21794249182E+01  0.18382217120E+01 -0.20934242546E+02  0.21127504894E+02  0.00000000000E+00 0.  1.
         11    1    1    2    0    0 -0.42233479867E+01 -0.10962888945E+01 -0.14919363021E+03  0.14925742130E+03  0.00000000000E+00 0.  1.
        -15    1    3    3    0    0 -0.17320438703E+02  0.33065711859E+02  0.14118731189E+03  0.14604914812E+03  0.17770000000E+01 0.  1.
         15    1    3    3    0    0  0.19364361772E+02 -0.33807644676E+02  0.28940560872E+02  0.48565925688E+02  0.17770000000E+01 0. -1.
</event>
<event>
 7    1  0.9742770E-004  0.1927802E+03  0.7546771E-02  0.1060554E+00
        -11   -1    0    0    0    0  0.00000000000E+00  0.00000000000E+00  0.18250000000E+03  0.18250000000E+03  0.00000000000E+00 0.  1.
         11   -1    0    0    0    0 -0.00000000000E+00 -0.00000000000E+00 -0.18250000000E+03  0.18250000000E+03  0.00000000000E+00 0. -1.
         23    2    1    2    0    0 -0.20225818329E+01 -0.65867691057E+00  0.17218875944E+03  0.19278022690E+03  0.86664423577E+02 0.  0.
        -11    1    1    2    0    0  0.23863325823E+01 -0.15847199167E-01 -0.14696823457E+03  0.14698760766E+03  0.00000000000E+00 0. -1.
         11    1    1    2    0    0 -0.36375074939E+00  0.67452410973E+00 -0.25220524874E+02  0.25232165430E+02  0.00000000000E+00 0.  1.
        -15    1    3    3    0    0 -0.30872155977E+02  0.30812239181E+02  0.95107559032E+02  0.10464745392E+03  0.17770000000E+01 0.  1.
         15    1    3    3    0    0  0.28849574144E+02 -0.31470916091E+02  0.77081200412E+02  0.88132772984E+02  0.17770000000E+01 0. -1.
</event>
<event>
 7    1  0.9742770E-004  0.1876159E+03  0.7546771E-02  0.1064454E+00
        -11   -1    0    0    0    0  0.00000000000E+00  0.00000000000E+00  0.18250000000E+03  0.18250000000E+03  0.00000000000E+00 0.  1.
         11   -1    0    0    0    0 -0.00000000000E+00 -0.00000000000E+00 -0.18250000000E+03  0.18250000000E+03  0.00000000000E+00 0.  1.
         23    2    1    2    0    0  0.90364431070E+01  0.10255659139E+02  0.16184410580E+03  0.18682727272E+03  0.92325941121E+02 0.  0.
        -11    1    1    2    0    0  0.57433323810E+01 -0.12394244919E+02  0.18622579306E+01  0.13786630427E+02  0.00000000000E+00 0.  1.
         11    1    1    2    0    0 -0.14779775488E+02  0.21385857799E+01 -0.16370636373E+03  0.16438609685E+03  0.00000000000E+00 0.  1.
        -15    1    3    3    0    0 -0.19475314627E+02 -0.11081450174E+02  0.14615301910E+03  0.14787139392E+03  0.17770000000E+01 0.  1.
         15    1    3    3    0    0  0.28511757734E+02  0.21337109313E+02  0.15691086696E+02  0.38955878807E+02  0.17770000000E+01 0. -1.
</event>
<event>
 7    1  0.9742770E-004  0.1836006E+03  0.7546771E-02  0.1067582E+00
        -11   -1    0    0    0    0  0.00000000000E+00  0.00000000000E+00  0.18250000000E+03  0.18250000000E+03  0.00000000000E+00 0.  1.
         11   -1    0    0    0    0 -0.00000000000E+00 -0.00000000000E+00 -0.18250000000E+03  0.18250000000E+03  0.00000000000E+00 0.  1.
         23    2    1    2    0    0 -0.11156568742E+02  0.21155663577E+02  0.16561070437E+03  0.18811013039E+03  0.85944660243E+02 0.  0.
        -11    1    1    2    0    0  0.16335226396E+02 -0.29482021753E+01 -0.85111809271E+01  0.18654000061E+02  0.00000000000E+00 0.  1.
         11    1    1    2    0    0 -0.51786576544E+01 -0.18207461402E+02 -0.15709952345E+03  0.15823586955E+03  0.00000000000E+00 0.  1.
        -15    1    3    3    0    0 -0.91944155393E+01 -0.13531838447E+02 -0.23155375202E+01  0.16618284264E+02  0.17770000000E+01 0. -1.
         15    1    3    3    0    0 -0.19621532028E+01  0.34687502024E+02  0.16792624189E+03  0.17149184612E+03  0.17770000000E+01 0.  1.
</event>
<event>
 7    1  0.9742770E-004  0.1851992E+03  0.7546771E-02  0.1066326E+00
        -11   -1    0    0    0    0  0.00000000000E+00  0.00000000000E+00  0.18250000000E+03  0.18250000000E+03  0.00000000000E+00 0.  1.
         11   -1    0    0    0    0 -0.00000000000E+00 -0.00000000000E+00 -0.18250000000E+03  0.18250000000E+03  0.00000000000E+00 0. -1.
         23    2    1    2    0    0  0.16549017307E+01 -0.13143014035E+02  0.16682179002E+03  0.18772358514E+03  0.85059727700E+02 0.  0.
        -11    1    1    2    0    0 -0.41622324630E+01  0.13646001313E+02 -0.45358866225E+01  0.14970364002E+02  0.00000000000E+00 0.  1.
         11    1    1    2    0    0  0.25073307323E+01 -0.50298727771E+00 -0.16228590339E+03  0.16230605086E+03  0.00000000000E+00 0. -1.
        -15    1    3    3    0    0  0.10088605568E+02 -0.34195936091E+02  0.16005808830E+03  0.16399052218E+03  0.17770000000E+01 0.  1.
         15    1    3    3    0    0 -0.84337038370E+01  0.21052922056E+02  0.67637017218E+01  0.23733062961E+02  0.17770000000E+01 0. -1.
</event>
<event>
 7    1  0.9742770E-004  0.1932030E+03  0.7546771E-02  0.1060241E+00
        -11   -1    0    0    0    0  0.00000000000E+00  0.00000000000E+00  0.18250000000E+03  0.18250000000E+03  0.00000000000E+00 0.  1.
         11   -1    0    0    0    0 -0.00000000000E+00 -0.00000000000E+00 -0.18250000000E+03  0.18250000000E+03  0.00000000000E+00 0.  1.
         23    2    1    2    0    0  0.84761723651E+01  0.70958296850E+01  0.17074807515E+03  0.19320301460E+03  0.89723482903E+02 0.  0.
        -11    1    1    2    0    0 -0.48061163970E+01 -0.85610448025E+01 -0.48431960712E+02  0.49417052334E+02  0.00000000000E+00 0.  1.
         11    1    1    2    0    0 -0.36700559681E+01  0.14652151175E+01 -0.12231611444E+03  0.12237993307E+03  0.00000000000E+00 0.  1.
        -15    1    3    3    0    0 -0.21052853422E+02  0.25260207659E+02  0.14818634643E+03  0.15180135614E+03  0.17770000000E+01 0.  1.
         15    1    3    3    0    0  0.29529025787E+02 -0.18164377974E+02  0.22561728720E+02  0.41401658456E+02  0.17770000000E+01 0. -1.
</event>
<event>
 7    1  0.9742770E-004  0.1194314E+03  0.7546771E-02  0.1133904E+00
        -11   -1    0    0    0    0  0.00000000000E+00  0.00000000000E+00  0.18250000000E+03  0.18250000000E+03  0.00000000000E+00 0. -1.
         11   -1    0    0    0    0 -0.00000000000E+00 -0.00000000000E+00 -0.18250000000E+03  0.18250000000E+03  0.00000000000E+00 0. -1.
         23    2    1    2    0    0 -0.44527091230E+02  0.31045849564E+02  0.11246191040E+02  0.11978900580E+03  0.10619050085E+03 0.  0.
        -11    1    1    2    0    0  0.41554665416E+02 -0.32320053059E+02  0.11103730570E+03  0.12288473992E+03  0.00000000000E+00 0. -1.
         11    1    1    2    0    0  0.29724258139E+01  0.12742034954E+01 -0.12228349674E+03  0.12232625428E+03  0.00000000000E+00 0. -1.
        -15    1    3    3    0    0 -0.53641935202E+02 -0.64995104942E+01  0.43529440406E+02  0.69409442874E+02  0.17770000000E+01 0. -1.
         15    1    3    3    0    0  0.91148439728E+01  0.37545360058E+02 -0.32283249366E+02  0.50379562931E+02  0.17770000000E+01 0.  1.
</event>
<event>
 7    1  0.9742770E-004  0.1563786E+03  0.7546771E-02  0.1091386E+00
        -11   -1    0    0    0    0  0.00000000000E+00  0.00000000000E+00  0.18250000000E+03  0.18250000000E+03  0.00000000000E+00 0. -1.
         11   -1    0    0    0    0 -0.00000000000E+00 -0.00000000000E+00 -0.18250000000E+03  0.18250000000E+03  0.00000000000E+00 0. -1.
         23    2    1    2    0    0 -0.42467010291E+02  0.33430968663E+02  0.11250607938E+03  0.15273272370E+03  0.88026077743E+02 0.  0.
        -11    1    1    2    0    0  0.44133173552E+02 -0.47488056754E+02  0.28310257560E+02  0.70741241332E+02  0.00000000000E+00 0. -1.
         11    1    1    2    0    0 -0.16661632613E+01  0.14057088091E+02 -0.14081633694E+03  0.14152603497E+03  0.00000000000E+00 0. -1.
        -15    1    3    3    0    0 -0.80662738065E+01  0.40905295005E+02  0.80637649414E+01  0.42502823043E+02  0.17770000000E+01 0.  1.
         15    1    3    3    0    0 -0.34400736485E+02 -0.74743263420E+01  0.10444231444E+03  0.11022990066E+03  0.17770000000E+01 0. -1.
</event>
<event>
 7    1  0.9742770E-004  0.1742124E+03  0.7546771E-02  0.1075250E+00
        -11   -1    0    0    0    0  0.00000000000E+00  0.00000000000E+00  0.18250000000E+03  0.18250000000E+03  0.00000000000E+00 0.  1.
         11   -1    0    0    0    0 -0.00000000000E+00 -0.00000000000E+00 -0.18250000000E+03  0.18250000000E+03  0.00000000000E+00 0. -1.
         23    2    1    2    0    0  0.70762598033E+00 -0.35280149405E+02  0.12765837676E+03  0.16589056535E+03  0.99889082687E+02 0.  0.
        -11    1    1    2    0    0  0.17301470054E+01  0.36169109536E+02  0.26536312291E+02  0.44892914400E+02  0.00000000000E+00 0.  1.
         11    1    1    2    0    0 -0.24377729858E+01 -0.88896013113E+00 -0.15419468905E+03  0.15421652025E+03  0.00000000000E+00 0. -1.
        -15    1    3    3    0    0 -0.88103450125E+00 -0.17011539798E+02  0.14169678599E+03  0.14272808272E+03  0.17770000000E+01 0.  1.
         15    1    3    3    0    0  0.15886604816E+01 -0.18268609608E+02 -0.14038409230E+02  0.23162482635E+02  0.17770000000E+01 0. -1.
</event>
<event>
 7    1  0.9742770E-004  0.2196396E+03  0.7546771E-02  0.1042219E+00
        -11   -1    0    0    0    0  0.00000000000E+00  0.00000000000E+00  0.18250000000E+03  0.18250000000E+03  0.00000000000E+00 0. -1.
         11   -1    0    0    0    0 -0.00000000000E+00 -0.00000000000E+00 -0.18250000000E+03  0.18250000000E+03  0.00000000000E+00 0.  1.
         23    2    1    2    0    0 -0.14023674340E+02  0.12483380056E+02  0.32676723008E+02  0.10555851737E+03  0.98601897259E+02 0.  0.
        -11    1    1    2    0    0  0.15439084083E+02 -0.93618176399E+01  0.11264321841E+03  0.11408112727E+03  0.00000000000E+00 0. -1.
         11    1    1    2    0    0 -0.14154097428E+01 -0.31215624159E+01 -0.14531994142E+03  0.14536035536E+03  0.00000000000E+00 0.  1.
        -15    1    3    3    0    0 -0.11958692837E+02  0.10477047198E+02  0.68110228774E+02  0.69963846700E+02  0.17770000000E+01 0. -1.
         15    1    3    3    0    0 -0.20649815028E+01  0.20063328583E+01 -0.35433505767E+02  0.35594670669E+02  0.17770000000E+01 0.  1.
</event>
<event>
 7    1  0.9742770E-004  0.1376881E+03  0.7546771E-02  0.1111052E+00
        -11   -1    0    0    0    0  0.00000000000E+00  0.00000000000E+00  0.18250000000E+03  0.18250000000E+03  0.00000000000E+00 0. -1.
         11   -1    0    0    0    0 -0.00000000000E+00 -0.00000000000E+00 -0.18250000000E+03  0.18250000000E+03  0.00000000000E+00 0. -1.
         23    2    1    2    0    0 -0.27165515914E+02 -0.16901191745E+02 -0.21533884465E+01  0.87763117476E+02  0.81695239580E+02 0.  0.
        -11    1    1    2    0    0  0.30560253942E+02  0.97795342944E+01  0.13773642367E+03  0.14142450572E+03  0.00000000000E+00 0. -1.
         11    1    1    2    0    0 -0.33947380277E+01  0.71216574501E+01 -0.13558303523E+03  0.13581237680E+03  0.00000000000E+00 0. -1.
        -15    1    3    3    0    0 -0.20006975168E+02 -0.97218543566E+01  0.39222592101E+02  0.45126078575E+02  0.17770000000E+01 0. -1.
         15    1    3    3    0    0 -0.71585407460E+01 -0.71793373880E+01 -0.41375980547E+02  0.42637038900E+02  0.17770000000E+01 0.  1.
</event>
<event>
 7    1  0.9742770E-004  0.1908413E+03  0.7546771E-02  0.1062002E+00
        -11   -1    0    0    0    0  0.00000000000E+00  0.00000000000E+00  0.18250000000E+03  0.18250000000E+03  0.00000000000E+00 0. -1.
         11   -1    0    0    0    0 -0.00000000000E+00 -0.00000000000E+00 -0.18250000000E+03  0.18250000000E+03  0.00000000000E+00 0.  1.
         23    2    1    2    0    0 -0.55165965034E+01 -0.13853863606E+02  0.17283928598E+03  0.19084134002E+03  0.79527579538E+02 0.  0.
        -11    1    1    2    0    0 -0.24332300067E+01 -0.26506972305E+00 -0.53024516615E+01  0.58401082050E+01  0.00000000000E+00 0. -1.
         11    1    1    2    0    0  0.79498265101E+01  0.14118933329E+02 -0.16753683432E+03  0.16831855178E+03  0.00000000000E+00 0.  1.
        -15    1    3    3    0    0  0.65015621985E+00 -0.28868612947E+02  0.15816436493E+02  0.32971759264E+02  0.17770000000E+01 0.  1.
         15    1    3    3    0    0 -0.61667527232E+01  0.15014749341E+02  0.15702284949E+03  0.15786958075E+03  0.17770000000E+01 0. -1.
</event>
<event>
 7    1  0.9742770E-004  0.1745518E+03  0.7546771E-02  0.1074964E+00
        -11   -1    0    0    0    0  0.00000000000E+00  0.00000000000E+00  0.18250000000E+03  0.18250000000E+03  0.00000000000E+00 0. -1.
         11   -1    0    0    0    0 -0.00000000000E+00 -0.00000000000E+00 -0.18250000000E+03  0.18250000000E+03  0.00000000000E+00 0. -1.
         23    2    1    2    0    0 -0.33764229966E+02 -0.65219677866E+01  0.15672853863E+03  0.18444025532E+03  0.90949511662E+02 0.  0.
        -11    1    1    2    0    0  0.34293062518E+02 -0.95495218193E+01 -0.16193976378E+02  0.39108213649E+02  0.00000000000E+00 0. -1.
         11    1    1    2    0    0 -0.52883255252E+00  0.16071489606E+02 -0.14053456226E+03  0.14145153103E+03  0.00000000000E+00 0. -1.
        -15    1    3    3    0    0  0.38877682119E+01  0.35451324428E+02  0.91382273377E+02  0.98111104172E+02  0.17770000000E+01 0. -1.
         15    1    3    3    0    0 -0.37651998177E+02 -0.41973292214E+02  0.65346265258E+02  0.86329151150E+02  0.17770000000E+01 0.  1.
</event>
<event>
 7    1  0.9742770E-004  0.1937331E+03  0.7546771E-02  0.1059849E+00
        -11   -1    0    0    0    0  0.00000000000E+00  0.00000000000E+00  0.18250000000E+03  0.18250000000E+03  0.00000000000E+00 0.  1.
         11   -1    0    0    0    0 -0.00000000000E+00 -0.00000000000E+00 -0.18250000000E+03  0.18250000000E+03  0.00000000000E+00 0.  1.
         23    2    1    2    0    0 -0.25748081004E+01  0.34938356736E+01  0.17116970294E+03  0.19373311264E+03  0.90634514412E+02 0.  0.
        -11    1    1    2    0    0  0.29117692712E+01 -0.41203952664E+01 -0.15339481349E+03  0.15347776667E+03  0.00000000000E+00 0.  1.
         11    1    1    2    0    0 -0.33696117074E+00  0.62655959286E+00 -0.17774889457E+02  0.17789120691E+02  0.00000000000E+00 0.  1.
        -15    1    3    3    0    0 -0.34329982000E+02 -0.19430451534E+02  0.13404242872E+03  0.13973768475E+03  0.17770000000E+01 0.  1.
         15    1    3    3    0    0  0.31755173900E+02  0.22924287208E+02  0.37127274220E+02  0.53995427893E+02  0.17770000000E+01 0. -1.
</event>
<event>
 7    1  0.9742770E-004  0.1929148E+03  0.7546771E-02  0.1060454E+00
        -11   -1    0    0    0    0  0.00000000000E+00  0.00000000000E+00  0.18250000000E+03  0.18250000000E+03  0.00000000000E+00 0.  1.
         11   -1    0    0    0    0 -0.00000000000E+00 -0.00000000000E+00 -0.18250000000E+03  0.18250000000E+03  0.00000000000E+00 0. -1.
         23    2    1    2    0    0  0.26857706388E+01 -0.21013005961E+01  0.17012166474E+03  0.19289619241E+03  0.90862156050E+02 0.  0.
        -11    1    1    2    0    0  0.82621276428E+00 -0.17145923443E+01 -0.16009898877E-03  0.19032746687E+01  0.00000000000E+00 0.  1.
         11    1    1    2    0    0 -0.35119834030E+01  0.38158929404E+01 -0.17012150464E+03  0.17020053293E+03  0.00000000000E+00 0. -1.
        -15    1    3    3    0    0 -0.13545171505E+02 -0.34897195909E+02  0.14157691722E+03  0.14645295207E+03  0.17770000000E+01 0.  1.
         15    1    3    3    0    0  0.16230942144E+02  0.32795895313E+02  0.28544747523E+02  0.46443240331E+02  0.17770000000E+01 0. -1.
</event>
<event>
 7    1  0.9742770E-004  0.1554794E+03  0.7546771E-02  0.1092262E+00
        -11   -1    0    0    0    0  0.00000000000E+00  0.00000000000E+00  0.18250000000E+03  0.18250000000E+03  0.00000000000E+00 0.  1.
         11   -1    0    0    0    0 -0.00000000000E+00 -0.00000000000E+00 -0.18250000000E+03  0.18250000000E+03  0.00000000000E+00 0.  1.
         23    2    1    2    0    0 -0.21230541392E+02  0.12241720344E+01  0.83260186241E+02  0.13059968038E+03  0.98345225702E+02 0.  0.
        -11    1    1    2    0    0  0.25483233575E+02 -0.16342248505E+02  0.72126456054E+02  0.78222055346E+02  0.00000000000E+00 0.  1.
         11    1    1    2    0    0 -0.42526921838E+01  0.15118076471E+02 -0.15538664229E+03  0.15617826427E+03  0.00000000000E+00 0.  1.
        -15    1    3    3    0    0 -0.29941888278E+02 -0.27430262844E+02  0.90957387211E+02  0.99626000676E+02  0.17770000000E+01 0.  1.
         15    1    3    3    0    0  0.87113468867E+01  0.28654434879E+02 -0.76972009708E+01  0.30973679707E+02  0.17770000000E+01 0. -1.
</event>
<event>
 7    1  0.9742770E-004  0.1474498E+03  0.7546771E-02  0.1100380E+00
        -11   -1    0    0    0    0  0.00000000000E+00  0.00000000000E+00  0.18250000000E+03  0.18250000000E+03  0.00000000000E+00 0.  1.
         11   -1    0    0    0    0 -0.00000000000E+00 -0.00000000000E+00 -0.18250000000E+03  0.18250000000E+03  0.00000000000E+00 0.  1.
         23    2    1    2    0    0 -0.36793937778E+02 -0.23116598390E+01  0.98893978964E+02  0.14010928829E+03  0.92149096360E+02 0.  0.
        -11    1    1    2    0    0  0.81221291199E+02 -0.17952599747E+02  0.28920728663E+02  0.88065898781E+02  0.00000000000E+00 0.  1.
         11    1    1    2    0    0 -0.44427353420E+02  0.20264259586E+02 -0.12781470763E+03  0.13682481293E+03  0.00000000000E+00 0.  1.
        -15    1    3    3    0    0 -0.20917630925E+02  0.24282639309E+02 -0.42696672607E+01  0.32381810370E+02  0.17770000000E+01 0. -1.
         15    1    3    3    0    0 -0.15876306853E+02 -0.26594299148E+02  0.10316364622E+03  0.10772747791E+03  0.17770000000E+01 0.  1.
</event>
<event>
 7    1  0.9742770E-004  0.1734982E+03  0.7546771E-02  0.1075855E+00
        -11   -1    0    0    0    0  0.00000000000E+00  0.00000000000E+00  0.18250000000E+03  0.18250000000E+03  0.00000000000E+00 0.  1.
         11   -1    0    0    0    0 -0.00000000000E+00 -0.00000000000E+00 -0.18250000000E+03  0.18250000000E+03  0.00000000000E+00 0.  1.
         23    2    1    2    0    0  0.43617315957E+02  0.46836399939E+01  0.14762983245E+03  0.18221938973E+03  0.97390614685E+02 0.  0.
        -11    1    1    2    0    0 -0.43670757985E+02 -0.20775440781E+01 -0.96452935698E+01  0.44771452740E+02  0.00000000000E+00 0.  1.
         11    1    1    2    0    0  0.53442028597E-01 -0.26060959158E+01 -0.13798453888E+03  0.13800915753E+03  0.00000000000E+00 0.  1.
        -15    1    3    3    0    0  0.33745743038E+02 -0.30309198194E+02  0.13695895516E+03  0.14428560495E+03  0.17770000000E+01 0.  1.
         15    1    3    3    0    0  0.98715729188E+01  0.34992838188E+02  0.10670877289E+02  0.37933784777E+02  0.17770000000E+01 0. -1.
</event>
<event>
 7    1  0.9742770E-004  0.1818512E+03  0.7546771E-02  0.1068972E+00
        -11   -1    0    0    0    0  0.00000000000E+00  0.00000000000E+00  0.18250000000E+03  0.18250000000E+03  0.00000000000E+00 0. -1.
         11   -1    0    0    0    0 -0.00000000000E+00 -0.00000000000E+00 -0.18250000000E+03  0.18250000000E+03  0.00000000000E+00 0.  1.
         23    2    1    2    0    0 -0.45346301874E+01  0.16746019971E+02  0.14638943263E+03  0.17352061795E+03  0.91534402338E+02 0.  0.
        -11    1    1    2    0    0  0.13245263923E+02 -0.84305990151E+01  0.19566527301E+02  0.25087068516E+02  0.00000000000E+00 0. -1.
         11    1    1    2    0    0 -0.87106337358E+01 -0.83154209563E+01 -0.16595595993E+03  0.16639231353E+03  0.00000000000E+00 0.  1.
        -15    1    3    3    0    0 -0.16798236869E+02  0.50053825645E+02  0.59070445845E+02  0.79246713023E+02  0.17770000000E+01 0. -1.
         15    1    3    3    0    0  0.12263606681E+02 -0.33307805673E+02  0.87318986787E+02  0.94273904927E+02  0.17770000000E+01 0.  1.
</event>
<event>
 7    1  0.9742770E-004  0.1596540E+03  0.7546771E-02  0.1088251E+00
        -11   -1    0    0    0    0  0.00000000000E+00  0.00000000000E+00  0.18250000000E+03  0.18250000000E+03  0.00000000000E+00 0.  1.
         11   -1    0    0    0    0 -0.00000000000E+00 -0.00000000000E+00 -0.18250000000E+03  0.18250000000E+03  0.00000000000E+00 0.  1.
         23    2    1    2    0    0  0.38655597422E+02 -0.21472370836E+02  0.98751773264E+02  0.14191921388E+03  0.91835900511E+02 0.  0.
        -11    1    1    2    0    0 -0.21694015747E+02  0.29753582138E+02  0.56087763405E+02  0.67095030911E+02  0.00000000000E+00 0.  1.
         11    1    1    2    0    0 -0.16961581676E+02 -0.82812113026E+01 -0.15483953667E+03  0.15598575521E+03  0.00000000000E+00 0.  1.
        -15    1    3    3    0    0  0.54677208613E+02 -0.11525227384E+02  0.10741269869E+03  0.12109117877E+03  0.17770000000E+01 0.  1.
         15    1    3    3    0    0 -0.16021611191E+02 -0.99471434514E+01 -0.86609254252E+01  0.20828035102E+02  0.17770000000E+01 0. -1.
</event>
<event>
 7    1  0.1342772E-003  0.1417290E+03  0.7546771E-02  0.1106520E+00
        -11   -1    0    0    0    0  0.00000000000E+00  0.00000000000E+00  0.18250000000E+03  0.18250000000E+03  0.00000000000E+00 0.  1.
         11   -1    0    0    0    0 -0.00000000000E+00 -0.00000000000E+00 -0.18250000000E+03  0.18250000000E+03  0.00000000000E+00 0. -1.
         23    2    1    2    0    0 -0.54484898021E+02 -0.50879633677E+02 -0.26531536040E+02  0.12245770299E+03  0.93459217747E+02 0.  0.
        -11    1    1    2    0    0  0.53629630990E+02  0.49785470963E+02  0.12458133601E+03  0.14448266236E+03  0.00000000000E+00 0.  1.
         11    1    1    2    0    0  0.85526703166E+00  0.10941627144E+01 -0.98049799971E+02  0.98059634652E+02  0.00000000000E+00 0. -1.
        -15    1    3    3    0    0  0.18903155577E+00 -0.23282869371E+01 -0.46537386321E+02  0.46629847819E+02  0.17770000000E+01 0. -1.
         15    1    3    3    0    0 -0.54673929577E+02 -0.48551346740E+02  0.20005850281E+02  0.75827855173E+02  0.17770000000E+01 0. -1.
</event>
<event>
 7    1  0.9742770E-004  0.1853706E+03  0.7546771E-02  0.1066193E+00
        -11   -1    0    0    0    0  0.00000000000E+00  0.00000000000E+00  0.18250000000E+03  0.18250000000E+03  0.00000000000E+00 0.  1.
         11   -1    0    0    0    0 -0.00000000000E+00 -0.00000000000E+00 -0.18250000000E+03  0.18250000000E+03  0.00000000000E+00 0.  1.
         23    2    1    2    0    0 -0.64583172550E+01  0.41829438895E+02  0.15674979269E+03  0.18537058849E+03  0.89444651858E+02 0.  0.
        -11    1    1    2    0    0  0.42016081847E+01 -0.50390553736E+02 -0.45484738783E+02  0.68012667051E+02  0.00000000000E+00 0.  1.
         11    1    1    2    0    0  0.22567090703E+01  0.85611148414E+01 -0.11126505391E+03  0.11161674446E+03  0.00000000000E+00 0.  1.
        -15    1    3    3    0    0  0.35539916662E+02  0.19445837287E+02  0.31425034519E+02  0.51302210359E+02  0.17770000000E+01 0.  1.
         15    1    3    3    0    0 -0.41998233917E+02  0.22383601607E+02  0.12532475817E+03  0.13406837813E+03  0.17770000000E+01 0. -1.
</event>
<event>
 7    1  0.9742770E-004  0.2192954E+03  0.7546771E-02  0.1042436E+00
        -11   -1    0    0    0    0  0.00000000000E+00  0.00000000000E+00  0.18250000000E+03  0.18250000000E+03  0.00000000000E+00 0.  1.
         11   -1    0    0    0    0 -0.00000000000E+00 -0.00000000000E+00 -0.18250000000E+03  0.18250000000E+03  0.00000000000E+00 0.  1.
         23    2    1    2    0    0 -0.12023056963E+02  0.31978263058E+02  0.46192827218E+02  0.11534210117E+03  0.10001429802E+03 0.  0.
        -11    1    1    2    0    0  0.10922137267E+02 -0.28195538941E+02  0.99458534029E+02  0.10395326589E+03  0.00000000000E+00 0.  1.
         11    1    1    2    0    0  0.11009196961E+01 -0.37827241174E+01 -0.14565136125E+03  0.14570463294E+03  0.00000000000E+00 0.  1.
        -15    1    3    3    0    0  0.29477019854E+02  0.32291212208E+02  0.57532794972E+02  0.72282759436E+02  0.17770000000E+01 0. -1.
         15    1    3    3    0    0 -0.41500076817E+02 -0.31294915027E+00 -0.11339967754E+02  0.43059341735E+02  0.17770000000E+01 0.  1.
</event>
<event>
 7    1  0.9742770E-004  0.1904528E+03  0.7546771E-02  0.1062295E+00
        -11   -1    0    0    0    0  0.00000000000E+00  0.00000000000E+00  0.18250000000E+03  0.18250000000E+03  0.00000000000E+00 0. -1.
         11   -1    0    0    0    0 -0.00000000000E+00 -0.00000000000E+00 -0.18250000000E+03  0.18250000000E+03  0.00000000000E+00 0. -1.
         23    2    1    2    0    0 -0.38728526740E+01  0.12941419582E+02  0.16711366618E+03  0.19045279716E+03  0.90348277214E+02 0.  0.
        -11    1    1    2    0    0 -0.34409159149E+01 -0.21815667618E+02 -0.31636154929E+02  0.38582503219E+02  0.00000000000E+00 0. -1.
         11    1    1    2    0    0  0.73137685888E+01  0.88742480361E+01 -0.13547751125E+03  0.13596469962E+03  0.00000000000E+00 0. -1.
        -15    1    3    3    0    0  0.21113203239E+01  0.46353874561E+02  0.13831751731E+03  0.14590419008E+03  0.17770000000E+01 0. -1.
         15    1    3    3    0    0 -0.59841729979E+01 -0.33412454979E+02  0.28796148870E+02  0.44548607082E+02  0.17770000000E+01 0.  1.
</event>
<event>
 7    1  0.9742770E-004  0.1917742E+03  0.7546771E-02  0.1061303E+00
        -11   -1    0    0    0    0  0.00000000000E+00  0.00000000000E+00  0.18250000000E+03  0.18250000000E+03  0.00000000000E+00 0. -1.
         11   -1    0    0    0    0 -0.00000000000E+00 -0.00000000000E+00 -0.18250000000E+03  0.18250000000E+03  0.00000000000E+00 0. -1.
         23    2    1    2    0    0 -0.90508567111E+01 -0.19123725051E+02  0.16752671694E+03  0.19177423567E+03  0.90909414867E+02 0.  0.
        -11    1    1    2    0    0  0.19188428040E+02  0.14941300608E+02 -0.54641595369E+02  0.59809214834E+02  0.00000000000E+00 0. -1.
         11    1    1    2    0    0 -0.10137571329E+02  0.41824244428E+01 -0.11288512157E+03  0.11341654949E+03  0.00000000000E+00 0. -1.
        -15    1    3    3    0    0 -0.22315499135E+02  0.27222711331E+02  0.30868749679E+02  0.46851840407E+02  0.17770000000E+01 0.  1.
         15    1    3    3    0    0  0.13264642424E+02 -0.46346436382E+02  0.13665796726E+03  0.14492239527E+03  0.17770000000E+01 0. -1.
</event>
<event>
 7    1  0.9742770E-004  0.1538924E+03  0.7546771E-02  0.1093823E+00
        -11   -1    0    0    0    0  0.00000000000E+00  0.00000000000E+00  0.18250000000E+03  0.18250000000E+03  0.00000000000E+00 0.  1.
         11   -1    0    0    0    0 -0.00000000000E+00 -0.00000000000E+00 -0.18250000000E+03  0.18250000000E+03  0.00000000000E+00 0. -1.
         23    2    1    2    0    0 -0.11373929198E+03  0.34445500482E+02  0.83086848275E+02  0.17026283052E+03  0.89235015873E+02 0.  0.
        -11    1    1    2    0    0  0.11162130112E+03 -0.40747137677E+02 -0.77188665116E+01  0.11907655098E+03  0.00000000000E+00 0.  1.
         11    1    1    2    0    0  0.21179908552E+01  0.63016371947E+01 -0.75367981764E+02  0.75660618499E+02  0.00000000000E+00 0. -1.
        -15    1    3    3    0    0 -0.57327274575E+02 -0.12029552826E+02  0.77186949883E+02  0.96912896524E+02  0.17770000000E+01 0.  1.
         15    1    3    3    0    0 -0.56412017401E+02  0.46475053308E+02  0.58998983919E+01  0.73349933997E+02  0.17770000000E+01 0. -1.
</event>
<event>
 7    1  0.9742770E-004  0.1935831E+03  0.7546771E-02  0.1059960E+00
        -11   -1    0    0    0    0  0.00000000000E+00  0.00000000000E+00  0.18250000000E+03  0.18250000000E+03  0.00000000000E+00 0. -1.
         11   -1    0    0    0    0 -0.00000000000E+00 -0.00000000000E+00 -0.18250000000E+03  0.18250000000E+03  0.00000000000E+00 0.  1.
         23    2    1    2    0    0 -0.13166549810E+02  0.17232120807E+01  0.16991378743E+03  0.19358314692E+03  0.91800937452E+02 0.  0.
        -11    1    1    2    0    0  0.11119240312E+02 -0.14004454427E+01 -0.41507850177E+02  0.42994190059E+02  0.00000000000E+00 0. -1.
         11    1    1    2    0    0  0.20473094980E+01 -0.32276663804E+00 -0.12840593726E+03  0.12842266302E+03  0.00000000000E+00 0.  1.
        -15    1    3    3    0    0 -0.34954597532E+02  0.54448745034E+01  0.17396435735E+02  0.39462187627E+02  0.17770000000E+01 0.  1.
         15    1    3    3    0    0  0.21788047723E+02 -0.37216624226E+01  0.15251735170E+03  0.15412095929E+03  0.17770000000E+01 0. -1.
</event>
<event>
 7    1  0.9742770E-004  0.1814258E+03  0.7546771E-02  0.1069313E+00
        -11   -1    0    0    0    0  0.00000000000E+00  0.00000000000E+00  0.18250000000E+03  0.18250000000E+03  0.00000000000E+00 0. -1.
         11   -1    0    0    0    0 -0.00000000000E+00 -0.00000000000E+00 -0.18250000000E+03  0.18250000000E+03  0.00000000000E+00 0. -1.
         23    2    1    2    0    0 -0.55724503237E+01 -0.12059924420E+02  0.14775103212E+03  0.17385558060E+03  0.90658157013E+02 0.  0.
        -11    1    1    2    0    0 -0.36091997487E+01  0.18085995875E+02  0.17562157290E+02  0.25466820342E+02  0.00000000000E+00 0. -1.
         11    1    1    2    0    0  0.91816500724E+01 -0.60260714551E+01 -0.16531318941E+03  0.16567759906E+03  0.00000000000E+00 0. -1.
        -15    1    3    3    0    0 -0.25764618164E+02  0.17459630443E+02  0.11905960244E+02  0.33370104325E+02  0.17770000000E+01 0.  1.
         15    1    3    3    0    0  0.20192167840E+02 -0.29519554864E+02  0.13584507188E+03  0.14048547628E+03  0.17770000000E+01 0. -1.
</event>
<event>
 7    1  0.9742770E-004  0.1256590E+03  0.7546771E-02  0.1125629E+00
        -11   -1    0    0    0    0  0.00000000000E+00  0.00000000000E+00  0.18250000000E+03  0.18250000000E+03  0.00000000000E+00 0.  1.
         11   -1    0    0    0    0 -0.00000000000E+00 -0.00000000000E+00 -0.18250000000E+03  0.18250000000E+03  0.00000000000E+00 0. -1.
         23    2    1    2    0    0 -0.36677965850E+02 -0.33024106049E+02  0.48910139756E+02  0.10425338374E+03  0.77721949871E+02 0.  0.
        -11    1    1    2    0    0  0.47801480835E+02  0.32061949998E+02  0.97870947304E+02  0.11354150137E+03  0.00000000000E+00 0.  1.
         11    1    1    2    0    0 -0.11123514985E+02  0.96215605098E+00 -0.14678108706E+03  0.14720511488E+03  0.00000000000E+00 0. -1.
        -15    1    3    3    0    0 -0.49972156688E+02  0.56275488377E+01  0.33903894450E+02  0.60675510198E+02  0.17770000000E+01 0.  1.
         15    1    3    3    0    0  0.13294190838E+02 -0.38651654887E+02  0.15006245306E+02  0.43577873545E+02  0.17770000000E+01 0. -1.
</event>
<event>
 7    1  0.9742770E-004  0.1757964E+03  0.7546771E-02  0.1073920E+00
        -11   -1    0    0    0    0  0.00000000000E+00  0.00000000000E+00  0.18250000000E+03  0.18250000000E+03  0.00000000000E+00 0.  1.
         11   -1    0    0    0    0 -0.00000000000E+00 -0.00000000000E+00 -0.18250000000E+03  0.18250000000E+03  0.00000000000E+00 0. -1.
         23    2    1    2    0    0 -0.46758401515E+02 -0.38514617407E+02  0.14049982699E+03  0.18142642673E+03  0.97496784900E+02 0.  0.
        -11    1    1    2    0    0  0.38364274538E+02  0.12652826007E+02  0.71297033837E-01  0.40396988131E+02  0.00000000000E+00 0.  1.
         11    1    1    2    0    0  0.83941269771E+01  0.25861791400E+02 -0.14057112402E+03  0.14317658514E+03  0.00000000000E+00 0. -1.
        -15    1    3    3    0    0 -0.66753375043E+02 -0.30275622503E+02  0.14185759274E+03  0.15968519263E+03  0.17770000000E+01 0.  1.
         15    1    3    3    0    0  0.19994973528E+02 -0.82389949044E+01 -0.13577657516E+01  0.21741234102E+02  0.17770000000E+01 0. -1.
</event>
<event>
 7    1  0.9742770E-004  0.1916223E+03  0.7546771E-02  0.1061417E+00
        -11   -1    0    0    0    0  0.00000000000E+00  0.00000000000E+00  0.18250000000E+03  0.18250000000E+03  0.00000000000E+00 0. -1.
         11   -1    0    0    0    0 -0.00000000000E+00 -0.00000000000E+00 -0.18250000000E+03  0.18250000000E+03  0.00000000000E+00 0.  1.
         23    2    1    2    0    0 -0.71249090247E+02  0.14685596580E+02 -0.14179007190E+03  0.18798086523E+03  0.99700960859E+02 0.  0.
        -11    1    1    2    0    0  0.70194608344E+02 -0.14178911351E+02  0.15132410738E+03  0.16741358978E+03  0.00000000000E+00 0. -1.
         11    1    1    2    0    0  0.10544819029E+01 -0.50668522835E+00 -0.95340354793E+01  0.96055449884E+01  0.00000000000E+00 0.  1.
        -15    1    3    3    0    0 -0.64779822140E+02 -0.23870084837E+02 -0.42092368312E+02  0.80877261982E+02  0.17770000000E+01 0. -1.
         15    1    3    3    0    0 -0.64692681068E+01  0.38555681416E+02 -0.99697703590E+02  0.10710360325E+03  0.17770000000E+01 0.  1.
</event>
<event>
 7    1  0.9742770E-004  0.1615285E+03  0.7546771E-02  0.1086493E+00
        -11   -1    0    0    0    0  0.00000000000E+00  0.00000000000E+00  0.18250000000E+03  0.18250000000E+03  0.00000000000E+00 0. -1.
         11   -1    0    0    0    0 -0.00000000000E+00 -0.00000000000E+00 -0.18250000000E+03  0.18250000000E+03  0.00000000000E+00 0. -1.
         23    2    1    2    0    0 -0.63224974635E+01  0.39871047756E+02  0.10980435663E+03  0.14883412269E+03  0.92005026588E+02 0.  0.
        -11    1    1    2    0    0  0.25632202535E+02 -0.41447812478E+02  0.41266317743E+02  0.63857966974E+02  0.00000000000E+00 0. -1.
         11    1    1    2    0    0 -0.19309705071E+02  0.15767647225E+01 -0.15107067437E+03  0.15230791034E+03  0.00000000000E+00 0. -1.
        -15    1    3    3    0    0 -0.20011498343E+02 -0.14087602600E+02  0.83888749968E+02  0.87403665330E+02  0.17770000000E+01 0.  1.
         15    1    3    3    0    0  0.13689000879E+02  0.53958650355E+02  0.25915606661E+02  0.61430457355E+02  0.17770000000E+01 0. -1.
</event>
<event>
 7    1  0.9742770E-004  0.1993206E+03  0.7546771E-02  0.1055802E+00
        -11   -1    0    0    0    0  0.00000000000E+00  0.00000000000E+00  0.18250000000E+03  0.18250000000E+03  0.00000000000E+00 0.  1.
         11   -1    0    0    0    0 -0.00000000000E+00 -0.00000000000E+00 -0.18250000000E+03  0.18250000000E+03  0.00000000000E+00 0.  1.
         23    2    1    2    0    0  0.11169528859E+02  0.88346647947E+01  0.16417254146E+03  0.19932058920E+03  0.11213056778E+03 0.  0.
        -11    1    1    2    0    0 -0.13592481787E+02 -0.38948013804E+01 -0.73973069916E+02  0.75312283936E+02  0.00000000000E+00 0.  1.
         11    1    1    2    0    0  0.24229529282E+01 -0.49398634142E+01 -0.90199471545E+02  0.90367126868E+02  0.00000000000E+00 0.  1.
        -15    1    3    3    0    0 -0.38718062169E+02  0.50081325692E+01  0.13677480395E+03  0.14224863604E+03  0.17770000000E+01 0.  1.
         15    1    3    3    0    0  0.49887591028E+02  0.38265322255E+01  0.27397737508E+02  0.57071953156E+02  0.17770000000E+01 0. -1.
</event>
<event>
 7    1  0.9742770E-004  0.1762843E+03  0.7546771E-02  0.1073513E+00
        -11   -1    0    0    0    0  0.00000000000E+00  0.00000000000E+00  0.18250000000E+03  0.18250000000E+03  0.00000000000E+00 0.  1.
         11   -1    0    0    0    0 -0.00000000000E+00 -0.00000000000E+00 -0.18250000000E+03  0.18250000000E+03  0.00000000000E+00 0. -1.
         23    2    1    2    0    0  0.99612417771E+02 -0.15737249949E+02 -0.64300223449E+02  0.16339065704E+03  0.11131798265E+03 0.  0.
        -11    1    1    2    0    0 -0.10785960769E+03 -0.85670037236E+00  0.10892256575E+03  0.15329238153E+03  0.00000000000E+00 0.  1.
         11    1    1    2    0    0  0.82471899154E+01  0.16593950321E+02 -0.44622342305E+02  0.48316961427E+02  0.00000000000E+00 0. -1.
        -15    1    3    3    0    0 -0.45569320213E+00  0.51110861873E+01  0.26260346741E+02  0.26815935529E+02  0.17770000000E+01 0.  1.
         15    1    3    3    0    0  0.10006811097E+03 -0.20848336136E+02 -0.90560570191E+02  0.13657472151E+03  0.17770000000E+01 0. -1.
</event>
<event>
 7    1  0.9742770E-004  0.1533106E+03  0.7546771E-02  0.1094401E+00
        -11   -1    0    0    0    0  0.00000000000E+00  0.00000000000E+00  0.18250000000E+03  0.18250000000E+03  0.00000000000E+00 0. -1.
         11   -1    0    0    0    0 -0.00000000000E+00 -0.00000000000E+00 -0.18250000000E+03  0.18250000000E+03  0.00000000000E+00 0. -1.
         23    2    1    2    0    0 -0.41882679954E+02  0.11428685653E+02 -0.80694958358E+02  0.13013399028E+03  0.92403492281E+02 0.  0.
        -11    1    1    2    0    0  0.26287916256E+02  0.12538026458E+02  0.15371355571E+03  0.15644843833E+03  0.00000000000E+00 0. -1.
         11    1    1    2    0    0  0.15594763698E+02 -0.23966712111E+02 -0.73018597347E+02  0.78417571390E+02  0.00000000000E+00 0. -1.
        -15    1    3    3    0    0 -0.35541069494E+02  0.39939968000E+02 -0.11093426084E+02  0.54631405765E+02  0.17770000000E+01 0.  1.
         15    1    3    3    0    0 -0.63416104605E+01 -0.28511282347E+02 -0.69601532275E+02  0.75502584514E+02  0.17770000000E+01 0. -1.
</event>
<event>
 7    1  0.9742770E-004  0.1909004E+03  0.7546771E-02  0.1061958E+00
        -11   -1    0    0    0    0  0.00000000000E+00  0.00000000000E+00  0.18250000000E+03  0.18250000000E+03  0.00000000000E+00 0. -1.
         11   -1    0    0    0    0 -0.00000000000E+00 -0.00000000000E+00 -0.18250000000E+03  0.18250000000E+03  0.00000000000E+00 0. -1.
         23    2    1    2    0    0 -0.17347682482E+01  0.12973094440E+01  0.16816827493E+03  0.19177483577E+03  0.92153819829E+02 0.  0.
        -11    1    1    2    0    0 -0.63776971572E+01  0.14789108346E+01 -0.20138617123E+01  0.68496596472E+01  0.00000000000E+00 0. -1.
         11    1    1    2    0    0  0.81124654054E+01 -0.27762202785E+01 -0.16615441322E+03  0.16637550458E+03  0.00000000000E+00 0. -1.
        -15    1    3    3    0    0  0.34964733984E+02 -0.18494391471E+02  0.12748560912E+03  0.13349274662E+03  0.17770000000E+01 0. -1.
         15    1    3    3    0    0 -0.36699502232E+02  0.19791700915E+02  0.40682665805E+02  0.58282089146E+02  0.17770000000E+01 0.  1.
</event>
<event>
 7    1  0.9742770E-004  0.1875183E+03  0.7546771E-02  0.1064529E+00
        -11   -1    0    0    0    0  0.00000000000E+00  0.00000000000E+00  0.18250000000E+03  0.18250000000E+03  0.00000000000E+00 0. -1.
         11   -1    0    0    0    0 -0.00000000000E+00 -0.00000000000E+00 -0.18250000000E+03  0.18250000000E+03  0.00000000000E+00 0. -1.
         23    2    1    2    0    0 -0.38145399947E+01 -0.22610030992E+01  0.16165503000E+03  0.18579097178E+03  0.91467336351E+02 0.  0.
        -11    1    1    2    0    0 -0.59413851085E+01  0.11641114155E+02  0.34762693553E+01  0.13524054289E+02  0.00000000000E+00 0. -1.
         11    1    1    2    0    0  0.97559251032E+01 -0.93801110558E+01 -0.16513129936E+03  0.16568497393E+03  0.00000000000E+00 0. -1.
        -15    1    3    3    0    0  0.23563059940E+01  0.14245264824E+02 -0.70449424832E+01  0.16163808074E+02  0.17770000000E+01 0.  1.
         15    1    3    3    0    0 -0.61708459886E+01 -0.16506267924E+02  0.16869997249E+03  0.16962716371E+03  0.17770000000E+01 0. -1.
</event>
