<event>
 7    1  0.2187028E-004  0.5076476E+03  0.7546771E-02  0.9382858E-01
        -11   -1    0    0    0    0  0.00000000000E+00  0.00000000000E+00  0.50000000000E+03  0.50000000000E+03  0.00000000000E+00 0.  1.
         11   -1    0    0    0    0 -0.00000000000E+00 -0.00000000000E+00 -0.50000000000E+03  0.50000000000E+03  0.00000000000E+00 0. -1.
         23    2    1    2    0    0 -0.24033504674E+02  0.64365323370E+01  0.38149655718E+03  0.39049891994E+03  0.79565979167E+02 0.  0.
        -11    1    1    2    0    0  0.35346093363E+02 -0.15217974326E+02  0.11064753672E+03  0.11714866811E+03  0.00000000000E+00 0.  1.
         11    1    1    2    0    0 -0.11312588689E+02  0.87814419892E+01 -0.49214409390E+03  0.49235241194E+03  0.00000000000E+00 0. -1.
        -15    1    3    3    0    0  0.19488284437E+02  0.16178202772E+02  0.25684957753E+03  0.25810151236E+03  0.17770000000E+01 0. -1.
         15    1    3    3    0    0 -0.43521789111E+02 -0.97416704350E+01  0.12464697965E+03  0.13239740759E+03  0.17770000000E+01 0.  1.
</event>
<event>
 7    1  0.2187028E-004  0.4920464E+03  0.7546771E-02  0.9417784E-01
        -11   -1    0    0    0    0  0.00000000000E+00  0.00000000000E+00  0.50000000000E+03  0.50000000000E+03  0.00000000000E+00 0. -1.
         11   -1    0    0    0    0 -0.00000000000E+00 -0.00000000000E+00 -0.50000000000E+03  0.50000000000E+03  0.00000000000E+00 0.  1.
         23    2    1    2    0    0  0.12883609363E+01 -0.23944888866E+02  0.47282093234E+03  0.48245413864E+03  0.92883498324E+02 0.  0.
        -11    1    1    2    0    0  0.72432848911E+01 -0.13918138018E+02  0.18747909951E+02  0.24447164855E+02  0.00000000000E+00 0. -1.
         11    1    1    2    0    0 -0.85316458273E+01  0.37863026884E+02 -0.49156884229E+03  0.49309869650E+03  0.00000000000E+00 0.  1.
        -15    1    3    3    0    0 -0.38771234691E+02  0.10928520813E+02  0.25947908815E+03  0.26259321416E+03  0.17770000000E+01 0.  1.
         15    1    3    3    0    0  0.40059595627E+02 -0.34873409679E+02  0.21334184419E+03  0.21986092448E+03  0.17770000000E+01 0. -1.
</event>
<event>
 7    1  0.2187028E-004  0.3728851E+03  0.7546771E-02  0.9740094E-01
        -11   -1    0    0    0    0  0.00000000000E+00  0.00000000000E+00  0.50000000000E+03  0.50000000000E+03  0.00000000000E+00 0. -1.
         11   -1    0    0    0    0 -0.00000000000E+00 -0.00000000000E+00 -0.50000000000E+03  0.50000000000E+03  0.00000000000E+00 0.  1.
         23    2    1    2    0    0  0.26767256078E+02  0.18123724735E+03  0.94015360735E+02  0.22632336733E+03  0.93914603331E+02 0.  0.
        -11    1    1    2    0    0 -0.27486318542E+02 -0.18732546756E+03  0.31343505712E+03  0.36618009713E+03  0.00000000000E+00 0. -1.
         11    1    1    2    0    0  0.71906246407E+00  0.60882202090E+01 -0.40745041785E+03  0.40749653555E+03  0.00000000000E+00 0.  1.
        -15    1    3    3    0    0  0.54694629910E+01 -0.10946063336E+02  0.76903578106E+01  0.14561272617E+02  0.17770000000E+01 0.  1.
         15    1    3    3    0    0  0.21297793087E+02  0.19218331069E+03  0.86325002924E+02  0.21176209471E+03  0.17770000000E+01 0. -1.
</event>
<event>
 7    1  0.2187028E-004  0.3306001E+03  0.7546771E-02  0.9887095E-01
        -11   -1    0    0    0    0  0.00000000000E+00  0.00000000000E+00  0.50000000000E+03  0.50000000000E+03  0.00000000000E+00 0.  1.
         11   -1    0    0    0    0 -0.00000000000E+00 -0.00000000000E+00 -0.50000000000E+03  0.50000000000E+03  0.00000000000E+00 0. -1.
         23    2    1    2    0    0  0.21838070770E+02 -0.19354548610E+03  0.18793340373E+03  0.28554815627E+03  0.91005652504E+02 0.  0.
        -11    1    1    2    0    0 -0.16112381528E+02  0.19964917888E+03  0.22511193362E+03  0.30132173191E+03  0.00000000000E+00 0.  1.
         11    1    1    2    0    0 -0.57256892422E+01 -0.61036927820E+01 -0.41304533735E+03  0.41313011181E+03  0.00000000000E+00 0. -1.
        -15    1    3    3    0    0  0.10078215755E+02 -0.30945781016E+01  0.47323609119E+02  0.48516271038E+02  0.17770000000E+01 0.  1.
         15    1    3    3    0    0  0.11759855015E+02 -0.19045090800E+03  0.14060979461E+03  0.23703188523E+03  0.17770000000E+01 0. -1.
</event>
<event>
 7    1  0.2187028E-004  0.3677021E+03  0.7546771E-02  0.9756960E-01
        -11   -1    0    0    0    0  0.00000000000E+00  0.00000000000E+00  0.50000000000E+03  0.50000000000E+03  0.00000000000E+00 0.  1.
         11   -1    0    0    0    0 -0.00000000000E+00 -0.00000000000E+00 -0.50000000000E+03  0.50000000000E+03  0.00000000000E+00 0.  1.
         23    2    1    2    0    0  0.22250496008E+02 -0.10897264675E+03  0.40117200341E+03  0.42605622733E+03  0.90635590239E+02 0.  0.
        -11    1    1    2    0    0  0.34427282385E+02  0.21812820583E+03 -0.88412312264E+02  0.23786947873E+03  0.00000000000E+00 0.  1.
         11    1    1    2    0    0 -0.56677778394E+02 -0.10915555908E+03 -0.31275969114E+03  0.33607429394E+03  0.00000000000E+00 0.  1.
        -15    1    3    3    0    0  0.10906519722E+02 -0.12396565923E+03  0.35424564655E+03  0.37547246592E+03  0.17770000000E+01 0.  1.
         15    1    3    3    0    0  0.11343976287E+02  0.14993012475E+02  0.46926356860E+02  0.50583761408E+02  0.17770000000E+01 0. -1.
</event>
<event>
 7    1  0.2187028E-004  0.5158366E+03  0.7546771E-02  0.9365055E-01
        -11   -1    0    0    0    0  0.00000000000E+00  0.00000000000E+00  0.50000000000E+03  0.50000000000E+03  0.00000000000E+00 0.  1.
         11   -1    0    0    0    0 -0.00000000000E+00 -0.00000000000E+00 -0.50000000000E+03  0.50000000000E+03  0.00000000000E+00 0.  1.
         23    2    1    2    0    0 -0.53824677961E+02  0.89497260527E+01  0.17127146072E+03  0.20058360143E+03  0.89009405975E+02 0.  0.
        -11    1    1    2    0    0  0.41086046634E+02  0.49253715947E+01  0.31252540622E+03  0.31525299689E+03  0.00000000000E+00 0.  1.
         11    1    1    2    0    0  0.12738631327E+02 -0.13875097647E+02 -0.48379686694E+03  0.48416340168E+03  0.00000000000E+00 0.  1.
        -15    1    3    3    0    0 -0.35775827293E+02  0.35669220146E+02  0.37425335247E+02  0.62896872193E+02  0.17770000000E+01 0.  1.
         15    1    3    3    0    0 -0.18048850668E+02 -0.26719494094E+02  0.13384612547E+03  0.13768672924E+03  0.17770000000E+01 0. -1.
</event>
<event>
 7    1  0.2187028E-004  0.5066211E+03  0.7546771E-02  0.9385115E-01
        -11   -1    0    0    0    0  0.00000000000E+00  0.00000000000E+00  0.50000000000E+03  0.50000000000E+03  0.00000000000E+00 0. -1.
         11   -1    0    0    0    0 -0.00000000000E+00 -0.00000000000E+00 -0.50000000000E+03  0.50000000000E+03  0.00000000000E+00 0.  1.
         23    2    1    2    0    0  0.95736856891E+01  0.30779517470E+01  0.40768750287E+03  0.41693404275E+03  0.86739649277E+02 0.  0.
        -11    1    1    2    0    0 -0.26604190049E+02 -0.67536120519E+01  0.85383682994E+02  0.89687053277E+02  0.00000000000E+00 0. -1.
         11    1    1    2    0    0  0.17030504360E+02  0.36756603049E+01 -0.49307118587E+03  0.49337890398E+03  0.00000000000E+00 0.  1.
        -15    1    3    3    0    0  0.34981148112E+02  0.17284866062E+02  0.92611191500E+02  0.10051088418E+03  0.17770000000E+01 0.  1.
         15    1    3    3    0    0 -0.25407462422E+02 -0.14206914315E+02  0.31507631137E+03  0.31642315857E+03  0.17770000000E+01 0. -1.
</event>
<event>
 7    1  0.2187028E-004  0.4845449E+03  0.7546771E-02  0.9435072E-01
        -11   -1    0    0    0    0  0.00000000000E+00  0.00000000000E+00  0.50000000000E+03  0.50000000000E+03  0.00000000000E+00 0. -1.
         11   -1    0    0    0    0 -0.00000000000E+00 -0.00000000000E+00 -0.50000000000E+03  0.50000000000E+03  0.00000000000E+00 0.  1.
         23    2    1    2    0    0 -0.10647427883E+02  0.16099803085E+02  0.45984371362E+03  0.46923275620E+03  0.91381437677E+02 0.  0.
        -11    1    1    2    0    0  0.16945652767E+02 -0.13865189060E+02  0.32057216711E+02  0.38820919086E+02  0.00000000000E+00 0. -1.
         11    1    1    2    0    0 -0.62982248837E+01 -0.22346140253E+01 -0.49190093033E+03  0.49194632471E+03  0.00000000000E+00 0.  1.
        -15    1    3    3    0    0  0.59658669681E+01  0.44751847484E+02  0.12809362965E+03  0.13582877128E+03  0.17770000000E+01 0.  1.
         15    1    3    3    0    0 -0.16613294851E+02 -0.28652044399E+02  0.33175008397E+03  0.33340398492E+03  0.17770000000E+01 0. -1.
</event>
<event>
 7    1  0.2187028E-004  0.5020376E+03  0.7546771E-02  0.9395262E-01
        -11   -1    0    0    0    0  0.00000000000E+00  0.00000000000E+00  0.50000000000E+03  0.50000000000E+03  0.00000000000E+00 0. -1.
         11   -1    0    0    0    0 -0.00000000000E+00 -0.00000000000E+00 -0.50000000000E+03  0.50000000000E+03  0.00000000000E+00 0.  1.
         23    2    1    2    0    0 -0.40658644199E+02  0.11217771633E+02  0.49177603540E+03  0.50203763804E+03  0.91755965859E+02 0.  0.
        -11    1    1    2    0    0  0.10217076889E+02  0.13363351207E+02 -0.28927258851E+02  0.33462727329E+02  0.00000000000E+00 0. -1.
         11    1    1    2    0    0  0.30441567310E+02 -0.24581122840E+02 -0.46284877655E+03  0.46449963463E+03  0.00000000000E+00 0.  1.
        -15    1    3    3    0    0  0.19091286152E+02  0.17015347867E+01  0.30694191498E+03  0.30754490620E+03  0.17770000000E+01 0. -1.
         15    1    3    3    0    0 -0.59749930351E+02  0.95162368464E+01  0.18483412042E+03  0.19449273184E+03  0.17770000000E+01 0.  1.
</event>
<event>
 7    1  0.2187028E-004  0.5308627E+03  0.7546771E-02  0.9333283E-01
        -11   -1    0    0    0    0  0.00000000000E+00  0.00000000000E+00  0.50000000000E+03  0.50000000000E+03  0.00000000000E+00 0.  1.
         11   -1    0    0    0    0 -0.00000000000E+00 -0.00000000000E+00 -0.50000000000E+03  0.50000000000E+03  0.00000000000E+00 0. -1.
         23    2    1    2    0    0  0.16885072565E+02 -0.14452034823E+02  0.30814309432E+02  0.99163940068E+02  0.91596934217E+02 0.  0.
        -11    1    1    2    0    0  0.22787218319E+03 -0.96341291660E+02  0.35377451860E+03  0.43169872175E+03  0.00000000000E+00 0.  1.
         11    1    1    2    0    0 -0.24475725575E+03  0.11079332648E+03 -0.38458882803E+03  0.46913733819E+03  0.00000000000E+00 0. -1.
        -15    1    3    3    0    0  0.24954392150E+02 -0.50987661853E+02  0.18256070230E+02  0.59656560227E+02  0.17770000000E+01 0. -1.
         15    1    3    3    0    0 -0.80693195854E+01  0.36535627030E+02  0.12558239202E+02  0.39507379841E+02  0.17770000000E+01 0.  1.
</event>
<event>
 7    1  0.2187028E-004  0.4155473E+03  0.7546771E-02  0.9611547E-01
        -11   -1    0    0    0    0  0.00000000000E+00  0.00000000000E+00  0.50000000000E+03  0.50000000000E+03  0.00000000000E+00 0. -1.
         11   -1    0    0    0    0 -0.00000000000E+00 -0.00000000000E+00 -0.50000000000E+03  0.50000000000E+03  0.00000000000E+00 0.  1.
         23    2    1    2    0    0 -0.14501307953E+03 -0.35822486603E+02  0.38008839572E+03  0.41853122674E+03  0.91592332738E+02 0.  0.
        -11    1    1    2    0    0  0.15463361903E+03  0.35014715688E+02  0.38186743500E+02  0.16308223026E+03  0.00000000000E+00 0. -1.
         11    1    1    2    0    0 -0.96205394977E+01  0.80777091443E+00 -0.41827513922E+03  0.41838654300E+03  0.00000000000E+00 0.  1.
        -15    1    3    3    0    0 -0.83447561883E+02  0.18258693055E+02  0.13186718481E+03  0.15712729748E+03  0.17770000000E+01 0. -1.
         15    1    3    3    0    0 -0.61565517644E+02 -0.54081179657E+02  0.24822121091E+03  0.26140392926E+03  0.17770000000E+01 0.  1.
</event>
<event>
 7    1  0.2187028E-004  0.4906886E+03  0.7546771E-02  0.9420889E-01
        -11   -1    0    0    0    0  0.00000000000E+00  0.00000000000E+00  0.50000000000E+03  0.50000000000E+03  0.00000000000E+00 0.  1.
         11   -1    0    0    0    0 -0.00000000000E+00 -0.00000000000E+00 -0.50000000000E+03  0.50000000000E+03  0.00000000000E+00 0.  1.
         23    2    1    2    0    0  0.25758589996E+01 -0.26117717279E+01  0.47216529913E+03  0.48095014398E+03  0.91430382748E+02 0.  0.
        -11    1    1    2    0    0 -0.38986241555E+01 -0.17916304330E+02  0.19608737100E+02  0.26845778100E+02  0.00000000000E+00 0.  1.
         11    1    1    2    0    0  0.13227651559E+01  0.20528076058E+02 -0.49177403623E+03  0.49220407792E+03  0.00000000000E+00 0.  1.
        -15    1    3    3    0    0 -0.18026585433E+02 -0.57473889106E+00  0.45073817579E+03  0.45110237082E+03  0.17770000000E+01 0.  1.
         15    1    3    3    0    0  0.20602444433E+02 -0.20370328368E+01  0.21427123334E+02  0.29847773163E+02  0.17770000000E+01 0. -1.
</event>
<event>
 7    1  0.2187028E-004  0.5307723E+03  0.7546771E-02  0.9333470E-01
        -11   -1    0    0    0    0  0.00000000000E+00  0.00000000000E+00  0.50000000000E+03  0.50000000000E+03  0.00000000000E+00 0. -1.
         11   -1    0    0    0    0 -0.00000000000E+00 -0.00000000000E+00 -0.50000000000E+03  0.50000000000E+03  0.00000000000E+00 0.  1.
         23    2    1    2    0    0  0.49084472754E+02  0.45824942593E+02  0.85615741863E+02  0.14142019858E+03  0.90334968218E+02 0.  0.
        -11    1    1    2    0    0 -0.43209872095E+02 -0.51202225399E+02  0.38354437799E+03  0.38935209107E+03  0.00000000000E+00 0. -1.
         11    1    1    2    0    0 -0.58746006590E+01  0.53772828056E+01 -0.46916011985E+03  0.46922771035E+03  0.00000000000E+00 0.  1.
        -15    1    3    3    0    0  0.56668849519E+02  0.39097282329E+02  0.15551904747E+02  0.70604358659E+02  0.17770000000E+01 0. -1.
         15    1    3    3    0    0 -0.75843767649E+01  0.67276602636E+01  0.70063837116E+02  0.70815839923E+02  0.17770000000E+01 0.  1.
</event>
<event>
 7    1  0.2187028E-004  0.5010862E+03  0.7546771E-02  0.9397383E-01
        -11   -1    0    0    0    0  0.00000000000E+00  0.00000000000E+00  0.50000000000E+03  0.50000000000E+03  0.00000000000E+00 0.  1.
         11   -1    0    0    0    0 -0.00000000000E+00 -0.00000000000E+00 -0.50000000000E+03  0.50000000000E+03  0.00000000000E+00 0.  1.
         23    2    1    2    0    0  0.40611097323E+01 -0.77498778577E+00  0.49009905234E+03  0.49870464546E+03  0.92152857151E+02 0.  0.
        -11    1    1    2    0    0  0.16706333325E+01 -0.38288652419E+01  0.47877000058E+01  0.63539984355E+01  0.00000000000E+00 0.  1.
         11    1    1    2    0    0 -0.57317430647E+01  0.46038530277E+01 -0.49488675234E+03  0.49494135611E+03  0.00000000000E+00 0.  1.
        -15    1    3    3    0    0 -0.30493113904E+02 -0.29104553299E+02  0.32227464303E+03  0.32502462720E+03  0.17770000000E+01 0.  1.
         15    1    3    3    0    0  0.34554223636E+02  0.28329565513E+02  0.16782440931E+03  0.17368001826E+03  0.17770000000E+01 0. -1.
</event>
<event>
 7    1  0.2187028E-004  0.4650716E+03  0.7546771E-02  0.9481546E-01
        -11   -1    0    0    0    0  0.00000000000E+00  0.00000000000E+00  0.50000000000E+03  0.50000000000E+03  0.00000000000E+00 0.  1.
         11   -1    0    0    0    0 -0.00000000000E+00 -0.00000000000E+00 -0.50000000000E+03  0.50000000000E+03  0.00000000000E+00 0. -1.
         23    2    1    2    0    0 -0.42314253859E+02  0.80299783044E+02  0.44974606915E+03  0.46802881747E+03  0.92416968291E+02 0.  0.
        -11    1    1    2    0    0  0.38157561165E+02 -0.65456439524E+02  0.59637597190E+01  0.76000732754E+02  0.00000000000E+00 0.  1.
         11    1    1    2    0    0  0.41566926942E+01 -0.14843343521E+02 -0.45570982887E+03  0.45597044978E+03  0.00000000000E+00 0. -1.
        -15    1    3    3    0    0 -0.18042482480E+02 -0.12969571138E+02  0.30105596570E+02  0.37459920227E+02  0.17770000000E+01 0. -1.
         15    1    3    3    0    0 -0.24271771379E+02  0.93269354183E+02  0.41964047258E+03  0.43056889724E+03  0.17770000000E+01 0.  1.
</event>
<event>
 7    1  0.2187028E-004  0.4845089E+03  0.7546771E-02  0.9435155E-01
        -11   -1    0    0    0    0  0.00000000000E+00  0.00000000000E+00  0.50000000000E+03  0.50000000000E+03  0.00000000000E+00 0.  1.
         11   -1    0    0    0    0 -0.00000000000E+00 -0.00000000000E+00 -0.50000000000E+03  0.50000000000E+03  0.00000000000E+00 0. -1.
         23    2    1    2    0    0  0.61331922655E+02 -0.17329052013E+02  0.45413610741E+03  0.46768250665E+03  0.91790098537E+02 0.  0.
        -11    1    1    2    0    0 -0.12679991911E+02  0.39848827564E+01  0.36629146216E+02  0.38966085741E+02  0.00000000000E+00 0.  1.
         11    1    1    2    0    0 -0.48651930744E+02  0.13344169257E+02 -0.49076525363E+03  0.49335140761E+03  0.00000000000E+00 0. -1.
        -15    1    3    3    0    0 -0.12744654105E+02 -0.15907171353E+02  0.25534111504E+02  0.32720221394E+02  0.17770000000E+01 0.  1.
         15    1    3    3    0    0  0.74076576760E+02 -0.14218806599E+01  0.42860199591E+03  0.43496228526E+03  0.17770000000E+01 0. -1.
</event>
<event>
 7    1  0.2187028E-004  0.3311780E+03  0.7546771E-02  0.9884930E-01
        -11   -1    0    0    0    0  0.00000000000E+00  0.00000000000E+00  0.50000000000E+03  0.50000000000E+03  0.00000000000E+00 0.  1.
         11   -1    0    0    0    0 -0.00000000000E+00 -0.00000000000E+00 -0.50000000000E+03  0.50000000000E+03  0.00000000000E+00 0.  1.
         23    2    1    2    0    0  0.29510225684E+02 -0.27634310794E+03  0.28398471284E+03  0.40747181738E+03  0.90275124489E+02 0.  0.
        -11    1    1    2    0    0 -0.83078345623E+02  0.27626411242E+03  0.14910595712E+02  0.28887055438E+03  0.00000000000E+00 0.  1.
         11    1    1    2    0    0  0.53568119939E+02  0.78995516846E-01 -0.29889530855E+03  0.30365762824E+03  0.00000000000E+00 0.  1.
        -15    1    3    3    0    0 -0.31670553659E+02 -0.77667314182E+02  0.71898497355E+02  0.11048885605E+03  0.17770000000E+01 0. -1.
         15    1    3    3    0    0  0.61180779343E+02 -0.19867579376E+03  0.21208621549E+03  0.29698296132E+03  0.17770000000E+01 0.  1.
</event>
<event>
 7    1  0.2187028E-004  0.4911213E+03  0.7546771E-02  0.9419899E-01
        -11   -1    0    0    0    0  0.00000000000E+00  0.00000000000E+00  0.50000000000E+03  0.50000000000E+03  0.00000000000E+00 0. -1.
         11   -1    0    0    0    0 -0.00000000000E+00 -0.00000000000E+00 -0.50000000000E+03  0.50000000000E+03  0.00000000000E+00 0. -1.
         23    2    1    2    0    0 -0.31597891426E+02  0.11022856869E+02  0.48558844813E+03  0.49505621790E+03  0.90358108736E+02 0.  0.
        -11    1    1    2    0    0  0.22256719191E+02  0.10985313546E+02 -0.70410528715E+01  0.25799517213E+02  0.00000000000E+00 0. -1.
         11    1    1    2    0    0  0.93411722344E+01 -0.22008170415E+02 -0.47854739526E+03  0.47914426488E+03  0.00000000000E+00 0. -1.
        -15    1    3    3    0    0 -0.52270398262E+02  0.50994715504E+01  0.45258192665E+03  0.45562238444E+03  0.17770000000E+01 0. -1.
         15    1    3    3    0    0  0.20672506836E+02  0.59233853187E+01  0.33006521476E+02  0.39433833461E+02  0.17770000000E+01 0.  1.
</event>
<event>
 7    1  0.2187028E-004  0.4992146E+03  0.7546771E-02  0.9401569E-01
        -11   -1    0    0    0    0  0.00000000000E+00  0.00000000000E+00  0.50000000000E+03  0.50000000000E+03  0.00000000000E+00 0. -1.
         11   -1    0    0    0    0 -0.00000000000E+00 -0.00000000000E+00 -0.50000000000E+03  0.50000000000E+03  0.00000000000E+00 0. -1.
         23    2    1    2    0    0 -0.74168550694E+01  0.47557336661E+01  0.49067910762E+03  0.49904197959E+03  0.90549897810E+02 0.  0.
        -11    1    1    2    0    0  0.59929897547E+01  0.77514581352E+01  0.31451722366E+00  0.98030582221E+01  0.00000000000E+00 0. -1.
         11    1    1    2    0    0  0.14238653147E+01 -0.12507191801E+02 -0.49099362485E+03  0.49115496219E+03  0.00000000000E+00 0. -1.
        -15    1    3    3    0    0 -0.17670279459E+02 -0.18108621666E+02  0.38125155584E+02  0.45791332936E+02  0.17770000000E+01 0.  1.
         15    1    3    3    0    0  0.10253424390E+02  0.22864355332E+02  0.45255395204E+03  0.45325064666E+03  0.17770000000E+01 0. -1.
</event>
<event>
 7    1  0.2187028E-004  0.5199146E+03  0.7546771E-02  0.9356320E-01
        -11   -1    0    0    0    0  0.00000000000E+00  0.00000000000E+00  0.50000000000E+03  0.50000000000E+03  0.00000000000E+00 0. -1.
         11   -1    0    0    0    0 -0.00000000000E+00 -0.00000000000E+00 -0.50000000000E+03  0.50000000000E+03  0.00000000000E+00 0. -1.
         23    2    1    2    0    0  0.85001578409E+01  0.68554808588E+02  0.17034481523E+03  0.20394206262E+03  0.88334559300E+02 0.  0.
        -11    1    1    2    0    0 -0.69438644198E+01 -0.62274995629E+02  0.30969701030E+03  0.31597251545E+03  0.00000000000E+00 0. -1.
         11    1    1    2    0    0 -0.15562934212E+01 -0.62798129590E+01 -0.48004182552E+03  0.48008542193E+03  0.00000000000E+00 0. -1.
        -15    1    3    3    0    0 -0.26024150749E+01  0.65863017536E+02  0.17817081064E+03  0.18998080202E+03  0.17770000000E+01 0. -1.
         15    1    3    3    0    0  0.11102572916E+02  0.26917910519E+01 -0.78259954101E+01  0.13961260601E+02  0.17770000000E+01 0.  1.
</event>
<event>
 7    1  0.2187028E-004  0.4120812E+03  0.7546771E-02  0.9621363E-01
        -11   -1    0    0    0    0  0.00000000000E+00  0.00000000000E+00  0.50000000000E+03  0.50000000000E+03  0.00000000000E+00 0.  1.
         11   -1    0    0    0    0 -0.00000000000E+00 -0.00000000000E+00 -0.50000000000E+03  0.50000000000E+03  0.00000000000E+00 0. -1.
         23    2    1    2    0    0 -0.30713755451E+02  0.97239265050E+02  0.82650406909E+02  0.16545007150E+03  0.10071656744E+03 0.  0.
        -11    1    1    2    0    0  0.33608575018E+02 -0.10905355387E+03  0.36720611307E+03  0.38452898902E+03  0.00000000000E+00 0.  1.
         11    1    1    2    0    0 -0.28948195675E+01  0.11814288824E+02 -0.44985651997E+03  0.45002093947E+03  0.00000000000E+00 0. -1.
        -15    1    3    3    0    0 -0.36537324560E+02  0.10563011482E+03  0.96825395509E+02  0.14788851269E+03  0.17770000000E+01 0.  1.
         15    1    3    3    0    0  0.58235691091E+01 -0.83908497676E+01 -0.14174988600E+02  0.17561558809E+02  0.17770000000E+01 0. -1.
</event>
<event>
 6    1  0.2187028E-004  0.4303126E+03  0.7546771E-02  0.9570847E-01
        -11   -1    0    0    0    0  0.00000000000E+00  0.00000000000E+00  0.50000000000E+03  0.50000000000E+03  0.00000000000E+00 0. -1.
         11   -1    0    0    0    0 -0.00000000000E+00 -0.00000000000E+00 -0.50000000000E+03  0.50000000000E+03  0.00000000000E+00 0. -1.
        -11    1    1    2    0    0  0.80793706233E+01  0.42729678098E+02  0.43432182970E+03  0.43649347461E+03  0.00000000000E+00 0. -1.
         11    1    1    2    0    0 -0.72999083383E+01  0.39418250354E+01 -0.42536240788E+03  0.42544330373E+03  0.00000000000E+00 0. -1.
        -15    1    1    2    0    0 -0.39731895586E+02 -0.78130728751E+02 -0.57610559378E+01  0.87860012501E+02  0.17770000000E+01 0.  1.
         15    1    1    2    0    0  0.38952433301E+02  0.31459225617E+02 -0.31983658824E+01  0.50203209159E+02  0.17770000000E+01 0. -1.
</event>
<event>
 7    1  0.2187028E-004  0.5019868E+03  0.7546771E-02  0.9395375E-01
        -11   -1    0    0    0    0  0.00000000000E+00  0.00000000000E+00  0.50000000000E+03  0.50000000000E+03  0.00000000000E+00 0.  1.
         11   -1    0    0    0    0 -0.00000000000E+00 -0.00000000000E+00 -0.50000000000E+03  0.50000000000E+03  0.00000000000E+00 0.  1.
         23    2    1    2    0    0  0.32072254644E+02 -0.91786755651E+01  0.49320754794E+03  0.50198684786E+03  0.87316851035E+02 0.  0.
        -11    1    1    2    0    0 -0.36801871615E+02  0.95442872421E+01 -0.14903792896E+03  0.15381084306E+03  0.00000000000E+00 0.  1.
         11    1    1    2    0    0  0.47296169709E+01 -0.36561167692E+00 -0.34416961898E+03  0.34420230908E+03  0.00000000000E+00 0.  1.
        -15    1    3    3    0    0 -0.63505015902E+01 -0.26174154092E+02  0.38423922522E+03  0.38518613052E+03  0.17770000000E+01 0.  1.
         15    1    3    3    0    0  0.38422756234E+02  0.16995478526E+02  0.10896832272E+03  0.11680071734E+03  0.17770000000E+01 0. -1.
</event>
<event>
 6    1  0.2187028E-004  0.5019147E+03  0.7546771E-02  0.9395536E-01
        -11   -1    0    0    0    0  0.00000000000E+00  0.00000000000E+00  0.50000000000E+03  0.50000000000E+03  0.00000000000E+00 0.  1.
         11   -1    0    0    0    0 -0.00000000000E+00 -0.00000000000E+00 -0.50000000000E+03  0.50000000000E+03  0.00000000000E+00 0. -1.
        -11    1    1    2    0    0  0.19176907788E+02  0.79959993531E+02  0.49125107829E+03  0.49808531024E+03  0.00000000000E+00 0.  1.
         11    1    1    2    0    0 -0.76749878598E+01  0.36049582516E+01 -0.55109444391E+02  0.55757977221E+02  0.00000000000E+00 0. -1.
        -15    1    1    2    0    0 -0.20656949998E+02 -0.30314325691E+02 -0.12238875770E+03  0.12778041190E+03  0.17770000000E+01 0.  1.
         15    1    1    2    0    0  0.91550300698E+01 -0.53250626092E+02 -0.31375287620E+03  0.31837630064E+03  0.17770000000E+01 0. -1.
</event>
<event>
 7    1  0.2187028E-004  0.5037664E+03  0.7546771E-02  0.9391421E-01
        -11   -1    0    0    0    0  0.00000000000E+00  0.00000000000E+00  0.50000000000E+03  0.50000000000E+03  0.00000000000E+00 0. -1.
         11   -1    0    0    0    0 -0.00000000000E+00 -0.00000000000E+00 -0.50000000000E+03  0.50000000000E+03  0.00000000000E+00 0. -1.
         23    2    1    2    0    0 -0.30005637955E+02 -0.42842185810E+00  0.49469384466E+03  0.50376638027E+03  0.90321891544E+02 0.  0.
        -11    1    1    2    0    0  0.51216055040E+01  0.22862345853E+01 -0.17266345940E+02  0.18154459883E+02  0.00000000000E+00 0. -1.
         11    1    1    2    0    0  0.24884032451E+02 -0.18578127272E+01 -0.47742749872E+03  0.47807915984E+03  0.00000000000E+00 0. -1.
        -15    1    3    3    0    0 -0.12061235461E+02 -0.31318970882E+02  0.70861705341E+02  0.78427612170E+02  0.17770000000E+01 0.  1.
         15    1    3    3    0    0 -0.17944402494E+02  0.30890549024E+02  0.42383213932E+03  0.42533876810E+03  0.17770000000E+01 0. -1.
</event>
<event>
 7    1  0.2187028E-004  0.4617580E+03  0.7546771E-02  0.9489695E-01
        -11   -1    0    0    0    0  0.00000000000E+00  0.00000000000E+00  0.50000000000E+03  0.50000000000E+03  0.00000000000E+00 0.  1.
         11   -1    0    0    0    0 -0.00000000000E+00 -0.00000000000E+00 -0.50000000000E+03  0.50000000000E+03  0.00000000000E+00 0. -1.
         23    2    1    2    0    0 -0.29621733747E+02  0.24837599988E+01  0.41430225867E+03  0.42512748856E+03  0.90572643845E+02 0.  0.
        -11    1    1    2    0    0  0.19731744314E+02  0.12156508123E+02  0.78450956034E+02  0.81802658430E+02  0.00000000000E+00 0.  1.
         11    1    1    2    0    0  0.98899894326E+01 -0.14640268122E+02 -0.49275321471E+03  0.49306985301E+03  0.00000000000E+00 0. -1.
        -15    1    3    3    0    0 -0.11528801713E+02 -0.30262727518E+02  0.34350909476E+03  0.34503681232E+03  0.17770000000E+01 0.  1.
         15    1    3    3    0    0 -0.18092932033E+02  0.32746487517E+02  0.70793163916E+02  0.80090676239E+02  0.17770000000E+01 0. -1.
</event>
<event>
 7    1  0.2187028E-004  0.4719665E+03  0.7546771E-02  0.9464818E-01
        -11   -1    0    0    0    0  0.00000000000E+00  0.00000000000E+00  0.50000000000E+03  0.50000000000E+03  0.00000000000E+00 0. -1.
         11   -1    0    0    0    0 -0.00000000000E+00 -0.00000000000E+00 -0.50000000000E+03  0.50000000000E+03  0.00000000000E+00 0. -1.
         23    2    1    2    0    0 -0.64035147135E+01  0.95863143690E+01  0.43317210424E+03  0.44405098922E+03  0.97006735390E+02 0.  0.
        -11    1    1    2    0    0 -0.18932915872E+02 -0.18942152727E+02  0.58078755561E+02  0.63956253024E+02  0.00000000000E+00 0. -1.
         11    1    1    2    0    0  0.25336430585E+02  0.93558383577E+01 -0.49125085980E+03  0.49199275775E+03  0.00000000000E+00 0. -1.
        -15    1    3    3    0    0 -0.43646674810E+02  0.14829494277E+02  0.34644917921E+03  0.34950699224E+03  0.17770000000E+01 0. -1.
         15    1    3    3    0    0  0.37243160096E+02 -0.52431799084E+01  0.86722925031E+02  0.94543996977E+02  0.17770000000E+01 0.  1.
</event>
<event>
 7    1  0.2187028E-004  0.4951896E+03  0.7546771E-02  0.9410638E-01
        -11   -1    0    0    0    0  0.00000000000E+00  0.00000000000E+00  0.50000000000E+03  0.50000000000E+03  0.00000000000E+00 0. -1.
         11   -1    0    0    0    0 -0.00000000000E+00 -0.00000000000E+00 -0.50000000000E+03  0.50000000000E+03  0.00000000000E+00 0. -1.
         23    2    1    2    0    0 -0.20854359396E+01 -0.22067935107E+02  0.48953068555E+03  0.49560966853E+03  0.74143837505E+02 0.  0.
        -11    1    1    2    0    0 -0.54340775077E+01  0.14070499796E+02 -0.35096233707E+00  0.15087456294E+02  0.00000000000E+00 0. -1.
         11    1    1    2    0    0  0.75195134473E+01  0.79974353110E+01 -0.48917972321E+03  0.48930287518E+03  0.00000000000E+00 0. -1.
        -15    1    3    3    0    0 -0.19471482272E+02 -0.22216844711E+01  0.33789807782E+02  0.39102216596E+02  0.17770000000E+01 0.  1.
         15    1    3    3    0    0  0.17386046333E+02 -0.19846250636E+02  0.45574087777E+03  0.45650745193E+03  0.17770000000E+01 0. -1.
</event>
<event>
 7    1  0.2187028E-004  0.5134745E+03  0.7546771E-02  0.9370154E-01
        -11   -1    0    0    0    0  0.00000000000E+00  0.00000000000E+00  0.50000000000E+03  0.50000000000E+03  0.00000000000E+00 0.  1.
         11   -1    0    0    0    0 -0.00000000000E+00 -0.00000000000E+00 -0.50000000000E+03  0.50000000000E+03  0.00000000000E+00 0.  1.
         23    2    1    2    0    0 -0.77398088875E+02 -0.26434288175E+02  0.27282390174E+03  0.29922018946E+03  0.91709348872E+02 0.  0.
        -11    1    1    2    0    0  0.35321169328E+02  0.28346666486E+01  0.21130380320E+03  0.21425432921E+03  0.00000000000E+00 0.  1.
         11    1    1    2    0    0  0.42076919547E+02  0.23599621526E+02 -0.48412770494E+03  0.48652548133E+03  0.00000000000E+00 0.  1.
        -15    1    3    3    0    0 -0.67063690282E+01 -0.48244375615E+02  0.10142292651E+03  0.11252672089E+03  0.17770000000E+01 0. -1.
         15    1    3    3    0    0 -0.70691719846E+02  0.21810087440E+02  0.17140097523E+03  0.18669346857E+03  0.17770000000E+01 0.  1.
</event>
<event>
 7    1  0.2187028E-004  0.5106026E+03  0.7546771E-02  0.9376393E-01
        -11   -1    0    0    0    0  0.00000000000E+00  0.00000000000E+00  0.50000000000E+03  0.50000000000E+03  0.00000000000E+00 0. -1.
         11   -1    0    0    0    0 -0.00000000000E+00 -0.00000000000E+00 -0.50000000000E+03  0.50000000000E+03  0.00000000000E+00 0.  1.
         23    2    1    2    0    0 -0.49850926607E+02 -0.18187817789E+02 -0.21411883216E+03  0.23765020582E+03  0.88401552250E+02 0.  0.
        -11    1    1    2    0    0  0.67421455254E+02 -0.14748143762E+02  0.48450657100E+03  0.48939736178E+03  0.00000000000E+00 0. -1.
         11    1    1    2    0    0 -0.17570528647E+02  0.32935961551E+02 -0.27038773884E+03  0.27295243240E+03  0.00000000000E+00 0.  1.
        -15    1    3    3    0    0 -0.49032698289E+02 -0.40497776919E+02 -0.20282398405E+03  0.21256764022E+03  0.17770000000E+01 0.  1.
         15    1    3    3    0    0 -0.81822831868E+00  0.22309959130E+02 -0.11294848118E+02  0.25082565598E+02  0.17770000000E+01 0. -1.
</event>
<event>
 7    1  0.2187028E-004  0.5010302E+03  0.7546771E-02  0.9397508E-01
        -11   -1    0    0    0    0  0.00000000000E+00  0.00000000000E+00  0.50000000000E+03  0.50000000000E+03  0.00000000000E+00 0. -1.
         11   -1    0    0    0    0 -0.00000000000E+00 -0.00000000000E+00 -0.50000000000E+03  0.50000000000E+03  0.00000000000E+00 0. -1.
         23    2    1    2    0    0  0.43561409769E+02  0.70560994200E+02  0.48164528944E+03  0.49896982953E+03  0.10055971169E+03 0.  0.
        -11    1    1    2    0    0 -0.35151391003E+02 -0.60412190225E+02 -0.11800531834E+03  0.13715140602E+03  0.00000000000E+00 0. -1.
         11    1    1    2    0    0 -0.84100187656E+01 -0.10148803975E+02 -0.36363997110E+03  0.36387876445E+03  0.00000000000E+00 0. -1.
        -15    1    3    3    0    0  0.58917016345E+02  0.64496025161E+02  0.47146386945E+03  0.47949169961E+03  0.17770000000E+01 0. -1.
         15    1    3    3    0    0 -0.15355606577E+02  0.60649690381E+01  0.10181419993E+02  0.19478129911E+02  0.17770000000E+01 0.  1.
</event>
<event>
 7    1  0.2187028E-004  0.4654696E+03  0.7546771E-02  0.9480572E-01
        -11   -1    0    0    0    0  0.00000000000E+00  0.00000000000E+00  0.50000000000E+03  0.50000000000E+03  0.00000000000E+00 0.  1.
         11   -1    0    0    0    0 -0.00000000000E+00 -0.00000000000E+00 -0.50000000000E+03  0.50000000000E+03  0.00000000000E+00 0.  1.
         23    2    1    2    0    0 -0.72161298788E+02 -0.25311623474E+02  0.44734687132E+03  0.46306760861E+03  0.92002475724E+02 0.  0.
        -11    1    1    2    0    0  0.73605476464E+02  0.62076807416E+01  0.14005148839E+02  0.75182748418E+02  0.00000000000E+00 0.  1.
         11    1    1    2    0    0 -0.14441776761E+01  0.19103942732E+02 -0.46135202016E+03  0.46174964297E+03  0.00000000000E+00 0.  1.
        -15    1    3    3    0    0 -0.78913657127E+02 -0.49969993588E+02  0.33095476740E+03  0.34388745446E+03  0.17770000000E+01 0.  1.
         15    1    3    3    0    0  0.67523583388E+01  0.24658370114E+02  0.11639210392E+03  0.11918015415E+03  0.17770000000E+01 0. -1.
</event>
<event>
 7    1  0.2187028E-004  0.5007822E+03  0.7546771E-02  0.9398061E-01
        -11   -1    0    0    0    0  0.00000000000E+00  0.00000000000E+00  0.50000000000E+03  0.50000000000E+03  0.00000000000E+00 0.  1.
         11   -1    0    0    0    0 -0.00000000000E+00 -0.00000000000E+00 -0.50000000000E+03  0.50000000000E+03  0.00000000000E+00 0. -1.
         23    2    1    2    0    0 -0.49145670214E+01 -0.10489321373E+02  0.49024013476E+03  0.49893119956E+03  0.91993333118E+02 0.  0.
        -11    1    1    2    0    0 -0.55094128560E+01  0.19849082569E+01  0.37120459308E+01  0.69334533819E+01  0.00000000000E+00 0.  1.
         11    1    1    2    0    0  0.10423979877E+02  0.85044131161E+01 -0.49395218069E+03  0.49413534705E+03  0.00000000000E+00 0. -1.
        -15    1    3    3    0    0 -0.13740196133E+01 -0.41939840442E+02  0.41720350265E+03  0.41931224463E+03  0.17770000000E+01 0.  1.
         15    1    3    3    0    0 -0.35405474081E+01  0.31450519069E+02  0.73036632114E+02  0.79618954937E+02  0.17770000000E+01 0. -1.
</event>
<event>
 7    1  0.2187028E-004  0.4273617E+03  0.7546771E-02  0.9578841E-01
        -11   -1    0    0    0    0  0.00000000000E+00  0.00000000000E+00  0.50000000000E+03  0.50000000000E+03  0.00000000000E+00 0. -1.
         11   -1    0    0    0    0 -0.00000000000E+00 -0.00000000000E+00 -0.50000000000E+03  0.50000000000E+03  0.00000000000E+00 0. -1.
         23    2    1    2    0    0 -0.13829530355E+03 -0.16339547301E+03  0.32498104560E+03  0.39967280841E+03  0.91115323610E+02 0.  0.
        -11    1    1    2    0    0 -0.90498145569E+02  0.90379643162E+02  0.64123690695E+02  0.14307425330E+03  0.00000000000E+00 0. -1.
         11    1    1    2    0    0  0.22879344912E+03  0.73015829853E+02 -0.38910473629E+03  0.45725293829E+03  0.00000000000E+00 0. -1.
        -15    1    3    3    0    0 -0.95914309983E+02 -0.72348056038E+02  0.23879939011E+03  0.26732396547E+03  0.17770000000E+01 0. -1.
         15    1    3    3    0    0 -0.42380993567E+02 -0.91047416976E+02  0.86181655493E+02  0.13234884294E+03  0.17770000000E+01 0.  1.
</event>
<event>
 7    1  0.2187028E-004  0.5330073E+03  0.7546771E-02  0.9328839E-01
        -11   -1    0    0    0    0  0.00000000000E+00  0.00000000000E+00  0.50000000000E+03  0.50000000000E+03  0.00000000000E+00 0. -1.
         11   -1    0    0    0    0 -0.00000000000E+00 -0.00000000000E+00 -0.50000000000E+03  0.50000000000E+03  0.00000000000E+00 0.  1.
         23    2    1    2    0    0  0.47281446763E+01  0.27511454761E+02 -0.33508158096E+02  0.10158717134E+03  0.91749230117E+02 0.  0.
        -11    1    1    2    0    0 -0.14861538478E+02 -0.47270329265E+02  0.46435639414E+03  0.46699273027E+03  0.00000000000E+00 0. -1.
         11    1    1    2    0    0  0.10133393802E+02  0.19758874504E+02 -0.43084823604E+03  0.43142009838E+03  0.00000000000E+00 0.  1.
        -15    1    3    3    0    0  0.86267187173E+01  0.53172915573E+02  0.60547060187E+01  0.54236486061E+02  0.17770000000E+01 0.  1.
         15    1    3    3    0    0 -0.38985740410E+01 -0.25661460811E+02 -0.39562864114E+02  0.47350685280E+02  0.17770000000E+01 0. -1.
</event>
<event>
 7    1  0.2187028E-004  0.5121158E+03  0.7546771E-02  0.9373100E-01
        -11   -1    0    0    0    0  0.00000000000E+00  0.00000000000E+00  0.50000000000E+03  0.50000000000E+03  0.00000000000E+00 0. -1.
         11   -1    0    0    0    0 -0.00000000000E+00 -0.00000000000E+00 -0.50000000000E+03  0.50000000000E+03  0.00000000000E+00 0.  1.
         23    2    1    2    0    0  0.15378926120E+02 -0.28749032076E+02  0.25840735069E+03  0.27528166159E+03  0.89121356058E+02 0.  0.
        -11    1    1    2    0    0 -0.46419325758E+02  0.42654976175E+02  0.22828977076E+03  0.23683416187E+03  0.00000000000E+00 0. -1.
         11    1    1    2    0    0  0.31040399638E+02 -0.13905944099E+02 -0.48669712145E+03  0.48788417654E+03  0.00000000000E+00 0.  1.
        -15    1    3    3    0    0  0.22039138708E+02 -0.51131788527E+02  0.23730771319E+03  0.24375867554E+03  0.17770000000E+01 0. -1.
         15    1    3    3    0    0 -0.66602125882E+01  0.22382756451E+02  0.21099637498E+02  0.31522986051E+02  0.17770000000E+01 0.  1.
</event>
<event>
 7    1  0.2187028E-004  0.4431902E+03  0.7546771E-02  0.9536748E-01
        -11   -1    0    0    0    0  0.00000000000E+00  0.00000000000E+00  0.50000000000E+03  0.50000000000E+03  0.00000000000E+00 0.  1.
         11   -1    0    0    0    0 -0.00000000000E+00 -0.00000000000E+00 -0.50000000000E+03  0.50000000000E+03  0.00000000000E+00 0. -1.
         23    2    1    2    0    0  0.41024799954E+01 -0.62785098167E+02  0.33618679588E+02  0.11075363423E+03  0.84719259813E+02 0.  0.
        -11    1    1    2    0    0 -0.54198728597E+01  0.73014915890E+02  0.42462285923E+03  0.43088876238E+03  0.00000000000E+00 0.  1.
         11    1    1    2    0    0  0.13173928643E+01 -0.10229817723E+02 -0.45824153882E+03  0.45835760340E+03  0.00000000000E+00 0. -1.
        -15    1    3    3    0    0  0.24202617719E+02 -0.65413371467E+02  0.48989827967E+02  0.85251609042E+02  0.17770000000E+01 0.  1.
         15    1    3    3    0    0 -0.20100137723E+02  0.26282732994E+01 -0.15371148379E+02  0.25502025185E+02  0.17770000000E+01 0. -1.
</event>
<event>
 7    1  0.2187028E-004  0.4766659E+03  0.7546771E-02  0.9453591E-01
        -11   -1    0    0    0    0  0.00000000000E+00  0.00000000000E+00  0.50000000000E+03  0.50000000000E+03  0.00000000000E+00 0.  1.
         11   -1    0    0    0    0 -0.00000000000E+00 -0.00000000000E+00 -0.50000000000E+03  0.50000000000E+03  0.00000000000E+00 0.  1.
         23    2    1    2    0    0 -0.46089976425E+02  0.31273533597E+02  0.44279154272E+03  0.45754035523E+03  0.10087867234E+03 0.  0.
        -11    1    1    2    0    0  0.31449412136E+02 -0.15624965377E+02  0.43382024686E+02  0.55814022724E+02  0.00000000000E+00 0.  1.
         11    1    1    2    0    0  0.14640564289E+02 -0.15648568219E+02 -0.48617356740E+03  0.48664562204E+03  0.00000000000E+00 0.  1.
        -15    1    3    3    0    0 -0.76539878075E+02  0.35589139021E+02  0.32401350081E+03  0.33483256441E+03  0.17770000000E+01 0.  1.
         15    1    3    3    0    0  0.30449901650E+02 -0.43156054240E+01  0.11877804191E+03  0.12270779082E+03  0.17770000000E+01 0. -1.
</event>
<event>
 7    1  0.2187028E-004  0.4717794E+03  0.7546771E-02  0.9465268E-01
        -11   -1    0    0    0    0  0.00000000000E+00  0.00000000000E+00  0.50000000000E+03  0.50000000000E+03  0.00000000000E+00 0. -1.
         11   -1    0    0    0    0 -0.00000000000E+00 -0.00000000000E+00 -0.50000000000E+03  0.50000000000E+03  0.00000000000E+00 0.  1.
         23    2    1    2    0    0  0.22723524546E+02  0.62238690352E+02  0.45138058434E+03  0.46590262512E+03  0.94502968370E+02 0.  0.
        -11    1    1    2    0    0 -0.30116829274E+02 -0.53059053462E+02  0.18744084835E+02  0.63824973765E+02  0.00000000000E+00 0. -1.
         11    1    1    2    0    0  0.73933047279E+01 -0.91796368900E+01 -0.47012466917E+03  0.47027240112E+03  0.00000000000E+00 0.  1.
        -15    1    3    3    0    0  0.11084282400E+02  0.69455204808E+02  0.16736997535E+03  0.18155647377E+03  0.17770000000E+01 0.  1.
         15    1    3    3    0    0  0.11639242145E+02 -0.72165144555E+01  0.28401060899E+03  0.28434615134E+03  0.17770000000E+01 0. -1.
</event>
<event>
 7    1  0.2187028E-004  0.5035587E+03  0.7546771E-02  0.9391882E-01
        -11   -1    0    0    0    0  0.00000000000E+00  0.00000000000E+00  0.50000000000E+03  0.50000000000E+03  0.00000000000E+00 0.  1.
         11   -1    0    0    0    0 -0.00000000000E+00 -0.00000000000E+00 -0.50000000000E+03  0.50000000000E+03  0.00000000000E+00 0. -1.
         23    2    1    2    0    0 -0.53409605632E+02  0.78379689291E+01 -0.38877921149E+03  0.39878526328E+03  0.70472627216E+02 0.  0.
        -11    1    1    2    0    0  0.54049151099E+02 -0.38615359299E+01  0.49347518918E+03  0.49644132033E+03  0.00000000000E+00 0.  1.
         11    1    1    2    0    0 -0.63954546708E+00 -0.39764329992E+01 -0.10469597769E+03  0.10477341639E+03  0.00000000000E+00 0. -1.
        -15    1    3    3    0    0 -0.37337596054E+02 -0.11612151597E+02 -0.80929147616E+02  0.89897846507E+02  0.17770000000E+01 0.  1.
         15    1    3    3    0    0 -0.16072009578E+02  0.19450120526E+02 -0.30785006388E+03  0.30888741677E+03  0.17770000000E+01 0. -1.
</event>
<event>
 6    1  0.2187028E-004  0.5086439E+03  0.7546771E-02  0.9380673E-01
        -11   -1    0    0    0    0  0.00000000000E+00  0.00000000000E+00  0.50000000000E+03  0.50000000000E+03  0.00000000000E+00 0. -1.
         11   -1    0    0    0    0 -0.00000000000E+00 -0.00000000000E+00 -0.50000000000E+03  0.50000000000E+03  0.00000000000E+00 0. -1.
        -11    1    1    2    0    0 -0.12103281177E+02 -0.12179871706E+02  0.47323120675E+03  0.47354262082E+03  0.00000000000E+00 0. -1.
         11    1    1    2    0    0 -0.13375412055E+01  0.71270047605E+01 -0.49130258454E+03  0.49135609571E+03  0.00000000000E+00 0. -1.
        -15    1    1    2    0    0 -0.75397936133E+01 -0.14566602014E+01  0.64566948074E+01  0.10189061954E+02  0.17770000000E+01 0.  1.
         15    1    1    2    0    0  0.20980615996E+02  0.65095271470E+01  0.11614682983E+02  0.24912221520E+02  0.17770000000E+01 0. -1.
</event>
<event>
 7    1  0.2187028E-004  0.4967603E+03  0.7546771E-02  0.9407088E-01
        -11   -1    0    0    0    0  0.00000000000E+00  0.00000000000E+00  0.50000000000E+03  0.50000000000E+03  0.00000000000E+00 0. -1.
         11   -1    0    0    0    0 -0.00000000000E+00 -0.00000000000E+00 -0.50000000000E+03  0.50000000000E+03  0.00000000000E+00 0. -1.
         23    2    1    2    0    0 -0.15297047627E+02  0.36430891497E+02  0.48088047903E+03  0.49180576194E+03  0.95213774412E+02 0.  0.
        -11    1    1    2    0    0  0.76003001009E+01  0.96878768019E+01  0.95233891257E+01  0.15566453000E+02  0.00000000000E+00 0. -1.
         11    1    1    2    0    0  0.76967475258E+01 -0.46118768299E+02 -0.49040386816E+03  0.49262778506E+03  0.00000000000E+00 0. -1.
        -15    1    3    3    0    0 -0.23165929430E+02  0.59793687663E+01  0.43769234130E+03  0.43834935439E+03  0.17770000000E+01 0. -1.
         15    1    3    3    0    0  0.78688818035E+01  0.30451522731E+02  0.43188137737E+02  0.53456407545E+02  0.17770000000E+01 0.  1.
</event>
<event>
 7    1  0.2187028E-004  0.5011350E+03  0.7546771E-02  0.9397274E-01
        -11   -1    0    0    0    0  0.00000000000E+00  0.00000000000E+00  0.50000000000E+03  0.50000000000E+03  0.00000000000E+00 0. -1.
         11   -1    0    0    0    0 -0.00000000000E+00 -0.00000000000E+00 -0.50000000000E+03  0.50000000000E+03  0.00000000000E+00 0.  1.
         23    2    1    2    0    0  0.21167194264E+00 -0.29312851871E+02  0.49166459677E+03  0.50113501694E+03  0.92428033629E+02 0.  0.
        -11    1    1    2    0    0 -0.49315042093E+01  0.19091651429E+02 -0.23984647510E+02  0.31049544348E+02  0.00000000000E+00 0. -1.
         11    1    1    2    0    0  0.47198322666E+01  0.10221200443E+02 -0.46767994926E+03  0.46781543871E+03  0.00000000000E+00 0.  1.
        -15    1    3    3    0    0 -0.36137963974E+02 -0.44626203971E+02  0.28518435634E+03  0.29091360462E+03  0.17770000000E+01 0. -1.
         15    1    3    3    0    0  0.36349635917E+02  0.15313352100E+02  0.20648024043E+03  0.21022141233E+03  0.17770000000E+01 0.  1.
</event>
<event>
 7    1  0.2187028E-004  0.4752640E+03  0.7546771E-02  0.9456926E-01
        -11   -1    0    0    0    0  0.00000000000E+00  0.00000000000E+00  0.50000000000E+03  0.50000000000E+03  0.00000000000E+00 0.  1.
         11   -1    0    0    0    0 -0.00000000000E+00 -0.00000000000E+00 -0.50000000000E+03  0.50000000000E+03  0.00000000000E+00 0. -1.
         23    2    1    2    0    0  0.11853988886E+02 -0.44506582227E+02  0.46483031730E+03  0.47634953994E+03  0.93382586216E+02 0.  0.
        -11    1    1    2    0    0 -0.55303435265E+02  0.13795606890E+02 -0.12347140095E+01  0.57011518487E+02  0.00000000000E+00 0.  1.
         11    1    1    2    0    0  0.43449446379E+02  0.30710975337E+02 -0.46359560329E+03  0.46663894157E+03  0.00000000000E+00 0. -1.
        -15    1    3    3    0    0  0.43062180753E+02 -0.41782856680E+02  0.17888831589E+03  0.18869113867E+03  0.17770000000E+01 0. -1.
         15    1    3    3    0    0 -0.31208191867E+02 -0.27237255461E+01  0.28594200141E+03  0.28765840127E+03  0.17770000000E+01 0.  1.
</event>
<event>
 7    1  0.2187028E-004  0.3922296E+03  0.7546771E-02  0.9679643E-01
        -11   -1    0    0    0    0  0.00000000000E+00  0.00000000000E+00  0.50000000000E+03  0.50000000000E+03  0.00000000000E+00 0.  1.
         11   -1    0    0    0    0 -0.00000000000E+00 -0.00000000000E+00 -0.50000000000E+03  0.50000000000E+03  0.00000000000E+00 0. -1.
         23    2    1    2    0    0 -0.13072050589E+03 -0.21996697495E+02  0.12669447375E+03  0.19439508680E+03  0.64546531534E+02 0.  0.
        -11    1    1    2    0    0  0.12275229573E+03  0.27278696496E+02  0.32775790850E+03  0.35105199041E+03  0.00000000000E+00 0.  1.
         11    1    1    2    0    0  0.79682101574E+01 -0.52819990013E+01 -0.45445238225E+03  0.45455292279E+03  0.00000000000E+00 0. -1.
        -15    1    3    3    0    0 -0.12953622454E+03 -0.57678658479E+01  0.12009777573E+03  0.17674709392E+03  0.17770000000E+01 0.  1.
         15    1    3    3    0    0 -0.11842813453E+01 -0.16228831647E+02  0.65966980235E+01  0.17647992882E+02  0.17770000000E+01 0. -1.
</event>
<event>
 7    1  0.2187028E-004  0.5037784E+03  0.7546771E-02  0.9391395E-01
        -11   -1    0    0    0    0  0.00000000000E+00  0.00000000000E+00  0.50000000000E+03  0.50000000000E+03  0.00000000000E+00 0. -1.
         11   -1    0    0    0    0 -0.00000000000E+00 -0.00000000000E+00 -0.50000000000E+03  0.50000000000E+03  0.00000000000E+00 0. -1.
         23    2    1    2    0    0  0.29727679043E+01  0.75106928751E+01  0.49571316927E+03  0.50377841812E+03  0.89419799388E+02 0.  0.
        -11    1    1    2    0    0 -0.39605401916E+01  0.34591583788E+01 -0.36550524378E+02  0.36926853205E+02  0.00000000000E+00 0. -1.
         11    1    1    2    0    0  0.98777228734E+00 -0.10969851254E+02 -0.45916264489E+03  0.45929472868E+03  0.00000000000E+00 0. -1.
        -15    1    3    3    0    0 -0.40402834204E+02 -0.96705194882E+01  0.27998001968E+03  0.28305101503E+03  0.17770000000E+01 0.  1.
         15    1    3    3    0    0  0.43375602108E+02  0.17181212363E+02  0.21573314958E+03  0.22072740309E+03  0.17770000000E+01 0. -1.
</event>
<event>
 7    1  0.2187028E-004  0.5014927E+03  0.7546771E-02  0.9396476E-01
        -11   -1    0    0    0    0  0.00000000000E+00  0.00000000000E+00  0.50000000000E+03  0.50000000000E+03  0.00000000000E+00 0. -1.
         11   -1    0    0    0    0 -0.00000000000E+00 -0.00000000000E+00 -0.50000000000E+03  0.50000000000E+03  0.00000000000E+00 0. -1.
         23    2    1    2    0    0 -0.16639732340E+02  0.13367101843E+02  0.49262182793E+03  0.50149267980E+03  0.91449890264E+02 0.  0.
        -11    1    1    2    0    0  0.70716409588E+01 -0.18514282879E+02 -0.31231549529E+02  0.36989139789E+02  0.00000000000E+00 0. -1.
         11    1    1    2    0    0  0.95680913808E+01  0.51471810367E+01 -0.46139027841E+03  0.46151818041E+03  0.00000000000E+00 0. -1.
        -15    1    3    3    0    0 -0.28432491001E+02 -0.26698382874E+02  0.36759394933E+03  0.36966157429E+03  0.17770000000E+01 0. -1.
         15    1    3    3    0    0  0.11792758661E+02  0.40065484717E+02  0.12502787861E+03  0.13183110551E+03  0.17770000000E+01 0.  1.
</event>
<event>
 7    1  0.2187028E-004  0.5343737E+03  0.7546771E-02  0.9326019E-01
        -11   -1    0    0    0    0  0.00000000000E+00  0.00000000000E+00  0.50000000000E+03  0.50000000000E+03  0.00000000000E+00 0.  1.
         11   -1    0    0    0    0 -0.00000000000E+00 -0.00000000000E+00 -0.50000000000E+03  0.50000000000E+03  0.00000000000E+00 0. -1.
         23    2    1    2    0    0 -0.86887757867E+02 -0.68614312701E+02  0.21848385870E+03  0.25953446235E+03  0.85822690827E+02 0.  0.
        -11    1    1    2    0    0  0.94613609569E+02  0.74537081250E+02  0.24704067022E+03  0.27483923363E+03  0.00000000000E+00 0.  1.
         11    1    1    2    0    0 -0.77258517023E+01 -0.59227685491E+01 -0.46552452892E+03  0.46562630402E+03  0.00000000000E+00 0. -1.
        -15    1    3    3    0    0 -0.97735416620E+02 -0.38213913064E+02  0.14267545008E+03  0.17712130475E+03  0.17770000000E+01 0.  1.
         15    1    3    3    0    0  0.10847658753E+02 -0.30400399637E+02  0.75808408618E+02  0.82413157595E+02  0.17770000000E+01 0. -1.
</event>
<event>
 7    1  0.2187028E-004  0.4158133E+03  0.7546771E-02  0.9610798E-01
        -11   -1    0    0    0    0  0.00000000000E+00  0.00000000000E+00  0.50000000000E+03  0.50000000000E+03  0.00000000000E+00 0. -1.
         11   -1    0    0    0    0 -0.00000000000E+00 -0.00000000000E+00 -0.50000000000E+03  0.50000000000E+03  0.00000000000E+00 0. -1.
         23    2    1    2    0    0 -0.13120584485E+03  0.16417526785E+02  0.34917544135E+03  0.38560974873E+03  0.96368462476E+02 0.  0.
        -11    1    1    2    0    0  0.12799770980E+03 -0.71359531593E+01  0.10155835428E+03  0.16354948751E+03  0.00000000000E+00 0. -1.
         11    1    1    2    0    0  0.32081350570E+01 -0.92815736260E+01 -0.45073379564E+03  0.45084076376E+03  0.00000000000E+00 0. -1.
        -15    1    3    3    0    0 -0.82747645030E+02 -0.46531750175E+01  0.30694853696E+03  0.31794557218E+03  0.17770000000E+01 0. -1.
         15    1    3    3    0    0 -0.48458199823E+02  0.21070701803E+02  0.42226904390E+02  0.67664176548E+02  0.17770000000E+01 0.  1.
</event>
<event>
 7    1  0.2187028E-004  0.4980054E+03  0.7546771E-02  0.9404284E-01
        -11   -1    0    0    0    0  0.00000000000E+00  0.00000000000E+00  0.50000000000E+03  0.50000000000E+03  0.00000000000E+00 0.  1.
         11   -1    0    0    0    0 -0.00000000000E+00 -0.00000000000E+00 -0.50000000000E+03  0.50000000000E+03  0.00000000000E+00 0.  1.
         23    2    1    2    0    0 -0.63490753939E+01 -0.14954296521E+02  0.48734465281E+03  0.49653174980E+03  0.93675109822E+02 0.  0.
        -11    1    1    2    0    0  0.10736959960E+02  0.61659312247E+01  0.32295280809E+01  0.12795736347E+02  0.00000000000E+00 0.  1.
         11    1    1    2    0    0 -0.43878845659E+01  0.87883652967E+01 -0.49057418089E+03  0.49067251385E+03  0.00000000000E+00 0.  1.
        -15    1    3    3    0    0 -0.47387350025E+02 -0.50020155458E+01  0.33708860160E+03  0.34044450966E+03  0.17770000000E+01 0.  1.
         15    1    3    3    0    0  0.41038274631E+02 -0.99522809755E+01  0.15025605121E+03  0.15608724014E+03  0.17770000000E+01 0. -1.
</event>
<event>
 7    1  0.2187028E-004  0.4326600E+03  0.7546771E-02  0.9564537E-01
        -11   -1    0    0    0    0  0.00000000000E+00  0.00000000000E+00  0.50000000000E+03  0.50000000000E+03  0.00000000000E+00 0.  1.
         11   -1    0    0    0    0 -0.00000000000E+00 -0.00000000000E+00 -0.50000000000E+03  0.50000000000E+03  0.00000000000E+00 0.  1.
         23    2    1    2    0    0  0.94831891365E+02  0.12371449549E+01  0.32204985710E+02  0.12890262833E+03  0.81142518678E+02 0.  0.
        -11    1    1    2    0    0 -0.97770406682E+02 -0.19842788806E+02  0.41331226790E+03  0.42518210156E+03  0.00000000000E+00 0.  1.
         11    1    1    2    0    0  0.29385153176E+01  0.18605643851E+02 -0.44551725361E+03  0.44591527011E+03  0.00000000000E+00 0.  1.
        -15    1    3    3    0    0  0.96067455109E+02  0.96675093060E+01  0.50255563247E+02  0.10886319871E+03  0.17770000000E+01 0.  1.
         15    1    3    3    0    0 -0.12355637441E+01 -0.84303643511E+01 -0.18050577538E+02  0.20039429615E+02  0.17770000000E+01 0. -1.
</event>
<event>
 7    1  0.2187028E-004  0.4501556E+03  0.7546771E-02  0.9518814E-01
        -11   -1    0    0    0    0  0.00000000000E+00  0.00000000000E+00  0.50000000000E+03  0.50000000000E+03  0.00000000000E+00 0.  1.
         11   -1    0    0    0    0 -0.00000000000E+00 -0.00000000000E+00 -0.50000000000E+03  0.50000000000E+03  0.00000000000E+00 0. -1.
         23    2    1    2    0    0 -0.43994293989E+01 -0.23640992118E+02  0.31689321853E+02  0.98810420898E+02  0.90449072252E+02 0.  0.
        -11    1    1    2    0    0 -0.33106757567E+03  0.18025778040E+03  0.23562791814E+03  0.44454372435E+03  0.00000000000E+00 0.  1.
         11    1    1    2    0    0  0.33546700507E+03 -0.15661678828E+03 -0.26731723999E+03  0.45664585475E+03  0.00000000000E+00 0. -1.
        -15    1    3    3    0    0  0.26993353191E+02  0.10477345595E+01 -0.19860336692E+02  0.33575728833E+02  0.17770000000E+01 0. -1.
         15    1    3    3    0    0 -0.31392782589E+02 -0.24688726677E+02  0.51549658545E+02  0.65234692065E+02  0.17770000000E+01 0.  1.
</event>
<event>
 7    1  0.2187028E-004  0.5030949E+03  0.7546771E-02  0.9392911E-01
        -11   -1    0    0    0    0  0.00000000000E+00  0.00000000000E+00  0.50000000000E+03  0.50000000000E+03  0.00000000000E+00 0.  1.
         11   -1    0    0    0    0 -0.00000000000E+00 -0.00000000000E+00 -0.50000000000E+03  0.50000000000E+03  0.00000000000E+00 0.  1.
         23    2    1    2    0    0  0.21862230214E-01  0.29570629812E+01  0.49430455812E+03  0.50309491329E+03  0.93588198515E+02 0.  0.
        -11    1    1    2    0    0  0.26216656634E+01  0.67964439109E+01 -0.93855581103E+01  0.11880803076E+02  0.00000000000E+00 0.  1.
         11    1    1    2    0    0 -0.26435278936E+01 -0.97535068921E+01 -0.48491900001E+03  0.48502428363E+03  0.00000000000E+00 0.  1.
        -15    1    3    3    0    0  0.26594341077E+02 -0.42463149885E+01  0.45062208259E+03  0.45142962820E+03  0.17770000000E+01 0.  1.
         15    1    3    3    0    0 -0.26572478847E+02  0.72033779696E+01  0.43682475530E+02  0.51665285093E+02  0.17770000000E+01 0. -1.
</event>
<event>
 7    1  0.2187028E-004  0.4414733E+03  0.7546771E-02  0.9541222E-01
        -11   -1    0    0    0    0  0.00000000000E+00  0.00000000000E+00  0.50000000000E+03  0.50000000000E+03  0.00000000000E+00 0.  1.
         11   -1    0    0    0    0 -0.00000000000E+00 -0.00000000000E+00 -0.50000000000E+03  0.50000000000E+03  0.00000000000E+00 0. -1.
         23    2    1    2    0    0  0.50670206612E+02 -0.73360514072E+02  0.42303106210E+03  0.43947235437E+03  0.78939444460E+02 0.  0.
        -11    1    1    2    0    0 -0.77790768414E+02  0.84311687665E+02  0.20072954014E+02  0.11645938266E+03  0.00000000000E+00 0.  1.
         11    1    1    2    0    0  0.27120561802E+02 -0.10951173593E+02 -0.44310401612E+03  0.44406826297E+03  0.00000000000E+00 0. -1.
        -15    1    3    3    0    0 -0.83560114817E+01  0.12119474176E+02  0.65130338089E+02  0.66796880546E+02  0.17770000000E+01 0. -1.
         15    1    3    3    0    0  0.59026218094E+02 -0.85479988248E+02  0.35790072401E+03  0.37267547383E+03  0.17770000000E+01 0.  1.
</event>
<event>
 7    1  0.2187028E-004  0.5002185E+03  0.7546771E-02  0.9399321E-01
        -11   -1    0    0    0    0  0.00000000000E+00  0.00000000000E+00  0.50000000000E+03  0.50000000000E+03  0.00000000000E+00 0.  1.
         11   -1    0    0    0    0 -0.00000000000E+00 -0.00000000000E+00 -0.50000000000E+03  0.50000000000E+03  0.00000000000E+00 0. -1.
         23    2    1    2    0    0 -0.72774625001E+01  0.22280422581E+02  0.49055714077E+03  0.49978147381E+03  0.92659778285E+02 0.  0.
        -11    1    1    2    0    0 -0.29712976160E+01 -0.19040710251E+02 -0.14694196626E+02  0.24234204565E+02  0.00000000000E+00 0.  1.
         11    1    1    2    0    0  0.10248760116E+02 -0.32397123293E+01 -0.47586294415E+03  0.47598432162E+03  0.00000000000E+00 0. -1.
        -15    1    3    3    0    0  0.20064877948E+02  0.10567851263E+02  0.44350016950E+03  0.44408314186E+03  0.17770000000E+01 0.  1.
         15    1    3    3    0    0 -0.27342340448E+02  0.11712571317E+02  0.47056971271E+02  0.55698331952E+02  0.17770000000E+01 0. -1.
</event>
<event>
 7    1  0.2187028E-004  0.4934532E+03  0.7546771E-02  0.9414579E-01
        -11   -1    0    0    0    0  0.00000000000E+00  0.00000000000E+00  0.50000000000E+03  0.50000000000E+03  0.00000000000E+00 0.  1.
         11   -1    0    0    0    0 -0.00000000000E+00 -0.00000000000E+00 -0.50000000000E+03  0.50000000000E+03  0.00000000000E+00 0. -1.
         23    2    1    2    0    0 -0.80934798210E+01 -0.25890389381E+01  0.47986452133E+03  0.48697010837E+03  0.82448287271E+02 0.  0.
        -11    1    1    2    0    0 -0.14614360299E+02  0.39391552233E+01  0.12810852893E+02  0.19829634961E+02  0.00000000000E+00 0.  1.
         11    1    1    2    0    0  0.22707840120E+02 -0.13501162852E+01 -0.49267537422E+03  0.49320025667E+03  0.00000000000E+00 0. -1.
        -15    1    3    3    0    0  0.16441517922E+02 -0.37002168265E+02  0.24362207944E+03  0.24697036115E+03  0.17770000000E+01 0. -1.
         15    1    3    3    0    0 -0.24534997743E+02  0.34413129327E+02  0.23624244189E+03  0.23999974721E+03  0.17770000000E+01 0.  1.
</event>
<event>
 7    1  0.2187028E-004  0.5113614E+03  0.7546771E-02  0.9374741E-01
        -11   -1    0    0    0    0  0.00000000000E+00  0.00000000000E+00  0.50000000000E+03  0.50000000000E+03  0.00000000000E+00 0.  1.
         11   -1    0    0    0    0 -0.00000000000E+00 -0.00000000000E+00 -0.50000000000E+03  0.50000000000E+03  0.00000000000E+00 0. -1.
         23    2    1    2    0    0 -0.48808032473E+02 -0.58145204176E+02 -0.22996521732E+03  0.25822477281E+03  0.89626688599E+02 0.  0.
        -11    1    1    2    0    0  0.50116855971E+02  0.53909061453E+02  0.48306297213E+03  0.48863864072E+03  0.00000000000E+00 0.  1.
         11    1    1    2    0    0 -0.13088234982E+01  0.42361427227E+01 -0.25309775481E+03  0.25313658648E+03  0.00000000000E+00 0. -1.
        -15    1    3    3    0    0 -0.52858635502E+02 -0.67035722505E+02 -0.11711011346E+03  0.14493363944E+03  0.17770000000E+01 0.  1.
         15    1    3    3    0    0  0.40506030294E+01  0.88905183297E+01 -0.11285510387E+03  0.11329113336E+03  0.17770000000E+01 0. -1.
</event>
<event>
 7    1  0.2187028E-004  0.4112793E+03  0.7546771E-02  0.9623649E-01
        -11   -1    0    0    0    0  0.00000000000E+00  0.00000000000E+00  0.50000000000E+03  0.50000000000E+03  0.00000000000E+00 0.  1.
         11   -1    0    0    0    0 -0.00000000000E+00 -0.00000000000E+00 -0.50000000000E+03  0.50000000000E+03  0.00000000000E+00 0.  1.
         23    2    1    2    0    0 -0.10797403014E+03  0.14283276091E+02  0.34903342503E+03  0.37683601755E+03  0.91206628985E+02 0.  0.
        -11    1    1    2    0    0  0.13347046691E+03 -0.20972614268E+02  0.10329336619E+03  0.17006979622E+03  0.00000000000E+00 0.  1.
         11    1    1    2    0    0 -0.25496436770E+02  0.66893381771E+01 -0.45232679123E+03  0.45309418623E+03  0.00000000000E+00 0.  1.
        -15    1    3    3    0    0 -0.27880073894E+01  0.33694345797E+02  0.10665195638E+03  0.11189673566E+03  0.17770000000E+01 0. -1.
         15    1    3    3    0    0 -0.10518602275E+03 -0.19411069706E+02  0.24238146866E+03  0.26493928189E+03  0.17770000000E+01 0.  1.
</event>
<event>
 7    1  0.2187028E-004  0.4410396E+03  0.7546771E-02  0.9542356E-01
        -11   -1    0    0    0    0  0.00000000000E+00  0.00000000000E+00  0.50000000000E+03  0.50000000000E+03  0.00000000000E+00 0. -1.
         11   -1    0    0    0    0 -0.00000000000E+00 -0.00000000000E+00 -0.50000000000E+03  0.50000000000E+03  0.00000000000E+00 0.  1.
         23    2    1    2    0    0  0.48804126306E+02  0.18013180799E+02  0.46166542954E+03  0.47857745468E+03  0.11486989973E+03 0.  0.
        -11    1    1    2    0    0 -0.96052735153E+02 -0.40013103054E+02 -0.67956865145E+02  0.12427916908E+03  0.00000000000E+00 0. -1.
         11    1    1    2    0    0  0.47248608847E+02  0.21999922255E+02 -0.39370856440E+03  0.39714337625E+03  0.00000000000E+00 0.  1.
        -15    1    3    3    0    0  0.31186672795E+02 -0.35940520397E+02  0.35078396496E+03  0.35400123922E+03  0.17770000000E+01 0. -1.
         15    1    3    3    0    0  0.17617453510E+02  0.53953701195E+02  0.11088146458E+03  0.12457621546E+03  0.17770000000E+01 0.  1.
</event>
<event>
 7    1  0.2187028E-004  0.5316934E+03  0.7546771E-02  0.9331558E-01
        -11   -1    0    0    0    0  0.00000000000E+00  0.00000000000E+00  0.50000000000E+03  0.50000000000E+03  0.00000000000E+00 0.  1.
         11   -1    0    0    0    0 -0.00000000000E+00 -0.00000000000E+00 -0.50000000000E+03  0.50000000000E+03  0.00000000000E+00 0.  1.
         23    2    1    2    0    0  0.29600505728E+02 -0.63209910155E+02 -0.96917082462E+02  0.16670696100E+03  0.11630394358E+03 0.  0.
        -11    1    1    2    0    0 -0.33224669928E+02  0.70221711381E+02  0.46181821206E+03  0.46830655390E+03  0.00000000000E+00 0.  1.
         11    1    1    2    0    0  0.36241641999E+01 -0.70118012257E+01 -0.36490112959E+03  0.36498648509E+03  0.00000000000E+00 0.  1.
        -15    1    3    3    0    0  0.50223098562E+02 -0.34025015019E+01 -0.89876464650E+02  0.10302850709E+03  0.17770000000E+01 0.  1.
         15    1    3    3    0    0 -0.20622592834E+02 -0.59807408653E+02 -0.70406178121E+01  0.63678453916E+02  0.17770000000E+01 0. -1.
</event>
<event>
 7    1  0.2187028E-004  0.5234973E+03  0.7546771E-02  0.9348715E-01
        -11   -1    0    0    0    0  0.00000000000E+00  0.00000000000E+00  0.50000000000E+03  0.50000000000E+03  0.00000000000E+00 0. -1.
         11   -1    0    0    0    0 -0.00000000000E+00 -0.00000000000E+00 -0.50000000000E+03  0.50000000000E+03  0.00000000000E+00 0.  1.
         23    2    1    2    0    0 -0.25119099613E+02  0.71427530478E+02  0.19836252782E+03  0.23026049289E+03  0.89102979002E+02 0.  0.
        -11    1    1    2    0    0  0.58348119763E+02 -0.76690507591E+02  0.27695103136E+03  0.29323678283E+03  0.00000000000E+00 0. -1.
         11    1    1    2    0    0 -0.33229020150E+02  0.52629771137E+01 -0.47531355918E+03  0.47650272428E+03  0.00000000000E+00 0.  1.
        -15    1    3    3    0    0 -0.53047122634E+01  0.87744607005E+02  0.12754172226E+03  0.15491063449E+03  0.17770000000E+01 0.  1.
         15    1    3    3    0    0 -0.19814387349E+02 -0.16317076527E+02  0.70820805554E+02  0.75349858399E+02  0.17770000000E+01 0. -1.
</event>
<event>
 7    1  0.2187028E-004  0.3707717E+03  0.7546771E-02  0.9746936E-01
        -11   -1    0    0    0    0  0.00000000000E+00  0.00000000000E+00  0.50000000000E+03  0.50000000000E+03  0.00000000000E+00 0. -1.
         11   -1    0    0    0    0 -0.00000000000E+00 -0.00000000000E+00 -0.50000000000E+03  0.50000000000E+03  0.00000000000E+00 0.  1.
         23    2    1    2    0    0  0.13254696770E+03 -0.13971057655E+03  0.30825538582E+03  0.37481961817E+03  0.91545723192E+02 0.  0.
        -11    1    1    2    0    0 -0.76278407584E+02  0.20817709413E+03  0.73264211161E+02  0.23350319617E+03  0.00000000000E+00 0. -1.
         11    1    1    2    0    0 -0.56268560112E+02 -0.68466517584E+02 -0.38151959698E+03  0.39167718566E+03  0.00000000000E+00 0.  1.
        -15    1    3    3    0    0  0.74000272767E+02 -0.40701608013E+02  0.67997517754E+02  0.10844114263E+03  0.17770000000E+01 0.  1.
         15    1    3    3    0    0  0.58546694929E+02 -0.99008968535E+02  0.24025786806E+03  0.26637847554E+03  0.17770000000E+01 0. -1.
</event>
<event>
 7    1  0.2187028E-004  0.5162293E+03  0.7546771E-02  0.9364210E-01
        -11   -1    0    0    0    0  0.00000000000E+00  0.00000000000E+00  0.50000000000E+03  0.50000000000E+03  0.00000000000E+00 0.  1.
         11   -1    0    0    0    0 -0.00000000000E+00 -0.00000000000E+00 -0.50000000000E+03  0.50000000000E+03  0.00000000000E+00 0.  1.
         23    2    1    2    0    0 -0.42203878538E+02  0.52856894869E+02  0.33775719635E+03  0.35597463453E+03  0.89794198273E+02 0.  0.
        -11    1    1    2    0    0  0.50964275360E+02 -0.42648247413E+02  0.14582639987E+03  0.16025470124E+03  0.00000000000E+00 0.  1.
         11    1    1    2    0    0 -0.87603968221E+01 -0.10208647456E+02 -0.48358359622E+03  0.48377066423E+03  0.00000000000E+00 0.  1.
        -15    1    3    3    0    0 -0.35210405823E+02  0.54404756085E+02  0.34157018349E+03  0.34766794235E+03  0.17770000000E+01 0. -1.
         15    1    3    3    0    0 -0.69934727145E+01 -0.15478612154E+01 -0.38129871404E+01  0.83066921746E+01  0.17770000000E+01 0.  1.
</event>
<event>
 7    1  0.2187028E-004  0.4563438E+03  0.7546771E-02  0.9503168E-01
        -11   -1    0    0    0    0  0.00000000000E+00  0.00000000000E+00  0.50000000000E+03  0.50000000000E+03  0.00000000000E+00 0.  1.
         11   -1    0    0    0    0 -0.00000000000E+00 -0.00000000000E+00 -0.50000000000E+03  0.50000000000E+03  0.00000000000E+00 0.  1.
         23    2    1    2    0    0 -0.43121499845E+02  0.74487832235E+02  0.46677134140E+03  0.48278098209E+03  0.88284147037E+02 0.  0.
        -11    1    1    2    0    0  0.52070637449E+02 -0.62750744049E+02 -0.41140010719E+02  0.91331854493E+02  0.00000000000E+00 0.  1.
         11    1    1    2    0    0 -0.89491376037E+01 -0.11737088186E+02 -0.42563133068E+03  0.42588716341E+03  0.00000000000E+00 0.  1.
        -15    1    3    3    0    0 -0.28935979719E+02  0.57009472498E+02  0.12638394614E+03  0.14164543921E+03  0.17770000000E+01 0. -1.
         15    1    3    3    0    0 -0.14185520127E+02  0.17478359738E+02  0.34038739526E+03  0.34113554289E+03  0.17770000000E+01 0.  1.
</event>
<event>
 7    1  0.2187028E-004  0.5258367E+03  0.7546771E-02  0.9343784E-01
        -11   -1    0    0    0    0  0.00000000000E+00  0.00000000000E+00  0.50000000000E+03  0.50000000000E+03  0.00000000000E+00 0.  1.
         11   -1    0    0    0    0 -0.00000000000E+00 -0.00000000000E+00 -0.50000000000E+03  0.50000000000E+03  0.00000000000E+00 0.  1.
         23    2    1    2    0    0  0.50143136058E+02  0.86905682276E+02 -0.91209459244E+02  0.15406616462E+03  0.73145648673E+02 0.  0.
        -11    1    1    2    0    0 -0.56289339654E+02 -0.85792573707E+02  0.46292756810E+03  0.47416325118E+03  0.00000000000E+00 0.  1.
         11    1    1    2    0    0  0.61462035967E+01 -0.11131085694E+01 -0.37171810885E+03  0.37177058420E+03  0.00000000000E+00 0.  1.
        -15    1    3    3    0    0 -0.10274458574E+02  0.45488508817E+02 -0.55628537306E+02  0.72611712727E+02  0.17770000000E+01 0.  1.
         15    1    3    3    0    0  0.60417594631E+02  0.41417173459E+02 -0.35580921938E+02  0.81454451894E+02  0.17770000000E+01 0. -1.
</event>
<event>
 7    1  0.2187028E-004  0.5127344E+03  0.7546771E-02  0.9371758E-01
        -11   -1    0    0    0    0  0.00000000000E+00  0.00000000000E+00  0.50000000000E+03  0.50000000000E+03  0.00000000000E+00 0. -1.
         11   -1    0    0    0    0 -0.00000000000E+00 -0.00000000000E+00 -0.50000000000E+03  0.50000000000E+03  0.00000000000E+00 0. -1.
         23    2    1    2    0    0 -0.53165421043E+02  0.50847338081E+02 -0.19864304745E+03  0.23006650202E+03  0.89774836488E+02 0.  0.
        -11    1    1    2    0    0  0.52209374263E+02 -0.55498939533E+02  0.48127104616E+03  0.48726560614E+03  0.00000000000E+00 0. -1.
         11    1    1    2    0    0  0.95604677956E+00  0.46516014527E+01 -0.28262799872E+03  0.28266789184E+03  0.00000000000E+00 0. -1.
        -15    1    3    3    0    0 -0.40815124205E+02  0.36454233594E+02 -0.34271152662E+02  0.64594544232E+02  0.17770000000E+01 0.  1.
         15    1    3    3    0    0 -0.12350296838E+02  0.14393104486E+02 -0.16437189478E+03  0.16547195778E+03  0.17770000000E+01 0. -1.
</event>
<event>
 7    1  0.2187028E-004  0.5031193E+03  0.7546771E-02  0.9392857E-01
        -11   -1    0    0    0    0  0.00000000000E+00  0.00000000000E+00  0.50000000000E+03  0.50000000000E+03  0.00000000000E+00 0.  1.
         11   -1    0    0    0    0 -0.00000000000E+00 -0.00000000000E+00 -0.50000000000E+03  0.50000000000E+03  0.00000000000E+00 0.  1.
         23    2    1    2    0    0  0.63129551458E+01 -0.22736955334E+00  0.49415044137E+03  0.50250261300E+03  0.91018197443E+02 0.  0.
        -11    1    1    2    0    0  0.16576229620E+01  0.68155565448E-01  0.12221913258E+01  0.20606093036E+01  0.00000000000E+00 0.  1.
         11    1    1    2    0    0 -0.79705781078E+01  0.15921398790E+00 -0.49537263270E+03  0.49543677769E+03  0.00000000000E+00 0.  1.
        -15    1    3    3    0    0  0.15295533973E+02  0.10920850981E+02  0.48511054320E+03  0.48547771854E+03  0.17770000000E+01 0.  1.
         15    1    3    3    0    0 -0.89825788274E+01 -0.11148220534E+02  0.90398981710E+01  0.17024894461E+02  0.17770000000E+01 0. -1.
</event>
<event>
 7    1  0.2187028E-004  0.5283828E+03  0.7546771E-02  0.9338449E-01
        -11   -1    0    0    0    0  0.00000000000E+00  0.00000000000E+00  0.50000000000E+03  0.50000000000E+03  0.00000000000E+00 0. -1.
         11   -1    0    0    0    0 -0.00000000000E+00 -0.00000000000E+00 -0.50000000000E+03  0.50000000000E+03  0.00000000000E+00 0.  1.
         23    2    1    2    0    0 -0.10442929339E+03  0.31730149126E+02 -0.12825993920E+03  0.18813309977E+03  0.83852081334E+02 0.  0.
        -11    1    1    2    0    0  0.65006371171E+02 -0.29105318598E+02  0.46620789927E+03  0.47161716805E+03  0.00000000000E+00 0. -1.
         11    1    1    2    0    0  0.39422922219E+02 -0.26248305284E+01 -0.33794796007E+03  0.34024973217E+03  0.00000000000E+00 0.  1.
        -15    1    3    3    0    0 -0.74093879366E+02  0.56793241143E+02 -0.11121201135E+03  0.14521241130E+03  0.17770000000E+01 0.  1.
         15    1    3    3    0    0 -0.30335414024E+02 -0.25063092017E+02 -0.17047927851E+02  0.42920688467E+02  0.17770000000E+01 0. -1.
</event>
<event>
 7    1  0.2187028E-004  0.5258277E+03  0.7546771E-02  0.9343803E-01
        -11   -1    0    0    0    0  0.00000000000E+00  0.00000000000E+00  0.50000000000E+03  0.50000000000E+03  0.00000000000E+00 0.  1.
         11   -1    0    0    0    0 -0.00000000000E+00 -0.00000000000E+00 -0.50000000000E+03  0.50000000000E+03  0.00000000000E+00 0.  1.
         23    2    1    2    0    0 -0.28202500655E+02 -0.76174312014E+02 -0.91791204129E+02  0.15121841882E+03  0.88563413329E+02 0.  0.
        -11    1    1    2    0    0  0.22483340183E+02  0.83095769278E+02  0.46629282883E+03  0.47417234175E+03  0.00000000000E+00 0.  1.
         11    1    1    2    0    0  0.57191604722E+01 -0.69214572636E+01 -0.37450162470E+03  0.37460923944E+03  0.00000000000E+00 0.  1.
        -15    1    3    3    0    0 -0.30617417373E+02 -0.92787792922E+02 -0.58513268060E+02  0.11390329684E+03  0.17770000000E+01 0.  1.
         15    1    3    3    0    0  0.24149167183E+01  0.16613480908E+02 -0.33277936068E+02  0.37315121983E+02  0.17770000000E+01 0. -1.
</event>
<event>
 7    1  0.2187028E-004  0.5086997E+03  0.7546771E-02  0.9380551E-01
        -11   -1    0    0    0    0  0.00000000000E+00  0.00000000000E+00  0.50000000000E+03  0.50000000000E+03  0.00000000000E+00 0.  1.
         11   -1    0    0    0    0 -0.00000000000E+00 -0.00000000000E+00 -0.50000000000E+03  0.50000000000E+03  0.00000000000E+00 0. -1.
         23    2    1    2    0    0  0.24179886566E+02  0.11615980660E+02 -0.23861093519E+03  0.25641689068E+03  0.89971359392E+02 0.  0.
        -11    1    1    2    0    0 -0.21572253975E+02 -0.52066672627E+01  0.49079884359E+03  0.49130029146E+03  0.00000000000E+00 0.  1.
         11    1    1    2    0    0 -0.26076325912E+01 -0.64093133973E+01 -0.25218790840E+03  0.25228281786E+03  0.00000000000E+00 0. -1.
        -15    1    3    3    0    0 -0.79395129554E+01  0.11768665907E+01 -0.21503136518E+03  0.21518844444E+03  0.17770000000E+01 0. -1.
         15    1    3    3    0    0  0.32119399521E+02  0.10439114069E+02 -0.23579570012E+02  0.41228446237E+02  0.17770000000E+01 0.  1.
</event>
<event>
 6    1  0.2187028E-004  0.3895937E+03  0.7546771E-02  0.9687658E-01
        -11   -1    0    0    0    0  0.00000000000E+00  0.00000000000E+00  0.50000000000E+03  0.50000000000E+03  0.00000000000E+00 0.  1.
         11   -1    0    0    0    0 -0.00000000000E+00 -0.00000000000E+00 -0.50000000000E+03  0.50000000000E+03  0.00000000000E+00 0.  1.
        -11    1    1    2    0    0 -0.30105394860E+03  0.93843359140E+02  0.30461265529E+03  0.43843919280E+03  0.00000000000E+00 0.  1.
         11    1    1    2    0    0  0.20489950496E+02  0.33241405424E+02 -0.21023624120E+03  0.21383195790E+03  0.00000000000E+00 0.  1.
        -15    1    1    2    0    0  0.15381855435E+03 -0.23143335705E+02 -0.97834316547E+02  0.18376744236E+03  0.17770000000E+01 0. -1.
         15    1    1    2    0    0  0.12674544375E+03 -0.10394142886E+03  0.34579024580E+01  0.16396140693E+03  0.17770000000E+01 0.  1.
</event>
<event>
 7    1  0.2187028E-004  0.4775213E+03  0.7546771E-02  0.9451562E-01
        -11   -1    0    0    0    0  0.00000000000E+00  0.00000000000E+00  0.50000000000E+03  0.50000000000E+03  0.00000000000E+00 0. -1.
         11   -1    0    0    0    0 -0.00000000000E+00 -0.00000000000E+00 -0.50000000000E+03  0.50000000000E+03  0.00000000000E+00 0.  1.
         23    2    1    2    0    0 -0.49927485803E+02 -0.87314402144E+02  0.45087098987E+03  0.47004521173E+03  0.86840617840E+02 0.  0.
        -11    1    1    2    0    0 -0.12691992631E+02  0.45037254861E+02  0.21560433071E+02  0.51519833817E+02  0.00000000000E+00 0. -1.
         11    1    1    2    0    0  0.62619478434E+02  0.42277147284E+02 -0.47243142294E+03  0.47843495445E+03  0.00000000000E+00 0.  1.
        -15    1    3    3    0    0  0.20904544947E+02 -0.45941293249E+02  0.15600713456E+03  0.16397861503E+03  0.17770000000E+01 0.  1.
         15    1    3    3    0    0 -0.70832030750E+02 -0.41373108896E+02  0.29486385531E+03  0.30606659670E+03  0.17770000000E+01 0. -1.
</event>
<event>
 7    1  0.2187028E-004  0.4892056E+03  0.7546771E-02  0.9424292E-01
        -11   -1    0    0    0    0  0.00000000000E+00  0.00000000000E+00  0.50000000000E+03  0.50000000000E+03  0.00000000000E+00 0. -1.
         11   -1    0    0    0    0 -0.00000000000E+00 -0.00000000000E+00 -0.50000000000E+03  0.50000000000E+03  0.00000000000E+00 0. -1.
         23    2    1    2    0    0 -0.31071810818E+02 -0.15151608805E+02  0.47295013121E+03  0.48283477667E+03  0.90843636385E+02 0.  0.
        -11    1    1    2    0    0  0.25892896925E+02 -0.24490298399E+01  0.14225236136E+02  0.29644513851E+02  0.00000000000E+00 0. -1.
         11    1    1    2    0    0  0.51789138927E+01  0.17600638645E+02 -0.48717536734E+03  0.48752070948E+03  0.00000000000E+00 0. -1.
        -15    1    3    3    0    0 -0.52559844836E+02 -0.38056609149E+02  0.28768686597E+03  0.29491987619E+03  0.17770000000E+01 0.  1.
         15    1    3    3    0    0  0.21488034018E+02  0.22905000344E+02  0.18526326523E+03  0.18791490047E+03  0.17770000000E+01 0. -1.
</event>
<event>
 7    1  0.2187028E-004  0.5071575E+03  0.7546771E-02  0.9383935E-01
        -11   -1    0    0    0    0  0.00000000000E+00  0.00000000000E+00  0.50000000000E+03  0.50000000000E+03  0.00000000000E+00 0. -1.
         11   -1    0    0    0    0 -0.00000000000E+00 -0.00000000000E+00 -0.50000000000E+03  0.50000000000E+03  0.00000000000E+00 0. -1.
         23    2    1    2    0    0 -0.91612962048E+02 -0.50792580457E+02 -0.34222327733E+03  0.36867763129E+03  0.88507645001E+02 0.  0.
        -11    1    1    2    0    0  0.92563248372E+02  0.59105840384E+02  0.48045009895E+03  0.49284252343E+03  0.00000000000E+00 0. -1.
         11    1    1    2    0    0 -0.95028632436E+00 -0.83132599272E+01 -0.13822682162E+03  0.13847984528E+03  0.00000000000E+00 0. -1.
        -15    1    3    3    0    0 -0.79100537046E+02  0.23433407994E+01 -0.24089621137E+03  0.25356760162E+03  0.17770000000E+01 0.  1.
         15    1    3    3    0    0 -0.12512425002E+02 -0.53135921257E+02 -0.10132706596E+03  0.11511002967E+03  0.17770000000E+01 0. -1.
</event>
<event>
 7    1  0.2187028E-004  0.4610825E+03  0.7546771E-02  0.9491366E-01
        -11   -1    0    0    0    0  0.00000000000E+00  0.00000000000E+00  0.50000000000E+03  0.50000000000E+03  0.00000000000E+00 0.  1.
         11   -1    0    0    0    0 -0.00000000000E+00 -0.00000000000E+00 -0.50000000000E+03  0.50000000000E+03  0.00000000000E+00 0.  1.
         23    2    1    2    0    0  0.42977042365E+01 -0.13270305583E+02  0.42880577420E+03  0.43883878521E+03  0.92252458727E+02 0.  0.
        -11    1    1    2    0    0 -0.29423659311E+01  0.69686272250E+02  0.45651279364E+02  0.83359902621E+02  0.00000000000E+00 0.  1.
         11    1    1    2    0    0 -0.13553383053E+01 -0.56415966667E+02 -0.47445705356E+03  0.47780131217E+03  0.00000000000E+00 0.  1.
        -15    1    3    3    0    0  0.18573502392E+02 -0.50260315135E+02  0.24595840934E+03  0.25173353198E+03  0.17770000000E+01 0.  1.
         15    1    3    3    0    0 -0.14275798155E+02  0.36990009551E+02  0.18284736486E+03  0.18710525323E+03  0.17770000000E+01 0. -1.
</event>
<event>
 7    1  0.2187028E-004  0.5038518E+03  0.7546771E-02  0.9391232E-01
        -11   -1    0    0    0    0  0.00000000000E+00  0.00000000000E+00  0.50000000000E+03  0.50000000000E+03  0.00000000000E+00 0.  1.
         11   -1    0    0    0    0 -0.00000000000E+00 -0.00000000000E+00 -0.50000000000E+03  0.50000000000E+03  0.00000000000E+00 0.  1.
         23    2    1    2    0    0 -0.12682788761E+02 -0.23529434956E+00  0.49524809254E+03  0.50385178641E+03  0.91842479316E+02 0.  0.
        -11    1    1    2    0    0 -0.95043148437E+00 -0.10868862494E+01 -0.11122409394E+01  0.18225590890E+01  0.00000000000E+00 0.  1.
         11    1    1    2    0    0  0.13633220245E+02  0.13221805989E+01 -0.49413585160E+03  0.49432565450E+03  0.00000000000E+00 0.  1.
        -15    1    3    3    0    0  0.56458547229E+01  0.43243924214E+02  0.28830485151E+03  0.29159005091E+03  0.17770000000E+01 0.  1.
         15    1    3    3    0    0 -0.18328643484E+02 -0.43479218564E+02  0.20694324104E+03  0.21226173550E+03  0.17770000000E+01 0. -1.
</event>
<event>
 7    1  0.2187028E-004  0.5027784E+03  0.7546771E-02  0.9393614E-01
        -11   -1    0    0    0    0  0.00000000000E+00  0.00000000000E+00  0.50000000000E+03  0.50000000000E+03  0.00000000000E+00 0.  1.
         11   -1    0    0    0    0 -0.00000000000E+00 -0.00000000000E+00 -0.50000000000E+03  0.50000000000E+03  0.00000000000E+00 0. -1.
         23    2    1    2    0    0  0.36352234303E+02 -0.28537915877E+02  0.48565682267E+03  0.49722155449E+03  0.96077194327E+02 0.  0.
        -11    1    1    2    0    0 -0.66607391395E+01  0.47080702313E+02 -0.64308087190E+02  0.79978047327E+02  0.00000000000E+00 0.  1.
         11    1    1    2    0    0 -0.29691495164E+02 -0.18542786437E+02 -0.42134873548E+03  0.42280039818E+03  0.00000000000E+00 0. -1.
        -15    1    3    3    0    0 -0.18107436323E+02 -0.37180502611E+02  0.31890546302E+03  0.32158066033E+03  0.17770000000E+01 0.  1.
         15    1    3    3    0    0  0.54459670627E+02  0.86425867342E+01  0.16675135964E+03  0.17564089416E+03  0.17770000000E+01 0. -1.
</event>
<event>
 7    1  0.2187028E-004  0.5140376E+03  0.7546771E-02  0.9368936E-01
        -11   -1    0    0    0    0  0.00000000000E+00  0.00000000000E+00  0.50000000000E+03  0.50000000000E+03  0.00000000000E+00 0.  1.
         11   -1    0    0    0    0 -0.00000000000E+00 -0.00000000000E+00 -0.50000000000E+03  0.50000000000E+03  0.00000000000E+00 0. -1.
         23    2    1    2    0    0  0.28960859517E+03  0.90776989935E+02  0.36883092223E+03  0.48596241162E+03  0.89496458106E+02 0.  0.
        -11    1    1    2    0    0 -0.28933169511E+03 -0.88614452136E+02 -0.24274022634E+03  0.38792804539E+03  0.00000000000E+00 0.  1.
         11    1    1    2    0    0 -0.27690006615E+00 -0.21625377992E+01 -0.12609069589E+03  0.12610954299E+03  0.00000000000E+00 0. -1.
        -15    1    3    3    0    0  0.11043855606E+03  0.68709874543E+02  0.10979645641E+03  0.17022379708E+03  0.17770000000E+01 0. -1.
         15    1    3    3    0    0  0.17917003911E+03  0.22067115393E+02  0.25903446582E+03  0.31573861453E+03  0.17770000000E+01 0.  1.
</event>
<event>
 7    1  0.2187028E-004  0.4602556E+03  0.7546771E-02  0.9493414E-01
        -11   -1    0    0    0    0  0.00000000000E+00  0.00000000000E+00  0.50000000000E+03  0.50000000000E+03  0.00000000000E+00 0.  1.
         11   -1    0    0    0    0 -0.00000000000E+00 -0.00000000000E+00 -0.50000000000E+03  0.50000000000E+03  0.00000000000E+00 0. -1.
         23    2    1    2    0    0  0.22134095996E+02 -0.67799505988E+01  0.41152915762E+03  0.42300019746E+03  0.95063313363E+02 0.  0.
        -11    1    1    2    0    0 -0.28529593888E+02 -0.11608061614E+02  0.79669169083E+02  0.85415814251E+02  0.00000000000E+00 0.  1.
         11    1    1    2    0    0  0.63954978914E+01  0.18388012213E+02 -0.49119832670E+03  0.49158398829E+03  0.00000000000E+00 0. -1.
        -15    1    3    3    0    0 -0.26553042180E+02 -0.17080947600E+02  0.28920351397E+03  0.29092722981E+03  0.17770000000E+01 0.  1.
         15    1    3    3    0    0  0.48687138176E+02  0.10300997001E+02  0.12232564364E+03  0.13207296765E+03  0.17770000000E+01 0. -1.
</event>
<event>
 7    1  0.2187028E-004  0.4883891E+03  0.7546771E-02  0.9426172E-01
        -11   -1    0    0    0    0  0.00000000000E+00  0.00000000000E+00  0.50000000000E+03  0.50000000000E+03  0.00000000000E+00 0.  1.
         11   -1    0    0    0    0 -0.00000000000E+00 -0.00000000000E+00 -0.50000000000E+03  0.50000000000E+03  0.00000000000E+00 0. -1.
         23    2    1    2    0    0 -0.30777101039E+02  0.59949946607E+02  0.48203438183E+03  0.49543742257E+03  0.92519556669E+02 0.  0.
        -11    1    1    2    0    0 -0.24074781493E+02 -0.14414315820E+02 -0.14426081886E+02  0.31551219359E+02  0.00000000000E+00 0.  1.
         11    1    1    2    0    0  0.54851882532E+02 -0.45535630787E+02 -0.46760829995E+03  0.47301135807E+03  0.00000000000E+00 0. -1.
        -15    1    3    3    0    0 -0.40720623217E+02  0.77865289709E+02  0.43937682353E+03  0.44808071068E+03  0.17770000000E+01 0.  1.
         15    1    3    3    0    0  0.99435221777E+01 -0.17915343103E+02  0.42657558298E+02  0.47356711887E+02  0.17770000000E+01 0. -1.
</event>
<event>
 7    1  0.2187028E-004  0.4956560E+03  0.7546771E-02  0.9409583E-01
        -11   -1    0    0    0    0  0.00000000000E+00  0.00000000000E+00  0.50000000000E+03  0.50000000000E+03  0.00000000000E+00 0. -1.
         11   -1    0    0    0    0 -0.00000000000E+00 -0.00000000000E+00 -0.50000000000E+03  0.50000000000E+03  0.00000000000E+00 0.  1.
         23    2    1    2    0    0  0.12591891841E+02 -0.41199111100E+01  0.48145913888E+03  0.49012616603E+03  0.90803231270E+02 0.  0.
        -11    1    1    2    0    0 -0.61787089157E+01 -0.11084329947E+02  0.11207664124E+02  0.16930757495E+02  0.00000000000E+00 0. -1.
         11    1    1    2    0    0 -0.64131829254E+01  0.15204241057E+02 -0.49266680300E+03  0.49294307647E+03  0.00000000000E+00 0.  1.
        -15    1    3    3    0    0 -0.29486916025E+02  0.23204958459E+02  0.27986540205E+03  0.28237519244E+03  0.17770000000E+01 0.  1.
         15    1    3    3    0    0  0.42078807866E+02 -0.27324869569E+02  0.20159373683E+03  0.20775097359E+03  0.17770000000E+01 0. -1.
</event>
<event>
 7    1  0.2187028E-004  0.5117896E+03  0.7546771E-02  0.9373809E-01
        -11   -1    0    0    0    0  0.00000000000E+00  0.00000000000E+00  0.50000000000E+03  0.50000000000E+03  0.00000000000E+00 0. -1.
         11   -1    0    0    0    0 -0.00000000000E+00 -0.00000000000E+00 -0.50000000000E+03  0.50000000000E+03  0.00000000000E+00 0.  1.
         23    2    1    2    0    0  0.49609780332E+02 -0.39430463433E+01  0.35476294750E+03  0.36895603380E+03  0.88290022338E+02 0.  0.
        -11    1    1    2    0    0 -0.47324614414E+02  0.20798933561E+02  0.13315106036E+03  0.14283353822E+03  0.00000000000E+00 0. -1.
         11    1    1    2    0    0 -0.22851659178E+01 -0.16855887217E+02 -0.48791400786E+03  0.48821042797E+03  0.00000000000E+00 0.  1.
        -15    1    3    3    0    0 -0.19775566906E+02 -0.10431607161E+02  0.34183339688E+02  0.40884592644E+02  0.17770000000E+01 0.  1.
         15    1    3    3    0    0  0.69385347238E+02  0.64885608181E+01  0.32057960781E+03  0.32807144116E+03  0.17770000000E+01 0. -1.
</event>
<event>
 7    1  0.2187028E-004  0.5087637E+03  0.7546771E-02  0.9380411E-01
        -11   -1    0    0    0    0  0.00000000000E+00  0.00000000000E+00  0.50000000000E+03  0.50000000000E+03  0.00000000000E+00 0.  1.
         11   -1    0    0    0    0 -0.00000000000E+00 -0.00000000000E+00 -0.50000000000E+03  0.50000000000E+03  0.00000000000E+00 0. -1.
         23    2    1    2    0    0  0.56249386035E+01 -0.31967102744E+02  0.36252913444E+03  0.37522339738E+03  0.91168465142E+02 0.  0.
        -11    1    1    2    0    0 -0.57174884422E+01 -0.57156550468E+02  0.12055477302E+03  0.13354030940E+03  0.00000000000E+00 0.  1.
         11    1    1    2    0    0  0.92549838658E-01  0.89123653212E+02 -0.48308390746E+03  0.49123629322E+03  0.00000000000E+00 0. -1.
        -15    1    3    3    0    0  0.38397500126E+02  0.30006516137E+01  0.81845277793E+02  0.90471979928E+02  0.17770000000E+01 0. -1.
         15    1    3    3    0    0 -0.32772561523E+02 -0.34967754358E+02  0.28068385664E+03  0.28475141746E+03  0.17770000000E+01 0.  1.
</event>
<event>
 7    1  0.2187028E-004  0.5225241E+03  0.7546771E-02  0.9350774E-01
        -11   -1    0    0    0    0  0.00000000000E+00  0.00000000000E+00  0.50000000000E+03  0.50000000000E+03  0.00000000000E+00 0.  1.
         11   -1    0    0    0    0 -0.00000000000E+00 -0.00000000000E+00 -0.50000000000E+03  0.50000000000E+03  0.00000000000E+00 0.  1.
         23    2    1    2    0    0  0.40276654291E+02 -0.69804740688E+02 -0.14153580562E+03  0.19161034032E+03  0.10093179649E+03 0.  0.
        -11    1    1    2    0    0 -0.36727478876E+02  0.59871137960E+02  0.47228142436E+03  0.47747586815E+03  0.00000000000E+00 0.  1.
         11    1    1    2    0    0 -0.35491754145E+01  0.99336027274E+01 -0.33074561875E+03  0.33091379154E+03  0.00000000000E+00 0.  1.
        -15    1    3    3    0    0  0.39776021874E+02 -0.95353229053E+02 -0.10889627199E+03  0.15011970553E+03  0.17770000000E+01 0.  1.
         15    1    3    3    0    0  0.50063241646E+00  0.25548488366E+02 -0.32639533628E+02  0.41490634787E+02  0.17770000000E+01 0. -1.
</event>
<event>
 7    1  0.2187028E-004  0.5021940E+03  0.7546771E-02  0.9394914E-01
        -11   -1    0    0    0    0  0.00000000000E+00  0.00000000000E+00  0.50000000000E+03  0.50000000000E+03  0.00000000000E+00 0.  1.
         11   -1    0    0    0    0 -0.00000000000E+00 -0.00000000000E+00 -0.50000000000E+03  0.50000000000E+03  0.00000000000E+00 0.  1.
         23    2    1    2    0    0 -0.15950695570E+02 -0.11522771887E+02  0.49685632461E+03  0.50219403366E+03  0.70323830781E+02 0.  0.
        -11    1    1    2    0    0  0.95353741451E+01  0.87333173821E+01 -0.93593725444E+02  0.94482694897E+02  0.00000000000E+00 0.  1.
         11    1    1    2    0    0  0.64153214252E+01  0.27894545050E+01 -0.40326259916E+03  0.40332327145E+03  0.00000000000E+00 0.  1.
        -15    1    3    3    0    0 -0.75674728027E+00  0.56640954487E+01  0.13255794013E+01  0.61293991098E+01  0.17770000000E+01 0. -1.
         15    1    3    3    0    0 -0.15193948290E+02 -0.17186867336E+02  0.49553074521E+03  0.49606463455E+03  0.17770000000E+01 0.  1.
</event>
<event>
 7    1  0.2187028E-004  0.4433730E+03  0.7546771E-02  0.9536272E-01
        -11   -1    0    0    0    0  0.00000000000E+00  0.00000000000E+00  0.50000000000E+03  0.50000000000E+03  0.00000000000E+00 0. -1.
         11   -1    0    0    0    0 -0.00000000000E+00 -0.00000000000E+00 -0.50000000000E+03  0.50000000000E+03  0.00000000000E+00 0.  1.
         23    2    1    2    0    0 -0.42622853233E+02 -0.43421390513E+02 -0.15332523864E+02  0.11103675500E+03  0.91607586484E+02 0.  0.
        -11    1    1    2    0    0  0.26093825069E+02  0.49440102839E+02  0.45024142385E+03  0.45369874501E+03  0.00000000000E+00 0. -1.
         11    1    1    2    0    0  0.16529028164E+02 -0.60187123264E+01 -0.43490889998E+03  0.43526449999E+03  0.00000000000E+00 0.  1.
        -15    1    3    3    0    0 -0.15323698483E+02  0.16604132936E+02 -0.35446388381E+02  0.42072760119E+02  0.17770000000E+01 0. -1.
         15    1    3    3    0    0 -0.27299154750E+02 -0.60025523449E+02  0.20113864517E+02  0.68963994882E+02  0.17770000000E+01 0.  1.
</event>
<event>
 7    1  0.2187028E-004  0.5240979E+03  0.7546771E-02  0.9347447E-01
        -11   -1    0    0    0    0  0.00000000000E+00  0.00000000000E+00  0.50000000000E+03  0.50000000000E+03  0.00000000000E+00 0. -1.
         11   -1    0    0    0    0 -0.00000000000E+00 -0.00000000000E+00 -0.50000000000E+03  0.50000000000E+03  0.00000000000E+00 0.  1.
         23    2    1    2    0    0 -0.16879511539E+02 -0.90671165960E+02  0.39482151599E+03  0.41605044243E+03  0.93315394799E+02 0.  0.
        -11    1    1    2    0    0 -0.16843533436E+01  0.72206172000E+02  0.80359737732E+02  0.10804746998E+03  0.00000000000E+00 0. -1.
         11    1    1    2    0    0  0.18563864882E+02  0.18464993959E+02 -0.47518125373E+03  0.47590208759E+03  0.00000000000E+00 0.  1.
        -15    1    3    3    0    0 -0.13042556545E+02  0.17649308970E+02  0.85270854368E+02  0.88067489586E+02  0.17770000000E+01 0.  1.
         15    1    3    3    0    0 -0.38369549934E+01 -0.10832047493E+03  0.30955066163E+03  0.32798295284E+03  0.17770000000E+01 0. -1.
</event>
<event>
 7    1  0.2187028E-004  0.4207736E+03  0.7546771E-02  0.9596938E-01
        -11   -1    0    0    0    0  0.00000000000E+00  0.00000000000E+00  0.50000000000E+03  0.50000000000E+03  0.00000000000E+00 0. -1.
         11   -1    0    0    0    0 -0.00000000000E+00 -0.00000000000E+00 -0.50000000000E+03  0.50000000000E+03  0.00000000000E+00 0. -1.
         23    2    1    2    0    0 -0.89378440061E+02 -0.88516711988E+02  0.41934765293E+03  0.44773762984E+03  0.93770023533E+02 0.  0.
        -11    1    1    2    0    0  0.14590394258E+03  0.42961234312E+02 -0.28518750622E+02  0.15474801211E+03  0.00000000000E+00 0. -1.
         11    1    1    2    0    0 -0.56525502520E+02  0.45555477676E+02 -0.39082890230E+03  0.39751435805E+03  0.00000000000E+00 0. -1.
        -15    1    3    3    0    0 -0.96478541697E+01 -0.42260174502E+02  0.26038478753E+03  0.26397423879E+03  0.17770000000E+01 0. -1.
         15    1    3    3    0    0 -0.79730585891E+02 -0.46256537486E+02  0.15896286539E+03  0.18376339105E+03  0.17770000000E+01 0.  1.
</event>
<event>
 6    1  0.2187028E-004  0.5752267E+03  0.7546771E-02  0.9245623E-01
        -11   -1    0    0    0    0  0.00000000000E+00  0.00000000000E+00  0.50000000000E+03  0.50000000000E+03  0.00000000000E+00 0. -1.
         11   -1    0    0    0    0 -0.00000000000E+00 -0.00000000000E+00 -0.50000000000E+03  0.50000000000E+03  0.00000000000E+00 0. -1.
        -11    1    1    2    0    0  0.16708031158E+03  0.28361875829E+02  0.38950244762E+03  0.42477333158E+03  0.00000000000E+00 0. -1.
         11    1    1    2    0    0  0.51029226944E+01 -0.38739208207E+01 -0.25074234942E+03  0.25082418718E+03  0.00000000000E+00 0. -1.
        -15    1    1    2    0    0  0.92106962936E+01  0.66003539908E+02 -0.96556361410E+02  0.11733538624E+03  0.17770000000E+01 0.  1.
         15    1    1    2    0    0 -0.18139393057E+03 -0.90491494917E+02 -0.42203736793E+02  0.20706709499E+03  0.17770000000E+01 0. -1.
</event>
<event>
 7    1  0.2187028E-004  0.3764109E+03  0.7546771E-02  0.9728787E-01
        -11   -1    0    0    0    0  0.00000000000E+00  0.00000000000E+00  0.50000000000E+03  0.50000000000E+03  0.00000000000E+00 0.  1.
         11   -1    0    0    0    0 -0.00000000000E+00 -0.00000000000E+00 -0.50000000000E+03  0.50000000000E+03  0.00000000000E+00 0. -1.
         23    2    1    2    0    0 -0.20057092125E+02 -0.18283432208E+03 -0.41142359542E+02  0.22394332806E+03  0.12094314432E+03 0.  0.
        -11    1    1    2    0    0  0.10459964927E+02  0.15770501485E+03  0.39278250265E+03  0.42338915546E+03  0.00000000000E+00 0.  1.
         11    1    1    2    0    0  0.95971271982E+01  0.25129307225E+02 -0.35164014311E+03  0.35266751648E+03  0.00000000000E+00 0. -1.
        -15    1    3    3    0    0  0.17550163176E+01 -0.53469192002E+02 -0.71458461198E+02  0.89283279406E+02  0.17770000000E+01 0. -1.
         15    1    3    3    0    0 -0.21812108443E+02 -0.12936513008E+03  0.30316101657E+02  0.13466004865E+03  0.17770000000E+01 0.  1.
</event>
<event>
 7    1  0.2187028E-004  0.5252562E+03  0.7546771E-02  0.9345005E-01
        -11   -1    0    0    0    0  0.00000000000E+00  0.00000000000E+00  0.50000000000E+03  0.50000000000E+03  0.00000000000E+00 0.  1.
         11   -1    0    0    0    0 -0.00000000000E+00 -0.00000000000E+00 -0.50000000000E+03  0.50000000000E+03  0.00000000000E+00 0. -1.
         23    2    1    2    0    0  0.67566619303E+02 -0.38140757421E+02  0.32547089511E+03  0.34684926175E+03  0.91395521727E+02 0.  0.
        -11    1    1    2    0    0 -0.76826753122E+02  0.62053975009E+02  0.14857986294E+03  0.17840689863E+03  0.00000000000E+00 0.  1.
         11    1    1    2    0    0  0.92601338186E+01 -0.23913217587E+02 -0.47405075804E+03  0.47474383962E+03  0.00000000000E+00 0. -1.
        -15    1    3    3    0    0 -0.17840497309E+02 -0.18515706985E+02  0.13138568963E+03  0.13388977525E+03  0.17770000000E+01 0. -1.
         15    1    3    3    0    0  0.85407116612E+02 -0.19625050437E+02  0.19408520548E+03  0.21295948649E+03  0.17770000000E+01 0.  1.
</event>
<event>
 7    1  0.2187028E-004  0.5303279E+03  0.7546771E-02  0.9334394E-01
        -11   -1    0    0    0    0  0.00000000000E+00  0.00000000000E+00  0.50000000000E+03  0.50000000000E+03  0.00000000000E+00 0.  1.
         11   -1    0    0    0    0 -0.00000000000E+00 -0.00000000000E+00 -0.50000000000E+03  0.50000000000E+03  0.00000000000E+00 0. -1.
         23    2    1    2    0    0  0.26778418248E+02 -0.76700530372E+01 -0.44373445809E+02  0.10516023336E+03  0.91179814595E+02 0.  0.
        -11    1    1    2    0    0 -0.15691933322E+02  0.47069584637E+01  0.46938625294E+03  0.46967206291E+03  0.00000000000E+00 0.  1.
         11    1    1    2    0    0 -0.11086484925E+02  0.29630945735E+01 -0.42501280713E+03  0.42516770374E+03  0.00000000000E+00 0. -1.
        -15    1    3    3    0    0 -0.19573552220E+02 -0.26769630573E+02  0.63602710210E+01  0.33813426978E+02  0.17770000000E+01 0.  1.
         15    1    3    3    0    0  0.46351970468E+02  0.19099577536E+02 -0.50733716830E+02  0.71346806380E+02  0.17770000000E+01 0. -1.
</event>
<event>
 7    1  0.2187028E-004  0.4951424E+03  0.7546771E-02  0.9410745E-01
        -11   -1    0    0    0    0  0.00000000000E+00  0.00000000000E+00  0.50000000000E+03  0.50000000000E+03  0.00000000000E+00 0. -1.
         11   -1    0    0    0    0 -0.00000000000E+00 -0.00000000000E+00 -0.50000000000E+03  0.50000000000E+03  0.00000000000E+00 0. -1.
         23    2    1    2    0    0 -0.24439965416E+02  0.50740242227E+01  0.48194204196E+03  0.49103927843E+03  0.90710437761E+02 0.  0.
        -11    1    1    2    0    0  0.18682274651E+01 -0.15703395102E+02  0.84529264533E+01  0.17931504600E+02  0.00000000000E+00 0. -1.
         11    1    1    2    0    0  0.22571737951E+02  0.10629370880E+02 -0.49039496841E+03  0.49102921697E+03  0.00000000000E+00 0. -1.
        -15    1    3    3    0    0 -0.15504652023E+02  0.13994807189E+01  0.91491620773E+01  0.18144356598E+02  0.17770000000E+01 0.  1.
         15    1    3    3    0    0 -0.89353133928E+01  0.36745435038E+01  0.47279287988E+03  0.47289492183E+03  0.17770000000E+01 0. -1.
</event>
<event>
 7    1  0.2187028E-004  0.4293586E+03  0.7546771E-02  0.9573424E-01
        -11   -1    0    0    0    0  0.00000000000E+00  0.00000000000E+00  0.50000000000E+03  0.50000000000E+03  0.00000000000E+00 0.  1.
         11   -1    0    0    0    0 -0.00000000000E+00 -0.00000000000E+00 -0.50000000000E+03  0.50000000000E+03  0.00000000000E+00 0.  1.
         23    2    1    2    0    0 -0.95800819816E+02  0.31193989029E+02  0.36935512025E+03  0.39353605783E+03  0.91085464950E+02 0.  0.
        -11    1    1    2    0    0  0.10006889925E+03 -0.95052463349E+01  0.96938473612E+02  0.13964670412E+03  0.00000000000E+00 0.  1.
         11    1    1    2    0    0 -0.42680794362E+01 -0.21688742694E+02 -0.46629359387E+03  0.46681723805E+03  0.00000000000E+00 0.  1.
        -15    1    3    3    0    0 -0.79032704504E+02  0.43329055808E+02  0.35933624981E+03  0.37047169070E+03  0.17770000000E+01 0.  1.
         15    1    3    3    0    0 -0.16768115312E+02 -0.12135066779E+02  0.10018870446E+02  0.23064367125E+02  0.17770000000E+01 0. -1.
</event>
<event>
 7    1  0.2187028E-004  0.5216045E+03  0.7546771E-02  0.9352725E-01
        -11   -1    0    0    0    0  0.00000000000E+00  0.00000000000E+00  0.50000000000E+03  0.50000000000E+03  0.00000000000E+00 0.  1.
         11   -1    0    0    0    0 -0.00000000000E+00 -0.00000000000E+00 -0.50000000000E+03  0.50000000000E+03  0.00000000000E+00 0. -1.
         23    2    1    2    0    0  0.17916905131E+02 -0.63004740966E+02  0.22139597903E+03  0.24722179105E+03  0.88384509752E+02 0.  0.
        -11    1    1    2    0    0 -0.45735243046E+02  0.89013596561E+02  0.25548133822E+03  0.27438266529E+03  0.00000000000E+00 0.  1.
         11    1    1    2    0    0  0.27818337915E+02 -0.26008855595E+02 -0.47687731725E+03  0.47839554367E+03  0.00000000000E+00 0. -1.
        -15    1    3    3    0    0  0.27873816336E+02 -0.44203561772E+02  0.43408528561E+02  0.67958535824E+02  0.17770000000E+01 0. -1.
         15    1    3    3    0    0 -0.99569112056E+01 -0.18801179194E+02  0.17798745047E+03  0.17926325522E+03  0.17770000000E+01 0.  1.
</event>
<event>
 7    1  0.2187028E-004  0.4611407E+03  0.7546771E-02  0.9491221E-01
        -11   -1    0    0    0    0  0.00000000000E+00  0.00000000000E+00  0.50000000000E+03  0.50000000000E+03  0.00000000000E+00 0. -1.
         11   -1    0    0    0    0 -0.00000000000E+00 -0.00000000000E+00 -0.50000000000E+03  0.50000000000E+03  0.00000000000E+00 0.  1.
         23    2    1    2    0    0  0.12966286124E+03  0.71220610184E+02  0.39437126941E+03  0.43077629291E+03  0.90303286187E+02 0.  0.
        -11    1    1    2    0    0 -0.33125716038E+02  0.96514042630E+01  0.75371026768E+02  0.82893029522E+02  0.00000000000E+00 0. -1.
         11    1    1    2    0    0 -0.96537145201E+02 -0.80872014447E+02 -0.46974229618E+03  0.48633067757E+03  0.00000000000E+00 0.  1.
        -15    1    3    3    0    0  0.17599829073E+02  0.19953760094E+02  0.12388322914E+02  0.29402972620E+02  0.17770000000E+01 0.  1.
         15    1    3    3    0    0  0.11206303217E+03  0.51266850090E+02  0.38198294650E+03  0.40137332029E+03  0.17770000000E+01 0. -1.
</event>
<event>
 7    1  0.2187028E-004  0.5407737E+03  0.7546771E-02  0.9312930E-01
        -11   -1    0    0    0    0  0.00000000000E+00  0.00000000000E+00  0.50000000000E+03  0.50000000000E+03  0.00000000000E+00 0. -1.
         11   -1    0    0    0    0 -0.00000000000E+00 -0.00000000000E+00 -0.50000000000E+03  0.50000000000E+03  0.00000000000E+00 0.  1.
         23    2    1    2    0    0  0.10179927452E+03  0.19578983103E+02 -0.73290056210E+02  0.16277489841E+03  0.10187151878E+03 0.  0.
        -11    1    1    2    0    0 -0.85853340807E+02 -0.14029456526E+02  0.45091154178E+03  0.45922634973E+03  0.00000000000E+00 0. -1.
         11    1    1    2    0    0 -0.15945933718E+02 -0.55495265777E+01 -0.37762148557E+03  0.37799875186E+03  0.00000000000E+00 0.  1.
        -15    1    3    3    0    0  0.16022629515E+02 -0.33009906674E+01 -0.72120246027E+02  0.73973703517E+02  0.17770000000E+01 0.  1.
         15    1    3    3    0    0  0.85776645010E+02  0.22879973771E+02 -0.11698101827E+01  0.88801194889E+02  0.17770000000E+01 0. -1.
</event>
<event>
 7    1  0.2187028E-004  0.5202167E+03  0.7546771E-02  0.9355676E-01
        -11   -1    0    0    0    0  0.00000000000E+00  0.00000000000E+00  0.50000000000E+03  0.50000000000E+03  0.00000000000E+00 0.  1.
         11   -1    0    0    0    0 -0.00000000000E+00 -0.00000000000E+00 -0.50000000000E+03  0.50000000000E+03  0.00000000000E+00 0.  1.
         23    2    1    2    0    0 -0.34648362022E+02 -0.22367649294E+01  0.95462281961E+02  0.13492821065E+03  0.88809136042E+02 0.  0.
        -11    1    1    2    0    0  0.28129804800E+02 -0.28738434388E+01  0.38424950387E+03  0.38528849726E+03  0.00000000000E+00 0.  1.
         11    1    1    2    0    0  0.65185572218E+01  0.51106083682E+01 -0.47971178583E+03  0.47978329209E+03  0.00000000000E+00 0.  1.
        -15    1    3    3    0    0 -0.36781358737E+02 -0.11222990605E+02  0.11059907607E+03  0.11710737477E+03  0.17770000000E+01 0.  1.
         15    1    3    3    0    0  0.21329967153E+01  0.89862256759E+01 -0.15136794106E+02  0.17820835887E+02  0.17770000000E+01 0. -1.
</event>
<event>
 7    1  0.2187028E-004  0.5030974E+03  0.7546771E-02  0.9392906E-01
        -11   -1    0    0    0    0  0.00000000000E+00  0.00000000000E+00  0.50000000000E+03  0.50000000000E+03  0.00000000000E+00 0.  1.
         11   -1    0    0    0    0 -0.00000000000E+00 -0.00000000000E+00 -0.50000000000E+03  0.50000000000E+03  0.00000000000E+00 0.  1.
         23    2    1    2    0    0  0.10678961791E+02  0.58030689785E+01  0.49460993215E+03  0.50309741380E+03  0.91215716611E+02 0.  0.
        -11    1    1    2    0    0 -0.17146264887E+01  0.44611910728E+01 -0.43785038837E+01  0.64817795430E+01  0.00000000000E+00 0.  1.
         11    1    1    2    0    0 -0.89643353019E+01 -0.10264260051E+02 -0.49023142827E+03  0.49042080666E+03  0.00000000000E+00 0.  1.
        -15    1    3    3    0    0 -0.27937967199E+02  0.33962215757E+02  0.22124408601E+03  0.22557939940E+03  0.17770000000E+01 0. -1.
         15    1    3    3    0    0  0.38616928990E+02 -0.28159146779E+02  0.27336584614E+03  0.27751801440E+03  0.17770000000E+01 0.  1.
</event>
<event>
 7    1  0.2187028E-004  0.5241775E+03  0.7546771E-02  0.9347279E-01
        -11   -1    0    0    0    0  0.00000000000E+00  0.00000000000E+00  0.50000000000E+03  0.50000000000E+03  0.00000000000E+00 0. -1.
         11   -1    0    0    0    0 -0.00000000000E+00 -0.00000000000E+00 -0.50000000000E+03  0.50000000000E+03  0.00000000000E+00 0.  1.
         23    2    1    2    0    0  0.10810002731E+03  0.17971247298E+02 -0.12060393664E+03  0.18243779551E+03  0.82034493132E+02 0.  0.
        -11    1    1    2    0    0 -0.11210859063E+03 -0.12076225637E+02  0.46226927544E+03  0.47582250297E+03  0.00000000000E+00 0. -1.
         11    1    1    2    0    0  0.40085633216E+01 -0.58950216610E+01 -0.34166533879E+03  0.34173970152E+03  0.00000000000E+00 0.  1.
        -15    1    3    3    0    0  0.34765344980E+02 -0.31225741420E+02 -0.28192463648E+02  0.54604476688E+02  0.17770000000E+01 0.  1.
         15    1    3    3    0    0  0.73334682331E+02  0.49196988718E+02 -0.92411472995E+02  0.12783331882E+03  0.17770000000E+01 0. -1.
</event>
<event>
 7    1  0.2187028E-004  0.5344641E+03  0.7546771E-02  0.9325833E-01
        -11   -1    0    0    0    0  0.00000000000E+00  0.00000000000E+00  0.50000000000E+03  0.50000000000E+03  0.00000000000E+00 0. -1.
         11   -1    0    0    0    0 -0.00000000000E+00 -0.00000000000E+00 -0.50000000000E+03  0.50000000000E+03  0.00000000000E+00 0. -1.
         23    2    1    2    0    0  0.17354188309E+01  0.60768161224E+02 -0.91943784249E+02  0.15766824242E+03  0.11273790006E+03 0.  0.
        -11    1    1    2    0    0  0.42245114242E+02 -0.15113747189E+02  0.46336875057E+03  0.46553589983E+03  0.00000000000E+00 0. -1.
         11    1    1    2    0    0 -0.43980533073E+02 -0.45654414034E+02 -0.37142496632E+03  0.37679585774E+03  0.00000000000E+00 0. -1.
        -15    1    3    3    0    0  0.41067936025E+02  0.63905120852E+02 -0.90466702599E+02  0.11814322600E+03  0.17770000000E+01 0.  1.
         15    1    3    3    0    0 -0.39332517194E+02 -0.31369596282E+01 -0.14770816499E+01  0.39525016429E+02  0.17770000000E+01 0. -1.
</event>
<event>
 7    1  0.2187028E-004  0.5011779E+03  0.7546771E-02  0.9397178E-01
        -11   -1    0    0    0    0  0.00000000000E+00  0.00000000000E+00  0.50000000000E+03  0.50000000000E+03  0.00000000000E+00 0. -1.
         11   -1    0    0    0    0 -0.00000000000E+00 -0.00000000000E+00 -0.50000000000E+03  0.50000000000E+03  0.00000000000E+00 0.  1.
         23    2    1    2    0    0 -0.86808039032E+01  0.96379843363E+01  0.49152011131E+03  0.49996873217E+03  0.90600586236E+02 0.  0.
        -11    1    1    2    0    0  0.53147599270E+01 -0.81355741886E-01  0.25233458999E+01  0.58839244020E+01  0.00000000000E+00 0. -1.
         11    1    1    2    0    0  0.33660439762E+01 -0.95566285944E+01 -0.49404345721E+03  0.49414734343E+03  0.00000000000E+00 0.  1.
        -15    1    3    3    0    0 -0.26609350734E+02  0.40759541587E+02  0.18342856220E+03  0.18978564998E+03  0.17770000000E+01 0.  1.
         15    1    3    3    0    0  0.17928546831E+02 -0.31121557251E+02  0.30809154911E+03  0.31018308219E+03  0.17770000000E+01 0. -1.
</event>
<event>
 7    1  0.2187028E-004  0.5120319E+03  0.7546771E-02  0.9373283E-01
        -11   -1    0    0    0    0  0.00000000000E+00  0.00000000000E+00  0.50000000000E+03  0.50000000000E+03  0.00000000000E+00 0.  1.
         11   -1    0    0    0    0 -0.00000000000E+00 -0.00000000000E+00 -0.50000000000E+03  0.50000000000E+03  0.00000000000E+00 0.  1.
         23    2    1    2    0    0 -0.26185439198E+02  0.39053167430E+02  0.32285944171E+03  0.33874066798E+03  0.91083444871E+02 0.  0.
        -11    1    1    2    0    0  0.26227782468E+02 -0.45787034922E+02  0.16506215424E+03  0.17329126897E+03  0.00000000000E+00 0.  1.
         11    1    1    2    0    0 -0.42343270518E-01  0.67338674920E+01 -0.48792159595E+03  0.48796806305E+03  0.00000000000E+00 0.  1.
        -15    1    3    3    0    0 -0.16582921462E+02  0.29432354875E+01  0.28505386233E+03  0.28555650593E+03  0.17770000000E+01 0.  1.
         15    1    3    3    0    0 -0.96025177353E+01  0.36109931943E+02  0.37805579375E+02  0.53184162047E+02  0.17770000000E+01 0. -1.
</event>
<event>
 7    1  0.2187028E-004  0.5097363E+03  0.7546771E-02  0.9378284E-01
        -11   -1    0    0    0    0  0.00000000000E+00  0.00000000000E+00  0.50000000000E+03  0.50000000000E+03  0.00000000000E+00 0.  1.
         11   -1    0    0    0    0 -0.00000000000E+00 -0.00000000000E+00 -0.50000000000E+03  0.50000000000E+03  0.00000000000E+00 0. -1.
         23    2    1    2    0    0 -0.99227319521E+02  0.11611403026E+03  0.28721324190E+03  0.33763194033E+03  0.90417652293E+02 0.  0.
        -11    1    1    2    0    0 -0.13859313852E+02  0.10565612084E+03  0.13514666399E+03  0.17210437891E+03  0.00000000000E+00 0.  1.
         11    1    1    2    0    0  0.11308663337E+03 -0.22177015110E+03 -0.42235990589E+03  0.49026368076E+03  0.00000000000E+00 0. -1.
        -15    1    3    3    0    0 -0.60508840583E+01  0.45836326254E+02  0.29915904281E+02  0.55097196483E+02  0.17770000000E+01 0. -1.
         15    1    3    3    0    0 -0.93176435463E+02  0.70277704003E+02  0.25729733762E+03  0.28253474385E+03  0.17770000000E+01 0.  1.
</event>
<event>
 7    1  0.2187028E-004  0.4846125E+03  0.7546771E-02  0.9434914E-01
        -11   -1    0    0    0    0  0.00000000000E+00  0.00000000000E+00  0.50000000000E+03  0.50000000000E+03  0.00000000000E+00 0.  1.
         11   -1    0    0    0    0 -0.00000000000E+00 -0.00000000000E+00 -0.50000000000E+03  0.50000000000E+03  0.00000000000E+00 0.  1.
         23    2    1    2    0    0  0.31219339284E+02 -0.20192258320E+02  0.47107903047E+03  0.47704930900E+03  0.65408071588E+02 0.  0.
        -11    1    1    2    0    0 -0.26598887925E+02  0.13871790409E+02  0.17219383398E+02  0.34589515357E+02  0.00000000000E+00 0.  1.
         11    1    1    2    0    0 -0.46204513595E+01  0.63204679105E+01 -0.48829841387E+03  0.48836117564E+03  0.00000000000E+00 0.  1.
        -15    1    3    3    0    0 -0.13798653462E+02 -0.14820224999E+02  0.57468284822E+02  0.60957390001E+02  0.17770000000E+01 0. -1.
         15    1    3    3    0    0  0.45017992746E+02 -0.53720333211E+01  0.41361074565E+03  0.41609191900E+03  0.17770000000E+01 0.  1.
</event>
<event>
 6    1  0.2187028E-004  0.3897140E+03  0.7546771E-02  0.9687290E-01
        -11   -1    0    0    0    0  0.00000000000E+00  0.00000000000E+00  0.50000000000E+03  0.50000000000E+03  0.00000000000E+00 0.  1.
         11   -1    0    0    0    0 -0.00000000000E+00 -0.00000000000E+00 -0.50000000000E+03  0.50000000000E+03  0.00000000000E+00 0.  1.
        -11    1    1    2    0    0  0.42366184340E+02  0.46392944594E+02  0.36816185572E+03  0.37348407046E+03  0.00000000000E+00 0.  1.
         11    1    1    2    0    0  0.26579400598E-01  0.62229180808E+01 -0.40993445492E+03  0.40998168587E+03  0.00000000000E+00 0.  1.
        -15    1    1    2    0    0  0.26767719796E+02 -0.24936042381E+02 -0.71855997174E+02  0.80652086716E+02  0.17770000000E+01 0. -1.
         15    1    1    2    0    0 -0.69160483537E+02 -0.27679820295E+02  0.11362859638E+03  0.13588215695E+03  0.17770000000E+01 0.  1.
</event>
<event>
 7    1  0.2187028E-004  0.5145734E+03  0.7546771E-02  0.9367778E-01
        -11   -1    0    0    0    0  0.00000000000E+00  0.00000000000E+00  0.50000000000E+03  0.50000000000E+03  0.00000000000E+00 0. -1.
         11   -1    0    0    0    0 -0.00000000000E+00 -0.00000000000E+00 -0.50000000000E+03  0.50000000000E+03  0.00000000000E+00 0.  1.
         23    2    1    2    0    0  0.47346803651E+02 -0.44992910387E+02  0.27488317435E+03  0.29686811718E+03  0.91125395224E+02 0.  0.
        -11    1    1    2    0    0 -0.39123954408E+02  0.39721309894E+02  0.21044510468E+03  0.21770532458E+03  0.00000000000E+00 0. -1.
         11    1    1    2    0    0 -0.82228492435E+01  0.52716004928E+01 -0.48532827903E+03  0.48542655824E+03  0.00000000000E+00 0.  1.
        -15    1    3    3    0    0 -0.18145893378E+02 -0.42499173015E+02  0.10302269540E+03  0.11292602291E+03  0.17770000000E+01 0.  1.
         15    1    3    3    0    0  0.65492697029E+02 -0.24937373725E+01  0.17186047895E+03  0.18394209427E+03  0.17770000000E+01 0. -1.
</event>
<event>
 7    1  0.2187028E-004  0.5324653E+03  0.7546771E-02  0.9329960E-01
        -11   -1    0    0    0    0  0.00000000000E+00  0.00000000000E+00  0.50000000000E+03  0.50000000000E+03  0.00000000000E+00 0. -1.
         11   -1    0    0    0    0 -0.00000000000E+00 -0.00000000000E+00 -0.50000000000E+03  0.50000000000E+03  0.00000000000E+00 0.  1.
         23    2    1    2    0    0 -0.29483144642E+02  0.30152611598E+01 -0.38357748748E+02  0.10378321624E+03  0.91767594854E+02 0.  0.
        -11    1    1    2    0    0  0.21885543555E+02 -0.98952797756E+01  0.46691730921E+03  0.46753466953E+03  0.00000000000E+00 0. -1.
         11    1    1    2    0    0  0.75976010877E+01  0.68800186158E+01 -0.42855956046E+03  0.42868211423E+03  0.00000000000E+00 0.  1.
        -15    1    3    3    0    0 -0.13792986259E+02 -0.42382132101E+02 -0.41707341927E+01  0.44800048483E+02  0.17770000000E+01 0. -1.
         15    1    3    3    0    0 -0.15690158384E+02  0.45397393261E+02 -0.34187014555E+02  0.58983167753E+02  0.17770000000E+01 0.  1.
</event>
<event>
 7    1  0.2187028E-004  0.4608104E+03  0.7546771E-02  0.9492039E-01
        -11   -1    0    0    0    0  0.00000000000E+00  0.00000000000E+00  0.50000000000E+03  0.50000000000E+03  0.00000000000E+00 0. -1.
         11   -1    0    0    0    0 -0.00000000000E+00 -0.00000000000E+00 -0.50000000000E+03  0.50000000000E+03  0.00000000000E+00 0.  1.
         23    2    1    2    0    0  0.12115764267E+03  0.15391584484E+03 -0.36556502661E+03  0.42580049414E+03  0.96431376940E+02 0.  0.
        -11    1    1    2    0    0 -0.12351688332E+03 -0.14801213156E+03  0.44998466074E+03  0.48954081184E+03  0.00000000000E+00 0. -1.
         11    1    1    2    0    0  0.23592406580E+01 -0.59037132799E+01 -0.84419634131E+02  0.84658694024E+02  0.00000000000E+00 0.  1.
        -15    1    3    3    0    0 -0.35969062896E+01  0.26901783280E+02 -0.11655834544E+03  0.11968980449E+03  0.17770000000E+01 0. -1.
         15    1    3    3    0    0  0.12475454896E+03  0.12701406156E+03 -0.24900668116E+03  0.30611068964E+03  0.17770000000E+01 0.  1.
</event>
<event>
 7    1  0.2187028E-004  0.5021590E+03  0.7546771E-02  0.9394992E-01
        -11   -1    0    0    0    0  0.00000000000E+00  0.00000000000E+00  0.50000000000E+03  0.50000000000E+03  0.00000000000E+00 0. -1.
         11   -1    0    0    0    0 -0.00000000000E+00 -0.00000000000E+00 -0.50000000000E+03  0.50000000000E+03  0.00000000000E+00 0. -1.
         23    2    1    2    0    0 -0.57189901605E+01 -0.16937341661E+02  0.49387772872E+03  0.50215897391E+03  0.89044055165E+02 0.  0.
        -11    1    1    2    0    0  0.26090403823E+01  0.97587599992E+01 -0.11132460385E+02  0.15032370494E+02  0.00000000000E+00 0. -1.
         11    1    1    2    0    0  0.31099497782E+01  0.71785816614E+01 -0.48274526833E+03  0.48280865560E+03  0.00000000000E+00 0. -1.
        -15    1    3    3    0    0  0.18832577647E+01 -0.44321347558E+02  0.13414444106E+03  0.14130045048E+03  0.17770000000E+01 0.  1.
         15    1    3    3    0    0 -0.76022479251E+01  0.27384005897E+02  0.35973328765E+03  0.36085852342E+03  0.17770000000E+01 0. -1.
</event>
<event>
 7    1  0.2187028E-004  0.5232886E+03  0.7546771E-02  0.9349156E-01
        -11   -1    0    0    0    0  0.00000000000E+00  0.00000000000E+00  0.50000000000E+03  0.50000000000E+03  0.00000000000E+00 0. -1.
         11   -1    0    0    0    0 -0.00000000000E+00 -0.00000000000E+00 -0.50000000000E+03  0.50000000000E+03  0.00000000000E+00 0. -1.
         23    2    1    2    0    0  0.38741651656E+02  0.45797051009E+02 -0.76360383432E+02  0.12740645097E+03  0.82481574523E+02 0.  0.
        -11    1    1    2    0    0 -0.34978242137E+02 -0.56254291583E+02  0.47208653796E+03  0.47671136137E+03  0.00000000000E+00 0. -1.
         11    1    1    2    0    0 -0.37634095192E+01  0.10457240574E+02 -0.39572615452E+03  0.39588218766E+03  0.00000000000E+00 0. -1.
        -15    1    3    3    0    0  0.12912724489E+02 -0.19232743022E+02  0.77675578737E+00  0.23246460729E+02  0.17770000000E+01 0.  1.
         15    1    3    3    0    0  0.25828927166E+02  0.65029794030E+02 -0.77137139219E+02  0.10415999024E+03  0.17770000000E+01 0. -1.
</event>
<event>
 7    1  0.2187028E-004  0.4662652E+03  0.7546771E-02  0.9478628E-01
        -11   -1    0    0    0    0  0.00000000000E+00  0.00000000000E+00  0.50000000000E+03  0.50000000000E+03  0.00000000000E+00 0.  1.
         11   -1    0    0    0    0 -0.00000000000E+00 -0.00000000000E+00 -0.50000000000E+03  0.50000000000E+03  0.00000000000E+00 0.  1.
         23    2    1    2    0    0  0.29225686402E+02 -0.71525323892E+02  0.45414507869E+03  0.47029359926E+03  0.94648319042E+02 0.  0.
        -11    1    1    2    0    0 -0.34327541811E+02  0.65767931552E+02  0.12974104761E+01  0.74198950271E+02  0.00000000000E+00 0.  1.
         11    1    1    2    0    0  0.51018554088E+01  0.57573923403E+01 -0.45544248917E+03  0.45550745047E+03  0.00000000000E+00 0.  1.
        -15    1    3    3    0    0 -0.15729125098E+02 -0.45557003475E+02  0.35597193405E+03  0.35922419393E+03  0.17770000000E+01 0.  1.
         15    1    3    3    0    0  0.44954811500E+02 -0.25968320417E+02  0.98173144641E+02  0.11106940533E+03  0.17770000000E+01 0. -1.
</event>
<event>
 7    1  0.2187028E-004  0.5342162E+03  0.7546771E-02  0.9326344E-01
        -11   -1    0    0    0    0  0.00000000000E+00  0.00000000000E+00  0.50000000000E+03  0.50000000000E+03  0.00000000000E+00 0.  1.
         11   -1    0    0    0    0 -0.00000000000E+00 -0.00000000000E+00 -0.50000000000E+03  0.50000000000E+03  0.00000000000E+00 0.  1.
         23    2    1    2    0    0 -0.41620118663E+02 -0.12567666598E+02 -0.31047602145E+02  0.10168825313E+03  0.86523792705E+02 0.  0.
        -11    1    1    2    0    0  0.46116470387E+02  0.43758244308E+01  0.46347457803E+03  0.46578381376E+03  0.00000000000E+00 0.  1.
         11    1    1    2    0    0 -0.44963517240E+01  0.81918421675E+01 -0.43242697588E+03  0.43252793312E+03  0.00000000000E+00 0.  1.
        -15    1    3    3    0    0 -0.72575704043E+01 -0.11559354694E+02 -0.56961749907E+02  0.58601106565E+02  0.17770000000E+01 0.  1.
         15    1    3    3    0    0 -0.34362548259E+02 -0.10083119039E+01  0.25914147762E+02  0.43087146563E+02  0.17770000000E+01 0. -1.
</event>
<event>
 7    1  0.2187028E-004  0.4423847E+03  0.7546771E-02  0.9538844E-01
        -11   -1    0    0    0    0  0.00000000000E+00  0.00000000000E+00  0.50000000000E+03  0.50000000000E+03  0.00000000000E+00 0.  1.
         11   -1    0    0    0    0 -0.00000000000E+00 -0.00000000000E+00 -0.50000000000E+03  0.50000000000E+03  0.00000000000E+00 0. -1.
         23    2    1    2    0    0  0.24844446457E+02 -0.31504599489E+02  0.43660780820E+02  0.11324580115E+03  0.96480886125E+02 0.  0.
        -11    1    1    2    0    0 -0.27847987801E+03  0.22670231093E+03  0.26175139594E+03  0.44436333502E+03  0.00000000000E+00 0.  1.
         11    1    1    2    0    0  0.25363543155E+03 -0.19519771144E+03 -0.30541217676E+03  0.44239086383E+03  0.00000000000E+00 0. -1.
        -15    1    3    3    0    0  0.42830901547E+02 -0.76364358723E+01  0.63742766334E+02  0.77195202371E+02  0.17770000000E+01 0. -1.
         15    1    3    3    0    0 -0.17986455091E+02 -0.23868163617E+02 -0.20081985513E+02  0.36050598779E+02  0.17770000000E+01 0.  1.
</event>
<event>
 7    1  0.2187028E-004  0.4196206E+03  0.7546771E-02  0.9600141E-01
        -11   -1    0    0    0    0  0.00000000000E+00  0.00000000000E+00  0.50000000000E+03  0.50000000000E+03  0.00000000000E+00 0. -1.
         11   -1    0    0    0    0 -0.00000000000E+00 -0.00000000000E+00 -0.50000000000E+03  0.50000000000E+03  0.00000000000E+00 0.  1.
         23    2    1    2    0    0 -0.11848342345E+03 -0.22119307073E+02 -0.11136515389E+02  0.15207469338E+03  0.92060333560E+02 0.  0.
        -11    1    1    2    0    0  0.54067862370E+02  0.55462913314E+02  0.42284275703E+03  0.42987843126E+03  0.00000000000E+00 0. -1.
         11    1    1    2    0    0  0.64415561079E+02 -0.33343606241E+02 -0.41170624164E+03  0.41804687535E+03  0.00000000000E+00 0.  1.
        -15    1    3    3    0    0 -0.10567177585E+03  0.13364219284E+02  0.12900959881E+02  0.10730665899E+03  0.17770000000E+01 0. -1.
         15    1    3    3    0    0 -0.12811647595E+02 -0.35483526358E+02 -0.24037475271E+02  0.44768034391E+02  0.17770000000E+01 0.  1.
</event>
<event>
 7    1  0.2187028E-004  0.4698867E+03  0.7546771E-02  0.9469832E-01
        -11   -1    0    0    0    0  0.00000000000E+00  0.00000000000E+00  0.50000000000E+03  0.50000000000E+03  0.00000000000E+00 0. -1.
         11   -1    0    0    0    0 -0.00000000000E+00 -0.00000000000E+00 -0.50000000000E+03  0.50000000000E+03  0.00000000000E+00 0.  1.
         23    2    1    2    0    0 -0.12545436801E+02  0.43010148453E+02  0.46723610382E+03  0.47830390287E+03  0.91966221736E+02 0.  0.
        -11    1    1    2    0    0 -0.24666945731E+02 -0.60529572121E+02 -0.14315815936E+02  0.66912105772E+02  0.00000000000E+00 0. -1.
         11    1    1    2    0    0  0.37212382532E+02  0.17519423668E+02 -0.45292028788E+03  0.45478399135E+03  0.00000000000E+00 0.  1.
        -15    1    3    3    0    0 -0.31019957430E+02  0.57306368824E+02  0.42530725040E+03  0.43027395069E+03  0.17770000000E+01 0. -1.
         15    1    3    3    0    0  0.18474520629E+02 -0.14296220371E+02  0.41928853413E+02  0.48029952185E+02  0.17770000000E+01 0.  1.
</event>
<event>
 7    1  0.3684950E-004  0.5029828E+03  0.7546771E-02  0.9393160E-01
        -11   -1    0    0    0    0  0.00000000000E+00  0.00000000000E+00  0.50000000000E+03  0.50000000000E+03  0.00000000000E+00 0.  1.
         11   -1    0    0    0    0 -0.00000000000E+00 -0.00000000000E+00 -0.50000000000E+03  0.50000000000E+03  0.00000000000E+00 0.  1.
         23    2    1    2    0    0 -0.12873306402E+02 -0.70195791813E+00 -0.37889676932E+03  0.38498893273E+03  0.66988818206E+02 0.  0.
        -11    1    1    2    0    0  0.11746833563E+02  0.24447427940E+01  0.49687236874E+03  0.49701721870E+03  0.00000000000E+00 0.  1.
         11    1    1    2    0    0  0.11264728391E+01 -0.17427848758E+01 -0.11797559942E+03  0.11799384856E+03  0.00000000000E+00 0.  1.
        -15    1    3    3    0    0 -0.57309379500E+01  0.12883892435E+01 -0.37710735882E+03  0.37715729000E+03  0.17770000000E+01 0.  1.
         15    1    3    3    0    0 -0.71423684520E+01 -0.19903471617E+01 -0.17894104977E+01  0.78316427305E+01  0.17770000000E+01 0. -1.
</event>
<event>
 7    1  0.2187028E-004  0.5056486E+03  0.7546771E-02  0.9387258E-01
        -11   -1    0    0    0    0  0.00000000000E+00  0.00000000000E+00  0.50000000000E+03  0.50000000000E+03  0.00000000000E+00 0. -1.
         11   -1    0    0    0    0 -0.00000000000E+00 -0.00000000000E+00 -0.50000000000E+03  0.50000000000E+03  0.00000000000E+00 0. -1.
         23    2    1    2    0    0 -0.32597678439E+02  0.21642502184E+02 -0.25646994314E+03  0.26827132065E+03  0.68276373740E+02 0.  0.
        -11    1    1    2    0    0  0.20098412444E+02 -0.20540680585E+02  0.49351537268E+03  0.49435138193E+03  0.00000000000E+00 0. -1.
         11    1    1    2    0    0  0.12499265994E+02 -0.11018215996E+01 -0.23704542954E+03  0.23737729742E+03  0.00000000000E+00 0. -1.
        -15    1    3    3    0    0 -0.18114794076E+02  0.41028426791E+02 -0.21955633628E+03  0.22409734514E+03  0.17770000000E+01 0. -1.
         15    1    3    3    0    0 -0.14482884363E+02 -0.19385924606E+02 -0.36913606861E+02  0.44173975515E+02  0.17770000000E+01 0.  1.
</event>
<event>
 7    1  0.2187028E-004  0.5161604E+03  0.7546771E-02  0.9364358E-01
        -11   -1    0    0    0    0  0.00000000000E+00  0.00000000000E+00  0.50000000000E+03  0.50000000000E+03  0.00000000000E+00 0. -1.
         11   -1    0    0    0    0 -0.00000000000E+00 -0.00000000000E+00 -0.50000000000E+03  0.50000000000E+03  0.00000000000E+00 0.  1.
         23    2    1    2    0    0 -0.38148146896E+02 -0.56842235374E+02  0.31715079232E+03  0.33700472854E+03  0.91111147248E+02 0.  0.
        -11    1    1    2    0    0  0.31637644271E+02  0.57666825849E+02  0.16664434161E+03  0.17915563047E+03  0.00000000000E+00 0. -1.
         11    1    1    2    0    0  0.65105026250E+01 -0.82459047570E+00 -0.48379513392E+03  0.48383964100E+03  0.00000000000E+00 0.  1.
        -15    1    3    3    0    0 -0.39340915970E+02 -0.54045620095E+02  0.32317809382E+03  0.33002405181E+03  0.17770000000E+01 0. -1.
         15    1    3    3    0    0  0.11927690741E+01 -0.27966152782E+01 -0.60273015026E+01  0.69806767209E+01  0.17770000000E+01 0.  1.
</event>
<event>
 7    1  0.2187028E-004  0.5080899E+03  0.7546771E-02  0.9381888E-01
        -11   -1    0    0    0    0  0.00000000000E+00  0.00000000000E+00  0.50000000000E+03  0.50000000000E+03  0.00000000000E+00 0.  1.
         11   -1    0    0    0    0 -0.00000000000E+00 -0.00000000000E+00 -0.50000000000E+03  0.50000000000E+03  0.00000000000E+00 0. -1.
         23    2    1    2    0    0  0.33392129998E+02  0.24784623406E+02 -0.24677647255E+03  0.26502532583E+03  0.87238088148E+02 0.  0.
        -11    1    1    2    0    0 -0.36308638218E+02 -0.27244568437E+02  0.48981112472E+03  0.49191007472E+03  0.00000000000E+00 0.  1.
         11    1    1    2    0    0  0.29165082195E+01  0.24599450312E+01 -0.24303465217E+03  0.24306459945E+03  0.00000000000E+00 0. -1.
        -15    1    3    3    0    0  0.45403900100E+02  0.47894288423E+02 -0.20843357500E+03  0.21863917747E+03  0.17770000000E+01 0. -1.
         15    1    3    3    0    0 -0.12011770102E+02 -0.23109665017E+02 -0.38342897545E+02  0.46386148356E+02  0.17770000000E+01 0.  1.
</event>
<event>
 7    1  0.2187028E-004  0.5128676E+03  0.7546771E-02  0.9371469E-01
        -11   -1    0    0    0    0  0.00000000000E+00  0.00000000000E+00  0.50000000000E+03  0.50000000000E+03  0.00000000000E+00 0. -1.
         11   -1    0    0    0    0 -0.00000000000E+00 -0.00000000000E+00 -0.50000000000E+03  0.50000000000E+03  0.00000000000E+00 0.  1.
         23    2    1    2    0    0  0.64929273457E+01  0.44087065970E+02  0.39547185983E+03  0.40889633108E+03  0.93874331759E+02 0.  0.
        -11    1    1    2    0    0  0.16128020734E+02 -0.47395788154E+02  0.91123801637E+02  0.10397125089E+03  0.00000000000E+00 0. -1.
         11    1    1    2    0    0 -0.22620948079E+02  0.33087221835E+01 -0.48659566147E+03  0.48713241803E+03  0.00000000000E+00 0.  1.
        -15    1    3    3    0    0  0.49468736465E+02  0.14207552040E+02  0.19020014255E+03  0.19704888322E+03  0.17770000000E+01 0. -1.
         15    1    3    3    0    0 -0.42975809120E+02  0.29879513930E+02  0.20527171728E+03  0.21184744786E+03  0.17770000000E+01 0.  1.
</event>
<event>
 7    1  0.2187028E-004  0.5012183E+03  0.7546771E-02  0.9397088E-01
        -11   -1    0    0    0    0  0.00000000000E+00  0.00000000000E+00  0.50000000000E+03  0.50000000000E+03  0.00000000000E+00 0.  1.
         11   -1    0    0    0    0 -0.00000000000E+00 -0.00000000000E+00 -0.50000000000E+03  0.50000000000E+03  0.00000000000E+00 0.  1.
         23    2    1    2    0    0  0.16665531062E+02 -0.89019982599E+00  0.49254200850E+03  0.50121825073E+03  0.91343157075E+02 0.  0.
        -11    1    1    2    0    0 -0.78845095700E+01 -0.97398015791E+01 -0.99716544161E+01  0.16014465890E+02  0.00000000000E+00 0.  1.
         11    1    1    2    0    0 -0.87810214919E+01  0.10630001405E+02 -0.48257035408E+03  0.48276728338E+03  0.00000000000E+00 0.  1.
        -15    1    3    3    0    0 -0.21813226210E+02 -0.12587836463E+01  0.40479264598E+03  0.40538579815E+03  0.17770000000E+01 0.  1.
         15    1    3    3    0    0  0.38478757272E+02  0.36858382031E+00  0.87749362514E+02  0.95832452572E+02  0.17770000000E+01 0. -1.
</event>
<event>
 7    1  0.2187028E-004  0.5035961E+03  0.7546771E-02  0.9391799E-01
        -11   -1    0    0    0    0  0.00000000000E+00  0.00000000000E+00  0.50000000000E+03  0.50000000000E+03  0.00000000000E+00 0.  1.
         11   -1    0    0    0    0 -0.00000000000E+00 -0.00000000000E+00 -0.50000000000E+03  0.50000000000E+03  0.00000000000E+00 0.  1.
         23    2    1    2    0    0 -0.10958834865E+02  0.10643908748E+02  0.49490204910E+03  0.50359611138E+03  0.91910915204E+02 0.  0.
        -11    1    1    2    0    0 -0.87428182778E+01  0.28378501867E+01 -0.48462340360E+02  0.49326348925E+02  0.00000000000E+00 0.  1.
         11    1    1    2    0    0  0.19701653143E+02 -0.13481758934E+02 -0.44643970874E+03  0.44707753970E+03  0.00000000000E+00 0.  1.
        -15    1    3    3    0    0 -0.97921782214E+01  0.44281347220E+02  0.14173403697E+03  0.14882345054E+03  0.17770000000E+01 0. -1.
         15    1    3    3    0    0 -0.11666566439E+01 -0.33637438473E+02  0.35316801213E+03  0.35477266084E+03  0.17770000000E+01 0.  1.
</event>
<event>
 7    1  0.2187028E-004  0.5315257E+03  0.7546771E-02  0.9331906E-01
        -11   -1    0    0    0    0  0.00000000000E+00  0.00000000000E+00  0.50000000000E+03  0.50000000000E+03  0.00000000000E+00 0. -1.
         11   -1    0    0    0    0 -0.00000000000E+00 -0.00000000000E+00 -0.50000000000E+03  0.50000000000E+03  0.00000000000E+00 0.  1.
         23    2    1    2    0    0 -0.32885814475E+02  0.32871786892E+02  0.74745091747E+02  0.13544639057E+03  0.10294107447E+03 0.  0.
        -11    1    1    2    0    0  0.37922920053E+02 -0.22875369316E+02  0.39359545995E+03  0.39607930580E+03  0.00000000000E+00 0. -1.
         11    1    1    2    0    0 -0.50371055787E+01 -0.99964175759E+01 -0.46834055170E+03  0.46847430363E+03  0.00000000000E+00 0.  1.
        -15    1    3    3    0    0 -0.12330637186E+01  0.23918984324E+02 -0.22416192708E+02  0.32852422769E+02  0.17770000000E+01 0.  1.
         15    1    3    3    0    0 -0.31652750756E+02  0.89528025677E+01  0.97161284455E+02  0.10259396781E+03  0.17770000000E+01 0. -1.
</event>
<event>
 7    1  0.2187028E-004  0.5023782E+03  0.7546771E-02  0.9394504E-01
        -11   -1    0    0    0    0  0.00000000000E+00  0.00000000000E+00  0.50000000000E+03  0.50000000000E+03  0.00000000000E+00 0. -1.
         11   -1    0    0    0    0 -0.00000000000E+00 -0.00000000000E+00 -0.50000000000E+03  0.50000000000E+03  0.00000000000E+00 0.  1.
         23    2    1    2    0    0  0.39504844952E+01  0.88151569755E+01  0.49444593955E+03  0.50237821058E+03  0.88395508991E+02 0.  0.
        -11    1    1    2    0    0 -0.88343562957E+01 -0.14419170757E+02 -0.44350787778E+02  0.47465257958E+02  0.00000000000E+00 0. -1.
         11    1    1    2    0    0  0.48838718006E+01  0.56040137814E+01 -0.45009515177E+03  0.45015653146E+03  0.00000000000E+00 0.  1.
        -15    1    3    3    0    0 -0.30465407328E+02 -0.22209157134E+02  0.14343295140E+03  0.14831573409E+03  0.17770000000E+01 0.  1.
         15    1    3    3    0    0  0.34415891823E+02  0.31024314109E+02  0.35101298815E+03  0.35406247649E+03  0.17770000000E+01 0. -1.
</event>
<event>
 7    1  0.2187028E-004  0.4921236E+03  0.7546771E-02  0.9417608E-01
        -11   -1    0    0    0    0  0.00000000000E+00  0.00000000000E+00  0.50000000000E+03  0.50000000000E+03  0.00000000000E+00 0. -1.
         11   -1    0    0    0    0 -0.00000000000E+00 -0.00000000000E+00 -0.50000000000E+03  0.50000000000E+03  0.00000000000E+00 0. -1.
         23    2    1    2    0    0 -0.12745646772E+02  0.13556474408E+02  0.47384220960E+03  0.48264552546E+03  0.89855629398E+02 0.  0.
        -11    1    1    2    0    0  0.26971218584E+01 -0.13006228366E+02  0.19672609420E+02  0.23737059717E+02  0.00000000000E+00 0. -1.
         11    1    1    2    0    0  0.10048524914E+02 -0.55024604198E+00 -0.49351481902E+03  0.49361741482E+03  0.00000000000E+00 0. -1.
        -15    1    3    3    0    0 -0.21917297693E+02 -0.10018662139E+02  0.43840060628E+03  0.43906604384E+03  0.17770000000E+01 0. -1.
         15    1    3    3    0    0  0.91716509211E+01  0.23575136548E+02  0.35441603317E+02  0.43579481623E+02  0.17770000000E+01 0.  1.
</event>
<event>
 7    1  0.2187028E-004  0.5172534E+03  0.7546771E-02  0.9362011E-01
        -11   -1    0    0    0    0  0.00000000000E+00  0.00000000000E+00  0.50000000000E+03  0.50000000000E+03  0.00000000000E+00 0. -1.
         11   -1    0    0    0    0 -0.00000000000E+00 -0.00000000000E+00 -0.50000000000E+03  0.50000000000E+03  0.00000000000E+00 0. -1.
         23    2    1    2    0    0 -0.28949689849E+02  0.13490230959E+02 -0.96720967793E+02  0.13240124350E+03  0.84587663377E+02 0.  0.
        -11    1    1    2    0    0  0.28411212453E+02 -0.19074454564E+02  0.48153220985E+03  0.48274662188E+03  0.00000000000E+00 0. -1.
         11    1    1    2    0    0  0.53847739615E+00  0.55842236056E+01 -0.38481124206E+03  0.38485213462E+03  0.00000000000E+00 0. -1.
        -15    1    3    3    0    0 -0.44782509122E+01  0.47119627371E+01  0.15654758525E+02  0.17043665027E+02  0.17770000000E+01 0. -1.
         15    1    3    3    0    0 -0.24471438936E+02  0.87782682216E+01 -0.11237572632E+03  0.11535757847E+03  0.17770000000E+01 0.  1.
</event>
<event>
 7    1  0.2187028E-004  0.5275359E+03  0.7546771E-02  0.9340220E-01
        -11   -1    0    0    0    0  0.00000000000E+00  0.00000000000E+00  0.50000000000E+03  0.50000000000E+03  0.00000000000E+00 0. -1.
         11   -1    0    0    0    0 -0.00000000000E+00 -0.00000000000E+00 -0.50000000000E+03  0.50000000000E+03  0.00000000000E+00 0.  1.
         23    2    1    2    0    0  0.24523983519E+02 -0.54289340424E+02 -0.72529613583E+02  0.13216363959E+03  0.93047968989E+02 0.  0.
        -11    1    1    2    0    0 -0.25278651450E+02  0.60850217635E+02  0.46784672385E+03  0.47246408988E+03  0.00000000000E+00 0. -1.
         11    1    1    2    0    0  0.75466793186E+00 -0.65608772112E+01 -0.39531711027E+03  0.39537227053E+03  0.00000000000E+00 0.  1.
        -15    1    3    3    0    0  0.35750591349E+01 -0.48988559710E+01 -0.77955385289E+02  0.78211122369E+02  0.17770000000E+01 0. -1.
         15    1    3    3    0    0  0.20948924384E+02 -0.49390484453E+02  0.54257717058E+01  0.53952517225E+02  0.17770000000E+01 0. -1.
</event>
<event>
 7    1  0.2187028E-004  0.4077597E+03  0.7546771E-02  0.9633747E-01
        -11   -1    0    0    0    0  0.00000000000E+00  0.00000000000E+00  0.50000000000E+03  0.50000000000E+03  0.00000000000E+00 0.  1.
         11   -1    0    0    0    0 -0.00000000000E+00 -0.00000000000E+00 -0.50000000000E+03  0.50000000000E+03  0.00000000000E+00 0. -1.
         23    2    1    2    0    0 -0.10372583607E+03 -0.88582831161E+02  0.43189374440E+02  0.17202461302E+03  0.95504860484E+02 0.  0.
        -11    1    1    2    0    0 -0.19855222328E+03  0.15565576544E+03  0.28238761464E+03  0.37867461968E+03  0.00000000000E+00 0.  1.
         11    1    1    2    0    0  0.30227805935E+03 -0.67072934283E+02 -0.32557698908E+03  0.44930076730E+03  0.00000000000E+00 0. -1.
        -15    1    3    3    0    0 -0.13073966289E+02 -0.28742957666E+02  0.54282612234E+02  0.62823928004E+02  0.17770000000E+01 0.  1.
         15    1    3    3    0    0 -0.90651869782E+02 -0.59839873496E+02 -0.11093237794E+02  0.10920068502E+03  0.17770000000E+01 0. -1.
</event>
<event>
 7    1  0.2187028E-004  0.5160636E+03  0.7546771E-02  0.9364567E-01
        -11   -1    0    0    0    0  0.00000000000E+00  0.00000000000E+00  0.50000000000E+03  0.50000000000E+03  0.00000000000E+00 0.  1.
         11   -1    0    0    0    0 -0.00000000000E+00 -0.00000000000E+00 -0.50000000000E+03  0.50000000000E+03  0.00000000000E+00 0. -1.
         23    2    1    2    0    0  0.33464026167E+02 -0.10482778630E+02  0.11411160932E+03  0.14491088144E+03  0.82146055795E+02 0.  0.
        -11    1    1    2    0    0 -0.25727588861E+02  0.21433026258E+02  0.36963905895E+03  0.37115268737E+03  0.00000000000E+00 0.  1.
         11    1    1    2    0    0 -0.77364373054E+01 -0.10950247628E+02 -0.48375066827E+03  0.48393643119E+03  0.00000000000E+00 0. -1.
        -15    1    3    3    0    0 -0.26821561066E+01  0.40547214894E+01 -0.11913321426E+02  0.12989214146E+02  0.17770000000E+01 0. -1.
         15    1    3    3    0    0  0.36146182274E+02 -0.14537500119E+02  0.12602493075E+03  0.13192166729E+03  0.17770000000E+01 0.  1.
</event>
<event>
 7    1  0.2187028E-004  0.4929679E+03  0.7546771E-02  0.9415683E-01
        -11   -1    0    0    0    0  0.00000000000E+00  0.00000000000E+00  0.50000000000E+03  0.50000000000E+03  0.00000000000E+00 0.  1.
         11   -1    0    0    0    0 -0.00000000000E+00 -0.00000000000E+00 -0.50000000000E+03  0.50000000000E+03  0.00000000000E+00 0. -1.
         23    2    1    2    0    0  0.13816722707E+01  0.53864786535E+01  0.48448282072E+03  0.49361070409E+03  0.94323912415E+02 0.  0.
        -11    1    1    2    0    0 -0.28448109578E+01  0.22653917837E+02 -0.18132792984E+01  0.22903731674E+02  0.00000000000E+00 0.  1.
         11    1    1    2    0    0  0.14631386871E+01 -0.28040396491E+02 -0.48266954142E+03  0.48348556423E+03  0.00000000000E+00 0. -1.
        -15    1    3    3    0    0  0.44389937422E+02 -0.81899197998E+01  0.16975437212E+03  0.17566230646E+03  0.17770000000E+01 0. -1.
         15    1    3    3    0    0 -0.43008265151E+02  0.13576398453E+02  0.31472844860E+03  0.31794839763E+03  0.17770000000E+01 0.  1.
</event>
<event>
 7    1  0.2187028E-004  0.4633659E+03  0.7546771E-02  0.9485732E-01
        -11   -1    0    0    0    0  0.00000000000E+00  0.00000000000E+00  0.50000000000E+03  0.50000000000E+03  0.00000000000E+00 0. -1.
         11   -1    0    0    0    0 -0.00000000000E+00 -0.00000000000E+00 -0.50000000000E+03  0.50000000000E+03  0.00000000000E+00 0.  1.
         23    2    1    2    0    0  0.31884836558E+02 -0.38395444912E+00  0.41655382233E+03  0.42835385239E+03  0.94621063930E+02 0.  0.
        -11    1    1    2    0    0 -0.73093247645E+01  0.28062905196E+02  0.74113354589E+02  0.79584811397E+02  0.00000000000E+00 0. -1.
         11    1    1    2    0    0 -0.24575511794E+02 -0.27678950747E+02 -0.49066717692E+03  0.49206133621E+03  0.00000000000E+00 0.  1.
        -15    1    3    3    0    0  0.46878941191E+02 -0.18320651194E+02  0.38868554982E+03  0.39193481059E+03  0.17770000000E+01 0. -1.
         15    1    3    3    0    0 -0.14994104633E+02  0.17936696744E+02  0.27868272505E+02  0.36419041795E+02  0.17770000000E+01 0.  1.
</event>
<event>
 7    1  0.2187028E-004  0.3575638E+03  0.7546771E-02  0.9790829E-01
        -11   -1    0    0    0    0  0.00000000000E+00  0.00000000000E+00  0.50000000000E+03  0.50000000000E+03  0.00000000000E+00 0.  1.
         11   -1    0    0    0    0 -0.00000000000E+00 -0.00000000000E+00 -0.50000000000E+03  0.50000000000E+03  0.00000000000E+00 0. -1.
         23    2    1    2    0    0 -0.21322281499E+03  0.11731150897E+03  0.25354910022E+03  0.36288178829E+03  0.90388534012E+02 0.  0.
        -11    1    1    2    0    0  0.20915692943E+03 -0.62308952862E+02  0.12706012699E+03  0.25253376528E+03  0.00000000000E+00 0.  1.
         11    1    1    2    0    0  0.40658855590E+01 -0.55002556113E+02 -0.38060922721E+03  0.38458444644E+03  0.00000000000E+00 0. -1.
        -15    1    3    3    0    0 -0.10646041795E+03  0.76233726156E+02  0.75247446577E+02  0.15103224006E+03  0.17770000000E+01 0. -1.
         15    1    3    3    0    0 -0.10676239704E+03  0.41077782819E+02  0.17830165364E+03  0.21184954822E+03  0.17770000000E+01 0.  1.
</event>
<event>
 7    1  0.2187028E-004  0.4694115E+03  0.7546771E-02  0.9470981E-01
        -11   -1    0    0    0    0  0.00000000000E+00  0.00000000000E+00  0.50000000000E+03  0.50000000000E+03  0.00000000000E+00 0.  1.
         11   -1    0    0    0    0 -0.00000000000E+00 -0.00000000000E+00 -0.50000000000E+03  0.50000000000E+03  0.00000000000E+00 0. -1.
         23    2    1    2    0    0 -0.11222237951E+02 -0.32881805966E+02  0.44011509000E+03  0.45106721916E+03  0.92483468622E+02 0.  0.
        -11    1    1    2    0    0  0.35781213469E+02  0.41390039983E+02  0.40213769597E+02  0.67901236457E+02  0.00000000000E+00 0.  1.
         11    1    1    2    0    0 -0.24558975518E+02 -0.85082340174E+01 -0.48032885960E+03  0.48103154438E+03  0.00000000000E+00 0. -1.
        -15    1    3    3    0    0 -0.14424761840E+02 -0.21254019650E+02  0.43792478130E+03  0.43868106742E+03  0.17770000000E+01 0.  1.
         15    1    3    3    0    0  0.32025238886E+01 -0.11627786316E+02  0.21903087027E+01  0.12386151746E+02  0.17770000000E+01 0. -1.
</event>
<event>
 7    1  0.2187028E-004  0.4621728E+03  0.7546771E-02  0.9488671E-01
        -11   -1    0    0    0    0  0.00000000000E+00  0.00000000000E+00  0.50000000000E+03  0.50000000000E+03  0.00000000000E+00 0.  1.
         11   -1    0    0    0    0 -0.00000000000E+00 -0.00000000000E+00 -0.50000000000E+03  0.50000000000E+03  0.00000000000E+00 0. -1.
         23    2    1    2    0    0  0.13340923201E+03  0.19275049083E+01  0.41434483157E+03  0.44516055540E+03  0.93190891049E+02 0.  0.
        -11    1    1    2    0    0 -0.59054110406E+02  0.19820119380E+02  0.52589392497E+02  0.81522201217E+02  0.00000000000E+00 0.  1.
         11    1    1    2    0    0 -0.74355121606E+02 -0.21747624289E+02 -0.46693422407E+03  0.47331724338E+03  0.00000000000E+00 0. -1.
        -15    1    3    3    0    0  0.64480251498E+02 -0.44471324130E+02  0.17323039850E+03  0.19012451235E+03  0.17770000000E+01 0.  1.
         15    1    3    3    0    0  0.68928980514E+02  0.46398829038E+02  0.24111443308E+03  0.25503604306E+03  0.17770000000E+01 0. -1.
</event>
<event>
 7    1  0.2187028E-004  0.5217601E+03  0.7546771E-02  0.9352394E-01
        -11   -1    0    0    0    0  0.00000000000E+00  0.00000000000E+00  0.50000000000E+03  0.50000000000E+03  0.00000000000E+00 0.  1.
         11   -1    0    0    0    0 -0.00000000000E+00 -0.00000000000E+00 -0.50000000000E+03  0.50000000000E+03  0.00000000000E+00 0.  1.
         23    2    1    2    0    0 -0.53166233259E+01  0.63722325818E+02  0.26116981292E+03  0.28409906704E+03  0.91726808611E+02 0.  0.
        -11    1    1    2    0    0 -0.60889535008E+02 -0.88994566884E+02  0.21179048173E+03  0.23766105394E+03  0.00000000000E+00 0.  1.
         11    1    1    2    0    0  0.66206158334E+02  0.25272241066E+02 -0.47296029465E+03  0.47823987902E+03  0.00000000000E+00 0.  1.
        -15    1    3    3    0    0 -0.16055085345E+02  0.71863257635E+02  0.26025382230E+03  0.27047606791E+03  0.17770000000E+01 0.  1.
         15    1    3    3    0    0  0.10738462019E+02 -0.81409318165E+01  0.91599062591E+00  0.13622999126E+02  0.17770000000E+01 0. -1.
</event>
<event>
 7    1  0.2187028E-004  0.4938194E+03  0.7546771E-02  0.9413746E-01
        -11   -1    0    0    0    0  0.00000000000E+00  0.00000000000E+00  0.50000000000E+03  0.50000000000E+03  0.00000000000E+00 0.  1.
         11   -1    0    0    0    0 -0.00000000000E+00 -0.00000000000E+00 -0.50000000000E+03  0.50000000000E+03  0.00000000000E+00 0.  1.
         23    2    1    2    0    0  0.22422424578E+02  0.85425846012E+01  0.47880232960E+03  0.48798011729E+03  0.91088875069E+02 0.  0.
        -11    1    1    2    0    0 -0.45138364108E+01 -0.15983366409E+02  0.12216900012E+02  0.20617840983E+02  0.00000000000E+00 0.  1.
         11    1    1    2    0    0 -0.17908588167E+02  0.74407818078E+01 -0.49101922961E+03  0.49140204173E+03  0.00000000000E+00 0.  1.
        -15    1    3    3    0    0 -0.17835982858E+02  0.15417516328E+02  0.38415333393E+03  0.38488019408E+03  0.17770000000E+01 0.  1.
         15    1    3    3    0    0  0.40258407436E+02 -0.68749317269E+01  0.94648995668E+02  0.10309992321E+03  0.17770000000E+01 0. -1.
</event>
<event>
 7    1  0.2187028E-004  0.4956762E+03  0.7546771E-02  0.9409537E-01
        -11   -1    0    0    0    0  0.00000000000E+00  0.00000000000E+00  0.50000000000E+03  0.50000000000E+03  0.00000000000E+00 0. -1.
         11   -1    0    0    0    0 -0.00000000000E+00 -0.00000000000E+00 -0.50000000000E+03  0.50000000000E+03  0.00000000000E+00 0.  1.
         23    2    1    2    0    0  0.31036927380E+01  0.54227428554E+01  0.49143123614E+03  0.49988609398E+03  0.91336783682E+02 0.  0.
        -11    1    1    2    0    0 -0.13340213624E+02 -0.63115618428E+01 -0.84152228720E+01  0.16988616436E+02  0.00000000000E+00 0. -1.
         11    1    1    2    0    0  0.10236520886E+02  0.88881898738E+00 -0.48301601327E+03  0.48312528958E+03  0.00000000000E+00 0.  1.
        -15    1    3    3    0    0 -0.28696994056E+02  0.24170098710E+01  0.53472008512E+02  0.60759960730E+02  0.17770000000E+01 0.  1.
         15    1    3    3    0    0  0.31800686794E+02  0.30057329844E+01  0.43795922763E+03  0.43912613325E+03  0.17770000000E+01 0. -1.
</event>
<event>
 7    1  0.2187028E-004  0.5267061E+03  0.7546771E-02  0.9341959E-01
        -11   -1    0    0    0    0  0.00000000000E+00  0.00000000000E+00  0.50000000000E+03  0.50000000000E+03  0.00000000000E+00 0. -1.
         11   -1    0    0    0    0 -0.00000000000E+00 -0.00000000000E+00 -0.50000000000E+03  0.50000000000E+03  0.00000000000E+00 0. -1.
         23    2    1    2    0    0  0.43187687693E+02  0.13621285864E+03  0.30015403342E+03  0.34367039527E+03  0.87165231483E+02 0.  0.
        -11    1    1    2    0    0  0.11424132426E+02 -0.76021162040E+02  0.16610943200E+03  0.18303571039E+03  0.00000000000E+00 0. -1.
         11    1    1    2    0    0 -0.54611820120E+02 -0.60191696597E+02 -0.46626346542E+03  0.47329389434E+03  0.00000000000E+00 0. -1.
        -15    1    3    3    0    0  0.74083934729E+01  0.12640618344E+03  0.19861280726E+03  0.23554959657E+03  0.17770000000E+01 0. -1.
         15    1    3    3    0    0  0.35779294220E+02  0.98066751993E+01  0.10154122615E+03  0.10812079870E+03  0.17770000000E+01 0.  1.
</event>
<event>
 7    1  0.2187028E-004  0.4677395E+03  0.7546771E-02  0.9475037E-01
        -11   -1    0    0    0    0  0.00000000000E+00  0.00000000000E+00  0.50000000000E+03  0.50000000000E+03  0.00000000000E+00 0.  1.
         11   -1    0    0    0    0 -0.00000000000E+00 -0.00000000000E+00 -0.50000000000E+03  0.50000000000E+03  0.00000000000E+00 0.  1.
         23    2    1    2    0    0 -0.35491344760E+02  0.12863314394E+02  0.43391802898E+03  0.44488462739E+03  0.90622157401E+02 0.  0.
        -11    1    1    2    0    0  0.48833962244E+02 -0.90370846960E+01  0.50307252174E+02  0.70691190325E+02  0.00000000000E+00 0.  1.
         11    1    1    2    0    0 -0.13342617485E+02 -0.38262296976E+01 -0.48422528115E+03  0.48442418228E+03  0.00000000000E+00 0.  1.
        -15    1    3    3    0    0  0.27405259047E+02 -0.10989639710E+02  0.10141495161E+03  0.10564076175E+03  0.17770000000E+01 0. -1.
         15    1    3    3    0    0 -0.62896603806E+02  0.23852954104E+02  0.33250307737E+03  0.33924386565E+03  0.17770000000E+01 0.  1.
</event>
<event>
 7    1  0.2187028E-004  0.4817359E+03  0.7546771E-02  0.9441631E-01
        -11   -1    0    0    0    0  0.00000000000E+00  0.00000000000E+00  0.50000000000E+03  0.50000000000E+03  0.00000000000E+00 0.  1.
         11   -1    0    0    0    0 -0.00000000000E+00 -0.00000000000E+00 -0.50000000000E+03  0.50000000000E+03  0.00000000000E+00 0.  1.
         23    2    1    2    0    0 -0.11896332108E+02  0.42776906384E+02  0.47422271051E+03  0.48510293990E+03  0.92012481197E+02 0.  0.
        -11    1    1    2    0    0 -0.34751819749E+02 -0.26856305123E+02 -0.62811350365E+01  0.44366685228E+02  0.00000000000E+00 0.  1.
         11    1    1    2    0    0  0.46648151858E+02 -0.15920601260E+02 -0.46794157548E+03  0.47053037487E+03  0.00000000000E+00 0.  1.
        -15    1    3    3    0    0  0.25109914124E+02  0.57131797358E+02  0.29067555285E+03  0.29730453211E+03  0.17770000000E+01 0.  1.
         15    1    3    3    0    0 -0.37006246232E+02 -0.14354890975E+02  0.18354715766E+03  0.18779840779E+03  0.17770000000E+01 0. -1.
</event>
<event>
 7    1  0.2187028E-004  0.5037988E+03  0.7546771E-02  0.9391350E-01
        -11   -1    0    0    0    0  0.00000000000E+00  0.00000000000E+00  0.50000000000E+03  0.50000000000E+03  0.00000000000E+00 0. -1.
         11   -1    0    0    0    0 -0.00000000000E+00 -0.00000000000E+00 -0.50000000000E+03  0.50000000000E+03  0.00000000000E+00 0. -1.
         23    2    1    2    0    0 -0.19964521709E+02  0.75433922232E+00  0.28035141254E+03  0.28673258761E+03  0.56740736060E+02 0.  0.
        -11    1    1    2    0    0  0.22256330006E+02 -0.71721037021E+01  0.21580302074E+03  0.21706618129E+03  0.00000000000E+00 0. -1.
         11    1    1    2    0    0 -0.22918082975E+01  0.64177644797E+01 -0.49615443328E+03  0.49620123111E+03  0.00000000000E+00 0. -1.
        -15    1    3    3    0    0 -0.10738162847E+02  0.17307794515E+02  0.25047457461E+03  0.25130765636E+03  0.17770000000E+01 0. -1.
         15    1    3    3    0    0 -0.92263588616E+01 -0.16553455293E+02  0.29876837934E+02  0.35424931248E+02  0.17770000000E+01 0.  1.
</event>
<event>
 7    1  0.2187028E-004  0.4760323E+03  0.7546771E-02  0.9455096E-01
        -11   -1    0    0    0    0  0.00000000000E+00  0.00000000000E+00  0.50000000000E+03  0.50000000000E+03  0.00000000000E+00 0.  1.
         11   -1    0    0    0    0 -0.00000000000E+00 -0.00000000000E+00 -0.50000000000E+03  0.50000000000E+03  0.00000000000E+00 0. -1.
         23    2    1    2    0    0  0.12494547691E+02 -0.10577913165E+02  0.44068608698E+03  0.45032404561E+03  0.91211363454E+02 0.  0.
        -11    1    1    2    0    0 -0.53499711658E+01  0.10891364222E+02  0.53793263284E+02  0.55144892609E+02  0.00000000000E+00 0.  1.
         11    1    1    2    0    0 -0.71445765248E+01 -0.31345105714E+00 -0.49447935027E+03  0.49453106178E+03  0.00000000000E+00 0. -1.
        -15    1    3    3    0    0  0.16130793366E+02 -0.44357100845E+02  0.14072862064E+03  0.14844344811E+03  0.17770000000E+01 0.  1.
         15    1    3    3    0    0 -0.36362456754E+01  0.33779187680E+02  0.29995746634E+03  0.30188059750E+03  0.17770000000E+01 0. -1.
</event>
<event>
 7    1  0.2187028E-004  0.4810456E+03  0.7546771E-02  0.9443250E-01
        -11   -1    0    0    0    0  0.00000000000E+00  0.00000000000E+00  0.50000000000E+03  0.50000000000E+03  0.00000000000E+00 0. -1.
         11   -1    0    0    0    0 -0.00000000000E+00 -0.00000000000E+00 -0.50000000000E+03  0.50000000000E+03  0.00000000000E+00 0. -1.
         23    2    1    2    0    0 -0.16630001876E+02 -0.24127064740E+01  0.45613408213E+03  0.46458812224E+03  0.86610878836E+02 0.  0.
        -11    1    1    2    0    0  0.25357826184E+02 -0.13655601587E+02  0.34214324323E+02  0.44722642949E+02  0.00000000000E+00 0. -1.
         11    1    1    2    0    0 -0.87278243076E+01  0.16068308061E+02 -0.49034840646E+03  0.49068923481E+03  0.00000000000E+00 0. -1.
        -15    1    3    3    0    0  0.66732194549E+01 -0.56566245418E+01  0.11590519693E+01  0.90016881510E+01  0.17770000000E+01 0.  1.
         15    1    3    3    0    0 -0.23303221331E+02  0.32439180678E+01  0.45497503016E+03  0.45558643409E+03  0.17770000000E+01 0. -1.
</event>
<event>
 7    1  0.2187028E-004  0.5162799E+03  0.7546771E-02  0.9364101E-01
        -11   -1    0    0    0    0  0.00000000000E+00  0.00000000000E+00  0.50000000000E+03  0.50000000000E+03  0.00000000000E+00 0.  1.
         11   -1    0    0    0    0 -0.00000000000E+00 -0.00000000000E+00 -0.50000000000E+03  0.50000000000E+03  0.00000000000E+00 0.  1.
         23    2    1    2    0    0 -0.93462667206E+01  0.48974197953E+01  0.39355743749E+03  0.40368639491E+03  0.89240749739E+02 0.  0.
        -11    1    1    2    0    0  0.20278922478E+02 -0.70276799426E+02  0.85599266949E+02  0.11259350664E+03  0.00000000000E+00 0.  1.
         11    1    1    2    0    0 -0.10932655758E+02  0.65379379631E+02 -0.47915670443E+03  0.48372009845E+03  0.00000000000E+00 0.  1.
        -15    1    3    3    0    0  0.10617495331E+02  0.38975102610E+02  0.10646782441E+03  0.11388742334E+03  0.17770000000E+01 0. -1.
         15    1    3    3    0    0 -0.19963762051E+02 -0.34077682814E+02  0.28708961307E+03  0.28979897157E+03  0.17770000000E+01 0.  1.
</event>
<event>
 7    1  0.2187028E-004  0.4973084E+03  0.7546771E-02  0.9405853E-01
        -11   -1    0    0    0    0  0.00000000000E+00  0.00000000000E+00  0.50000000000E+03  0.50000000000E+03  0.00000000000E+00 0.  1.
         11   -1    0    0    0    0 -0.00000000000E+00 -0.00000000000E+00 -0.50000000000E+03  0.50000000000E+03  0.00000000000E+00 0.  1.
         23    2    1    2    0    0 -0.16909119438E+01  0.89189325606E+00  0.48674100478E+03  0.49524867765E+03  0.91382669706E+02 0.  0.
        -11    1    1    2    0    0  0.13039467271E+02 -0.14770735844E+01  0.41233759815E+01  0.13755423751E+02  0.00000000000E+00 0.  1.
         11    1    1    2    0    0 -0.11348555327E+02  0.58518032831E+00 -0.49086438076E+03  0.49099589860E+03  0.00000000000E+00 0.  1.
        -15    1    3    3    0    0 -0.39223924216E+02  0.15424374809E+01  0.11328151337E+03  0.11990310398E+03  0.17770000000E+01 0. -1.
         15    1    3    3    0    0  0.37533012272E+02 -0.65054422484E+00  0.37345949141E+03  0.37534557367E+03  0.17770000000E+01 0.  1.
</event>
<event>
 7    1  0.2187028E-004  0.5131209E+03  0.7546771E-02  0.9370920E-01
        -11   -1    0    0    0    0  0.00000000000E+00  0.00000000000E+00  0.50000000000E+03  0.50000000000E+03  0.00000000000E+00 0. -1.
         11   -1    0    0    0    0 -0.00000000000E+00 -0.00000000000E+00 -0.50000000000E+03  0.50000000000E+03  0.00000000000E+00 0.  1.
         23    2    1    2    0    0 -0.10120927055E+02 -0.68821900496E+02  0.32584030666E+03  0.34766899489E+03  0.99312322526E+02 0.  0.
        -11    1    1    2    0    0  0.45585401875E+02  0.22153556510E+02  0.15749767968E+03  0.16545189040E+03  0.00000000000E+00 0. -1.
         11    1    1    2    0    0 -0.35464474821E+02  0.46668343985E+02 -0.48333798635E+03  0.48687911472E+03  0.00000000000E+00 0.  1.
        -15    1    3    3    0    0 -0.17375968331E+02 -0.72911032513E+02  0.32984519579E+03  0.33825870847E+03  0.17770000000E+01 0. -1.
         15    1    3    3    0    0  0.72550412769E+01  0.40891320171E+01 -0.40048891269E+01  0.94102864198E+01  0.17770000000E+01 0.  1.
</event>
<event>
 7    1  0.2187028E-004  0.4956703E+03  0.7546771E-02  0.9409550E-01
        -11   -1    0    0    0    0  0.00000000000E+00  0.00000000000E+00  0.50000000000E+03  0.50000000000E+03  0.00000000000E+00 0. -1.
         11   -1    0    0    0    0 -0.00000000000E+00 -0.00000000000E+00 -0.50000000000E+03  0.50000000000E+03  0.00000000000E+00 0.  1.
         23    2    1    2    0    0  0.38587366370E+01  0.37411507151E+01  0.48287891308E+03  0.49115767435E+03  0.89637772862E+02 0.  0.
        -11    1    1    2    0    0 -0.94464383229E+01 -0.10233127734E+02  0.91985754802E+01  0.16690293319E+02  0.00000000000E+00 0. -1.
         11    1    1    2    0    0  0.55877016859E+01  0.64919770188E+01 -0.49207748856E+03  0.49215203233E+03  0.00000000000E+00 0.  1.
        -15    1    3    3    0    0  0.32675561789E+01  0.19465462436E+02  0.47086199620E+03  0.47127885412E+03  0.17770000000E+01 0. -1.
         15    1    3    3    0    0  0.59118045810E+00 -0.15724311721E+02  0.12016916881E+02  0.19878820230E+02  0.17770000000E+01 0.  1.
</event>
<event>
 7    1  0.2187028E-004  0.5226916E+03  0.7546771E-02  0.9350420E-01
        -11   -1    0    0    0    0  0.00000000000E+00  0.00000000000E+00  0.50000000000E+03  0.50000000000E+03  0.00000000000E+00 0.  1.
         11   -1    0    0    0    0 -0.00000000000E+00 -0.00000000000E+00 -0.50000000000E+03  0.50000000000E+03  0.00000000000E+00 0. -1.
         23    2    1    2    0    0  0.17709540719E+02  0.17234798859E+02  0.10464864153E+03  0.14659098928E+03  0.99633899054E+02 0.  0.
        -11    1    1    2    0    0 -0.65393446492E+02 -0.10472431094E+02  0.37022381584E+03  0.37610058292E+03  0.00000000000E+00 0.  1.
         11    1    1    2    0    0  0.47683905773E+02 -0.67623677652E+01 -0.47487245736E+03  0.47730842780E+03  0.00000000000E+00 0. -1.
        -15    1    3    3    0    0 -0.30141980536E+02  0.33723880636E+02  0.23672624030E+02  0.51082188414E+02  0.17770000000E+01 0.  1.
         15    1    3    3    0    0  0.47851521255E+02 -0.16489081776E+02  0.80976017498E+02  0.95508800867E+02  0.17770000000E+01 0. -1.
</event>
<event>
 7    1  0.2187028E-004  0.4889399E+03  0.7546771E-02  0.9424903E-01
        -11   -1    0    0    0    0  0.00000000000E+00  0.00000000000E+00  0.50000000000E+03  0.50000000000E+03  0.00000000000E+00 0. -1.
         11   -1    0    0    0    0 -0.00000000000E+00 -0.00000000000E+00 -0.50000000000E+03  0.50000000000E+03  0.00000000000E+00 0. -1.
         23    2    1    2    0    0  0.13200816447E+02 -0.54660926937E+01  0.47628819459E+03  0.48534111638E+03  0.92203119342E+02 0.  0.
        -11    1    1    2    0    0  0.22143244560E+02 -0.19971431915E+02  0.59932741152E+01  0.30415468219E+02  0.00000000000E+00 0. -1.
         11    1    1    2    0    0 -0.35344061007E+02  0.25437524609E+02 -0.48228146870E+03  0.48424341540E+03  0.00000000000E+00 0. -1.
        -15    1    3    3    0    0 -0.11181075171E+02  0.74796012711E+01  0.70555341526E+01  0.15293762400E+02  0.17770000000E+01 0.  1.
         15    1    3    3    0    0  0.24381891618E+02 -0.12945693965E+02  0.46923266044E+03  0.47004735398E+03  0.17770000000E+01 0. -1.
</event>
<event>
 7    1  0.2187028E-004  0.4939040E+03  0.7546771E-02  0.9413554E-01
        -11   -1    0    0    0    0  0.00000000000E+00  0.00000000000E+00  0.50000000000E+03  0.50000000000E+03  0.00000000000E+00 0.  1.
         11   -1    0    0    0    0 -0.00000000000E+00 -0.00000000000E+00 -0.50000000000E+03  0.50000000000E+03  0.00000000000E+00 0. -1.
         23    2    1    2    0    0  0.63334833710E+01 -0.86301942147E+01  0.48564851661E+03  0.49420385043E+03  0.90930582499E+02 0.  0.
        -11    1    1    2    0    0  0.10541799992E+02  0.17478393666E+02 -0.64817024934E+00  0.20421653138E+02  0.00000000000E+00 0.  1.
         11    1    1    2    0    0 -0.16875283363E+02 -0.88481994514E+01 -0.48500034636E+03  0.48537449643E+03  0.00000000000E+00 0. -1.
        -15    1    3    3    0    0  0.10278931381E+01 -0.44504285220E+02  0.14668802061E+03  0.15330434138E+03  0.17770000000E+01 0.  1.
         15    1    3    3    0    0  0.53055902328E+01  0.35874091006E+02  0.33896049600E+03  0.34089950905E+03  0.17770000000E+01 0. -1.
</event>
<event>
 7    1  0.4456565E-004  0.5106862E+03  0.7546771E-02  0.9376211E-01
        -11   -1    0    0    0    0  0.00000000000E+00  0.00000000000E+00  0.50000000000E+03  0.50000000000E+03  0.00000000000E+00 0. -1.
         11   -1    0    0    0    0 -0.00000000000E+00 -0.00000000000E+00 -0.50000000000E+03  0.50000000000E+03  0.00000000000E+00 0.  1.
         23    2    1    2    0    0 -0.30484097618E+02 -0.43213550449E+02 -0.16982553418E+03  0.19468249440E+03  0.79144617116E+02 0.  0.
        -11    1    1    2    0    0  0.26466319021E+02  0.53803372445E+02  0.48562615453E+03  0.48931383681E+03  0.00000000000E+00 0. -1.
         11    1    1    2    0    0  0.40177785968E+01 -0.10589821995E+02 -0.31580062035E+03  0.31600366879E+03  0.00000000000E+00 0.  1.
        -15    1    3    3    0    0 -0.36898510664E+02 -0.49194087497E+02 -0.65078849813E+02  0.89554300600E+02  0.17770000000E+01 0.  1.
         15    1    3    3    0    0  0.64144130458E+01  0.59805370480E+01 -0.10474668436E+03  0.10512819380E+03  0.17770000000E+01 0. -1.
</event>
<event>
 7    1  0.2187028E-004  0.4991944E+03  0.7546771E-02  0.9401614E-01
        -11   -1    0    0    0    0  0.00000000000E+00  0.00000000000E+00  0.50000000000E+03  0.50000000000E+03  0.00000000000E+00 0. -1.
         11   -1    0    0    0    0 -0.00000000000E+00 -0.00000000000E+00 -0.50000000000E+03  0.50000000000E+03  0.00000000000E+00 0. -1.
         23    2    1    2    0    0  0.10317896081E+02 -0.93372593173E+01  0.49349840315E+03  0.50111644228E+03  0.85926546675E+02 0.  0.
        -11    1    1    2    0    0  0.76966859426E+01  0.24522674701E+01 -0.40155512796E+01  0.90209335617E+01  0.00000000000E+00 0. -1.
         11    1    1    2    0    0 -0.18014582023E+02  0.68849918472E+01 -0.48948285187E+03  0.48986262416E+03  0.00000000000E+00 0. -1.
        -15    1    3    3    0    0  0.30624743360E+02  0.84072648190E+01  0.44029452924E+03  0.44144194093E+03  0.17770000000E+01 0. -1.
         15    1    3    3    0    0 -0.20306847279E+02 -0.17744524136E+02  0.53203873910E+02  0.59674501350E+02  0.17770000000E+01 0.  1.
</event>
<event>
 7    1  0.2187028E-004  0.5072200E+03  0.7546771E-02  0.9383798E-01
        -11   -1    0    0    0    0  0.00000000000E+00  0.00000000000E+00  0.50000000000E+03  0.50000000000E+03  0.00000000000E+00 0. -1.
         11   -1    0    0    0    0 -0.00000000000E+00 -0.00000000000E+00 -0.50000000000E+03  0.50000000000E+03  0.00000000000E+00 0. -1.
         23    2    1    2    0    0  0.46496101137E+02 -0.41101855002E+02 -0.32800892121E+03  0.34630534537E+03  0.92121061299E+02 0.  0.
        -11    1    1    2    0    0 -0.48523623358E+02  0.38307491891E+02  0.48888657513E+03  0.49277996033E+03  0.00000000000E+00 0. -1.
         11    1    1    2    0    0  0.20275222212E+01  0.27943631110E+01 -0.16087765392E+03  0.16091469430E+03  0.00000000000E+00 0. -1.
        -15    1    3    3    0    0 -0.19666236602E+02  0.47434576550E+01 -0.22253836349E+02  0.30127266950E+02  0.17770000000E+01 0.  1.
         15    1    3    3    0    0  0.66162337739E+02 -0.45845312657E+02 -0.30575508486E+03  0.31617807842E+03  0.17770000000E+01 0. -1.
</event>
<event>
 7    1  0.2187028E-004  0.4512914E+03  0.7546771E-02  0.9515922E-01
        -11   -1    0    0    0    0  0.00000000000E+00  0.00000000000E+00  0.50000000000E+03  0.50000000000E+03  0.00000000000E+00 0.  1.
         11   -1    0    0    0    0 -0.00000000000E+00 -0.00000000000E+00 -0.50000000000E+03  0.50000000000E+03  0.00000000000E+00 0. -1.
         23    2    1    2    0    0  0.63000746895E+01 -0.28290660816E+02  0.16338806610E+02  0.96804248811E+02  0.90906839984E+02 0.  0.
        -11    1    1    2    0    0 -0.33551893528E+01  0.22116465634E+02  0.44312087931E+03  0.44368514628E+03  0.00000000000E+00 0.  1.
         11    1    1    2    0    0 -0.29448853367E+01  0.61741951821E+01 -0.45945968592E+03  0.45951060491E+03  0.00000000000E+00 0. -1.
        -15    1    3    3    0    0 -0.23385139474E+01 -0.23408779797E+02  0.53409134965E+02  0.58387781648E+02  0.17770000000E+01 0. -1.
         15    1    3    3    0    0  0.86385886369E+01 -0.48818810192E+01 -0.37070328355E+02  0.38416467163E+02  0.17770000000E+01 0.  1.
</event>
<event>
 7    1  0.2187028E-004  0.5056301E+03  0.7546771E-02  0.9387299E-01
        -11   -1    0    0    0    0  0.00000000000E+00  0.00000000000E+00  0.50000000000E+03  0.50000000000E+03  0.00000000000E+00 0. -1.
         11   -1    0    0    0    0 -0.00000000000E+00 -0.00000000000E+00 -0.50000000000E+03  0.50000000000E+03  0.00000000000E+00 0.  1.
         23    2    1    2    0    0  0.37717198008E+02  0.27887564256E+01  0.48586513889E+03  0.49436987237E+03  0.83103991104E+02 0.  0.
        -11    1    1    2    0    0 -0.38593292071E+02 -0.17818707342E+02 -0.36545145439E+02  0.56057971595E+02  0.00000000000E+00 0. -1.
         11    1    1    2    0    0  0.87609406258E+00  0.15029950916E+02 -0.44931999345E+03  0.44957215603E+03  0.00000000000E+00 0.  1.
        -15    1    3    3    0    0  0.61345082444E+02 -0.32298669779E+01  0.25899891190E+03  0.26619024264E+03  0.17770000000E+01 0.  1.
         15    1    3    3    0    0 -0.23627884436E+02  0.60186234035E+01  0.22686622699E+03  0.22817962974E+03  0.17770000000E+01 0. -1.
</event>
<event>
 7    1  0.2187028E-004  0.5255341E+03  0.7546771E-02  0.9344421E-01
        -11   -1    0    0    0    0  0.00000000000E+00  0.00000000000E+00  0.50000000000E+03  0.50000000000E+03  0.00000000000E+00 0. -1.
         11   -1    0    0    0    0 -0.00000000000E+00 -0.00000000000E+00 -0.50000000000E+03  0.50000000000E+03  0.00000000000E+00 0. -1.
         23    2    1    2    0    0 -0.68107047802E+02 -0.59533462243E+02  0.39244913339E+03  0.41022243624E+03  0.77995652509E+02 0.  0.
        -11    1    1    2    0    0  0.59767210006E+02  0.54896804791E+02  0.81920761942E+02  0.11531170715E+03  0.00000000000E+00 0. -1.
         11    1    1    2    0    0  0.83398377959E+01  0.46366574524E+01 -0.47436989533E+03  0.47446585661E+03  0.00000000000E+00 0. -1.
        -15    1    3    3    0    0  0.16576734892E+02 -0.12078829647E+02  0.99365507110E+02  0.10147584933E+03  0.17770000000E+01 0.  1.
         15    1    3    3    0    0 -0.84683782694E+02 -0.47454632596E+02  0.29308362628E+03  0.30874658691E+03  0.17770000000E+01 0. -1.
</event>
<event>
 7    1  0.2187028E-004  0.3803090E+03  0.7546771E-02  0.9716440E-01
        -11   -1    0    0    0    0  0.00000000000E+00  0.00000000000E+00  0.50000000000E+03  0.50000000000E+03  0.00000000000E+00 0. -1.
         11   -1    0    0    0    0 -0.00000000000E+00 -0.00000000000E+00 -0.50000000000E+03  0.50000000000E+03  0.00000000000E+00 0.  1.
         23    2    1    2    0    0 -0.78885762223E+02  0.10828464753E+03  0.14057709455E+03  0.21498392947E+03  0.92236880089E+02 0.  0.
        -11    1    1    2    0    0  0.10095127599E+03 -0.12022942496E+03  0.30272137765E+03  0.34100807503E+03  0.00000000000E+00 0. -1.
         11    1    1    2    0    0 -0.22065513772E+02  0.11944777433E+02 -0.44329847220E+03  0.44400799549E+03  0.00000000000E+00 0.  1.
        -15    1    3    3    0    0 -0.84657579586E+02  0.44285257112E+02  0.64038545918E+02  0.11503122564E+03  0.17770000000E+01 0. -1.
         15    1    3    3    0    0  0.57718173633E+01  0.63999390415E+02  0.76538548630E+02  0.99952703838E+02  0.17770000000E+01 0.  1.
</event>
<event>
 7    1  0.2187028E-004  0.5035284E+03  0.7546771E-02  0.9391949E-01
        -11   -1    0    0    0    0  0.00000000000E+00  0.00000000000E+00  0.50000000000E+03  0.50000000000E+03  0.00000000000E+00 0. -1.
         11   -1    0    0    0    0 -0.00000000000E+00 -0.00000000000E+00 -0.50000000000E+03  0.50000000000E+03  0.00000000000E+00 0. -1.
         23    2    1    2    0    0 -0.14240820653E+02 -0.13418146359E+02  0.49589755859E+03  0.50352838840E+03  0.85109351377E+02 0.  0.
        -11    1    1    2    0    0  0.11699661563E+02  0.10594388209E+02 -0.22736759926E+03  0.22791478306E+03  0.00000000000E+00 0. -1.
         11    1    1    2    0    0  0.25411590897E+01  0.28237581501E+01 -0.26852995932E+03  0.26855682854E+03  0.00000000000E+00 0. -1.
        -15    1    3    3    0    0 -0.35089959125E+01  0.77321449242E+01  0.18013896079E+01  0.88601270286E+01  0.17770000000E+01 0.  1.
         15    1    3    3    0    0 -0.10731824740E+02 -0.21150291283E+02  0.49409616898E+03  0.49466826138E+03  0.17770000000E+01 0. -1.
</event>
<event>
 6    1  0.2187028E-004  0.4236943E+03  0.7546771E-02  0.9588871E-01
        -11   -1    0    0    0    0  0.00000000000E+00  0.00000000000E+00  0.50000000000E+03  0.50000000000E+03  0.00000000000E+00 0. -1.
         11   -1    0    0    0    0 -0.00000000000E+00 -0.00000000000E+00 -0.50000000000E+03  0.50000000000E+03  0.00000000000E+00 0. -1.
        -11    1    1    2    0    0  0.18585705522E+03 -0.29663006014E+03  0.21489682169E+03  0.41074673648E+03  0.00000000000E+00 0. -1.
         11    1    1    2    0    0  0.34954327017E+02  0.88326929628E+01 -0.17423232403E+03  0.17792336603E+03  0.00000000000E+00 0. -1.
        -15    1    1    2    0    0 -0.20215361585E+03  0.23729635591E+03 -0.10359110212E+03  0.32849645218E+03  0.17770000000E+01 0. -1.
         15    1    1    2    0    0 -0.18657766387E+02  0.50501011269E+02  0.62926604453E+02  0.82833445315E+02  0.17770000000E+01 0.  1.
</event>
<event>
 7    1  0.2187028E-004  0.5039020E+03  0.7546771E-02  0.9391121E-01
        -11   -1    0    0    0    0  0.00000000000E+00  0.00000000000E+00  0.50000000000E+03  0.50000000000E+03  0.00000000000E+00 0.  1.
         11   -1    0    0    0    0 -0.00000000000E+00 -0.00000000000E+00 -0.50000000000E+03  0.50000000000E+03  0.00000000000E+00 0.  1.
         23    2    1    2    0    0  0.36347915725E+01  0.22041465007E+02  0.49444539825E+03  0.50390200297E+03  0.94561825573E+02 0.  0.
        -11    1    1    2    0    0 -0.31214122202E+01 -0.29866942089E+02 -0.30113604203E+03  0.30262963049E+03  0.00000000000E+00 0.  1.
         11    1    1    2    0    0 -0.51337935232E+00  0.78254770827E+01 -0.19330935622E+03  0.19346836654E+03  0.00000000000E+00 0.  1.
        -15    1    3    3    0    0  0.18147897319E+02  0.26431899251E+02  0.51482871821E+02  0.60676480576E+02  0.17770000000E+01 0. -1.
         15    1    3    3    0    0 -0.14513105746E+02 -0.43904342442E+01  0.44296252643E+03  0.44322552239E+03  0.17770000000E+01 0.  1.
</event>
<event>
 7    1  0.2187028E-004  0.5095697E+03  0.7546771E-02  0.9378648E-01
        -11   -1    0    0    0    0  0.00000000000E+00  0.00000000000E+00  0.50000000000E+03  0.50000000000E+03  0.00000000000E+00 0.  1.
         11   -1    0    0    0    0 -0.00000000000E+00 -0.00000000000E+00 -0.50000000000E+03  0.50000000000E+03  0.00000000000E+00 0.  1.
         23    2    1    2    0    0  0.46379962496E+01  0.29467163623E+02 -0.24262859786E+03  0.26287878676E+03  0.96678825443E+02 0.  0.
        -11    1    1    2    0    0 -0.44889076235E+01 -0.33074706389E+02  0.48929312142E+03  0.49043026534E+03  0.00000000000E+00 0.  1.
         11    1    1    2    0    0 -0.14908862609E+00  0.36075427661E+01 -0.24666452356E+03  0.24669094790E+03  0.00000000000E+00 0.  1.
        -15    1    3    3    0    0 -0.50573000333E+01 -0.11635670872E+02 -0.20756551282E+03  0.20796048895E+03  0.17770000000E+01 0.  1.
         15    1    3    3    0    0  0.96952962829E+01  0.41102834495E+02 -0.35063085031E+02  0.54918297811E+02  0.17770000000E+01 0.  1.
</event>
<event>
 6    1  0.2187028E-004  0.5088612E+03  0.7546771E-02  0.9380198E-01
        -11   -1    0    0    0    0  0.00000000000E+00  0.00000000000E+00  0.50000000000E+03  0.50000000000E+03  0.00000000000E+00 0.  1.
         11   -1    0    0    0    0 -0.00000000000E+00 -0.00000000000E+00 -0.50000000000E+03  0.50000000000E+03  0.00000000000E+00 0.  1.
        -11    1    1    2    0    0  0.87919067558E+01  0.23206678483E+02 -0.74852624633E+02  0.78859133682E+02  0.00000000000E+00 0.  1.
         11    1    1    2    0    0 -0.10020157098E+02 -0.91029794684E+01 -0.41205738193E+03  0.41227970334E+03  0.00000000000E+00 0.  1.
        -15    1    1    2    0    0  0.35596165651E+02 -0.35379171827E+01  0.46570621986E+03  0.46708141134E+03  0.17770000000E+01 0.  1.
         15    1    1    2    0    0 -0.34367915309E+02 -0.10565781832E+02  0.21203786696E+02  0.41779751646E+02  0.17770000000E+01 0. -1.
</event>
<event>
 7    1  0.2187028E-004  0.5377776E+03  0.7546771E-02  0.9319034E-01
        -11   -1    0    0    0    0  0.00000000000E+00  0.00000000000E+00  0.50000000000E+03  0.50000000000E+03  0.00000000000E+00 0. -1.
         11   -1    0    0    0    0 -0.00000000000E+00 -0.00000000000E+00 -0.50000000000E+03  0.50000000000E+03  0.00000000000E+00 0. -1.
         23    2    1    2    0    0 -0.19713710347E+02 -0.66494067374E+02 -0.56478137286E+02  0.13232072914E+03  0.97513609292E+02 0.  0.
        -11    1    1    2    0    0 -0.21877427811E+02  0.46874722639E+02  0.45931871798E+03  0.46222239903E+03  0.00000000000E+00 0. -1.
         11    1    1    2    0    0  0.41591138158E+02  0.19619344736E+02 -0.40284058070E+03  0.40545687183E+03  0.00000000000E+00 0. -1.
        -15    1    3    3    0    0  0.17108588043E+02  0.98060000476E+01 -0.41892009461E+02  0.46335295483E+02  0.17770000000E+01 0. -1.
         15    1    3    3    0    0 -0.36822298390E+02 -0.76300067422E+02 -0.14586127825E+02  0.85985433657E+02  0.17770000000E+01 0.  1.
</event>
<event>
 7    1  0.2187028E-004  0.5033592E+03  0.7546771E-02  0.9392324E-01
        -11   -1    0    0    0    0  0.00000000000E+00  0.00000000000E+00  0.50000000000E+03  0.50000000000E+03  0.00000000000E+00 0.  1.
         11   -1    0    0    0    0 -0.00000000000E+00 -0.00000000000E+00 -0.50000000000E+03  0.50000000000E+03  0.00000000000E+00 0. -1.
         23    2    1    2    0    0  0.18857359026E+01 -0.35214784049E+01  0.49545679959E+03  0.50335921291E+03  0.88753029019E+02 0.  0.
        -11    1    1    2    0    0  0.69205576843E+01  0.71574945589E+01 -0.45213665430E+02  0.46296861542E+02  0.00000000000E+00 0.  1.
         11    1    1    2    0    0 -0.88062935869E+01 -0.36360161540E+01 -0.45024313415E+03  0.45034392554E+03  0.00000000000E+00 0. -1.
        -15    1    3    3    0    0 -0.29136401144E+02  0.13154640820E+02  0.40511812152E+03  0.40638137822E+03  0.17770000000E+01 0.  1.
         15    1    3    3    0    0  0.31022137046E+02 -0.16676119225E+02  0.90338678061E+02  0.96977834695E+02  0.17770000000E+01 0. -1.
</event>
<event>
 7    1  0.2187028E-004  0.5255288E+03  0.7546771E-02  0.9344432E-01
        -11   -1    0    0    0    0  0.00000000000E+00  0.00000000000E+00  0.50000000000E+03  0.50000000000E+03  0.00000000000E+00 0.  1.
         11   -1    0    0    0    0 -0.00000000000E+00 -0.00000000000E+00 -0.50000000000E+03  0.50000000000E+03  0.00000000000E+00 0. -1.
         23    2    1    2    0    0  0.51699925824E+01  0.31988081525E+02 -0.59882278420E+02  0.11345291278E+03  0.90750812491E+02 0.  0.
        -11    1    1    2    0    0 -0.32583276071E+02 -0.50839889172E+02  0.47061293738E+03  0.47447118041E+03  0.00000000000E+00 0.  1.
         11    1    1    2    0    0  0.27413283489E+02  0.18851807647E+02 -0.41073065896E+03  0.41207590681E+03  0.00000000000E+00 0. -1.
        -15    1    3    3    0    0 -0.53578792756E+01 -0.16145194176E+02 -0.61789352691E+02  0.64112838031E+02  0.17770000000E+01 0. -1.
         15    1    3    3    0    0  0.10527871858E+02  0.48133275700E+02  0.19070742717E+01  0.49340074754E+02  0.17770000000E+01 0.  1.
</event>
<event>
 7    1  0.2187028E-004  0.4868504E+03  0.7546771E-02  0.9429723E-01
        -11   -1    0    0    0    0  0.00000000000E+00  0.00000000000E+00  0.50000000000E+03  0.50000000000E+03  0.00000000000E+00 0.  1.
         11   -1    0    0    0    0 -0.00000000000E+00 -0.00000000000E+00 -0.50000000000E+03  0.50000000000E+03  0.00000000000E+00 0.  1.
         23    2    1    2    0    0 -0.51328593664E+02  0.35719030461E+02  0.46646758342E+03  0.47975342561E+03  0.93063791767E+02 0.  0.
        -11    1    1    2    0    0  0.32096244615E+01 -0.30193521780E+02  0.16702857437E+02  0.34654521973E+02  0.00000000000E+00 0.  1.
         11    1    1    2    0    0  0.48118969203E+02 -0.55255086815E+01 -0.48317044086E+03  0.48559205241E+03  0.00000000000E+00 0.  1.
        -15    1    3    3    0    0  0.10983070771E+02 -0.21608776920E+02  0.15852836993E+03  0.16038069985E+03  0.17770000000E+01 0.  1.
         15    1    3    3    0    0 -0.62311664435E+02  0.57327807381E+02  0.30793921349E+03  0.31937272576E+03  0.17770000000E+01 0. -1.
</event>
<event>
 7    1  0.2187028E-004  0.5342056E+03  0.7546771E-02  0.9326366E-01
        -11   -1    0    0    0    0  0.00000000000E+00  0.00000000000E+00  0.50000000000E+03  0.50000000000E+03  0.00000000000E+00 0. -1.
         11   -1    0    0    0    0 -0.00000000000E+00 -0.00000000000E+00 -0.50000000000E+03  0.50000000000E+03  0.00000000000E+00 0.  1.
         23    2    1    2    0    0  0.13819824364E+02  0.49993254424E+02  0.56118008336E+02  0.11930625636E+03  0.91621170667E+02 0.  0.
        -11    1    1    2    0    0  0.35701020630E+01 -0.70113108747E+02  0.40891666197E+03  0.41489930114E+03  0.00000000000E+00 0. -1.
         11    1    1    2    0    0 -0.17389926427E+02  0.20119854324E+02 -0.46503467031E+03  0.46579444250E+03  0.00000000000E+00 0.  1.
        -15    1    3    3    0    0  0.30595400811E+02  0.70861775876E+02  0.33292958102E+02  0.84077634477E+02  0.17770000000E+01 0.  1.
         15    1    3    3    0    0 -0.16775576447E+02 -0.20868521453E+02  0.22825050234E+02  0.35228621885E+02  0.17770000000E+01 0. -1.
</event>
<event>
 7    1  0.2187028E-004  0.4946191E+03  0.7546771E-02  0.9411931E-01
        -11   -1    0    0    0    0  0.00000000000E+00  0.00000000000E+00  0.50000000000E+03  0.50000000000E+03  0.00000000000E+00 0. -1.
         11   -1    0    0    0    0 -0.00000000000E+00 -0.00000000000E+00 -0.50000000000E+03  0.50000000000E+03  0.00000000000E+00 0. -1.
         23    2    1    2    0    0 -0.33936824205E+01 -0.84539000429E+01  0.48197798426E+03  0.48865554376E+03  0.79990484604E+02 0.  0.
        -11    1    1    2    0    0 -0.92231236277E+01 -0.83047355255E+01  0.11797529238E+02  0.17123560895E+02  0.00000000000E+00 0. -1.
         11    1    1    2    0    0  0.12616806048E+02  0.16758635568E+02 -0.49377551350E+03  0.49422089534E+03  0.00000000000E+00 0. -1.
        -15    1    3    3    0    0  0.22592402717E+01  0.35703380259E+02  0.20080028482E+03  0.20396996750E+03  0.17770000000E+01 0.  1.
         15    1    3    3    0    0 -0.56529226921E+01 -0.44157280301E+02  0.28117769944E+03  0.28468557626E+03  0.17770000000E+01 0. -1.
</event>
<event>
 7    1  0.2187028E-004  0.5209632E+03  0.7546771E-02  0.9354087E-01
        -11   -1    0    0    0    0  0.00000000000E+00  0.00000000000E+00  0.50000000000E+03  0.50000000000E+03  0.00000000000E+00 0. -1.
         11   -1    0    0    0    0 -0.00000000000E+00 -0.00000000000E+00 -0.50000000000E+03  0.50000000000E+03  0.00000000000E+00 0. -1.
         23    2    1    2    0    0  0.50730857684E+02 -0.21580848806E+02  0.11415820529E+03  0.15364539957E+03  0.86807027472E+02 0.  0.
        -11    1    1    2    0    0 -0.38182003520E+02  0.21171381224E+02  0.36471399411E+03  0.36731783278E+03  0.00000000000E+00 0. -1.
         11    1    1    2    0    0 -0.12548854164E+02  0.40946758227E+00 -0.47887219940E+03  0.47903676765E+03  0.00000000000E+00 0. -1.
        -15    1    3    3    0    0  0.67055136812E+01 -0.34708123048E+02  0.99156981055E+02  0.10528476784E+03  0.17770000000E+01 0. -1.
         15    1    3    3    0    0  0.44025344003E+02  0.13127274242E+02  0.15001224234E+02  0.48360631728E+02  0.17770000000E+01 0.  1.
</event>
<event>
 7    1  0.2187028E-004  0.4478327E+03  0.7546771E-02  0.9524756E-01
        -11   -1    0    0    0    0  0.00000000000E+00  0.00000000000E+00  0.50000000000E+03  0.50000000000E+03  0.00000000000E+00 0. -1.
         11   -1    0    0    0    0 -0.00000000000E+00 -0.00000000000E+00 -0.50000000000E+03  0.50000000000E+03  0.00000000000E+00 0.  1.
         23    2    1    2    0    0  0.88149262034E+02  0.40560328722E+02  0.40377545799E+03  0.42705231480E+03  0.99617400272E+02 0.  0.
        -11    1    1    2    0    0 -0.87309810605E+02 -0.25048506618E+02  0.60033820597E+02  0.10887832809E+03  0.00000000000E+00 0. -1.
         11    1    1    2    0    0 -0.83945142920E+00 -0.15511822104E+02 -0.46380927859E+03  0.46406935711E+03  0.00000000000E+00 0.  1.
        -15    1    3    3    0    0  0.10867068604E+03  0.45154443235E+02  0.33229386422E+03  0.35252037059E+03  0.17770000000E+01 0. -1.
         15    1    3    3    0    0 -0.20521424011E+02 -0.45941145130E+01  0.71481593770E+02  0.74531944215E+02  0.17770000000E+01 0.  1.
</event>
<event>
 7    1  0.2187028E-004  0.4143994E+03  0.7546771E-02  0.9614786E-01
        -11   -1    0    0    0    0  0.00000000000E+00  0.00000000000E+00  0.50000000000E+03  0.50000000000E+03  0.00000000000E+00 0. -1.
         11   -1    0    0    0    0 -0.00000000000E+00 -0.00000000000E+00 -0.50000000000E+03  0.50000000000E+03  0.00000000000E+00 0. -1.
         23    2    1    2    0    0 -0.14770272450E+03 -0.52973775080E+02  0.35982842950E+03  0.40307122531E+03  0.91474577483E+02 0.  0.
        -11    1    1    2    0    0  0.14198312784E+03  0.43271278272E+02  0.71987425880E+02  0.16496606196E+03  0.00000000000E+00 0. -1.
         11    1    1    2    0    0  0.57195966542E+01  0.97024968085E+01 -0.43181585538E+03  0.43196271273E+03  0.00000000000E+00 0. -1.
        -15    1    3    3    0    0 -0.10251327128E+03 -0.50736518303E+02  0.32892759376E+03  0.34825232913E+03  0.17770000000E+01 0. -1.
         15    1    3    3    0    0 -0.45189453216E+02 -0.22372567771E+01  0.30900835737E+02  0.54818896177E+02  0.17770000000E+01 0.  1.
</event>
<event>
 7    1  0.2187028E-004  0.4172016E+03  0.7546771E-02  0.9606898E-01
        -11   -1    0    0    0    0  0.00000000000E+00  0.00000000000E+00  0.50000000000E+03  0.50000000000E+03  0.00000000000E+00 0. -1.
         11   -1    0    0    0    0 -0.00000000000E+00 -0.00000000000E+00 -0.50000000000E+03  0.50000000000E+03  0.00000000000E+00 0.  1.
         23    2    1    2    0    0 -0.29295517312E+03  0.15816035273E+02  0.34038189280E+03  0.45856904464E+03  0.91393956752E+02 0.  0.
        -11    1    1    2    0    0  0.15117253517E+03 -0.52022146880E+02  0.11549041452E+02  0.16028979853E+03  0.00000000000E+00 0. -1.
         11    1    1    2    0    0  0.14178263796E+03  0.36206111607E+02 -0.35193093425E+03  0.38114115682E+03  0.00000000000E+00 0.  1.
        -15    1    3    3    0    0 -0.28638648581E+02 -0.14668589982E+02  0.80173363153E+02  0.86407555300E+02  0.17770000000E+01 0.  1.
         15    1    3    3    0    0 -0.26431652454E+03  0.30484625255E+02  0.26020852965E+03  0.37216148935E+03  0.17770000000E+01 0. -1.
</event>
<event>
 7    1  0.2187028E-004  0.4387362E+03  0.7546771E-02  0.9548400E-01
        -11   -1    0    0    0    0  0.00000000000E+00  0.00000000000E+00  0.50000000000E+03  0.50000000000E+03  0.00000000000E+00 0.  1.
         11   -1    0    0    0    0 -0.00000000000E+00 -0.00000000000E+00 -0.50000000000E+03  0.50000000000E+03  0.00000000000E+00 0.  1.
         23    2    1    2    0    0 -0.61649466823E+02  0.18823754403E+02  0.47602846355E+02  0.11887628337E+03  0.87809733393E+02 0.  0.
        -11    1    1    2    0    0  0.53066920666E+02 -0.13924148476E+02  0.41490183876E+03  0.41851345951E+03  0.00000000000E+00 0.  1.
         11    1    1    2    0    0  0.85825461568E+01 -0.48996059270E+01 -0.46250468512E+03  0.46261025712E+03  0.00000000000E+00 0.  1.
        -15    1    3    3    0    0 -0.72227694244E+01 -0.38811939692E+01 -0.24392034523E+02  0.25794595208E+02  0.17770000000E+01 0. -1.
         15    1    3    3    0    0 -0.54426697398E+02  0.22704948372E+02  0.71994880878E+02  0.93081688166E+02  0.17770000000E+01 0.  1.
</event>
<event>
 7    1  0.2187028E-004  0.5018101E+03  0.7546771E-02  0.9395769E-01
        -11   -1    0    0    0    0  0.00000000000E+00  0.00000000000E+00  0.50000000000E+03  0.50000000000E+03  0.00000000000E+00 0.  1.
         11   -1    0    0    0    0 -0.00000000000E+00 -0.00000000000E+00 -0.50000000000E+03  0.50000000000E+03  0.00000000000E+00 0. -1.
         23    2    1    2    0    0  0.36457808627E+01 -0.13778461551E+02  0.49375782098E+03  0.50195669076E+03  0.89222171564E+02 0.  0.
        -11    1    1    2    0    0  0.81296802241E+00 -0.42677521191E+01 -0.43036507316E+00  0.43657575805E+01  0.00000000000E+00 0.  1.
         11    1    1    2    0    0 -0.44587488851E+01  0.18046213670E+02 -0.49332745590E+03  0.49367755166E+03  0.00000000000E+00 0. -1.
        -15    1    3    3    0    0  0.32032819393E+02 -0.14928052823E+02  0.43729348918E+03  0.43872280735E+03  0.17770000000E+01 0.  1.
         15    1    3    3    0    0 -0.28387038530E+02  0.11495912720E+01  0.56464331798E+02  0.63233883409E+02  0.17770000000E+01 0. -1.
</event>
<event>
 7    1  0.2187028E-004  0.5139712E+03  0.7546771E-02  0.9369079E-01
        -11   -1    0    0    0    0  0.00000000000E+00  0.00000000000E+00  0.50000000000E+03  0.50000000000E+03  0.00000000000E+00 0.  1.
         11   -1    0    0    0    0 -0.00000000000E+00 -0.00000000000E+00 -0.50000000000E+03  0.50000000000E+03  0.00000000000E+00 0.  1.
         23    2    1    2    0    0  0.59366257460E+02  0.32326952685E+01 -0.18676243398E+03  0.21526769585E+03  0.89023431117E+02 0.  0.
        -11    1    1    2    0    0 -0.39285316564E+02  0.15835892812E+02  0.48417956314E+03  0.48602876557E+03  0.00000000000E+00 0.  1.
         11    1    1    2    0    0 -0.20080940896E+02 -0.19068588081E+02 -0.29741712916E+03  0.29870353858E+03  0.00000000000E+00 0.  1.
        -15    1    3    3    0    0  0.29204699009E+02  0.36362314581E+02 -0.38904236650E+02  0.60760428934E+02  0.17770000000E+01 0. -1.
         15    1    3    3    0    0  0.30161558451E+02 -0.33129619313E+02 -0.14785819733E+03  0.15450726692E+03  0.17770000000E+01 0.  1.
</event>
<event>
 7    1  0.2187028E-004  0.4752166E+03  0.7546771E-02  0.9457038E-01
        -11   -1    0    0    0    0  0.00000000000E+00  0.00000000000E+00  0.50000000000E+03  0.50000000000E+03  0.00000000000E+00 0.  1.
         11   -1    0    0    0    0 -0.00000000000E+00 -0.00000000000E+00 -0.50000000000E+03  0.50000000000E+03  0.00000000000E+00 0. -1.
         23    2    1    2    0    0  0.53343470224E+02 -0.33217765474E+01  0.43866273245E+03  0.45164153908E+03  0.93265893898E+02 0.  0.
        -11    1    1    2    0    0 -0.56626573229E+01  0.27495952391E+02  0.49698924339E+02  0.57079559970E+02  0.00000000000E+00 0.  1.
         11    1    1    2    0    0 -0.47680812901E+02 -0.24174175844E+02 -0.48836165679E+03  0.49127890095E+03  0.00000000000E+00 0. -1.
        -15    1    3    3    0    0  0.77355118540E+02 -0.76379575981E+01  0.38344202441E+03  0.39124557067E+03  0.17770000000E+01 0.  1.
         15    1    3    3    0    0 -0.24011648317E+02  0.43161810507E+01  0.55220708043E+02  0.60395968405E+02  0.17770000000E+01 0. -1.
</event>
<event>
 7    1  0.2187028E-004  0.5143509E+03  0.7546771E-02  0.9368259E-01
        -11   -1    0    0    0    0  0.00000000000E+00  0.00000000000E+00  0.50000000000E+03  0.50000000000E+03  0.00000000000E+00 0.  1.
         11   -1    0    0    0    0 -0.00000000000E+00 -0.00000000000E+00 -0.50000000000E+03  0.50000000000E+03  0.00000000000E+00 0. -1.
         23    2    1    2    0    0 -0.42731254865E+02  0.84317704590E+02  0.46736351217E+03  0.48564906687E+03  0.92146232636E+02 0.  0.
        -11    1    1    2    0    0  0.13772103884E+02 -0.86312331309E+02 -0.60143721299E+02  0.10609786328E+03  0.00000000000E+00 0.  1.
         11    1    1    2    0    0  0.28959150981E+02  0.19946267192E+01 -0.40721979088E+03  0.40825306985E+03  0.00000000000E+00 0. -1.
        -15    1    3    3    0    0 -0.13489586318E+02  0.45473597580E+01  0.44793595094E+01  0.15028965714E+02  0.17770000000E+01 0. -1.
         15    1    3    3    0    0 -0.29241668547E+02  0.79770344832E+02  0.46288415266E+03  0.47062010115E+03  0.17770000000E+01 0.  1.
</event>
<event>
 7    1  0.2187028E-004  0.5039650E+03  0.7546771E-02  0.9390981E-01
        -11   -1    0    0    0    0  0.00000000000E+00  0.00000000000E+00  0.50000000000E+03  0.50000000000E+03  0.00000000000E+00 0.  1.
         11   -1    0    0    0    0 -0.00000000000E+00 -0.00000000000E+00 -0.50000000000E+03  0.50000000000E+03  0.00000000000E+00 0. -1.
         23    2    1    2    0    0 -0.13621066057E+02 -0.20041109277E+02  0.49521213646E+03  0.50396498196E+03  0.90324212922E+02 0.  0.
        -11    1    1    2    0    0  0.27904850687E+01  0.34009260691E+01 -0.23686357790E+02  0.24091422756E+02  0.00000000000E+00 0.  1.
         11    1    1    2    0    0  0.10830580988E+02  0.16640183208E+02 -0.47152577867E+03  0.47194359529E+03  0.00000000000E+00 0. -1.
        -15    1    3    3    0    0 -0.41430905501E+02 -0.36801550054E+02  0.38764566551E+03  0.39159059455E+03  0.17770000000E+01 0.  1.
         15    1    3    3    0    0  0.27809839444E+02  0.16760440777E+02  0.10756647095E+03  0.11237438741E+03  0.17770000000E+01 0. -1.
</event>
<event>
 7    1  0.2187028E-004  0.5111527E+03  0.7546771E-02  0.9375195E-01
        -11   -1    0    0    0    0  0.00000000000E+00  0.00000000000E+00  0.50000000000E+03  0.50000000000E+03  0.00000000000E+00 0.  1.
         11   -1    0    0    0    0 -0.00000000000E+00 -0.00000000000E+00 -0.50000000000E+03  0.50000000000E+03  0.00000000000E+00 0. -1.
         23    2    1    2    0    0  0.19131313598E+02  0.33955128641E+02  0.21328582502E+03  0.23686903065E+03  0.95378910702E+02 0.  0.
        -11    1    1    2    0    0 -0.22534374321E+02  0.18435954374E+02  0.27273401599E+03  0.27428365959E+03  0.00000000000E+00 0.  1.
         11    1    1    2    0    0  0.34030607234E+01 -0.52391083015E+02 -0.48601984101E+03  0.48884730976E+03  0.00000000000E+00 0. -1.
        -15    1    3    3    0    0  0.55290749542E+02  0.17962156893E+02  0.88029880850E+02  0.10550887980E+03  0.17770000000E+01 0. -1.
         15    1    3    3    0    0 -0.36159435944E+02  0.15992971748E+02  0.12525594417E+03  0.13136015085E+03  0.17770000000E+01 0.  1.
</event>
<event>
 7    1  0.2187028E-004  0.4143063E+03  0.7546771E-02  0.9615050E-01
        -11   -1    0    0    0    0  0.00000000000E+00  0.00000000000E+00  0.50000000000E+03  0.50000000000E+03  0.00000000000E+00 0.  1.
         11   -1    0    0    0    0 -0.00000000000E+00 -0.00000000000E+00 -0.50000000000E+03  0.50000000000E+03  0.00000000000E+00 0. -1.
         23    2    1    2    0    0 -0.30975756827E+02  0.89572481098E+02 -0.45384285808E+02  0.16475079477E+03  0.12688721014E+03 0.  0.
        -11    1    1    2    0    0  0.28534924493E+02 -0.79417475067E+02  0.43620301309E+03  0.44429094735E+03  0.00000000000E+00 0.  1.
         11    1    1    2    0    0  0.24408323342E+01 -0.10155006031E+02 -0.39081872729E+03  0.39095825788E+03  0.00000000000E+00 0. -1.
        -15    1    3    3    0    0 -0.65639829445E+01  0.76132655768E+02  0.31712290579E+02  0.82753212924E+02  0.17770000000E+01 0.  1.
         15    1    3    3    0    0 -0.24411773882E+02  0.13439825330E+02 -0.77096576386E+02  0.81997581845E+02  0.17770000000E+01 0. -1.
</event>
<event>
 7    1  0.2187028E-004  0.4838777E+03  0.7546771E-02  0.9436625E-01
        -11   -1    0    0    0    0  0.00000000000E+00  0.00000000000E+00  0.50000000000E+03  0.50000000000E+03  0.00000000000E+00 0. -1.
         11   -1    0    0    0    0 -0.00000000000E+00 -0.00000000000E+00 -0.50000000000E+03  0.50000000000E+03  0.00000000000E+00 0. -1.
         23    2    1    2    0    0  0.25360129603E+02  0.35110477145E+02  0.45851961237E+03  0.46965748320E+03  0.91989319071E+02 0.  0.
        -11    1    1    2    0    0 -0.87731193695E+01 -0.23843738625E+02  0.31186824555E+02  0.40225732074E+02  0.00000000000E+00 0. -1.
         11    1    1    2    0    0 -0.16587010234E+02 -0.11266738520E+02 -0.48970643692E+03  0.49011678472E+03  0.00000000000E+00 0. -1.
        -15    1    3    3    0    0 -0.20838845199E+02  0.18263758370E+02  0.34263826377E+03  0.34376148688E+03  0.17770000000E+01 0. -1.
         15    1    3    3    0    0  0.46198974802E+02  0.16846718774E+02  0.11588134860E+03  0.12589599632E+03  0.17770000000E+01 0.  1.
</event>
<event>
 7    1  0.3096471E-004  0.4912635E+03  0.7546771E-02  0.9419573E-01
        -11   -1    0    0    0    0  0.00000000000E+00  0.00000000000E+00  0.50000000000E+03  0.50000000000E+03  0.00000000000E+00 0.  1.
         11   -1    0    0    0    0 -0.00000000000E+00 -0.00000000000E+00 -0.50000000000E+03  0.50000000000E+03  0.00000000000E+00 0. -1.
         23    2    1    2    0    0  0.16905267563E+03  0.42135043011E+02 -0.43865694174E+03  0.47998141003E+03  0.87224265235E+02 0.  0.
        -11    1    1    2    0    0 -0.16852911510E+03 -0.41825022420E+02  0.46360838778E+03  0.49505972606E+03  0.00000000000E+00 0.  1.
         11    1    1    2    0    0 -0.52356052780E+00 -0.31002059135E+00 -0.24951446045E+02  0.24958863919E+02  0.00000000000E+00 0. -1.
        -15    1    3    3    0    0 -0.88806058475E+01  0.16938529380E+00 -0.45532476679E+02  0.46424756468E+02  0.17770000000E+01 0.  1.
         15    1    3    3    0    0  0.17793328148E+03  0.41965657718E+02 -0.39312446506E+03  0.43355665356E+03  0.17770000000E+01 0. -1.
</event>
<event>
 7    1  0.2187028E-004  0.4970576E+03  0.7546771E-02  0.9406418E-01
        -11   -1    0    0    0    0  0.00000000000E+00  0.00000000000E+00  0.50000000000E+03  0.50000000000E+03  0.00000000000E+00 0.  1.
         11   -1    0    0    0    0 -0.00000000000E+00 -0.00000000000E+00 -0.50000000000E+03  0.50000000000E+03  0.00000000000E+00 0. -1.
         23    2    1    2    0    0 -0.10288797882E+02 -0.95285796404E+01  0.48861630200E+03  0.49716669711E+03  0.90731366968E+02 0.  0.
        -11    1    1    2    0    0  0.32801735791E+01  0.13748566783E+02  0.14064005591E-01  0.14134455246E+02  0.00000000000E+00 0.  1.
         11    1    1    2    0    0  0.70086243027E+01 -0.42199871429E+01 -0.48863036600E+03  0.48869884764E+03  0.00000000000E+00 0. -1.
        -15    1    3    3    0    0  0.11361977716E+02  0.15602557752E+02  0.21803126005E+02  0.29173076263E+02  0.17770000000E+01 0. -1.
         15    1    3    3    0    0 -0.21650775598E+02 -0.25131137393E+02  0.46681317599E+03  0.46799362085E+03  0.17770000000E+01 0.  1.
</event>
<event>
 7    1  0.2187028E-004  0.5122898E+03  0.7546771E-02  0.9372723E-01
        -11   -1    0    0    0    0  0.00000000000E+00  0.00000000000E+00  0.50000000000E+03  0.50000000000E+03  0.00000000000E+00 0.  1.
         11   -1    0    0    0    0 -0.00000000000E+00 -0.00000000000E+00 -0.50000000000E+03  0.50000000000E+03  0.00000000000E+00 0.  1.
         23    2    1    2    0    0  0.26011014122E+02  0.44617189016E+01  0.15295961544E+03  0.17680798904E+03  0.84663694949E+02 0.  0.
        -11    1    1    2    0    0 -0.20748493678E+02 -0.99696342775E+01  0.33469110819E+03  0.33548179011E+03  0.00000000000E+00 0.  1.
         11    1    1    2    0    0 -0.52625204445E+01  0.55079153759E+01 -0.48765072363E+03  0.48771022084E+03  0.00000000000E+00 0.  1.
        -15    1    3    3    0    0 -0.65860486364E+01  0.33760230877E+02  0.11056106389E+03  0.11580170898E+03  0.17770000000E+01 0. -1.
         15    1    3    3    0    0  0.32597062758E+02 -0.29298511976E+02  0.42398551556E+02  0.61006280066E+02  0.17770000000E+01 0.  1.
</event>
<event>
 7    1  0.2187028E-004  0.5030108E+03  0.7546771E-02  0.9393098E-01
        -11   -1    0    0    0    0  0.00000000000E+00  0.00000000000E+00  0.50000000000E+03  0.50000000000E+03  0.00000000000E+00 0. -1.
         11   -1    0    0    0    0 -0.00000000000E+00 -0.00000000000E+00 -0.50000000000E+03  0.50000000000E+03  0.00000000000E+00 0.  1.
         23    2    1    2    0    0 -0.30930965199E+02 -0.34436271006E+02  0.48648955233E+03  0.49698924322E+03  0.90463484210E+02 0.  0.
        -11    1    1    2    0    0  0.27062705535E+01  0.30968090185E+02 -0.23049758357E+02  0.38699326484E+02  0.00000000000E+00 0. -1.
         11    1    1    2    0    0  0.28224694645E+02  0.34681808216E+01 -0.46343979398E+03  0.46431143030E+03  0.00000000000E+00 0.  1.
        -15    1    3    3    0    0  0.31750341057E+02 -0.49966526202E+01  0.16736617889E+03  0.17043370048E+03  0.17770000000E+01 0. -1.
         15    1    3    3    0    0 -0.62681306256E+02 -0.29439618386E+02  0.31912337344E+03  0.32655554273E+03  0.17770000000E+01 0.  1.
</event>
<event>
 7    1  0.2187028E-004  0.5036573E+03  0.7546771E-02  0.9391663E-01
        -11   -1    0    0    0    0  0.00000000000E+00  0.00000000000E+00  0.50000000000E+03  0.50000000000E+03  0.00000000000E+00 0.  1.
         11   -1    0    0    0    0 -0.00000000000E+00 -0.00000000000E+00 -0.50000000000E+03  0.50000000000E+03  0.00000000000E+00 0. -1.
         23    2    1    2    0    0 -0.66590618220E+01  0.23932773932E+01  0.49551204009E+03  0.50365733723E+03  0.89935869303E+02 0.  0.
        -11    1    1    2    0    0 -0.11363886065E+01  0.15512610777E+01 -0.20778016433E+01  0.28310863048E+01  0.00000000000E+00 0.  1.
         11    1    1    2    0    0  0.77954504285E+01 -0.39445384709E+01 -0.49343423845E+03  0.49351157647E+03  0.00000000000E+00 0. -1.
        -15    1    3    3    0    0 -0.27194013244E+02 -0.32372177183E+02  0.15215019128E+03  0.15792501590E+03  0.17770000000E+01 0. -1.
         15    1    3    3    0    0  0.20534951422E+02  0.34765454576E+02  0.34336184881E+03  0.34573232133E+03  0.17770000000E+01 0.  1.
</event>
<event>
 7    1  0.2187028E-004  0.4212009E+03  0.7546771E-02  0.9595753E-01
        -11   -1    0    0    0    0  0.00000000000E+00  0.00000000000E+00  0.50000000000E+03  0.50000000000E+03  0.00000000000E+00 0.  1.
         11   -1    0    0    0    0 -0.00000000000E+00 -0.00000000000E+00 -0.50000000000E+03  0.50000000000E+03  0.00000000000E+00 0.  1.
         23    2    1    2    0    0  0.93146281524E+02  0.51705489764E+02 -0.34702536286E+01  0.15088133346E+03  0.10678692192E+03 0.  0.
        -11    1    1    2    0    0 -0.76271944657E+02 -0.57033950374E+02  0.42078535603E+03  0.43142855363E+03  0.00000000000E+00 0.  1.
         11    1    1    2    0    0 -0.16874336867E+02  0.53284606099E+01 -0.41731510240E+03  0.41769011291E+03  0.00000000000E+00 0.  1.
        -15    1    3    3    0    0  0.82374389273E+02  0.65501177964E+02  0.33066934580E+02  0.11032916303E+03  0.17770000000E+01 0.  1.
         15    1    3    3    0    0  0.10771892251E+02 -0.13795688200E+02 -0.36537188208E+02  0.40552170432E+02  0.17770000000E+01 0. -1.
</event>
<event>
 7    1  0.2187028E-004  0.5133409E+03  0.7546771E-02  0.9370444E-01
        -11   -1    0    0    0    0  0.00000000000E+00  0.00000000000E+00  0.50000000000E+03  0.50000000000E+03  0.00000000000E+00 0. -1.
         11   -1    0    0    0    0 -0.00000000000E+00 -0.00000000000E+00 -0.50000000000E+03  0.50000000000E+03  0.00000000000E+00 0. -1.
         23    2    1    2    0    0  0.48456701795E+02 -0.70219546928E+02 -0.16686422487E+03  0.20038217522E+03  0.70926087476E+02 0.  0.
        -11    1    1    2    0    0 -0.42556356653E+02  0.69641544946E+02  0.47976674785E+03  0.48665914213E+03  0.00000000000E+00 0. -1.
         11    1    1    2    0    0 -0.59003451415E+01  0.57800198161E+00 -0.31290252298E+03  0.31295868265E+03  0.00000000000E+00 0. -1.
        -15    1    3    3    0    0  0.34151653766E+02 -0.42989579496E+02 -0.15951352591E+03  0.16870732668E+03  0.17770000000E+01 0. -1.
         15    1    3    3    0    0  0.14305048028E+02 -0.27229967432E+02 -0.73506989599E+01  0.31674848534E+02  0.17770000000E+01 0.  1.
</event>
<event>
 7    1  0.2187028E-004  0.4780934E+03  0.7546771E-02  0.9450207E-01
        -11   -1    0    0    0    0  0.00000000000E+00  0.00000000000E+00  0.50000000000E+03  0.50000000000E+03  0.00000000000E+00 0.  1.
         11   -1    0    0    0    0 -0.00000000000E+00 -0.00000000000E+00 -0.50000000000E+03  0.50000000000E+03  0.00000000000E+00 0. -1.
         23    2    1    2    0    0 -0.20217168891E+02 -0.75254172414E+02  0.47153963747E+03  0.48552610839E+03  0.85522206651E+02 0.  0.
        -11    1    1    2    0    0  0.21223937815E+02  0.44731860518E+02 -0.82684526125E+01  0.50197232896E+02  0.00000000000E+00 0.  1.
         11    1    1    2    0    0 -0.10067689243E+01  0.30522311896E+02 -0.46327118486E+03  0.46427665872E+03  0.00000000000E+00 0. -1.
        -15    1    3    3    0    0  0.33049989652E+02 -0.19781285298E+02  0.14386433878E+03  0.14894195771E+03  0.17770000000E+01 0. -1.
         15    1    3    3    0    0 -0.53267158543E+02 -0.55472887117E+02  0.32767529869E+03  0.33658415067E+03  0.17770000000E+01 0.  1.
</event>
<event>
 7    1  0.2187028E-004  0.4897543E+03  0.7546771E-02  0.9423032E-01
        -11   -1    0    0    0    0  0.00000000000E+00  0.00000000000E+00  0.50000000000E+03  0.50000000000E+03  0.00000000000E+00 0.  1.
         11   -1    0    0    0    0 -0.00000000000E+00 -0.00000000000E+00 -0.50000000000E+03  0.50000000000E+03  0.00000000000E+00 0. -1.
         23    2    1    2    0    0  0.21718401574E+02  0.15671683369E+02  0.48730355960E+03  0.49576814652E+03  0.87200947661E+02 0.  0.
        -11    1    1    2    0    0 -0.24595098291E+02 -0.71975067820E+01 -0.11071909961E+02  0.27916127131E+02  0.00000000000E+00 0.  1.
         11    1    1    2    0    0  0.28766967171E+01 -0.84741765868E+01 -0.47623164964E+03  0.47631572635E+03  0.00000000000E+00 0. -1.
        -15    1    3    3    0    0 -0.26404109816E+02  0.11693398326E+02  0.70981613140E+02  0.76651547359E+02  0.17770000000E+01 0. -1.
         15    1    3    3    0    0  0.48122511390E+02  0.39782850424E+01  0.41632194646E+03  0.41911659916E+03  0.17770000000E+01 0.  1.
</event>
<event>
 7    1  0.2187028E-004  0.4339004E+03  0.7546771E-02  0.9561220E-01
        -11   -1    0    0    0    0  0.00000000000E+00  0.00000000000E+00  0.50000000000E+03  0.50000000000E+03  0.00000000000E+00 0.  1.
         11   -1    0    0    0    0 -0.00000000000E+00 -0.00000000000E+00 -0.50000000000E+03  0.50000000000E+03  0.00000000000E+00 0.  1.
         23    2    1    2    0    0  0.17266758094E+02 -0.45031156624E+02  0.88410128422E+01  0.13081518667E+03  0.12127861952E+03 0.  0.
        -11    1    1    2    0    0 -0.30866888227E+02  0.38627360873E+02  0.42862152449E+03  0.43146407620E+03  0.00000000000E+00 0.  1.
         11    1    1    2    0    0  0.13600130133E+02  0.64037957519E+01 -0.43746253733E+03  0.43772073713E+03  0.00000000000E+00 0.  1.
        -15    1    3    3    0    0  0.43149352698E+02 -0.60055554165E+02  0.42844236244E+02  0.85482878594E+02  0.17770000000E+01 0.  1.
         15    1    3    3    0    0 -0.25882594604E+02  0.15024397540E+02 -0.34003223402E+02  0.45332308078E+02  0.17770000000E+01 0. -1.
</event>
<event>
 7    1  0.2187028E-004  0.4807064E+03  0.7546771E-02  0.9444046E-01
        -11   -1    0    0    0    0  0.00000000000E+00  0.00000000000E+00  0.50000000000E+03  0.50000000000E+03  0.00000000000E+00 0.  1.
         11   -1    0    0    0    0 -0.00000000000E+00 -0.00000000000E+00 -0.50000000000E+03  0.50000000000E+03  0.00000000000E+00 0.  1.
         23    2    1    2    0    0  0.34474878555E+02 -0.29420485147E+02  0.45463824199E+03  0.46552230146E+03  0.89224435456E+02 0.  0.
        -11    1    1    2    0    0 -0.15052215863E+02  0.27293908257E+02  0.33610152435E+02  0.45838509761E+02  0.00000000000E+00 0.  1.
         11    1    1    2    0    0 -0.19422662692E+02  0.21265768896E+01 -0.48824839442E+03  0.48863918878E+03  0.00000000000E+00 0.  1.
        -15    1    3    3    0    0  0.39646417249E+01 -0.33642091339E+02  0.40917724124E+03  0.41058090697E+03  0.17770000000E+01 0.  1.
         15    1    3    3    0    0  0.30510236830E+02  0.42216061923E+01  0.45461000748E+02  0.54941394488E+02  0.17770000000E+01 0. -1.
</event>
<event>
 7    1  0.2187028E-004  0.4555617E+03  0.7546771E-02  0.9505131E-01
        -11   -1    0    0    0    0  0.00000000000E+00  0.00000000000E+00  0.50000000000E+03  0.50000000000E+03  0.00000000000E+00 0.  1.
         11   -1    0    0    0    0 -0.00000000000E+00 -0.00000000000E+00 -0.50000000000E+03  0.50000000000E+03  0.00000000000E+00 0. -1.
         23    2    1    2    0    0 -0.20345978156E+02 -0.44845298613E+02 -0.39793358569E+03  0.41179714917E+03  0.93812013152E+02 0.  0.
        -11    1    1    2    0    0  0.29705616617E+02  0.48109503452E+02  0.49118372261E+03  0.49442734283E+03  0.00000000000E+00 0.  1.
         11    1    1    2    0    0 -0.93596384607E+01 -0.32642048382E+01 -0.93250136921E+02  0.93775508003E+02  0.00000000000E+00 0. -1.
        -15    1    3    3    0    0  0.26355389772E+02 -0.52271540346E+02 -0.22714705747E+03  0.23457592363E+03  0.17770000000E+01 0.  1.
         15    1    3    3    0    0 -0.46701367928E+02  0.74262417323E+01 -0.17078652821E+03  0.17722122554E+03  0.17770000000E+01 0. -1.
</event>
<event>
 7    1  0.2187028E-004  0.4706580E+03  0.7546771E-02  0.9467969E-01
        -11   -1    0    0    0    0  0.00000000000E+00  0.00000000000E+00  0.50000000000E+03  0.50000000000E+03  0.00000000000E+00 0.  1.
         11   -1    0    0    0    0 -0.00000000000E+00 -0.00000000000E+00 -0.50000000000E+03  0.50000000000E+03  0.00000000000E+00 0. -1.
         23    2    1    2    0    0  0.28011578438E+02 -0.44278481440E+02  0.43680286292E+03  0.44910626673E+03  0.90302078149E+02 0.  0.
        -11    1    1    2    0    0 -0.43093801839E+02  0.11178217906E+02  0.47572229408E+02  0.65154779743E+02  0.00000000000E+00 0.  1.
         11    1    1    2    0    0  0.15082223401E+02  0.33100263534E+02 -0.48437509233E+03  0.48573895353E+03  0.00000000000E+00 0. -1.
        -15    1    3    3    0    0 -0.32218774889E+02 -0.16214965809E+02  0.19591639537E+03  0.19921688251E+03  0.17770000000E+01 0. -1.
         15    1    3    3    0    0  0.60230353327E+02 -0.28063515631E+02  0.24088646754E+03  0.24988938422E+03  0.17770000000E+01 0.  1.
</event>
<event>
 7    1  0.2187028E-004  0.4581879E+03  0.7546771E-02  0.9498557E-01
        -11   -1    0    0    0    0  0.00000000000E+00  0.00000000000E+00  0.50000000000E+03  0.50000000000E+03  0.00000000000E+00 0. -1.
         11   -1    0    0    0    0 -0.00000000000E+00 -0.00000000000E+00 -0.50000000000E+03  0.50000000000E+03  0.00000000000E+00 0. -1.
         23    2    1    2    0    0 -0.52755872782E+02 -0.72537887153E+02  0.45733567070E+03  0.47497711932E+03  0.91664720559E+02 0.  0.
        -11    1    1    2    0    0  0.39297126765E+02  0.76519449184E+02 -0.21111598818E+02  0.88573076497E+02  0.00000000000E+00 0. -1.
         11    1    1    2    0    0  0.13458746016E+02 -0.39815620312E+01 -0.43622407188E+03  0.43644980418E+03  0.00000000000E+00 0. -1.
        -15    1    3    3    0    0  0.15128675011E+02  0.54922918784E+01  0.14625988000E+03  0.14715349912E+03  0.17770000000E+01 0.  1.
         15    1    3    3    0    0 -0.67884547792E+02 -0.78030179031E+02  0.31107579070E+03  0.32782362020E+03  0.17770000000E+01 0. -1.
</event>
<event>
 7    1  0.2187028E-004  0.4397781E+03  0.7546771E-02  0.9545661E-01
        -11   -1    0    0    0    0  0.00000000000E+00  0.00000000000E+00  0.50000000000E+03  0.50000000000E+03  0.00000000000E+00 0.  1.
         11   -1    0    0    0    0 -0.00000000000E+00 -0.00000000000E+00 -0.50000000000E+03  0.50000000000E+03  0.00000000000E+00 0. -1.
         23    2    1    2    0    0 -0.70768837998E+02  0.33976655125E+02  0.27142957170E+02  0.11653041387E+03  0.81730996007E+02 0.  0.
        -11    1    1    2    0    0  0.22256737196E+02 -0.71016571745E+02  0.42285344142E+03  0.42935270900E+03  0.00000000000E+00 0.  1.
         11    1    1    2    0    0  0.48512100802E+02  0.37039916620E+02 -0.44999639859E+03  0.45411687712E+03  0.00000000000E+00 0. -1.
        -15    1    3    3    0    0 -0.17915185598E+02  0.51345508024E+02 -0.43169616605E+00  0.54411939498E+02  0.17770000000E+01 0.  1.
         15    1    3    3    0    0 -0.52853652400E+02 -0.17368852899E+02  0.27574653336E+02  0.62118474375E+02  0.17770000000E+01 0. -1.
</event>
<event>
 7    1  0.2187028E-004  0.5310887E+03  0.7546771E-02  0.9332813E-01
        -11   -1    0    0    0    0  0.00000000000E+00  0.00000000000E+00  0.50000000000E+03  0.50000000000E+03  0.00000000000E+00 0.  1.
         11   -1    0    0    0    0 -0.00000000000E+00 -0.00000000000E+00 -0.50000000000E+03  0.50000000000E+03  0.00000000000E+00 0.  1.
         23    2    1    2    0    0 -0.26658713538E+02 -0.31624600918E+02 -0.86446677528E+02  0.15101155053E+03  0.11670757451E+03 0.  0.
        -11    1    1    2    0    0  0.34074908590E+02  0.33849723859E+02  0.46644495767E+03  0.46891129410E+03  0.00000000000E+00 0.  1.
         11    1    1    2    0    0 -0.74161950521E+01 -0.22251229408E+01 -0.37999828014E+03  0.38007715537E+03  0.00000000000E+00 0.  1.
        -15    1    3    3    0    0 -0.18125079325E+02 -0.73816278509E+02 -0.34408122533E+02  0.83453209038E+02  0.17770000000E+01 0.  1.
         15    1    3    3    0    0 -0.85336342126E+01  0.42191677591E+02 -0.52038554995E+02  0.67558341497E+02  0.17770000000E+01 0. -1.
</event>
<event>
 7    1  0.2187028E-004  0.5150621E+03  0.7546771E-02  0.9366724E-01
        -11   -1    0    0    0    0  0.00000000000E+00  0.00000000000E+00  0.50000000000E+03  0.50000000000E+03  0.00000000000E+00 0.  1.
         11   -1    0    0    0    0 -0.00000000000E+00 -0.00000000000E+00 -0.50000000000E+03  0.50000000000E+03  0.00000000000E+00 0. -1.
         23    2    1    2    0    0 -0.55484587628E+02 -0.37236017172E+01  0.39599122468E+03  0.41009465008E+03  0.90973442965E+02 0.  0.
        -11    1    1    2    0    0  0.55467569631E+02 -0.72026440388E+01  0.88823593963E+02  0.10496742450E+03  0.00000000000E+00 0.  1.
         11    1    1    2    0    0  0.17017997793E-01  0.10926245756E+02 -0.48481481864E+03  0.48493792542E+03  0.00000000000E+00 0. -1.
        -15    1    3    3    0    0 -0.22420533954E+02 -0.22626750349E+02  0.34475830637E+03  0.34623127778E+03  0.17770000000E+01 0.  1.
         15    1    3    3    0    0 -0.33064053674E+02  0.18903148631E+02  0.51232918313E+02  0.63863372299E+02  0.17770000000E+01 0. -1.
</event>
<event>
 7    1  0.2187028E-004  0.4759502E+03  0.7546771E-02  0.9455292E-01
        -11   -1    0    0    0    0  0.00000000000E+00  0.00000000000E+00  0.50000000000E+03  0.50000000000E+03  0.00000000000E+00 0. -1.
         11   -1    0    0    0    0 -0.00000000000E+00 -0.00000000000E+00 -0.50000000000E+03  0.50000000000E+03  0.00000000000E+00 0. -1.
         23    2    1    2    0    0  0.75761603243E+02  0.20213586687E+02  0.43684745505E+03  0.45333480327E+03  0.92348986230E+02 0.  0.
        -11    1    1    2    0    0 -0.98840365555E+01  0.26815505045E+02  0.47590166333E+02  0.55512065545E+02  0.00000000000E+00 0. -1.
         11    1    1    2    0    0 -0.65877566687E+02 -0.47029091733E+02 -0.48443762138E+03  0.49115313119E+03  0.00000000000E+00 0. -1.
        -15    1    3    3    0    0  0.87436995686E+02  0.39554309159E+02  0.38437442570E+03  0.39617752138E+03  0.17770000000E+01 0. -1.
         15    1    3    3    0    0 -0.11675392443E+02 -0.19340722471E+02  0.52473029353E+02  0.57157281888E+02  0.17770000000E+01 0.  1.
</event>
<event>
 7    1  0.2187028E-004  0.4930027E+03  0.7546771E-02  0.9415604E-01
        -11   -1    0    0    0    0  0.00000000000E+00  0.00000000000E+00  0.50000000000E+03  0.50000000000E+03  0.00000000000E+00 0. -1.
         11   -1    0    0    0    0 -0.00000000000E+00 -0.00000000000E+00 -0.50000000000E+03  0.50000000000E+03  0.00000000000E+00 0. -1.
         23    2    1    2    0    0 -0.26594395980E+02  0.10574822184E+02  0.48527688326E+03  0.49437025233E+03  0.89940003333E+02 0.  0.
        -11    1    1    2    0    0 -0.21570433596E+02  0.13415213488E+01 -0.42192723622E+01  0.22020116810E+02  0.00000000000E+00 0. -1.
         11    1    1    2    0    0  0.48164829575E+02 -0.11916343533E+02 -0.48105761090E+03  0.48360963086E+03  0.00000000000E+00 0. -1.
        -15    1    3    3    0    0 -0.19434841683E+02 -0.20286801233E+02  0.45868727515E+02  0.53817889854E+02  0.17770000000E+01 0.  1.
         15    1    3    3    0    0 -0.71595542966E+01  0.30861623417E+02  0.43940815575E+03  0.44055236248E+03  0.17770000000E+01 0. -1.
</event>
<event>
 7    1  0.2187028E-004  0.5040356E+03  0.7546771E-02  0.9390825E-01
        -11   -1    0    0    0    0  0.00000000000E+00  0.00000000000E+00  0.50000000000E+03  0.50000000000E+03  0.00000000000E+00 0. -1.
         11   -1    0    0    0    0 -0.00000000000E+00 -0.00000000000E+00 -0.50000000000E+03  0.50000000000E+03  0.00000000000E+00 0.  1.
         23    2    1    2    0    0 -0.14052209482E+02  0.55758110834E+01  0.49546844986E+03  0.50403557153E+03  0.91292487625E+02 0.  0.
        -11    1    1    2    0    0  0.43883790097E+01 -0.28224722691E+01 -0.35040031042E+02  0.35426374292E+02  0.00000000000E+00 0. -1.
         11    1    1    2    0    0  0.96638304722E+01 -0.27533388143E+01 -0.46042841882E+03  0.46053805418E+03  0.00000000000E+00 0.  1.
        -15    1    3    3    0    0 -0.20249212602E+02  0.38849435824E+02  0.13420704165E+03  0.14118780766E+03  0.17770000000E+01 0.  1.
         15    1    3    3    0    0  0.61970031197E+01 -0.33273624740E+02  0.36126140821E+03  0.36284776387E+03  0.17770000000E+01 0. -1.
</event>
<event>
 7    1  0.2187028E-004  0.4930869E+03  0.7546771E-02  0.9415412E-01
        -11   -1    0    0    0    0  0.00000000000E+00  0.00000000000E+00  0.50000000000E+03  0.50000000000E+03  0.00000000000E+00 0.  1.
         11   -1    0    0    0    0 -0.00000000000E+00 -0.00000000000E+00 -0.50000000000E+03  0.50000000000E+03  0.00000000000E+00 0. -1.
         23    2    1    2    0    0  0.24566978399E+02  0.86675112331E+00  0.48063433674E+03  0.49049626324E+03  0.94725555784E+02 0.  0.
        -11    1    1    2    0    0 -0.13589111194E+02  0.17339934176E+02  0.56592420495E+01  0.22745643118E+02  0.00000000000E+00 0.  1.
         11    1    1    2    0    0 -0.10977867205E+02 -0.18206685299E+02 -0.48629357879E+03  0.48675809364E+03  0.00000000000E+00 0. -1.
        -15    1    3    3    0    0  0.18987578150E+02  0.12294038745E+02  0.47645219935E+03  0.47699216714E+03  0.17770000000E+01 0.  1.
         15    1    3    3    0    0  0.55794002489E+01 -0.11427287621E+02  0.41821373840E+01  0.13504096105E+02  0.17770000000E+01 0. -1.
</event>
<event>
 7    1  0.2187028E-004  0.5372705E+03  0.7546771E-02  0.9320071E-01
        -11   -1    0    0    0    0  0.00000000000E+00  0.00000000000E+00  0.50000000000E+03  0.50000000000E+03  0.00000000000E+00 0. -1.
         11   -1    0    0    0    0 -0.00000000000E+00 -0.00000000000E+00 -0.50000000000E+03  0.50000000000E+03  0.00000000000E+00 0.  1.
         23    2    1    2    0    0  0.11156348845E+03  0.27830962552E+02  0.31312233794E+03  0.34587046997E+03  0.91431991394E+02 0.  0.
        -11    1    1    2    0    0 -0.11754927504E+03 -0.21416988913E+02  0.14952402971E+03  0.19139998678E+03  0.00000000000E+00 0. -1.
         11    1    1    2    0    0  0.59857865904E+01 -0.64139736386E+01 -0.46264636765E+03  0.46272954325E+03  0.00000000000E+00 0.  1.
        -15    1    3    3    0    0  0.10840348178E+03  0.24542432574E+02  0.17282589473E+03  0.20548866995E+03  0.17770000000E+01 0.  1.
         15    1    3    3    0    0  0.31600066689E+01  0.32885299781E+01  0.14029644321E+03  0.14038180002E+03  0.17770000000E+01 0. -1.
</event>
<event>
 7    1  0.2187028E-004  0.5076983E+03  0.7546771E-02  0.9382747E-01
        -11   -1    0    0    0    0  0.00000000000E+00  0.00000000000E+00  0.50000000000E+03  0.50000000000E+03  0.00000000000E+00 0.  1.
         11   -1    0    0    0    0 -0.00000000000E+00 -0.00000000000E+00 -0.50000000000E+03  0.50000000000E+03  0.00000000000E+00 0. -1.
         23    2    1    2    0    0 -0.29017215069E+02  0.13136974822E+02  0.40093465330E+03  0.41263941148E+03  0.92239410300E+02 0.  0.
        -11    1    1    2    0    0  0.25805004797E+02 -0.58425173504E+01  0.91302544591E+02  0.95058865606E+02  0.00000000000E+00 0.  1.
         11    1    1    2    0    0  0.32122102715E+01 -0.72944574718E+01 -0.49223719789E+03  0.49230172292E+03  0.00000000000E+00 0. -1.
        -15    1    3    3    0    0 -0.16180959157E+02 -0.28529486612E+02  0.31045172009E+03  0.31218453402E+03  0.17770000000E+01 0.  1.
         15    1    3    3    0    0 -0.12836255912E+02  0.41666461434E+02  0.90482933209E+02  0.10045487746E+03  0.17770000000E+01 0. -1.
</event>
<event>
 7    1  0.2187028E-004  0.5098169E+03  0.7546771E-02  0.9378108E-01
        -11   -1    0    0    0    0  0.00000000000E+00  0.00000000000E+00  0.50000000000E+03  0.50000000000E+03  0.00000000000E+00 0.  1.
         11   -1    0    0    0    0 -0.00000000000E+00 -0.00000000000E+00 -0.50000000000E+03  0.50000000000E+03  0.00000000000E+00 0.  1.
         23    2    1    2    0    0  0.89003588980E+02  0.14593707107E+02 -0.33361948004E+03  0.36004911351E+03  0.10098906643E+03 0.  0.
        -11    1    1    2    0    0 -0.82313647307E+02 -0.90979033781E+01  0.48313680066E+03  0.49018310510E+03  0.00000000000E+00 0.  1.
         11    1    1    2    0    0 -0.66899416731E+01 -0.54958037287E+01 -0.14951732061E+03  0.14976778139E+03  0.00000000000E+00 0.  1.
        -15    1    3    3    0    0  0.64836853471E+02 -0.38654822230E+02 -0.21308433003E+03  0.22606658816E+03  0.17770000000E+01 0.  1.
         15    1    3    3    0    0  0.24166735510E+02  0.53248529336E+02 -0.12053515002E+03  0.13398252535E+03  0.17770000000E+01 0. -1.
</event>
<event>
 7    1  0.2187028E-004  0.5009424E+03  0.7546771E-02  0.9397704E-01
        -11   -1    0    0    0    0  0.00000000000E+00  0.00000000000E+00  0.50000000000E+03  0.50000000000E+03  0.00000000000E+00 0. -1.
         11   -1    0    0    0    0 -0.00000000000E+00 -0.00000000000E+00 -0.50000000000E+03  0.50000000000E+03  0.00000000000E+00 0.  1.
         23    2    1    2    0    0 -0.27059788140E+00  0.74314487851E+01  0.49266323887E+03  0.50094238058E+03  0.90393042217E+02 0.  0.
        -11    1    1    2    0    0  0.64344033935E+01 -0.97782301113E+01 -0.76146162092E+01  0.13964158090E+02  0.00000000000E+00 0. -1.
         11    1    1    2    0    0 -0.61638055121E+01  0.23467813262E+01 -0.48504862266E+03  0.48509346133E+03  0.00000000000E+00 0.  1.
        -15    1    3    3    0    0  0.21842973063E+02  0.37274222904E+02  0.14537864622E+03  0.15167264641E+03  0.17770000000E+01 0.  1.
         15    1    3    3    0    0 -0.22113570944E+02 -0.29842774119E+02  0.34728459265E+03  0.34926973417E+03  0.17770000000E+01 0. -1.
</event>
<event>
 7    1  0.2187028E-004  0.4357823E+03  0.7546771E-02  0.9556210E-01
        -11   -1    0    0    0    0  0.00000000000E+00  0.00000000000E+00  0.50000000000E+03  0.50000000000E+03  0.00000000000E+00 0. -1.
         11   -1    0    0    0    0 -0.00000000000E+00 -0.00000000000E+00 -0.50000000000E+03  0.50000000000E+03  0.00000000000E+00 0. -1.
         23    2    1    2    0    0 -0.64208451873E+02  0.58184143980E+02  0.28625044405E+02  0.12367102310E+03  0.83468610183E+02 0.  0.
        -11    1    1    2    0    0  0.49023457765E+02 -0.75477102416E+02  0.41877521085E+03  0.42833721485E+03  0.00000000000E+00 0. -1.
         11    1    1    2    0    0  0.15184994109E+02  0.17292958436E+02 -0.44740025526E+03  0.44799176205E+03  0.00000000000E+00 0. -1.
        -15    1    3    3    0    0 -0.58993863837E+02  0.21089731305E+02  0.50293729370E+02  0.80359627176E+02  0.17770000000E+01 0. -1.
         15    1    3    3    0    0 -0.52145880365E+01  0.37094412675E+02 -0.21668684966E+02  0.43311395928E+02  0.17770000000E+01 0.  1.
</event>
<event>
 7    1  0.2187028E-004  0.4272135E+03  0.7546771E-02  0.9579244E-01
        -11   -1    0    0    0    0  0.00000000000E+00  0.00000000000E+00  0.50000000000E+03  0.50000000000E+03  0.00000000000E+00 0.  1.
         11   -1    0    0    0    0 -0.00000000000E+00 -0.00000000000E+00 -0.50000000000E+03  0.50000000000E+03  0.00000000000E+00 0. -1.
         23    2    1    2    0    0  0.77204040312E+02  0.65483204882E+02  0.13213723113E+02  0.13949517012E+03  0.95056751719E+02 0.  0.
        -11    1    1    2    0    0 -0.53361410103E+02 -0.64750409974E+02  0.41915912469E+03  0.42747447584E+03  0.00000000000E+00 0.  1.
         11    1    1    2    0    0 -0.23842630208E+02 -0.73279490796E+00 -0.43237284780E+03  0.43303035404E+03  0.00000000000E+00 0. -1.
        -15    1    3    3    0    0  0.49667671122E+02  0.20222268087E+02  0.51291060782E+02  0.74227678978E+02  0.17770000000E+01 0.  1.
         15    1    3    3    0    0  0.27536369189E+02  0.45260936795E+02 -0.38077337668E+02  0.65267491147E+02  0.17770000000E+01 0. -1.
</event>
<event>
 7    1  0.2187028E-004  0.5016134E+03  0.7546771E-02  0.9396207E-01
        -11   -1    0    0    0    0  0.00000000000E+00  0.00000000000E+00  0.50000000000E+03  0.50000000000E+03  0.00000000000E+00 0. -1.
         11   -1    0    0    0    0 -0.00000000000E+00 -0.00000000000E+00 -0.50000000000E+03  0.50000000000E+03  0.00000000000E+00 0.  1.
         23    2    1    2    0    0  0.13763322101E+02 -0.27999072568E+02  0.49209946488E+03  0.50161344363E+03  0.92091185255E+02 0.  0.
        -11    1    1    2    0    0 -0.47167071735E+01 -0.10695895011E+02 -0.12390595793E+02  0.17034563709E+02  0.00000000000E+00 0. -1.
         11    1    1    2    0    0 -0.90466149279E+01  0.38694967579E+02 -0.47970886908E+03  0.48135199266E+03  0.00000000000E+00 0.  1.
        -15    1    3    3    0    0 -0.15553050387E+00  0.29970467165E+02  0.84542625247E+02  0.89715474164E+02  0.17770000000E+01 0.  1.
         15    1    3    3    0    0  0.13918852605E+02 -0.57969539733E+02  0.40755683963E+03  0.41189796947E+03  0.17770000000E+01 0. -1.
</event>
<event>
 7    1  0.2187028E-004  0.5264060E+03  0.7546771E-02  0.9342588E-01
        -11   -1    0    0    0    0  0.00000000000E+00  0.00000000000E+00  0.50000000000E+03  0.50000000000E+03  0.00000000000E+00 0.  1.
         11   -1    0    0    0    0 -0.00000000000E+00 -0.00000000000E+00 -0.50000000000E+03  0.50000000000E+03  0.00000000000E+00 0.  1.
         23    2    1    2    0    0  0.32270010291E+02 -0.47386138677E+02  0.86176508483E+02  0.13456390691E+03  0.85989852460E+02 0.  0.
        -11    1    1    2    0    0 -0.38887522873E+02  0.44480126301E+02  0.38736228990E+03  0.39184214259E+03  0.00000000000E+00 0.  1.
         11    1    1    2    0    0  0.66175125822E+01  0.29060123754E+01 -0.47353879838E+03  0.47359395050E+03  0.00000000000E+00 0.  1.
        -15    1    3    3    0    0  0.43486773458E+02 -0.19490198363E+02  0.49631121526E+01  0.47945359622E+02  0.17770000000E+01 0.  1.
         15    1    3    3    0    0 -0.11216763168E+02 -0.27895940314E+02  0.81213396330E+02  0.86618547289E+02  0.17770000000E+01 0. -1.
</event>
<event>
 7    1  0.2187028E-004  0.5040850E+03  0.7546771E-02  0.9390715E-01
        -11   -1    0    0    0    0  0.00000000000E+00  0.00000000000E+00  0.50000000000E+03  0.50000000000E+03  0.00000000000E+00 0. -1.
         11   -1    0    0    0    0 -0.00000000000E+00 -0.00000000000E+00 -0.50000000000E+03  0.50000000000E+03  0.00000000000E+00 0.  1.
         23    2    1    2    0    0  0.97916733459E+01  0.15698040655E+02  0.49540335047E+03  0.50408500090E+03  0.91295690609E+02 0.  0.
        -11    1    1    2    0    0 -0.99864148146E+01 -0.73650945625E+01 -0.19400979283E+03  0.19440620570E+03  0.00000000000E+00 0.  1.
         11    1    1    2    0    0  0.19474146870E+00 -0.83329460924E+01 -0.30139355764E+03  0.30150879340E+03  0.00000000000E+00 0. -1.
        -15    1    3    3    0    0  0.34262846953E+02  0.43824364727E+02  0.31131454078E+03  0.31625056309E+03  0.17770000000E+01 0.  1.
         15    1    3    3    0    0 -0.24471173607E+02 -0.28126324072E+02  0.18408880969E+03  0.18783443780E+03  0.17770000000E+01 0. -1.
</event>
<event>
 7    1  0.2187028E-004  0.5122612E+03  0.7546771E-02  0.9372785E-01
        -11   -1    0    0    0    0  0.00000000000E+00  0.00000000000E+00  0.50000000000E+03  0.50000000000E+03  0.00000000000E+00 0. -1.
         11   -1    0    0    0    0 -0.00000000000E+00 -0.00000000000E+00 -0.50000000000E+03  0.50000000000E+03  0.00000000000E+00 0.  1.
         23    2    1    2    0    0  0.13802551120E+02 -0.69845529222E+01 -0.15304494313E+03  0.17778501822E+03  0.89137330493E+02 0.  0.
        -11    1    1    2    0    0 -0.21654528516E+02 -0.42877547356E+01  0.48723894278E+03  0.48773875262E+03  0.00000000000E+00 0. -1.
         11    1    1    2    0    0  0.78519773956E+01  0.11272307658E+02 -0.33419399965E+03  0.33447622916E+03  0.00000000000E+00 0.  1.
        -15    1    3    3    0    0  0.31129146979E+02 -0.17336464031E+01 -0.15622661123E+03  0.15931710864E+03  0.17770000000E+01 0.  1.
         15    1    3    3    0    0 -0.17326595859E+02 -0.52509065191E+01  0.31816680928E+01  0.18467909578E+02  0.17770000000E+01 0. -1.
</event>
<event>
 7    1  0.2187028E-004  0.4859043E+03  0.7546771E-02  0.9431914E-01
        -11   -1    0    0    0    0  0.00000000000E+00  0.00000000000E+00  0.50000000000E+03  0.50000000000E+03  0.00000000000E+00 0.  1.
         11   -1    0    0    0    0 -0.00000000000E+00 -0.00000000000E+00 -0.50000000000E+03  0.50000000000E+03  0.00000000000E+00 0.  1.
         23    2    1    2    0    0  0.10749971675E+02  0.98735549998E+01  0.46555719882E+03  0.47447585346E+03  0.90392373380E+02 0.  0.
        -11    1    1    2    0    0  0.19010126046E+02 -0.20196075010E+02  0.22951756615E+02  0.36000687074E+02  0.00000000000E+00 0.  1.
         11    1    1    2    0    0 -0.29760097721E+02  0.10322520010E+02 -0.48850895543E+03  0.48952345947E+03  0.00000000000E+00 0.  1.
        -15    1    3    3    0    0  0.13165216361E+01 -0.21699631623E+02  0.27141439472E+02  0.34819860819E+02  0.17770000000E+01 0. -1.
         15    1    3    3    0    0  0.94334500394E+01  0.31573186623E+02  0.43841575934E+03  0.43965599264E+03  0.17770000000E+01 0.  1.
</event>
<event>
 7    1  0.2187028E-004  0.5339688E+03  0.7546771E-02  0.9326854E-01
        -11   -1    0    0    0    0  0.00000000000E+00  0.00000000000E+00  0.50000000000E+03  0.50000000000E+03  0.00000000000E+00 0. -1.
         11   -1    0    0    0    0 -0.00000000000E+00 -0.00000000000E+00 -0.50000000000E+03  0.50000000000E+03  0.00000000000E+00 0. -1.
         23    2    1    2    0    0 -0.16095655456E+03  0.17790716426E+03  0.16468436291E+02  0.25702470555E+03  0.90733226116E+02 0.  0.
        -11    1    1    2    0    0  0.36320776443E+03 -0.24365343646E+03  0.16092916840E+03  0.46603119475E+03  0.00000000000E+00 0. -1.
         11    1    1    2    0    0 -0.20225120987E+03  0.65746272204E+02 -0.17739760469E+03  0.27694409969E+03  0.00000000000E+00 0. -1.
        -15    1    3    3    0    0 -0.10366269574E+03  0.15563546995E+03 -0.15624098785E+02  0.18765826437E+03  0.17770000000E+01 0. -1.
         15    1    3    3    0    0 -0.57293858820E+02  0.22271694306E+02  0.32092535076E+02  0.69366441183E+02  0.17770000000E+01 0.  1.
</event>
<event>
 7    1  0.2187028E-004  0.4980588E+03  0.7546771E-02  0.9404164E-01
        -11   -1    0    0    0    0  0.00000000000E+00  0.00000000000E+00  0.50000000000E+03  0.50000000000E+03  0.00000000000E+00 0.  1.
         11   -1    0    0    0    0 -0.00000000000E+00 -0.00000000000E+00 -0.50000000000E+03  0.50000000000E+03  0.00000000000E+00 0. -1.
         23    2    1    2    0    0 -0.25125089510E+01  0.11057396412E+02  0.49102336042E+03  0.49960906974E+03  0.91524332095E+02 0.  0.
        -11    1    1    2    0    0 -0.37888567884E+01  0.11162839486E+02 -0.34666651190E+01  0.12287480954E+02  0.00000000000E+00 0.  1.
         11    1    1    2    0    0  0.63013657395E+01 -0.22220235897E+02 -0.48755669530E+03  0.48810344931E+03  0.00000000000E+00 0. -1.
        -15    1    3    3    0    0 -0.43460431897E+02  0.53306116106E+01  0.34705112480E+03  0.34980689747E+03  0.17770000000E+01 0.  1.
         15    1    3    3    0    0  0.40947922946E+02  0.57267848010E+01  0.14397223562E+03  0.14980217227E+03  0.17770000000E+01 0. -1.
</event>
<event>
 7    1  0.2187028E-004  0.5310143E+03  0.7546771E-02  0.9332968E-01
        -11   -1    0    0    0    0  0.00000000000E+00  0.00000000000E+00  0.50000000000E+03  0.50000000000E+03  0.00000000000E+00 0.  1.
         11   -1    0    0    0    0 -0.00000000000E+00 -0.00000000000E+00 -0.50000000000E+03  0.50000000000E+03  0.00000000000E+00 0.  1.
         23    2    1    2    0    0  0.27419401594E+02  0.34040169170E+01 -0.43483636184E+02  0.10582104068E+03  0.92432976368E+02 0.  0.
        -11    1    1    2    0    0 -0.18626396216E+02 -0.58762404241E+01  0.46857880043E+03  0.46898567680E+03  0.00000000000E+00 0.  1.
         11    1    1    2    0    0 -0.87930053782E+01  0.24722235070E+01 -0.42509516424E+03  0.42519328251E+03  0.00000000000E+00 0.  1.
        -15    1    3    3    0    0  0.20460113679E+02  0.25190695283E+01  0.27530533553E+02  0.34439076204E+02  0.17770000000E+01 0. -1.
         15    1    3    3    0    0  0.69592879147E+01  0.88494738871E+00 -0.71014169738E+02  0.71381964478E+02  0.17770000000E+01 0.  1.
</event>
<event>
 7    1  0.2187028E-004  0.5150162E+03  0.7546771E-02  0.9366823E-01
        -11   -1    0    0    0    0  0.00000000000E+00  0.00000000000E+00  0.50000000000E+03  0.50000000000E+03  0.00000000000E+00 0. -1.
         11   -1    0    0    0    0 -0.00000000000E+00 -0.00000000000E+00 -0.50000000000E+03  0.50000000000E+03  0.00000000000E+00 0.  1.
         23    2    1    2    0    0 -0.62242841058E+02 -0.25067439209E+02 -0.14688730044E+03  0.18260756362E+03  0.85247260893E+02 0.  0.
        -11    1    1    2    0    0  0.66260247629E+02  0.35849473520E+02  0.47909673579E+03  0.48498380118E+03  0.00000000000E+00 0. -1.
         11    1    1    2    0    0 -0.40174065712E+01 -0.10782034311E+02 -0.33220943535E+03  0.33240863520E+03  0.00000000000E+00 0.  1.
        -15    1    3    3    0    0 -0.38428887576E+02 -0.54008044934E+02 -0.11761482619E+03  0.13501871495E+03  0.17770000000E+01 0. -1.
         15    1    3    3    0    0 -0.23813953482E+02  0.28940605725E+02 -0.29272474247E+02  0.47588848670E+02  0.17770000000E+01 0.  1.
</event>
<event>
 7    1  0.2187028E-004  0.5006917E+03  0.7546771E-02  0.9398263E-01
        -11   -1    0    0    0    0  0.00000000000E+00  0.00000000000E+00  0.50000000000E+03  0.50000000000E+03  0.00000000000E+00 0.  1.
         11   -1    0    0    0    0 -0.00000000000E+00 -0.00000000000E+00 -0.50000000000E+03  0.50000000000E+03  0.00000000000E+00 0.  1.
         23    2    1    2    0    0  0.34033597621E+02  0.53100179683E+02  0.48698594621E+03  0.49930825840E+03  0.90418528232E+02 0.  0.
        -11    1    1    2    0    0 -0.53399242698E+02 -0.25484505011E+02 -0.13892464372E+03  0.15099998593E+03  0.00000000000E+00 0.  1.
         11    1    1    2    0    0  0.19365645077E+02 -0.27615674672E+02 -0.34806130249E+03  0.34969175568E+03  0.00000000000E+00 0.  1.
        -15    1    3    3    0    0  0.35794493020E+02  0.77656280888E+02  0.38286925739E+03  0.39230570947E+03  0.17770000000E+01 0.  1.
         15    1    3    3    0    0 -0.17608953989E+01 -0.24556101205E+02  0.10411668882E+03  0.10700254893E+03  0.17770000000E+01 0. -1.
</event>
<event>
 7    1  0.2187028E-004  0.4726509E+03  0.7546771E-02  0.9463175E-01
        -11   -1    0    0    0    0  0.00000000000E+00  0.00000000000E+00  0.50000000000E+03  0.50000000000E+03  0.00000000000E+00 0. -1.
         11   -1    0    0    0    0 -0.00000000000E+00 -0.00000000000E+00 -0.50000000000E+03  0.50000000000E+03  0.00000000000E+00 0.  1.
         23    2    1    2    0    0 -0.63552124486E+02  0.14896840394E+03  0.40900588124E+03  0.44736750003E+03  0.81372054749E+02 0.  0.
        -11    1    1    2    0    0 -0.16947400348E+02  0.43514635782E+02  0.37431328503E+02  0.59848494211E+02  0.00000000000E+00 0. -1.
         11    1    1    2    0    0  0.80499524834E+02 -0.19248303973E+03 -0.44643720975E+03  0.49278400575E+03  0.00000000000E+00 0.  1.
        -15    1    3    3    0    0 -0.88212205856E+01 -0.95604616478E+01  0.22697003272E+02  0.26220756016E+02  0.17770000000E+01 0.  1.
         15    1    3    3    0    0 -0.54730903900E+02  0.15852886559E+03  0.38630887797E+03  0.42114674402E+03  0.17770000000E+01 0. -1.
</event>
<event>
 6    1  0.2187028E-004  0.5078277E+03  0.7546771E-02  0.9382463E-01
        -11   -1    0    0    0    0  0.00000000000E+00  0.00000000000E+00  0.50000000000E+03  0.50000000000E+03  0.00000000000E+00 0.  1.
         11   -1    0    0    0    0 -0.00000000000E+00 -0.00000000000E+00 -0.50000000000E+03  0.50000000000E+03  0.00000000000E+00 0.  1.
        -11    1    1    2    0    0 -0.26523981936E+02  0.44272071880E+02  0.48945888658E+03  0.49217226620E+03  0.00000000000E+00 0.  1.
         11    1    1    2    0    0  0.16765205427E+02  0.15972907349E+02 -0.35240547779E+03  0.35316543808E+03  0.00000000000E+00 0.  1.
        -15    1    1    2    0    0 -0.82784506307E+01 -0.11801393862E+01 -0.28542712630E+02  0.29795463532E+02  0.17770000000E+01 0.  1.
         15    1    1    2    0    0  0.18037227140E+02 -0.59064839842E+02 -0.10851069616E+03  0.12486683218E+03  0.17770000000E+01 0. -1.
</event>
<event>
 7    1  0.2187028E-004  0.5169563E+03  0.7546771E-02  0.9362648E-01
        -11   -1    0    0    0    0  0.00000000000E+00  0.00000000000E+00  0.50000000000E+03  0.50000000000E+03  0.00000000000E+00 0. -1.
         11   -1    0    0    0    0 -0.00000000000E+00 -0.00000000000E+00 -0.50000000000E+03  0.50000000000E+03  0.00000000000E+00 0.  1.
         23    2    1    2    0    0 -0.16421267273E+03 -0.81877635498E+01 -0.25776279583E+03  0.31926314192E+03  0.91948102313E+02 0.  0.
        -11    1    1    2    0    0  0.16083962645E+03  0.71165410209E+01  0.45542422912E+03  0.48304374446E+03  0.00000000000E+00 0. -1.
         11    1    1    2    0    0  0.33730462849E+01  0.10712225289E+01 -0.19766143329E+03  0.19769311361E+03  0.00000000000E+00 0.  1.
        -15    1    3    3    0    0 -0.50357801334E+00  0.21848751559E+02 -0.29448412720E+02  0.36714959842E+02  0.17770000000E+01 0. -1.
         15    1    3    3    0    0 -0.16370909472E+03 -0.30036515108E+02 -0.22831438311E+03  0.28254818208E+03  0.17770000000E+01 0.  1.
</event>
<event>
 7    1  0.2187028E-004  0.4822537E+03  0.7546771E-02  0.9440418E-01
        -11   -1    0    0    0    0  0.00000000000E+00  0.00000000000E+00  0.50000000000E+03  0.50000000000E+03  0.00000000000E+00 0. -1.
         11   -1    0    0    0    0 -0.00000000000E+00 -0.00000000000E+00 -0.50000000000E+03  0.50000000000E+03  0.00000000000E+00 0.  1.
         23    2    1    2    0    0  0.97089238130E+01  0.21947484512E+02  0.45331312399E+03  0.46250640319E+03  0.88563137537E+02 0.  0.
        -11    1    1    2    0    0 -0.11689417439E+02 -0.22924913144E+01  0.41046179359E+02  0.42739757094E+02  0.00000000000E+00 0. -1.
         11    1    1    2    0    0  0.19804936258E+01 -0.19654993198E+02 -0.49435930335E+03  0.49475383972E+03  0.00000000000E+00 0.  1.
        -15    1    3    3    0    0  0.13607782142E+02  0.16655737049E+02  0.45498394327E+03  0.45549547931E+03  0.17770000000E+01 0. -1.
         15    1    3    3    0    0 -0.38988583289E+01  0.52917474633E+01 -0.16708192824E+01  0.70109238734E+01  0.17770000000E+01 0.  1.
</event>
<event>
 7    1  0.2187028E-004  0.4550972E+03  0.7546771E-02  0.9506299E-01
        -11   -1    0    0    0    0  0.00000000000E+00  0.00000000000E+00  0.50000000000E+03  0.50000000000E+03  0.00000000000E+00 0. -1.
         11   -1    0    0    0    0 -0.00000000000E+00 -0.00000000000E+00 -0.50000000000E+03  0.50000000000E+03  0.00000000000E+00 0. -1.
         23    2    1    2    0    0  0.32999915803E+02 -0.32235936235E+02  0.32159240435E+02  0.88070078348E+02  0.67778845719E+02 0.  0.
        -11    1    1    2    0    0 -0.39762745605E+02  0.30072250064E+02  0.43844593648E+03  0.44127118122E+03  0.00000000000E+00 0. -1.
         11    1    1    2    0    0  0.67628298019E+01  0.21636861705E+01 -0.47060517691E+03  0.47065874043E+03  0.00000000000E+00 0. -1.
        -15    1    3    3    0    0  0.43054558440E+02 -0.41317639702E+02  0.40426176066E+02  0.72099069296E+02  0.17770000000E+01 0.  1.
         15    1    3    3    0    0 -0.10054642637E+02  0.90817034665E+01 -0.82669356312E+01  0.15971009052E+02  0.17770000000E+01 0. -1.
</event>
<event>
 7    1  0.2187028E-004  0.5056269E+03  0.7546771E-02  0.9387306E-01
        -11   -1    0    0    0    0  0.00000000000E+00  0.00000000000E+00  0.50000000000E+03  0.50000000000E+03  0.00000000000E+00 0. -1.
         11   -1    0    0    0    0 -0.00000000000E+00 -0.00000000000E+00 -0.50000000000E+03  0.50000000000E+03  0.00000000000E+00 0. -1.
         23    2    1    2    0    0 -0.11736153008E+02 -0.10836789906E+02 -0.36799969988E+03  0.37921510807E+03  0.90139590484E+02 0.  0.
        -11    1    1    2    0    0  0.27151870489E+02  0.14108663101E+02  0.49342529890E+03  0.49437314252E+03  0.00000000000E+00 0. -1.
         11    1    1    2    0    0 -0.15415717481E+02 -0.32718731955E+01 -0.12542559902E+03  0.12641174941E+03  0.00000000000E+00 0. -1.
        -15    1    3    3    0    0 -0.19371627589E+02 -0.35850917728E+02 -0.77890867289E+02  0.87924360637E+02  0.17770000000E+01 0. -1.
         15    1    3    3    0    0  0.76354745804E+01  0.25014127822E+02 -0.29010883259E+03  0.29129074743E+03  0.17770000000E+01 0.  1.
</event>
<event>
 7    1  0.2187028E-004  0.5031498E+03  0.7546771E-02  0.9392789E-01
        -11   -1    0    0    0    0  0.00000000000E+00  0.00000000000E+00  0.50000000000E+03  0.50000000000E+03  0.00000000000E+00 0. -1.
         11   -1    0    0    0    0 -0.00000000000E+00 -0.00000000000E+00 -0.50000000000E+03  0.50000000000E+03  0.00000000000E+00 0. -1.
         23    2    1    2    0    0 -0.99206689878E+01 -0.11366521819E+01  0.49474836351E+03  0.50314977967E+03  0.91016734391E+02 0.  0.
        -11    1    1    2    0    0 -0.20052245509E+01 -0.30656499440E+01 -0.24897205850E+01  0.44292035030E+01  0.00000000000E+00 0. -1.
         11    1    1    2    0    0  0.11925893539E+02  0.42023021259E+01 -0.49225864292E+03  0.49242101683E+03  0.00000000000E+00 0. -1.
        -15    1    3    3    0    0 -0.17791730918E+02  0.75750491319E+01  0.48996234548E+03  0.49034700446E+03  0.17770000000E+01 0. -1.
         15    1    3    3    0    0  0.78710619298E+01 -0.87117013138E+01  0.47860180229E+01  0.12802775215E+02  0.17770000000E+01 0.  1.
</event>
<event>
 7    1  0.2187028E-004  0.4243447E+03  0.7546771E-02  0.9587084E-01
        -11   -1    0    0    0    0  0.00000000000E+00  0.00000000000E+00  0.50000000000E+03  0.50000000000E+03  0.00000000000E+00 0.  1.
         11   -1    0    0    0    0 -0.00000000000E+00 -0.00000000000E+00 -0.50000000000E+03  0.50000000000E+03  0.00000000000E+00 0. -1.
         23    2    1    2    0    0  0.84835595328E+02  0.47337565386E+02  0.17638330733E+02  0.14558627901E+03  0.10698752541E+03 0.  0.
        -11    1    1    2    0    0 -0.88757768610E+02 -0.41787574521E+02  0.41260975868E+03  0.42411196143E+03  0.00000000000E+00 0.  1.
         11    1    1    2    0    0  0.39221732823E+01 -0.55499908652E+01 -0.43024808941E+03  0.43030175956E+03  0.00000000000E+00 0. -1.
        -15    1    3    3    0    0  0.90868933183E+02  0.49800303244E+02  0.48193449808E+02  0.11429347993E+03  0.17770000000E+01 0.  1.
         15    1    3    3    0    0 -0.60333378552E+01 -0.24627378578E+01 -0.30555119075E+02  0.31292799078E+02  0.17770000000E+01 0. -1.
</event>
<event>
 7    1  0.2187028E-004  0.5092770E+03  0.7546771E-02  0.9379288E-01
        -11   -1    0    0    0    0  0.00000000000E+00  0.00000000000E+00  0.50000000000E+03  0.50000000000E+03  0.00000000000E+00 0. -1.
         11   -1    0    0    0    0 -0.00000000000E+00 -0.00000000000E+00 -0.50000000000E+03  0.50000000000E+03  0.00000000000E+00 0.  1.
         23    2    1    2    0    0  0.79897290974E+01 -0.70147709417E+02 -0.21557154229E+03  0.24089077668E+03  0.81072433884E+02 0.  0.
        -11    1    1    2    0    0 -0.73829493800E+01  0.82575270688E+02  0.48366919045E+03  0.49072300645E+03  0.00000000000E+00 0. -1.
         11    1    1    2    0    0 -0.60677971739E+00 -0.12427561271E+02 -0.26809764815E+03  0.26838621687E+03  0.00000000000E+00 0.  1.
        -15    1    3    3    0    0 -0.21117114737E+02 -0.19506422472E+02 -0.15133063076E+03  0.15404723492E+03  0.17770000000E+01 0.  1.
         15    1    3    3    0    0  0.29106843834E+02 -0.50641286945E+02 -0.64240911535E+02  0.86843541760E+02  0.17770000000E+01 0. -1.
</event>
<event>
 7    1  0.2187028E-004  0.5040208E+03  0.7546771E-02  0.9390858E-01
        -11   -1    0    0    0    0  0.00000000000E+00  0.00000000000E+00  0.50000000000E+03  0.50000000000E+03  0.00000000000E+00 0.  1.
         11   -1    0    0    0    0 -0.00000000000E+00 -0.00000000000E+00 -0.50000000000E+03  0.50000000000E+03  0.00000000000E+00 0.  1.
         23    2    1    2    0    0 -0.17961711048E+01  0.11308131918E+02  0.49526905686E+03  0.50402079764E+03  0.92813930524E+02 0.  0.
        -11    1    1    2    0    0  0.35723843600E+01 -0.11589047964E+01 -0.11445189111E+02  0.12045635895E+02  0.00000000000E+00 0.  1.
         11    1    1    2    0    0 -0.17762132552E+01 -0.10149227122E+02 -0.48382386775E+03  0.48393356646E+03  0.00000000000E+00 0.  1.
        -15    1    3    3    0    0  0.27745250099E+02  0.35349050254E+02  0.14846308315E+03  0.15512510772E+03  0.17770000000E+01 0. -1.
         15    1    3    3    0    0 -0.29541421204E+02 -0.24040918336E+02  0.34680597371E+03  0.34889568993E+03  0.17770000000E+01 0.  1.
</event>
<event>
 7    1  0.2187028E-004  0.4689679E+03  0.7546771E-02  0.9472056E-01
        -11   -1    0    0    0    0  0.00000000000E+00  0.00000000000E+00  0.50000000000E+03  0.50000000000E+03  0.00000000000E+00 0. -1.
         11   -1    0    0    0    0 -0.00000000000E+00 -0.00000000000E+00 -0.50000000000E+03  0.50000000000E+03  0.00000000000E+00 0.  1.
         23    2    1    2    0    0 -0.33930610362E+02  0.33715183829E+01  0.42839828118E+03  0.43894872434E+03  0.89376964725E+02 0.  0.
        -11    1    1    2    0    0  0.83812146066E+01 -0.23553712264E+02  0.63413085353E+02  0.68163344355E+02  0.00000000000E+00 0. -1.
         11    1    1    2    0    0  0.25549395755E+02  0.20182193881E+02 -0.49181136654E+03  0.49288793131E+03  0.00000000000E+00 0.  1.
        -15    1    3    3    0    0 -0.48534716173E+02 -0.31310048910E+01  0.11169689007E+03  0.12183913511E+03  0.17770000000E+01 0.  1.
         15    1    3    3    0    0  0.14604105811E+02  0.65025232739E+01  0.31670139112E+03  0.31710958923E+03  0.17770000000E+01 0. -1.
</event>
<event>
 7    1  0.2187028E-004  0.4711846E+03  0.7546771E-02  0.9466700E-01
        -11   -1    0    0    0    0  0.00000000000E+00  0.00000000000E+00  0.50000000000E+03  0.50000000000E+03  0.00000000000E+00 0. -1.
         11   -1    0    0    0    0 -0.00000000000E+00 -0.00000000000E+00 -0.50000000000E+03  0.50000000000E+03  0.00000000000E+00 0.  1.
         23    2    1    2    0    0  0.81164238993E+01 -0.21218109881E+01  0.43323054279E+03  0.44313623620E+03  0.92793546189E+02 0.  0.
        -11    1    1    2    0    0 -0.22350672177E+02  0.15493895318E+02  0.58622248393E+02  0.64623380797E+02  0.00000000000E+00 0. -1.
         11    1    1    2    0    0  0.14234248278E+02 -0.13372084329E+02 -0.49185279118E+03  0.49224038300E+03  0.00000000000E+00 0.  1.
        -15    1    3    3    0    0  0.77249651408E+01  0.20008738313E+02  0.20223085737E+02  0.29532281000E+02  0.17770000000E+01 0.  1.
         15    1    3    3    0    0  0.39145875847E+00 -0.22130549302E+02  0.41300745705E+03  0.41360395520E+03  0.17770000000E+01 0. -1.
</event>
<event>
 7    1  0.2187028E-004  0.5026606E+03  0.7546771E-02  0.9393876E-01
        -11   -1    0    0    0    0  0.00000000000E+00  0.00000000000E+00  0.50000000000E+03  0.50000000000E+03  0.00000000000E+00 0.  1.
         11   -1    0    0    0    0 -0.00000000000E+00 -0.00000000000E+00 -0.50000000000E+03  0.50000000000E+03  0.00000000000E+00 0. -1.
         23    2    1    2    0    0  0.58221005562E+01 -0.12066533805E+01  0.49566013684E+03  0.50266060483E+03  0.83386806683E+02 0.  0.
        -11    1    1    2    0    0  0.47332383619E+01 -0.27510237952E+01 -0.89017758927E+01  0.10450516320E+02  0.00000000000E+00 0.  1.
         11    1    1    2    0    0 -0.10555338918E+02  0.39576771757E+01 -0.48675836095E+03  0.48688887885E+03  0.00000000000E+00 0. -1.
        -15    1    3    3    0    0 -0.35650349863E+02 -0.15973325676E+02  0.20768874759E+03  0.21133827903E+03  0.17770000000E+01 0. -1.
         15    1    3    3    0    0  0.41472450420E+02  0.14766672295E+02  0.28797138925E+03  0.29132232581E+03  0.17770000000E+01 0.  1.
</event>
<event>
 7    1  0.2187028E-004  0.5128160E+03  0.7546771E-02  0.9371581E-01
        -11   -1    0    0    0    0  0.00000000000E+00  0.00000000000E+00  0.50000000000E+03  0.50000000000E+03  0.00000000000E+00 0.  1.
         11   -1    0    0    0    0 -0.00000000000E+00 -0.00000000000E+00 -0.50000000000E+03  0.50000000000E+03  0.00000000000E+00 0. -1.
         23    2    1    2    0    0 -0.42259214640E+02 -0.87426038509E+02  0.25769521700E+03  0.29009471476E+03  0.91208361673E+02 0.  0.
        -11    1    1    2    0    0 -0.80669136675E+02  0.10161066394E+02  0.20734995753E+03  0.22272126475E+03  0.00000000000E+00 0.  1.
         11    1    1    2    0    0  0.12292835131E+03  0.77264972115E+02 -0.46504517453E+03  0.48718402049E+03  0.00000000000E+00 0. -1.
        -15    1    3    3    0    0  0.44985355865E+01  0.16718385561E+02  0.20794057652E+02  0.27116264507E+02  0.17770000000E+01 0. -1.
         15    1    3    3    0    0 -0.46757750226E+02 -0.10414442407E+03  0.23690115934E+03  0.26297845026E+03  0.17770000000E+01 0.  1.
</event>
<event>
 7    1  0.2187028E-004  0.4458361E+03  0.7546771E-02  0.9529894E-01
        -11   -1    0    0    0    0  0.00000000000E+00  0.00000000000E+00  0.50000000000E+03  0.50000000000E+03  0.00000000000E+00 0.  1.
         11   -1    0    0    0    0 -0.00000000000E+00 -0.00000000000E+00 -0.50000000000E+03  0.50000000000E+03  0.00000000000E+00 0.  1.
         23    2    1    2    0    0  0.46842721251E+02  0.48765829878E+01  0.28450448935E+02  0.10663176094E+03  0.91339382529E+02 0.  0.
        -11    1    1    2    0    0 -0.32955246061E+02  0.14653583033E+01  0.43170303830E+03  0.43296155579E+03  0.00000000000E+00 0.  1.
         11    1    1    2    0    0 -0.13887475190E+02 -0.63419412911E+01 -0.46015348723E+03  0.46040668327E+03  0.00000000000E+00 0.  1.
        -15    1    3    3    0    0 -0.35586378410E+01 -0.16755636562E+01 -0.29336945450E+02  0.29652748847E+02  0.17770000000E+01 0.  1.
         15    1    3    3    0    0  0.50401359092E+02  0.65521466440E+01  0.57787394385E+02  0.76979012093E+02  0.17770000000E+01 0. -1.
</event>
<event>
 6    1  0.2187028E-004  0.5015631E+03  0.7546771E-02  0.9396319E-01
        -11   -1    0    0    0    0  0.00000000000E+00  0.00000000000E+00  0.50000000000E+03  0.50000000000E+03  0.00000000000E+00 0.  1.
         11   -1    0    0    0    0 -0.00000000000E+00 -0.00000000000E+00 -0.50000000000E+03  0.50000000000E+03  0.00000000000E+00 0.  1.
        -11    1    1    2    0    0 -0.42370607577E+02 -0.10367443797E+02  0.49652453954E+03  0.49843692745E+03  0.00000000000E+00 0.  1.
         11    1    1    2    0    0  0.67411087971E+01  0.57380576341E+00 -0.16138420077E+03  0.16152594856E+03  0.00000000000E+00 0.  1.
        -15    1    1    2    0    0 -0.78444576513E+01  0.95739261946E+00 -0.17200804837E+02  0.19012562492E+02  0.17770000000E+01 0. -1.
         15    1    1    2    0    0  0.43473956431E+02  0.88362454143E+01 -0.31793953393E+03  0.32102456150E+03  0.17770000000E+01 0.  1.
</event>
<event>
 7    1  0.2187028E-004  0.4443749E+03  0.7546771E-02  0.9533672E-01
        -11   -1    0    0    0    0  0.00000000000E+00  0.00000000000E+00  0.50000000000E+03  0.50000000000E+03  0.00000000000E+00 0. -1.
         11   -1    0    0    0    0 -0.00000000000E+00 -0.00000000000E+00 -0.50000000000E+03  0.50000000000E+03  0.00000000000E+00 0.  1.
         23    2    1    2    0    0 -0.71013931044E+02  0.85114797752E+02  0.45640238071E+03  0.47806145299E+03  0.89174618161E+02 0.  0.
        -11    1    1    2    0    0  0.72891119014E+02 -0.72041193433E+02 -0.47732046254E+02  0.11305484077E+03  0.00000000000E+00 0. -1.
         11    1    1    2    0    0 -0.18771879706E+01 -0.13073604319E+02 -0.40867033445E+03  0.40888370624E+03  0.00000000000E+00 0.  1.
        -15    1    3    3    0    0 -0.67620886129E+02  0.65448109642E+02  0.44533258504E+03  0.45517063649E+03  0.17770000000E+01 0. -1.
         15    1    3    3    0    0 -0.33930449150E+01  0.19666688110E+02  0.11069795667E+02  0.22890816501E+02  0.17770000000E+01 0.  1.
</event>
<event>
 6    1  0.2187028E-004  0.5020729E+03  0.7546771E-02  0.9395183E-01
        -11   -1    0    0    0    0  0.00000000000E+00  0.00000000000E+00  0.50000000000E+03  0.50000000000E+03  0.00000000000E+00 0.  1.
         11   -1    0    0    0    0 -0.00000000000E+00 -0.00000000000E+00 -0.50000000000E+03  0.50000000000E+03  0.00000000000E+00 0. -1.
        -11    1    1    2    0    0  0.35519578668E+02 -0.67254776725E+02  0.49208388330E+03  0.49792709673E+03  0.00000000000E+00 0.  1.
         11    1    1    2    0    0 -0.62934814260E+00  0.71216724470E+01 -0.12423582674E+03  0.12444137151E+03  0.00000000000E+00 0. -1.
        -15    1    1    2    0    0 -0.61212740963E+01  0.46690867235E+02 -0.14347697323E+03  0.15101757069E+03  0.17770000000E+01 0.  1.
         15    1    1    2    0    0 -0.28768956429E+02  0.13442237043E+02 -0.22437108332E+03  0.22661396106E+03  0.17770000000E+01 0. -1.
</event>
<event>
 7    1  0.2771987E-004  0.5236765E+03  0.7546771E-02  0.9348337E-01
        -11   -1    0    0    0    0  0.00000000000E+00  0.00000000000E+00  0.50000000000E+03  0.50000000000E+03  0.00000000000E+00 0. -1.
         11   -1    0    0    0    0 -0.00000000000E+00 -0.00000000000E+00 -0.50000000000E+03  0.50000000000E+03  0.00000000000E+00 0. -1.
         23    2    1    2    0    0  0.39669915885E+02 -0.82175097185E+02 -0.99430108778E+02  0.15306412181E+03  0.72220703620E+02 0.  0.
        -11    1    1    2    0    0 -0.31113652176E+02  0.72096095127E+02  0.46980655816E+03  0.47632353330E+03  0.00000000000E+00 0. -1.
         11    1    1    2    0    0 -0.85562637099E+01  0.10079002058E+02 -0.37037644938E+03  0.37061234489E+03  0.00000000000E+00 0. -1.
        -15    1    3    3    0    0  0.33070439496E+02 -0.75801757514E+02 -0.38182604829E+02  0.91107790288E+02  0.17770000000E+01 0. -1.
         15    1    3    3    0    0  0.65994763895E+01 -0.63733396709E+01 -0.61247503949E+02  0.61956331526E+02  0.17770000000E+01 0.  1.
</event>
<event>
 7    1  0.2187028E-004  0.5118963E+03  0.7546771E-02  0.9373577E-01
        -11   -1    0    0    0    0  0.00000000000E+00  0.00000000000E+00  0.50000000000E+03  0.50000000000E+03  0.00000000000E+00 0.  1.
         11   -1    0    0    0    0 -0.00000000000E+00 -0.00000000000E+00 -0.50000000000E+03  0.50000000000E+03  0.00000000000E+00 0. -1.
         23    2    1    2    0    0 -0.28100111728E+02 -0.28375311833E+02  0.24851046919E+03  0.26834076351E+03  0.93029766545E+02 0.  0.
        -11    1    1    2    0    0  0.20848174692E+02  0.39588005590E+02  0.23941057515E+03  0.24355549689E+03  0.00000000000E+00 0.  1.
         11    1    1    2    0    0  0.72519370363E+01 -0.11212693757E+02 -0.48792104434E+03  0.48810373959E+03  0.00000000000E+00 0. -1.
        -15    1    3    3    0    0 -0.10009629995E+02  0.10338450328E+01 -0.57602683719E+01  0.11730300461E+02  0.17770000000E+01 0. -1.
         15    1    3    3    0    0 -0.18090481733E+02 -0.29409156866E+02  0.25427073757E+03  0.25661046305E+03  0.17770000000E+01 0.  1.
</event>
<event>
 7    1  0.2187028E-004  0.4948650E+03  0.7546771E-02  0.9411374E-01
        -11   -1    0    0    0    0  0.00000000000E+00  0.00000000000E+00  0.50000000000E+03  0.50000000000E+03  0.00000000000E+00 0.  1.
         11   -1    0    0    0    0 -0.00000000000E+00 -0.00000000000E+00 -0.50000000000E+03  0.50000000000E+03  0.00000000000E+00 0.  1.
         23    2    1    2    0    0  0.18573565462E+02 -0.10904844365E+02  0.48814831870E+03  0.49721303380E+03  0.92022426416E+02 0.  0.
        -11    1    1    2    0    0  0.52239880372E+00  0.18162546090E+02 -0.45152973358E+01  0.18722683862E+02  0.00000000000E+00 0.  1.
         11    1    1    2    0    0 -0.19095964266E+02 -0.72577017247E+01 -0.48363302136E+03  0.48406428234E+03  0.00000000000E+00 0.  1.
        -15    1    3    3    0    0  0.45538303981E+02 -0.27511851833E+02  0.40010123044E+03  0.40362704499E+03  0.17770000000E+01 0.  1.
         15    1    3    3    0    0 -0.26964738520E+02  0.16607007468E+02  0.88047088264E+02  0.93585988809E+02  0.17770000000E+01 0. -1.
</event>
<event>
 7    1  0.2187028E-004  0.4930963E+03  0.7546771E-02  0.9415391E-01
        -11   -1    0    0    0    0  0.00000000000E+00  0.00000000000E+00  0.50000000000E+03  0.50000000000E+03  0.00000000000E+00 0. -1.
         11   -1    0    0    0    0 -0.00000000000E+00 -0.00000000000E+00 -0.50000000000E+03  0.50000000000E+03  0.00000000000E+00 0.  1.
         23    2    1    2    0    0 -0.16905289522E+02 -0.13745298902E+02  0.47852223464E+03  0.48783797135E+03  0.92345195828E+02 0.  0.
        -11    1    1    2    0    0 -0.51714695564E+01 -0.19355051308E+02  0.97436193816E+01  0.22277796731E+02  0.00000000000E+00 0. -1.
         11    1    1    2    0    0  0.22076759079E+02  0.33100350211E+02 -0.48826585402E+03  0.48988423192E+03  0.00000000000E+00 0.  1.
        -15    1    3    3    0    0  0.32793971592E+02  0.75088390828E+01  0.28215960668E+03  0.28416373556E+03  0.17770000000E+01 0. -1.
         15    1    3    3    0    0 -0.49699261115E+02 -0.21254137985E+02  0.19636262796E+03  0.20367423580E+03  0.17770000000E+01 0.  1.
</event>
<event>
 7    1  0.2187028E-004  0.5083353E+03  0.7546771E-02  0.9381350E-01
        -11   -1    0    0    0    0  0.00000000000E+00  0.00000000000E+00  0.50000000000E+03  0.50000000000E+03  0.00000000000E+00 0.  1.
         11   -1    0    0    0    0 -0.00000000000E+00 -0.00000000000E+00 -0.50000000000E+03  0.50000000000E+03  0.00000000000E+00 0. -1.
         23    2    1    2    0    0 -0.31068823067E+02  0.50694180737E+02  0.34022380209E+03  0.35692507123E+03  0.90044984505E+02 0.  0.
        -11    1    1    2    0    0  0.20655550889E+02 -0.10117867091E+02  0.14965303476E+03  0.15141021706E+03  0.00000000000E+00 0.  1.
         11    1    1    2    0    0  0.10413272177E+02 -0.40576313646E+02 -0.48987683685E+03  0.49166471172E+03  0.00000000000E+00 0. -1.
        -15    1    3    3    0    0 -0.40636590420E+02 -0.49268116801E+01  0.22393154076E+03  0.22764906903E+03  0.17770000000E+01 0.  1.
         15    1    3    3    0    0  0.95677673536E+01  0.55620992417E+02  0.11629226133E+03  0.12927600219E+03  0.17770000000E+01 0. -1.
</event>
<event>
 7    1  0.2187028E-004  0.4739080E+03  0.7546771E-02  0.9460163E-01
        -11   -1    0    0    0    0  0.00000000000E+00  0.00000000000E+00  0.50000000000E+03  0.50000000000E+03  0.00000000000E+00 0.  1.
         11   -1    0    0    0    0 -0.00000000000E+00 -0.00000000000E+00 -0.50000000000E+03  0.50000000000E+03  0.00000000000E+00 0.  1.
         23    2    1    2    0    0 -0.42338858147E+02  0.24651052626E+00  0.44454621961E+03  0.45559713450E+03  0.90303753653E+02 0.  0.
        -11    1    1    2    0    0  0.41758071498E+02 -0.87809831638E+01  0.40766462377E+02  0.59014800307E+02  0.00000000000E+00 0.  1.
         11    1    1    2    0    0  0.58078664882E+00  0.85344726375E+01 -0.48531268198E+03  0.48538806519E+03  0.00000000000E+00 0.  1.
        -15    1    3    3    0    0  0.13515176737E+02  0.24027920160E+02  0.57233361429E+02  0.63551682424E+02  0.17770000000E+01 0. -1.
         15    1    3    3    0    0 -0.55854034883E+02 -0.23781409634E+02  0.38731285818E+03  0.39204545208E+03  0.17770000000E+01 0.  1.
</event>
<event>
 6    1  0.2443282E-004  0.4011941E+03  0.7546771E-02  0.9652879E-01
        -11   -1    0    0    0    0  0.00000000000E+00  0.00000000000E+00  0.50000000000E+03  0.50000000000E+03  0.00000000000E+00 0.  1.
         11   -1    0    0    0    0 -0.00000000000E+00 -0.00000000000E+00 -0.50000000000E+03  0.50000000000E+03  0.00000000000E+00 0. -1.
        -11    1    1    2    0    0 -0.13241312171E+03 -0.39432061836E+02  0.40979456691E+03  0.43245775443E+03  0.00000000000E+00 0.  1.
         11    1    1    2    0    0  0.28490511548E+02  0.10364511490E+02 -0.37661555269E+03  0.37783383501E+03  0.00000000000E+00 0. -1.
        -15    1    1    2    0    0 -0.14740717325E+02 -0.12726818223E+02 -0.58222899446E+02  0.61419251040E+02  0.17770000000E+01 0. -1.
         15    1    1    2    0    0  0.11866332749E+03  0.41794368568E+02  0.25043885234E+02  0.12828915952E+03  0.17770000000E+01 0.  1.
</event>
<event>
 7    1  0.2187028E-004  0.5207333E+03  0.7546771E-02  0.9354576E-01
        -11   -1    0    0    0    0  0.00000000000E+00  0.00000000000E+00  0.50000000000E+03  0.50000000000E+03  0.00000000000E+00 0.  1.
         11   -1    0    0    0    0 -0.00000000000E+00 -0.00000000000E+00 -0.50000000000E+03  0.50000000000E+03  0.00000000000E+00 0. -1.
         23    2    1    2    0    0  0.44075906902E+02 -0.76075143331E+01  0.10688831937E+03  0.14884217694E+03  0.93425483538E+02 0.  0.
        -11    1    1    2    0    0 -0.98175169080E+01  0.27644963019E+02  0.37073224855E+03  0.37189115038E+03  0.00000000000E+00 0.  1.
         11    1    1    2    0    0 -0.34258389994E+02 -0.20037448686E+02 -0.47762056792E+03  0.47926667268E+03  0.00000000000E+00 0. -1.
        -15    1    3    3    0    0  0.45102623826E+02 -0.29575783628E+02  0.11361171586E+03  0.12577660101E+03  0.17770000000E+01 0.  1.
         15    1    3    3    0    0 -0.10267169241E+01  0.21968269295E+02 -0.67233964867E+01  0.23065575925E+02  0.17770000000E+01 0. -1.
</event>
<event>
 7    1  0.2187028E-004  0.5130571E+03  0.7546771E-02  0.9371058E-01
        -11   -1    0    0    0    0  0.00000000000E+00  0.00000000000E+00  0.50000000000E+03  0.50000000000E+03  0.00000000000E+00 0.  1.
         11   -1    0    0    0    0 -0.00000000000E+00 -0.00000000000E+00 -0.50000000000E+03  0.50000000000E+03  0.00000000000E+00 0. -1.
         23    2    1    2    0    0 -0.34759817640E+01  0.23083034338E+02 -0.82230427665E+02  0.10912978522E+03  0.67842154037E+02 0.  0.
        -11    1    1    2    0    0  0.96110223926E+01 -0.27145736532E+02  0.48609068493E+03  0.48694292965E+03  0.00000000000E+00 0.  1.
         11    1    1    2    0    0 -0.61350406285E+01  0.40627021938E+01 -0.40386025727E+03  0.40392728513E+03  0.00000000000E+00 0. -1.
        -15    1    3    3    0    0  0.36972252854E+01  0.68019253861E+01 -0.89483141566E+02  0.89834993278E+02  0.17770000000E+01 0.  1.
         15    1    3    3    0    0 -0.71732070495E+01  0.16281108952E+02  0.72527139013E+01  0.19294791940E+02  0.17770000000E+01 0. -1.
</event>
<event>
 7    1  0.2187028E-004  0.4887977E+03  0.7546771E-02  0.9425230E-01
        -11   -1    0    0    0    0  0.00000000000E+00  0.00000000000E+00  0.50000000000E+03  0.50000000000E+03  0.00000000000E+00 0.  1.
         11   -1    0    0    0    0 -0.00000000000E+00 -0.00000000000E+00 -0.50000000000E+03  0.50000000000E+03  0.00000000000E+00 0. -1.
         23    2    1    2    0    0  0.91259767324E+01  0.27287748444E+02  0.46172309643E+03  0.47395490814E+03  0.10303947061E+03 0.  0.
        -11    1    1    2    0    0 -0.82789670713E+01 -0.66809543037E+01  0.31059593511E+02  0.32831003567E+02  0.00000000000E+00 0.  1.
         11    1    1    2    0    0 -0.84700966115E+00 -0.20606794140E+02 -0.49278268994E+03  0.49321408830E+03  0.00000000000E+00 0. -1.
        -15    1    3    3    0    0 -0.11929060700E+02 -0.61171142655E+01  0.40265320805E+03  0.40288023687E+03  0.17770000000E+01 0.  1.
         15    1    3    3    0    0  0.21055037432E+02  0.33404862709E+02  0.59069888378E+02  0.71074671268E+02  0.17770000000E+01 0. -1.
</event>
<event>
 7    1  0.2187028E-004  0.5005611E+03  0.7546771E-02  0.9398555E-01
        -11   -1    0    0    0    0  0.00000000000E+00  0.00000000000E+00  0.50000000000E+03  0.50000000000E+03  0.00000000000E+00 0.  1.
         11   -1    0    0    0    0 -0.00000000000E+00 -0.00000000000E+00 -0.50000000000E+03  0.50000000000E+03  0.00000000000E+00 0.  1.
         23    2    1    2    0    0  0.75409763989E+00  0.82672779769E+01  0.48951986325E+03  0.49792270814E+03  0.90710584942E+02 0.  0.
        -11    1    1    2    0    0  0.35380841077E+01 -0.30986286053E+01  0.53719683468E+01  0.71398587035E+01  0.00000000000E+00 0.  1.
         11    1    1    2    0    0 -0.42921817476E+01 -0.51686493715E+01 -0.49489183159E+03  0.49493743316E+03  0.00000000000E+00 0.  1.
        -15    1    3    3    0    0 -0.38360339292E+02  0.24589104119E+02  0.31706314585E+03  0.32032535937E+03  0.17770000000E+01 0.  1.
         15    1    3    3    0    0  0.39114436932E+02 -0.16321826142E+02  0.17245671740E+03  0.17759734877E+03  0.17770000000E+01 0. -1.
</event>
<event>
 7    1  0.2187028E-004  0.5231370E+03  0.7546771E-02  0.9349477E-01
        -11   -1    0    0    0    0  0.00000000000E+00  0.00000000000E+00  0.50000000000E+03  0.50000000000E+03  0.00000000000E+00 0.  1.
         11   -1    0    0    0    0 -0.00000000000E+00 -0.00000000000E+00 -0.50000000000E+03  0.50000000000E+03  0.00000000000E+00 0. -1.
         23    2    1    2    0    0  0.31399759941E+02  0.32690791361E+02  0.92340041771E+02  0.13681118670E+03  0.90199693614E+02 0.  0.
        -11    1    1    2    0    0 -0.22840281721E+02 -0.30512354583E+02  0.38444112312E+03  0.38632584614E+03  0.00000000000E+00 0.  1.
         11    1    1    2    0    0 -0.85594782203E+01 -0.21784367786E+01 -0.47678116489E+03  0.47686296716E+03  0.00000000000E+00 0. -1.
        -15    1    3    3    0    0 -0.49687136629E+01  0.77337988175E+00 -0.16685406268E+02  0.17517041509E+02  0.17770000000E+01 0. -1.
         15    1    3    3    0    0  0.36368473604E+02  0.31917411479E+02  0.10902544804E+03  0.11929414519E+03  0.17770000000E+01 0.  1.
</event>
<event>
 7    1  0.2187028E-004  0.5136693E+03  0.7546771E-02  0.9369733E-01
        -11   -1    0    0    0    0  0.00000000000E+00  0.00000000000E+00  0.50000000000E+03  0.50000000000E+03  0.00000000000E+00 0.  1.
         11   -1    0    0    0    0 -0.00000000000E+00 -0.00000000000E+00 -0.50000000000E+03  0.50000000000E+03  0.00000000000E+00 0. -1.
         23    2    1    2    0    0 -0.25757343232E+02  0.22225657312E+02  0.20130347498E+03  0.22580946189E+03  0.96485249998E+02 0.  0.
        -11    1    1    2    0    0  0.33138993525E+02 -0.23613404352E+02  0.28496925932E+03  0.28785980010E+03  0.00000000000E+00 0.  1.
         11    1    1    2    0    0 -0.73816502929E+01  0.13877470406E+01 -0.48627273430E+03  0.48633073801E+03  0.00000000000E+00 0. -1.
        -15    1    3    3    0    0 -0.52135612511E+02  0.10074995378E+02  0.18495463752E+03  0.19243441296E+03  0.17770000000E+01 0.  1.
         15    1    3    3    0    0  0.26378269279E+02  0.12150661934E+02  0.16348837461E+02  0.33375048928E+02  0.17770000000E+01 0. -1.
</event>
<event>
 7    1  0.2187028E-004  0.5272126E+03  0.7546771E-02  0.9340897E-01
        -11   -1    0    0    0    0  0.00000000000E+00  0.00000000000E+00  0.50000000000E+03  0.50000000000E+03  0.00000000000E+00 0.  1.
         11   -1    0    0    0    0 -0.00000000000E+00 -0.00000000000E+00 -0.50000000000E+03  0.50000000000E+03  0.00000000000E+00 0.  1.
         23    2    1    2    0    0  0.71114495495E+02  0.85931595475E+01  0.12683400950E+03  0.17623069204E+03  0.99193129760E+02 0.  0.
        -11    1    1    2    0    0 -0.59940411922E+02  0.50773249435E+02  0.34207823965E+03  0.35098190535E+03  0.00000000000E+00 0.  1.
         11    1    1    2    0    0 -0.11174083574E+02 -0.59366408983E+02 -0.46891224915E+03  0.47278740261E+03  0.00000000000E+00 0.  1.
        -15    1    3    3    0    0  0.20719008783E+02 -0.43854103442E+02  0.62325795511E+02  0.78994444290E+02  0.17770000000E+01 0.  1.
         15    1    3    3    0    0  0.50395486713E+02  0.52447262989E+02  0.64508213986E+02  0.97236247751E+02  0.17770000000E+01 0. -1.
</event>
<event>
 7    1  0.2187028E-004  0.4281055E+03  0.7546771E-02  0.9576819E-01
        -11   -1    0    0    0    0  0.00000000000E+00  0.00000000000E+00  0.50000000000E+03  0.50000000000E+03  0.00000000000E+00 0. -1.
         11   -1    0    0    0    0 -0.00000000000E+00 -0.00000000000E+00 -0.50000000000E+03  0.50000000000E+03  0.00000000000E+00 0.  1.
         23    2    1    2    0    0 -0.76616411633E+02  0.24244593318E+03  0.36940292829E+03  0.45773179885E+03  0.91704804700E+02 0.  0.
        -11    1    1    2    0    0  0.38499882383E+02 -0.13580524732E+03  0.14603861372E+02  0.14191046089E+03  0.00000000000E+00 0. -1.
         11    1    1    2    0    0  0.38116529250E+02 -0.10664068586E+03 -0.38400678966E+03  0.40035774026E+03  0.00000000000E+00 0.  1.
        -15    1    3    3    0    0 -0.75904571440E+02  0.89971066694E+02  0.16657439843E+03  0.20397667697E+03  0.17770000000E+01 0.  1.
         15    1    3    3    0    0 -0.71184019316E+00  0.15247486648E+03  0.20282852986E+03  0.25375512188E+03  0.17770000000E+01 0. -1.
</event>
<event>
 7    1  0.2187028E-004  0.4948600E+03  0.7546771E-02  0.9411385E-01
        -11   -1    0    0    0    0  0.00000000000E+00  0.00000000000E+00  0.50000000000E+03  0.50000000000E+03  0.00000000000E+00 0. -1.
         11   -1    0    0    0    0 -0.00000000000E+00 -0.00000000000E+00 -0.50000000000E+03  0.50000000000E+03  0.00000000000E+00 0. -1.
         23    2    1    2    0    0 -0.23917249868E+01  0.22126977156E+02  0.48182397894E+03  0.49052264843E+03  0.89234513916E+02 0.  0.
        -11    1    1    2    0    0  0.10446408436E+02 -0.11717776723E+02  0.92541543421E+01  0.18222873350E+02  0.00000000000E+00 0. -1.
         11    1    1    2    0    0 -0.80546834492E+01 -0.10409200433E+02 -0.49107813328E+03  0.49125447822E+03  0.00000000000E+00 0. -1.
        -15    1    3    3    0    0  0.34315756878E+02  0.84238534550E+01  0.89438868380E+02  0.96182126111E+02  0.17770000000E+01 0.  1.
         15    1    3    3    0    0 -0.36707481864E+02  0.13703123701E+02  0.39238511056E+03  0.39434052232E+03  0.17770000000E+01 0. -1.
</event>
<event>
 7    1  0.2187028E-004  0.4855106E+03  0.7546771E-02  0.9432828E-01
        -11   -1    0    0    0    0  0.00000000000E+00  0.00000000000E+00  0.50000000000E+03  0.50000000000E+03  0.00000000000E+00 0.  1.
         11   -1    0    0    0    0 -0.00000000000E+00 -0.00000000000E+00 -0.50000000000E+03  0.50000000000E+03  0.00000000000E+00 0.  1.
         23    2    1    2    0    0  0.39614559622E+02 -0.48093997850E+02  0.46174273951E+03  0.47438953081E+03  0.89200468008E+02 0.  0.
        -11    1    1    2    0    0 -0.15857127531E+02  0.20276739803E+02  0.25947875311E+02  0.36549786644E+02  0.00000000000E+00 0.  1.
         11    1    1    2    0    0 -0.23757432092E+02  0.27817258047E+02 -0.48769061482E+03  0.48906068254E+03  0.00000000000E+00 0.  1.
        -15    1    3    3    0    0 -0.28570346508E+02 -0.92008913412E+01  0.11471931315E+03  0.11859426479E+03  0.17770000000E+01 0. -1.
         15    1    3    3    0    0  0.68184906131E+02 -0.38893106509E+02  0.34702342636E+03  0.35579526603E+03  0.17770000000E+01 0.  1.
</event>
<event>
 7    1  0.2187028E-004  0.4548947E+03  0.7546771E-02  0.9506808E-01
        -11   -1    0    0    0    0  0.00000000000E+00  0.00000000000E+00  0.50000000000E+03  0.50000000000E+03  0.00000000000E+00 0.  1.
         11   -1    0    0    0    0 -0.00000000000E+00 -0.00000000000E+00 -0.50000000000E+03  0.50000000000E+03  0.00000000000E+00 0.  1.
         23    2    1    2    0    0 -0.76565124658E+02  0.48198652391E+02  0.44335927077E+03  0.46158290195E+03  0.91137281029E+02 0.  0.
        -11    1    1    2    0    0  0.91994835766E+02 -0.21566250771E+02 -0.50071233937E+00  0.94490230674E+02  0.00000000000E+00 0.  1.
         11    1    1    2    0    0 -0.15429711108E+02 -0.26632401620E+02 -0.44285855843E+03  0.44392686737E+03  0.00000000000E+00 0.  1.
        -15    1    3    3    0    0  0.13840085916E+02  0.32747873210E+02  0.98626716328E+02  0.10485398457E+03  0.17770000000E+01 0. -1.
         15    1    3    3    0    0 -0.90405210574E+02  0.15450779180E+02  0.34473255444E+03  0.35672891738E+03  0.17770000000E+01 0.  1.
</event>
<event>
 7    1  0.2187028E-004  0.5041292E+03  0.7546771E-02  0.9390618E-01
        -11   -1    0    0    0    0  0.00000000000E+00  0.00000000000E+00  0.50000000000E+03  0.50000000000E+03  0.00000000000E+00 0.  1.
         11   -1    0    0    0    0 -0.00000000000E+00 -0.00000000000E+00 -0.50000000000E+03  0.50000000000E+03  0.00000000000E+00 0.  1.
         23    2    1    2    0    0 -0.43690599443E+01  0.96343367881E+01  0.49567846590E+03  0.50412916023E+03  0.91308047364E+02 0.  0.
        -11    1    1    2    0    0  0.20220771173E+01 -0.44942039133E+01 -0.78731642064E+02  0.78885728283E+02  0.00000000000E+00 0.  1.
         11    1    1    2    0    0  0.23469828270E+01 -0.51401328747E+01 -0.41694682383E+03  0.41698511148E+03  0.00000000000E+00 0.  1.
        -15    1    3    3    0    0 -0.12497822780E+02 -0.38250077105E+02  0.29014061319E+03  0.29292319322E+03  0.17770000000E+01 0.  1.
         15    1    3    3    0    0  0.81287628355E+01  0.47884413893E+02  0.20553785270E+03  0.21120596701E+03  0.17770000000E+01 0. -1.
</event>
<event>
 7    1  0.2187028E-004  0.4911221E+03  0.7546771E-02  0.9419897E-01
        -11   -1    0    0    0    0  0.00000000000E+00  0.00000000000E+00  0.50000000000E+03  0.50000000000E+03  0.00000000000E+00 0.  1.
         11   -1    0    0    0    0 -0.00000000000E+00 -0.00000000000E+00 -0.50000000000E+03  0.50000000000E+03  0.00000000000E+00 0. -1.
         23    2    1    2    0    0  0.13842874635E+02 -0.95424437639E+01  0.47518014033E+03  0.48391825152E+03  0.89989026991E+02 0.  0.
        -11    1    1    2    0    0 -0.67840917231E+01  0.19764727995E+02  0.15013458731E+02  0.25730765948E+02  0.00000000000E+00 0.  1.
         11    1    1    2    0    0 -0.70587829121E+01 -0.10222284231E+02 -0.49019359906E+03  0.49035098253E+03  0.00000000000E+00 0. -1.
        -15    1    3    3    0    0 -0.18665594989E+02  0.19977524861E+02  0.55003528284E+02  0.61449587375E+02  0.17770000000E+01 0. -1.
         15    1    3    3    0    0  0.32508469624E+02 -0.29519968625E+02  0.42017661204E+03  0.42246866414E+03  0.17770000000E+01 0.  1.
</event>
<event>
 7    1  0.2187028E-004  0.5184532E+03  0.7546771E-02  0.9359440E-01
        -11   -1    0    0    0    0  0.00000000000E+00  0.00000000000E+00  0.50000000000E+03  0.50000000000E+03  0.00000000000E+00 0.  1.
         11   -1    0    0    0    0 -0.00000000000E+00 -0.00000000000E+00 -0.50000000000E+03  0.50000000000E+03  0.00000000000E+00 0. -1.
         23    2    1    2    0    0 -0.83923888192E+02  0.76092778142E+02  0.39304101230E+03  0.41914097835E+03  0.91458146105E+02 0.  0.
        -11    1    1    2    0    0  0.34445949763E+02  0.67851013300E+02  0.63817204954E+02  0.99312230410E+02  0.00000000000E+00 0.  1.
         11    1    1    2    0    0  0.49477938430E+02 -0.14394379144E+03 -0.45685821725E+03  0.48154679124E+03  0.00000000000E+00 0. -1.
        -15    1    3    3    0    0 -0.90027325242E+01  0.67857784735E+02  0.15515344310E+03  0.16959208937E+03  0.17770000000E+01 0. -1.
         15    1    3    3    0    0 -0.74921155668E+02  0.82349934070E+01  0.23788756920E+03  0.24954888898E+03  0.17770000000E+01 0.  1.
</event>
<event>
 7    1  0.2187028E-004  0.5104561E+03  0.7546771E-02  0.9376713E-01
        -11   -1    0    0    0    0  0.00000000000E+00  0.00000000000E+00  0.50000000000E+03  0.50000000000E+03  0.00000000000E+00 0. -1.
         11   -1    0    0    0    0 -0.00000000000E+00 -0.00000000000E+00 -0.50000000000E+03  0.50000000000E+03  0.00000000000E+00 0.  1.
         23    2    1    2    0    0 -0.66724509584E+02  0.42653168559E+02 -0.33919584365E+03  0.36137123314E+03  0.96249128967E+02 0.  0.
        -11    1    1    2    0    0  0.37788671364E+02 -0.64618831312E+02  0.48378675763E+03  0.48954387332E+03  0.00000000000E+00 0. -1.
         11    1    1    2    0    0  0.28935838219E+02  0.21965662754E+02 -0.14459091399E+03  0.14908489354E+03  0.00000000000E+00 0.  1.
        -15    1    3    3    0    0 -0.86737686780E+02  0.24710333308E+02 -0.30368579498E+03  0.31680001055E+03  0.17770000000E+01 0.  1.
         15    1    3    3    0    0  0.20013177196E+02  0.17942835250E+02 -0.35510048668E+02  0.44571222596E+02  0.17770000000E+01 0. -1.
</event>
<event>
 7    1  0.2187028E-004  0.5093658E+03  0.7546771E-02  0.9379093E-01
        -11   -1    0    0    0    0  0.00000000000E+00  0.00000000000E+00  0.50000000000E+03  0.50000000000E+03  0.00000000000E+00 0.  1.
         11   -1    0    0    0    0 -0.00000000000E+00 -0.00000000000E+00 -0.50000000000E+03  0.50000000000E+03  0.00000000000E+00 0.  1.
         23    2    1    2    0    0 -0.25821825255E+02  0.30431262408E+01  0.27520372179E+03  0.29209685687E+03  0.94379330519E+02 0.  0.
        -11    1    1    2    0    0  0.17204936162E+02 -0.28617714121E+02  0.21468770341E+03  0.21726894253E+03  0.00000000000E+00 0.  1.
         11    1    1    2    0    0  0.86168890929E+01  0.25574587880E+02 -0.48989142520E+03  0.49063420061E+03  0.00000000000E+00 0.  1.
        -15    1    3    3    0    0 -0.21511596537E+02  0.11126778657E+01  0.28244504587E+03  0.28327080418E+03  0.17770000000E+01 0.  1.
         15    1    3    3    0    0 -0.43102287182E+01  0.19304483751E+01 -0.72413240815E+01  0.88260526842E+01  0.17770000000E+01 0. -1.
</event>
<event>
 7    1  0.2187028E-004  0.5228515E+03  0.7546771E-02  0.9350081E-01
        -11   -1    0    0    0    0  0.00000000000E+00  0.00000000000E+00  0.50000000000E+03  0.50000000000E+03  0.00000000000E+00 0. -1.
         11   -1    0    0    0    0 -0.00000000000E+00 -0.00000000000E+00 -0.50000000000E+03  0.50000000000E+03  0.00000000000E+00 0.  1.
         23    2    1    2    0    0  0.35147629922E+02  0.18062560685E+02 -0.87189351034E+02  0.13528700769E+03  0.95598010061E+02 0.  0.
        -11    1    1    2    0    0 -0.44694543610E+02 -0.19948965106E+02  0.47463160938E+03  0.47714853878E+03  0.00000000000E+00 0. -1.
         11    1    1    2    0    0  0.95469136877E+01  0.18864044219E+01 -0.38744225835E+03  0.38756445353E+03  0.00000000000E+00 0.  1.
        -15    1    3    3    0    0  0.33671404164E+02  0.80329554316E+01  0.11149520794E+02  0.36411006224E+02  0.17770000000E+01 0. -1.
         15    1    3    3    0    0  0.14762257585E+01  0.10029605253E+02 -0.98338871827E+02  0.98876001463E+02  0.17770000000E+01 0.  1.
</event>
<event>
 7    1  0.2187028E-004  0.5079257E+03  0.7546771E-02  0.9382248E-01
        -11   -1    0    0    0    0  0.00000000000E+00  0.00000000000E+00  0.50000000000E+03  0.50000000000E+03  0.00000000000E+00 0. -1.
         11   -1    0    0    0    0 -0.00000000000E+00 -0.00000000000E+00 -0.50000000000E+03  0.50000000000E+03  0.00000000000E+00 0.  1.
         23    2    1    2    0    0 -0.27578578784E+02  0.93056704928E+00  0.34435698479E+03  0.35707994941E+03  0.90348842462E+02 0.  0.
        -11    1    1    2    0    0  0.15666423768E+02  0.32706117261E+02  0.14642173667E+03  0.15084578851E+03  0.00000000000E+00 0. -1.
         11    1    1    2    0    0  0.11912155016E+02 -0.33636684310E+02 -0.49077872146E+03  0.49207426209E+03  0.00000000000E+00 0.  1.
        -15    1    3    3    0    0 -0.48422507237E+01  0.42097888468E+02  0.10694064305E+03  0.11504407186E+03  0.17770000000E+01 0.  1.
         15    1    3    3    0    0 -0.22736328060E+02 -0.41167321418E+02  0.23741634174E+03  0.24203587755E+03  0.17770000000E+01 0. -1.
</event>
<event>
 7    1  0.2187028E-004  0.3988876E+03  0.7546771E-02  0.9659693E-01
        -11   -1    0    0    0    0  0.00000000000E+00  0.00000000000E+00  0.50000000000E+03  0.50000000000E+03  0.00000000000E+00 0.  1.
         11   -1    0    0    0    0 -0.00000000000E+00 -0.00000000000E+00 -0.50000000000E+03  0.50000000000E+03  0.00000000000E+00 0. -1.
         23    2    1    2    0    0  0.73791189331E+02  0.94084089768E+02  0.91546317335E+02  0.18813616187E+03  0.11277203383E+03 0.  0.
        -11    1    1    2    0    0 -0.82064881789E+02 -0.76257236261E+02  0.35122419998E+03  0.36865736064E+03  0.00000000000E+00 0.  1.
         11    1    1    2    0    0  0.82736924580E+01 -0.17826853507E+02 -0.44277051731E+03  0.44320647749E+03  0.00000000000E+00 0. -1.
        -15    1    3    3    0    0 -0.25665250960E+00  0.73579876604E+01 -0.24369685254E+02  0.25519505115E+02  0.17770000000E+01 0.  1.
         15    1    3    3    0    0  0.74047841841E+02  0.86726102108E+02  0.11591600259E+03  0.16261665675E+03  0.17770000000E+01 0. -1.
</event>
