<event>
 7    1  0.3260141E-006  0.3539802E+03  0.7546771E-02  0.9803089E-01
        -11   -1    0    0    0    0  0.00000000000E+00  0.00000000000E+00  0.50000000000E+03  0.50000000000E+03  0.00000000000E+00 0.  1.
         11   -1    0    0    0    0 -0.00000000000E+00 -0.00000000000E+00 -0.50000000000E+03  0.50000000000E+03  0.00000000000E+00 0.  1.
         23    2    1    2    0    0  0.63834237270E+02  0.14524018210E+03  0.17537166181E+03  0.25358673332E+03  0.91550484454E+02 0.  0.
        -11    1    1    2    0    0 -0.77862287038E+02 -0.38565781034E+03  0.73335668811E+02  0.40021569527E+03  0.00000000000E+00 0.  1.
         11    1    1    2    0    0  0.14028049768E+02  0.24041762824E+03 -0.24870733062E+03  0.34619757142E+03  0.00000000000E+00 0.  1.
        -15    1    3    3    0    0  0.37352082865E+02  0.14573700887E+03  0.16902979777E+03  0.22629335853E+03  0.17770000000E+01 0.  1.
         15    1    3    3    0    0  0.26482154405E+02 -0.49682677594E+00  0.63418640363E+01  0.27293374786E+02  0.17770000000E+01 0. -1.
</event>
<event>
 7    1  0.3260141E-006  0.4452284E+03  0.7546771E-02  0.9531464E-01
        -11   -1    0    0    0    0  0.00000000000E+00  0.00000000000E+00  0.50000000000E+03  0.50000000000E+03  0.00000000000E+00 0. -1.
         11   -1    0    0    0    0 -0.00000000000E+00 -0.00000000000E+00 -0.50000000000E+03  0.50000000000E+03  0.00000000000E+00 0. -1.
         23    2    1    2    0    0 -0.20558758613E+03 -0.73624237982E+01  0.40496328248E+03  0.46288653405E+03  0.89152803634E+02 0.  0.
        -11    1    1    2    0    0  0.72818855702E+02  0.84103004458E+02 -0.79711841281E+01  0.11153224144E+03  0.00000000000E+00 0. -1.
         11    1    1    2    0    0  0.13276873043E+03 -0.76740580660E+02 -0.39699209835E+03  0.42558122451E+03  0.00000000000E+00 0. -1.
        -15    1    3    3    0    0 -0.27380751625E+02 -0.30639215089E+02  0.47858978720E+02  0.63103935170E+02  0.17770000000E+01 0.  1.
         15    1    3    3    0    0 -0.17820683451E+03  0.23276791290E+02  0.35710430376E+03  0.39978259888E+03  0.17770000000E+01 0. -1.
</event>
<event>
 7    1  0.3260141E-006  0.3737181E+03  0.7546771E-02  0.9737411E-01
        -11   -1    0    0    0    0  0.00000000000E+00  0.00000000000E+00  0.50000000000E+03  0.50000000000E+03  0.00000000000E+00 0. -1.
         11   -1    0    0    0    0 -0.00000000000E+00 -0.00000000000E+00 -0.50000000000E+03  0.50000000000E+03  0.00000000000E+00 0. -1.
         23    2    1    2    0    0 -0.70753057177E+02 -0.14834979532E+03  0.11082761376E+03  0.22672295089E+03  0.11003126655E+03 0.  0.
        -11    1    1    2    0    0 -0.54817395716E+02  0.10481570238E+03  0.31008574077E+03  0.33188016658E+03  0.00000000000E+00 0. -1.
         11    1    1    2    0    0  0.12557045289E+03  0.43534092937E+02 -0.42091335453E+03  0.44139688253E+03  0.00000000000E+00 0. -1.
        -15    1    3    3    0    0 -0.49190837759E+02 -0.15105718640E+03  0.12374461231E+03  0.20137998632E+03  0.17770000000E+01 0.  1.
         15    1    3    3    0    0 -0.21562219418E+02  0.27073910870E+01 -0.12916998552E+02  0.25342964572E+02  0.17770000000E+01 0. -1.
</event>
<event>
 7    1  0.3260141E-006  0.3893956E+03  0.7546771E-02  0.9688263E-01
        -11   -1    0    0    0    0  0.00000000000E+00  0.00000000000E+00  0.50000000000E+03  0.50000000000E+03  0.00000000000E+00 0.  1.
         11   -1    0    0    0    0 -0.00000000000E+00 -0.00000000000E+00 -0.50000000000E+03  0.50000000000E+03  0.00000000000E+00 0. -1.
         23    2    1    2    0    0 -0.11406348289E+02  0.19086134008E+02  0.32492632650E+03  0.33841936009E+03  0.91957383273E+02 0.  0.
        -11    1    1    2    0    0  0.87411785486E+02 -0.15355448039E+03  0.10445795644E+03  0.20525901528E+03  0.00000000000E+00 0.  1.
         11    1    1    2    0    0 -0.76005437196E+02  0.13446834638E+03 -0.42938428295E+03  0.45632162463E+03  0.00000000000E+00 0. -1.
        -15    1    3    3    0    0  0.17817459785E+02 -0.29104219848E+02  0.17354964189E+03  0.17688174981E+03  0.17770000000E+01 0. -1.
         15    1    3    3    0    0 -0.29223808074E+02  0.48190353856E+02  0.15137668461E+03  0.16153761029E+03  0.17770000000E+01 0.  1.
</event>
<event>
 7    1  0.3260141E-006  0.5139804E+03  0.7546771E-02  0.9369060E-01
        -11   -1    0    0    0    0  0.00000000000E+00  0.00000000000E+00  0.50000000000E+03  0.50000000000E+03  0.00000000000E+00 0. -1.
         11   -1    0    0    0    0 -0.00000000000E+00 -0.00000000000E+00 -0.50000000000E+03  0.50000000000E+03  0.00000000000E+00 0.  1.
         23    2    1    2    0    0  0.18591291114E+02 -0.14730880424E+02  0.40921903370E+03  0.41926865140E+03  0.88109872064E+02 0.  0.
        -11    1    1    2    0    0  0.33632377557E+02 -0.55696065680E+02  0.68826774620E+02  0.94711738750E+02  0.00000000000E+00 0. -1.
         11    1    1    2    0    0 -0.52223668671E+02  0.70426946104E+02 -0.47804580832E+03  0.48601960985E+03  0.00000000000E+00 0.  1.
        -15    1    3    3    0    0 -0.28744035462E+02  0.15995478755E+02  0.11243844097E+03  0.11716499328E+03  0.17770000000E+01 0.  1.
         15    1    3    3    0    0  0.47335326577E+02 -0.30726359179E+02  0.29678059274E+03  0.30210365811E+03  0.17770000000E+01 0. -1.
</event>
<event>
 7    1  0.3260141E-006  0.5158296E+03  0.7546771E-02  0.9365070E-01
        -11   -1    0    0    0    0  0.00000000000E+00  0.00000000000E+00  0.50000000000E+03  0.50000000000E+03  0.00000000000E+00 0.  1.
         11   -1    0    0    0    0 -0.00000000000E+00 -0.00000000000E+00 -0.50000000000E+03  0.50000000000E+03  0.00000000000E+00 0. -1.
         23    2    1    2    0    0 -0.20629067625E+03 -0.47545075943E+02  0.42568742646E+03  0.48417043252E+03  0.91623388515E+02 0.  0.
        -11    1    1    2    0    0  0.98364616543E+02  0.62330934889E+01 -0.29129389759E+02  0.10277631337E+03  0.00000000000E+00 0.  1.
         11    1    1    2    0    0  0.10792605971E+03  0.41311982454E+02 -0.39655803670E+03  0.41305325411E+03  0.00000000000E+00 0. -1.
        -15    1    3    3    0    0 -0.14023529943E+03 -0.37432804036E+02  0.36899392526E+03  0.39651838372E+03  0.17770000000E+01 0.  1.
         15    1    3    3    0    0 -0.66055376823E+02 -0.10112271906E+02  0.56693501204E+02  0.87652048796E+02  0.17770000000E+01 0. -1.
</event>
<event>
 7    1  0.3260141E-006  0.4831153E+03  0.7546771E-02  0.9438404E-01
        -11   -1    0    0    0    0  0.00000000000E+00  0.00000000000E+00  0.50000000000E+03  0.50000000000E+03  0.00000000000E+00 0. -1.
         11   -1    0    0    0    0 -0.00000000000E+00 -0.00000000000E+00 -0.50000000000E+03  0.50000000000E+03  0.00000000000E+00 0.  1.
         23    2    1    2    0    0  0.89816008595E+02 -0.17710714254E+03 -0.41720090481E+03  0.47472248815E+03  0.10895407493E+03 0.  0.
        -11    1    1    2    0    0 -0.10364818645E+03  0.14503662472E+03  0.44580958354E+03  0.48012993433E+03  0.00000000000E+00 0. -1.
         11    1    1    2    0    0  0.13832177859E+02  0.32070517820E+02 -0.28608678728E+02  0.45147577522E+02  0.00000000000E+00 0.  1.
        -15    1    3    3    0    0  0.97636383367E+01 -0.46660755516E+02 -0.25313268834E+02  0.54004389146E+02  0.17770000000E+01 0. -1.
         15    1    3    3    0    0  0.80052370259E+02 -0.13044638702E+03 -0.39188763597E+03  0.42071809900E+03  0.17770000000E+01 0.  1.
</event>
<event>
 7    1  0.3260141E-006  0.3106203E+03  0.7546771E-02  0.9965023E-01
        -11   -1    0    0    0    0  0.00000000000E+00  0.00000000000E+00  0.50000000000E+03  0.50000000000E+03  0.00000000000E+00 0. -1.
         11   -1    0    0    0    0 -0.00000000000E+00 -0.00000000000E+00 -0.50000000000E+03  0.50000000000E+03  0.00000000000E+00 0.  1.
         23    2    1    2    0    0 -0.23634440300E+03  0.13412533369E+03  0.12135431247E+03  0.31114946183E+03  0.90768036641E+02 0.  0.
        -11    1    1    2    0    0  0.22965825461E+03 -0.33528316811E+02  0.22793501022E+03  0.32530206089E+03  0.00000000000E+00 0. -1.
         11    1    1    2    0    0  0.66861483957E+01 -0.10059701688E+03 -0.34928932269E+03  0.36354847728E+03  0.00000000000E+00 0.  1.
        -15    1    3    3    0    0 -0.69003579297E+02  0.57885522045E+01  0.30431787642E+01  0.69335560561E+02  0.17770000000E+01 0.  1.
         15    1    3    3    0    0 -0.16734082371E+03  0.12833678148E+03  0.11831113370E+03  0.24181390127E+03  0.17770000000E+01 0. -1.
</event>
<event>
 7    1  0.3260141E-006  0.5062404E+03  0.7546771E-02  0.9385954E-01
        -11   -1    0    0    0    0  0.00000000000E+00  0.00000000000E+00  0.50000000000E+03  0.50000000000E+03  0.00000000000E+00 0.  1.
         11   -1    0    0    0    0 -0.00000000000E+00 -0.00000000000E+00 -0.50000000000E+03  0.50000000000E+03  0.00000000000E+00 0.  1.
         23    2    1    2    0    0 -0.63793090586E+02 -0.77742757867E+02  0.36874809234E+03  0.39213706050E+03  0.87651718787E+02 0.  0.
        -11    1    1    2    0    0 -0.44873547979E+02 -0.26923259732E+02  0.10139563772E+03  0.11410334163E+03  0.00000000000E+00 0.  1.
         11    1    1    2    0    0  0.10866663856E+03  0.10466601760E+03 -0.47014373006E+03  0.49375959787E+03  0.00000000000E+00 0.  1.
        -15    1    3    3    0    0 -0.44671063713E+02 -0.43387324529E+01  0.22657765179E+03  0.23098683632E+03  0.17770000000E+01 0.  1.
         15    1    3    3    0    0 -0.19122026873E+02 -0.73404025414E+02  0.14217044054E+03  0.16115022418E+03  0.17770000000E+01 0. -1.
</event>
<event>
 7    1  0.3260141E-006  0.3834464E+03  0.7546771E-02  0.9706617E-01
        -11   -1    0    0    0    0  0.00000000000E+00  0.00000000000E+00  0.50000000000E+03  0.50000000000E+03  0.00000000000E+00 0. -1.
         11   -1    0    0    0    0 -0.00000000000E+00 -0.00000000000E+00 -0.50000000000E+03  0.50000000000E+03  0.00000000000E+00 0. -1.
         23    2    1    2    0    0 -0.20991697368E+03 -0.47531069162E+02  0.38311051860E+03  0.44801868613E+03  0.87308277307E+02 0.  0.
        -11    1    1    2    0    0  0.19730036449E+03 -0.54791665220E+02 -0.60829303084E+02  0.21361124624E+03  0.00000000000E+00 0. -1.
         11    1    1    2    0    0  0.12616609189E+02  0.10232273438E+03 -0.32228121551E+03  0.33837006764E+03  0.00000000000E+00 0. -1.
        -15    1    3    3    0    0 -0.39263793521E+02 -0.15015171875E+02  0.15889868840E+03  0.16437472973E+03  0.17770000000E+01 0.  1.
         15    1    3    3    0    0 -0.17065318016E+03 -0.32515897287E+02  0.22421183019E+03  0.28364395640E+03  0.17770000000E+01 0. -1.
</event>
<event>
 7    1  0.3260141E-006  0.5136054E+03  0.7546771E-02  0.9369871E-01
        -11   -1    0    0    0    0  0.00000000000E+00  0.00000000000E+00  0.50000000000E+03  0.50000000000E+03  0.00000000000E+00 0.  1.
         11   -1    0    0    0    0 -0.00000000000E+00 -0.00000000000E+00 -0.50000000000E+03  0.50000000000E+03  0.00000000000E+00 0. -1.
         23    2    1    2    0    0  0.20173017584E+01 -0.10833870236E+03  0.46534670946E+03  0.48639461428E+03  0.91053922805E+02 0.  0.
        -11    1    1    2    0    0  0.67908907657E+02  0.38837289539E+02 -0.66256613156E+02  0.10251777204E+03  0.00000000000E+00 0.  1.
         11    1    1    2    0    0 -0.69926209415E+02  0.69501412825E+02 -0.39909009631E+03  0.41108761368E+03  0.00000000000E+00 0. -1.
        -15    1    3    3    0    0 -0.32967833901E+02 -0.83139386379E+02  0.38431928593E+03  0.39459283686E+03  0.17770000000E+01 0.  1.
         15    1    3    3    0    0  0.34985135660E+02 -0.25199315985E+02  0.81027423534E+02  0.91801777416E+02  0.17770000000E+01 0. -1.
</event>
<event>
 7    1  0.3260141E-006  0.4278447E+03  0.7546771E-02  0.9577528E-01
        -11   -1    0    0    0    0  0.00000000000E+00  0.00000000000E+00  0.50000000000E+03  0.50000000000E+03  0.00000000000E+00 0.  1.
         11   -1    0    0    0    0 -0.00000000000E+00 -0.00000000000E+00 -0.50000000000E+03  0.50000000000E+03  0.00000000000E+00 0. -1.
         23    2    1    2    0    0  0.18989877735E+03  0.16156635896E+03  0.37549511616E+03  0.46002531550E+03  0.91986274253E+02 0.  0.
        -11    1    1    2    0    0 -0.76888076307E+02 -0.11982179868E+03  0.33770381768E+01  0.14240942421E+03  0.00000000000E+00 0.  1.
         11    1    1    2    0    0 -0.11301070104E+03 -0.41744560286E+02 -0.37887215434E+03  0.39756526030E+03  0.00000000000E+00 0. -1.
        -15    1    3    3    0    0  0.17908933712E+01  0.19565784855E+02  0.78124410999E+02  0.80576724673E+02  0.17770000000E+01 0. -1.
         15    1    3    3    0    0  0.18810788398E+03  0.14200057411E+03  0.29737070516E+03  0.37944859082E+03  0.17770000000E+01 0.  1.
</event>
<event>
 7    1  0.3260141E-006  0.5139380E+03  0.7546771E-02  0.9369151E-01
        -11   -1    0    0    0    0  0.00000000000E+00  0.00000000000E+00  0.50000000000E+03  0.50000000000E+03  0.00000000000E+00 0.  1.
         11   -1    0    0    0    0 -0.00000000000E+00 -0.00000000000E+00 -0.50000000000E+03  0.50000000000E+03  0.00000000000E+00 0. -1.
         23    2    1    2    0    0  0.13945621771E+03 -0.30330885883E+02 -0.20537977121E+03  0.26679510183E+03  0.92901973283E+02 0.  0.
        -11    1    1    2    0    0 -0.18221144739E+03  0.45255570527E+02  0.44833828764E+03  0.48606203142E+03  0.00000000000E+00 0.  1.
         11    1    1    2    0    0  0.42755229678E+02 -0.14924684644E+02 -0.24295851643E+03  0.24714286675E+03  0.00000000000E+00 0. -1.
        -15    1    3    3    0    0  0.11756939697E+03  0.31655418205E+01 -0.19085461545E+03  0.22419015528E+03  0.17770000000E+01 0.  1.
         15    1    3    3    0    0  0.21886820747E+02 -0.33496427704E+02 -0.14525155761E+02  0.42604946546E+02  0.17770000000E+01 0. -1.
</event>
<event>
 7    1  0.3260141E-006  0.5321031E+03  0.7546771E-02  0.9330710E-01
        -11   -1    0    0    0    0  0.00000000000E+00  0.00000000000E+00  0.50000000000E+03  0.50000000000E+03  0.00000000000E+00 0.  1.
         11   -1    0    0    0    0 -0.00000000000E+00 -0.00000000000E+00 -0.50000000000E+03  0.50000000000E+03  0.00000000000E+00 0. -1.
         23    2    1    2    0    0 -0.60670232358E+02 -0.40352935915E+02 -0.18783551005E+03  0.22169101432E+03  0.92495894314E+02 0.  0.
        -11    1    1    2    0    0  0.29986352103E+03 -0.69475073113E+02  0.35239556791E+03  0.46789694732E+03  0.00000000000E+00 0.  1.
         11    1    1    2    0    0 -0.23919328867E+03  0.10982800903E+03 -0.16456005787E+03  0.31041203836E+03  0.00000000000E+00 0. -1.
        -15    1    3    3    0    0  0.11222347366E+02 -0.43333260404E+01  0.46951657293E+01  0.13035378982E+02  0.17770000000E+01 0. -1.
         15    1    3    3    0    0 -0.71892579725E+02 -0.36019609875E+02 -0.19253067578E+03  0.20865563534E+03  0.17770000000E+01 0.  1.
</event>
<event>
 7    1  0.3260141E-006  0.5207607E+03  0.7546771E-02  0.9354518E-01
        -11   -1    0    0    0    0  0.00000000000E+00  0.00000000000E+00  0.50000000000E+03  0.50000000000E+03  0.00000000000E+00 0.  1.
         11   -1    0    0    0    0 -0.00000000000E+00 -0.00000000000E+00 -0.50000000000E+03  0.50000000000E+03  0.00000000000E+00 0.  1.
         23    2    1    2    0    0 -0.35181188044E+02  0.34048916290E+02 -0.66145520986E+02  0.11456427067E+03  0.79703810924E+02 0.  0.
        -11    1    1    2    0    0  0.25157592099E+02 -0.12658368349E+03  0.46153439573E+03  0.47923932623E+03  0.00000000000E+00 0.  1.
         11    1    1    2    0    0  0.10023595945E+02  0.92534767202E+02 -0.39538887474E+03  0.40619640309E+03  0.00000000000E+00 0.  1.
        -15    1    3    3    0    0 -0.59222869230E+01  0.37523699630E+02  0.42151844810E+01  0.38262606099E+02  0.17770000000E+01 0.  1.
         15    1    3    3    0    0 -0.29258901121E+02 -0.34747833392E+01 -0.70360705467E+02  0.76301664575E+02  0.17770000000E+01 0. -1.
</event>
<event>
 7    1  0.3260141E-006  0.3896575E+03  0.7546771E-02  0.9687463E-01
        -11   -1    0    0    0    0  0.00000000000E+00  0.00000000000E+00  0.50000000000E+03  0.50000000000E+03  0.00000000000E+00 0.  1.
         11   -1    0    0    0    0 -0.00000000000E+00 -0.00000000000E+00 -0.50000000000E+03  0.50000000000E+03  0.00000000000E+00 0. -1.
         23    2    1    2    0    0 -0.96385465759E+02  0.86379193128E+02  0.12220249657E+03  0.20061463828E+03  0.92527076640E+02 0.  0.
        -11    1    1    2    0    0  0.89045353513E+02 -0.17846002815E+03  0.30383670678E+03  0.36344710896E+03  0.00000000000E+00 0.  1.
         11    1    1    2    0    0  0.73401122463E+01  0.92080835021E+02 -0.42603920334E+03  0.43593825275E+03  0.00000000000E+00 0. -1.
        -15    1    3    3    0    0  0.17082925191E+02  0.11180766732E+02  0.52870144638E+01  0.21164737861E+02  0.17770000000E+01 0.  1.
         15    1    3    3    0    0 -0.11346839095E+03  0.75198426396E+02  0.11691548210E+03  0.17944990042E+03  0.17770000000E+01 0. -1.
</event>
<event>
 7    1  0.3315928E-006  0.5068449E+03  0.7546771E-02  0.9384623E-01
        -11   -1    0    0    0    0  0.00000000000E+00  0.00000000000E+00  0.50000000000E+03  0.50000000000E+03  0.00000000000E+00 0. -1.
         11   -1    0    0    0    0 -0.00000000000E+00 -0.00000000000E+00 -0.50000000000E+03  0.50000000000E+03  0.00000000000E+00 0. -1.
         23    2    1    2    0    0  0.54154954078E+02  0.50531148187E+02 -0.29128095691E+03  0.31398489225E+03  0.90861216769E+02 0.  0.
        -11    1    1    2    0    0 -0.79385056716E+02 -0.74971852046E+02  0.48091498213E+03  0.49315513367E+03  0.00000000000E+00 0. -1.
         11    1    1    2    0    0  0.25230102638E+02  0.24440703859E+02 -0.18963402522E+03  0.19285997408E+03  0.00000000000E+00 0. -1.
        -15    1    3    3    0    0  0.35020267400E+02  0.72776988980E+02 -0.15746733692E+03  0.17698030732E+03  0.17770000000E+01 0.  1.
         15    1    3    3    0    0  0.19134686678E+02 -0.22245840793E+02 -0.13381361999E+03  0.13700458493E+03  0.17770000000E+01 0. -1.
</event>
<event>
 7    1  0.3260141E-006  0.5394182E+03  0.7546771E-02  0.9315686E-01
        -11   -1    0    0    0    0  0.00000000000E+00  0.00000000000E+00  0.50000000000E+03  0.50000000000E+03  0.00000000000E+00 0. -1.
         11   -1    0    0    0    0 -0.00000000000E+00 -0.00000000000E+00 -0.50000000000E+03  0.50000000000E+03  0.00000000000E+00 0.  1.
         23    2    1    2    0    0 -0.17580015037E+03  0.94130721405E+02  0.18706498911E+03  0.29049589019E+03  0.98123730468E+02 0.  0.
        -11    1    1    2    0    0  0.69440238697E+02  0.90968397128E+02  0.22105450919E+03  0.24892226108E+03  0.00000000000E+00 0. -1.
         11    1    1    2    0    0  0.10635991168E+03 -0.18509911853E+03 -0.40811949830E+03  0.46058184874E+03  0.00000000000E+00 0.  1.
        -15    1    3    3    0    0 -0.93256022333E+02  0.98665941420E+02  0.14141706529E+03  0.19604488716E+03  0.17770000000E+01 0.  1.
         15    1    3    3    0    0 -0.82544128041E+02 -0.45352200150E+01  0.45647923821E+02  0.94451003027E+02  0.17770000000E+01 0. -1.
</event>
<event>
 7    1  0.3260141E-006  0.5088143E+03  0.7546771E-02  0.9380300E-01
        -11   -1    0    0    0    0  0.00000000000E+00  0.00000000000E+00  0.50000000000E+03  0.50000000000E+03  0.00000000000E+00 0.  1.
         11   -1    0    0    0    0 -0.00000000000E+00 -0.00000000000E+00 -0.50000000000E+03  0.50000000000E+03  0.00000000000E+00 0.  1.
         23    2    1    2    0    0  0.68397984840E+02  0.32337167011E+02  0.38883818376E+03  0.40653566444E+03  0.91390024677E+02 0.  0.
        -11    1    1    2    0    0  0.31885762100E+02  0.46075019764E+02  0.85564675749E+02  0.10227865372E+03  0.00000000000E+00 0.  1.
         11    1    1    2    0    0 -0.10028374694E+03 -0.78412186775E+02 -0.47440285951E+03  0.49118568184E+03  0.00000000000E+00 0.  1.
        -15    1    3    3    0    0  0.80993006710E+02  0.43386230667E+02  0.37008954081E+03  0.38132880575E+03  0.17770000000E+01 0.  1.
         15    1    3    3    0    0 -0.12595021869E+02 -0.11049063656E+02  0.18748642948E+02  0.25206858689E+02  0.17770000000E+01 0. -1.
</event>
<event>
 7    1  0.3260141E-006  0.4223450E+03  0.7546771E-02  0.9592589E-01
        -11   -1    0    0    0    0  0.00000000000E+00  0.00000000000E+00  0.50000000000E+03  0.50000000000E+03  0.00000000000E+00 0. -1.
         11   -1    0    0    0    0 -0.00000000000E+00 -0.00000000000E+00 -0.50000000000E+03  0.50000000000E+03  0.00000000000E+00 0.  1.
         23    2    1    2    0    0 -0.72394728495E+02  0.13977895114E+02  0.90683931780E+02  0.14726264481E+03  0.89589803036E+02 0.  0.
        -11    1    1    2    0    0  0.18164683860E+03 -0.30275983783E+02  0.35157934092E+03  0.39688819852E+03  0.00000000000E+00 0. -1.
         11    1    1    2    0    0 -0.10925211010E+03  0.16298088669E+02 -0.44226327270E+03  0.45584915667E+03  0.00000000000E+00 0.  1.
        -15    1    3    3    0    0 -0.34034228789E+02  0.23237929231E+02  0.98684300729E+02  0.10695830507E+03  0.17770000000E+01 0.  1.
         15    1    3    3    0    0 -0.38360499707E+02 -0.92600341172E+01 -0.80003689495E+01  0.40304339741E+02  0.17770000000E+01 0. -1.
</event>
<event>
 7    1  0.3260141E-006  0.4273767E+03  0.7546771E-02  0.9578800E-01
        -11   -1    0    0    0    0  0.00000000000E+00  0.00000000000E+00  0.50000000000E+03  0.50000000000E+03  0.00000000000E+00 0.  1.
         11   -1    0    0    0    0 -0.00000000000E+00 -0.00000000000E+00 -0.50000000000E+03  0.50000000000E+03  0.00000000000E+00 0. -1.
         23    2    1    2    0    0 -0.78082396795E+02 -0.39713942645E+02  0.71643848004E+02  0.13778749793E+03  0.78603407676E+02 0.  0.
        -11    1    1    2    0    0  0.13353431282E+03 -0.15166485763E+02  0.38042248932E+03  0.40346338790E+03  0.00000000000E+00 0.  1.
         11    1    1    2    0    0 -0.55451916030E+02  0.54880428407E+02 -0.45206633733E+03  0.45874911418E+03  0.00000000000E+00 0. -1.
        -15    1    3    3    0    0 -0.66880177137E+02 -0.54569639906E+02  0.79639814823E+02  0.11745833954E+03  0.17770000000E+01 0. -1.
         15    1    3    3    0    0 -0.11202219659E+02  0.14855697261E+02 -0.79959668184E+01  0.20329158388E+02  0.17770000000E+01 0.  1.
</event>
<event>
 7    1  0.3260141E-006  0.4155595E+03  0.7546771E-02  0.9611513E-01
        -11   -1    0    0    0    0  0.00000000000E+00  0.00000000000E+00  0.50000000000E+03  0.50000000000E+03  0.00000000000E+00 0.  1.
         11   -1    0    0    0    0 -0.00000000000E+00 -0.00000000000E+00 -0.50000000000E+03  0.50000000000E+03  0.00000000000E+00 0.  1.
         23    2    1    2    0    0  0.79145109084E+02  0.87420471075E+02  0.40946367579E+03  0.43509124013E+03  0.87963619701E+02 0.  0.
        -11    1    1    2    0    0 -0.75998012649E+02  0.12620753746E+03 -0.68341359805E+02  0.16240253046E+03  0.00000000000E+00 0.  1.
         11    1    1    2    0    0 -0.31470964355E+01 -0.21362800854E+03 -0.34112231599E+03  0.40250622941E+03  0.00000000000E+00 0.  1.
        -15    1    3    3    0    0  0.90690554841E+02  0.64929212687E+02  0.38092952618E+03  0.39692699712E+03  0.17770000000E+01 0.  1.
         15    1    3    3    0    0 -0.11545445757E+02  0.22491258388E+02  0.28534149614E+02  0.38164243014E+02  0.17770000000E+01 0. -1.
</event>
<event>
 7    1  0.3260141E-006  0.4449687E+03  0.7546771E-02  0.9532135E-01
        -11   -1    0    0    0    0  0.00000000000E+00  0.00000000000E+00  0.50000000000E+03  0.50000000000E+03  0.00000000000E+00 0.  1.
         11   -1    0    0    0    0 -0.00000000000E+00 -0.00000000000E+00 -0.50000000000E+03  0.50000000000E+03  0.00000000000E+00 0. -1.
         23    2    1    2    0    0  0.44890628552E+02  0.77003000756E+02  0.43056352878E+03  0.44913932517E+03  0.91632693077E+02 0.  0.
        -11    1    1    2    0    0 -0.10947704226E+03  0.24090533098E+02 -0.88827874354E+01  0.11244767885E+03  0.00000000000E+00 0.  1.
         11    1    1    2    0    0  0.64586413708E+02 -0.10109353385E+03 -0.42168074134E+03  0.43841299598E+03  0.00000000000E+00 0. -1.
        -15    1    3    3    0    0 -0.16813065424E+02  0.35068428445E+02  0.62857874822E+02  0.73937433000E+02  0.17770000000E+01 0. -1.
         15    1    3    3    0    0  0.61703693976E+02  0.41934572311E+02  0.36770565396E+03  0.37520189217E+03  0.17770000000E+01 0.  1.
</event>
<event>
 7    1  0.3260141E-006  0.4639670E+03  0.7546771E-02  0.9484255E-01
        -11   -1    0    0    0    0  0.00000000000E+00  0.00000000000E+00  0.50000000000E+03  0.50000000000E+03  0.00000000000E+00 0. -1.
         11   -1    0    0    0    0 -0.00000000000E+00 -0.00000000000E+00 -0.50000000000E+03  0.50000000000E+03  0.00000000000E+00 0.  1.
         23    2    1    2    0    0  0.62189375749E+02 -0.54856766859E+02 -0.40981533540E+03  0.42832780567E+03  0.92947924388E+02 0.  0.
        -11    1    1    2    0    0 -0.51341755126E+02  0.62985491457E+02  0.48678358321E+03  0.49351940675E+03  0.00000000000E+00 0. -1.
         11    1    1    2    0    0 -0.10847620623E+02 -0.81287245985E+01 -0.76968247807E+02  0.78152787584E+02  0.00000000000E+00 0.  1.
        -15    1    3    3    0    0 -0.10124941363E+00  0.23293748528E+02 -0.10402415919E+03  0.10661516025E+03  0.17770000000E+01 0.  1.
         15    1    3    3    0    0  0.62290625163E+02 -0.78150515387E+02 -0.30579117622E+03  0.32171264542E+03  0.17770000000E+01 0. -1.
</event>
<event>
 7    1  0.3260141E-006  0.4492635E+03  0.7546771E-02  0.9521091E-01
        -11   -1    0    0    0    0  0.00000000000E+00  0.00000000000E+00  0.50000000000E+03  0.50000000000E+03  0.00000000000E+00 0.  1.
         11   -1    0    0    0    0 -0.00000000000E+00 -0.00000000000E+00 -0.50000000000E+03  0.50000000000E+03  0.00000000000E+00 0. -1.
         23    2    1    2    0    0  0.42913610582E+02  0.48585285049E+01 -0.16507053465E+00  0.10043565061E+03  0.90675847905E+02 0.  0.
        -11    1    1    2    0    0 -0.20968546538E+03  0.80896334246E+02  0.39950527411E+03  0.45838485504E+03  0.00000000000E+00 0.  1.
         11    1    1    2    0    0  0.16677185480E+03 -0.85754862751E+02 -0.39934020358E+03  0.44117949435E+03  0.00000000000E+00 0. -1.
        -15    1    3    3    0    0  0.58499027221E+02  0.92986690216E+01 -0.30012062421E+02  0.66426523702E+02  0.17770000000E+01 0.  1.
         15    1    3    3    0    0 -0.15585416639E+02 -0.44401405167E+01  0.29846991886E+02  0.34009126911E+02  0.17770000000E+01 0. -1.
</event>
<event>
 7    1  0.3260141E-006  0.5243876E+03  0.7546771E-02  0.9346835E-01
        -11   -1    0    0    0    0  0.00000000000E+00  0.00000000000E+00  0.50000000000E+03  0.50000000000E+03  0.00000000000E+00 0. -1.
         11   -1    0    0    0    0 -0.00000000000E+00 -0.00000000000E+00 -0.50000000000E+03  0.50000000000E+03  0.00000000000E+00 0. -1.
         23    2    1    2    0    0  0.84436718263E+02  0.25235001768E+02  0.19211715773E+03  0.22996548295E+03  0.90602187333E+02 0.  0.
        -11    1    1    2    0    0 -0.66318279797E+02  0.12095660742E+03  0.26010722346E+03  0.29442211671E+03  0.00000000000E+00 0. -1.
         11    1    1    2    0    0 -0.18118438467E+02 -0.14619160919E+03 -0.45222438119E+03  0.47561240034E+03  0.00000000000E+00 0. -1.
        -15    1    3    3    0    0  0.23126880471E+02  0.27904924988E+02  0.97962363064E+01  0.37585388300E+02  0.17770000000E+01 0. -1.
         15    1    3    3    0    0  0.61309837793E+02 -0.26699232203E+01  0.18232092143E+03  0.19238009465E+03  0.17770000000E+01 0.  1.
</event>
<event>
 7    1  0.3260141E-006  0.5214084E+03  0.7546771E-02  0.9353141E-01
        -11   -1    0    0    0    0  0.00000000000E+00  0.00000000000E+00  0.50000000000E+03  0.50000000000E+03  0.00000000000E+00 0.  1.
         11   -1    0    0    0    0 -0.00000000000E+00 -0.00000000000E+00 -0.50000000000E+03  0.50000000000E+03  0.00000000000E+00 0.  1.
         23    2    1    2    0    0  0.96837249785E+01 -0.28849539650E+02  0.38871833481E+03  0.40049477611E+03  0.91477053962E+02 0.  0.
        -11    1    1    2    0    0  0.69636996159E+02  0.54349138006E+02  0.82564920401E+02  0.12091363081E+03  0.00000000000E+00 0.  1.
         11    1    1    2    0    0 -0.79320721137E+02 -0.25499598356E+02 -0.47128325522E+03  0.47859159308E+03  0.00000000000E+00 0.  1.
        -15    1    3    3    0    0 -0.16697014109E+02 -0.54680588220E+02  0.27617998092E+03  0.28204130300E+03  0.17770000000E+01 0. -1.
         15    1    3    3    0    0  0.26380739088E+02  0.25831048570E+02  0.11253835390E+03  0.11845347311E+03  0.17770000000E+01 0.  1.
</event>
<event>
 7    1  0.3260141E-006  0.5155119E+03  0.7546771E-02  0.9365754E-01
        -11   -1    0    0    0    0  0.00000000000E+00  0.00000000000E+00  0.50000000000E+03  0.50000000000E+03  0.00000000000E+00 0.  1.
         11   -1    0    0    0    0 -0.00000000000E+00 -0.00000000000E+00 -0.50000000000E+03  0.50000000000E+03  0.00000000000E+00 0. -1.
         23    2    1    2    0    0  0.60413844140E+02 -0.15310902919E+02  0.31802913248E+03  0.33653862424E+03  0.90727394921E+02 0.  0.
        -11    1    1    2    0    0  0.10025654308E+03  0.56146447334E+02  0.13721386024E+03  0.17897329806E+03  0.00000000000E+00 0.  1.
         11    1    1    2    0    0 -0.16067038722E+03 -0.40835544415E+02 -0.45524299271E+03  0.48448807770E+03  0.00000000000E+00 0. -1.
        -15    1    3    3    0    0  0.36371456849E+02  0.25258716231E+02  0.24904196986E+03  0.25295443482E+03  0.17770000000E+01 0.  1.
         15    1    3    3    0    0  0.24042387292E+02 -0.40569619150E+02  0.68987162621E+02  0.83584189415E+02  0.17770000000E+01 0. -1.
</event>
<event>
 7    1  0.3260141E-006  0.5192546E+03  0.7546771E-02  0.9357728E-01
        -11   -1    0    0    0    0  0.00000000000E+00  0.00000000000E+00  0.50000000000E+03  0.50000000000E+03  0.00000000000E+00 0.  1.
         11   -1    0    0    0    0 -0.00000000000E+00 -0.00000000000E+00 -0.50000000000E+03  0.50000000000E+03  0.00000000000E+00 0. -1.
         23    2    1    2    0    0  0.29152534468E+01  0.85359590597E+02  0.25533672581E+03  0.28247580586E+03  0.85445766078E+02 0.  0.
        -11    1    1    2    0    0  0.95519667079E+02 -0.39649545014E+02  0.21299788527E+03  0.23677878357E+03  0.00000000000E+00 0.  1.
         11    1    1    2    0    0 -0.98434920526E+02 -0.45710045583E+02 -0.46833461108E+03  0.48074541057E+03  0.00000000000E+00 0. -1.
        -15    1    3    3    0    0  0.10339241246E+02  0.99882726284E+02  0.18772785879E+03  0.21290459275E+03  0.17770000000E+01 0.  1.
         15    1    3    3    0    0 -0.74239877997E+01 -0.14523135687E+02  0.67608867026E+02  0.69571213117E+02  0.17770000000E+01 0. -1.
</event>
<event>
 7    1  0.3260141E-006  0.5124318E+03  0.7546771E-02  0.9372414E-01
        -11   -1    0    0    0    0  0.00000000000E+00  0.00000000000E+00  0.50000000000E+03  0.50000000000E+03  0.00000000000E+00 0.  1.
         11   -1    0    0    0    0 -0.00000000000E+00 -0.00000000000E+00 -0.50000000000E+03  0.50000000000E+03  0.00000000000E+00 0. -1.
         23    2    1    2    0    0  0.46263586047E+02  0.79363876397E+02 -0.27520415628E+03  0.30405303373E+03  0.90950400862E+02 0.  0.
        -11    1    1    2    0    0 -0.10316401947E+02 -0.82448830963E+02  0.48043573416E+03  0.48756818244E+03  0.00000000000E+00 0.  1.
         11    1    1    2    0    0 -0.35947184100E+02  0.30849545658E+01 -0.20523157788E+03  0.20837878383E+03  0.00000000000E+00 0. -1.
        -15    1    3    3    0    0  0.64060106505E+02  0.88229405483E+02 -0.22522918414E+03  0.25023882264E+03  0.17770000000E+01 0. -1.
         15    1    3    3    0    0 -0.17796520457E+02 -0.88655290862E+01 -0.49974972137E+02  0.53814211092E+02  0.17770000000E+01 0.  1.
</event>
<event>
 7    1  0.3260141E-006  0.4630705E+03  0.7546771E-02  0.9486459E-01
        -11   -1    0    0    0    0  0.00000000000E+00  0.00000000000E+00  0.50000000000E+03  0.50000000000E+03  0.00000000000E+00 0. -1.
         11   -1    0    0    0    0 -0.00000000000E+00 -0.00000000000E+00 -0.50000000000E+03  0.50000000000E+03  0.00000000000E+00 0.  1.
         23    2    1    2    0    0 -0.39905902890E+02  0.11679336147E+03  0.41389479939E+03  0.44079768767E+03  0.88093848375E+02 0.  0.
        -11    1    1    2    0    0 -0.26343188544E+02 -0.48060142494E+02  0.56796620978E+02  0.78927796332E+02  0.00000000000E+00 0. -1.
         11    1    1    2    0    0  0.66249091434E+02 -0.68733218978E+02 -0.47069142037E+03  0.48027451600E+03  0.00000000000E+00 0.  1.
        -15    1    3    3    0    0 -0.53196868409E+02  0.27781289394E+02  0.13535877966E+03  0.14807722245E+03  0.17770000000E+01 0.  1.
         15    1    3    3    0    0  0.13290965519E+02  0.89012072078E+02  0.27853601973E+03  0.29272046522E+03  0.17770000000E+01 0. -1.
</event>
<event>
 7    1  0.3260141E-006  0.5325688E+03  0.7546771E-02  0.9329746E-01
        -11   -1    0    0    0    0  0.00000000000E+00  0.00000000000E+00  0.50000000000E+03  0.50000000000E+03  0.00000000000E+00 0. -1.
         11   -1    0    0    0    0 -0.00000000000E+00 -0.00000000000E+00 -0.50000000000E+03  0.50000000000E+03  0.00000000000E+00 0. -1.
         23    2    1    2    0    0 -0.26863722626E+02  0.99710343233E+02  0.12178682134E+03  0.18206626590E+03  0.87477329557E+02 0.  0.
        -11    1    1    2    0    0  0.16212502825E+03  0.30098054721E+03  0.77318945245E+02  0.35050254475E+03  0.00000000000E+00 0. -1.
         11    1    1    2    0    0 -0.13526130562E+03 -0.40069089044E+03 -0.19910576659E+03  0.46743118934E+03  0.00000000000E+00 0. -1.
        -15    1    3    3    0    0 -0.28969276239E+02  0.31702850786E+02  0.49775749533E+00  0.42984825291E+02  0.17770000000E+01 0.  1.
         15    1    3    3    0    0  0.21055536127E+01  0.68007492446E+02  0.12128906385E+03  0.13908144061E+03  0.17770000000E+01 0. -1.
</event>
<event>
 7    1  0.3260141E-006  0.5222268E+03  0.7546771E-02  0.9351404E-01
        -11   -1    0    0    0    0  0.00000000000E+00  0.00000000000E+00  0.50000000000E+03  0.50000000000E+03  0.00000000000E+00 0.  1.
         11   -1    0    0    0    0 -0.00000000000E+00 -0.00000000000E+00 -0.50000000000E+03  0.50000000000E+03  0.00000000000E+00 0. -1.
         23    2    1    2    0    0 -0.28103151989E+02 -0.56816674021E+01  0.99668678057E+02  0.13703207391E+03  0.89564922805E+02 0.  0.
        -11    1    1    2    0    0  0.71221375135E+02  0.74461389092E+02  0.37115762832E+03  0.38519471414E+03  0.00000000000E+00 0.  1.
         11    1    1    2    0    0 -0.43118223146E+02 -0.68779721690E+02 -0.47082630638E+03  0.47777321195E+03  0.00000000000E+00 0. -1.
        -15    1    3    3    0    0 -0.27749054396E+02 -0.22692246388E+02 -0.16009263350E-01  0.35890194362E+02  0.17770000000E+01 0.  1.
         15    1    3    3    0    0 -0.35409759275E+00  0.17010578986E+02  0.99684687320E+02  0.10114187954E+03  0.17770000000E+01 0. -1.
</event>
<event>
 7    1  0.3260141E-006  0.5307764E+03  0.7546771E-02  0.9333462E-01
        -11   -1    0    0    0    0  0.00000000000E+00  0.00000000000E+00  0.50000000000E+03  0.50000000000E+03  0.00000000000E+00 0.  1.
         11   -1    0    0    0    0 -0.00000000000E+00 -0.00000000000E+00 -0.50000000000E+03  0.50000000000E+03  0.00000000000E+00 0. -1.
         23    2    1    2    0    0  0.15974213655E+02 -0.85496813579E+02  0.36305042065E+03  0.38396588454E+03  0.89773670546E+02 0.  0.
        -11    1    1    2    0    0  0.95916754510E+02  0.62295915849E+02  0.92046229939E+02  0.14681046752E+03  0.00000000000E+00 0.  1.
         11    1    1    2    0    0 -0.11189096816E+03  0.23200897730E+02 -0.45509665059E+03  0.46922364794E+03  0.00000000000E+00 0. -1.
        -15    1    3    3    0    0 -0.30024732439E+01 -0.13363803608E+02  0.50264791463E+00  0.13820871043E+02  0.17770000000E+01 0. -1.
         15    1    3    3    0    0  0.18976686898E+02 -0.72133009971E+02  0.36254777273E+03  0.37014501350E+03  0.17770000000E+01 0.  1.
</event>
<event>
 7    1  0.3260141E-006  0.5082211E+03  0.7546771E-02  0.9381600E-01
        -11   -1    0    0    0    0  0.00000000000E+00  0.00000000000E+00  0.50000000000E+03  0.50000000000E+03  0.00000000000E+00 0. -1.
         11   -1    0    0    0    0 -0.00000000000E+00 -0.00000000000E+00 -0.50000000000E+03  0.50000000000E+03  0.00000000000E+00 0. -1.
         23    2    1    2    0    0 -0.63196129118E+01  0.72889313909E+02  0.38134014215E+03  0.39857041251E+03  0.89918185757E+02 0.  0.
        -11    1    1    2    0    0 -0.41390554572E+02  0.10058164031E+02  0.10103928092E+03  0.10965072257E+03  0.00000000000E+00 0. -1.
         11    1    1    2    0    0  0.47710167484E+02 -0.82947477940E+02 -0.48237942307E+03  0.49177886491E+03  0.00000000000E+00 0. -1.
        -15    1    3    3    0    0  0.40633654065E+02  0.33759997233E+02  0.21327428284E+03  0.21972689573E+03  0.17770000000E+01 0. -1.
         15    1    3    3    0    0 -0.46953266977E+02  0.39129316676E+02  0.16806585930E+03  0.17884351678E+03  0.17770000000E+01 0.  1.
</event>
<event>
 7    1  0.3260141E-006  0.3219934E+03  0.7546771E-02  0.9919918E-01
        -11   -1    0    0    0    0  0.00000000000E+00  0.00000000000E+00  0.50000000000E+03  0.50000000000E+03  0.00000000000E+00 0.  1.
         11   -1    0    0    0    0 -0.00000000000E+00 -0.00000000000E+00 -0.50000000000E+03  0.50000000000E+03  0.00000000000E+00 0. -1.
         23    2    1    2    0    0  0.91729926628E+02  0.26514493678E+03  0.14681625296E+03  0.32979678139E+03  0.92166631362E+02 0.  0.
        -11    1    1    2    0    0 -0.15265491881E+03 -0.30263035575E+03  0.14579283211E+03  0.36897724368E+03  0.00000000000E+00 0.  1.
         11    1    1    2    0    0  0.60924992178E+02  0.37485418969E+02 -0.29260908507E+03  0.30122597493E+03  0.00000000000E+00 0. -1.
        -15    1    3    3    0    0  0.10850956086E+03  0.24894073955E+03  0.13065504393E+03  0.30136309468E+03  0.17770000000E+01 0.  1.
         15    1    3    3    0    0 -0.16779634232E+02  0.16204197238E+02  0.16161209031E+02  0.28433686701E+02  0.17770000000E+01 0. -1.
</event>
<event>
 7    1  0.3260141E-006  0.5298913E+03  0.7546771E-02  0.9335303E-01
        -11   -1    0    0    0    0  0.00000000000E+00  0.00000000000E+00  0.50000000000E+03  0.50000000000E+03  0.00000000000E+00 0. -1.
         11   -1    0    0    0    0 -0.00000000000E+00 -0.00000000000E+00 -0.50000000000E+03  0.50000000000E+03  0.00000000000E+00 0. -1.
         23    2    1    2    0    0  0.31726379759E+02  0.80722765281E+02  0.14446460159E+03  0.20349372780E+03  0.11409184079E+03 0.  0.
        -11    1    1    2    0    0 -0.90440835741E+02  0.75948796437E+01  0.31352535261E+03  0.32639756999E+03  0.00000000000E+00 0. -1.
         11    1    1    2    0    0  0.58714455982E+02 -0.88317644925E+02 -0.45798995420E+03  0.47010870221E+03  0.00000000000E+00 0. -1.
        -15    1    3    3    0    0 -0.20221397757E+02 -0.87318624708E+01  0.76693569772E+02  0.79813606126E+02  0.17770000000E+01 0. -1.
         15    1    3    3    0    0  0.51947777515E+02  0.89454627752E+02  0.67771031822E+02  0.12368012168E+03  0.17770000000E+01 0.  1.
</event>
<event>
 7    1  0.3260141E-006  0.5242108E+03  0.7546771E-02  0.9347208E-01
        -11   -1    0    0    0    0  0.00000000000E+00  0.00000000000E+00  0.50000000000E+03  0.50000000000E+03  0.00000000000E+00 0.  1.
         11   -1    0    0    0    0 -0.00000000000E+00 -0.00000000000E+00 -0.50000000000E+03  0.50000000000E+03  0.00000000000E+00 0. -1.
         23    2    1    2    0    0 -0.13077562140E+03  0.58027344533E+02  0.34327346617E+03  0.38393759320E+03  0.95404229609E+02 0.  0.
        -11    1    1    2    0    0  0.63173415380E+02 -0.77812147426E+01  0.12500060697E+03  0.14027323143E+03  0.00000000000E+00 0.  1.
         11    1    1    2    0    0  0.67602206017E+02 -0.50246129791E+02 -0.46827407314E+03  0.47578917537E+03  0.00000000000E+00 0. -1.
        -15    1    3    3    0    0 -0.41294626857E+02 -0.21066562710E+02  0.14732162799E+03  0.15445344306E+03  0.17770000000E+01 0.  1.
         15    1    3    3    0    0 -0.89480994539E+02  0.79093907243E+02  0.19595183818E+03  0.22948415013E+03  0.17770000000E+01 0. -1.
</event>
<event>
 7    1  0.3260141E-006  0.4074463E+03  0.7546771E-02  0.9634652E-01
        -11   -1    0    0    0    0  0.00000000000E+00  0.00000000000E+00  0.50000000000E+03  0.50000000000E+03  0.00000000000E+00 0.  1.
         11   -1    0    0    0    0 -0.00000000000E+00 -0.00000000000E+00 -0.50000000000E+03  0.50000000000E+03  0.00000000000E+00 0.  1.
         23    2    1    2    0    0 -0.65136344786E+02  0.40456411042E+01  0.45943950361E+03  0.47063507254E+03  0.78444906782E+02 0.  0.
        -11    1    1    2    0    0  0.11835144100E+03  0.58110231789E+02 -0.11378512575E+03  0.17415773732E+03  0.00000000000E+00 0.  1.
         11    1    1    2    0    0 -0.53215096213E+02 -0.62155872893E+02 -0.34565437786E+03  0.35520719015E+03  0.00000000000E+00 0.  1.
        -15    1    3    3    0    0  0.17844957685E+02 -0.47996750837E+01  0.85885694923E+02  0.87869162492E+02  0.17770000000E+01 0. -1.
         15    1    3    3    0    0 -0.82981302471E+02  0.88453161880E+01  0.37355380869E+03  0.38276591004E+03  0.17770000000E+01 0.  1.
</event>
<event>
 7    1  0.3260141E-006  0.5187006E+03  0.7546771E-02  0.9358911E-01
        -11   -1    0    0    0    0  0.00000000000E+00  0.00000000000E+00  0.50000000000E+03  0.50000000000E+03  0.00000000000E+00 0.  1.
         11   -1    0    0    0    0 -0.00000000000E+00 -0.00000000000E+00 -0.50000000000E+03  0.50000000000E+03  0.00000000000E+00 0. -1.
         23    2    1    2    0    0 -0.65499160273E+02 -0.36843527762E+02  0.39756804028E+03  0.41452798692E+03  0.90141664928E+02 0.  0.
        -11    1    1    2    0    0 -0.21483005862E+02  0.69369973169E+02  0.74687463738E+02  0.10417259696E+03  0.00000000000E+00 0.  1.
         11    1    1    2    0    0  0.86982166135E+02 -0.32526445406E+02 -0.47225550402E+03  0.48129941611E+03  0.00000000000E+00 0. -1.
        -15    1    3    3    0    0 -0.60113811905E+02  0.16955113462E+02  0.18913609030E+03  0.19919027245E+03  0.17770000000E+01 0. -1.
         15    1    3    3    0    0 -0.53853483674E+01 -0.53798641224E+02  0.20843194998E+03  0.21533771447E+03  0.17770000000E+01 0.  1.
</event>
<event>
 7    1  0.3260141E-006  0.5239886E+03  0.7546771E-02  0.9347677E-01
        -11   -1    0    0    0    0  0.00000000000E+00  0.00000000000E+00  0.50000000000E+03  0.50000000000E+03  0.00000000000E+00 0. -1.
         11   -1    0    0    0    0 -0.00000000000E+00 -0.00000000000E+00 -0.50000000000E+03  0.50000000000E+03  0.00000000000E+00 0. -1.
         23    2    1    2    0    0  0.56825522405E+02  0.67530483550E+02 -0.61532209859E+02  0.15306533903E+03  0.10887276499E+03 0.  0.
        -11    1    1    2    0    0 -0.25621287737E+03 -0.22887755214E+03  0.32947971933E+03  0.47601140517E+03  0.00000000000E+00 0. -1.
         11    1    1    2    0    0  0.19938735497E+03  0.16134706859E+03 -0.26794750947E+03  0.37092325580E+03  0.00000000000E+00 0. -1.
        -15    1    3    3    0    0  0.54326451326E+02  0.12296021931E+02  0.15853636223E+02  0.57940063682E+02  0.17770000000E+01 0.  1.
         15    1    3    3    0    0  0.24990710786E+01  0.55234461619E+02 -0.77385846083E+02  0.95125275346E+02  0.17770000000E+01 0. -1.
</event>
<event>
 7    1  0.3260141E-006  0.3574383E+03  0.7546771E-02  0.9791255E-01
        -11   -1    0    0    0    0  0.00000000000E+00  0.00000000000E+00  0.50000000000E+03  0.50000000000E+03  0.00000000000E+00 0.  1.
         11   -1    0    0    0    0 -0.00000000000E+00 -0.00000000000E+00 -0.50000000000E+03  0.50000000000E+03  0.00000000000E+00 0.  1.
         23    2    1    2    0    0  0.69324441764E+02 -0.45057668786E+02  0.27964899622E+03  0.30531891094E+03  0.90443377586E+02 0.  0.
        -11    1    1    2    0    0  0.14422444974E+02  0.22429389747E+03  0.11555661753E+03  0.25272334917E+03  0.00000000000E+00 0.  1.
         11    1    1    2    0    0 -0.83746886738E+02 -0.17923622868E+03 -0.39520561375E+03  0.44195773989E+03  0.00000000000E+00 0.  1.
        -15    1    3    3    0    0  0.15331502355E+02 -0.50465841194E+02  0.21256313123E+03  0.21901620620E+03  0.17770000000E+01 0. -1.
         15    1    3    3    0    0  0.53992939409E+02  0.54081724087E+01  0.67085864991E+02  0.86302704740E+02  0.17770000000E+01 0.  1.
</event>
<event>
 7    1  0.3260141E-006  0.4810577E+03  0.7546771E-02  0.9443222E-01
        -11   -1    0    0    0    0  0.00000000000E+00  0.00000000000E+00  0.50000000000E+03  0.50000000000E+03  0.00000000000E+00 0.  1.
         11   -1    0    0    0    0 -0.00000000000E+00 -0.00000000000E+00 -0.50000000000E+03  0.50000000000E+03  0.00000000000E+00 0. -1.
         23    2    1    2    0    0 -0.72141575561E+02  0.52982767685E+02  0.44579663943E+03  0.46376517783E+03  0.91279328696E+02 0.  0.
        -11    1    1    2    0    0  0.21869757080E+02  0.12646028175E+02  0.37886964469E+02  0.45537131882E+02  0.00000000000E+00 0.  1.
         11    1    1    2    0    0  0.50271818481E+02 -0.65628795859E+02 -0.48368360389E+03  0.49069769029E+03  0.00000000000E+00 0. -1.
        -15    1    3    3    0    0  0.19019602116E+02  0.24536100486E+02  0.83912218995E+02  0.89488455777E+02  0.17770000000E+01 0. -1.
         15    1    3    3    0    0 -0.91161177677E+02  0.28446667199E+02  0.36188442043E+03  0.37427672205E+03  0.17770000000E+01 0.  1.
</event>
<event>
 6    1  0.3260141E-006  0.4922809E+03  0.7546771E-02  0.9417249E-01
        -11   -1    0    0    0    0  0.00000000000E+00  0.00000000000E+00  0.50000000000E+03  0.50000000000E+03  0.00000000000E+00 0. -1.
         11   -1    0    0    0    0 -0.00000000000E+00 -0.00000000000E+00 -0.50000000000E+03  0.50000000000E+03  0.00000000000E+00 0.  1.
        -11    1    1    2    0    0  0.10456417777E+03  0.12486386084E+02  0.46891291098E+03  0.48059223381E+03  0.00000000000E+00 0. -1.
         11    1    1    2    0    0  0.15798230634E+02 -0.14722958934E+02 -0.35677274915E+02  0.41703927348E+02  0.00000000000E+00 0.  1.
        -15    1    1    2    0    0 -0.10202930756E+03  0.74543912869E+02 -0.28434993084E+03  0.31116686110E+03  0.17770000000E+01 0.  1.
         15    1    1    2    0    0 -0.18333100841E+02 -0.72307340020E+02 -0.14888570523E+03  0.16653697775E+03  0.17770000000E+01 0. -1.
</event>
<event>
 7    1  0.3260141E-006  0.4659015E+03  0.7546771E-02  0.9479516E-01
        -11   -1    0    0    0    0  0.00000000000E+00  0.00000000000E+00  0.50000000000E+03  0.50000000000E+03  0.00000000000E+00 0. -1.
         11   -1    0    0    0    0 -0.00000000000E+00 -0.00000000000E+00 -0.50000000000E+03  0.50000000000E+03  0.00000000000E+00 0. -1.
         23    2    1    2    0    0  0.41514021701E+02  0.57294710535E+01  0.43108353890E+03  0.44210995879E+03  0.88724051517E+02 0.  0.
        -11    1    1    2    0    0  0.30089997233E+02  0.50692495974E+02  0.44365840522E+02  0.73779840653E+02  0.00000000000E+00 0. -1.
         11    1    1    2    0    0 -0.71604018934E+02 -0.56421967027E+02 -0.47544937942E+03  0.48411020056E+03  0.00000000000E+00 0. -1.
        -15    1    3    3    0    0 -0.56999138819E+00 -0.34588625243E+02  0.97532409451E+02  0.10350085270E+03  0.17770000000E+01 0.  1.
         15    1    3    3    0    0  0.42084013089E+02  0.40318096297E+02  0.33355112945E+03  0.33860910610E+03  0.17770000000E+01 0. -1.
</event>
<event>
 7    1  0.3260141E-006  0.4231497E+03  0.7546771E-02  0.9590370E-01
        -11   -1    0    0    0    0  0.00000000000E+00  0.00000000000E+00  0.50000000000E+03  0.50000000000E+03  0.00000000000E+00 0.  1.
         11   -1    0    0    0    0 -0.00000000000E+00 -0.00000000000E+00 -0.50000000000E+03  0.50000000000E+03  0.00000000000E+00 0. -1.
         23    2    1    2    0    0  0.13093269076E+02 -0.11358902714E+03  0.74819413711E+01  0.14597864644E+03  0.90442716611E+02 0.  0.
        -11    1    1    2    0    0 -0.19287412109E+03  0.13982763455E+03  0.36714535193E+03  0.43766185967E+03  0.00000000000E+00 0.  1.
         11    1    1    2    0    0  0.17978085202E+03 -0.26238607407E+02 -0.37462729330E+03  0.41635949389E+03  0.00000000000E+00 0. -1.
        -15    1    3    3    0    0  0.10800827013E+01 -0.94671417440E+02  0.42955753962E+02  0.10398172140E+03  0.17770000000E+01 0.  1.
         15    1    3    3    0    0  0.12013186375E+02 -0.18917609699E+02 -0.35473812591E+02  0.41996925034E+02  0.17770000000E+01 0. -1.
</event>
<event>
 7    1  0.3260141E-006  0.5112691E+03  0.7546771E-02  0.9374941E-01
        -11   -1    0    0    0    0  0.00000000000E+00  0.00000000000E+00  0.50000000000E+03  0.50000000000E+03  0.00000000000E+00 0. -1.
         11   -1    0    0    0    0 -0.00000000000E+00 -0.00000000000E+00 -0.50000000000E+03  0.50000000000E+03  0.00000000000E+00 0.  1.
         23    2    1    2    0    0 -0.60364632423E+02 -0.10843282709E+03 -0.16936092218E+03  0.22869582379E+03  0.90648171631E+02 0.  0.
        -11    1    1    2    0    0  0.15476629108E+03  0.18962688125E+03  0.42302117105E+03  0.48873087697E+03  0.00000000000E+00 0. -1.
         11    1    1    2    0    0 -0.94401658658E+02 -0.81194054156E+02 -0.25366024887E+03  0.28257329924E+03  0.00000000000E+00 0.  1.
        -15    1    3    3    0    0 -0.49971135460E+02 -0.12458943078E+02 -0.90024950734E+02  0.10373036742E+03  0.17770000000E+01 0.  1.
         15    1    3    3    0    0 -0.10393496963E+02 -0.95973884014E+02 -0.79335971447E+02  0.12496545637E+03  0.17770000000E+01 0. -1.
</event>
<event>
 7    1  0.3260141E-006  0.5175261E+03  0.7546771E-02  0.9361426E-01
        -11   -1    0    0    0    0  0.00000000000E+00  0.00000000000E+00  0.50000000000E+03  0.50000000000E+03  0.00000000000E+00 0.  1.
         11   -1    0    0    0    0 -0.00000000000E+00 -0.00000000000E+00 -0.50000000000E+03  0.50000000000E+03  0.00000000000E+00 0.  1.
         23    2    1    2    0    0 -0.93176199575E+02 -0.18064006502E+03 -0.32203779619E+02  0.22500373589E+03  0.90977802142E+02 0.  0.
        -11    1    1    2    0    0 -0.11564201121E+03 -0.24872363461E+03  0.10165042832E+03  0.29252235940E+03  0.00000000000E+00 0.  1.
         11    1    1    2    0    0  0.20881821079E+03  0.42936369963E+03 -0.69446648701E+02  0.48247390472E+03  0.00000000000E+00 0.  1.
        -15    1    3    3    0    0  0.13684722744E+02 -0.41750429873E+02  0.92107597785E+01  0.44926226815E+02  0.17770000000E+01 0.  1.
         15    1    3    3    0    0 -0.10686092232E+03 -0.13888963515E+03 -0.41414539397E+02  0.18007750907E+03  0.17770000000E+01 0. -1.
</event>
<event>
 7    1  0.3260141E-006  0.5003354E+03  0.7546771E-02  0.9399060E-01
        -11   -1    0    0    0    0  0.00000000000E+00  0.00000000000E+00  0.50000000000E+03  0.50000000000E+03  0.00000000000E+00 0.  1.
         11   -1    0    0    0    0 -0.00000000000E+00 -0.00000000000E+00 -0.50000000000E+03  0.50000000000E+03  0.00000000000E+00 0. -1.
         23    2    1    2    0    0  0.67431701960E+02  0.17289484356E+02  0.48724837266E+03  0.49966462269E+03  0.86068564578E+02 0.  0.
        -11    1    1    2    0    0 -0.25009580609E+02 -0.50512125221E+02 -0.18773365832E+03  0.19601244957E+03  0.00000000000E+00 0. -1.
         11    1    1    2    0    0 -0.42422121351E+02  0.33222640865E+02 -0.29951471434E+03  0.30432292774E+03  0.00000000000E+00 0.  1.
        -15    1    3    3    0    0 -0.12713783841E+02  0.23635043790E+02  0.75774750193E+02  0.80406629642E+02  0.17770000000E+01 0. -1.
         15    1    3    3    0    0  0.80145485801E+02 -0.63455594345E+01  0.41147362247E+03  0.41925799305E+03  0.17770000000E+01 0.  1.
</event>
<event>
 7    1  0.3260141E-006  0.5372647E+03  0.7546771E-02  0.9320083E-01
        -11   -1    0    0    0    0  0.00000000000E+00  0.00000000000E+00  0.50000000000E+03  0.50000000000E+03  0.00000000000E+00 0. -1.
         11   -1    0    0    0    0 -0.00000000000E+00 -0.00000000000E+00 -0.50000000000E+03  0.50000000000E+03  0.00000000000E+00 0. -1.
         23    2    1    2    0    0 -0.34498469756E+02 -0.17619696473E+03 -0.12634037595E+03  0.23742106276E+03  0.90395551041E+02 0.  0.
        -11    1    1    2    0    0  0.91546821370E+02  0.16973095314E+03  0.42063591322E+03  0.46273533304E+03  0.00000000000E+00 0. -1.
         11    1    1    2    0    0 -0.57048351615E+02  0.64660115921E+01 -0.29429553726E+03  0.29984360420E+03  0.00000000000E+00 0. -1.
        -15    1    3    3    0    0 -0.13434966939E+02  0.38601094914E+01  0.33887568678E+01  0.14492763161E+02  0.17770000000E+01 0.  1.
         15    1    3    3    0    0 -0.21063502817E+02 -0.18005707423E+03 -0.12972913282E+03  0.22292829960E+03  0.17770000000E+01 0. -1.
</event>
<event>
 7    1  0.3260141E-006  0.5070070E+03  0.7546771E-02  0.9384266E-01
        -11   -1    0    0    0    0  0.00000000000E+00  0.00000000000E+00  0.50000000000E+03  0.50000000000E+03  0.00000000000E+00 0.  1.
         11   -1    0    0    0    0 -0.00000000000E+00 -0.00000000000E+00 -0.50000000000E+03  0.50000000000E+03  0.00000000000E+00 0.  1.
         23    2    1    2    0    0 -0.40598267901E+02 -0.64650663833E+02  0.35312191596E+03  0.37162655995E+03  0.87082058078E+02 0.  0.
        -11    1    1    2    0    0 -0.30641534192E+02 -0.55262756457E+02  0.11972878265E+03  0.13538041684E+03  0.00000000000E+00 0.  1.
         11    1    1    2    0    0  0.71239802093E+02  0.11991342029E+03 -0.47285069860E+03  0.49299302321E+03  0.00000000000E+00 0.  1.
        -15    1    3    3    0    0 -0.42984786405E+02  0.70422717575E+01  0.11778185512E+03  0.12559063890E+03  0.17770000000E+01 0.  1.
         15    1    3    3    0    0  0.23865185036E+01 -0.71692935591E+02  0.23534006084E+03  0.24603592105E+03  0.17770000000E+01 0. -1.
</event>
<event>
 7    1  0.3260141E-006  0.4401005E+03  0.7546771E-02  0.9544815E-01
        -11   -1    0    0    0    0  0.00000000000E+00  0.00000000000E+00  0.50000000000E+03  0.50000000000E+03  0.00000000000E+00 0.  1.
         11   -1    0    0    0    0 -0.00000000000E+00 -0.00000000000E+00 -0.50000000000E+03  0.50000000000E+03  0.00000000000E+00 0. -1.
         23    2    1    2    0    0 -0.40960502608E+02  0.27901059582E+02  0.41821660738E+03  0.42995305609E+03  0.86592539236E+02 0.  0.
        -11    1    1    2    0    0  0.11364194286E+03  0.32487262402E+02  0.21636082996E+02  0.12015836834E+03  0.00000000000E+00 0.  1.
         11    1    1    2    0    0 -0.72681440251E+02 -0.60388321984E+02 -0.43985269038E+03  0.44988857557E+03  0.00000000000E+00 0. -1.
        -15    1    3    3    0    0  0.21682739019E+02 -0.12613136071E+02  0.10621707803E+03  0.10915336810E+03  0.17770000000E+01 0. -1.
         15    1    3    3    0    0 -0.62643241627E+02  0.40514195654E+02  0.31199952936E+03  0.32079968800E+03  0.17770000000E+01 0.  1.
</event>
<event>
 7    1  0.3260141E-006  0.3876905E+03  0.7546771E-02  0.9693487E-01
        -11   -1    0    0    0    0  0.00000000000E+00  0.00000000000E+00  0.50000000000E+03  0.50000000000E+03  0.00000000000E+00 0. -1.
         11   -1    0    0    0    0 -0.00000000000E+00 -0.00000000000E+00 -0.50000000000E+03  0.50000000000E+03  0.00000000000E+00 0. -1.
         23    2    1    2    0    0 -0.11330402982E+03 -0.55008870559E+02  0.13126643082E+03  0.20356398555E+03  0.91343534745E+02 0.  0.
        -11    1    1    2    0    0  0.30281130905E+03  0.81753407700E+02  0.22909172541E+03  0.38840871155E+03  0.00000000000E+00 0. -1.
         11    1    1    2    0    0 -0.18950727922E+03 -0.26744537141E+02 -0.36035815623E+03  0.40802730290E+03  0.00000000000E+00 0. -1.
        -15    1    3    3    0    0 -0.89665032892E+02 -0.59655923177E+02  0.49940226219E+02  0.11872586583E+03  0.17770000000E+01 0. -1.
         15    1    3    3    0    0 -0.23638996930E+02  0.46470526183E+01  0.81326204602E+02  0.84838119722E+02  0.17770000000E+01 0.  1.
</event>
<event>
 7    1  0.3260141E-006  0.5291667E+03  0.7546771E-02  0.9336813E-01
        -11   -1    0    0    0    0  0.00000000000E+00  0.00000000000E+00  0.50000000000E+03  0.50000000000E+03  0.00000000000E+00 0.  1.
         11   -1    0    0    0    0 -0.00000000000E+00 -0.00000000000E+00 -0.50000000000E+03  0.50000000000E+03  0.00000000000E+00 0. -1.
         23    2    1    2    0    0  0.35859218628E+02  0.52670162308E+02  0.40492978502E+01  0.11238394953E+03  0.92486354344E+02 0.  0.
        -11    1    1    2    0    0  0.17587849026E+03  0.27726405355E+03  0.25670843879E+03  0.41678270270E+03  0.00000000000E+00 0.  1.
         11    1    1    2    0    0 -0.21173770889E+03 -0.32993421585E+03 -0.26075773664E+03  0.47083334777E+03  0.00000000000E+00 0. -1.
        -15    1    3    3    0    0  0.39764687333E+01  0.45764753708E+02  0.42027428915E+02  0.62287137482E+02  0.17770000000E+01 0.  1.
         15    1    3    3    0    0  0.31882749895E+02  0.69054085999E+01 -0.37978131065E+02  0.50096812044E+02  0.17770000000E+01 0. -1.
</event>
<event>
 6    1  0.3260141E-006  0.4827673E+03  0.7546771E-02  0.9439217E-01
        -11   -1    0    0    0    0  0.00000000000E+00  0.00000000000E+00  0.50000000000E+03  0.50000000000E+03  0.00000000000E+00 0. -1.
         11   -1    0    0    0    0 -0.00000000000E+00 -0.00000000000E+00 -0.50000000000E+03  0.50000000000E+03  0.00000000000E+00 0. -1.
        -11    1    1    2    0    0  0.12599316236E+02  0.54895212842E+02  0.88603296183E+01  0.57015196251E+02  0.00000000000E+00 0. -1.
         11    1    1    2    0    0 -0.39731726998E+02 -0.90553685541E+02 -0.45717924870E+03  0.46775147839E+03  0.00000000000E+00 0. -1.
        -15    1    1    2    0    0 -0.80345053146E+01  0.89654364577E+02  0.30654086303E+03  0.31948852374E+03  0.17770000000E+01 0. -1.
         15    1    1    2    0    0  0.35166916077E+02 -0.53995891878E+02  0.14177805605E+03  0.15574480162E+03  0.17770000000E+01 0.  1.
</event>
<event>
 7    1  0.3260141E-006  0.4242088E+03  0.7546771E-02  0.9587458E-01
        -11   -1    0    0    0    0  0.00000000000E+00  0.00000000000E+00  0.50000000000E+03  0.50000000000E+03  0.00000000000E+00 0.  1.
         11   -1    0    0    0    0 -0.00000000000E+00 -0.00000000000E+00 -0.50000000000E+03  0.50000000000E+03  0.00000000000E+00 0.  1.
         23    2    1    2    0    0 -0.66407360800E+01 -0.26234741436E+02  0.42086257536E+03  0.43120219599E+03  0.89875833521E+02 0.  0.
        -11    1    1    2    0    0  0.12374198962E+03  0.79001994091E+02 -0.20374854058E+02  0.14821784556E+03  0.00000000000E+00 0.  1.
         11    1    1    2    0    0 -0.11710125354E+03 -0.52767252655E+02 -0.40048772130E+03  0.42057995845E+03  0.00000000000E+00 0.  1.
        -15    1    3    3    0    0 -0.43091463518E+02 -0.34545003400E+02  0.28330515468E+03  0.28864372483E+03  0.17770000000E+01 0.  1.
         15    1    3    3    0    0  0.36450727438E+02  0.83102619639E+01  0.13755742069E+03  0.14255847116E+03  0.17770000000E+01 0. -1.
</event>
<event>
 7    1  0.3260141E-006  0.5268500E+03  0.7546771E-02  0.9341657E-01
        -11   -1    0    0    0    0  0.00000000000E+00  0.00000000000E+00  0.50000000000E+03  0.50000000000E+03  0.00000000000E+00 0.  1.
         11   -1    0    0    0    0 -0.00000000000E+00 -0.00000000000E+00 -0.50000000000E+03  0.50000000000E+03  0.00000000000E+00 0. -1.
         23    2    1    2    0    0  0.52040119097E+02  0.88404199483E+02 -0.12106935856E+03  0.19053631337E+03  0.10546478393E+03 0.  0.
        -11    1    1    2    0    0 -0.10711236051E+03 -0.85679787934E+02  0.45283206462E+03  0.47315004236E+03  0.00000000000E+00 0.  1.
         11    1    1    2    0    0  0.55072241409E+02 -0.27244115484E+01 -0.33176270606E+03  0.33631364427E+03  0.00000000000E+00 0. -1.
        -15    1    3    3    0    0  0.66986144062E+01  0.67975536222E+02 -0.12303473979E+03  0.14073467903E+03  0.17770000000E+01 0. -1.
         15    1    3    3    0    0  0.45341504691E+02  0.20428663261E+02  0.19653812239E+01  0.49801634336E+02  0.17770000000E+01 0.  1.
</event>
<event>
 7    1  0.3260141E-006  0.5331871E+03  0.7546771E-02  0.9328467E-01
        -11   -1    0    0    0    0  0.00000000000E+00  0.00000000000E+00  0.50000000000E+03  0.50000000000E+03  0.00000000000E+00 0.  1.
         11   -1    0    0    0    0 -0.00000000000E+00 -0.00000000000E+00 -0.50000000000E+03  0.50000000000E+03  0.00000000000E+00 0. -1.
         23    2    1    2    0    0  0.21055462315E+02  0.85320551275E+02  0.29329431703E+03  0.31779814598E+03  0.85153838562E+02 0.  0.
        -11    1    1    2    0    0 -0.11902907412E+03 -0.75183498902E+02  0.16300897096E+03  0.21538895888E+03  0.00000000000E+00 0.  1.
         11    1    1    2    0    0  0.97973611803E+02 -0.10137052373E+02 -0.45630328799E+03  0.46681289514E+03  0.00000000000E+00 0. -1.
        -15    1    3    3    0    0  0.25017363297E+02  0.12964418261E+02  0.18861525006E+02  0.33953784203E+02  0.17770000000E+01 0. -1.
         15    1    3    3    0    0 -0.39619009823E+01  0.72356133014E+02  0.27443279202E+03  0.28384436177E+03  0.17770000000E+01 0.  1.
</event>
<event>
 7    1  0.3260141E-006  0.4617595E+03  0.7546771E-02  0.9489691E-01
        -11   -1    0    0    0    0  0.00000000000E+00  0.00000000000E+00  0.50000000000E+03  0.50000000000E+03  0.00000000000E+00 0.  1.
         11   -1    0    0    0    0 -0.00000000000E+00 -0.00000000000E+00 -0.50000000000E+03  0.50000000000E+03  0.00000000000E+00 0. -1.
         23    2    1    2    0    0  0.14295638751E+02  0.58852314744E+02  0.41535761701E+03  0.43014995829E+03  0.94016362286E+02 0.  0.
        -11    1    1    2    0    0  0.45322537267E+02  0.35278752660E+02  0.59143709722E+02  0.82442108011E+02  0.00000000000E+00 0.  1.
         11    1    1    2    0    0 -0.59618176018E+02 -0.94131067404E+02 -0.47450132673E+03  0.48740793370E+03  0.00000000000E+00 0. -1.
        -15    1    3    3    0    0 -0.15068636088E+02 -0.17648086837E+02  0.43165775194E+02  0.49040398038E+02  0.17770000000E+01 0. -1.
         15    1    3    3    0    0  0.29364274840E+02  0.76500401580E+02  0.37219184181E+03  0.38110956026E+03  0.17770000000E+01 0.  1.
</event>
<event>
 7    1  0.3260141E-006  0.5137298E+03  0.7546771E-02  0.9369602E-01
        -11   -1    0    0    0    0  0.00000000000E+00  0.00000000000E+00  0.50000000000E+03  0.50000000000E+03  0.00000000000E+00 0. -1.
         11   -1    0    0    0    0 -0.00000000000E+00 -0.00000000000E+00 -0.50000000000E+03  0.50000000000E+03  0.00000000000E+00 0.  1.
         23    2    1    2    0    0 -0.28359707210E+01  0.11296223979E+03 -0.20968820057E+03  0.25467449894E+03  0.90119080121E+02 0.  0.
        -11    1    1    2    0    0  0.52914072548E+02 -0.14128443660E+03  0.46227424167E+03  0.48627015702E+03  0.00000000000E+00 0. -1.
         11    1    1    2    0    0 -0.50078101827E+02  0.28322196804E+02 -0.25258604110E+03  0.25905534403E+03  0.00000000000E+00 0.  1.
        -15    1    3    3    0    0  0.27757654337E+02  0.10990834458E+03 -0.17200010195E+03  0.20600369992E+03  0.17770000000E+01 0.  1.
         15    1    3    3    0    0 -0.30593625058E+02  0.30538952169E+01 -0.37688098622E+02  0.48670799017E+02  0.17770000000E+01 0. -1.
</event>
<event>
 7    1  0.3260141E-006  0.4061417E+03  0.7546771E-02  0.9638426E-01
        -11   -1    0    0    0    0  0.00000000000E+00  0.00000000000E+00  0.50000000000E+03  0.50000000000E+03  0.00000000000E+00 0.  1.
         11   -1    0    0    0    0 -0.00000000000E+00 -0.00000000000E+00 -0.50000000000E+03  0.50000000000E+03  0.00000000000E+00 0. -1.
         23    2    1    2    0    0 -0.70701316899E+02  0.29011322869E+02 -0.35003777486E+03  0.36966597067E+03  0.91028308658E+02 0.  0.
        -11    1    1    2    0    0  0.10517164371E+03 -0.19902366287E+03  0.39184069204E+03  0.45189669280E+03  0.00000000000E+00 0.  1.
         11    1    1    2    0    0 -0.34470326814E+02  0.17001234000E+03 -0.41802917177E+02  0.17843733653E+03  0.00000000000E+00 0. -1.
        -15    1    3    3    0    0 -0.64498817754E+02 -0.21099539849E+02 -0.18468293533E+03  0.19676440838E+03  0.17770000000E+01 0. -1.
         15    1    3    3    0    0 -0.62024991447E+01  0.50110862718E+02 -0.16535483953E+03  0.17290156229E+03  0.17770000000E+01 0.  1.
</event>
<event>
 7    1  0.3260141E-006  0.5152378E+03  0.7546771E-02  0.9366345E-01
        -11   -1    0    0    0    0  0.00000000000E+00  0.00000000000E+00  0.50000000000E+03  0.50000000000E+03  0.00000000000E+00 0.  1.
         11   -1    0    0    0    0 -0.00000000000E+00 -0.00000000000E+00 -0.50000000000E+03  0.50000000000E+03  0.00000000000E+00 0. -1.
         23    2    1    2    0    0  0.41436492659E+02  0.32628254014E+02 -0.12548436547E+03  0.16381251427E+03  0.91140704243E+02 0.  0.
        -11    1    1    2    0    0 -0.10669537784E+03 -0.18759392754E+03  0.43407255082E+03  0.48476217332E+03  0.00000000000E+00 0.  1.
         11    1    1    2    0    0  0.65258885180E+02  0.15496567353E+03 -0.30858818535E+03  0.35142531242E+03  0.00000000000E+00 0. -1.
        -15    1    3    3    0    0  0.93259155482E+01 -0.26635272121E+02 -0.73254641834E+02  0.78522676349E+02  0.17770000000E+01 0.  1.
         15    1    3    3    0    0  0.32110577111E+02  0.59263526135E+02 -0.52229723634E+02  0.85289837919E+02  0.17770000000E+01 0. -1.
</event>
<event>
 7    1  0.3260141E-006  0.5070638E+03  0.7546771E-02  0.9384141E-01
        -11   -1    0    0    0    0  0.00000000000E+00  0.00000000000E+00  0.50000000000E+03  0.50000000000E+03  0.00000000000E+00 0. -1.
         11   -1    0    0    0    0 -0.00000000000E+00 -0.00000000000E+00 -0.50000000000E+03  0.50000000000E+03  0.00000000000E+00 0.  1.
         23    2    1    2    0    0 -0.51945140803E+02  0.11287477240E+03 -0.33343812979E+03  0.36754446965E+03  0.92026837788E+02 0.  0.
        -11    1    1    2    0    0  0.99504765196E+02 -0.16609993159E+03  0.45331639029E+03  0.49293623855E+03  0.00000000000E+00 0. -1.
         11    1    1    2    0    0 -0.47559624393E+02  0.53225159191E+02 -0.11987826050E+03  0.13951929180E+03  0.00000000000E+00 0.  1.
        -15    1    3    3    0    0 -0.28530965368E+02  0.68685314851E+02 -0.80134365113E+02  0.10934515381E+03  0.17770000000E+01 0. -1.
         15    1    3    3    0    0 -0.23414175434E+02  0.44189457551E+02 -0.25330376468E+03  0.25819931584E+03  0.17770000000E+01 0.  1.
</event>
<event>
 7    1  0.3260141E-006  0.4034796E+03  0.7546771E-02  0.9646175E-01
        -11   -1    0    0    0    0  0.00000000000E+00  0.00000000000E+00  0.50000000000E+03  0.50000000000E+03  0.00000000000E+00 0. -1.
         11   -1    0    0    0    0 -0.00000000000E+00 -0.00000000000E+00 -0.50000000000E+03  0.50000000000E+03  0.00000000000E+00 0.  1.
         23    2    1    2    0    0 -0.13289380677E+03  0.62616860346E+02 -0.26459249566E+02  0.17935090853E+03  0.99423445054E+02 0.  0.
        -11    1    1    2    0    0  0.11307492424E+03 -0.18672883173E+03  0.38397181222E+03  0.44168761322E+03  0.00000000000E+00 0. -1.
         11    1    1    2    0    0  0.19818882532E+02  0.12411197139E+03 -0.35751256265E+03  0.37896147825E+03  0.00000000000E+00 0.  1.
        -15    1    3    3    0    0 -0.49753104150E+02  0.65177871057E+02  0.19498742130E+02  0.84302342327E+02  0.17770000000E+01 0. -1.
         15    1    3    3    0    0 -0.83140702619E+02 -0.25610107112E+01 -0.45957991696E+02  0.95048566205E+02  0.17770000000E+01 0.  1.
</event>
<event>
 7    1  0.3260141E-006  0.4745465E+03  0.7546771E-02  0.9458637E-01
        -11   -1    0    0    0    0  0.00000000000E+00  0.00000000000E+00  0.50000000000E+03  0.50000000000E+03  0.00000000000E+00 0.  1.
         11   -1    0    0    0    0 -0.00000000000E+00 -0.00000000000E+00 -0.50000000000E+03  0.50000000000E+03  0.00000000000E+00 0. -1.
         23    2    1    2    0    0 -0.74732017795E+02 -0.10546084068E+03  0.44064028673E+03  0.46812822400E+03  0.90957728696E+02 0.  0.
        -11    1    1    2    0    0  0.23969345283E+02  0.45445617613E+02  0.26744498673E+02  0.57923241301E+02  0.00000000000E+00 0.  1.
         11    1    1    2    0    0  0.50762672512E+02  0.60015223072E+02 -0.46738478540E+03  0.47394853470E+03  0.00000000000E+00 0. -1.
        -15    1    3    3    0    0 -0.31873449730E+02 -0.11022662092E+03  0.31139523497E+03  0.33186740552E+03  0.17770000000E+01 0.  1.
         15    1    3    3    0    0 -0.42858568065E+02  0.47657802304E+01  0.12924505176E+03  0.13626081847E+03  0.17770000000E+01 0. -1.
</event>
<event>
 7    1  0.3260141E-006  0.4171795E+03  0.7546771E-02  0.9606960E-01
        -11   -1    0    0    0    0  0.00000000000E+00  0.00000000000E+00  0.50000000000E+03  0.50000000000E+03  0.00000000000E+00 0. -1.
         11   -1    0    0    0    0 -0.00000000000E+00 -0.00000000000E+00 -0.50000000000E+03  0.50000000000E+03  0.00000000000E+00 0.  1.
         23    2    1    2    0    0 -0.12673306917E+03 -0.16684135849E+03  0.38702627388E+03  0.44958707132E+03  0.91879749146E+02 0.  0.
        -11    1    1    2    0    0  0.77007578821E+01  0.15945970317E+03 -0.15712792592E+02  0.16041692697E+03  0.00000000000E+00 0. -1.
         11    1    1    2    0    0  0.11903231129E+03  0.73816553220E+01 -0.37131348129E+03  0.38999600171E+03  0.00000000000E+00 0.  1.
        -15    1    3    3    0    0 -0.71493251007E+02 -0.56497862966E+02  0.24516811983E+03  0.26156042929E+03  0.17770000000E+01 0. -1.
         15    1    3    3    0    0 -0.55239818162E+02 -0.11034349552E+03  0.14185815404E+03  0.18802664203E+03  0.17770000000E+01 0.  1.
</event>
<event>
 7    1  0.3260141E-006  0.5075241E+03  0.7546771E-02  0.9383130E-01
        -11   -1    0    0    0    0  0.00000000000E+00  0.00000000000E+00  0.50000000000E+03  0.50000000000E+03  0.00000000000E+00 0. -1.
         11   -1    0    0    0    0 -0.00000000000E+00 -0.00000000000E+00 -0.50000000000E+03  0.50000000000E+03  0.00000000000E+00 0.  1.
         23    2    1    2    0    0  0.64218132384E+02 -0.12010710663E+03 -0.37431181961E+03  0.40877264143E+03  0.91847964009E+02 0.  0.
        -11    1    1    2    0    0 -0.11166590760E+03  0.15010127649E+03  0.45555776109E+03  0.49247593019E+03  0.00000000000E+00 0. -1.
         11    1    1    2    0    0  0.47447775217E+02 -0.29994169864E+02 -0.81245941483E+02  0.98751428376E+02  0.00000000000E+00 0.  1.
        -15    1    3    3    0    0  0.83700949828E+02 -0.70206861150E+02 -0.27520185752E+03  0.29609807913E+03  0.17770000000E+01 0. -1.
         15    1    3    3    0    0 -0.19482817444E+02 -0.49900245480E+02 -0.99109962091E+02  0.11267456230E+03  0.17770000000E+01 0.  1.
</event>
<event>
 7    1  0.3260141E-006  0.4510724E+03  0.7546771E-02  0.9516479E-01
        -11   -1    0    0    0    0  0.00000000000E+00  0.00000000000E+00  0.50000000000E+03  0.50000000000E+03  0.00000000000E+00 0. -1.
         11   -1    0    0    0    0 -0.00000000000E+00 -0.00000000000E+00 -0.50000000000E+03  0.50000000000E+03  0.00000000000E+00 0. -1.
         23    2    1    2    0    0  0.10657600850E+03  0.44292670620E+02  0.45743455010E+03  0.48076537666E+03  0.92567237778E+02 0.  0.
        -11    1    1    2    0    0 -0.74394550036E+02  0.46729355834E+02 -0.51196388641E+02  0.10168211240E+03  0.00000000000E+00 0. -1.
         11    1    1    2    0    0 -0.32181458466E+02 -0.91022026453E+02 -0.40623816146E+03  0.41755251094E+03  0.00000000000E+00 0. -1.
        -15    1    3    3    0    0  0.69913232995E+02  0.40704039480E+00  0.36807093104E+03  0.37465636767E+03  0.17770000000E+01 0. -1.
         15    1    3    3    0    0  0.36662775506E+02  0.43885630225E+02  0.89363619056E+02  0.10610900899E+03  0.17770000000E+01 0.  1.
</event>
<event>
 7    1  0.3260141E-006  0.5181231E+03  0.7546771E-02  0.9360147E-01
        -11   -1    0    0    0    0  0.00000000000E+00  0.00000000000E+00  0.50000000000E+03  0.50000000000E+03  0.00000000000E+00 0. -1.
         11   -1    0    0    0    0 -0.00000000000E+00 -0.00000000000E+00 -0.50000000000E+03  0.50000000000E+03  0.00000000000E+00 0.  1.
         23    2    1    2    0    0 -0.75271464353E+02 -0.28301794418E+02  0.33915795386E+03  0.36036355523E+03  0.91471248827E+02 0.  0.
        -11    1    1    2    0    0 -0.12275876521E+03 -0.27314803165E+01  0.99050059323E+02  0.15775959455E+03  0.00000000000E+00 0. -1.
         11    1    1    2    0    0  0.19803022956E+03  0.31033274734E+02 -0.43820801318E+03  0.48187685022E+03  0.00000000000E+00 0.  1.
        -15    1    3    3    0    0 -0.49276891437E+02  0.13720249205E+02  0.27307782329E+03  0.27783288605E+03  0.17770000000E+01 0. -1.
         15    1    3    3    0    0 -0.25994572915E+02 -0.42022043622E+02  0.66080130569E+02  0.82530669186E+02  0.17770000000E+01 0.  1.
</event>
<event>
 7    1  0.3260141E-006  0.5303026E+03  0.7546771E-02  0.9334447E-01
        -11   -1    0    0    0    0  0.00000000000E+00  0.00000000000E+00  0.50000000000E+03  0.50000000000E+03  0.00000000000E+00 0.  1.
         11   -1    0    0    0    0 -0.00000000000E+00 -0.00000000000E+00 -0.50000000000E+03  0.50000000000E+03  0.00000000000E+00 0.  1.
         23    2    1    2    0    0 -0.12247103600E+03 -0.49386444864E+02  0.34490229943E+03  0.38727189287E+03  0.11654933404E+03 0.  0.
        -11    1    1    2    0    0  0.97624122079E+01  0.92005289833E+02  0.10907570817E+03  0.14303072454E+03  0.00000000000E+00 0.  1.
         11    1    1    2    0    0  0.11270862379E+03 -0.42618844968E+02 -0.45397800760E+03  0.46969738258E+03  0.00000000000E+00 0.  1.
        -15    1    3    3    0    0 -0.10787576384E+03 -0.74051892942E+01  0.31657368106E+03  0.33453560427E+03  0.17770000000E+01 0. -1.
         15    1    3    3    0    0 -0.14595272162E+02 -0.41981255570E+02  0.28328618366E+02  0.52736288609E+02  0.17770000000E+01 0.  1.
</event>
<event>
 7    1  0.3260141E-006  0.4333751E+03  0.7546771E-02  0.9562624E-01
        -11   -1    0    0    0    0  0.00000000000E+00  0.00000000000E+00  0.50000000000E+03  0.50000000000E+03  0.00000000000E+00 0.  1.
         11   -1    0    0    0    0 -0.00000000000E+00 -0.00000000000E+00 -0.50000000000E+03  0.50000000000E+03  0.00000000000E+00 0. -1.
         23    2    1    2    0    0  0.55319814999E+02 -0.69717520455E+02  0.87570524521E+01  0.12864858345E+03  0.92482200804E+02 0.  0.
        -11    1    1    2    0    0 -0.70947122671E+01  0.17970676609E+03  0.40360224815E+03  0.44185928917E+03  0.00000000000E+00 0.  1.
         11    1    1    2    0    0 -0.48225102732E+02 -0.10998924563E+03 -0.41235930060E+03  0.42949212738E+03  0.00000000000E+00 0. -1.
        -15    1    3    3    0    0 -0.14061794570E+02 -0.25981825187E+02 -0.26151466876E+02  0.39494888977E+02  0.17770000000E+01 0. -1.
         15    1    3    3    0    0  0.69381609569E+02 -0.43735695269E+02  0.34908519329E+02  0.89153694471E+02  0.17770000000E+01 0.  1.
</event>
<event>
 7    1  0.3260141E-006  0.5204920E+03  0.7546771E-02  0.9355090E-01
        -11   -1    0    0    0    0  0.00000000000E+00  0.00000000000E+00  0.50000000000E+03  0.50000000000E+03  0.00000000000E+00 0.  1.
         11   -1    0    0    0    0 -0.00000000000E+00 -0.00000000000E+00 -0.50000000000E+03  0.50000000000E+03  0.00000000000E+00 0. -1.
         23    2    1    2    0    0  0.19900456989E+02  0.52479020901E+02  0.38916252375E+03  0.40388199524E+03  0.92320747202E+02 0.  0.
        -11    1    1    2    0    0  0.90090874180E+02  0.99709211321E+01  0.73362925155E+02  0.11661004959E+03  0.00000000000E+00 0.  1.
         11    1    1    2    0    0 -0.10999133117E+03 -0.62449942033E+02 -0.46252544890E+03  0.47950795517E+03  0.00000000000E+00 0. -1.
        -15    1    3    3    0    0 -0.32979435028E+02  0.35350919875E+02  0.12738531145E+03  0.13626263601E+03  0.17770000000E+01 0. -1.
         15    1    3    3    0    0  0.52879892018E+02  0.17128101025E+02  0.26177721229E+03  0.26761935922E+03  0.17770000000E+01 0.  1.
</event>
<event>
 7    1  0.3260141E-006  0.5271158E+03  0.7546771E-02  0.9341100E-01
        -11   -1    0    0    0    0  0.00000000000E+00  0.00000000000E+00  0.50000000000E+03  0.50000000000E+03  0.00000000000E+00 0. -1.
         11   -1    0    0    0    0 -0.00000000000E+00 -0.00000000000E+00 -0.50000000000E+03  0.50000000000E+03  0.00000000000E+00 0.  1.
         23    2    1    2    0    0  0.62052122197E+02 -0.20783077426E+03 -0.30035408103E+03  0.38098698712E+03  0.88850513594E+02 0.  0.
        -11    1    1    2    0    0  0.38105226489E+02  0.27569901427E+03  0.38230551872E+03  0.47288419766E+03  0.00000000000E+00 0. -1.
         11    1    1    2    0    0 -0.10015734869E+03 -0.67868240015E+02 -0.81951437689E+02  0.14612881522E+03  0.00000000000E+00 0.  1.
        -15    1    3    3    0    0 -0.22023815362E+02 -0.31406553734E+02 -0.59456093620E+02  0.70778562137E+02  0.17770000000E+01 0.  1.
         15    1    3    3    0    0  0.84075937560E+02 -0.17642422052E+03 -0.24089798741E+03  0.31020842498E+03  0.17770000000E+01 0. -1.
</event>
<event>
 7    1  0.3260141E-006  0.5124366E+03  0.7546771E-02  0.9372404E-01
        -11   -1    0    0    0    0  0.00000000000E+00  0.00000000000E+00  0.50000000000E+03  0.50000000000E+03  0.00000000000E+00 0. -1.
         11   -1    0    0    0    0 -0.00000000000E+00 -0.00000000000E+00 -0.50000000000E+03  0.50000000000E+03  0.00000000000E+00 0. -1.
         23    2    1    2    0    0 -0.59191608697E+02  0.26463216306E+02  0.47433816921E+03  0.48756335274E+03  0.92289630010E+02 0.  0.
        -11    1    1    2    0    0  0.54621670134E+02 -0.92888507789E+02 -0.17288520167E+03  0.20371817465E+03  0.00000000000E+00 0. -1.
         11    1    1    2    0    0  0.45699385627E+01  0.66425291484E+02 -0.30145296754E+03  0.30871847260E+03  0.00000000000E+00 0. -1.
        -15    1    3    3    0    0 -0.39553914430E+02  0.57339873823E+02  0.38048818367E+03  0.38681622111E+03  0.17770000000E+01 0. -1.
         15    1    3    3    0    0 -0.19637694267E+02 -0.30876657517E+02  0.93849985545E+02  0.10074713163E+03  0.17770000000E+01 0.  1.
</event>
<event>
 7    1  0.3260141E-006  0.4354490E+03  0.7546771E-02  0.9557096E-01
        -11   -1    0    0    0    0  0.00000000000E+00  0.00000000000E+00  0.50000000000E+03  0.50000000000E+03  0.00000000000E+00 0.  1.
         11   -1    0    0    0    0 -0.00000000000E+00 -0.00000000000E+00 -0.50000000000E+03  0.50000000000E+03  0.00000000000E+00 0. -1.
         23    2    1    2    0    0  0.11455077856E+03  0.22568551941E+01  0.39703853840E+03  0.42198533046E+03  0.85469549438E+02 0.  0.
        -11    1    1    2    0    0 -0.69159472962E+02 -0.10025979235E+03  0.39710681147E+02  0.12810931606E+03  0.00000000000E+00 0.  1.
         11    1    1    2    0    0 -0.45391305599E+02  0.98002937159E+02 -0.43674921955E+03  0.44990535348E+03  0.00000000000E+00 0. -1.
        -15    1    3    3    0    0  0.50350656241E+02  0.42974815697E+02  0.16450179711E+03  0.17733026349E+03  0.17770000000E+01 0. -1.
         15    1    3    3    0    0  0.64200122320E+02 -0.40717960502E+02  0.23253674129E+03  0.24465506697E+03  0.17770000000E+01 0.  1.
</event>
<event>
 7    1  0.3260141E-006  0.4341179E+03  0.7546771E-02  0.9560640E-01
        -11   -1    0    0    0    0  0.00000000000E+00  0.00000000000E+00  0.50000000000E+03  0.50000000000E+03  0.00000000000E+00 0. -1.
         11   -1    0    0    0    0 -0.00000000000E+00 -0.00000000000E+00 -0.50000000000E+03  0.50000000000E+03  0.00000000000E+00 0. -1.
         23    2    1    2    0    0  0.99338540391E+02 -0.37407330297E+02  0.42678525262E+03  0.44917388754E+03  0.91345910802E+02 0.  0.
        -11    1    1    2    0    0  0.10991147967E+03 -0.22911174445E+02 -0.68411522858E+02  0.13147468097E+03  0.00000000000E+00 0. -1.
         11    1    1    2    0    0 -0.20925002006E+03  0.60318504742E+02 -0.35837372976E+03  0.41935143149E+03  0.00000000000E+00 0. -1.
        -15    1    3    3    0    0  0.69533685561E+02 -0.35145880487E+01  0.37058273736E+03  0.37707029679E+03  0.17770000000E+01 0. -1.
         15    1    3    3    0    0  0.29804854830E+02 -0.33892742248E+02  0.56202515259E+02  0.72103590749E+02  0.17770000000E+01 0.  1.
</event>
<event>
 7    1  0.3260141E-006  0.4003594E+03  0.7546771E-02  0.9655339E-01
        -11   -1    0    0    0    0  0.00000000000E+00  0.00000000000E+00  0.50000000000E+03  0.50000000000E+03  0.00000000000E+00 0. -1.
         11   -1    0    0    0    0 -0.00000000000E+00 -0.00000000000E+00 -0.50000000000E+03  0.50000000000E+03  0.00000000000E+00 0.  1.
         23    2    1    2    0    0  0.40487680721E+02 -0.37356799499E+02  0.44909875749E+03  0.46189623827E+03  0.92863653754E+02 0.  0.
        -11    1    1    2    0    0  0.24227358332E+02  0.14168272607E+03 -0.12134104593E+03  0.18810797215E+03  0.00000000000E+00 0. -1.
         11    1    1    2    0    0 -0.64715039053E+02 -0.10432592657E+03 -0.32775771156E+03  0.34999578958E+03  0.00000000000E+00 0.  1.
        -15    1    3    3    0    0 -0.23782429813E+02 -0.16110951632E+02  0.55534193759E+02  0.62548949918E+02  0.17770000000E+01 0.  1.
         15    1    3    3    0    0  0.64270110534E+02 -0.21245847866E+02  0.39356456373E+03  0.39934728835E+03  0.17770000000E+01 0. -1.
</event>
<event>
 7    1  0.3260141E-006  0.5169263E+03  0.7546771E-02  0.9362712E-01
        -11   -1    0    0    0    0  0.00000000000E+00  0.00000000000E+00  0.50000000000E+03  0.50000000000E+03  0.00000000000E+00 0.  1.
         11   -1    0    0    0    0 -0.00000000000E+00 -0.00000000000E+00 -0.50000000000E+03  0.50000000000E+03  0.00000000000E+00 0. -1.
         23    2    1    2    0    0  0.59558186882E+02  0.58299007159E+02 -0.27907177773E+03  0.31090002363E+03  0.10877414999E+03 0.  0.
        -11    1    1    2    0    0 -0.95427423383E+02 -0.53351357809E+00  0.47355411760E+03  0.48307367975E+03  0.00000000000E+00 0.  1.
         11    1    1    2    0    0  0.35869236501E+02 -0.57765493581E+02 -0.19448233987E+03  0.20602629662E+03  0.00000000000E+00 0. -1.
        -15    1    3    3    0    0 -0.26474097664E+02  0.39136477403E+02 -0.75857392148E+02  0.89387042591E+02  0.17770000000E+01 0.  1.
         15    1    3    3    0    0  0.86032284547E+02  0.19162529756E+02 -0.20321438558E+03  0.22151298104E+03  0.17770000000E+01 0. -1.
</event>
<event>
 7    1  0.3260141E-006  0.5271470E+03  0.7546771E-02  0.9341035E-01
        -11   -1    0    0    0    0  0.00000000000E+00  0.00000000000E+00  0.50000000000E+03  0.50000000000E+03  0.00000000000E+00 0. -1.
         11   -1    0    0    0    0 -0.00000000000E+00 -0.00000000000E+00 -0.50000000000E+03  0.50000000000E+03  0.00000000000E+00 0.  1.
         23    2    1    2    0    0 -0.16371481174E+03 -0.20021917217E+01  0.33436421619E+02  0.19028577203E+03  0.91017209328E+02 0.  0.
        -11    1    1    2    0    0  0.44336427455E+03 -0.13138265887E+03  0.98776016510E+02  0.47285302626E+03  0.00000000000E+00 0. -1.
         11    1    1    2    0    0 -0.27964946282E+03  0.13338485059E+03 -0.13221243813E+03  0.33686120171E+03  0.00000000000E+00 0.  1.
        -15    1    3    3    0    0 -0.10729074025E+03 -0.36050302680E+02 -0.61890492301E+01  0.11336837886E+03  0.17770000000E+01 0.  1.
         15    1    3    3    0    0 -0.56424071486E+02  0.34048110959E+02  0.39625470849E+02  0.76917393169E+02  0.17770000000E+01 0. -1.
</event>
<event>
 7    1  0.3260141E-006  0.5192177E+03  0.7546771E-02  0.9357807E-01
        -11   -1    0    0    0    0  0.00000000000E+00  0.00000000000E+00  0.50000000000E+03  0.50000000000E+03  0.00000000000E+00 0.  1.
         11   -1    0    0    0    0 -0.00000000000E+00 -0.00000000000E+00 -0.50000000000E+03  0.50000000000E+03  0.00000000000E+00 0.  1.
         23    2    1    2    0    0  0.14228417706E+02 -0.10101710188E+02  0.29132543454E+03  0.30556796496E+03  0.90536070053E+02 0.  0.
        -11    1    1    2    0    0  0.10906119974E+03  0.71243885797E+02  0.16934035081E+03  0.21364969218E+03  0.00000000000E+00 0.  1.
         11    1    1    2    0    0 -0.12328961745E+03 -0.61142175609E+02 -0.46066578536E+03  0.48078234286E+03  0.00000000000E+00 0.  1.
        -15    1    3    3    0    0 -0.32401308360E+02  0.16743520960E+02  0.88918563310E+02  0.96124184822E+02  0.17770000000E+01 0. -1.
         15    1    3    3    0    0  0.46629726066E+02 -0.26845231148E+02  0.20240687123E+03  0.20944378014E+03  0.17770000000E+01 0.  1.
</event>
<event>
 7    1  0.3260141E-006  0.5119837E+03  0.7546771E-02  0.9373387E-01
        -11   -1    0    0    0    0  0.00000000000E+00  0.00000000000E+00  0.50000000000E+03  0.50000000000E+03  0.00000000000E+00 0. -1.
         11   -1    0    0    0    0 -0.00000000000E+00 -0.00000000000E+00 -0.50000000000E+03  0.50000000000E+03  0.00000000000E+00 0.  1.
         23    2    1    2    0    0  0.10679002144E+03  0.17997143234E+02 -0.29281088488E+03  0.33060374904E+03  0.10877784118E+03 0.  0.
        -11    1    1    2    0    0 -0.12285850885E+03 -0.60496451202E+02  0.46840783657E+03  0.48801632674E+03  0.00000000000E+00 0. -1.
         11    1    1    2    0    0  0.16068487410E+02  0.42499307968E+02 -0.17559695170E+03  0.18137992422E+03  0.00000000000E+00 0.  1.
        -15    1    3    3    0    0  0.12444914600E+02 -0.30699257694E+02 -0.22230341694E+02  0.39933271131E+02  0.17770000000E+01 0. -1.
         15    1    3    3    0    0  0.94345106837E+02  0.48696400928E+02 -0.27058054318E+03  0.29067047790E+03  0.17770000000E+01 0.  1.
</event>
<event>
 6    1  0.3260141E-006  0.5214956E+03  0.7546771E-02  0.9352956E-01
        -11   -1    0    0    0    0  0.00000000000E+00  0.00000000000E+00  0.50000000000E+03  0.50000000000E+03  0.00000000000E+00 0. -1.
         11   -1    0    0    0    0 -0.00000000000E+00 -0.00000000000E+00 -0.50000000000E+03  0.50000000000E+03  0.00000000000E+00 0.  1.
        -11    1    1    2    0    0  0.81089899593E+02  0.26297987710E+02  0.10841550447E+03  0.13791692276E+03  0.00000000000E+00 0. -1.
         11    1    1    2    0    0 -0.10997702692E+03 -0.10782256345E+03 -0.45304064090E+03  0.47850441372E+03  0.00000000000E+00 0.  1.
        -15    1    1    2    0    0  0.20143347410E+02  0.10002803170E+03  0.34809438874E+03  0.36274539662E+03  0.17770000000E+01 0. -1.
         15    1    1    2    0    0  0.87437799160E+01 -0.18503455955E+02 -0.34692523003E+01  0.20833266907E+02  0.17770000000E+01 0.  1.
</event>
<event>
 7    1  0.3260141E-006  0.5018116E+03  0.7546771E-02  0.9395765E-01
        -11   -1    0    0    0    0  0.00000000000E+00  0.00000000000E+00  0.50000000000E+03  0.50000000000E+03  0.00000000000E+00 0. -1.
         11   -1    0    0    0    0 -0.00000000000E+00 -0.00000000000E+00 -0.50000000000E+03  0.50000000000E+03  0.00000000000E+00 0. -1.
         23    2    1    2    0    0  0.50659978762E+01 -0.17960334943E+02  0.48944128134E+03  0.49818836383E+03  0.91052951683E+02 0.  0.
        -11    1    1    2    0    0  0.49576196648E+02  0.21759079344E+02 -0.19804937837E+03  0.20531637315E+03  0.00000000000E+00 0. -1.
         11    1    1    2    0    0 -0.54642194524E+02 -0.37987444007E+01 -0.29139190296E+03  0.29649526302E+03  0.00000000000E+00 0. -1.
        -15    1    3    3    0    0 -0.39646690849E+02 -0.25134389708E+02  0.27845590838E+03  0.28239059524E+03  0.17770000000E+01 0.  1.
         15    1    3    3    0    0  0.44712688726E+02  0.71740547648E+01  0.21098537296E+03  0.21579776859E+03  0.17770000000E+01 0. -1.
</event>
<event>
 7    1  0.3260141E-006  0.4734707E+03  0.7546771E-02  0.9461210E-01
        -11   -1    0    0    0    0  0.00000000000E+00  0.00000000000E+00  0.50000000000E+03  0.50000000000E+03  0.00000000000E+00 0. -1.
         11   -1    0    0    0    0 -0.00000000000E+00 -0.00000000000E+00 -0.50000000000E+03  0.50000000000E+03  0.00000000000E+00 0.  1.
         23    2    1    2    0    0 -0.43441776090E+02  0.31025194613E+02  0.43920542374E+03  0.45157731096E+03  0.90393102164E+02 0.  0.
        -11    1    1    2    0    0 -0.44027890800E+02  0.68903994590E+01  0.39965850488E+02  0.59859852809E+02  0.00000000000E+00 0. -1.
         11    1    1    2    0    0  0.87469666890E+02 -0.37915594072E+02 -0.47917127423E+03  0.48856283623E+03  0.00000000000E+00 0.  1.
        -15    1    3    3    0    0 -0.41560587746E+02 -0.23654675811E+02  0.25326976955E+03  0.25775096516E+03  0.17770000000E+01 0.  1.
         15    1    3    3    0    0 -0.18811883438E+01  0.54679870424E+02  0.18593565419E+03  0.19382634580E+03  0.17770000000E+01 0. -1.
</event>
<event>
 7    1  0.3260141E-006  0.4826477E+03  0.7546771E-02  0.9439496E-01
        -11   -1    0    0    0    0  0.00000000000E+00  0.00000000000E+00  0.50000000000E+03  0.50000000000E+03  0.00000000000E+00 0.  1.
         11   -1    0    0    0    0 -0.00000000000E+00 -0.00000000000E+00 -0.50000000000E+03  0.50000000000E+03  0.00000000000E+00 0. -1.
         23    2    1    2    0    0 -0.83619990289E+02 -0.64159587911E+02  0.44443760457E+03  0.46530394993E+03  0.88736835467E+02 0.  0.
        -11    1    1    2    0    0 -0.28706927454E+02 -0.37188441339E+01  0.30445917256E+02  0.42010372089E+02  0.00000000000E+00 0.  1.
         11    1    1    2    0    0  0.11232691774E+03  0.67878432044E+02 -0.47488352182E+03  0.49268567798E+03  0.00000000000E+00 0. -1.
        -15    1    3    3    0    0 -0.10254904643E+03 -0.56690464581E+02  0.37004812650E+03  0.38816090652E+03  0.17770000000E+01 0.  1.
         15    1    3    3    0    0  0.18929056140E+02 -0.74691233293E+01  0.74389478073E+02  0.77143043411E+02  0.17770000000E+01 0. -1.
</event>
<event>
 7    1  0.3260141E-006  0.3776297E+03  0.7546771E-02  0.9724910E-01
        -11   -1    0    0    0    0  0.00000000000E+00  0.00000000000E+00  0.50000000000E+03  0.50000000000E+03  0.00000000000E+00 0. -1.
         11   -1    0    0    0    0 -0.00000000000E+00 -0.00000000000E+00 -0.50000000000E+03  0.50000000000E+03  0.00000000000E+00 0.  1.
         23    2    1    2    0    0 -0.16701470586E+03  0.11508141617E+03 -0.23315551854E+03  0.32210335191E+03  0.90837377592E+02 0.  0.
        -11    1    1    2    0    0  0.24974655344E+03  0.32390678449E+02  0.37869955141E+03  0.45479209233E+03  0.00000000000E+00 0. -1.
         11    1    1    2    0    0 -0.82731847582E+02 -0.14747209462E+03 -0.14554403287E+03  0.22310455576E+03  0.00000000000E+00 0.  1.
        -15    1    3    3    0    0 -0.14228012111E+03  0.94769665797E+02 -0.13200160622E+03  0.21599190770E+03  0.17770000000E+01 0.  1.
         15    1    3    3    0    0 -0.24734584745E+02  0.20311750372E+02 -0.10115391232E+03  0.10611144421E+03  0.17770000000E+01 0. -1.
</event>
<event>
 7    1  0.3260141E-006  0.5237446E+03  0.7546771E-02  0.9348193E-01
        -11   -1    0    0    0    0  0.00000000000E+00  0.00000000000E+00  0.50000000000E+03  0.50000000000E+03  0.00000000000E+00 0. -1.
         11   -1    0    0    0    0 -0.00000000000E+00 -0.00000000000E+00 -0.50000000000E+03  0.50000000000E+03  0.00000000000E+00 0.  1.
         23    2    1    2    0    0 -0.55390053283E+02 -0.10796448429E+03  0.18905744512E+03  0.23774549012E+03  0.77819102055E+02 0.  0.
        -11    1    1    2    0    0 -0.12060200711E+02  0.58172507684E+02  0.27976064438E+03  0.28599913853E+03  0.00000000000E+00 0. -1.
         11    1    1    2    0    0  0.67450253994E+02  0.49791976610E+02 -0.46881808950E+03  0.47625537136E+03  0.00000000000E+00 0.  1.
        -15    1    3    3    0    0 -0.47938835288E+02 -0.83803739165E+02  0.18917996461E+03  0.21239918872E+03  0.17770000000E+01 0. -1.
         15    1    3    3    0    0 -0.74512179949E+01 -0.24160745128E+02 -0.12251949330E+00  0.25346301403E+02  0.17770000000E+01 0.  1.
</event>
<event>
 7    1  0.3260141E-006  0.4007306E+03  0.7546771E-02  0.9654244E-01
        -11   -1    0    0    0    0  0.00000000000E+00  0.00000000000E+00  0.50000000000E+03  0.50000000000E+03  0.00000000000E+00 0. -1.
         11   -1    0    0    0    0 -0.00000000000E+00 -0.00000000000E+00 -0.50000000000E+03  0.50000000000E+03  0.00000000000E+00 0. -1.
         23    2    1    2    0    0  0.17075153090E+02 -0.10843155932E+03  0.11420876365E+03  0.18303442325E+03  0.91700569736E+02 0.  0.
        -11    1    1    2    0    0  0.12378015553E+03  0.31633405529E+03  0.21567463070E+03  0.40237334376E+03  0.00000000000E+00 0. -1.
         11    1    1    2    0    0 -0.14085530862E+03 -0.20790249596E+03 -0.32988339435E+03  0.41459223300E+03  0.00000000000E+00 0. -1.
        -15    1    3    3    0    0  0.44803912733E+02 -0.35227858650E+02  0.19757163052E+02  0.60348122109E+02  0.17770000000E+01 0. -1.
         15    1    3    3    0    0 -0.27728759642E+02 -0.73203700674E+02  0.94451600593E+02  0.12268630114E+03  0.17770000000E+01 0.  1.
</event>
<event>
 7    1  0.3260141E-006  0.5163743E+03  0.7546771E-02  0.9363898E-01
        -11   -1    0    0    0    0  0.00000000000E+00  0.00000000000E+00  0.50000000000E+03  0.50000000000E+03  0.00000000000E+00 0.  1.
         11   -1    0    0    0    0 -0.00000000000E+00 -0.00000000000E+00 -0.50000000000E+03  0.50000000000E+03  0.00000000000E+00 0. -1.
         23    2    1    2    0    0  0.93880409233E+02  0.13479901438E+03 -0.13767709275E+03  0.23322159923E+03  0.91940344590E+02 0.  0.
        -11    1    1    2    0    0 -0.23192445095E+03 -0.19304053904E+03  0.37794203224E+03  0.48362566143E+03  0.00000000000E+00 0.  1.
         11    1    1    2    0    0  0.13804404172E+03  0.58241524654E+02 -0.24026493949E+03  0.28315273934E+03  0.00000000000E+00 0. -1.
        -15    1    3    3    0    0 -0.26864745239E+01  0.14427363191E+02 -0.57377672093E+02  0.59251337013E+02  0.17770000000E+01 0. -1.
         15    1    3    3    0    0  0.96566883757E+02  0.12037165119E+03 -0.80299420659E+02  0.17397026222E+03  0.17770000000E+01 0.  1.
</event>
<event>
 7    1  0.3260141E-006  0.5254626E+03  0.7546771E-02  0.9344571E-01
        -11   -1    0    0    0    0  0.00000000000E+00  0.00000000000E+00  0.50000000000E+03  0.50000000000E+03  0.00000000000E+00 0.  1.
         11   -1    0    0    0    0 -0.00000000000E+00 -0.00000000000E+00 -0.50000000000E+03  0.50000000000E+03  0.00000000000E+00 0.  1.
         23    2    1    2    0    0 -0.33378239773E+02 -0.20887765292E+01  0.32753925239E+03  0.34177361835E+03  0.91699370073E+02 0.  0.
        -11    1    1    2    0    0  0.11546469094E+03 -0.35785381706E+02  0.13830742809E+03  0.18368895737E+03  0.00000000000E+00 0.  1.
         11    1    1    2    0    0 -0.82086451162E+02  0.37874158235E+02 -0.46584668047E+03  0.47453742427E+03  0.00000000000E+00 0.  1.
        -15    1    3    3    0    0  0.17349799324E+02  0.31934802073E+02  0.13031040113E+03  0.13529525303E+03  0.17770000000E+01 0. -1.
         15    1    3    3    0    0 -0.50728039097E+02 -0.34023578602E+02  0.19722885125E+03  0.20647836532E+03  0.17770000000E+01 0.  1.
</event>
<event>
 7    1  0.3260141E-006  0.5220346E+03  0.7546771E-02  0.9351812E-01
        -11   -1    0    0    0    0  0.00000000000E+00  0.00000000000E+00  0.50000000000E+03  0.50000000000E+03  0.00000000000E+00 0.  1.
         11   -1    0    0    0    0 -0.00000000000E+00 -0.00000000000E+00 -0.50000000000E+03  0.50000000000E+03  0.00000000000E+00 0. -1.
         23    2    1    2    0    0  0.11026124663E+03  0.30037137280E+01  0.18915018980E+03  0.23815511308E+03  0.93666956701E+02 0.  0.
        -11    1    1    2    0    0 -0.24718289853E+02  0.53552662416E+02  0.27768454010E+03  0.28387952606E+03  0.00000000000E+00 0.  1.
         11    1    1    2    0    0 -0.85542956779E+02 -0.56556376144E+02 -0.46683472991E+03  0.47796536086E+03  0.00000000000E+00 0. -1.
        -15    1    3    3    0    0  0.70831289088E+02 -0.85489133139E+01  0.18318834388E+03  0.19659929424E+03  0.17770000000E+01 0.  1.
         15    1    3    3    0    0  0.39429957543E+02  0.11552627042E+02  0.59618459212E+01  0.41555818837E+02  0.17770000000E+01 0. -1.
</event>
<event>
 7    1  0.3260141E-006  0.4606382E+03  0.7546771E-02  0.9492466E-01
        -11   -1    0    0    0    0  0.00000000000E+00  0.00000000000E+00  0.50000000000E+03  0.50000000000E+03  0.00000000000E+00 0.  1.
         11   -1    0    0    0    0 -0.00000000000E+00 -0.00000000000E+00 -0.50000000000E+03  0.50000000000E+03  0.00000000000E+00 0. -1.
         23    2    1    2    0    0  0.43777544713E+02 -0.87728956578E+02  0.40327869770E+03  0.42559680746E+03  0.94266066334E+02 0.  0.
        -11    1    1    2    0    0 -0.34126317604E+02 -0.23931686537E+02  0.73571896570E+02  0.84558589975E+02  0.00000000000E+00 0.  1.
         11    1    1    2    0    0 -0.96512271094E+01  0.11166064312E+03 -0.47685059427E+03  0.48984460256E+03  0.00000000000E+00 0. -1.
        -15    1    3    3    0    0 -0.10166648199E+02  0.86582595566E+00  0.12892389937E+01  0.10436965860E+02  0.17770000000E+01 0. -1.
         15    1    3    3    0    0  0.53944192912E+02 -0.88594782534E+02  0.40198945870E+03  0.41515984160E+03  0.17770000000E+01 0.  1.
</event>
<event>
 7    1  0.3260141E-006  0.4652271E+03  0.7546771E-02  0.9481165E-01
        -11   -1    0    0    0    0  0.00000000000E+00  0.00000000000E+00  0.50000000000E+03  0.50000000000E+03  0.00000000000E+00 0.  1.
         11   -1    0    0    0    0 -0.00000000000E+00 -0.00000000000E+00 -0.50000000000E+03  0.50000000000E+03  0.00000000000E+00 0.  1.
         23    2    1    2    0    0 -0.19228441882E+02  0.34395098403E+02  0.42731554932E+03  0.43877937923E+03  0.91520539599E+02 0.  0.
        -11    1    1    2    0    0 -0.18239239214E+02  0.54873255416E+02  0.48613423559E+02  0.75544748045E+02  0.00000000000E+00 0.  1.
         11    1    1    2    0    0  0.37467681096E+02 -0.89268353819E+02 -0.47592897288E+03  0.48567587273E+03  0.00000000000E+00 0.  1.
        -15    1    3    3    0    0 -0.52935414804E+02  0.12537656168E+02  0.31054219205E+03  0.31527600881E+03  0.17770000000E+01 0.  1.
         15    1    3    3    0    0  0.33706972922E+02  0.21857442235E+02  0.11677335728E+03  0.12350337041E+03  0.17770000000E+01 0. -1.
</event>
<event>
 7    1  0.3260141E-006  0.5157413E+03  0.7546771E-02  0.9365260E-01
        -11   -1    0    0    0    0  0.00000000000E+00  0.00000000000E+00  0.50000000000E+03  0.50000000000E+03  0.00000000000E+00 0.  1.
         11   -1    0    0    0    0 -0.00000000000E+00 -0.00000000000E+00 -0.50000000000E+03  0.50000000000E+03  0.00000000000E+00 0. -1.
         23    2    1    2    0    0 -0.50594398546E+02  0.16990575978E+02 -0.24353537089E+03  0.26655838914E+03  0.94315561355E+02 0.  0.
        -11    1    1    2    0    0  0.13295965302E+02 -0.11151842302E+03  0.47105556318E+03  0.48425869633E+03  0.00000000000E+00 0.  1.
         11    1    1    2    0    0  0.37298433244E+02  0.94527847041E+02 -0.22752019230E+03  0.24918291453E+03  0.00000000000E+00 0. -1.
        -15    1    3    3    0    0 -0.36732239712E+02 -0.16559854396E+02 -0.30817382666E+02  0.50757807432E+02  0.17770000000E+01 0.  1.
         15    1    3    3    0    0 -0.13862158834E+02  0.33550430374E+02 -0.21271798822E+03  0.21580058171E+03  0.17770000000E+01 0. -1.
</event>
<event>
 7    1  0.3260141E-006  0.5192037E+03  0.7546771E-02  0.9357836E-01
        -11   -1    0    0    0    0  0.00000000000E+00  0.00000000000E+00  0.50000000000E+03  0.50000000000E+03  0.00000000000E+00 0.  1.
         11   -1    0    0    0    0 -0.00000000000E+00 -0.00000000000E+00 -0.50000000000E+03  0.50000000000E+03  0.00000000000E+00 0. -1.
         23    2    1    2    0    0 -0.58360166630E+02  0.12910380084E+03  0.32462594735E+03  0.36547814678E+03  0.90103105605E+02 0.  0.
        -11    1    1    2    0    0  0.49210168544E+02 -0.21908557750E+02  0.14397891388E+03  0.15372557768E+03  0.00000000000E+00 0.  1.
         11    1    1    2    0    0  0.91499980860E+01 -0.10719524309E+03 -0.46860486123E+03  0.48079627554E+03  0.00000000000E+00 0. -1.
        -15    1    3    3    0    0 -0.78966626933E+02  0.11347024352E+03  0.24004353968E+03  0.27701134093E+03  0.17770000000E+01 0.  1.
         15    1    3    3    0    0  0.20606460303E+02  0.15633557322E+02  0.84582407665E+02  0.88466805843E+02  0.17770000000E+01 0. -1.
</event>
<event>
 7    1  0.3260141E-006  0.4959463E+03  0.7546771E-02  0.9408926E-01
        -11   -1    0    0    0    0  0.00000000000E+00  0.00000000000E+00  0.50000000000E+03  0.50000000000E+03  0.00000000000E+00 0. -1.
         11   -1    0    0    0    0 -0.00000000000E+00 -0.00000000000E+00 -0.50000000000E+03  0.50000000000E+03  0.00000000000E+00 0. -1.
         23    2    1    2    0    0  0.12023368323E+03  0.14631423793E+03 -0.44536264950E+03  0.49268994900E+03  0.92366127281E+02 0.  0.
        -11    1    1    2    0    0 -0.12019047725E+03 -0.16288059019E+03  0.44696489832E+03  0.49066634061E+03  0.00000000000E+00 0. -1.
         11    1    1    2    0    0 -0.43205984231E-01  0.16566352268E+02 -0.16022488176E+01  0.16643710388E+02  0.00000000000E+00 0. -1.
        -15    1    3    3    0    0 -0.13017206954E+02  0.38494809260E+01 -0.49689953010E+02  0.51541394426E+02  0.17770000000E+01 0.  1.
         15    1    3    3    0    0  0.13325089019E+03  0.14246475700E+03 -0.39567269649E+03  0.44114855457E+03  0.17770000000E+01 0. -1.
</event>
<event>
 7    1  0.3260141E-006  0.5081665E+03  0.7546771E-02  0.9381720E-01
        -11   -1    0    0    0    0  0.00000000000E+00  0.00000000000E+00  0.50000000000E+03  0.50000000000E+03  0.00000000000E+00 0.  1.
         11   -1    0    0    0    0 -0.00000000000E+00 -0.00000000000E+00 -0.50000000000E+03  0.50000000000E+03  0.00000000000E+00 0. -1.
         23    2    1    2    0    0  0.26702763662E+02  0.37794550189E+02  0.40379341761E+03  0.41490965096E+03  0.83423190666E+02 0.  0.
        -11    1    1    2    0    0  0.60617354170E+01  0.48779339044E+02  0.79250705736E+02  0.93256865235E+02  0.00000000000E+00 0.  1.
         11    1    1    2    0    0 -0.32764499079E+02 -0.86573889233E+02 -0.48304412335E+03  0.49183348381E+03  0.00000000000E+00 0. -1.
        -15    1    3    3    0    0  0.52683675594E+02  0.98623190634E+01  0.28891423495E+03  0.29384932856E+03  0.17770000000E+01 0.  1.
         15    1    3    3    0    0 -0.25980911931E+02  0.27932231125E+02  0.11487918266E+03  0.12106032239E+03  0.17770000000E+01 0. -1.
</event>
<event>
 7    1  0.3260141E-006  0.4854572E+03  0.7546771E-02  0.9432952E-01
        -11   -1    0    0    0    0  0.00000000000E+00  0.00000000000E+00  0.50000000000E+03  0.50000000000E+03  0.00000000000E+00 0.  1.
         11   -1    0    0    0    0 -0.00000000000E+00 -0.00000000000E+00 -0.50000000000E+03  0.50000000000E+03  0.00000000000E+00 0. -1.
         23    2    1    2    0    0  0.10251151284E+02  0.17997518272E+03 -0.43735584784E+03  0.48176139281E+03  0.91201696635E+02 0.  0.
        -11    1    1    2    0    0  0.12512928714E+02 -0.20888845565E+03  0.43333878872E+03  0.48122080805E+03  0.00000000000E+00 0.  1.
         11    1    1    2    0    0 -0.22764079999E+02  0.28913272924E+02  0.40170591172E+01  0.37017799142E+02  0.00000000000E+00 0. -1.
        -15    1    3    3    0    0  0.33905298100E+01  0.11485173752E+03 -0.16135777752E+03  0.19809570263E+03  0.17770000000E+01 0.  1.
         15    1    3    3    0    0  0.68606214744E+01  0.65123445205E+02 -0.27599807031E+03  0.28366569018E+03  0.17770000000E+01 0. -1.
</event>
<event>
 7    1  0.3260141E-006  0.5314344E+03  0.7546771E-02  0.9332096E-01
        -11   -1    0    0    0    0  0.00000000000E+00  0.00000000000E+00  0.50000000000E+03  0.50000000000E+03  0.00000000000E+00 0.  1.
         11   -1    0    0    0    0 -0.00000000000E+00 -0.00000000000E+00 -0.50000000000E+03  0.50000000000E+03  0.00000000000E+00 0. -1.
         23    2    1    2    0    0 -0.34003803685E+02 -0.15757795210E+02  0.19708083686E+03  0.22416191513E+03  0.10001570457E+03 0.  0.
        -11    1    1    2    0    0  0.17122792811E+03  0.54429794037E+02  0.24926849421E+03  0.30727249804E+03  0.00000000000E+00 0.  1.
         11    1    1    2    0    0 -0.13722412442E+03 -0.38671998827E+02 -0.44634933107E+03  0.46856558684E+03  0.00000000000E+00 0. -1.
        -15    1    3    3    0    0 -0.68200461128E+01 -0.49257117263E+02  0.48693764315E+02  0.69620521703E+02  0.17770000000E+01 0.  1.
         15    1    3    3    0    0 -0.27183757572E+02  0.33499322053E+02  0.14838707254E+03  0.15454139342E+03  0.17770000000E+01 0. -1.
</event>
<event>
 7    1  0.3260141E-006  0.3070585E+03  0.7546771E-02  0.9979578E-01
        -11   -1    0    0    0    0  0.00000000000E+00  0.00000000000E+00  0.50000000000E+03  0.50000000000E+03  0.00000000000E+00 0. -1.
         11   -1    0    0    0    0 -0.00000000000E+00 -0.00000000000E+00 -0.50000000000E+03  0.50000000000E+03  0.00000000000E+00 0. -1.
         23    2    1    2    0    0  0.20057665360E+03 -0.88615079172E+02  0.20525836006E+03  0.31636682344E+03  0.99364713934E+02 0.  0.
        -11    1    1    2    0    0 -0.24782935374E+03  0.18721247685E+03  0.12571325855E+03  0.33506972922E+03  0.00000000000E+00 0. -1.
         11    1    1    2    0    0  0.47252700140E+02 -0.98597397681E+02 -0.33097161860E+03  0.34856344734E+03  0.00000000000E+00 0. -1.
        -15    1    3    3    0    0  0.18232927540E+03 -0.10631551686E+03  0.16165177723E+03  0.26585975363E+03  0.17770000000E+01 0.  1.
         15    1    3    3    0    0  0.18247378199E+02  0.17700437686E+02  0.43606582830E+02  0.50507069807E+02  0.17770000000E+01 0. -1.
</event>
<event>
 7    1  0.3260141E-006  0.5203006E+03  0.7546771E-02  0.9355497E-01
        -11   -1    0    0    0    0  0.00000000000E+00  0.00000000000E+00  0.50000000000E+03  0.50000000000E+03  0.00000000000E+00 0. -1.
         11   -1    0    0    0    0 -0.00000000000E+00 -0.00000000000E+00 -0.50000000000E+03  0.50000000000E+03  0.00000000000E+00 0.  1.
         23    2    1    2    0    0 -0.29597353639E+02 -0.24217644365E+02  0.37131252512E+03  0.38426736879E+03  0.91246489058E+02 0.  0.
        -11    1    1    2    0    0 -0.38467494247E+02  0.84127305033E+02  0.99739033844E+02  0.13603318139E+03  0.00000000000E+00 0. -1.
         11    1    1    2    0    0  0.68064847886E+02 -0.59909660668E+02 -0.47105155896E+03  0.47969944982E+03  0.00000000000E+00 0.  1.
        -15    1    3    3    0    0 -0.48820345625E+01 -0.56037550876E+02  0.17398106133E+03  0.18285679862E+03  0.17770000000E+01 0. -1.
         15    1    3    3    0    0 -0.24715319076E+02  0.31819906512E+02  0.19733146379E+03  0.20141057017E+03  0.17770000000E+01 0.  1.
</event>
<event>
 7    1  0.3260141E-006  0.5234061E+03  0.7546771E-02  0.9348908E-01
        -11   -1    0    0    0    0  0.00000000000E+00  0.00000000000E+00  0.50000000000E+03  0.50000000000E+03  0.00000000000E+00 0.  1.
         11   -1    0    0    0    0 -0.00000000000E+00 -0.00000000000E+00 -0.50000000000E+03  0.50000000000E+03  0.00000000000E+00 0. -1.
         23    2    1    2    0    0  0.75065566011E+02 -0.13889372215E+03 -0.30906470624E+03  0.35889779358E+03  0.91434831102E+02 0.  0.
        -11    1    1    2    0    0 -0.53053388245E+02  0.90816528611E+02  0.46484347585E+03  0.47659391615E+03  0.00000000000E+00 0.  1.
         11    1    1    2    0    0 -0.22012177766E+02  0.48077193540E+02 -0.15577876961E+03  0.16450829028E+03  0.00000000000E+00 0. -1.
        -15    1    3    3    0    0 -0.12497159877E+02 -0.32658419005E+02 -0.12006603849E+03  0.12506703269E+03  0.17770000000E+01 0.  1.
         15    1    3    3    0    0  0.87562725888E+02 -0.10623530315E+03 -0.18899866774E+03  0.23383076089E+03  0.17770000000E+01 0. -1.
</event>
<event>
 7    1  0.3260141E-006  0.4220950E+03  0.7546771E-02  0.9593279E-01
        -11   -1    0    0    0    0  0.00000000000E+00  0.00000000000E+00  0.50000000000E+03  0.50000000000E+03  0.00000000000E+00 0. -1.
         11   -1    0    0    0    0 -0.00000000000E+00 -0.00000000000E+00 -0.50000000000E+03  0.50000000000E+03  0.00000000000E+00 0. -1.
         23    2    1    2    0    0 -0.54654689680E+02  0.15469857214E+03  0.41510502980E+03  0.45534970864E+03  0.90068796295E+02 0.  0.
        -11    1    1    2    0    0  0.91950854138E+02 -0.24124551800E+03 -0.29606154655E+03  0.39281904087E+03  0.00000000000E+00 0. -1.
         11    1    1    2    0    0 -0.37296164458E+02  0.86546945858E+02 -0.11904348325E+03  0.15183125049E+03  0.00000000000E+00 0. -1.
        -15    1    3    3    0    0 -0.57107327262E+02  0.84304461606E+02  0.15192564203E+03  0.18290174277E+03  0.17770000000E+01 0. -1.
         15    1    3    3    0    0  0.24526375815E+01  0.70394110533E+02  0.26317938777E+03  0.27244796587E+03  0.17770000000E+01 0.  1.
</event>
<event>
 7    1  0.3260141E-006  0.3583692E+03  0.7546771E-02  0.9788094E-01
        -11   -1    0    0    0    0  0.00000000000E+00  0.00000000000E+00  0.50000000000E+03  0.50000000000E+03  0.00000000000E+00 0.  1.
         11   -1    0    0    0    0 -0.00000000000E+00 -0.00000000000E+00 -0.50000000000E+03  0.50000000000E+03  0.00000000000E+00 0. -1.
         23    2    1    2    0    0  0.83658617994E+02  0.11273531853E+03  0.25749847309E+03  0.30685031058E+03  0.90242080284E+02 0.  0.
        -11    1    1    2    0    0 -0.17973899850E+02 -0.18038355946E+03  0.17411847675E+03  0.25135340369E+03  0.00000000000E+00 0.  1.
         11    1    1    2    0    0 -0.65684718144E+02  0.67648240937E+02 -0.43161694984E+03  0.44179628573E+03  0.00000000000E+00 0. -1.
        -15    1    3    3    0    0  0.65024587849E+02  0.23800099426E+02  0.69952662585E+02  0.98443763080E+02  0.17770000000E+01 0. -1.
         15    1    3    3    0    0  0.18634030146E+02  0.88935219099E+02  0.18754581050E+03  0.20840654750E+03  0.17770000000E+01 0.  1.
</event>
<event>
 6    1  0.3260141E-006  0.5175309E+03  0.7546771E-02  0.9361415E-01
        -11   -1    0    0    0    0  0.00000000000E+00  0.00000000000E+00  0.50000000000E+03  0.50000000000E+03  0.00000000000E+00 0.  1.
         11   -1    0    0    0    0 -0.00000000000E+00 -0.00000000000E+00 -0.50000000000E+03  0.50000000000E+03  0.00000000000E+00 0. -1.
        -11    1    1    2    0    0 -0.48532768637E+02  0.25834042742E+02  0.94271864783E+02  0.10913300090E+03  0.00000000000E+00 0.  1.
         11    1    1    2    0    0  0.33825057250E+02 -0.81848892935E+02 -0.47427103535E+03  0.48246905678E+03  0.00000000000E+00 0. -1.
        -15    1    1    2    0    0 -0.35059031047E+02  0.74855551230E+02  0.30766918595E+03  0.31858432937E+03  0.17770000000E+01 0.  1.
         15    1    1    2    0    0  0.49766742434E+02 -0.18840701036E+02  0.72329984618E+02  0.89813612954E+02  0.17770000000E+01 0. -1.
</event>
<event>
 7    1  0.3260141E-006  0.5139012E+03  0.7546771E-02  0.9369231E-01
        -11   -1    0    0    0    0  0.00000000000E+00  0.00000000000E+00  0.50000000000E+03  0.50000000000E+03  0.00000000000E+00 0. -1.
         11   -1    0    0    0    0 -0.00000000000E+00 -0.00000000000E+00 -0.50000000000E+03  0.50000000000E+03  0.00000000000E+00 0.  1.
         23    2    1    2    0    0  0.13033201013E+02 -0.10336426026E+03  0.26747899100E+03  0.30086071481E+03  0.90100635188E+02 0.  0.
        -11    1    1    2    0    0 -0.60772917731E+02 -0.42689017631E+01  0.20414378761E+03  0.21304050570E+03  0.00000000000E+00 0. -1.
         11    1    1    2    0    0  0.47739716718E+02  0.10763316203E+03 -0.47162277860E+03  0.48609877949E+03  0.00000000000E+00 0.  1.
        -15    1    3    3    0    0 -0.91872810303E+01  0.11518120178E+02  0.96098972740E+01  0.17679962664E+02  0.17770000000E+01 0.  1.
         15    1    3    3    0    0  0.22220482043E+02 -0.11488238044E+03  0.25786909372E+03  0.28318075215E+03  0.17770000000E+01 0. -1.
</event>
<event>
 7    1  0.3260141E-006  0.3772464E+03  0.7546771E-02  0.9726128E-01
        -11   -1    0    0    0    0  0.00000000000E+00  0.00000000000E+00  0.50000000000E+03  0.50000000000E+03  0.00000000000E+00 0.  1.
         11   -1    0    0    0    0 -0.00000000000E+00 -0.00000000000E+00 -0.50000000000E+03  0.50000000000E+03  0.00000000000E+00 0.  1.
         23    2    1    2    0    0  0.59848985140E+02 -0.85919783060E+02  0.37416170392E+03  0.39896965454E+03  0.90640467917E+02 0.  0.
        -11    1    1    2    0    0  0.86404408727E+02  0.20111175074E+03 -0.45895263690E+02  0.22364711794E+03  0.00000000000E+00 0.  1.
         11    1    1    2    0    0 -0.14625339387E+03 -0.11519196768E+03 -0.32826644023E+03  0.37738322752E+03  0.00000000000E+00 0.  1.
        -15    1    3    3    0    0  0.41270502353E+02 -0.39505866101E+00  0.19792453599E+03  0.20218973790E+03  0.17770000000E+01 0. -1.
         15    1    3    3    0    0  0.18578482786E+02 -0.85524724399E+02  0.17623716793E+03  0.19677991664E+03  0.17770000000E+01 0.  1.
</event>
<event>
 7    1  0.3920701E-006  0.5074022E+03  0.7546771E-02  0.9383397E-01
        -11   -1    0    0    0    0  0.00000000000E+00  0.00000000000E+00  0.50000000000E+03  0.50000000000E+03  0.00000000000E+00 0. -1.
         11   -1    0    0    0    0 -0.00000000000E+00 -0.00000000000E+00 -0.50000000000E+03  0.50000000000E+03  0.00000000000E+00 0.  1.
         23    2    1    2    0    0 -0.13398800372E+02 -0.62355701382E+02 -0.33744239678E+03  0.35558839686E+03  0.92238687631E+02 0.  0.
        -11    1    1    2    0    0  0.46665552109E+02  0.69908458061E+02  0.48537381687E+03  0.49259781603E+03  0.00000000000E+00 0. -1.
         11    1    1    2    0    0 -0.33266751737E+02 -0.75527566788E+01 -0.14793142009E+03  0.15181378710E+03  0.00000000000E+00 0.  1.
        -15    1    3    3    0    0 -0.42940692697E+02 -0.41094869864E+02 -0.28853158279E+03  0.29459518566E+03  0.17770000000E+01 0. -1.
         15    1    3    3    0    0  0.29541892325E+02 -0.21260831518E+02 -0.48910813984E+02  0.60993211200E+02  0.17770000000E+01 0.  1.
</event>
<event>
 7    1  0.3260141E-006  0.5349674E+03  0.7546771E-02  0.9324797E-01
        -11   -1    0    0    0    0  0.00000000000E+00  0.00000000000E+00  0.50000000000E+03  0.50000000000E+03  0.00000000000E+00 0. -1.
         11   -1    0    0    0    0 -0.00000000000E+00 -0.00000000000E+00 -0.50000000000E+03  0.50000000000E+03  0.00000000000E+00 0.  1.
         23    2    1    2    0    0  0.68314990561E+02  0.61100652467E+02  0.25596187389E+03  0.28963801418E+03  0.99867265428E+02 0.  0.
        -11    1    1    2    0    0 -0.14773368795E+03  0.22275071017E+02  0.19458947672E+03  0.24532934149E+03  0.00000000000E+00 0. -1.
         11    1    1    2    0    0  0.79418697392E+02 -0.83375723485E+02 -0.45055135061E+03  0.46503264434E+03  0.00000000000E+00 0.  1.
        -15    1    3    3    0    0  0.20547215697E+02  0.59060281744E+02  0.55768502925E+02  0.83806852942E+02  0.17770000000E+01 0.  1.
         15    1    3    3    0    0  0.47767774864E+02  0.20403707234E+01  0.20019337096E+03  0.20583116123E+03  0.17770000000E+01 0. -1.
</event>
<event>
 7    1  0.3260141E-006  0.4876052E+03  0.7546771E-02  0.9427979E-01
        -11   -1    0    0    0    0  0.00000000000E+00  0.00000000000E+00  0.50000000000E+03  0.50000000000E+03  0.00000000000E+00 0.  1.
         11   -1    0    0    0    0 -0.00000000000E+00 -0.00000000000E+00 -0.50000000000E+03  0.50000000000E+03  0.00000000000E+00 0. -1.
         23    2    1    2    0    0 -0.74797671031E+02 -0.29811060474E+03 -0.34898472978E+03  0.47295357111E+03  0.86198112268E+02 0.  0.
        -11    1    1    2    0    0  0.70890131679E+02  0.31311422811E+03  0.37691170380E+03  0.49510439614E+03  0.00000000000E+00 0.  1.
         11    1    1    2    0    0  0.39075393512E+01 -0.15003623374E+02 -0.27926974024E+02  0.31942032751E+02  0.00000000000E+00 0. -1.
        -15    1    3    3    0    0 -0.16448383419E+02 -0.21886783979E+03 -0.26008445561E+03  0.34032449572E+03  0.17770000000E+01 0. -1.
         15    1    3    3    0    0 -0.58349287612E+02 -0.79242764953E+02 -0.88900274168E+02  0.13262907539E+03  0.17770000000E+01 0.  1.
</event>
<event>
 7    1  0.3260141E-006  0.3520034E+03  0.7546771E-02  0.9809919E-01
        -11   -1    0    0    0    0  0.00000000000E+00  0.00000000000E+00  0.50000000000E+03  0.50000000000E+03  0.00000000000E+00 0.  1.
         11   -1    0    0    0    0 -0.00000000000E+00 -0.00000000000E+00 -0.50000000000E+03  0.50000000000E+03  0.00000000000E+00 0.  1.
         23    2    1    2    0    0  0.32751743495E+02  0.55664352377E+02  0.26169894714E+03  0.28505907838E+03  0.92742344159E+02 0.  0.
        -11    1    1    2    0    0 -0.87259200018E+02 -0.17452568365E+03  0.17314030064E+03  0.26086576231E+03  0.00000000000E+00 0.  1.
         11    1    1    2    0    0  0.54507456523E+02  0.11886133127E+03 -0.43483924779E+03  0.45407515931E+03  0.00000000000E+00 0.  1.
        -15    1    3    3    0    0  0.44089954580E+02  0.75865507442E+02  0.18222660637E+03  0.20226021139E+03  0.17770000000E+01 0. -1.
         15    1    3    3    0    0 -0.11338211085E+02 -0.20201155064E+02  0.79472340772E+02  0.82798866981E+02  0.17770000000E+01 0.  1.
</event>
<event>
 7    1  0.3260141E-006  0.5192216E+03  0.7546771E-02  0.9357798E-01
        -11   -1    0    0    0    0  0.00000000000E+00  0.00000000000E+00  0.50000000000E+03  0.50000000000E+03  0.00000000000E+00 0. -1.
         11   -1    0    0    0    0 -0.00000000000E+00 -0.00000000000E+00 -0.50000000000E+03  0.50000000000E+03  0.00000000000E+00 0. -1.
         23    2    1    2    0    0 -0.84641322889E+01  0.57459740264E+02  0.70580444743E+02  0.12789980220E+03  0.89462265430E+02 0.  0.
        -11    1    1    2    0    0 -0.99822512061E+02  0.28311581698E+03  0.25102517619E+03  0.39132178424E+03  0.00000000000E+00 0. -1.
         11    1    1    2    0    0  0.10828664435E+03 -0.34057555724E+03 -0.32160562093E+03  0.48077841356E+03  0.00000000000E+00 0. -1.
        -15    1    3    3    0    0 -0.28940573156E+02 -0.14076618399E+02  0.21326576771E+02  0.38648267308E+02  0.17770000000E+01 0.  1.
         15    1    3    3    0    0  0.20476440867E+02  0.71536358663E+02  0.49253867972E+02  0.89251534892E+02  0.17770000000E+01 0. -1.
</event>
<event>
 7    1  0.4200637E-006  0.5078612E+03  0.7546771E-02  0.9382390E-01
        -11   -1    0    0    0    0  0.00000000000E+00  0.00000000000E+00  0.50000000000E+03  0.50000000000E+03  0.00000000000E+00 0.  1.
         11   -1    0    0    0    0 -0.00000000000E+00 -0.00000000000E+00 -0.50000000000E+03  0.50000000000E+03  0.00000000000E+00 0.  1.
         23    2    1    2    0    0 -0.55442098172E+02  0.62885131913E+02 -0.38097689516E+03  0.40096641172E+03  0.92748598995E+02 0.  0.
        -11    1    1    2    0    0  0.96321917529E+02 -0.55236124392E+02  0.47944934920E+03  0.49213882156E+03  0.00000000000E+00 0.  1.
         11    1    1    2    0    0 -0.40879819357E+02 -0.76490075208E+01 -0.98472454045E+02  0.10689476672E+03  0.00000000000E+00 0.  1.
        -15    1    3    3    0    0 -0.18342243367E+02  0.68861742117E+02 -0.32999644993E+03  0.33760804510E+03  0.17770000000E+01 0.  1.
         15    1    3    3    0    0 -0.37099854805E+02 -0.59766102037E+01 -0.50980445229E+02  0.63358366621E+02  0.17770000000E+01 0. -1.
</event>
<event>
 7    1  0.3260141E-006  0.5179101E+03  0.7546771E-02  0.9360603E-01
        -11   -1    0    0    0    0  0.00000000000E+00  0.00000000000E+00  0.50000000000E+03  0.50000000000E+03  0.00000000000E+00 0.  1.
         11   -1    0    0    0    0 -0.00000000000E+00 -0.00000000000E+00 -0.50000000000E+03  0.50000000000E+03  0.00000000000E+00 0. -1.
         23    2    1    2    0    0  0.89131854247E+02 -0.95803836575E+02 -0.30004752251E+03  0.33988215348E+03  0.91479505592E+02 0.  0.
        -11    1    1    2    0    0 -0.11587643247E+03  0.38276718016E+02  0.46638847225E+03  0.48208988974E+03  0.00000000000E+00 0.  1.
         11    1    1    2    0    0  0.26744578224E+02  0.57527118559E+02 -0.16634094974E+03  0.17802795678E+03  0.00000000000E+00 0. -1.
        -15    1    3    3    0    0  0.24095826465E+02 -0.72707865425E+02 -0.22604304269E+03  0.23867479428E+03  0.17770000000E+01 0. -1.
         15    1    3    3    0    0  0.65036027782E+02 -0.23095971150E+02 -0.74004479826E+02  0.10120735920E+03  0.17770000000E+01 0.  1.
</event>
<event>
 7    1  0.3260141E-006  0.3653747E+03  0.7546771E-02  0.9764631E-01
        -11   -1    0    0    0    0  0.00000000000E+00  0.00000000000E+00  0.50000000000E+03  0.50000000000E+03  0.00000000000E+00 0.  1.
         11   -1    0    0    0    0 -0.00000000000E+00 -0.00000000000E+00 -0.50000000000E+03  0.50000000000E+03  0.00000000000E+00 0. -1.
         23    2    1    2    0    0  0.14579446466E+03 -0.15677491954E+03 -0.43815232280E+02  0.23727533300E+03  0.92441374652E+02 0.  0.
        -11    1    1    2    0    0 -0.14505567245E+03  0.99746157543E+02  0.38155251325E+03  0.42020562159E+03  0.00000000000E+00 0.  1.
         11    1    1    2    0    0 -0.73879221770E+00  0.57028762002E+02 -0.33773728097E+03  0.34251904540E+03  0.00000000000E+00 0. -1.
        -15    1    3    3    0    0  0.75305315179E+02 -0.11721798027E+03 -0.64920591475E+02  0.15371657789E+03  0.17770000000E+01 0. -1.
         15    1    3    3    0    0  0.70489149485E+02 -0.39556939274E+02  0.21105359195E+02  0.83558755110E+02  0.17770000000E+01 0.  1.
</event>
<event>
 7    1  0.3260141E-006  0.5148159E+03  0.7546771E-02  0.9367255E-01
        -11   -1    0    0    0    0  0.00000000000E+00  0.00000000000E+00  0.50000000000E+03  0.50000000000E+03  0.00000000000E+00 0.  1.
         11   -1    0    0    0    0 -0.00000000000E+00 -0.00000000000E+00 -0.50000000000E+03  0.50000000000E+03  0.00000000000E+00 0. -1.
         23    2    1    2    0    0  0.56774560225E+02  0.18458529136E+01  0.29444289102E+03  0.31389345997E+03  0.92767075369E+02 0.  0.
        -11    1    1    2    0    0  0.47261737680E+02 -0.96140166560E+02  0.16998004340E+03  0.20092241943E+03  0.00000000000E+00 0.  1.
         11    1    1    2    0    0 -0.10403629790E+03  0.94294313646E+02 -0.46442293443E+03  0.48518412061E+03  0.00000000000E+00 0. -1.
        -15    1    3    3    0    0 -0.91487798836E+01  0.21893380726E+02  0.20484992577E+02  0.31397658238E+02  0.17770000000E+01 0. -1.
         15    1    3    3    0    0  0.65923340109E+02 -0.20047527813E+02  0.27395789845E+03  0.28249580173E+03  0.17770000000E+01 0.  1.
</event>
<event>
 7    1  0.3260141E-006  0.3642803E+03  0.7546771E-02  0.9768259E-01
        -11   -1    0    0    0    0  0.00000000000E+00  0.00000000000E+00  0.50000000000E+03  0.50000000000E+03  0.00000000000E+00 0.  1.
         11   -1    0    0    0    0 -0.00000000000E+00 -0.00000000000E+00 -0.50000000000E+03  0.50000000000E+03  0.00000000000E+00 0. -1.
         23    2    1    2    0    0 -0.36937884884E+01  0.97499867274E+02  0.28262847301E+03  0.31248232713E+03  0.90810147154E+02 0.  0.
        -11    1    1    2    0    0 -0.63179587181E+02 -0.18125669446E+03  0.14886497885E+03  0.24291239460E+03  0.00000000000E+00 0.  1.
         11    1    1    2    0    0  0.66873375670E+02  0.83756827182E+02 -0.43149345185E+03  0.44460527827E+03  0.00000000000E+00 0. -1.
        -15    1    3    3    0    0  0.15666446595E+02  0.47790683716E+01  0.23702796453E+01  0.16644909072E+02  0.17770000000E+01 0. -1.
         15    1    3    3    0    0 -0.19360235083E+02  0.92720798902E+02  0.28025819336E+03  0.29583741806E+03  0.17770000000E+01 0.  1.
</event>
<event>
 7    1  0.3260141E-006  0.5113058E+03  0.7546771E-02  0.9374862E-01
        -11   -1    0    0    0    0  0.00000000000E+00  0.00000000000E+00  0.50000000000E+03  0.50000000000E+03  0.00000000000E+00 0. -1.
         11   -1    0    0    0    0 -0.00000000000E+00 -0.00000000000E+00 -0.50000000000E+03  0.50000000000E+03  0.00000000000E+00 0. -1.
         23    2    1    2    0    0  0.38326167397E+02  0.10235051607E+03 -0.27096305816E+03  0.30491122391E+03  0.87208671185E+02 0.  0.
        -11    1    1    2    0    0 -0.10030634482E+03 -0.99563349199E+02  0.46781173456E+03  0.48869422168E+03  0.00000000000E+00 0. -1.
         11    1    1    2    0    0  0.61980177419E+02 -0.27871668713E+01 -0.19684867640E+03  0.20639455441E+03  0.00000000000E+00 0. -1.
        -15    1    3    3    0    0  0.21742153284E+02  0.11080759476E+03 -0.18347356243E+03  0.21544546903E+03  0.17770000000E+01 0. -1.
         15    1    3    3    0    0  0.16584014113E+02 -0.84570786857E+01 -0.87489495727E+02  0.89465754876E+02  0.17770000000E+01 0.  1.
</event>
<event>
 7    1  0.3260141E-006  0.5168423E+03  0.7546771E-02  0.9362893E-01
        -11   -1    0    0    0    0  0.00000000000E+00  0.00000000000E+00  0.50000000000E+03  0.50000000000E+03  0.00000000000E+00 0.  1.
         11   -1    0    0    0    0 -0.00000000000E+00 -0.00000000000E+00 -0.50000000000E+03  0.50000000000E+03  0.00000000000E+00 0. -1.
         23    2    1    2    0    0 -0.22211155828E+02  0.32767321953E+01  0.13639869769E+03  0.16557479362E+03  0.91139097731E+02 0.  0.
        -11    1    1    2    0    0  0.41245263172E+02  0.86195637629E+02  0.33802070351E+03  0.35126749875E+03  0.00000000000E+00 0.  1.
         11    1    1    2    0    0 -0.19034107344E+02 -0.89472369824E+02 -0.47441940120E+03  0.48315770762E+03  0.00000000000E+00 0. -1.
        -15    1    3    3    0    0 -0.39188887145E+02  0.16286053297E+02  0.19527446522E+02  0.46749152979E+02  0.17770000000E+01 0.  1.
         15    1    3    3    0    0  0.16977731316E+02 -0.13009321101E+02  0.11687125117E+03  0.11882564064E+03  0.17770000000E+01 0. -1.
</event>
<event>
 7    1  0.3260141E-006  0.5280596E+03  0.7546771E-02  0.9339124E-01
        -11   -1    0    0    0    0  0.00000000000E+00  0.00000000000E+00  0.50000000000E+03  0.50000000000E+03  0.00000000000E+00 0.  1.
         11   -1    0    0    0    0 -0.00000000000E+00 -0.00000000000E+00 -0.50000000000E+03  0.50000000000E+03  0.00000000000E+00 0. -1.
         23    2    1    2    0    0 -0.67828671271E+02  0.29567410461E+02  0.32760828913E+03  0.35320145055E+03  0.10931199914E+03 0.  0.
        -11    1    1    2    0    0  0.81852830375E+02  0.82578842578E+02  0.13059942740E+03  0.17485811825E+03  0.00000000000E+00 0.  1.
         11    1    1    2    0    0 -0.14024159104E+02 -0.11214625304E+03 -0.45820771653E+03  0.47194043120E+03  0.00000000000E+00 0. -1.
        -15    1    3    3    0    0 -0.69646292244E+02 -0.26372577501E+02  0.21285887050E+03  0.22551757214E+03  0.17770000000E+01 0.  1.
         15    1    3    3    0    0  0.18176209733E+01  0.55939987962E+02  0.11474941863E+03  0.12768387841E+03  0.17770000000E+01 0. -1.
</event>
<event>
 7    1  0.3260141E-006  0.5129728E+03  0.7546771E-02  0.9371241E-01
        -11   -1    0    0    0    0  0.00000000000E+00  0.00000000000E+00  0.50000000000E+03  0.50000000000E+03  0.00000000000E+00 0.  1.
         11   -1    0    0    0    0 -0.00000000000E+00 -0.00000000000E+00 -0.50000000000E+03  0.50000000000E+03  0.00000000000E+00 0.  1.
         23    2    1    2    0    0  0.16761268003E+03  0.34921819238E+01 -0.12977466324E+03  0.23062007342E+03  0.90763148945E+02 0.  0.
        -11    1    1    2    0    0 -0.35555369193E+03  0.80914967682E+02  0.32284639541E+03  0.48702716030E+03  0.00000000000E+00 0.  1.
         11    1    1    2    0    0  0.18794101191E+03 -0.84407149606E+02 -0.19307173217E+03  0.28235276628E+03  0.00000000000E+00 0.  1.
        -15    1    3    3    0    0  0.84766997477E+02 -0.23908915771E+02 -0.19921894894E+02  0.90316774410E+02  0.17770000000E+01 0. -1.
         15    1    3    3    0    0  0.82845682550E+02  0.27401097695E+02 -0.10985276834E+03  0.14030329901E+03  0.17770000000E+01 0.  1.
</event>
<event>
 7    1  0.3260141E-006  0.4371882E+03  0.7546771E-02  0.9552485E-01
        -11   -1    0    0    0    0  0.00000000000E+00  0.00000000000E+00  0.50000000000E+03  0.50000000000E+03  0.00000000000E+00 0.  1.
         11   -1    0    0    0    0 -0.00000000000E+00 -0.00000000000E+00 -0.50000000000E+03  0.50000000000E+03  0.00000000000E+00 0. -1.
         23    2    1    2    0    0 -0.38504521041E+02 -0.76146441948E+02  0.29543041961E+02  0.12097332497E+03  0.80503883532E+02 0.  0.
        -11    1    1    2    0    0 -0.63660035928E+02  0.75825306226E+02  0.41307328939E+03  0.42477243278E+03  0.00000000000E+00 0.  1.
         11    1    1    2    0    0  0.10216455697E+03  0.32113572169E+00 -0.44261633135E+03  0.45425424226E+03  0.00000000000E+00 0. -1.
        -15    1    3    3    0    0 -0.18167925774E+02 -0.78838577346E+02  0.47342741921E+02  0.93755467821E+02  0.17770000000E+01 0.  1.
         15    1    3    3    0    0 -0.20336595267E+02  0.26921353977E+01 -0.17799699959E+02  0.27217857147E+02  0.17770000000E+01 0. -1.
</event>
<event>
 7    1  0.3260141E-006  0.5347098E+03  0.7546771E-02  0.9325327E-01
        -11   -1    0    0    0    0  0.00000000000E+00  0.00000000000E+00  0.50000000000E+03  0.50000000000E+03  0.00000000000E+00 0.  1.
         11   -1    0    0    0    0 -0.00000000000E+00 -0.00000000000E+00 -0.50000000000E+03  0.50000000000E+03  0.00000000000E+00 0. -1.
         23    2    1    2    0    0  0.19738514682E+02  0.15126112807E+03  0.22752109916E+03  0.28847397887E+03  0.90453568699E+02 0.  0.
        -11    1    1    2    0    0 -0.89182438542E+02 -0.55987142788E+02  0.22258485436E+03  0.24623583186E+03  0.00000000000E+00 0.  1.
         11    1    1    2    0    0  0.69443923860E+02 -0.95273985286E+02 -0.45010595353E+03  0.46529018927E+03  0.00000000000E+00 0. -1.
        -15    1    3    3    0    0  0.12259134405E+02  0.13216919064E+02  0.95855854892E+02  0.97552426786E+02  0.17770000000E+01 0. -1.
         15    1    3    3    0    0  0.74793802766E+01  0.13804420901E+03  0.13166524427E+03  0.19092155208E+03  0.17770000000E+01 0.  1.
</event>
<event>
 7    1  0.3260141E-006  0.5298389E+03  0.7546771E-02  0.9335412E-01
        -11   -1    0    0    0    0  0.00000000000E+00  0.00000000000E+00  0.50000000000E+03  0.50000000000E+03  0.00000000000E+00 0. -1.
         11   -1    0    0    0    0 -0.00000000000E+00 -0.00000000000E+00 -0.50000000000E+03  0.50000000000E+03  0.00000000000E+00 0. -1.
         23    2    1    2    0    0 -0.15177039740E+02 -0.31945045457E+02  0.32675763663E+03  0.34333833407E+03  0.99296677109E+02 0.  0.
        -11    1    1    2    0    0  0.68436725346E+02  0.11053599296E+03  0.13371858710E+03  0.18650054062E+03  0.00000000000E+00 0. -1.
         11    1    1    2    0    0 -0.53259685606E+02 -0.78590947498E+02 -0.46047622372E+03  0.47016112531E+03  0.00000000000E+00 0. -1.
        -15    1    3    3    0    0  0.41014683869E+02 -0.25830158724E+02  0.16493350503E+03  0.17191748080E+03  0.17770000000E+01 0. -1.
         15    1    3    3    0    0 -0.56191723609E+02 -0.61148867332E+01  0.16182413159E+03  0.17142085327E+03  0.17770000000E+01 0.  1.
</event>
<event>
 7    1  0.3260141E-006  0.4079655E+03  0.7546771E-02  0.9633154E-01
        -11   -1    0    0    0    0  0.00000000000E+00  0.00000000000E+00  0.50000000000E+03  0.50000000000E+03  0.00000000000E+00 0. -1.
         11   -1    0    0    0    0 -0.00000000000E+00 -0.00000000000E+00 -0.50000000000E+03  0.50000000000E+03  0.00000000000E+00 0. -1.
         23    2    1    2    0    0  0.19473779465E+03  0.31309610949E+03  0.17624197625E+03  0.41849908266E+03  0.90156894075E+02 0.  0.
        -11    1    1    2    0    0 -0.26767340822E+03 -0.30504761018E+03 -0.17030419304E+02  0.40619346760E+03  0.00000000000E+00 0. -1.
         11    1    1    2    0    0  0.72935613565E+02 -0.80484993138E+01 -0.15921155695E+03  0.17530744974E+03  0.00000000000E+00 0. -1.
        -15    1    3    3    0    0  0.45463603051E+02  0.41490675014E+02  0.64158745993E+02  0.88926473740E+02  0.17770000000E+01 0.  1.
         15    1    3    3    0    0  0.14927419160E+03  0.27160543448E+03  0.11208323026E+03  0.32957260892E+03  0.17770000000E+01 0. -1.
</event>
<event>
 7    1  0.3260141E-006  0.3796353E+03  0.7546771E-02  0.9718563E-01
        -11   -1    0    0    0    0  0.00000000000E+00  0.00000000000E+00  0.50000000000E+03  0.50000000000E+03  0.00000000000E+00 0.  1.
         11   -1    0    0    0    0 -0.00000000000E+00 -0.00000000000E+00 -0.50000000000E+03  0.50000000000E+03  0.00000000000E+00 0.  1.
         23    2    1    2    0    0  0.12493261896E+03 -0.13464605541E+03  0.25218717417E+03  0.32508622940E+03  0.91350786588E+02 0.  0.
        -11    1    1    2    0    0 -0.23034165659E+03  0.12862513195E+01 -0.39209811081E+03  0.45475252798E+03  0.00000000000E+00 0.  1.
         11    1    1    2    0    0  0.10540903763E+03  0.13335980409E+03  0.13991093664E+03  0.22016124262E+03  0.00000000000E+00 0.  1.
        -15    1    3    3    0    0 -0.55875181794E+01 -0.36508866584E+02  0.22580793675E+02  0.43326293064E+02  0.17770000000E+01 0. -1.
         15    1    3    3    0    0  0.13052013714E+03 -0.98137188828E+02  0.22960638050E+03  0.28175993634E+03  0.17770000000E+01 0.  1.
</event>
<event>
 7    1  0.3260141E-006  0.5114758E+03  0.7546771E-02  0.9374492E-01
        -11   -1    0    0    0    0  0.00000000000E+00  0.00000000000E+00  0.50000000000E+03  0.50000000000E+03  0.00000000000E+00 0. -1.
         11   -1    0    0    0    0 -0.00000000000E+00 -0.00000000000E+00 -0.50000000000E+03  0.50000000000E+03  0.00000000000E+00 0. -1.
         23    2    1    2    0    0 -0.18977290318E+02  0.14839973654E+02 -0.16400991576E+03  0.18825614743E+03  0.89223103580E+02 0.  0.
        -11    1    1    2    0    0  0.44065027545E+02 -0.70951400297E+02  0.48133158214E+03  0.48852422644E+03  0.00000000000E+00 0. -1.
         11    1    1    2    0    0 -0.25087737227E+02  0.56111426642E+02 -0.31732166638E+03  0.32321962613E+03  0.00000000000E+00 0. -1.
        -15    1    3    3    0    0  0.25034130627E+02 -0.10583492553E+02 -0.15632319181E+02  0.31404540163E+02  0.17770000000E+01 0. -1.
         15    1    3    3    0    0 -0.44011420945E+02  0.25423466207E+02 -0.14837759657E+03  0.15685160727E+03  0.17770000000E+01 0.  1.
</event>
<event>
 7    1  0.3260141E-006  0.5214989E+03  0.7546771E-02  0.9352949E-01
        -11   -1    0    0    0    0  0.00000000000E+00  0.00000000000E+00  0.50000000000E+03  0.50000000000E+03  0.00000000000E+00 0. -1.
         11   -1    0    0    0    0 -0.00000000000E+00 -0.00000000000E+00 -0.50000000000E+03  0.50000000000E+03  0.00000000000E+00 0.  1.
         23    2    1    2    0    0  0.50205117581E+01  0.12238156572E+03  0.31015876452E+03  0.34538785572E+03  0.89954758107E+02 0.  0.
        -11    1    1    2    0    0 -0.51797136946E+02 -0.50442951534E+02  0.16058540131E+03  0.17611106117E+03  0.00000000000E+00 0. -1.
         11    1    1    2    0    0  0.46776625188E+02 -0.71938614187E+02 -0.47074416582E+03  0.47850108310E+03  0.00000000000E+00 0.  1.
        -15    1    3    3    0    0 -0.26176595266E+01  0.21955168215E+02  0.33095590673E+01  0.22427493461E+02  0.17770000000E+01 0.  1.
         15    1    3    3    0    0  0.76381712847E+01  0.10042639751E+03  0.30684920545E+03  0.32296036226E+03  0.17770000000E+01 0. -1.
</event>
<event>
 7    1  0.3260141E-006  0.4485415E+03  0.7546771E-02  0.9522939E-01
        -11   -1    0    0    0    0  0.00000000000E+00  0.00000000000E+00  0.50000000000E+03  0.50000000000E+03  0.00000000000E+00 0. -1.
         11   -1    0    0    0    0 -0.00000000000E+00 -0.00000000000E+00 -0.50000000000E+03  0.50000000000E+03  0.00000000000E+00 0.  1.
         23    2    1    2    0    0 -0.27819360263E+02 -0.22054328827E+02  0.77476083638E+01  0.10218149458E+03  0.95502472083E+02 0.  0.
        -11    1    1    2    0    0  0.94485308467E+02  0.75581274928E+02  0.43262346713E+03  0.44922496251E+03  0.00000000000E+00 0. -1.
         11    1    1    2    0    0 -0.66665948204E+02 -0.53526946100E+02 -0.44037107549E+03  0.44859354291E+03  0.00000000000E+00 0.  1.
        -15    1    3    3    0    0 -0.10343861057E+02 -0.43233264788E+02  0.39971839920E+02  0.59808163000E+02  0.17770000000E+01 0. -1.
         15    1    3    3    0    0 -0.17475499206E+02  0.21178935961E+02 -0.32224231556E+02  0.42373331581E+02  0.17770000000E+01 0.  1.
</event>
<event>
 7    1  0.3260141E-006  0.5267033E+03  0.7546771E-02  0.9341965E-01
        -11   -1    0    0    0    0  0.00000000000E+00  0.00000000000E+00  0.50000000000E+03  0.50000000000E+03  0.00000000000E+00 0.  1.
         11   -1    0    0    0    0 -0.00000000000E+00 -0.00000000000E+00 -0.50000000000E+03  0.50000000000E+03  0.00000000000E+00 0. -1.
         23    2    1    2    0    0  0.13532557146E+03 -0.19185144210E+02  0.29097209158E+03  0.34002974709E+03  0.11078984962E+03 0.  0.
        -11    1    1    2    0    0 -0.54139273042E+02  0.35878499751E+02  0.17501057661E+03  0.18667359094E+03  0.00000000000E+00 0.  1.
         11    1    1    2    0    0 -0.81186298421E+02 -0.16693355540E+02 -0.46598266819E+03  0.47329666196E+03  0.00000000000E+00 0. -1.
        -15    1    3    3    0    0  0.96551849015E+02 -0.36831714085E+02  0.98088625701E+02  0.14248989765E+03  0.17770000000E+01 0. -1.
         15    1    3    3    0    0  0.38773722448E+02  0.17646569874E+02  0.19288346588E+03  0.19753984945E+03  0.17770000000E+01 0.  1.
</event>
<event>
 7    1  0.3260141E-006  0.4613825E+03  0.7546771E-02  0.9490623E-01
        -11   -1    0    0    0    0  0.00000000000E+00  0.00000000000E+00  0.50000000000E+03  0.50000000000E+03  0.00000000000E+00 0.  1.
         11   -1    0    0    0    0 -0.00000000000E+00 -0.00000000000E+00 -0.50000000000E+03  0.50000000000E+03  0.00000000000E+00 0. -1.
         23    2    1    2    0    0  0.34860612250E+01 -0.57402639358E+02  0.42521816550E+03  0.43890778384E+03  0.92316514302E+02 0.  0.
        -11    1    1    2    0    0 -0.52537018858E+02 -0.51616162140E+02  0.37874631760E+02  0.82818200147E+02  0.00000000000E+00 0.  1.
         11    1    1    2    0    0  0.49050957633E+02  0.10901880150E+03 -0.46309279726E+03  0.47827401602E+03  0.00000000000E+00 0. -1.
        -15    1    3    3    0    0 -0.42722707328E+02 -0.14485741694E+02  0.15640979830E+03  0.16279511408E+03  0.17770000000E+01 0. -1.
         15    1    3    3    0    0  0.46208768553E+02 -0.42916897663E+02  0.26880836720E+03  0.27611266976E+03  0.17770000000E+01 0.  1.
</event>
<event>
 7    1  0.3260141E-006  0.3477369E+03  0.7546771E-02  0.9824825E-01
        -11   -1    0    0    0    0  0.00000000000E+00  0.00000000000E+00  0.50000000000E+03  0.50000000000E+03  0.00000000000E+00 0.  1.
         11   -1    0    0    0    0 -0.00000000000E+00 -0.00000000000E+00 -0.50000000000E+03  0.50000000000E+03  0.00000000000E+00 0. -1.
         23    2    1    2    0    0 -0.19728797545E+02  0.22601227616E+03  0.64842305556E+02  0.26558927672E+03  0.12191129927E+03 0.  0.
        -11    1    1    2    0    0 -0.29636926046E+02 -0.15814556945E+03  0.31054759807E+03  0.34975445557E+03  0.00000000000E+00 0.  1.
         11    1    1    2    0    0  0.49365723591E+02 -0.67866706712E+02 -0.37538990363E+03  0.38465626771E+03  0.00000000000E+00 0. -1.
        -15    1    3    3    0    0 -0.22091738478E+02  0.11817919788E+03  0.95380655308E+02  0.15347636579E+03  0.17770000000E+01 0.  1.
         15    1    3    3    0    0  0.23629409331E+01  0.10783307828E+03 -0.30538349752E+02  0.11211291093E+03  0.17770000000E+01 0. -1.
</event>
<event>
 7    1  0.3260141E-006  0.4714323E+03  0.7546771E-02  0.9466104E-01
        -11   -1    0    0    0    0  0.00000000000E+00  0.00000000000E+00  0.50000000000E+03  0.50000000000E+03  0.00000000000E+00 0.  1.
         11   -1    0    0    0    0 -0.00000000000E+00 -0.00000000000E+00 -0.50000000000E+03  0.50000000000E+03  0.00000000000E+00 0. -1.
         23    2    1    2    0    0  0.10628564422E+03  0.14230320545E+03 -0.39784175681E+03  0.44508731608E+03  0.90982498470E+02 0.  0.
        -11    1    1    2    0    0 -0.89116808735E+02 -0.15118551437E+03  0.45866419514E+03  0.49109236327E+03  0.00000000000E+00 0.  1.
         11    1    1    2    0    0 -0.17168835484E+02  0.88823089150E+01 -0.60822438334E+02  0.63820320655E+02  0.00000000000E+00 0. -1.
        -15    1    3    3    0    0  0.35195011344E+01 -0.11401137467E+02 -0.10995605022E+02  0.16322802535E+02  0.17770000000E+01 0.  1.
         15    1    3    3    0    0  0.10276614308E+03  0.15370434292E+03 -0.38684615178E+03  0.42876451355E+03  0.17770000000E+01 0. -1.
</event>
<event>
 7    1  0.3260141E-006  0.5106578E+03  0.7546771E-02  0.9376273E-01
        -11   -1    0    0    0    0  0.00000000000E+00  0.00000000000E+00  0.50000000000E+03  0.50000000000E+03  0.00000000000E+00 0.  1.
         11   -1    0    0    0    0 -0.00000000000E+00 -0.00000000000E+00 -0.50000000000E+03  0.50000000000E+03  0.00000000000E+00 0. -1.
         23    2    1    2    0    0 -0.12119912084E+03  0.14377769382E+02 -0.24388806695E+03  0.28753723584E+03  0.91106122989E+02 0.  0.
        -11    1    1    2    0    0  0.17384702013E+03  0.27740835009E+02  0.45657798871E+03  0.48934221165E+03  0.00000000000E+00 0.  1.
         11    1    1    2    0    0 -0.52647899291E+02 -0.42118604391E+02 -0.21268992175E+03  0.22312055251E+03  0.00000000000E+00 0. -1.
        -15    1    3    3    0    0 -0.62153889087E+02  0.52650605002E+02 -0.11990182457E+03  0.14496481435E+03  0.17770000000E+01 0.  1.
         15    1    3    3    0    0 -0.59045231751E+02 -0.38272835620E+02 -0.12398624238E+03  0.14257242148E+03  0.17770000000E+01 0. -1.
</event>
<event>
 7    1  0.3260141E-006  0.3394280E+03  0.7546771E-02  0.9854524E-01
        -11   -1    0    0    0    0  0.00000000000E+00  0.00000000000E+00  0.50000000000E+03  0.50000000000E+03  0.00000000000E+00 0.  1.
         11   -1    0    0    0    0 -0.00000000000E+00 -0.00000000000E+00 -0.50000000000E+03  0.50000000000E+03  0.00000000000E+00 0. -1.
         23    2    1    2    0    0 -0.22734024962E+03  0.25890533625E+03  0.13013399327E+03  0.37946648394E+03  0.91347654570E+02 0.  0.
        -11    1    1    2    0    0  0.23450761439E+03 -0.49512235520E+02  0.14085004150E+03  0.27800003033E+03  0.00000000000E+00 0.  1.
         11    1    1    2    0    0 -0.71673647718E+01 -0.20939310073E+03 -0.27098403477E+03  0.34253348573E+03  0.00000000000E+00 0. -1.
        -15    1    3    3    0    0  0.24880904825E+01  0.17450503894E+02 -0.69448071052E+01  0.19028892640E+02  0.17770000000E+01 0. -1.
         15    1    3    3    0    0 -0.22982834010E+03  0.24145483235E+03  0.13707880038E+03  0.36043759130E+03  0.17770000000E+01 0.  1.
</event>
<event>
 7    1  0.3260141E-006  0.5268595E+03  0.7546771E-02  0.9341637E-01
        -11   -1    0    0    0    0  0.00000000000E+00  0.00000000000E+00  0.50000000000E+03  0.50000000000E+03  0.00000000000E+00 0. -1.
         11   -1    0    0    0    0 -0.00000000000E+00 -0.00000000000E+00 -0.50000000000E+03  0.50000000000E+03  0.00000000000E+00 0.  1.
         23    2    1    2    0    0  0.92849734105E+02  0.65483118678E+02  0.19223492659E+03  0.24398364844E+03  0.98308909827E+02 0.  0.
        -11    1    1    2    0    0  0.25148941543E+03  0.91267704889E+02  0.91880600883E+02  0.28287588241E+03  0.00000000000E+00 0. -1.
         11    1    1    2    0    0 -0.34433914954E+03 -0.15675082357E+03 -0.28411552747E+03  0.47314046915E+03  0.00000000000E+00 0.  1.
        -15    1    3    3    0    0  0.35714740611E+02  0.79335598806E+02  0.14243846691E+03  0.16691780768E+03  0.17770000000E+01 0. -1.
         15    1    3    3    0    0  0.57134993494E+02 -0.13852480128E+02  0.49796459676E+02  0.77065840764E+02  0.17770000000E+01 0.  1.
</event>
<event>
 7    1  0.3260141E-006  0.5171494E+03  0.7546771E-02  0.9362234E-01
        -11   -1    0    0    0    0  0.00000000000E+00  0.00000000000E+00  0.50000000000E+03  0.50000000000E+03  0.00000000000E+00 0. -1.
         11   -1    0    0    0    0 -0.00000000000E+00 -0.00000000000E+00 -0.50000000000E+03  0.50000000000E+03  0.00000000000E+00 0.  1.
         23    2    1    2    0    0 -0.19989337580E+02  0.44012773157E+02  0.28358505469E+03  0.30218926819E+03  0.92526605615E+02 0.  0.
        -11    1    1    2    0    0  0.10204122750E+03  0.14310023025E+02  0.18865493441E+03  0.21496016642E+03  0.00000000000E+00 0. -1.
         11    1    1    2    0    0 -0.82051889922E+02 -0.58322796182E+02 -0.47223998910E+03  0.48285056539E+03  0.00000000000E+00 0.  1.
        -15    1    3    3    0    0 -0.49008673719E+02  0.20987450858E+02  0.86350877437E+02  0.10149854657E+03  0.17770000000E+01 0.  1.
         15    1    3    3    0    0  0.29019336139E+02  0.23025322299E+02  0.19723417726E+03  0.20069072162E+03  0.17770000000E+01 0. -1.
</event>
<event>
 7    1  0.3260141E-006  0.3900359E+03  0.7546771E-02  0.9686309E-01
        -11   -1    0    0    0    0  0.00000000000E+00  0.00000000000E+00  0.50000000000E+03  0.50000000000E+03  0.00000000000E+00 0.  1.
         11   -1    0    0    0    0 -0.00000000000E+00 -0.00000000000E+00 -0.50000000000E+03  0.50000000000E+03  0.00000000000E+00 0.  1.
         23    2    1    2    0    0 -0.95980101764E+02  0.44445013262E+02  0.14314446933E+03  0.19988138138E+03  0.90965314179E+02 0.  0.
        -11    1    1    2    0    0  0.22425418182E+03  0.84489117762E+02  0.26257978169E+03  0.35549471281E+03  0.00000000000E+00 0.  1.
         11    1    1    2    0    0 -0.12827408006E+03 -0.12893413102E+03 -0.40572425102E+03  0.44462390581E+03  0.00000000000E+00 0.  1.
        -15    1    3    3    0    0 -0.10836700500E+03  0.45422283663E+02  0.97972334160E+02  0.15299780265E+03  0.17770000000E+01 0. -1.
         15    1    3    3    0    0  0.12386903240E+02 -0.97727040140E+00  0.45172135171E+02  0.46883578727E+02  0.17770000000E+01 0.  1.
</event>
<event>
 7    1  0.3260141E-006  0.4149993E+03  0.7546771E-02  0.9613092E-01
        -11   -1    0    0    0    0  0.00000000000E+00  0.00000000000E+00  0.50000000000E+03  0.50000000000E+03  0.00000000000E+00 0. -1.
         11   -1    0    0    0    0 -0.00000000000E+00 -0.00000000000E+00 -0.50000000000E+03  0.50000000000E+03  0.00000000000E+00 0.  1.
         23    2    1    2    0    0 -0.94881322511E+02 -0.15793713918E+03  0.33027542675E+03  0.38850318081E+03  0.88917145081E+02 0.  0.
        -11    1    1    2    0    0  0.11276193789E+03  0.54319345143E+02  0.10520289937E+03  0.16350381013E+03  0.00000000000E+00 0. -1.
         11    1    1    2    0    0 -0.17880615375E+02  0.10361779404E+03 -0.43547832612E+03  0.44799300906E+03  0.00000000000E+00 0.  1.
        -15    1    3    3    0    0  0.14000811734E+02 -0.14543425743E+02  0.14219304764E+02  0.24756419743E+02  0.17770000000E+01 0.  1.
         15    1    3    3    0    0 -0.10888213425E+03 -0.14339371344E+03  0.31605612198E+03  0.36374676106E+03  0.17770000000E+01 0. -1.
</event>
<event>
 7    1  0.3260141E-006  0.5208045E+03  0.7546771E-02  0.9354425E-01
        -11   -1    0    0    0    0  0.00000000000E+00  0.00000000000E+00  0.50000000000E+03  0.50000000000E+03  0.00000000000E+00 0.  1.
         11   -1    0    0    0    0 -0.00000000000E+00 -0.00000000000E+00 -0.50000000000E+03  0.50000000000E+03  0.00000000000E+00 0. -1.
         23    2    1    2    0    0 -0.18795500935E+03  0.95986657563E+00 -0.72198123380E+02  0.22172883334E+03  0.92860646283E+02 0.  0.
        -11    1    1    2    0    0  0.36081301389E+03 -0.48331342465E+02  0.31161892745E+03  0.47919547744E+03  0.00000000000E+00 0.  1.
         11    1    1    2    0    0 -0.17285800454E+03  0.47371475890E+02 -0.23942080407E+03  0.29907568922E+03  0.00000000000E+00 0. -1.
        -15    1    3    3    0    0 -0.15469110231E+02  0.30453429622E+02 -0.17247565194E+02  0.38305887031E+02  0.17770000000E+01 0. -1.
         15    1    3    3    0    0 -0.17248589912E+03 -0.29493563047E+02 -0.54950558185E+02  0.18342294630E+03  0.17770000000E+01 0.  1.
</event>
<event>
 7    1  0.3260141E-006  0.5136988E+03  0.7546771E-02  0.9369669E-01
        -11   -1    0    0    0    0  0.00000000000E+00  0.00000000000E+00  0.50000000000E+03  0.50000000000E+03  0.00000000000E+00 0. -1.
         11   -1    0    0    0    0 -0.00000000000E+00 -0.00000000000E+00 -0.50000000000E+03  0.50000000000E+03  0.00000000000E+00 0. -1.
         23    2    1    2    0    0  0.13298437972E+03  0.63173718806E+00  0.37209204418E+03  0.40555023392E+03  0.91286683310E+02 0.  0.
        -11    1    1    2    0    0  0.86966002779E+02 -0.19664300038E+02  0.61207415866E+02  0.10814859265E+03  0.00000000000E+00 0. -1.
         11    1    1    2    0    0 -0.21995038250E+03  0.19032562850E+02 -0.43329946004E+03  0.48630117343E+03  0.00000000000E+00 0. -1.
        -15    1    3    3    0    0  0.41178183088E+02  0.20809131778E+02  0.42297283141E+02  0.62616935552E+02  0.17770000000E+01 0.  1.
         15    1    3    3    0    0  0.91806196629E+02 -0.20177394590E+02  0.32979476104E+03  0.34293329836E+03  0.17770000000E+01 0. -1.
</event>
<event>
 7    1  0.3260141E-006  0.4893700E+03  0.7546771E-02  0.9423914E-01
        -11   -1    0    0    0    0  0.00000000000E+00  0.00000000000E+00  0.50000000000E+03  0.50000000000E+03  0.00000000000E+00 0. -1.
         11   -1    0    0    0    0 -0.00000000000E+00 -0.00000000000E+00 -0.50000000000E+03  0.50000000000E+03  0.00000000000E+00 0.  1.
         23    2    1    2    0    0 -0.71226703604E+01  0.11914385639E+03 -0.45050578461E+03  0.47517892069E+03  0.92701422578E+02 0.  0.
        -11    1    1    2    0    0  0.83675522471E+01 -0.13224297201E+03  0.47709491117E+03  0.49515429297E+03  0.00000000000E+00 0. -1.
         11    1    1    2    0    0 -0.12448818867E+01  0.13099115615E+02 -0.26589126562E+02  0.29666786346E+02  0.00000000000E+00 0.  1.
        -15    1    3    3    0    0 -0.31972644551E+02  0.95598844679E+02 -0.40952033688E+03  0.42174809205E+03  0.17770000000E+01 0.  1.
         15    1    3    3    0    0  0.24849974191E+02  0.23545011711E+02 -0.40985447736E+02  0.53430828637E+02  0.17770000000E+01 0. -1.
</event>
<event>
 7    1  0.3260141E-006  0.5219114E+03  0.7546771E-02  0.9352073E-01
        -11   -1    0    0    0    0  0.00000000000E+00  0.00000000000E+00  0.50000000000E+03  0.50000000000E+03  0.00000000000E+00 0.  1.
         11   -1    0    0    0    0 -0.00000000000E+00 -0.00000000000E+00 -0.50000000000E+03  0.50000000000E+03  0.00000000000E+00 0. -1.
         23    2    1    2    0    0 -0.93978281307E+01 -0.10674702735E+02  0.11673160265E+03  0.14930064310E+03  0.91989926200E+02 0.  0.
        -11    1    1    2    0    0 -0.14911608497E+03  0.11024310937E+03  0.32318672724E+03  0.37261080315E+03  0.00000000000E+00 0.  1.
         11    1    1    2    0    0  0.15851391310E+03 -0.99568406633E+02 -0.43991832989E+03  0.47808855374E+03  0.00000000000E+00 0. -1.
        -15    1    3    3    0    0 -0.38365614564E+02 -0.36303035124E+02  0.80343641411E+02  0.96166985937E+02  0.17770000000E+01 0.  1.
         15    1    3    3    0    0  0.28967786433E+02  0.25628332389E+02  0.36387961237E+02  0.53133657166E+02  0.17770000000E+01 0. -1.
</event>
<event>
 7    1  0.3260141E-006  0.3302597E+03  0.7546771E-02  0.9888372E-01
        -11   -1    0    0    0    0  0.00000000000E+00  0.00000000000E+00  0.50000000000E+03  0.50000000000E+03  0.00000000000E+00 0.  1.
         11   -1    0    0    0    0 -0.00000000000E+00 -0.00000000000E+00 -0.50000000000E+03  0.50000000000E+03  0.00000000000E+00 0.  1.
         23    2    1    2    0    0 -0.16972549762E+03 -0.75427198111E+02  0.31551562319E+03  0.37707170575E+03  0.90205077716E+02 0.  0.
        -11    1    1    2    0    0  0.26729204942E+03 -0.10073784019E+03 -0.50488407945E+02  0.29007280373E+03  0.00000000000E+00 0.  1.
         11    1    1    2    0    0 -0.97566551801E+02  0.17616503830E+03 -0.26502721524E+03  0.33285549052E+03  0.00000000000E+00 0.  1.
        -15    1    3    3    0    0 -0.16532371604E+03 -0.41705415646E+02  0.24184663657E+03  0.29591253121E+03  0.17770000000E+01 0.  1.
         15    1    3    3    0    0 -0.44017815810E+01 -0.33721782465E+02  0.73668986616E+02  0.81159174539E+02  0.17770000000E+01 0. -1.
</event>
<event>
 7    1  0.3260141E-006  0.5024616E+03  0.7546771E-02  0.9394318E-01
        -11   -1    0    0    0    0  0.00000000000E+00  0.00000000000E+00  0.50000000000E+03  0.50000000000E+03  0.00000000000E+00 0.  1.
         11   -1    0    0    0    0 -0.00000000000E+00 -0.00000000000E+00 -0.50000000000E+03  0.50000000000E+03  0.00000000000E+00 0. -1.
         23    2    1    2    0    0  0.14053638485E+03  0.23606874528E+03  0.40273383299E+03  0.49753838543E+03  0.99352789462E+02 0.  0.
        -11    1    1    2    0    0 -0.58150754278E+02 -0.84224934098E+02 -0.59969935153E+02  0.11862437721E+03  0.00000000000E+00 0.  1.
         11    1    1    2    0    0 -0.82385630575E+02 -0.15184381119E+03 -0.34276389784E+03  0.38383723736E+03  0.00000000000E+00 0. -1.
        -15    1    3    3    0    0 -0.12417477271E+02  0.49653001024E+01  0.96831894431E+01  0.16606319089E+02  0.17770000000E+01 0. -1.
         15    1    3    3    0    0  0.15295386212E+03  0.23110344518E+03  0.39305064355E+03  0.48093206634E+03  0.17770000000E+01 0.  1.
</event>
<event>
 7    1  0.3260141E-006  0.5080366E+03  0.7546771E-02  0.9382005E-01
        -11   -1    0    0    0    0  0.00000000000E+00  0.00000000000E+00  0.50000000000E+03  0.50000000000E+03  0.00000000000E+00 0.  1.
         11   -1    0    0    0    0 -0.00000000000E+00 -0.00000000000E+00 -0.50000000000E+03  0.50000000000E+03  0.00000000000E+00 0.  1.
         23    2    1    2    0    0 -0.24667412874E+02  0.26372132665E+02  0.30094362522E+03  0.31682705383E+03  0.92240695118E+02 0.  0.
        -11    1    1    2    0    0 -0.86449291738E+01  0.53660782780E+02  0.18332179435E+03  0.19120955701E+03  0.00000000000E+00 0.  1.
         11    1    1    2    0    0  0.33312342048E+02 -0.80032915445E+02 -0.48426541957E+03  0.49196338916E+03  0.00000000000E+00 0.  1.
        -15    1    3    3    0    0 -0.55780198407E+02  0.92567720131E+01  0.12327026977E+03  0.13563124825E+03  0.17770000000E+01 0.  1.
         15    1    3    3    0    0  0.31112785534E+02  0.17115360652E+02  0.17767335545E+03  0.18119580558E+03  0.17770000000E+01 0. -1.
</event>
<event>
 7    1  0.3260141E-006  0.4092194E+03  0.7546771E-02  0.9629546E-01
        -11   -1    0    0    0    0  0.00000000000E+00  0.00000000000E+00  0.50000000000E+03  0.50000000000E+03  0.00000000000E+00 0.  1.
         11   -1    0    0    0    0 -0.00000000000E+00 -0.00000000000E+00 -0.50000000000E+03  0.50000000000E+03  0.00000000000E+00 0. -1.
         23    2    1    2    0    0  0.84653565379E+02 -0.41460137531E+02  0.10615619934E+03  0.16933983493E+03  0.92312902132E+02 0.  0.
        -11    1    1    2    0    0 -0.29643431571E+03  0.19341421074E+02  0.26804387453E+03  0.40011862338E+03  0.00000000000E+00 0.  1.
         11    1    1    2    0    0  0.21178075034E+03  0.22118716457E+02 -0.37420007388E+03  0.43054154169E+03  0.00000000000E+00 0. -1.
        -15    1    3    3    0    0  0.40292223393E+02 -0.90252791122E+01  0.10662551552E+03  0.11435504894E+03  0.17770000000E+01 0.  1.
         15    1    3    3    0    0  0.44361341986E+02 -0.32434858419E+02 -0.46931618124E+00  0.54984785988E+02  0.17770000000E+01 0. -1.
</event>
<event>
 7    1  0.3260141E-006  0.4566643E+03  0.7546771E-02  0.9502365E-01
        -11   -1    0    0    0    0  0.00000000000E+00  0.00000000000E+00  0.50000000000E+03  0.50000000000E+03  0.00000000000E+00 0. -1.
         11   -1    0    0    0    0 -0.00000000000E+00 -0.00000000000E+00 -0.50000000000E+03  0.50000000000E+03  0.00000000000E+00 0.  1.
         23    2    1    2    0    0  0.16005730218E+03 -0.34576382435E+02  0.40936466512E+03  0.44648529803E+03  0.70397628550E+02 0.  0.
        -11    1    1    2    0    0 -0.53243984202E+02  0.54826726964E+02  0.43394448848E+02  0.87886119689E+02  0.00000000000E+00 0. -1.
         11    1    1    2    0    0 -0.10681331798E+03 -0.20250344529E+02 -0.45275911397E+03  0.46562858228E+03  0.00000000000E+00 0.  1.
        -15    1    3    3    0    0  0.96941696247E+02 -0.54256815530E+02  0.27885537453E+03  0.30017490258E+03  0.17770000000E+01 0. -1.
         15    1    3    3    0    0  0.63115605935E+02  0.19680433095E+02  0.13050929059E+03  0.14631039546E+03  0.17770000000E+01 0.  1.
</event>
<event>
 7    1  0.3260141E-006  0.4094921E+03  0.7546771E-02  0.9628763E-01
        -11   -1    0    0    0    0  0.00000000000E+00  0.00000000000E+00  0.50000000000E+03  0.50000000000E+03  0.00000000000E+00 0. -1.
         11   -1    0    0    0    0 -0.00000000000E+00 -0.00000000000E+00 -0.50000000000E+03  0.50000000000E+03  0.00000000000E+00 0.  1.
         23    2    1    2    0    0 -0.91731987301E+02  0.10589559027E+03 -0.16870203701E+02  0.16894738498E+03  0.92897694190E+02 0.  0.
        -11    1    1    2    0    0  0.15536752746E+03  0.68664473886E+02  0.38383010145E+03  0.41973732899E+03  0.00000000000E+00 0. -1.
         11    1    1    2    0    0 -0.63635540156E+02 -0.17456006415E+03 -0.36695989775E+03  0.41131528604E+03  0.00000000000E+00 0.  1.
        -15    1    3    3    0    0 -0.54967564315E+02  0.10667694241E+03  0.14091139964E+02  0.12084337434E+03  0.17770000000E+01 0.  1.
         15    1    3    3    0    0 -0.36764422986E+02 -0.78135213932E+00 -0.30961343665E+02  0.48104010635E+02  0.17770000000E+01 0. -1.
</event>
<event>
 7    1  0.3260141E-006  0.5243385E+03  0.7546771E-02  0.9346939E-01
        -11   -1    0    0    0    0  0.00000000000E+00  0.00000000000E+00  0.50000000000E+03  0.50000000000E+03  0.00000000000E+00 0.  1.
         11   -1    0    0    0    0 -0.00000000000E+00 -0.00000000000E+00 -0.50000000000E+03  0.50000000000E+03  0.00000000000E+00 0. -1.
         23    2    1    2    0    0  0.24502047305E+02  0.31267760349E+02  0.13119561647E+03  0.16467184587E+03  0.91249678819E+02 0.  0.
        -11    1    1    2    0    0 -0.71136225316E+02 -0.10607336939E+03  0.33622633380E+03  0.35966660922E+03  0.00000000000E+00 0.  1.
         11    1    1    2    0    0  0.46634178011E+02  0.74805609045E+02 -0.46742195027E+03  0.47566154490E+03  0.00000000000E+00 0. -1.
        -15    1    3    3    0    0 -0.26073446931E+02  0.96999619553E+01  0.68561950142E+01  0.28706776829E+02  0.17770000000E+01 0.  1.
         15    1    3    3    0    0  0.50575494237E+02  0.21567798394E+02  0.12433942145E+03  0.13596506905E+03  0.17770000000E+01 0. -1.
</event>
<event>
 7    1  0.3260141E-006  0.5253866E+03  0.7546771E-02  0.9344731E-01
        -11   -1    0    0    0    0  0.00000000000E+00  0.00000000000E+00  0.50000000000E+03  0.50000000000E+03  0.00000000000E+00 0. -1.
         11   -1    0    0    0    0 -0.00000000000E+00 -0.00000000000E+00 -0.50000000000E+03  0.50000000000E+03  0.00000000000E+00 0.  1.
         23    2    1    2    0    0 -0.45785564366E+02 -0.11798467921E+02 -0.27178260334E+03  0.29005403734E+03  0.89610486818E+02 0.  0.
        -11    1    1    2    0    0 -0.57465851402E+02 -0.73274064046E+02  0.46538848436E+03  0.47461337308E+03  0.00000000000E+00 0. -1.
         11    1    1    2    0    0  0.10325141577E+03  0.85072531967E+02 -0.19360588101E+03  0.23533258957E+03  0.00000000000E+00 0.  1.
        -15    1    3    3    0    0 -0.32123933022E+02 -0.50639468513E+02 -0.15436658535E+03  0.16561552840E+03  0.17770000000E+01 0.  1.
         15    1    3    3    0    0 -0.13661631344E+02  0.38841000593E+02 -0.11741601799E+03  0.12443850894E+03  0.17770000000E+01 0. -1.
</event>
<event>
 7    1  0.3260141E-006  0.4197939E+03  0.7546771E-02  0.9599659E-01
        -11   -1    0    0    0    0  0.00000000000E+00  0.00000000000E+00  0.50000000000E+03  0.50000000000E+03  0.00000000000E+00 0. -1.
         11   -1    0    0    0    0 -0.00000000000E+00 -0.00000000000E+00 -0.50000000000E+03  0.50000000000E+03  0.00000000000E+00 0.  1.
         23    2    1    2    0    0  0.87361731713E+02 -0.66962796060E+02  0.55745414663E+02  0.15139442240E+03  0.87730448838E+02 0.  0.
        -11    1    1    2    0    0  0.29053508277E+02  0.87468473928E+02  0.38314526114E+03  0.39407503271E+03  0.00000000000E+00 0. -1.
         11    1    1    2    0    0 -0.11641523999E+03 -0.20505677868E+02 -0.43889067580E+03  0.45453054489E+03  0.00000000000E+00 0.  1.
        -15    1    3    3    0    0 -0.74937181981E+01 -0.21234593348E+02 -0.12580065103E+02  0.25854971168E+02  0.17770000000E+01 0.  1.
         15    1    3    3    0    0  0.94855449911E+02 -0.45728202712E+02  0.68325479766E+02  0.12553945123E+03  0.17770000000E+01 0. -1.
</event>
<event>
 7    1  0.6961476E-006  0.5070463E+03  0.7546771E-02  0.9384180E-01
        -11   -1    0    0    0    0  0.00000000000E+00  0.00000000000E+00  0.50000000000E+03  0.50000000000E+03  0.00000000000E+00 0.  1.
         11   -1    0    0    0    0 -0.00000000000E+00 -0.00000000000E+00 -0.50000000000E+03  0.50000000000E+03  0.00000000000E+00 0. -1.
         23    2    1    2    0    0 -0.54450731215E+02  0.45982329167E+02 -0.29809447619E+03  0.31949178853E+03  0.90196615677E+02 0.  0.
        -11    1    1    2    0    0  0.10760346103E+03 -0.57991166737E+02  0.47755827660E+03  0.49295373798E+03  0.00000000000E+00 0.  1.
         11    1    1    2    0    0 -0.53152729812E+02  0.12008837571E+02 -0.17946380041E+03  0.18755447348E+03  0.00000000000E+00 0. -1.
        -15    1    3    3    0    0 -0.48637272269E+02 -0.14855108057E+02 -0.17177540305E+03  0.17915413841E+03  0.17770000000E+01 0. -1.
         15    1    3    3    0    0 -0.58134589464E+01  0.60837437224E+02 -0.12631907315E+03  0.14033765012E+03  0.17770000000E+01 0.  1.
</event>
<event>
 7    1  0.3260141E-006  0.3788391E+03  0.7546771E-02  0.9721078E-01
        -11   -1    0    0    0    0  0.00000000000E+00  0.00000000000E+00  0.50000000000E+03  0.50000000000E+03  0.00000000000E+00 0. -1.
         11   -1    0    0    0    0 -0.00000000000E+00 -0.00000000000E+00 -0.50000000000E+03  0.50000000000E+03  0.00000000000E+00 0.  1.
         23    2    1    2    0    0 -0.10660181186E+03 -0.12888938023E+03  0.10449447656E+03  0.21707495229E+03  0.90697412585E+02 0.  0.
        -11    1    1    2    0    0  0.12275191532E+03 -0.69192947958E+02  0.30044337766E+03  0.33184622936E+03  0.00000000000E+00 0. -1.
         11    1    1    2    0    0 -0.16150103453E+02  0.19808232819E+03 -0.40493785422E+03  0.45107881835E+03  0.00000000000E+00 0.  1.
        -15    1    3    3    0    0 -0.14956370313E+02 -0.17459464482E+02 -0.16839635808E+02  0.28552705232E+02  0.17770000000E+01 0.  1.
         15    1    3    3    0    0 -0.91645441551E+02 -0.11142991575E+03  0.12133411237E+03  0.18852224706E+03  0.17770000000E+01 0. -1.
</event>
<event>
 7    1  0.3260141E-006  0.5302584E+03  0.7546771E-02  0.9334539E-01
        -11   -1    0    0    0    0  0.00000000000E+00  0.00000000000E+00  0.50000000000E+03  0.50000000000E+03  0.00000000000E+00 0. -1.
         11   -1    0    0    0    0 -0.00000000000E+00 -0.00000000000E+00 -0.50000000000E+03  0.50000000000E+03  0.00000000000E+00 0.  1.
         23    2    1    2    0    0 -0.52645518185E+02  0.17466186080E+03 -0.95792549802E+02  0.22755383076E+03  0.96572341224E+02 0.  0.
        -11    1    1    2    0    0 -0.97195756956E+02 -0.37277269318E+03  0.26879478203E+03  0.46974155746E+03  0.00000000000E+00 0. -1.
         11    1    1    2    0    0  0.14984127514E+03  0.19811083238E+03 -0.17300223223E+03  0.30270461179E+03  0.00000000000E+00 0.  1.
        -15    1    3    3    0    0 -0.97495620722E+01 -0.68463530231E+01 -0.25553584008E+02  0.28250130884E+02  0.17770000000E+01 0. -1.
         15    1    3    3    0    0 -0.42895956113E+02  0.18150821383E+03 -0.70238965794E+02  0.19930369987E+03  0.17770000000E+01 0.  1.
</event>
<event>
 7    1  0.3260141E-006  0.4676898E+03  0.7546771E-02  0.9475158E-01
        -11   -1    0    0    0    0  0.00000000000E+00  0.00000000000E+00  0.50000000000E+03  0.50000000000E+03  0.00000000000E+00 0.  1.
         11   -1    0    0    0    0 -0.00000000000E+00 -0.00000000000E+00 -0.50000000000E+03  0.50000000000E+03  0.00000000000E+00 0.  1.
         23    2    1    2    0    0 -0.53147360355E+02  0.28345401184E+02  0.43263765586E+03  0.44640430042E+03  0.92050825580E+02 0.  0.
        -11    1    1    2    0    0  0.26611018238E+02  0.50122506864E+02  0.42747654666E+02  0.71047687967E+02  0.00000000000E+00 0.  1.
         11    1    1    2    0    0  0.26536342117E+02 -0.78467908047E+02 -0.47538531052E+03  0.48254801161E+03  0.00000000000E+00 0.  1.
        -15    1    3    3    0    0  0.19490595009E+02  0.31704057734E+02  0.14357781121E+03  0.14833332792E+03  0.17770000000E+01 0. -1.
         15    1    3    3    0    0 -0.72637955365E+02 -0.33586565505E+01  0.28905984464E+03  0.29807097250E+03  0.17770000000E+01 0.  1.
</event>
<event>
 7    1  0.3260141E-006  0.4099379E+03  0.7546771E-02  0.9627485E-01
        -11   -1    0    0    0    0  0.00000000000E+00  0.00000000000E+00  0.50000000000E+03  0.50000000000E+03  0.00000000000E+00 0.  1.
         11   -1    0    0    0    0 -0.00000000000E+00 -0.00000000000E+00 -0.50000000000E+03  0.50000000000E+03  0.00000000000E+00 0. -1.
         23    2    1    2    0    0 -0.14772685915E+03  0.78302351397E+01  0.45973994757E+01  0.16687215807E+03  0.77075570453E+02 0.  0.
        -11    1    1    2    0    0  0.28755837218E+02 -0.96260024500E+02  0.39465681907E+03  0.40724304209E+03  0.00000000000E+00 0.  1.
         11    1    1    2    0    0  0.11897102193E+03  0.88429789360E+02 -0.39925421855E+03  0.42588479984E+03  0.00000000000E+00 0. -1.
        -15    1    3    3    0    0 -0.10364577046E+03 -0.17052074206E+02 -0.25298356452E+02  0.10805731598E+03  0.17770000000E+01 0.  1.
         15    1    3    3    0    0 -0.44081088691E+02  0.24882309346E+02  0.29895755928E+02  0.58814842090E+02  0.17770000000E+01 0. -1.
</event>
<event>
 7    1  0.3260141E-006  0.4711024E+03  0.7546771E-02  0.9466898E-01
        -11   -1    0    0    0    0  0.00000000000E+00  0.00000000000E+00  0.50000000000E+03  0.50000000000E+03  0.00000000000E+00 0.  1.
         11   -1    0    0    0    0 -0.00000000000E+00 -0.00000000000E+00 -0.50000000000E+03  0.50000000000E+03  0.00000000000E+00 0. -1.
         23    2    1    2    0    0 -0.25805071458E+03 -0.26946001035E+03 -0.25677206577E+03  0.46174656590E+03  0.89883974561E+02 0.  0.
        -11    1    1    2    0    0  0.27022706136E+03  0.23567274652E+03  0.31003691174E+03  0.47401180870E+03  0.00000000000E+00 0.  1.
         11    1    1    2    0    0 -0.12176346776E+02  0.33787263826E+02 -0.53264845970E+02  0.64241625399E+02  0.00000000000E+00 0. -1.
        -15    1    3    3    0    0 -0.47555913742E+02 -0.46411214468E+02 -0.82182611291E+01  0.66979573791E+02  0.17770000000E+01 0.  1.
         15    1    3    3    0    0 -0.21049480084E+03 -0.22304879588E+03 -0.24855380465E+03  0.39476699211E+03  0.17770000000E+01 0. -1.
</event>
<event>
 7    1  0.3260141E-006  0.5167026E+03  0.7546771E-02  0.9363193E-01
        -11   -1    0    0    0    0  0.00000000000E+00  0.00000000000E+00  0.50000000000E+03  0.50000000000E+03  0.00000000000E+00 0.  1.
         11   -1    0    0    0    0 -0.00000000000E+00 -0.00000000000E+00 -0.50000000000E+03  0.50000000000E+03  0.00000000000E+00 0. -1.
         23    2    1    2    0    0  0.11636711270E+02 -0.31681462431E+01  0.16263972549E+03  0.18837107119E+03  0.94268393181E+02 0.  0.
        -11    1    1    2    0    0  0.93540994888E+02  0.94960206441E+02  0.30005701689E+03  0.32833149699E+03  0.00000000000E+00 0.  1.
         11    1    1    2    0    0 -0.10517770616E+03 -0.91792060198E+02 -0.46269674238E+03  0.48329743182E+03  0.00000000000E+00 0. -1.
        -15    1    3    3    0    0  0.40217358486E+02 -0.87557384073E+00  0.15278245885E+03  0.15799949372E+03  0.17770000000E+01 0.  1.
         15    1    3    3    0    0 -0.28580647216E+02 -0.22925724024E+01  0.98572666416E+01  0.30371577473E+02  0.17770000000E+01 0. -1.
</event>
<event>
 7    1  0.3260141E-006  0.4676755E+03  0.7546771E-02  0.9475193E-01
        -11   -1    0    0    0    0  0.00000000000E+00  0.00000000000E+00  0.50000000000E+03  0.50000000000E+03  0.00000000000E+00 0.  1.
         11   -1    0    0    0    0 -0.00000000000E+00 -0.00000000000E+00 -0.50000000000E+03  0.50000000000E+03  0.00000000000E+00 0.  1.
         23    2    1    2    0    0 -0.13826398072E+03  0.97079462745E+02  0.40434599842E+03  0.44761960435E+03  0.91248415370E+02 0.  0.
        -11    1    1    2    0    0  0.29814097791E+02 -0.25236022098E+02  0.59200809765E+02  0.70925828266E+02  0.00000000000E+00 0.  1.
         11    1    1    2    0    0  0.10844988293E+03 -0.71843440647E+02 -0.46354680819E+03  0.48145456738E+03  0.00000000000E+00 0.  1.
        -15    1    3    3    0    0 -0.10235601850E+03  0.10526901130E+03  0.36630945671E+03  0.39464426395E+03  0.17770000000E+01 0.  1.
         15    1    3    3    0    0 -0.35907962221E+02 -0.81895485523E+01  0.38036541710E+02  0.52975340401E+02  0.17770000000E+01 0. -1.
</event>
<event>
 7    1  0.3260141E-006  0.3873922E+03  0.7546771E-02  0.9694404E-01
        -11   -1    0    0    0    0  0.00000000000E+00  0.00000000000E+00  0.50000000000E+03  0.50000000000E+03  0.00000000000E+00 0.  1.
         11   -1    0    0    0    0 -0.00000000000E+00 -0.00000000000E+00 -0.50000000000E+03  0.50000000000E+03  0.00000000000E+00 0.  1.
         23    2    1    2    0    0 -0.55434999214E+02  0.23654562337E+03  0.27890866952E+03  0.37999716880E+03  0.87068543626E+02 0.  0.
        -11    1    1    2    0    0  0.10364646282E+03 -0.13547955776E+03  0.11812101220E+03  0.20748463401E+03  0.00000000000E+00 0.  1.
         11    1    1    2    0    0 -0.48211463607E+02 -0.10106606562E+03 -0.39702968172E+03  0.41251819719E+03  0.00000000000E+00 0.  1.
        -15    1    3    3    0    0 -0.29060059226E+02  0.48655043257E+02  0.11915972969E+03  0.13196211269E+03  0.17770000000E+01 0. -1.
         15    1    3    3    0    0 -0.26374939987E+02  0.18789058012E+03  0.15974893984E+03  0.24803505612E+03  0.17770000000E+01 0.  1.
</event>
<event>
 7    1  0.3260141E-006  0.5134469E+03  0.7546771E-02  0.9370214E-01
        -11   -1    0    0    0    0  0.00000000000E+00  0.00000000000E+00  0.50000000000E+03  0.50000000000E+03  0.00000000000E+00 0.  1.
         11   -1    0    0    0    0 -0.00000000000E+00 -0.00000000000E+00 -0.50000000000E+03  0.50000000000E+03  0.00000000000E+00 0. -1.
         23    2    1    2    0    0  0.17523178506E+02  0.21499041140E+01  0.18129885903E+03  0.20346107593E+03  0.90639115528E+02 0.  0.
        -11    1    1    2    0    0  0.61517169337E+02 -0.85851918902E+02  0.29143836246E+03  0.30998585970E+03  0.00000000000E+00 0.  1.
         11    1    1    2    0    0 -0.79040347842E+02  0.83702014788E+02 -0.47273722148E+03  0.48655306436E+03  0.00000000000E+00 0. -1.
        -15    1    3    3    0    0  0.49146542751E+02  0.22374068717E+02  0.11926563030E+03  0.13093292144E+03  0.17770000000E+01 0. -1.
         15    1    3    3    0    0 -0.31623364246E+02 -0.20224164603E+02  0.62033228722E+02  0.72528154498E+02  0.17770000000E+01 0.  1.
</event>
<event>
 7    1  0.3260141E-006  0.3540208E+03  0.7546771E-02  0.9802949E-01
        -11   -1    0    0    0    0  0.00000000000E+00  0.00000000000E+00  0.50000000000E+03  0.50000000000E+03  0.00000000000E+00 0.  1.
         11   -1    0    0    0    0 -0.00000000000E+00 -0.00000000000E+00 -0.50000000000E+03  0.50000000000E+03  0.00000000000E+00 0.  1.
         23    2    1    2    0    0  0.10315396818E+03  0.14966829102E+02  0.25835815746E+03  0.29275898237E+03  0.89967422466E+02 0.  0.
        -11    1    1    2    0    0 -0.17882307694E+03 -0.10994962903E+02  0.18495346207E+03  0.25750022367E+03  0.00000000000E+00 0.  1.
         11    1    1    2    0    0  0.75669108758E+02 -0.39718661985E+01 -0.44331161953E+03  0.44974079396E+03  0.00000000000E+00 0.  1.
        -15    1    3    3    0    0  0.86345576625E+02  0.49332750420E+01  0.25902900052E+03  0.27309170006E+03  0.17770000000E+01 0.  1.
         15    1    3    3    0    0  0.16808391558E+02  0.10033554060E+02 -0.67084305647E+00  0.19667282305E+02  0.17770000000E+01 0. -1.
</event>
<event>
 7    1  0.3260141E-006  0.5295772E+03  0.7546771E-02  0.9335957E-01
        -11   -1    0    0    0    0  0.00000000000E+00  0.00000000000E+00  0.50000000000E+03  0.50000000000E+03  0.00000000000E+00 0. -1.
         11   -1    0    0    0    0 -0.00000000000E+00 -0.00000000000E+00 -0.50000000000E+03  0.50000000000E+03  0.00000000000E+00 0. -1.
         23    2    1    2    0    0  0.57897383754E+02 -0.96636256396E+02  0.36977150036E+02  0.14942737753E+03  0.90942610668E+02 0.  0.
        -11    1    1    2    0    0  0.30228408576E+02 -0.35606117597E+03 -0.12969423834E+03  0.38014985621E+03  0.00000000000E+00 0. -1.
         11    1    1    2    0    0 -0.88125792330E+02  0.45269743237E+03  0.92717088309E+02  0.47042276626E+03  0.00000000000E+00 0. -1.
        -15    1    3    3    0    0 -0.17905377583E+02 -0.23303267734E+02  0.32493494527E+02  0.43847802100E+02  0.17770000000E+01 0. -1.
         15    1    3    3    0    0  0.75802761337E+02 -0.73332988662E+02  0.44836555090E+01  0.10557957543E+03  0.17770000000E+01 0.  1.
</event>
<event>
 7    1  0.3260141E-006  0.5114475E+03  0.7546771E-02  0.9374553E-01
        -11   -1    0    0    0    0  0.00000000000E+00  0.00000000000E+00  0.50000000000E+03  0.50000000000E+03  0.00000000000E+00 0.  1.
         11   -1    0    0    0    0 -0.00000000000E+00 -0.00000000000E+00 -0.50000000000E+03  0.50000000000E+03  0.00000000000E+00 0. -1.
         23    2    1    2    0    0  0.95189286799E+02  0.24855340798E+02 -0.38773414040E+03  0.41004398179E+03  0.90108351916E+02 0.  0.
        -11    1    1    2    0    0 -0.95743792796E+02 -0.80984704276E+02  0.47218446260E+03  0.48855251806E+03  0.00000000000E+00 0.  1.
         11    1    1    2    0    0  0.55450599636E+00  0.56129363478E+02 -0.84450322203E+02  0.10140350014E+03  0.00000000000E+00 0. -1.
        -15    1    3    3    0    0 -0.14622425071E+02  0.16223914511E+02 -0.45228401453E+02  0.50257305379E+02  0.17770000000E+01 0.  1.
         15    1    3    3    0    0  0.10981171187E+03  0.86314262871E+01 -0.34250573895E+03  0.35978667641E+03  0.17770000000E+01 0. -1.
</event>
<event>
 7    1  0.3260141E-006  0.4102404E+03  0.7546771E-02  0.9626618E-01
        -11   -1    0    0    0    0  0.00000000000E+00  0.00000000000E+00  0.50000000000E+03  0.50000000000E+03  0.00000000000E+00 0. -1.
         11   -1    0    0    0    0 -0.00000000000E+00 -0.00000000000E+00 -0.50000000000E+03  0.50000000000E+03  0.00000000000E+00 0.  1.
         23    2    1    2    0    0 -0.81901087401E+02  0.44896275945E+02  0.37205223176E+03  0.39394531831E+03  0.89702770032E+02 0.  0.
        -11    1    1    2    0    0  0.16171934945E+03 -0.17800841369E+02  0.54247301009E+02  0.17150156736E+03  0.00000000000E+00 0. -1.
         11    1    1    2    0    0 -0.79818262053E+02 -0.27095434576E+02 -0.42629953277E+03  0.43455311433E+03  0.00000000000E+00 0.  1.
        -15    1    3    3    0    0 -0.84773492680E+02  0.64758496965E+02  0.33733638094E+03  0.35380672637E+03  0.17770000000E+01 0. -1.
         15    1    3    3    0    0  0.28724052790E+01 -0.19862221019E+02  0.34715850818E+02  0.40138591940E+02  0.17770000000E+01 0.  1.
</event>
<event>
 7    1  0.3260141E-006  0.5233520E+03  0.7546771E-02  0.9349022E-01
        -11   -1    0    0    0    0  0.00000000000E+00  0.00000000000E+00  0.50000000000E+03  0.50000000000E+03  0.00000000000E+00 0.  1.
         11   -1    0    0    0    0 -0.00000000000E+00 -0.00000000000E+00 -0.50000000000E+03  0.50000000000E+03  0.00000000000E+00 0. -1.
         23    2    1    2    0    0 -0.13384509568E+02  0.55398716758E+02  0.11465900579E+03  0.15822606772E+03  0.92955032051E+02 0.  0.
        -11    1    1    2    0    0 -0.74395051225E+02 -0.50959719052E+02  0.35381551384E+03  0.36512591588E+03  0.00000000000E+00 0.  1.
         11    1    1    2    0    0  0.87779560793E+02 -0.44389977055E+01 -0.46847451963E+03  0.47664801640E+03  0.00000000000E+00 0. -1.
        -15    1    3    3    0    0 -0.41249531150E+02  0.26144750677E+02  0.10620864636E+03  0.11691238642E+03  0.17770000000E+01 0. -1.
         15    1    3    3    0    0  0.27865021582E+02  0.29253966081E+02  0.84503594299E+01  0.41313681302E+02  0.17770000000E+01 0.  1.
</event>
<event>
 7    1  0.3260141E-006  0.4085184E+03  0.7546771E-02  0.9631561E-01
        -11   -1    0    0    0    0  0.00000000000E+00  0.00000000000E+00  0.50000000000E+03  0.50000000000E+03  0.00000000000E+00 0. -1.
         11   -1    0    0    0    0 -0.00000000000E+00 -0.00000000000E+00 -0.50000000000E+03  0.50000000000E+03  0.00000000000E+00 0.  1.
         23    2    1    2    0    0  0.10958152473E+03  0.44742660901E+02  0.81687409333E+02  0.17040245778E+03  0.91401031213E+02 0.  0.
        -11    1    1    2    0    0 -0.28930372531E+03 -0.15286460313E+03  0.26724951886E+03  0.42247667119E+03  0.00000000000E+00 0. -1.
         11    1    1    2    0    0  0.17972220058E+03  0.10812194223E+03 -0.34893692819E+03  0.40712087103E+03  0.00000000000E+00 0.  1.
        -15    1    3    3    0    0  0.32584163741E+02 -0.26605186372E+02  0.37903105403E+02  0.56651273567E+02  0.17770000000E+01 0.  1.
         15    1    3    3    0    0  0.76997360989E+02  0.71347847274E+02  0.43784303930E+02  0.11375118421E+03  0.17770000000E+01 0. -1.
</event>
<event>
 7    1  0.3260141E-006  0.3502961E+03  0.7546771E-02  0.9815857E-01
        -11   -1    0    0    0    0  0.00000000000E+00  0.00000000000E+00  0.50000000000E+03  0.50000000000E+03  0.00000000000E+00 0.  1.
         11   -1    0    0    0    0 -0.00000000000E+00 -0.00000000000E+00 -0.50000000000E+03  0.50000000000E+03  0.00000000000E+00 0.  1.
         23    2    1    2    0    0  0.11289516732E+02 -0.58577214495E+01  0.36501689663E+03  0.37634184291E+03  0.90741841591E+02 0.  0.
        -11    1    1    2    0    0  0.22059496536E+03 -0.94357991330E+02 -0.10745242921E+03  0.26289084011E+03  0.00000000000E+00 0.  1.
         11    1    1    2    0    0 -0.23188448209E+03  0.10021571278E+03 -0.25756446742E+03  0.36076731698E+03  0.00000000000E+00 0.  1.
        -15    1    3    3    0    0  0.32245312275E+02 -0.39476065655E+02  0.17775479280E+03  0.18492713164E+03  0.17770000000E+01 0.  1.
         15    1    3    3    0    0 -0.20955795543E+02  0.33618344205E+02  0.18726210383E+03  0.19141471128E+03  0.17770000000E+01 0. -1.
</event>
<event>
 7    1  0.3260141E-006  0.5300278E+03  0.7546771E-02  0.9335018E-01
        -11   -1    0    0    0    0  0.00000000000E+00  0.00000000000E+00  0.50000000000E+03  0.50000000000E+03  0.00000000000E+00 0. -1.
         11   -1    0    0    0    0 -0.00000000000E+00 -0.00000000000E+00 -0.50000000000E+03  0.50000000000E+03  0.00000000000E+00 0.  1.
         23    2    1    2    0    0  0.87980097086E+02  0.18517940504E+02  0.17650582180E+03  0.21830182201E+03  0.91749489161E+02 0.  0.
        -11    1    1    2    0    0 -0.75202848023E+02 -0.96139221910E+02  0.28683592605E+03  0.31172594825E+03  0.00000000000E+00 0. -1.
         11    1    1    2    0    0 -0.12777249063E+02  0.77621281407E+02 -0.46334174785E+03  0.46997222973E+03  0.00000000000E+00 0.  1.
        -15    1    3    3    0    0  0.80882309498E+02  0.50596242306E+02  0.12678970230E+03  0.15868432205E+03  0.17770000000E+01 0.  1.
         15    1    3    3    0    0  0.70977875882E+01 -0.32078301802E+02  0.49716119494E+02  0.59617499962E+02  0.17770000000E+01 0. -1.
</event>
<event>
 7    1  0.3260141E-006  0.5273486E+03  0.7546771E-02  0.9340612E-01
        -11   -1    0    0    0    0  0.00000000000E+00  0.00000000000E+00  0.50000000000E+03  0.50000000000E+03  0.00000000000E+00 0.  1.
         11   -1    0    0    0    0 -0.00000000000E+00 -0.00000000000E+00 -0.50000000000E+03  0.50000000000E+03  0.00000000000E+00 0.  1.
         23    2    1    2    0    0  0.82457220358E+02 -0.73759419417E+02 -0.38065392007E+03  0.40598866967E+03  0.87691207630E+02 0.  0.
        -11    1    1    2    0    0 -0.16101720166E+03  0.66624284467E+01  0.44432922705E+03  0.47265144578E+03  0.00000000000E+00 0.  1.
         11    1    1    2    0    0  0.78559981297E+02  0.67096990970E+02 -0.63675306985E+02  0.12135988455E+03  0.00000000000E+00 0.  1.
        -15    1    3    3    0    0  0.91039586166E+02 -0.52619497199E+02 -0.36039157597E+03  0.37542277967E+03  0.17770000000E+01 0.  1.
         15    1    3    3    0    0 -0.85823658082E+01 -0.21139922218E+02 -0.20262344097E+02  0.30565890001E+02  0.17770000000E+01 0. -1.
</event>
<event>
 7    1  0.3260141E-006  0.5242658E+03  0.7546771E-02  0.9347092E-01
        -11   -1    0    0    0    0  0.00000000000E+00  0.00000000000E+00  0.50000000000E+03  0.50000000000E+03  0.00000000000E+00 0.  1.
         11   -1    0    0    0    0 -0.00000000000E+00 -0.00000000000E+00 -0.50000000000E+03  0.50000000000E+03  0.00000000000E+00 0.  1.
         23    2    1    2    0    0  0.10182881628E+02  0.43668877826E+02  0.19658430481E+03  0.22084623905E+03  0.90094452864E+02 0.  0.
        -11    1    1    2    0    0  0.18692530598E+03  0.13239481402E+03  0.19898233983E+03  0.30341955830E+03  0.00000000000E+00 0.  1.
         11    1    1    2    0    0 -0.19710818760E+03 -0.17606369185E+03 -0.39556664465E+03  0.47573420264E+03  0.00000000000E+00 0.  1.
        -15    1    3    3    0    0  0.13796478629E+02 -0.13515296234E+02  0.38580122021E+01  0.19774934690E+02  0.17770000000E+01 0. -1.
         15    1    3    3    0    0 -0.36135970015E+01  0.57184174060E+02  0.19272629261E+03  0.20107130436E+03  0.17770000000E+01 0.  1.
</event>
<event>
 7    1  0.3260141E-006  0.5122250E+03  0.7546771E-02  0.9372863E-01
        -11   -1    0    0    0    0  0.00000000000E+00  0.00000000000E+00  0.50000000000E+03  0.50000000000E+03  0.00000000000E+00 0. -1.
         11   -1    0    0    0    0 -0.00000000000E+00 -0.00000000000E+00 -0.50000000000E+03  0.50000000000E+03  0.00000000000E+00 0.  1.
         23    2    1    2    0    0  0.12936631835E+02 -0.53217096872E+02  0.24173268384E+03  0.26444636219E+03  0.92183361811E+02 0.  0.
        -11    1    1    2    0    0 -0.74288065599E+02 -0.50724942625E+02  0.23087338626E+03  0.24777864512E+03  0.00000000000E+00 0. -1.
         11    1    1    2    0    0  0.61351433764E+02  0.10394203950E+03 -0.47260607010E+03  0.48777499269E+03  0.00000000000E+00 0.  1.
        -15    1    3    3    0    0  0.31959401027E+02 -0.54078639887E+02  0.23637400422E+03  0.24458481189E+03  0.17770000000E+01 0. -1.
         15    1    3    3    0    0 -0.19022769192E+02  0.86154301460E+00  0.53586796227E+01  0.19861550302E+02  0.17770000000E+01 0.  1.
</event>
<event>
 7    1  0.3260141E-006  0.3561030E+03  0.7546771E-02  0.9795808E-01
        -11   -1    0    0    0    0  0.00000000000E+00  0.00000000000E+00  0.50000000000E+03  0.50000000000E+03  0.00000000000E+00 0. -1.
         11   -1    0    0    0    0 -0.00000000000E+00 -0.00000000000E+00 -0.50000000000E+03  0.50000000000E+03  0.00000000000E+00 0. -1.
         23    2    1    2    0    0 -0.76100195877E+02 -0.26551203496E+03 -0.28651818624E+03  0.40812433179E+03  0.90470540129E+02 0.  0.
        -11    1    1    2    0    0 -0.14375184095E+03  0.21802774849E+02  0.20904253502E+03  0.25463451104E+03  0.00000000000E+00 0. -1.
         11    1    1    2    0    0  0.21985203682E+03  0.24370926011E+03  0.77475651214E+02  0.33724115717E+03  0.00000000000E+00 0. -1.
        -15    1    3    3    0    0  0.89264122863E+01 -0.21406576658E+02 -0.14482630208E+01  0.23306169898E+02  0.17770000000E+01 0.  1.
         15    1    3    3    0    0 -0.85026608163E+02 -0.24410545830E+03 -0.28506992322E+03  0.38481816189E+03  0.17770000000E+01 0. -1.
</event>
<event>
 7    1  0.3260141E-006  0.5151048E+03  0.7546771E-02  0.9366632E-01
        -11   -1    0    0    0    0  0.00000000000E+00  0.00000000000E+00  0.50000000000E+03  0.50000000000E+03  0.00000000000E+00 0. -1.
         11   -1    0    0    0    0 -0.00000000000E+00 -0.00000000000E+00 -0.50000000000E+03  0.50000000000E+03  0.00000000000E+00 0.  1.
         23    2    1    2    0    0 -0.12263744932E+02 -0.32688769842E+02  0.26168601943E+03  0.27849571373E+03  0.88664168011E+02 0.  0.
        -11    1    1    2    0    0  0.10418613579E+03 -0.19977019259E+02  0.21149469459E+03  0.23660904047E+03  0.00000000000E+00 0. -1.
         11    1    1    2    0    0 -0.91922390858E+02  0.52665789101E+02 -0.47318071402E+03  0.48489524580E+03  0.00000000000E+00 0.  1.
        -15    1    3    3    0    0  0.23479896877E+02  0.20309790146E+02  0.95206936963E+02  0.10015643618E+03  0.17770000000E+01 0.  1.
         15    1    3    3    0    0 -0.35743641810E+02 -0.52998559988E+02  0.16647908246E+03  0.17833927755E+03  0.17770000000E+01 0. -1.
</event>
<event>
 7    1  0.3260141E-006  0.4353471E+03  0.7546771E-02  0.9557366E-01
        -11   -1    0    0    0    0  0.00000000000E+00  0.00000000000E+00  0.50000000000E+03  0.50000000000E+03  0.00000000000E+00 0. -1.
         11   -1    0    0    0    0 -0.00000000000E+00 -0.00000000000E+00 -0.50000000000E+03  0.50000000000E+03  0.00000000000E+00 0. -1.
         23    2    1    2    0    0  0.56154854711E+02 -0.64568061078E+02 -0.18412973356E+02  0.12491725203E+03  0.89122836854E+02 0.  0.
        -11    1    1    2    0    0 -0.62118525842E+01  0.14778724309E+03  0.42868504860E+03  0.45348707503E+03  0.00000000000E+00 0. -1.
         11    1    1    2    0    0 -0.49943002126E+02 -0.83219182008E+02 -0.41027207524E+03  0.42159567293E+03  0.00000000000E+00 0. -1.
        -15    1    3    3    0    0 -0.44989081362E+01  0.17209519665E+02 -0.14488331444E+02  0.23010371977E+02  0.17770000000E+01 0.  1.
         15    1    3    3    0    0  0.60653762847E+02 -0.81777580743E+02 -0.39246419122E+01  0.10190688006E+03  0.17770000000E+01 0. -1.
</event>
<event>
 7    1  0.3260141E-006  0.3543457E+03  0.7546771E-02  0.9801832E-01
        -11   -1    0    0    0    0  0.00000000000E+00  0.00000000000E+00  0.50000000000E+03  0.50000000000E+03  0.00000000000E+00 0. -1.
         11   -1    0    0    0    0 -0.00000000000E+00 -0.00000000000E+00 -0.50000000000E+03  0.50000000000E+03  0.00000000000E+00 0. -1.
         23    2    1    2    0    0  0.95805235722E+02 -0.15072617332E+03  0.34712216787E+03  0.40079451787E+03  0.90804314958E+02 0.  0.
        -11    1    1    2    0    0 -0.21044645762E+03  0.14573650087E+03 -0.24935018669E+02  0.25719369037E+03  0.00000000000E+00 0. -1.
         11    1    1    2    0    0  0.11464122190E+03  0.49896724596E+01 -0.32218714920E+03  0.34201179176E+03  0.00000000000E+00 0. -1.
        -15    1    3    3    0    0  0.21014828282E+02 -0.10874027529E+02  0.58069414157E+01  0.24428380626E+02  0.17770000000E+01 0.  1.
         15    1    3    3    0    0  0.74790407439E+02 -0.13985214580E+03  0.34131522645E+03  0.37636613725E+03  0.17770000000E+01 0. -1.
</event>
<event>
 7    1  0.3260141E-006  0.3064288E+03  0.7546771E-02  0.9982173E-01
        -11   -1    0    0    0    0  0.00000000000E+00  0.00000000000E+00  0.50000000000E+03  0.50000000000E+03  0.00000000000E+00 0. -1.
         11   -1    0    0    0    0 -0.00000000000E+00 -0.00000000000E+00 -0.50000000000E+03  0.50000000000E+03  0.00000000000E+00 0.  1.
         23    2    1    2    0    0 -0.12312135152E+03  0.26540585626E+03  0.13593564264E+03  0.33880591611E+03  0.10349789423E+03 0.  0.
        -11    1    1    2    0    0  0.16280659720E+03 -0.20097230167E+03  0.19360455206E+03  0.32307673502E+03  0.00000000000E+00 0. -1.
         11    1    1    2    0    0 -0.39685245683E+02 -0.64433554589E+02 -0.32954019470E+03  0.33811734887E+03  0.00000000000E+00 0.  1.
        -15    1    3    3    0    0 -0.68004107868E+02  0.42660568968E+02  0.44378462059E+02  0.91744691702E+02  0.17770000000E+01 0. -1.
         15    1    3    3    0    0 -0.55117243653E+02  0.22274528729E+03  0.91557180584E+02  0.24706122441E+03  0.17770000000E+01 0.  1.
</event>
<event>
 7    1  0.3260141E-006  0.5193955E+03  0.7546771E-02  0.9357427E-01
        -11   -1    0    0    0    0  0.00000000000E+00  0.00000000000E+00  0.50000000000E+03  0.50000000000E+03  0.00000000000E+00 0. -1.
         11   -1    0    0    0    0 -0.00000000000E+00 -0.00000000000E+00 -0.50000000000E+03  0.50000000000E+03  0.00000000000E+00 0. -1.
         23    2    1    2    0    0  0.84143588638E+02 -0.72110472485E+02  0.23332808892E+03  0.27425906541E+03  0.92173608641E+02 0.  0.
        -11    1    1    2    0    0 -0.52439513387E+02 -0.92082296593E+01  0.23928468768E+03  0.24513640247E+03  0.00000000000E+00 0. -1.
         11    1    1    2    0    0 -0.31704075251E+02  0.81318702144E+02 -0.47261277659E+03  0.48060453213E+03  0.00000000000E+00 0. -1.
        -15    1    3    3    0    0  0.98545328139E+02 -0.70862015347E+02  0.22879784013E+03  0.25900620899E+03  0.17770000000E+01 0. -1.
         15    1    3    3    0    0 -0.14401739501E+02 -0.12484571383E+01  0.45302487859E+01  0.15252856419E+02  0.17770000000E+01 0.  1.
</event>
<event>
 7    1  0.3260141E-006  0.5287614E+03  0.7546771E-02  0.9337658E-01
        -11   -1    0    0    0    0  0.00000000000E+00  0.00000000000E+00  0.50000000000E+03  0.50000000000E+03  0.00000000000E+00 0.  1.
         11   -1    0    0    0    0 -0.00000000000E+00 -0.00000000000E+00 -0.50000000000E+03  0.50000000000E+03  0.00000000000E+00 0.  1.
         23    2    1    2    0    0  0.24238763617E+02 -0.11552603774E+03  0.19648943674E+01  0.15248203231E+03  0.96504540352E+02 0.  0.
        -11    1    1    2    0    0 -0.32588748131E+03  0.34035025810E+03  0.49849059466E+01  0.47123857859E+03  0.00000000000E+00 0.  1.
         11    1    1    2    0    0  0.30164871769E+03 -0.22482422036E+03 -0.69498003141E+01  0.37627938911E+03  0.00000000000E+00 0.  1.
        -15    1    3    3    0    0  0.35830808934E+02 -0.84877022101E+02  0.41534475133E+02  0.10107534864E+03  0.17770000000E+01 0. -1.
         15    1    3    3    0    0 -0.11592045317E+02 -0.30649015639E+02 -0.39569580766E+02  0.51406683663E+02  0.17770000000E+01 0.  1.
</event>
<event>
 7    1  0.3260141E-006  0.3547896E+03  0.7546771E-02  0.9800306E-01
        -11   -1    0    0    0    0  0.00000000000E+00  0.00000000000E+00  0.50000000000E+03  0.50000000000E+03  0.00000000000E+00 0. -1.
         11   -1    0    0    0    0 -0.00000000000E+00 -0.00000000000E+00 -0.50000000000E+03  0.50000000000E+03  0.00000000000E+00 0.  1.
         23    2    1    2    0    0  0.22091574058E+03 -0.19687054239E+02 -0.34974032238E+02  0.25574386237E+03  0.12243527134E+03 0.  0.
        -11    1    1    2    0    0 -0.13795288030E+03  0.43017129788E+02  0.37058214954E+03  0.39775947530E+03  0.00000000000E+00 0. -1.
         11    1    1    2    0    0 -0.82962860274E+02 -0.23330075549E+02 -0.33560811730E+03  0.34649666233E+03  0.00000000000E+00 0.  1.
        -15    1    3    3    0    0  0.18869308375E+02 -0.40354566101E+02  0.14157363614E+02  0.46777456934E+02  0.17770000000E+01 0. -1.
         15    1    3    3    0    0  0.20204643220E+03  0.20667511861E+02 -0.49131395852E+02  0.20896640543E+03  0.17770000000E+01 0.  1.
</event>
<event>
 7    1  0.3260141E-006  0.5241693E+03  0.7546771E-02  0.9347296E-01
        -11   -1    0    0    0    0  0.00000000000E+00  0.00000000000E+00  0.50000000000E+03  0.50000000000E+03  0.00000000000E+00 0.  1.
         11   -1    0    0    0    0 -0.00000000000E+00 -0.00000000000E+00 -0.50000000000E+03  0.50000000000E+03  0.00000000000E+00 0. -1.
         23    2    1    2    0    0  0.14054322005E+02  0.34929296570E+00 -0.15003871072E+03  0.17622718256E+03  0.91360599744E+02 0.  0.
        -11    1    1    2    0    0  0.12755283121E+03 -0.13399979607E+03  0.43839385044E+03  0.47583068228E+03  0.00000000000E+00 0.  1.
         11    1    1    2    0    0 -0.14160715322E+03  0.13365050310E+03 -0.28835513972E+03  0.34794213517E+03  0.00000000000E+00 0. -1.
        -15    1    3    3    0    0  0.25156953417E+01  0.37202503626E+02 -0.12429972441E+03  0.12978418323E+03  0.17770000000E+01 0. -1.
         15    1    3    3    0    0  0.11538626664E+02 -0.36853210660E+02 -0.25738986303E+02  0.46442999323E+02  0.17770000000E+01 0.  1.
</event>
<event>
 7    1  0.3260141E-006  0.4855246E+03  0.7546771E-02  0.9432795E-01
        -11   -1    0    0    0    0  0.00000000000E+00  0.00000000000E+00  0.50000000000E+03  0.50000000000E+03  0.00000000000E+00 0.  1.
         11   -1    0    0    0    0 -0.00000000000E+00 -0.00000000000E+00 -0.50000000000E+03  0.50000000000E+03  0.00000000000E+00 0.  1.
         23    2    1    2    0    0 -0.13982444176E+03 -0.20074398159E+02  0.45216019903E+03  0.48285300630E+03  0.93511090938E+02 0.  0.
        -11    1    1    2    0    0  0.30931094221E+02  0.14400484911E+02  0.15115462200E+02  0.37317338502E+02  0.00000000000E+00 0.  1.
         11    1    1    2    0    0  0.10889334754E+03  0.56739132480E+01 -0.46727566123E+03  0.47982965520E+03  0.00000000000E+00 0.  1.
        -15    1    3    3    0    0 -0.89126687989E+02 -0.57746884888E+02  0.28510470880E+03  0.30424681088E+03  0.17770000000E+01 0.  1.
         15    1    3    3    0    0 -0.50697753776E+02  0.37672486729E+02  0.16705549023E+03  0.17860619541E+03  0.17770000000E+01 0. -1.
</event>
<event>
 7    1  0.3260141E-006  0.5246684E+03  0.7546771E-02  0.9346243E-01
        -11   -1    0    0    0    0  0.00000000000E+00  0.00000000000E+00  0.50000000000E+03  0.50000000000E+03  0.00000000000E+00 0. -1.
         11   -1    0    0    0    0 -0.00000000000E+00 -0.00000000000E+00 -0.50000000000E+03  0.50000000000E+03  0.00000000000E+00 0.  1.
         23    2    1    2    0    0 -0.13176436430E+03 -0.83760725430E+01  0.44771302352E+03  0.47533163490E+03  0.89784215876E+02 0.  0.
        -11    1    1    2    0    0  0.12615552514E+03 -0.61120840701E+02 -0.10555532329E+03  0.17547905848E+03  0.00000000000E+00 0. -1.
         11    1    1    2    0    0  0.56088391520E+01  0.69496913245E+02 -0.34215770023E+03  0.34918930661E+03  0.00000000000E+00 0.  1.
        -15    1    3    3    0    0 -0.43045645835E+02 -0.33853764877E+02  0.85593616318E+02  0.10162888322E+03  0.17770000000E+01 0.  1.
         15    1    3    3    0    0 -0.88718718461E+02  0.25477692334E+02  0.36211940720E+03  0.37370275168E+03  0.17770000000E+01 0. -1.
</event>
<event>
 7    1  0.3260141E-006  0.5326794E+03  0.7546771E-02  0.9329517E-01
        -11   -1    0    0    0    0  0.00000000000E+00  0.00000000000E+00  0.50000000000E+03  0.50000000000E+03  0.00000000000E+00 0.  1.
         11   -1    0    0    0    0 -0.00000000000E+00 -0.00000000000E+00 -0.50000000000E+03  0.50000000000E+03  0.00000000000E+00 0. -1.
         23    2    1    2    0    0  0.22817794168E+02 -0.28203393905E+02 -0.13504376601E+03  0.16537433794E+03  0.88293656361E+02 0.  0.
        -11    1    1    2    0    0 -0.33349084037E+03  0.14019011222E+03  0.29583632230E+03  0.46732059420E+03  0.00000000000E+00 0.  1.
         11    1    1    2    0    0  0.31067304620E+03 -0.11198671832E+03 -0.16079255629E+03  0.36730506786E+03  0.00000000000E+00 0. -1.
        -15    1    3    3    0    0  0.16813924228E+01  0.29379051712E+02 -0.69986765002E+02  0.75942483264E+02  0.17770000000E+01 0. -1.
         15    1    3    3    0    0  0.21136401745E+02 -0.57582445617E+02 -0.65057001004E+02  0.89431854675E+02  0.17770000000E+01 0.  1.
</event>
<event>
 7    1  0.3260141E-006  0.5077553E+03  0.7546771E-02  0.9382622E-01
        -11   -1    0    0    0    0  0.00000000000E+00  0.00000000000E+00  0.50000000000E+03  0.50000000000E+03  0.00000000000E+00 0. -1.
         11   -1    0    0    0    0 -0.00000000000E+00 -0.00000000000E+00 -0.50000000000E+03  0.50000000000E+03  0.00000000000E+00 0.  1.
         23    2    1    2    0    0 -0.10114036466E+03  0.26743873922E+02 -0.36869300775E+03  0.39402101048E+03  0.91506363626E+02 0.  0.
        -11    1    1    2    0    0  0.11522754458E+03 -0.96183548993E+00  0.47856715659E+03  0.49224469070E+03  0.00000000000E+00 0. -1.
         11    1    1    2    0    0 -0.14087179918E+02 -0.25782038432E+02 -0.10987414884E+03  0.11373429882E+03  0.00000000000E+00 0.  1.
        -15    1    3    3    0    0 -0.62189397730E+02 -0.49643261405E+01 -0.31233433295E+03  0.31850911917E+03  0.17770000000E+01 0.  1.
         15    1    3    3    0    0 -0.38950966932E+02  0.31708200063E+02 -0.56358674795E+02  0.75511891313E+02  0.17770000000E+01 0. -1.
</event>
<event>
 7    1  0.3260141E-006  0.3690478E+03  0.7546771E-02  0.9752552E-01
        -11   -1    0    0    0    0  0.00000000000E+00  0.00000000000E+00  0.50000000000E+03  0.50000000000E+03  0.00000000000E+00 0. -1.
         11   -1    0    0    0    0 -0.00000000000E+00 -0.00000000000E+00 -0.50000000000E+03  0.50000000000E+03  0.00000000000E+00 0. -1.
         23    2    1    2    0    0  0.65139737331E+02  0.19972090487E+03 -0.20738042381E+03  0.30843173029E+03  0.89397241844E+02 0.  0.
        -11    1    1    2    0    0 -0.91928202008E+02 -0.12408285844E+03  0.42895833304E+03  0.45590854518E+03  0.00000000000E+00 0. -1.
         11    1    1    2    0    0  0.26788464678E+02 -0.75638046429E+02 -0.22157790923E+03  0.23565972453E+03  0.00000000000E+00 0. -1.
        -15    1    3    3    0    0  0.30566302235E+02  0.16167802428E+03 -0.10888697815E+03  0.19731602597E+03  0.17770000000E+01 0. -1.
         15    1    3    3    0    0  0.34573435096E+02  0.38042880585E+02 -0.98493445662E+02  0.11111570431E+03  0.17770000000E+01 0.  1.
</event>
<event>
 7    1  0.3260141E-006  0.3722540E+03  0.7546771E-02  0.9742132E-01
        -11   -1    0    0    0    0  0.00000000000E+00  0.00000000000E+00  0.50000000000E+03  0.50000000000E+03  0.00000000000E+00 0.  1.
         11   -1    0    0    0    0 -0.00000000000E+00 -0.00000000000E+00 -0.50000000000E+03  0.50000000000E+03  0.00000000000E+00 0. -1.
         23    2    1    2    0    0  0.13493239656E+03 -0.41799054733E+02  0.27096011752E+03  0.31907714728E+03  0.91852751773E+02 0.  0.
        -11    1    1    2    0    0 -0.70206933921E+01  0.18818183496E+03  0.13440395198E+03  0.23135711671E+03  0.00000000000E+00 0.  1.
         11    1    1    2    0    0 -0.12791170317E+03 -0.14638278023E+03 -0.40536406950E+03  0.44956573601E+03  0.00000000000E+00 0. -1.
        -15    1    3    3    0    0  0.10261595927E+03 -0.84059932227E+01  0.24513120315E+03  0.26588185404E+03  0.17770000000E+01 0.  1.
         15    1    3    3    0    0  0.32316437293E+02 -0.33393061510E+02  0.25828914370E+02  0.53195293240E+02  0.17770000000E+01 0. -1.
</event>
<event>
 7    1  0.3260141E-006  0.5120143E+03  0.7546771E-02  0.9373321E-01
        -11   -1    0    0    0    0  0.00000000000E+00  0.00000000000E+00  0.50000000000E+03  0.50000000000E+03  0.00000000000E+00 0.  1.
         11   -1    0    0    0    0 -0.00000000000E+00 -0.00000000000E+00 -0.50000000000E+03  0.50000000000E+03  0.00000000000E+00 0. -1.
         23    2    1    2    0    0 -0.83934526157E+01 -0.61391379312E+02 -0.27300529163E+03  0.29451187480E+03  0.91465860538E+02 0.  0.
        -11    1    1    2    0    0  0.83862745803E+02  0.59824094006E+02  0.47698867267E+03  0.48798573362E+03  0.00000000000E+00 0.  1.
         11    1    1    2    0    0 -0.75469293187E+02  0.15672853059E+01 -0.20398338105E+03  0.21750239158E+03  0.00000000000E+00 0. -1.
        -15    1    3    3    0    0 -0.41540458194E+02 -0.64922688217E+02 -0.19087584461E+03  0.20585750144E+03  0.17770000000E+01 0. -1.
         15    1    3    3    0    0  0.33147005578E+02  0.35313089051E+01 -0.82129447012E+02  0.88654373365E+02  0.17770000000E+01 0.  1.
</event>
<event>
 7    1  0.3260141E-006  0.5197994E+03  0.7546771E-02  0.9356565E-01
        -11   -1    0    0    0    0  0.00000000000E+00  0.00000000000E+00  0.50000000000E+03  0.50000000000E+03  0.00000000000E+00 0.  1.
         11   -1    0    0    0    0 -0.00000000000E+00 -0.00000000000E+00 -0.50000000000E+03  0.50000000000E+03  0.00000000000E+00 0. -1.
         23    2    1    2    0    0 -0.32592910635E+02 -0.32903227433E+02  0.12919323683E+03  0.16976797141E+03  0.99926730526E+02 0.  0.
        -11    1    1    2    0    0 -0.80733475565E+02  0.47958329407E+02  0.33720043235E+03  0.35003146575E+03  0.00000000000E+00 0.  1.
         11    1    1    2    0    0  0.11332638620E+03 -0.15055101974E+02 -0.46639366918E+03  0.48020056285E+03  0.00000000000E+00 0. -1.
        -15    1    3    3    0    0 -0.57467471390E+02 -0.44282492292E+02  0.12111148634E+03  0.14118994031E+03  0.17770000000E+01 0.  1.
         15    1    3    3    0    0  0.24874560755E+02  0.11379264859E+02  0.80817504900E+01  0.28578031098E+02  0.17770000000E+01 0. -1.
</event>
<event>
 7    1  0.3260141E-006  0.4285194E+03  0.7546771E-02  0.9575696E-01
        -11   -1    0    0    0    0  0.00000000000E+00  0.00000000000E+00  0.50000000000E+03  0.50000000000E+03  0.00000000000E+00 0.  1.
         11   -1    0    0    0    0 -0.00000000000E+00 -0.00000000000E+00 -0.50000000000E+03  0.50000000000E+03  0.00000000000E+00 0.  1.
         23    2    1    2    0    0  0.65609943571E+02 -0.45440811436E+02  0.62322184416E+02  0.13699987126E+03  0.92278805877E+02 0.  0.
        -11    1    1    2    0    0 -0.17765479394E+03 -0.93262129048E+02  0.35578367068E+03  0.40846183524E+03  0.00000000000E+00 0.  1.
         11    1    1    2    0    0  0.11204485037E+03  0.13870294048E+03 -0.41810585510E+03  0.45453829350E+03  0.00000000000E+00 0.  1.
        -15    1    3    3    0    0  0.65254184327E+02 -0.99484987822E+01  0.74389185330E+02  0.99468536850E+02  0.17770000000E+01 0.  1.
         15    1    3    3    0    0  0.35575924477E+00 -0.35492312654E+02 -0.12067000914E+02  0.37531334405E+02  0.17770000000E+01 0. -1.
</event>
<event>
 7    1  0.3260141E-006  0.4565644E+03  0.7546771E-02  0.9502616E-01
        -11   -1    0    0    0    0  0.00000000000E+00  0.00000000000E+00  0.50000000000E+03  0.50000000000E+03  0.00000000000E+00 0. -1.
         11   -1    0    0    0    0 -0.00000000000E+00 -0.00000000000E+00 -0.50000000000E+03  0.50000000000E+03  0.00000000000E+00 0.  1.
         23    2    1    2    0    0 -0.12084378700E+02  0.40316102840E+02  0.42257242374E+03  0.43414586806E+03  0.90242789661E+02 0.  0.
        -11    1    1    2    0    0  0.60758904233E+02  0.55360094501E+02  0.39699552434E+02  0.91282194157E+02  0.00000000000E+00 0. -1.
         11    1    1    2    0    0 -0.48674525533E+02 -0.95676197341E+02 -0.46227197618E+03  0.47457193779E+03  0.00000000000E+00 0.  1.
        -15    1    3    3    0    0  0.31227753127E+02 -0.13023712252E+01  0.72752650473E+02  0.79202112447E+02  0.17770000000E+01 0.  1.
         15    1    3    3    0    0 -0.43312131827E+02  0.41618474066E+02  0.34981977327E+03  0.35494375561E+03  0.17770000000E+01 0. -1.
</event>
<event>
 7    1  0.3260141E-006  0.5351649E+03  0.7546771E-02  0.9324390E-01
        -11   -1    0    0    0    0  0.00000000000E+00  0.00000000000E+00  0.50000000000E+03  0.50000000000E+03  0.00000000000E+00 0.  1.
         11   -1    0    0    0    0 -0.00000000000E+00 -0.00000000000E+00 -0.50000000000E+03  0.50000000000E+03  0.00000000000E+00 0. -1.
         23    2    1    2    0    0 -0.75231510372E+02 -0.94564505493E+02 -0.11475142183E+03  0.18718753511E+03  0.85258774553E+02 0.  0.
        -11    1    1    2    0    0  0.14442339967E+02  0.82787160155E+02  0.45717544241E+03  0.46483511078E+03  0.00000000000E+00 0.  1.
         11    1    1    2    0    0  0.60789170405E+02  0.11777345338E+02 -0.34242402058E+03  0.34797735411E+03  0.00000000000E+00 0. -1.
        -15    1    3    3    0    0  0.14431733062E+02 -0.35693565000E+02 -0.17264260588E+02  0.42231717040E+02  0.17770000000E+01 0.  1.
         15    1    3    3    0    0 -0.89663243433E+02 -0.58870940493E+02 -0.97487161238E+02  0.14495581807E+03  0.17770000000E+01 0. -1.
</event>
<event>
 7    1  0.3260141E-006  0.4225689E+03  0.7546771E-02  0.9591971E-01
        -11   -1    0    0    0    0  0.00000000000E+00  0.00000000000E+00  0.50000000000E+03  0.50000000000E+03  0.00000000000E+00 0.  1.
         11   -1    0    0    0    0 -0.00000000000E+00 -0.00000000000E+00 -0.50000000000E+03  0.50000000000E+03  0.00000000000E+00 0. -1.
         23    2    1    2    0    0  0.72043765091E+02 -0.10154272897E+03  0.44822330668E+03  0.47443005098E+03  0.93158524754E+02 0.  0.
        -11    1    1    2    0    0 -0.83001332177E+01  0.12807994148E+03 -0.80686517695E+02  0.15160368649E+03  0.00000000000E+00 0.  1.
         11    1    1    2    0    0 -0.63743631874E+02 -0.26537212512E+02 -0.36753678898E+03  0.37396626252E+03  0.00000000000E+00 0. -1.
        -15    1    3    3    0    0  0.86458209976E+01 -0.49982994270E+02  0.64385322880E+02  0.81985836998E+02  0.17770000000E+01 0. -1.
         15    1    3    3    0    0  0.63397944094E+02 -0.51559734696E+02  0.38383798380E+03  0.39244421399E+03  0.17770000000E+01 0.  1.
</event>
<event>
 7    1  0.3260141E-006  0.4625454E+03  0.7546771E-02  0.9487752E-01
        -11   -1    0    0    0    0  0.00000000000E+00  0.00000000000E+00  0.50000000000E+03  0.50000000000E+03  0.00000000000E+00 0.  1.
         11   -1    0    0    0    0 -0.00000000000E+00 -0.00000000000E+00 -0.50000000000E+03  0.50000000000E+03  0.00000000000E+00 0. -1.
         23    2    1    2    0    0 -0.41100688060E+02  0.27327385836E+02  0.44298156219E+03  0.45477633240E+03  0.90292831907E+02 0.  0.
        -11    1    1    2    0    0 -0.58622437983E+02  0.54749704751E+02  0.36464301251E+01  0.80295808471E+02  0.00000000000E+00 0.  1.
         11    1    1    2    0    0  0.99723126043E+02 -0.82077090588E+02 -0.44662799232E+03  0.46492785913E+03  0.00000000000E+00 0. -1.
        -15    1    3    3    0    0 -0.82056243307E+01 -0.32870033202E+02  0.16482822131E+03  0.16828330762E+03  0.17770000000E+01 0. -1.
         15    1    3    3    0    0 -0.32895063729E+02  0.60197419038E+02  0.27815334088E+03  0.28649302478E+03  0.17770000000E+01 0.  1.
</event>
<event>
 7    1  0.3260141E-006  0.4022627E+03  0.7546771E-02  0.9649739E-01
        -11   -1    0    0    0    0  0.00000000000E+00  0.00000000000E+00  0.50000000000E+03  0.50000000000E+03  0.00000000000E+00 0. -1.
         11   -1    0    0    0    0 -0.00000000000E+00 -0.00000000000E+00 -0.50000000000E+03  0.50000000000E+03  0.00000000000E+00 0.  1.
         23    2    1    2    0    0  0.15689217215E+02 -0.34961975028E+02  0.38063678327E+03  0.39341136159E+03  0.91758636734E+02 0.  0.
        -11    1    1    2    0    0 -0.89475840534E+02 -0.16108671673E+03 -0.14593337867E+02  0.18484539988E+03  0.00000000000E+00 0. -1.
         11    1    1    2    0    0  0.73786623319E+02  0.19604869176E+03 -0.36604344541E+03  0.42174323853E+03  0.00000000000E+00 0.  1.
        -15    1    3    3    0    0 -0.31556115978E+02  0.10230901846E+02  0.15299880006E+03  0.15656388586E+03  0.17770000000E+01 0.  1.
         15    1    3    3    0    0  0.47245333193E+02 -0.45192876874E+02  0.22763798321E+03  0.23684747573E+03  0.17770000000E+01 0. -1.
</event>
<event>
 7    1  0.3260141E-006  0.5305886E+03  0.7546771E-02  0.9333852E-01
        -11   -1    0    0    0    0  0.00000000000E+00  0.00000000000E+00  0.50000000000E+03  0.50000000000E+03  0.00000000000E+00 0. -1.
         11   -1    0    0    0    0 -0.00000000000E+00 -0.00000000000E+00 -0.50000000000E+03  0.50000000000E+03  0.00000000000E+00 0.  1.
         23    2    1    2    0    0 -0.71944901981E+01  0.35643828372E+02 -0.34532235484E+02  0.97173094980E+02  0.83233958876E+02 0.  0.
        -11    1    1    2    0    0 -0.76647635685E+02 -0.61988014472E+02  0.45894413092E+03  0.46941142860E+03  0.00000000000E+00 0. -1.
         11    1    1    2    0    0  0.83842125884E+02  0.26344186101E+02 -0.42441189544E+03  0.43341547642E+03  0.00000000000E+00 0.  1.
        -15    1    3    3    0    0 -0.24441517493E+02 -0.16760108432E+02 -0.29325275977E+02  0.41730307357E+02  0.17770000000E+01 0. -1.
         15    1    3    3    0    0  0.17247027295E+02  0.52403936804E+02 -0.52069595073E+01  0.55442787622E+02  0.17770000000E+01 0.  1.
</event>
<event>
 7    1  0.3260141E-006  0.5253347E+03  0.7546771E-02  0.9344840E-01
        -11   -1    0    0    0    0  0.00000000000E+00  0.00000000000E+00  0.50000000000E+03  0.50000000000E+03  0.00000000000E+00 0.  1.
         11   -1    0    0    0    0 -0.00000000000E+00 -0.00000000000E+00 -0.50000000000E+03  0.50000000000E+03  0.00000000000E+00 0. -1.
         23    2    1    2    0    0 -0.17956457258E+03 -0.73100458784E+01 -0.80366616922E+02  0.21769827855E+03  0.92934788259E+02 0.  0.
        -11    1    1    2    0    0  0.31770436538E+03  0.11355765015E+03  0.33387989855E+03  0.47466534563E+03  0.00000000000E+00 0.  1.
         11    1    1    2    0    0 -0.13813979279E+03 -0.10624760427E+03 -0.25351328163E+03  0.30763637582E+03  0.00000000000E+00 0. -1.
        -15    1    3    3    0    0 -0.11566041203E+03 -0.46156061587E+02 -0.31897196074E+02  0.12856244311E+03  0.17770000000E+01 0.  1.
         15    1    3    3    0    0 -0.63904160554E+02  0.38846015709E+02 -0.48469420848E+02  0.89135835436E+02  0.17770000000E+01 0. -1.
</event>
<event>
 7    1  0.3260141E-006  0.5197531E+03  0.7546771E-02  0.9356664E-01
        -11   -1    0    0    0    0  0.00000000000E+00  0.00000000000E+00  0.50000000000E+03  0.50000000000E+03  0.00000000000E+00 0. -1.
         11   -1    0    0    0    0 -0.00000000000E+00 -0.00000000000E+00 -0.50000000000E+03  0.50000000000E+03  0.00000000000E+00 0. -1.
         23    2    1    2    0    0 -0.20589221286E+01 -0.21215391983E+02  0.27267165242E+03  0.28985542045E+03  0.95979178552E+02 0.  0.
        -11    1    1    2    0    0  0.12689451072E+03 -0.45342396511E+02  0.18626539473E+03  0.22989768822E+03  0.00000000000E+00 0. -1.
         11    1    1    2    0    0 -0.12483558859E+03  0.66557788495E+02 -0.45893704715E+03  0.48024689133E+03  0.00000000000E+00 0. -1.
        -15    1    3    3    0    0  0.76391171105E+01  0.32436211547E+02  0.17341321222E+03  0.17659491451E+03  0.17770000000E+01 0. -1.
         15    1    3    3    0    0 -0.96980392390E+01 -0.53651603530E+02  0.99258440200E+02  0.11326050594E+03  0.17770000000E+01 0.  1.
</event>
<event>
 7    1  0.3260141E-006  0.4701210E+03  0.7546771E-02  0.9469266E-01
        -11   -1    0    0    0    0  0.00000000000E+00  0.00000000000E+00  0.50000000000E+03  0.50000000000E+03  0.00000000000E+00 0.  1.
         11   -1    0    0    0    0 -0.00000000000E+00 -0.00000000000E+00 -0.50000000000E+03  0.50000000000E+03  0.00000000000E+00 0. -1.
         23    2    1    2    0    0  0.55711367902E+02 -0.23691623754E+02  0.44945338933E+03  0.46278805699E+03  0.92192119815E+02 0.  0.
        -11    1    1    2    0    0  0.28975242802E+02  0.58604819664E+02  0.12245895413E+02  0.66513544018E+02  0.00000000000E+00 0.  1.
         11    1    1    2    0    0 -0.84686610704E+02 -0.34913195911E+02 -0.46169928475E+03  0.47069839900E+03  0.00000000000E+00 0. -1.
        -15    1    3    3    0    0  0.68386043068E+02  0.17150924587E+01  0.39935907902E+03  0.40517949622E+03  0.17770000000E+01 0.  1.
         15    1    3    3    0    0 -0.12674675166E+02 -0.25406716212E+02  0.50094310310E+02  0.57608560767E+02  0.17770000000E+01 0. -1.
</event>
<event>
 7    1  0.3260141E-006  0.5360700E+03  0.7546771E-02  0.9322531E-01
        -11   -1    0    0    0    0  0.00000000000E+00  0.00000000000E+00  0.50000000000E+03  0.50000000000E+03  0.00000000000E+00 0. -1.
         11   -1    0    0    0    0 -0.00000000000E+00 -0.00000000000E+00 -0.50000000000E+03  0.50000000000E+03  0.00000000000E+00 0. -1.
         23    2    1    2    0    0  0.13049661947E+03 -0.63842881030E+02 -0.15256750374E+03  0.22731783177E+03  0.85388947117E+02 0.  0.
        -11    1    1    2    0    0 -0.80166705490E+02  0.33768965797E+02  0.45570169539E+03  0.46393003664E+03  0.00000000000E+00 0. -1.
         11    1    1    2    0    0 -0.50329913978E+02  0.30073915233E+02 -0.30313419165E+03  0.30875213159E+03  0.00000000000E+00 0. -1.
        -15    1    3    3    0    0  0.31802321126E+01 -0.17895307583E+02 -0.61540358866E+02  0.64192907771E+02  0.17770000000E+01 0. -1.
         15    1    3    3    0    0  0.12731638736E+03 -0.45947573446E+02 -0.91027144876E+02  0.16312492399E+03  0.17770000000E+01 0.  1.
</event>
<event>
 7    1  0.3260141E-006  0.3213143E+03  0.7546771E-02  0.9922555E-01
        -11   -1    0    0    0    0  0.00000000000E+00  0.00000000000E+00  0.50000000000E+03  0.50000000000E+03  0.00000000000E+00 0. -1.
         11   -1    0    0    0    0 -0.00000000000E+00 -0.00000000000E+00 -0.50000000000E+03  0.50000000000E+03  0.00000000000E+00 0. -1.
         23    2    1    2    0    0  0.35735728852E+02  0.15971075734E+03  0.30409633980E+03  0.35738209120E+03  0.91993515544E+02 0.  0.
        -11    1    1    2    0    0 -0.84350092422E+02 -0.28997221918E+03  0.67785167948E+01  0.30206749954E+03  0.00000000000E+00 0. -1.
         11    1    1    2    0    0  0.48614363570E+02  0.13026146185E+03 -0.31087485659E+03  0.34055040926E+03  0.00000000000E+00 0. -1.
        -15    1    3    3    0    0 -0.27513074393E+01  0.92433029848E+02  0.23856985449E+03  0.25587138937E+03  0.17770000000E+01 0.  1.
         15    1    3    3    0    0  0.38487036291E+02  0.67277727488E+02  0.65526485311E+02  0.10151070182E+03  0.17770000000E+01 0. -1.
</event>
<event>
 7    1  0.3260141E-006  0.5219994E+03  0.7546771E-02  0.9351887E-01
        -11   -1    0    0    0    0  0.00000000000E+00  0.00000000000E+00  0.50000000000E+03  0.50000000000E+03  0.00000000000E+00 0.  1.
         11   -1    0    0    0    0 -0.00000000000E+00 -0.00000000000E+00 -0.50000000000E+03  0.50000000000E+03  0.00000000000E+00 0.  1.
         23    2    1    2    0    0  0.20662906024E+02 -0.82051138369E+02 -0.22728266010E+03  0.26588797728E+03  0.10899387088E+03 0.  0.
        -11    1    1    2    0    0 -0.17558042107E+03  0.12495771278E+03  0.42666336743E+03  0.47800056836E+03  0.00000000000E+00 0.  1.
         11    1    1    2    0    0  0.15491751505E+03 -0.42906574408E+02 -0.19938070733E+03  0.25611145435E+03  0.00000000000E+00 0.  1.
        -15    1    3    3    0    0  0.41689865198E+02  0.10521860293E+02 -0.70572708395E+02  0.82658449679E+02  0.17770000000E+01 0. -1.
         15    1    3    3    0    0 -0.21026959173E+02 -0.92572998662E+02 -0.15670995171E+03  0.18322952760E+03  0.17770000000E+01 0.  1.
</event>
<event>
 7    1  0.3260141E-006  0.5099184E+03  0.7546771E-02  0.9377886E-01
        -11   -1    0    0    0    0  0.00000000000E+00  0.00000000000E+00  0.50000000000E+03  0.50000000000E+03  0.00000000000E+00 0. -1.
         11   -1    0    0    0    0 -0.00000000000E+00 -0.00000000000E+00 -0.50000000000E+03  0.50000000000E+03  0.00000000000E+00 0. -1.
         23    2    1    2    0    0  0.96929880439E+02  0.62756213902E+02 -0.21331116470E+03  0.26053565716E+03  0.95096958722E+02 0.  0.
        -11    1    1    2    0    0 -0.15713360324E+03 -0.11917196928E+03  0.44865029510E+03  0.49008164098E+03  0.00000000000E+00 0. -1.
         11    1    1    2    0    0  0.60203722798E+02  0.56415755376E+02 -0.23533913040E+03  0.24938270187E+03  0.00000000000E+00 0. -1.
        -15    1    3    3    0    0  0.17154585907E+02  0.53539473273E+02 -0.38528872611E+02  0.68179078680E+02  0.17770000000E+01 0. -1.
         15    1    3    3    0    0  0.79775294532E+02  0.92167406290E+01 -0.17478229209E+03  0.19235657848E+03  0.17770000000E+01 0.  1.
</event>
<event>
 7    1  0.3260141E-006  0.5120854E+03  0.7546771E-02  0.9373166E-01
        -11   -1    0    0    0    0  0.00000000000E+00  0.00000000000E+00  0.50000000000E+03  0.50000000000E+03  0.00000000000E+00 0. -1.
         11   -1    0    0    0    0 -0.00000000000E+00 -0.00000000000E+00 -0.50000000000E+03  0.50000000000E+03  0.00000000000E+00 0.  1.
         23    2    1    2    0    0  0.15134513947E+02  0.84459578069E+01  0.31369088929E+03  0.32779881493E+03  0.93539838198E+02 0.  0.
        -11    1    1    2    0    0  0.11562156661E+02  0.80721250424E+02  0.16526329683E+03  0.18428662734E+03  0.00000000000E+00 0. -1.
         11    1    1    2    0    0 -0.26696670608E+02 -0.89167208231E+02 -0.47895418612E+03  0.48791455773E+03  0.00000000000E+00 0.  1.
        -15    1    3    3    0    0 -0.38769644763E+02  0.60321712735E+01  0.16500051689E+03  0.16961073300E+03  0.17770000000E+01 0. -1.
         15    1    3    3    0    0  0.53904158710E+02  0.24137865333E+01  0.14869037239E+03  0.15818808193E+03  0.17770000000E+01 0.  1.
</event>
<event>
 7    1  0.3260141E-006  0.4718753E+03  0.7546771E-02  0.9465038E-01
        -11   -1    0    0    0    0  0.00000000000E+00  0.00000000000E+00  0.50000000000E+03  0.50000000000E+03  0.00000000000E+00 0. -1.
         11   -1    0    0    0    0 -0.00000000000E+00 -0.00000000000E+00 -0.50000000000E+03  0.50000000000E+03  0.00000000000E+00 0.  1.
         23    2    1    2    0    0  0.24353420896E+02  0.13641254656E+03  0.41896601087E+03  0.45021941929E+03  0.89238642246E+02 0.  0.
        -11    1    1    2    0    0 -0.21719127140E+01 -0.28828155262E+02  0.55600233521E+02  0.62667102280E+02  0.00000000000E+00 0. -1.
         11    1    1    2    0    0 -0.22181508182E+02 -0.10758439130E+03 -0.47456624439E+03  0.48711347843E+03  0.00000000000E+00 0.  1.
        -15    1    3    3    0    0  0.31289228539E+02  0.62488080819E+02  0.31366964730E+03  0.32136518391E+03  0.17770000000E+01 0.  1.
         15    1    3    3    0    0 -0.69358076431E+01  0.73924465745E+02  0.10529636357E+03  0.12885423538E+03  0.17770000000E+01 0. -1.
</event>
<event>
 6    1  0.3260141E-006  0.5249867E+03  0.7546771E-02  0.9345573E-01
        -11   -1    0    0    0    0  0.00000000000E+00  0.00000000000E+00  0.50000000000E+03  0.50000000000E+03  0.00000000000E+00 0.  1.
         11   -1    0    0    0    0 -0.00000000000E+00 -0.00000000000E+00 -0.50000000000E+03  0.50000000000E+03  0.00000000000E+00 0. -1.
        -11    1    1    2    0    0 -0.18022733393E+03  0.59216926255E+02  0.43548724612E+03  0.47501334485E+03  0.00000000000E+00 0.  1.
         11    1    1    2    0    0  0.15353996954E+02  0.49254503161E+02 -0.11697425922E+03  0.12784650415E+03  0.00000000000E+00 0. -1.
        -15    1    1    2    0    0  0.87291326084E+02  0.13953451569E+02 -0.15650935949E+03  0.17975764729E+03  0.17770000000E+01 0. -1.
         15    1    1    2    0    0  0.77582010888E+02 -0.12242488099E+03 -0.16200362741E+03  0.21738250371E+03  0.17770000000E+01 0.  1.
</event>
<event>
 7    1  0.3260141E-006  0.5293239E+03  0.7546771E-02  0.9336485E-01
        -11   -1    0    0    0    0  0.00000000000E+00  0.00000000000E+00  0.50000000000E+03  0.50000000000E+03  0.00000000000E+00 0.  1.
         11   -1    0    0    0    0 -0.00000000000E+00 -0.00000000000E+00 -0.50000000000E+03  0.50000000000E+03  0.00000000000E+00 0.  1.
         23    2    1    2    0    0  0.67199756198E+02 -0.18059863927E+02  0.20265811541E+03  0.23342283015E+03  0.92595572122E+02 0.  0.
        -11    1    1    2    0    0 -0.13721062744E+03 -0.38130483245E+02  0.25937767627E+03  0.29590111352E+03  0.00000000000E+00 0.  1.
         11    1    1    2    0    0  0.70010871243E+02  0.56190347172E+02 -0.46203579168E+03  0.47067605633E+03  0.00000000000E+00 0.  1.
        -15    1    3    3    0    0 -0.18597298456E+02 -0.15564534137E+00  0.87717030007E+01  0.20639385598E+02  0.17770000000E+01 0.  1.
         15    1    3    3    0    0  0.85797054653E+02 -0.17904218586E+02  0.19388641241E+03  0.21278344456E+03  0.17770000000E+01 0. -1.
</event>
<event>
 7    1  0.3260141E-006  0.3943053E+03  0.7546771E-02  0.9673378E-01
        -11   -1    0    0    0    0  0.00000000000E+00  0.00000000000E+00  0.50000000000E+03  0.50000000000E+03  0.00000000000E+00 0. -1.
         11   -1    0    0    0    0 -0.00000000000E+00 -0.00000000000E+00 -0.50000000000E+03  0.50000000000E+03  0.00000000000E+00 0.  1.
         23    2    1    2    0    0 -0.82975258778E+02  0.54488813831E+02  0.39815971911E+03  0.42048676500E+03  0.91782532164E+02 0.  0.
        -11    1    1    2    0    0  0.22548680479E+02  0.17118294482E+03 -0.95947017305E+02  0.19752942494E+03  0.00000000000E+00 0. -1.
         11    1    1    2    0    0  0.60426578299E+02 -0.22567175865E+03 -0.30221270181E+03  0.38198381006E+03  0.00000000000E+00 0.  1.
        -15    1    3    3    0    0  0.12446840565E+02  0.10838684128E+02  0.12437490703E+02  0.20742464117E+02  0.17770000000E+01 0.  1.
         15    1    3    3    0    0 -0.95422099343E+02  0.43650129703E+02  0.38572222841E+03  0.39974430088E+03  0.17770000000E+01 0. -1.
</event>
<event>
 7    1  0.3260141E-006  0.4817621E+03  0.7546771E-02  0.9441569E-01
        -11   -1    0    0    0    0  0.00000000000E+00  0.00000000000E+00  0.50000000000E+03  0.50000000000E+03  0.00000000000E+00 0. -1.
         11   -1    0    0    0    0 -0.00000000000E+00 -0.00000000000E+00 -0.50000000000E+03  0.50000000000E+03  0.00000000000E+00 0.  1.
         23    2    1    2    0    0  0.40242488693E+02 -0.18380597941E+03  0.44602806003E+03  0.49258398535E+03  0.91070611782E+02 0.  0.
        -11    1    1    2    0    0 -0.30895665783E+02  0.30197271056E+02 -0.90616255682E+01  0.44142161268E+02  0.00000000000E+00 0. -1.
         11    1    1    2    0    0 -0.93468229090E+01  0.15360870835E+03 -0.43696643446E+03  0.46327385338E+03  0.00000000000E+00 0.  1.
        -15    1    3    3    0    0 -0.20451420126E+02 -0.41806465862E+02  0.17027019332E+03  0.17652517564E+03  0.17770000000E+01 0.  1.
         15    1    3    3    0    0  0.60693908819E+02 -0.14199951355E+03  0.27575786671E+03  0.31605880971E+03  0.17770000000E+01 0. -1.
</event>
<event>
 7    1  0.3260141E-006  0.4448097E+03  0.7546771E-02  0.9532547E-01
        -11   -1    0    0    0    0  0.00000000000E+00  0.00000000000E+00  0.50000000000E+03  0.50000000000E+03  0.00000000000E+00 0. -1.
         11   -1    0    0    0    0 -0.00000000000E+00 -0.00000000000E+00 -0.50000000000E+03  0.50000000000E+03  0.00000000000E+00 0.  1.
         23    2    1    2    0    0  0.60587746264E+02  0.51886320065E+01  0.29036299198E+01  0.10830005263E+03  0.89569377769E+02 0.  0.
        -11    1    1    2    0    0  0.35290857376E+02  0.21167415539E+03  0.38285492659E+03  0.43889553141E+03  0.00000000000E+00 0. -1.
         11    1    1    2    0    0 -0.95878603639E+02 -0.21686278740E+03 -0.38575855651E+03  0.45280441596E+03  0.00000000000E+00 0.  1.
        -15    1    3    3    0    0  0.55597246106E+02 -0.55528955467E+01  0.40377157808E+02  0.68959125757E+02  0.17770000000E+01 0. -1.
         15    1    3    3    0    0  0.49905001573E+01  0.10741527553E+02 -0.37473527888E+02  0.39340926875E+02  0.17770000000E+01 0.  1.
</event>
<event>
 7    1  0.3260141E-006  0.5091597E+03  0.7546771E-02  0.9379544E-01
        -11   -1    0    0    0    0  0.00000000000E+00  0.00000000000E+00  0.50000000000E+03  0.50000000000E+03  0.00000000000E+00 0.  1.
         11   -1    0    0    0    0 -0.00000000000E+00 -0.00000000000E+00 -0.50000000000E+03  0.50000000000E+03  0.00000000000E+00 0.  1.
         23    2    1    2    0    0  0.52129544406E+02 -0.64172464581E+02  0.35304322734E+03  0.37450298616E+03  0.93687628120E+02 0.  0.
        -11    1    1    2    0    0  0.56335769878E+02  0.62518349880E+01  0.12214589397E+03  0.13465668874E+03  0.00000000000E+00 0.  1.
         11    1    1    2    0    0 -0.10846531428E+03  0.57920629593E+02 -0.47518912131E+03  0.49084032510E+03  0.00000000000E+00 0.  1.
        -15    1    3    3    0    0  0.80683641575E+01 -0.14421588709E+02  0.14542845628E+01  0.16683926206E+02  0.17770000000E+01 0. -1.
         15    1    3    3    0    0  0.44061180248E+02 -0.49750875872E+02  0.35158894278E+03  0.35781905996E+03  0.17770000000E+01 0.  1.
</event>
<event>
 7    1  0.3260141E-006  0.4084122E+03  0.7546771E-02  0.9631867E-01
        -11   -1    0    0    0    0  0.00000000000E+00  0.00000000000E+00  0.50000000000E+03  0.50000000000E+03  0.00000000000E+00 0. -1.
         11   -1    0    0    0    0 -0.00000000000E+00 -0.00000000000E+00 -0.50000000000E+03  0.50000000000E+03  0.00000000000E+00 0. -1.
         23    2    1    2    0    0 -0.16003012654E+03 -0.16785725160E+03  0.26913089417E+03  0.36663869332E+03  0.90591362325E+02 0.  0.
        -11    1    1    2    0    0  0.46135994492E+02 -0.16686213142E+03  0.23102398980E+02  0.17465744109E+03  0.00000000000E+00 0. -1.
         11    1    1    2    0    0  0.11389413205E+03  0.33471938301E+03 -0.29223329315E+03  0.45870386559E+03  0.00000000000E+00 0. -1.
        -15    1    3    3    0    0 -0.15149364995E+03 -0.13140908210E+03  0.25945896010E+03  0.32793411311E+03  0.17770000000E+01 0. -1.
         15    1    3    3    0    0 -0.85364765962E+01 -0.36448169493E+02  0.96719340751E+01  0.38704580218E+02  0.17770000000E+01 0.  1.
</event>
<event>
 7    1  0.3260141E-006  0.3996471E+03  0.7546771E-02  0.9657444E-01
        -11   -1    0    0    0    0  0.00000000000E+00  0.00000000000E+00  0.50000000000E+03  0.50000000000E+03  0.00000000000E+00 0.  1.
         11   -1    0    0    0    0 -0.00000000000E+00 -0.00000000000E+00 -0.50000000000E+03  0.50000000000E+03  0.00000000000E+00 0. -1.
         23    2    1    2    0    0  0.23232476145E+02 -0.15053418835E+02  0.33694173773E+03  0.35080068901E+03  0.93621767877E+02 0.  0.
        -11    1    1    2    0    0 -0.14599979797E+03  0.61601723740E+02  0.10372240059E+03  0.18939126104E+03  0.00000000000E+00 0.  1.
         11    1    1    2    0    0  0.12276732182E+03 -0.46548304906E+02 -0.44066413832E+03  0.45980804995E+03  0.00000000000E+00 0. -1.
        -15    1    3    3    0    0  0.48057419544E+02 -0.19948484221E+02  0.30777347416E+03  0.31214600225E+03  0.17770000000E+01 0. -1.
         15    1    3    3    0    0 -0.24824943400E+02  0.48950653862E+01  0.29168263572E+02  0.38654686763E+02  0.17770000000E+01 0.  1.
</event>
<event>
 7    1  0.3260141E-006  0.3750271E+03  0.7546771E-02  0.9733209E-01
        -11   -1    0    0    0    0  0.00000000000E+00  0.00000000000E+00  0.50000000000E+03  0.50000000000E+03  0.00000000000E+00 0. -1.
         11   -1    0    0    0    0 -0.00000000000E+00 -0.00000000000E+00 -0.50000000000E+03  0.50000000000E+03  0.00000000000E+00 0.  1.
         23    2    1    2    0    0  0.10360197250E+03 -0.62856501483E+02  0.16371102359E+03  0.22278253102E+03  0.90257677781E+02 0.  0.
        -11    1    1    2    0    0 -0.14973608315E+03 -0.18085619308E+02  0.28311408306E+03  0.32078274307E+03  0.00000000000E+00 0. -1.
         11    1    1    2    0    0  0.46134110650E+02  0.80942120790E+02 -0.44682510665E+03  0.45643472591E+03  0.00000000000E+00 0.  1.
        -15    1    3    3    0    0 -0.34221841604E+01  0.15228492885E+02  0.60305036125E+01  0.16826854810E+02  0.17770000000E+01 0.  1.
         15    1    3    3    0    0  0.10702415666E+03 -0.78084994367E+02  0.15768051998E+03  0.20595567621E+03  0.17770000000E+01 0. -1.
</event>
<event>
 7    1  0.3260141E-006  0.3744894E+03  0.7546771E-02  0.9734933E-01
        -11   -1    0    0    0    0  0.00000000000E+00  0.00000000000E+00  0.50000000000E+03  0.50000000000E+03  0.00000000000E+00 0.  1.
         11   -1    0    0    0    0 -0.00000000000E+00 -0.00000000000E+00 -0.50000000000E+03  0.50000000000E+03  0.00000000000E+00 0. -1.
         23    2    1    2    0    0  0.13905946082E+03  0.17996806948E+02  0.31236456012E+03  0.35223902294E+03  0.82700013054E+02 0.  0.
        -11    1    1    2    0    0 -0.18985718595E+03 -0.67930315553E+02  0.10293464567E+03  0.22639748256E+03  0.00000000000E+00 0.  1.
         11    1    1    2    0    0  0.50797725137E+02  0.49933508605E+02 -0.41529920580E+03  0.42136349450E+03  0.00000000000E+00 0. -1.
        -15    1    3    3    0    0  0.14169999109E+03 -0.20067696963E+01  0.28382284221E+03  0.31724041055E+03  0.17770000000E+01 0. -1.
         15    1    3    3    0    0 -0.26405302709E+01  0.20003576645E+02  0.28541717911E+02  0.34998612387E+02  0.17770000000E+01 0.  1.
</event>
<event>
 7    1  0.3260141E-006  0.5409021E+03  0.7546771E-02  0.9312670E-01
        -11   -1    0    0    0    0  0.00000000000E+00  0.00000000000E+00  0.50000000000E+03  0.50000000000E+03  0.00000000000E+00 0.  1.
         11   -1    0    0    0    0 -0.00000000000E+00 -0.00000000000E+00 -0.50000000000E+03  0.50000000000E+03  0.00000000000E+00 0.  1.
         23    2    1    2    0    0 -0.21263397621E+02  0.50590076451E+02  0.17156262897E+03  0.20131608113E+03  0.89905177530E+02 0.  0.
        -11    1    1    2    0    0  0.26662014446E+03  0.89732004588E+02  0.19021174055E+03  0.33958598369E+03  0.00000000000E+00 0.  1.
         11    1    1    2    0    0 -0.24535674684E+03 -0.14032208104E+03 -0.36177436952E+03  0.45909793518E+03  0.00000000000E+00 0.  1.
        -15    1    3    3    0    0 -0.24718401844E+02 -0.21102119562E+02  0.41381517549E+02  0.52648709038E+02  0.17770000000E+01 0. -1.
         15    1    3    3    0    0  0.34550042221E+01  0.71692196014E+02  0.13018111142E+03  0.14866737209E+03  0.17770000000E+01 0.  1.
</event>
<event>
 6    1  0.3260141E-006  0.3516385E+03  0.7546771E-02  0.9811185E-01
        -11   -1    0    0    0    0  0.00000000000E+00  0.00000000000E+00  0.50000000000E+03  0.50000000000E+03  0.00000000000E+00 0.  1.
         11   -1    0    0    0    0 -0.00000000000E+00 -0.00000000000E+00 -0.50000000000E+03  0.50000000000E+03  0.00000000000E+00 0. -1.
        -11    1    1    2    0    0  0.59802353649E+02 -0.97005226689E+02  0.43221950693E+03  0.44698997492E+03  0.00000000000E+00 0.  1.
         11    1    1    2    0    0  0.60620658356E+02 -0.25481744063E+02 -0.28439466592E+03  0.29189811494E+03  0.00000000000E+00 0. -1.
        -15    1    1    2    0    0 -0.42341466357E+02  0.51732343829E+01 -0.10573199377E+03  0.11402620034E+03  0.17770000000E+01 0.  1.
         15    1    1    2    0    0 -0.78081545648E+02  0.11731373637E+03 -0.42092847233E+02  0.14708570980E+03  0.17770000000E+01 0. -1.
</event>
<event>
 7    1  0.3260141E-006  0.5327687E+03  0.7546771E-02  0.9329332E-01
        -11   -1    0    0    0    0  0.00000000000E+00  0.00000000000E+00  0.50000000000E+03  0.50000000000E+03  0.00000000000E+00 0.  1.
         11   -1    0    0    0    0 -0.00000000000E+00 -0.00000000000E+00 -0.50000000000E+03  0.50000000000E+03  0.00000000000E+00 0. -1.
         23    2    1    2    0    0  0.27283402184E+02  0.32364696798E+02  0.32744893763E+03  0.34152928715E+03  0.87336072686E+02 0.  0.
        -11    1    1    2    0    0 -0.14159044357E+03 -0.27562421526E+02  0.12555868024E+03  0.19123943886E+03  0.00000000000E+00 0.  1.
         11    1    1    2    0    0  0.11430704139E+03 -0.48022752712E+01 -0.45300761786E+03  0.46723127400E+03  0.00000000000E+00 0. -1.
        -15    1    3    3    0    0  0.65576988301E+00 -0.29555005113E+02  0.97434890651E+02  0.10183635896E+03  0.17770000000E+01 0. -1.
         15    1    3    3    0    0  0.26627632301E+02  0.61919701910E+02  0.23001404698E+03  0.23969292819E+03  0.17770000000E+01 0.  1.
</event>
<event>
 7    1  0.3260141E-006  0.4535230E+03  0.7546771E-02  0.9510267E-01
        -11   -1    0    0    0    0  0.00000000000E+00  0.00000000000E+00  0.50000000000E+03  0.50000000000E+03  0.00000000000E+00 0.  1.
         11   -1    0    0    0    0 -0.00000000000E+00 -0.00000000000E+00 -0.50000000000E+03  0.50000000000E+03  0.00000000000E+00 0. -1.
         23    2    1    2    0    0 -0.24000306199E+03  0.37583280062E+02 -0.35069250328E+03  0.43634076996E+03  0.91619119010E+02 0.  0.
        -11    1    1    2    0    0  0.22031338597E+03 -0.12295404322E+03  0.39249000011E+03  0.46658770340E+03  0.00000000000E+00 0.  1.
         11    1    1    2    0    0  0.19689676016E+02  0.85370763154E+02 -0.41797496828E+02  0.97071526640E+02  0.00000000000E+00 0. -1.
        -15    1    3    3    0    0 -0.18623912851E+03 -0.39845999597E+01 -0.21434860273E+03  0.28398832942E+03  0.17770000000E+01 0. -1.
         15    1    3    3    0    0 -0.53763933480E+02  0.41567880022E+02 -0.13634390055E+03  0.15235244054E+03  0.17770000000E+01 0.  1.
</event>
<event>
 7    1  0.3260141E-006  0.3761593E+03  0.7546771E-02  0.9729590E-01
        -11   -1    0    0    0    0  0.00000000000E+00  0.00000000000E+00  0.50000000000E+03  0.50000000000E+03  0.00000000000E+00 0. -1.
         11   -1    0    0    0    0 -0.00000000000E+00 -0.00000000000E+00 -0.50000000000E+03  0.50000000000E+03  0.00000000000E+00 0. -1.
         23    2    1    2    0    0 -0.10303469336E+03  0.16467384673E+03  0.27170392426E+03  0.34529051433E+03  0.87572215899E+02 0.  0.
        -11    1    1    2    0    0  0.13373115134E+03 -0.97683668398E+02  0.15191362940E+03  0.22473066259E+03  0.00000000000E+00 0. -1.
         11    1    1    2    0    0 -0.30696457972E+02 -0.66990178335E+02 -0.42361755366E+03  0.42997882308E+03  0.00000000000E+00 0. -1.
        -15    1    3    3    0    0 -0.26903626456E+02  0.84873346868E+02  0.62528112661E+02  0.10881274157E+03  0.17770000000E+01 0.  1.
         15    1    3    3    0    0 -0.76131066908E+02  0.79800499865E+02  0.20917581160E+03  0.23647777277E+03  0.17770000000E+01 0. -1.
</event>
<event>
 7    1  0.3260141E-006  0.5191104E+03  0.7546771E-02  0.9358036E-01
        -11   -1    0    0    0    0  0.00000000000E+00  0.00000000000E+00  0.50000000000E+03  0.50000000000E+03  0.00000000000E+00 0.  1.
         11   -1    0    0    0    0 -0.00000000000E+00 -0.00000000000E+00 -0.50000000000E+03  0.50000000000E+03  0.00000000000E+00 0.  1.
         23    2    1    2    0    0 -0.21913459060E+02  0.32372527319E+02  0.29900874962E+03  0.31498358376E+03  0.90995854158E+02 0.  0.
        -11    1    1    2    0    0  0.10968554229E+03  0.11273570707E+02  0.17178404602E+03  0.20412684794E+03  0.00000000000E+00 0.  1.
         11    1    1    2    0    0 -0.87772083230E+02 -0.43646098026E+02 -0.47079279564E+03  0.48088956830E+03  0.00000000000E+00 0.  1.
        -15    1    3    3    0    0 -0.54281226996E+01  0.60180422807E+02  0.24186993955E+03  0.24930979362E+03  0.17770000000E+01 0.  1.
         15    1    3    3    0    0 -0.16485336361E+02 -0.27807895488E+02  0.57138810069E+02  0.65673790141E+02  0.17770000000E+01 0. -1.
</event>
<event>
 7    1  0.3260141E-006  0.5304017E+03  0.7546771E-02  0.9334240E-01
        -11   -1    0    0    0    0  0.00000000000E+00  0.00000000000E+00  0.50000000000E+03  0.50000000000E+03  0.00000000000E+00 0. -1.
         11   -1    0    0    0    0 -0.00000000000E+00 -0.00000000000E+00 -0.50000000000E+03  0.50000000000E+03  0.00000000000E+00 0.  1.
         23    2    1    2    0    0 -0.23704189906E+03  0.21336617287E+03 -0.15203314578E+03  0.36396523070E+03  0.87422114559E+02 0.  0.
        -11    1    1    2    0    0  0.21330122909E+03 -0.29864940760E+03  0.29297378451E+03  0.46959825532E+03  0.00000000000E+00 0. -1.
         11    1    1    2    0    0  0.23740669967E+02  0.85283234738E+02 -0.14094063873E+03  0.16643651397E+03  0.00000000000E+00 0.  1.
        -15    1    3    3    0    0 -0.19174761586E+03  0.19386254521E+03 -0.95483226577E+02  0.28891181857E+03  0.17770000000E+01 0. -1.
         15    1    3    3    0    0 -0.45294283198E+02  0.19503627653E+02 -0.56549919199E+02  0.75053412131E+02  0.17770000000E+01 0.  1.
</event>
<event>
 7    1  0.3260141E-006  0.5280663E+03  0.7546771E-02  0.9339110E-01
        -11   -1    0    0    0    0  0.00000000000E+00  0.00000000000E+00  0.50000000000E+03  0.50000000000E+03  0.00000000000E+00 0.  1.
         11   -1    0    0    0    0 -0.00000000000E+00 -0.00000000000E+00 -0.50000000000E+03  0.50000000000E+03  0.00000000000E+00 0.  1.
         23    2    1    2    0    0 -0.36511319389E+02 -0.15249324806E+02  0.26730331317E+03  0.28520309976E+03  0.91236662198E+02 0.  0.
        -11    1    1    2    0    0  0.14874007911E+03  0.18644870155E+02  0.19107927527E+03  0.24286319555E+03  0.00000000000E+00 0.  1.
         11    1    1    2    0    0 -0.11222875972E+03 -0.33955453481E+01 -0.45838258844E+03  0.47193370469E+03  0.00000000000E+00 0.  1.
        -15    1    3    3    0    0 -0.64335615998E+02  0.54305484788E+01  0.16639824227E+03  0.17849396377E+03  0.17770000000E+01 0. -1.
         15    1    3    3    0    0  0.27824296610E+02 -0.20679873285E+02  0.10090507090E+03  0.10670913599E+03  0.17770000000E+01 0.  1.
</event>
<event>
 7    1  0.3260141E-006  0.5200359E+03  0.7546771E-02  0.9356061E-01
        -11   -1    0    0    0    0  0.00000000000E+00  0.00000000000E+00  0.50000000000E+03  0.50000000000E+03  0.00000000000E+00 0. -1.
         11   -1    0    0    0    0 -0.00000000000E+00 -0.00000000000E+00 -0.50000000000E+03  0.50000000000E+03  0.00000000000E+00 0. -1.
         23    2    1    2    0    0  0.99323898615E+02 -0.98660675645E+02 -0.36564977966E+03  0.40171389340E+03  0.89861699480E+02 0.  0.
        -11    1    1    2    0    0 -0.40700833522E+02  0.15224525475E+03  0.45335455761E+03  0.47996409277E+03  0.00000000000E+00 0. -1.
         11    1    1    2    0    0 -0.58623065092E+02 -0.53584579105E+02 -0.87704777955E+02  0.11832201382E+03  0.00000000000E+00 0. -1.
        -15    1    3    3    0    0  0.88672331474E+02 -0.11259732330E+03 -0.34971974657E+03  0.37795237590E+03  0.17770000000E+01 0. -1.
         15    1    3    3    0    0  0.10651567141E+02  0.13936647659E+02 -0.15930033094E+02  0.23761517500E+02  0.17770000000E+01 0.  1.
</event>
<event>
 7    1  0.3260141E-006  0.4526086E+03  0.7546771E-02  0.9512580E-01
        -11   -1    0    0    0    0  0.00000000000E+00  0.00000000000E+00  0.50000000000E+03  0.50000000000E+03  0.00000000000E+00 0.  1.
         11   -1    0    0    0    0 -0.00000000000E+00 -0.00000000000E+00 -0.50000000000E+03  0.50000000000E+03  0.00000000000E+00 0. -1.
         23    2    1    2    0    0 -0.17878107281E+02 -0.14988672741E+02 -0.40574920264E+01  0.94473057257E+02  0.91457139008E+02 0.  0.
        -11    1    1    2    0    0  0.13816284253E+03 -0.91231997321E+02  0.42442286518E+03  0.45557328376E+03  0.00000000000E+00 0.  1.
         11    1    1    2    0    0 -0.12028473525E+03  0.10622067006E+03 -0.42036537315E+03  0.44995365898E+03  0.00000000000E+00 0. -1.
        -15    1    3    3    0    0 -0.12295676525E+02 -0.28100959217E+02  0.38673769490E+02  0.49392972635E+02  0.17770000000E+01 0. -1.
         15    1    3    3    0    0 -0.55824307559E+01  0.13112286477E+02 -0.42731261516E+02  0.45080084622E+02  0.17770000000E+01 0.  1.
</event>
<event>
 7    1  0.3260141E-006  0.3936281E+03  0.7546771E-02  0.9675417E-01
        -11   -1    0    0    0    0  0.00000000000E+00  0.00000000000E+00  0.50000000000E+03  0.50000000000E+03  0.00000000000E+00 0.  1.
         11   -1    0    0    0    0 -0.00000000000E+00 -0.00000000000E+00 -0.50000000000E+03  0.50000000000E+03  0.00000000000E+00 0. -1.
         23    2    1    2    0    0  0.26548026108E+03 -0.23145175503E+03  0.24474307711E+03  0.43859787467E+03  0.91756405422E+02 0.  0.
        -11    1    1    2    0    0 -0.17172426152E+03  0.73058697335E+02  0.67911250840E+02  0.19859187608E+03  0.00000000000E+00 0.  1.
         11    1    1    2    0    0 -0.93755999556E+02  0.15839305770E+03 -0.31265432795E+03  0.36281024926E+03  0.00000000000E+00 0. -1.
        -15    1    3    3    0    0  0.23143913359E+03 -0.23220672942E+03  0.23419555399E+03  0.40290787158E+03  0.17770000000E+01 0.  1.
         15    1    3    3    0    0  0.34041127489E+02  0.75497438733E+00  0.10547523122E+02  0.35690003083E+02  0.17770000000E+01 0. -1.
</event>
<event>
 7    1  0.3260141E-006  0.5016467E+03  0.7546771E-02  0.9396133E-01
        -11   -1    0    0    0    0  0.00000000000E+00  0.00000000000E+00  0.50000000000E+03  0.50000000000E+03  0.00000000000E+00 0.  1.
         11   -1    0    0    0    0 -0.00000000000E+00 -0.00000000000E+00 -0.50000000000E+03  0.50000000000E+03  0.00000000000E+00 0. -1.
         23    2    1    2    0    0  0.79722059467E+02  0.10104075790E+03  0.47270919268E+03  0.49835325230E+03  0.91307949894E+02 0.  0.
        -11    1    1    2    0    0 -0.27295240077E+02 -0.30150919608E+02 -0.30772424323E+02  0.51000491986E+02  0.00000000000E+00 0.  1.
         11    1    1    2    0    0 -0.52426819389E+02 -0.70889838293E+02 -0.44193676835E+03  0.45064625571E+03  0.00000000000E+00 0. -1.
        -15    1    3    3    0    0  0.50729664527E+02  0.33187109904E+02  0.34953705900E+03  0.35475935008E+03  0.17770000000E+01 0.  1.
         15    1    3    3    0    0  0.28992394939E+02  0.67853647996E+02  0.12317213368E+03  0.14359390222E+03  0.17770000000E+01 0. -1.
</event>
<event>
 7    1  0.3260141E-006  0.4510405E+03  0.7546771E-02  0.9516560E-01
        -11   -1    0    0    0    0  0.00000000000E+00  0.00000000000E+00  0.50000000000E+03  0.50000000000E+03  0.00000000000E+00 0.  1.
         11   -1    0    0    0    0 -0.00000000000E+00 -0.00000000000E+00 -0.50000000000E+03  0.50000000000E+03  0.00000000000E+00 0. -1.
         23    2    1    2    0    0 -0.13496362549E+02  0.98092944059E+02  0.40803596664E+03  0.42953385716E+03  0.90562723558E+02 0.  0.
        -11    1    1    2    0    0 -0.49559976671E+02  0.86448702602E+02  0.18602759510E+02  0.10136879269E+03  0.00000000000E+00 0.  1.
         11    1    1    2    0    0  0.63056339220E+02 -0.18454164666E+03 -0.42663872615E+03  0.46909735015E+03  0.00000000000E+00 0. -1.
        -15    1    3    3    0    0 -0.31292857838E+02  0.23577331779E+02  0.50842217777E+02  0.64212322516E+02  0.17770000000E+01 0. -1.
         15    1    3    3    0    0  0.17796495288E+02  0.74515612280E+02  0.35719374887E+03  0.36532153465E+03  0.17770000000E+01 0.  1.
</event>
<event>
 7    1  0.3260141E-006  0.5213064E+03  0.7546771E-02  0.9353358E-01
        -11   -1    0    0    0    0  0.00000000000E+00  0.00000000000E+00  0.50000000000E+03  0.50000000000E+03  0.00000000000E+00 0.  1.
         11   -1    0    0    0    0 -0.00000000000E+00 -0.00000000000E+00 -0.50000000000E+03  0.50000000000E+03  0.00000000000E+00 0.  1.
         23    2    1    2    0    0  0.24622420757E+02  0.20462578492E+01 -0.21737918112E+03  0.23977838946E+03  0.98130101864E+02 0.  0.
        -11    1    1    2    0    0 -0.15291466050E+03 -0.12387046720E+03  0.43637229305E+03  0.47869360157E+03  0.00000000000E+00 0.  1.
         11    1    1    2    0    0  0.12829223974E+03  0.12182420935E+03 -0.21899311193E+03  0.28152800897E+03  0.00000000000E+00 0.  1.
        -15    1    3    3    0    0  0.21648540363E+02  0.46472222156E+02 -0.77219797443E+02  0.92705887505E+02  0.17770000000E+01 0.  1.
         15    1    3    3    0    0  0.29738803939E+01 -0.44425964307E+02 -0.14015938368E+03  0.14707250195E+03  0.17770000000E+01 0. -1.
</event>
<event>
 7    1  0.3260141E-006  0.5216110E+03  0.7546771E-02  0.9352711E-01
        -11   -1    0    0    0    0  0.00000000000E+00  0.00000000000E+00  0.50000000000E+03  0.50000000000E+03  0.00000000000E+00 0. -1.
         11   -1    0    0    0    0 -0.00000000000E+00 -0.00000000000E+00 -0.50000000000E+03  0.50000000000E+03  0.00000000000E+00 0. -1.
         23    2    1    2    0    0 -0.63712736687E+02  0.58455057616E+02  0.35452034446E+03  0.37607080889E+03  0.90930039529E+02 0.  0.
        -11    1    1    2    0    0  0.68803388923E+02  0.73053573202E+02  0.10540969539E+03  0.14554014830E+03  0.00000000000E+00 0. -1.
         11    1    1    2    0    0 -0.50906522361E+01 -0.13150863082E+03 -0.45993003985E+03  0.47838904281E+03  0.00000000000E+00 0. -1.
        -15    1    3    3    0    0 -0.86626005967E+02  0.41444025296E+02  0.25361319354E+03  0.27119085863E+03  0.17770000000E+01 0. -1.
         15    1    3    3    0    0  0.22913269280E+02  0.17011032320E+02  0.10090715092E+03  0.10487995026E+03  0.17770000000E+01 0.  1.
</event>
<event>
 7    1  0.3260141E-006  0.3880976E+03  0.7546771E-02  0.9692237E-01
        -11   -1    0    0    0    0  0.00000000000E+00  0.00000000000E+00  0.50000000000E+03  0.50000000000E+03  0.00000000000E+00 0. -1.
         11   -1    0    0    0    0 -0.00000000000E+00 -0.00000000000E+00 -0.50000000000E+03  0.50000000000E+03  0.00000000000E+00 0.  1.
         23    2    1    2    0    0 -0.13739468234E+03  0.15815147534E+03  0.30700579660E+03  0.38467129599E+03  0.99147662236E+02 0.  0.
        -11    1    1    2    0    0  0.63522764549E+02 -0.17594218384E+03  0.92487321581E+02  0.20867366466E+03  0.00000000000E+00 0. -1.
         11    1    1    2    0    0  0.73871917789E+02  0.17790708503E+02 -0.39949311818E+03  0.40665503934E+03  0.00000000000E+00 0.  1.
        -15    1    3    3    0    0 -0.65190277610E+02  0.13517012075E+03  0.24229724386E+03  0.28501201018E+03  0.17770000000E+01 0. -1.
         15    1    3    3    0    0 -0.72204404728E+02  0.22981354589E+02  0.64708552745E+02  0.99659285811E+02  0.17770000000E+01 0.  1.
</event>
<event>
 7    1  0.3260141E-006  0.4666832E+03  0.7546771E-02  0.9477609E-01
        -11   -1    0    0    0    0  0.00000000000E+00  0.00000000000E+00  0.50000000000E+03  0.50000000000E+03  0.00000000000E+00 0. -1.
         11   -1    0    0    0    0 -0.00000000000E+00 -0.00000000000E+00 -0.50000000000E+03  0.50000000000E+03  0.00000000000E+00 0.  1.
         23    2    1    2    0    0  0.14834008529E+02  0.27458353314E+02  0.43468869738E+03  0.44544539903E+03  0.92159269268E+02 0.  0.
        -11    1    1    2    0    0  0.19346003884E+02  0.59316468262E+02  0.37800192514E+02  0.72949063239E+02  0.00000000000E+00 0. -1.
         11    1    1    2    0    0 -0.34180012413E+02 -0.86774821575E+02 -0.47248888989E+03  0.48160553773E+03  0.00000000000E+00 0.  1.
        -15    1    3    3    0    0  0.24796749472E+02  0.59066010963E+02  0.29135868621E+03  0.29832317073E+03  0.17770000000E+01 0. -1.
         15    1    3    3    0    0 -0.99627409424E+01 -0.31607657649E+02  0.14333001117E+03  0.14712222830E+03  0.17770000000E+01 0.  1.
</event>
<event>
 7    1  0.3260141E-006  0.5093252E+03  0.7546771E-02  0.9379182E-01
        -11   -1    0    0    0    0  0.00000000000E+00  0.00000000000E+00  0.50000000000E+03  0.50000000000E+03  0.00000000000E+00 0.  1.
         11   -1    0    0    0    0 -0.00000000000E+00 -0.00000000000E+00 -0.50000000000E+03  0.50000000000E+03  0.00000000000E+00 0. -1.
         23    2    1    2    0    0  0.65041250768E+02 -0.19982046764E+03 -0.21371283636E+03  0.31336696114E+03  0.91471811618E+02 0.  0.
        -11    1    1    2    0    0 -0.70685039389E+02  0.29875021325E+03  0.38277106867E+03  0.49067479630E+03  0.00000000000E+00 0.  1.
         11    1    1    2    0    0  0.56437886203E+01 -0.98929745618E+02 -0.16905823231E+03  0.19595824256E+03  0.00000000000E+00 0. -1.
        -15    1    3    3    0    0  0.25446140247E+02 -0.13708159268E+03 -0.80836994906E+02  0.16117272281E+03  0.17770000000E+01 0.  1.
         15    1    3    3    0    0  0.39595110522E+02 -0.62738874957E+02 -0.13287584145E+03  0.15219423832E+03  0.17770000000E+01 0. -1.
</event>
<event>
 7    1  0.3260141E-006  0.3662538E+03  0.7546771E-02  0.9761726E-01
        -11   -1    0    0    0    0  0.00000000000E+00  0.00000000000E+00  0.50000000000E+03  0.50000000000E+03  0.00000000000E+00 0.  1.
         11   -1    0    0    0    0 -0.00000000000E+00 -0.00000000000E+00 -0.50000000000E+03  0.50000000000E+03  0.00000000000E+00 0. -1.
         23    2    1    2    0    0 -0.53981170865E+02 -0.19480401084E+02  0.35919623360E+03  0.37568128249E+03  0.93920386193E+02 0.  0.
        -11    1    1    2    0    0 -0.46086803005E+02  0.22983272912E+03 -0.54288213382E+02  0.24061231660E+03  0.00000000000E+00 0.  1.
         11    1    1    2    0    0  0.10006797387E+03 -0.21035232804E+03 -0.30490802022E+03  0.38370640091E+03  0.00000000000E+00 0. -1.
        -15    1    3    3    0    0 -0.64577342267E+02  0.20673574336E+02  0.24229026435E+03  0.25160556381E+03  0.17770000000E+01 0.  1.
         15    1    3    3    0    0  0.10596171402E+02 -0.40153975420E+02  0.11690596925E+03  0.12407571868E+03  0.17770000000E+01 0. -1.
</event>
<event>
 7    1  0.3260141E-006  0.4630168E+03  0.7546771E-02  0.9486591E-01
        -11   -1    0    0    0    0  0.00000000000E+00  0.00000000000E+00  0.50000000000E+03  0.50000000000E+03  0.00000000000E+00 0. -1.
         11   -1    0    0    0    0 -0.00000000000E+00 -0.00000000000E+00 -0.50000000000E+03  0.50000000000E+03  0.00000000000E+00 0.  1.
         23    2    1    2    0    0  0.11116856490E+02 -0.62489271267E+02  0.41562724041E+03  0.43002403127E+03  0.90256140917E+02 0.  0.
        -11    1    1    2    0    0  0.41234111710E+02 -0.20535581832E+01  0.67841738147E+02  0.79416437244E+02  0.00000000000E+00 0. -1.
         11    1    1    2    0    0 -0.52350968200E+02  0.64542829451E+02 -0.48346897856E+03  0.49055953149E+03  0.00000000000E+00 0.  1.
        -15    1    3    3    0    0 -0.25623808029E+02 -0.12090328942E+02  0.38858168341E+02  0.48123492887E+02  0.17770000000E+01 0.  1.
         15    1    3    3    0    0  0.36740664519E+02 -0.50398942325E+02  0.37676907207E+03  0.38190053838E+03  0.17770000000E+01 0. -1.
</event>
<event>
 7    1  0.3260141E-006  0.5209951E+03  0.7546771E-02  0.9354019E-01
        -11   -1    0    0    0    0  0.00000000000E+00  0.00000000000E+00  0.50000000000E+03  0.50000000000E+03  0.00000000000E+00 0.  1.
         11   -1    0    0    0    0 -0.00000000000E+00 -0.00000000000E+00 -0.50000000000E+03  0.50000000000E+03  0.00000000000E+00 0. -1.
         23    2    1    2    0    0  0.41439346579E+02  0.14170531596E+03 -0.21381409675E+03  0.27565342535E+03  0.92036552092E+02 0.  0.
        -11    1    1    2    0    0 -0.10983597583E+03 -0.12596752927E+03  0.44890298263E+03  0.47900485157E+03  0.00000000000E+00 0.  1.
         11    1    1    2    0    0  0.68396629248E+02 -0.15737786696E+02 -0.23508888588E+03  0.24534172308E+03  0.00000000000E+00 0. -1.
        -15    1    3    3    0    0  0.17086907293E+02  0.12474280975E+02  0.36215982096E+01  0.21537032973E+02  0.17770000000E+01 0. -1.
         15    1    3    3    0    0  0.24352439287E+02  0.12923103499E+03 -0.21743569496E+03  0.25411639238E+03  0.17770000000E+01 0.  1.
</event>
<event>
 7    1  0.3260141E-006  0.4524816E+03  0.7546771E-02  0.9512902E-01
        -11   -1    0    0    0    0  0.00000000000E+00  0.00000000000E+00  0.50000000000E+03  0.50000000000E+03  0.00000000000E+00 0. -1.
         11   -1    0    0    0    0 -0.00000000000E+00 -0.00000000000E+00 -0.50000000000E+03  0.50000000000E+03  0.00000000000E+00 0.  1.
         23    2    1    2    0    0  0.18427119055E+02 -0.40309534228E+01 -0.15052514966E+02  0.94715152342E+02  0.91589161882E+02 0.  0.
        -11    1    1    2    0    0  0.30227264249E+03  0.12008351890E+03  0.31375553970E+03  0.45191961741E+03  0.00000000000E+00 0. -1.
         11    1    1    2    0    0 -0.32069976155E+03 -0.11605256548E+03 -0.29870302473E+03  0.45336523025E+03  0.00000000000E+00 0.  1.
        -15    1    3    3    0    0  0.13721102868E+02 -0.47480344313E+02 -0.40979546027E+01  0.49624618093E+02  0.17770000000E+01 0.  1.
         15    1    3    3    0    0  0.47060161876E+01  0.43449390890E+02 -0.10954560363E+02  0.45090534249E+02  0.17770000000E+01 0. -1.
</event>
<event>
 6    1  0.3260141E-006  0.3391943E+03  0.7546771E-02  0.9855373E-01
        -11   -1    0    0    0    0  0.00000000000E+00  0.00000000000E+00  0.50000000000E+03  0.50000000000E+03  0.00000000000E+00 0. -1.
         11   -1    0    0    0    0 -0.00000000000E+00 -0.00000000000E+00 -0.50000000000E+03  0.50000000000E+03  0.00000000000E+00 0. -1.
        -11    1    1    2    0    0  0.17806351702E+03  0.12220901743E+03 -0.19067852848E+03  0.28809713858E+03  0.00000000000E+00 0. -1.
         11    1    1    2    0    0 -0.28258598259E+03 -0.12021387662E+03 -0.14212432292E+03  0.33838666767E+03  0.00000000000E+00 0. -1.
        -15    1    1    2    0    0  0.99466025857E+02  0.23949829236E+02  0.33156437677E+03  0.34699449317E+03  0.17770000000E+01 0. -1.
         15    1    1    2    0    0  0.50564397200E+01 -0.25944970049E+02  0.12384746279E+01  0.26521700585E+02  0.17770000000E+01 0.  1.
</event>
<event>
 7    1  0.3482407E-006  0.5006043E+03  0.7546771E-02  0.9398459E-01
        -11   -1    0    0    0    0  0.00000000000E+00  0.00000000000E+00  0.50000000000E+03  0.50000000000E+03  0.00000000000E+00 0.  1.
         11   -1    0    0    0    0 -0.00000000000E+00 -0.00000000000E+00 -0.50000000000E+03  0.50000000000E+03  0.00000000000E+00 0. -1.
         23    2    1    2    0    0 -0.23927036249E+02 -0.56295068625E+01  0.49160491371E+03  0.50060432420E+03  0.91242006842E+02 0.  0.
        -11    1    1    2    0    0  0.53032385985E+02  0.17797877474E+02 -0.33606785166E+03  0.34069164845E+03  0.00000000000E+00 0. -1.
         11    1    1    2    0    0 -0.29105349736E+02 -0.12168370611E+02 -0.15553706205E+03  0.15870402735E+03  0.00000000000E+00 0.  1.
        -15    1    3    3    0    0 -0.57594517543E+02  0.77173279223E+01  0.29153641233E+03  0.29727650941E+03  0.17770000000E+01 0.  1.
         15    1    3    3    0    0  0.33667481294E+02 -0.13346834785E+02  0.20006850137E+03  0.20332781479E+03  0.17770000000E+01 0. -1.
</event>
<event>
 7    1  0.3260141E-006  0.5103295E+03  0.7546771E-02  0.9376989E-01
        -11   -1    0    0    0    0  0.00000000000E+00  0.00000000000E+00  0.50000000000E+03  0.50000000000E+03  0.00000000000E+00 0. -1.
         11   -1    0    0    0    0 -0.00000000000E+00 -0.00000000000E+00 -0.50000000000E+03  0.50000000000E+03  0.00000000000E+00 0.  1.
         23    2    1    2    0    0 -0.63806288432E+02 -0.56920398999E+02  0.18703222586E+03  0.22362514912E+03  0.87840648598E+02 0.  0.
        -11    1    1    2    0    0 -0.90924943839E+02 -0.19667448647E+02  0.27119228586E+03  0.28670439456E+03  0.00000000000E+00 0. -1.
         11    1    1    2    0    0  0.15473123227E+03  0.76587847646E+02 -0.45822451172E+03  0.48967045632E+03  0.00000000000E+00 0.  1.
        -15    1    3    3    0    0 -0.36051777740E+02 -0.60773622214E+02  0.18180927711E+03  0.19506648817E+03  0.17770000000E+01 0. -1.
         15    1    3    3    0    0 -0.27754510692E+02  0.38532232144E+01  0.52229487489E+01  0.28558660955E+02  0.17770000000E+01 0.  1.
</event>
<event>
 7    1  0.3260141E-006  0.4527064E+03  0.7546771E-02  0.9512332E-01
        -11   -1    0    0    0    0  0.00000000000E+00  0.00000000000E+00  0.50000000000E+03  0.50000000000E+03  0.00000000000E+00 0.  1.
         11   -1    0    0    0    0 -0.00000000000E+00 -0.00000000000E+00 -0.50000000000E+03  0.50000000000E+03  0.00000000000E+00 0. -1.
         23    2    1    2    0    0 -0.23829018629E+03  0.28481504378E+03 -0.21765579607E+03  0.43997388914E+03  0.91110677278E+02 0.  0.
        -11    1    1    2    0    0  0.17961545459E+03 -0.30783265683E+03  0.29329594883E+03  0.46156816370E+03  0.00000000000E+00 0.  1.
         11    1    1    2    0    0  0.58674731698E+02  0.23017613050E+02 -0.75640152756E+02  0.98457947162E+02  0.00000000000E+00 0. -1.
        -15    1    3    3    0    0 -0.21471275136E+02  0.21547412235E+02  0.73917405739E+01  0.31354460412E+02  0.17770000000E+01 0.  1.
         15    1    3    3    0    0 -0.21681891116E+03  0.26326763154E+03 -0.22504753665E+03  0.40861942873E+03  0.17770000000E+01 0. -1.
</event>
<event>
 7    1  0.3260141E-006  0.4937741E+03  0.7546771E-02  0.9413850E-01
        -11   -1    0    0    0    0  0.00000000000E+00  0.00000000000E+00  0.50000000000E+03  0.50000000000E+03  0.00000000000E+00 0. -1.
         11   -1    0    0    0    0 -0.00000000000E+00 -0.00000000000E+00 -0.50000000000E+03  0.50000000000E+03  0.00000000000E+00 0.  1.
         23    2    1    2    0    0  0.57468055767E+02 -0.22688252939E+03 -0.41459939410E+03  0.48476417582E+03  0.91243569603E+02 0.  0.
        -11    1    1    2    0    0 -0.50100448787E+02  0.23496850186E+03  0.43221511610E+03  0.49449990740E+03  0.00000000000E+00 0. -1.
         11    1    1    2    0    0 -0.73676069797E+01 -0.80859724677E+01 -0.17615722000E+02  0.20735916786E+02  0.00000000000E+00 0.  1.
        -15    1    3    3    0    0  0.55637442167E-01 -0.74506400532E+02 -0.64172224353E+02  0.98348558317E+02  0.17770000000E+01 0.  1.
         15    1    3    3    0    0  0.57412418324E+02 -0.15237612886E+03 -0.35042716974E+03  0.38641561750E+03  0.17770000000E+01 0. -1.
</event>
<event>
 7    1  0.3260141E-006  0.5077375E+03  0.7546771E-02  0.9382661E-01
        -11   -1    0    0    0    0  0.00000000000E+00  0.00000000000E+00  0.50000000000E+03  0.50000000000E+03  0.00000000000E+00 0.  1.
         11   -1    0    0    0    0 -0.00000000000E+00 -0.00000000000E+00 -0.50000000000E+03  0.50000000000E+03  0.00000000000E+00 0. -1.
         23    2    1    2    0    0  0.28032528342E+02  0.51034900978E+02  0.33464724210E+03  0.35156866329E+03  0.90671740891E+02 0.  0.
        -11    1    1    2    0    0 -0.80091016566E+01  0.56868119883E+02  0.14522599780E+03  0.15616888040E+03  0.00000000000E+00 0.  1.
         11    1    1    2    0    0 -0.20023426686E+02 -0.10790302086E+03 -0.47987323990E+03  0.49226245632E+03  0.00000000000E+00 0. -1.
        -15    1    3    3    0    0 -0.11090629936E+02  0.40250323442E+00  0.39907483667E+00  0.11246380349E+02  0.17770000000E+01 0. -1.
         15    1    3    3    0    0  0.39123158279E+02  0.50632397744E+02  0.33424816727E+03  0.34032228294E+03  0.17770000000E+01 0.  1.
</event>
<event>
 7    1  0.3260141E-006  0.3223261E+03  0.7546771E-02  0.9918629E-01
        -11   -1    0    0    0    0  0.00000000000E+00  0.00000000000E+00  0.50000000000E+03  0.50000000000E+03  0.00000000000E+00 0.  1.
         11   -1    0    0    0    0 -0.00000000000E+00 -0.00000000000E+00 -0.50000000000E+03  0.50000000000E+03  0.00000000000E+00 0.  1.
         23    2    1    2    0    0 -0.83237883282E+02 -0.23377924554E+02  0.37797321239E+03  0.39837970667E+03  0.91474416265E+02 0.  0.
        -11    1    1    2    0    0  0.26628547961E+03  0.53740897954E+01 -0.14012835792E+03  0.30095314284E+03  0.00000000000E+00 0.  1.
         11    1    1    2    0    0 -0.18304759632E+03  0.18003834759E+02 -0.23784485447E+03  0.30066715049E+03  0.00000000000E+00 0.  1.
        -15    1    3    3    0    0 -0.77031715001E+02 -0.44565912771E+02  0.35680916621E+03  0.36774440107E+03  0.17770000000E+01 0.  1.
         15    1    3    3    0    0 -0.62061682811E+01  0.21187988218E+02  0.21164046179E+02  0.30635305598E+02  0.17770000000E+01 0. -1.
</event>
<event>
 7    1  0.3260141E-006  0.5157034E+03  0.7546771E-02  0.9365342E-01
        -11   -1    0    0    0    0  0.00000000000E+00  0.00000000000E+00  0.50000000000E+03  0.50000000000E+03  0.00000000000E+00 0.  1.
         11   -1    0    0    0    0 -0.00000000000E+00 -0.00000000000E+00 -0.50000000000E+03  0.50000000000E+03  0.00000000000E+00 0. -1.
         23    2    1    2    0    0 -0.12532804183E+02  0.40025160454E+02 -0.93986049420E+02  0.13400200622E+03  0.85814191922E+02 0.  0.
        -11    1    1    2    0    0  0.81126611461E+02 -0.21041843313E+03  0.42858576680E+03  0.48429660704E+03  0.00000000000E+00 0.  1.
         11    1    1    2    0    0 -0.68593807278E+02  0.17039327267E+03 -0.33459971738E+03  0.38170138674E+03  0.00000000000E+00 0. -1.
        -15    1    3    3    0    0 -0.35083704549E+02 -0.11618258521E+02 -0.51464420786E+02  0.63384498040E+02  0.17770000000E+01 0. -1.
         15    1    3    3    0    0  0.22550900366E+02  0.51643418976E+02 -0.42521628635E+02  0.70617508180E+02  0.17770000000E+01 0.  1.
</event>
<event>
 7    1  0.3260141E-006  0.3778112E+03  0.7546771E-02  0.9724334E-01
        -11   -1    0    0    0    0  0.00000000000E+00  0.00000000000E+00  0.50000000000E+03  0.50000000000E+03  0.00000000000E+00 0. -1.
         11   -1    0    0    0    0 -0.00000000000E+00 -0.00000000000E+00 -0.50000000000E+03  0.50000000000E+03  0.00000000000E+00 0.  1.
         23    2    1    2    0    0  0.52793496002E+02 -0.15320411941E+03 -0.10138355964E+03  0.22057554189E+03  0.11007401189E+03 0.  0.
        -11    1    1    2    0    0  0.72682005114E+02  0.16031264726E+03  0.41000689525E+03  0.44619331336E+03  0.00000000000E+00 0. -1.
         11    1    1    2    0    0 -0.12547550112E+03 -0.71085278542E+01 -0.30862333560E+03  0.33323114475E+03  0.00000000000E+00 0.  1.
        -15    1    3    3    0    0  0.12998134947E+01 -0.57697803019E+02  0.16793411870E+02  0.60132373972E+02  0.17770000000E+01 0. -1.
         15    1    3    3    0    0  0.51493682508E+02 -0.95506316387E+02 -0.11817697151E+03  0.16044316792E+03  0.17770000000E+01 0.  1.
</event>
<event>
 7    1  0.3260141E-006  0.5123764E+03  0.7546771E-02  0.9372535E-01
        -11   -1    0    0    0    0  0.00000000000E+00  0.00000000000E+00  0.50000000000E+03  0.50000000000E+03  0.00000000000E+00 0.  1.
         11   -1    0    0    0    0 -0.00000000000E+00 -0.00000000000E+00 -0.50000000000E+03  0.50000000000E+03  0.00000000000E+00 0. -1.
         23    2    1    2    0    0 -0.63670436849E+02  0.11498453250E+03  0.34113380380E+03  0.37656016842E+03  0.90276913449E+02 0.  0.
        -11    1    1    2    0    0  0.38484071423E+02  0.82483485918E+01  0.12998838323E+03  0.13581619485E+03  0.00000000000E+00 0.  1.
         11    1    1    2    0    0  0.25186365426E+02 -0.12323288110E+03 -0.47112218703E+03  0.48762363673E+03  0.00000000000E+00 0. -1.
        -15    1    3    3    0    0  0.21556384673E+02  0.12586161322E+02  0.38807895435E+02  0.46176830273E+02  0.17770000000E+01 0. -1.
         15    1    3    3    0    0 -0.85226821522E+02  0.10239837118E+03  0.30232590836E+03  0.33038333814E+03  0.17770000000E+01 0.  1.
</event>
<event>
 7    1  0.3260141E-006  0.3725231E+03  0.7546771E-02  0.9741262E-01
        -11   -1    0    0    0    0  0.00000000000E+00  0.00000000000E+00  0.50000000000E+03  0.50000000000E+03  0.00000000000E+00 0.  1.
         11   -1    0    0    0    0 -0.00000000000E+00 -0.00000000000E+00 -0.50000000000E+03  0.50000000000E+03  0.00000000000E+00 0. -1.
         23    2    1    2    0    0 -0.29138247818E+03  0.18931091427E+03  0.15085785218E+01  0.35949183762E+03  0.92139756124E+02 0.  0.
        -11    1    1    2    0    0  0.24571623535E+03 -0.24439018149E+03  0.21814198545E+03  0.40949841873E+03  0.00000000000E+00 0.  1.
         11    1    1    2    0    0  0.45666242824E+02  0.55079267222E+02 -0.21965056397E+03  0.23100974365E+03  0.00000000000E+00 0. -1.
        -15    1    3    3    0    0 -0.80726158118E+02  0.82891259537E+01  0.87620777040E+01  0.81641618971E+02  0.17770000000E+01 0.  1.
         15    1    3    3    0    0 -0.21065632006E+03  0.18102178831E+03 -0.72534991822E+01  0.27785021865E+03  0.17770000000E+01 0. -1.
</event>
<event>
 6    1  0.3260141E-006  0.5394825E+03  0.7546771E-02  0.9315555E-01
        -11   -1    0    0    0    0  0.00000000000E+00  0.00000000000E+00  0.50000000000E+03  0.50000000000E+03  0.00000000000E+00 0.  1.
         11   -1    0    0    0    0 -0.00000000000E+00 -0.00000000000E+00 -0.50000000000E+03  0.50000000000E+03  0.00000000000E+00 0. -1.
        -11    1    1    2    0    0 -0.60439689717E+02  0.64484529227E+02  0.32033604940E+03  0.33230467218E+03  0.00000000000E+00 0.  1.
         11    1    1    2    0    0  0.75596344274E+02 -0.24023495627E+02 -0.45363471526E+03  0.46051752464E+03  0.00000000000E+00 0. -1.
        -15    1    1    2    0    0 -0.50289728954E+02 -0.50751744119E+02  0.15056163594E+03  0.16666361425E+03  0.17770000000E+01 0.  1.
         15    1    1    2    0    0  0.35133074396E+02  0.10290710519E+02 -0.17262970088E+02  0.40514188931E+02  0.17770000000E+01 0. -1.
</event>
<event>
 7    1  0.3260141E-006  0.4938813E+03  0.7546771E-02  0.9413606E-01
        -11   -1    0    0    0    0  0.00000000000E+00  0.00000000000E+00  0.50000000000E+03  0.50000000000E+03  0.00000000000E+00 0. -1.
         11   -1    0    0    0    0 -0.00000000000E+00 -0.00000000000E+00 -0.50000000000E+03  0.50000000000E+03  0.00000000000E+00 0.  1.
         23    2    1    2    0    0 -0.30534145744E+02 -0.12661231204E+03 -0.45859038672E+03  0.48911625205E+03  0.10939174379E+03 0.  0.
        -11    1    1    2    0    0  0.53190733025E+02  0.12594962139E+03  0.46708069692E+03  0.48667950300E+03  0.00000000000E+00 0. -1.
         11    1    1    2    0    0 -0.22656587281E+02  0.66269065358E+00 -0.84903101984E+01  0.24204244945E+02  0.00000000000E+00 0.  1.
        -15    1    3    3    0    0  0.31967612608E+02 -0.23665498765E+02 -0.19899742612E+03  0.20294116738E+03  0.17770000000E+01 0. -1.
         15    1    3    3    0    0 -0.62501758353E+02 -0.10294681328E+03 -0.25959296061E+03  0.28617508467E+03  0.17770000000E+01 0.  1.
</event>
<event>
 7    1  0.3260141E-006  0.3258768E+03  0.7546771E-02  0.9904973E-01
        -11   -1    0    0    0    0  0.00000000000E+00  0.00000000000E+00  0.50000000000E+03  0.50000000000E+03  0.00000000000E+00 0.  1.
         11   -1    0    0    0    0 -0.00000000000E+00 -0.00000000000E+00 -0.50000000000E+03  0.50000000000E+03  0.00000000000E+00 0. -1.
         23    2    1    2    0    0  0.22343800790E+03 -0.66454205339E+01  0.16388355498E+03  0.29175627149E+03  0.91077974132E+02 0.  0.
        -11    1    1    2    0    0 -0.25876297714E+03  0.21311002813E+03  0.11946846955E+03  0.35587480614E+03  0.00000000000E+00 0.  1.
         11    1    1    2    0    0  0.35324969238E+02 -0.20646460759E+03 -0.28335202454E+03  0.35236892237E+03  0.00000000000E+00 0. -1.
        -15    1    3    3    0    0  0.16986084066E+03  0.51978114323E+01  0.16496455840E+03  0.23684633350E+03  0.17770000000E+01 0.  1.
         15    1    3    3    0    0  0.53577167245E+02 -0.11843231966E+02 -0.10810034193E+01  0.54909937997E+02  0.17770000000E+01 0. -1.
</event>
<event>
 7    1  0.3260141E-006  0.4694190E+03  0.7546771E-02  0.9470963E-01
        -11   -1    0    0    0    0  0.00000000000E+00  0.00000000000E+00  0.50000000000E+03  0.50000000000E+03  0.00000000000E+00 0.  1.
         11   -1    0    0    0    0 -0.00000000000E+00 -0.00000000000E+00 -0.50000000000E+03  0.50000000000E+03  0.00000000000E+00 0. -1.
         23    2    1    2    0    0  0.87376839573E+02 -0.57519459294E+02  0.41998146878E+03  0.44223367813E+03  0.90790922826E+02 0.  0.
        -11    1    1    2    0    0 -0.23972143217E+02  0.34991116861E+01  0.63081914492E+02  0.67573925215E+02  0.00000000000E+00 0.  1.
         11    1    1    2    0    0 -0.63404696356E+02  0.54020347608E+02 -0.48306338327E+03  0.49019239665E+03  0.00000000000E+00 0. -1.
        -15    1    3    3    0    0  0.31596345711E+02  0.23717198982E+02  0.10546215846E+03  0.11263329519E+03  0.17770000000E+01 0. -1.
         15    1    3    3    0    0  0.55780493862E+02 -0.81236658276E+02  0.31451931032E+03  0.32960038294E+03  0.17770000000E+01 0.  1.
</event>
<event>
 7    1  0.3260141E-006  0.4275379E+03  0.7546771E-02  0.9578361E-01
        -11   -1    0    0    0    0  0.00000000000E+00  0.00000000000E+00  0.50000000000E+03  0.50000000000E+03  0.00000000000E+00 0.  1.
         11   -1    0    0    0    0 -0.00000000000E+00 -0.00000000000E+00 -0.50000000000E+03  0.50000000000E+03  0.00000000000E+00 0. -1.
         23    2    1    2    0    0  0.69157060974E+01 -0.22800262135E+03  0.34405264988E+03  0.42200157708E+03  0.87636081819E+02 0.  0.
        -11    1    1    2    0    0 -0.81111137725E+02  0.96980109019E+02  0.64967237274E+02  0.14214394158E+03  0.00000000000E+00 0.  1.
         11    1    1    2    0    0  0.74195431628E+02  0.13102251233E+03 -0.40901988716E+03  0.43585448134E+03  0.00000000000E+00 0. -1.
        -15    1    3    3    0    0 -0.34421614710E+02 -0.44753215046E+02  0.81353005265E+02  0.99041238941E+02  0.17770000000E+01 0. -1.
         15    1    3    3    0    0  0.41337320808E+02 -0.18324940631E+03  0.26269964462E+03  0.32296033814E+03  0.17770000000E+01 0.  1.
</event>
<event>
 7    1  0.3260141E-006  0.4930938E+03  0.7546771E-02  0.9415397E-01
        -11   -1    0    0    0    0  0.00000000000E+00  0.00000000000E+00  0.50000000000E+03  0.50000000000E+03  0.00000000000E+00 0.  1.
         11   -1    0    0    0    0 -0.00000000000E+00 -0.00000000000E+00 -0.50000000000E+03  0.50000000000E+03  0.00000000000E+00 0. -1.
         23    2    1    2    0    0  0.75303994137E+00 -0.13335786759E+03 -0.45863634513E+03  0.48845870359E+03  0.10227277315E+03 0.  0.
        -11    1    1    2    0    0 -0.19660016724E+01  0.11440029266E+03  0.47368429294E+03  0.48730698897E+03  0.00000000000E+00 0.  1.
         11    1    1    2    0    0  0.12129617310E+01  0.18957574931E+02 -0.15047947814E+02  0.24234307435E+02  0.00000000000E+00 0. -1.
        -15    1    3    3    0    0  0.28768876500E+02 -0.39803088275E+02 -0.57679486174E+02  0.75776084259E+02  0.17770000000E+01 0.  1.
         15    1    3    3    0    0 -0.28015836558E+02 -0.93554779319E+02 -0.40095685895E+03  0.41268261933E+03  0.17770000000E+01 0. -1.
</event>
<event>
 7    1  0.3260141E-006  0.4397359E+03  0.7546771E-02  0.9545772E-01
        -11   -1    0    0    0    0  0.00000000000E+00  0.00000000000E+00  0.50000000000E+03  0.50000000000E+03  0.00000000000E+00 0. -1.
         11   -1    0    0    0    0 -0.00000000000E+00 -0.00000000000E+00 -0.50000000000E+03  0.50000000000E+03  0.00000000000E+00 0.  1.
         23    2    1    2    0    0  0.57719525428E+02 -0.31213191271E+02  0.40355972619E+03  0.42037196483E+03  0.97705318646E+02 0.  0.
        -11    1    1    2    0    0 -0.82799893974E+02 -0.82385820963E+02  0.38133371543E+02  0.12287147742E+03  0.00000000000E+00 0. -1.
         11    1    1    2    0    0  0.25080368546E+02  0.11359901223E+03 -0.44169309773E+03  0.45675655775E+03  0.00000000000E+00 0.  1.
        -15    1    3    3    0    0 -0.13497238354E+02  0.22075009171E+02  0.57829208272E+02  0.63378675684E+02  0.17770000000E+01 0.  1.
         15    1    3    3    0    0  0.71216763782E+02 -0.53288200443E+02  0.34573051791E+03  0.35699328915E+03  0.17770000000E+01 0. -1.
</event>
<event>
 7    1  0.3260141E-006  0.5107048E+03  0.7546771E-02  0.9376170E-01
        -11   -1    0    0    0    0  0.00000000000E+00  0.00000000000E+00  0.50000000000E+03  0.50000000000E+03  0.00000000000E+00 0. -1.
         11   -1    0    0    0    0 -0.00000000000E+00 -0.00000000000E+00 -0.50000000000E+03  0.50000000000E+03  0.00000000000E+00 0. -1.
         23    2    1    2    0    0 -0.11370510664E+03  0.43419931245E+02  0.33781496019E+03  0.37175213555E+03  0.96262979682E+02 0.  0.
        -11    1    1    2    0    0 -0.44534527128E+02 -0.40681289145E+02  0.12517805516E+03  0.13895264261E+03  0.00000000000E+00 0. -1.
         11    1    1    2    0    0  0.15823963377E+03 -0.27386420999E+01 -0.46299301535E+03  0.48929522184E+03  0.00000000000E+00 0. -1.
        -15    1    3    3    0    0 -0.89279411135E+02  0.13139566519E+02  0.31257085178E+03  0.32534159982E+03  0.17770000000E+01 0. -1.
         15    1    3    3    0    0 -0.24425695505E+02  0.30280364726E+02  0.25244108404E+02  0.46410535732E+02  0.17770000000E+01 0.  1.
</event>
<event>
 7    1  0.4015918E-006  0.5209411E+03  0.7546771E-02  0.9354134E-01
        -11   -1    0    0    0    0  0.00000000000E+00  0.00000000000E+00  0.50000000000E+03  0.50000000000E+03  0.00000000000E+00 0.  1.
         11   -1    0    0    0    0 -0.00000000000E+00 -0.00000000000E+00 -0.50000000000E+03  0.50000000000E+03  0.00000000000E+00 0. -1.
         23    2    1    2    0    0 -0.21668548494E+02 -0.39434757955E+02 -0.24478739267E+03  0.26458324059E+03  0.89770805195E+02 0.  0.
        -11    1    1    2    0    0  0.19330227344E+03  0.64645763019E+02  0.43353494897E+03  0.47905886441E+03  0.00000000000E+00 0.  1.
         11    1    1    2    0    0 -0.17163372495E+03 -0.25211005065E+02 -0.18874755630E+03  0.25635789499E+03  0.00000000000E+00 0. -1.
        -15    1    3    3    0    0 -0.18359330345E+02  0.27219244494E+02 -0.96873313305E+02  0.10230126510E+03  0.17770000000E+01 0. -1.
         15    1    3    3    0    0 -0.33092181487E+01 -0.66654002449E+02 -0.14791407936E+03  0.16228197549E+03  0.17770000000E+01 0.  1.
</event>
<event>
 7    1  0.3260141E-006  0.3680878E+03  0.7546771E-02  0.9755695E-01
        -11   -1    0    0    0    0  0.00000000000E+00  0.00000000000E+00  0.50000000000E+03  0.50000000000E+03  0.00000000000E+00 0. -1.
         11   -1    0    0    0    0 -0.00000000000E+00 -0.00000000000E+00 -0.50000000000E+03  0.50000000000E+03  0.00000000000E+00 0. -1.
         23    2    1    2    0    0  0.15008987921E+03  0.68792874720E+02 -0.13675652611E+03  0.23324295420E+03  0.91872176415E+02 0.  0.
        -11    1    1    2    0    0 -0.10666848085E+03 -0.15231409881E+02  0.44142405393E+03  0.45438459045E+03  0.00000000000E+00 0. -1.
         11    1    1    2    0    0 -0.43421398360E+02 -0.53561464839E+02 -0.30466752782E+03  0.31237245535E+03  0.00000000000E+00 0. -1.
        -15    1    3    3    0    0 -0.57851342612E+01  0.20441758410E+02 -0.34775428076E+02  0.40789966808E+02  0.17770000000E+01 0. -1.
         15    1    3    3    0    0  0.15587501347E+03  0.48351116310E+02 -0.10198109803E+03  0.19245298740E+03  0.17770000000E+01 0.  1.
</event>
<event>
 7    1  0.3260141E-006  0.5125486E+03  0.7546771E-02  0.9372161E-01
        -11   -1    0    0    0    0  0.00000000000E+00  0.00000000000E+00  0.50000000000E+03  0.50000000000E+03  0.00000000000E+00 0.  1.
         11   -1    0    0    0    0 -0.00000000000E+00 -0.00000000000E+00 -0.50000000000E+03  0.50000000000E+03  0.00000000000E+00 0. -1.
         23    2    1    2    0    0  0.20129631420E+02 -0.61931548058E+02  0.47427894039E+03  0.48745135183E+03  0.91801897586E+02 0.  0.
        -11    1    1    2    0    0 -0.75759710559E+02  0.28669298810E+02 -0.83142242791E+02  0.11607796938E+03  0.00000000000E+00 0.  1.
         11    1    1    2    0    0  0.55630079140E+02  0.33262249248E+02 -0.39113669760E+03  0.39647067879E+03  0.00000000000E+00 0. -1.
        -15    1    3    3    0    0  0.51597296638E+02 -0.15975721380E+02  0.28756040053E+03  0.29259467934E+03  0.17770000000E+01 0.  1.
         15    1    3    3    0    0 -0.31467665218E+02 -0.45955826678E+02  0.18671853986E+03  0.19485667249E+03  0.17770000000E+01 0. -1.
</event>
<event>
 7    1  0.3260141E-006  0.3470772E+03  0.7546771E-02  0.9827151E-01
        -11   -1    0    0    0    0  0.00000000000E+00  0.00000000000E+00  0.50000000000E+03  0.50000000000E+03  0.00000000000E+00 0.  1.
         11   -1    0    0    0    0 -0.00000000000E+00 -0.00000000000E+00 -0.50000000000E+03  0.50000000000E+03  0.00000000000E+00 0. -1.
         23    2    1    2    0    0 -0.96328266457E+02  0.11166041511E+03  0.31968047453E+03  0.36340930247E+03  0.90130639111E+02 0.  0.
        -11    1    1    2    0    0  0.17041333871E+03 -0.20366052809E+03  0.30241891365E+02  0.26726931867E+03  0.00000000000E+00 0.  1.
         11    1    1    2    0    0 -0.74085072254E+02  0.92000112981E+02 -0.34992236590E+03  0.36932137885E+03  0.00000000000E+00 0. -1.
        -15    1    3    3    0    0 -0.42624431230E+01  0.11705810648E+02 -0.32921934482E+01  0.13007332202E+02  0.17770000000E+01 0. -1.
         15    1    3    3    0    0 -0.92065823334E+02  0.99954604458E+02  0.32297266798E+03  0.35040197027E+03  0.17770000000E+01 0.  1.
</event>
<event>
 7    1  0.3260141E-006  0.3462325E+03  0.7546771E-02  0.9830136E-01
        -11   -1    0    0    0    0  0.00000000000E+00  0.00000000000E+00  0.50000000000E+03  0.50000000000E+03  0.00000000000E+00 0.  1.
         11   -1    0    0    0    0 -0.00000000000E+00 -0.00000000000E+00 -0.50000000000E+03  0.50000000000E+03  0.00000000000E+00 0. -1.
         23    2    1    2    0    0 -0.85896175741E+02 -0.27361860662E+02  0.25324927478E+03  0.28432431987E+03  0.92619108553E+02 0.  0.
        -11    1    1    2    0    0  0.80457076143E+02  0.20232192659E+03  0.15780335025E+03  0.26890407291E+03  0.00000000000E+00 0.  1.
         11    1    1    2    0    0  0.54390995982E+01 -0.17496006593E+03 -0.41105262502E+03  0.44677160721E+03  0.00000000000E+00 0. -1.
        -15    1    3    3    0    0 -0.10303739135E+03 -0.88354979593E+01  0.21296406918E+03  0.23675223870E+03  0.17770000000E+01 0.  1.
         15    1    3    3    0    0  0.17141215610E+02 -0.18526362702E+02  0.40285205601E+02  0.47572081170E+02  0.17770000000E+01 0. -1.
</event>
<event>
 7    1  0.3260141E-006  0.3934681E+03  0.7546771E-02  0.9675900E-01
        -11   -1    0    0    0    0  0.00000000000E+00  0.00000000000E+00  0.50000000000E+03  0.50000000000E+03  0.00000000000E+00 0. -1.
         11   -1    0    0    0    0 -0.00000000000E+00 -0.00000000000E+00 -0.50000000000E+03  0.50000000000E+03  0.00000000000E+00 0. -1.
         23    2    1    2    0    0  0.32804705155E+03 -0.52502029175E+02  0.27746862180E+03  0.44105520278E+03  0.84673046021E+02 0.  0.
        -11    1    1    2    0    0 -0.34092731242E+03  0.86200074586E+02 -0.83212389575E+02  0.36136710834E+03  0.00000000000E+00 0. -1.
         11    1    1    2    0    0  0.12880260876E+02 -0.33698045411E+02 -0.19425623222E+03  0.19757768888E+03  0.00000000000E+00 0. -1.
        -15    1    3    3    0    0  0.18301285267E+02 -0.24145897482E+02  0.14008850371E+02  0.33427040332E+02  0.17770000000E+01 0.  1.
         15    1    3    3    0    0  0.30974576628E+03 -0.28356131693E+02  0.26345977143E+03  0.40762816245E+03  0.17770000000E+01 0. -1.
</event>
<event>
 7    1  0.3260141E-006  0.5258778E+03  0.7546771E-02  0.9343698E-01
        -11   -1    0    0    0    0  0.00000000000E+00  0.00000000000E+00  0.50000000000E+03  0.50000000000E+03  0.00000000000E+00 0.  1.
         11   -1    0    0    0    0 -0.00000000000E+00 -0.00000000000E+00 -0.50000000000E+03  0.50000000000E+03  0.00000000000E+00 0. -1.
         23    2    1    2    0    0 -0.31255535496E+02  0.13802289293E+02  0.18060248802E+03  0.20570601422E+03  0.92359590297E+02 0.  0.
        -11    1    1    2    0    0  0.15376637122E+03  0.94707963956E+02  0.26437899260E+03  0.32017174623E+03  0.00000000000E+00 0.  1.
         11    1    1    2    0    0 -0.12251083573E+03 -0.10851025325E+03 -0.44498148062E+03  0.47412223954E+03  0.00000000000E+00 0. -1.
        -15    1    3    3    0    0 -0.52469518995E+02  0.38902010331E+02  0.12650571550E+03  0.14238423584E+03  0.17770000000E+01 0.  1.
         15    1    3    3    0    0  0.21213983499E+02 -0.25099721038E+02  0.54096772517E+02  0.63321778385E+02  0.17770000000E+01 0. -1.
</event>
<event>
 7    1  0.3260141E-006  0.4361605E+03  0.7546771E-02  0.9555206E-01
        -11   -1    0    0    0    0  0.00000000000E+00  0.00000000000E+00  0.50000000000E+03  0.50000000000E+03  0.00000000000E+00 0.  1.
         11   -1    0    0    0    0 -0.00000000000E+00 -0.00000000000E+00 -0.50000000000E+03  0.50000000000E+03  0.00000000000E+00 0. -1.
         23    2    1    2    0    0  0.64171509305E+01  0.18570111389E+03  0.36906110943E+03  0.42280005773E+03  0.89597448615E+02 0.  0.
        -11    1    1    2    0    0 -0.61221916343E+02 -0.89859153815E+02  0.66773504455E+02  0.12759894773E+03  0.00000000000E+00 0.  1.
         11    1    1    2    0    0  0.54804765413E+02 -0.95841960078E+02 -0.43583461389E+03  0.44960099453E+03  0.00000000000E+00 0. -1.
        -15    1    3    3    0    0 -0.20150801387E+00 -0.10142850431E+02  0.19826902002E+02  0.22342376604E+02  0.17770000000E+01 0. -1.
         15    1    3    3    0    0  0.66186589443E+01  0.19584396432E+03  0.34923420743E+03  0.40045768113E+03  0.17770000000E+01 0.  1.
</event>
<event>
 7    1  0.3260141E-006  0.5192066E+03  0.7546771E-02  0.9357830E-01
        -11   -1    0    0    0    0  0.00000000000E+00  0.00000000000E+00  0.50000000000E+03  0.50000000000E+03  0.00000000000E+00 0.  1.
         11   -1    0    0    0    0 -0.00000000000E+00 -0.00000000000E+00 -0.50000000000E+03  0.50000000000E+03  0.00000000000E+00 0.  1.
         23    2    1    2    0    0 -0.18208804965E+02  0.47880889637E+02  0.26320650225E+03  0.28320637766E+03  0.91126556803E+02 0.  0.
        -11    1    1    2    0    0  0.83517650670E+02  0.12911439754E+03  0.17902616999E+03  0.23600020162E+03  0.00000000000E+00 0.  1.
         11    1    1    2    0    0 -0.65308845705E+02 -0.17699528717E+03 -0.44223267223E+03  0.48079342071E+03  0.00000000000E+00 0.  1.
        -15    1    3    3    0    0 -0.52101040324E+02  0.89568377219E+01  0.13363157400E+03  0.14371951379E+03  0.17770000000E+01 0. -1.
         15    1    3    3    0    0  0.33892235359E+02  0.38924051915E+02  0.12957492824E+03  0.13948686387E+03  0.17770000000E+01 0.  1.
</event>
<event>
 7    1  0.3260141E-006  0.5089597E+03  0.7546771E-02  0.9379982E-01
        -11   -1    0    0    0    0  0.00000000000E+00  0.00000000000E+00  0.50000000000E+03  0.50000000000E+03  0.00000000000E+00 0.  1.
         11   -1    0    0    0    0 -0.00000000000E+00 -0.00000000000E+00 -0.50000000000E+03  0.50000000000E+03  0.00000000000E+00 0. -1.
         23    2    1    2    0    0  0.33523014361E+02 -0.59256749787E+01  0.33577591795E+03  0.35006386048E+03  0.92953392763E+02 0.  0.
        -11    1    1    2    0    0  0.62405243984E+02 -0.15136929680E+02  0.14534222299E+03  0.15889588698E+03  0.00000000000E+00 0.  1.
         11    1    1    2    0    0 -0.95928258345E+02  0.21062604659E+02 -0.48111814094E+03  0.49104025253E+03  0.00000000000E+00 0. -1.
        -15    1    3    3    0    0 -0.22380755234E+02  0.26186449830E+02  0.11831508245E+03  0.12324059730E+03  0.17770000000E+01 0. -1.
         15    1    3    3    0    0  0.55903769595E+02 -0.32112124808E+02  0.21746083550E+03  0.22682326318E+03  0.17770000000E+01 0.  1.
</event>
<event>
 7    1  0.3260141E-006  0.3765033E+03  0.7546771E-02  0.9728493E-01
        -11   -1    0    0    0    0  0.00000000000E+00  0.00000000000E+00  0.50000000000E+03  0.50000000000E+03  0.00000000000E+00 0. -1.
         11   -1    0    0    0    0 -0.00000000000E+00 -0.00000000000E+00 -0.50000000000E+03  0.50000000000E+03  0.00000000000E+00 0. -1.
         23    2    1    2    0    0  0.31161134235E+03  0.17060910037E+03  0.29528332799E+03  0.46702807087E+03  0.68657711732E+02 0.  0.
        -11    1    1    2    0    0 -0.21193816619E+03 -0.59656524692E+02 -0.21529114383E+02  0.22122429793E+03  0.00000000000E+00 0. -1.
         11    1    1    2    0    0 -0.99673176153E+02 -0.11095257568E+03 -0.27375421361E+03  0.31174763121E+03  0.00000000000E+00 0. -1.
        -15    1    3    3    0    0  0.26506172032E+03  0.11416850204E+03  0.23838524371E+03  0.37432986067E+03  0.17770000000E+01 0. -1.
         15    1    3    3    0    0  0.46549622021E+02  0.56440598332E+02  0.56898084280E+02  0.92698210199E+02  0.17770000000E+01 0.  1.
</event>
<event>
 7    1  0.6867807E-006  0.5150194E+03  0.7546771E-02  0.9366816E-01
        -11   -1    0    0    0    0  0.00000000000E+00  0.00000000000E+00  0.50000000000E+03  0.50000000000E+03  0.00000000000E+00 0. -1.
         11   -1    0    0    0    0 -0.00000000000E+00 -0.00000000000E+00 -0.50000000000E+03  0.50000000000E+03  0.00000000000E+00 0.  1.
         23    2    1    2    0    0  0.22948948454E+02 -0.48909033063E+02 -0.31132739190E+03  0.32814840487E+03  0.88531818720E+02 0.  0.
        -11    1    1    2    0    0 -0.12710173711E+03  0.40639001287E+02  0.46626150047E+03  0.48498058397E+03  0.00000000000E+00 0. -1.
         11    1    1    2    0    0  0.10415278866E+03  0.82700317753E+01 -0.15493410858E+03  0.18687101116E+03  0.00000000000E+00 0.  1.
        -15    1    3    3    0    0  0.62735113033E+01 -0.73567486536E+02 -0.22573799199E+03  0.23751280129E+03  0.17770000000E+01 0. -1.
         15    1    3    3    0    0  0.16675437151E+02  0.24658453474E+02 -0.85589399905E+02  0.90635603584E+02  0.17770000000E+01 0.  1.
</event>
<event>
 7    1  0.3260141E-006  0.5111394E+03  0.7546771E-02  0.9375224E-01
        -11   -1    0    0    0    0  0.00000000000E+00  0.00000000000E+00  0.50000000000E+03  0.50000000000E+03  0.00000000000E+00 0. -1.
         11   -1    0    0    0    0 -0.00000000000E+00 -0.00000000000E+00 -0.50000000000E+03  0.50000000000E+03  0.00000000000E+00 0. -1.
         23    2    1    2    0    0  0.10963519754E+03 -0.83489317832E+02 -0.16312242642E+03  0.23222932364E+03  0.91275352786E+02 0.  0.
        -11    1    1    2    0    0 -0.25395042017E+03  0.12818098816E+03  0.39757200502E+03  0.48886059445E+03  0.00000000000E+00 0. -1.
         11    1    1    2    0    0  0.14431522263E+03 -0.44691670328E+02 -0.23444957861E+03  0.27891008191E+03  0.00000000000E+00 0. -1.
        -15    1    3    3    0    0  0.11967941522E+03 -0.90995407148E+02 -0.15918609692E+03  0.21896734398E+03  0.17770000000E+01 0. -1.
         15    1    3    3    0    0 -0.10044217678E+02  0.75060893159E+01 -0.39363295006E+01  0.13261979660E+02  0.17770000000E+01 0.  1.
</event>
<event>
 7    1  0.3260141E-006  0.3759833E+03  0.7546771E-02  0.9730151E-01
        -11   -1    0    0    0    0  0.00000000000E+00  0.00000000000E+00  0.50000000000E+03  0.50000000000E+03  0.00000000000E+00 0.  1.
         11   -1    0    0    0    0 -0.00000000000E+00 -0.00000000000E+00 -0.50000000000E+03  0.50000000000E+03  0.00000000000E+00 0. -1.
         23    2    1    2    0    0 -0.59423440782E+02 -0.14111629474E+03  0.13134810170E+03  0.22144288297E+03  0.91321808126E+02 0.  0.
        -11    1    1    2    0    0  0.13631319138E+03  0.60764060506E+02  0.29894280904E+03  0.33412626396E+03  0.00000000000E+00 0.  1.
         11    1    1    2    0    0 -0.76889750599E+02  0.80352234239E+02 -0.43029091074E+03  0.44443085307E+03  0.00000000000E+00 0. -1.
        -15    1    3    3    0    0 -0.43989777215E+01 -0.25104282538E+02 -0.12646602709E+02  0.28507372658E+02  0.17770000000E+01 0. -1.
         15    1    3    3    0    0 -0.55024463060E+02 -0.11601201221E+03  0.14399470441E+03  0.19293551031E+03  0.17770000000E+01 0.  1.
</event>
<event>
 7    1  0.3260141E-006  0.4185749E+03  0.7546771E-02  0.9603056E-01
        -11   -1    0    0    0    0  0.00000000000E+00  0.00000000000E+00  0.50000000000E+03  0.50000000000E+03  0.00000000000E+00 0.  1.
         11   -1    0    0    0    0 -0.00000000000E+00 -0.00000000000E+00 -0.50000000000E+03  0.50000000000E+03  0.00000000000E+00 0. -1.
         23    2    1    2    0    0  0.13865759074E+03 -0.11339310712E+02  0.38332343404E+03  0.41759093072E+03  0.89949001643E+02 0.  0.
        -11    1    1    2    0    0 -0.12815390228E+03  0.85124892998E+02  0.34765996202E+02  0.15772870559E+03  0.00000000000E+00 0.  1.
         11    1    1    2    0    0 -0.10503688463E+02 -0.73785582286E+02 -0.41808943024E+03  0.42468036369E+03  0.00000000000E+00 0. -1.
        -15    1    3    3    0    0  0.31049714308E+02 -0.25998149369E+02  0.37902418696E+02  0.55495401622E+02  0.17770000000E+01 0. -1.
         15    1    3    3    0    0  0.10760787643E+03  0.14658838657E+02  0.34542101534E+03  0.36209552909E+03  0.17770000000E+01 0.  1.
</event>
<event>
 7    1  0.3260141E-006  0.4361328E+03  0.7546771E-02  0.9555280E-01
        -11   -1    0    0    0    0  0.00000000000E+00  0.00000000000E+00  0.50000000000E+03  0.50000000000E+03  0.00000000000E+00 0.  1.
         11   -1    0    0    0    0 -0.00000000000E+00 -0.00000000000E+00 -0.50000000000E+03  0.50000000000E+03  0.00000000000E+00 0. -1.
         23    2    1    2    0    0  0.10256045504E+03 -0.14013889008E+03  0.35249689125E+03  0.40334110710E+03  0.90952926757E+02 0.  0.
        -11    1    1    2    0    0  0.19397766431E+02  0.81833991449E+02  0.96353412231E+02  0.12789470492E+03  0.00000000000E+00 0.  1.
         11    1    1    2    0    0 -0.12195822147E+03  0.58304898626E+02 -0.44885030349E+03  0.46876418797E+03  0.00000000000E+00 0. -1.
        -15    1    3    3    0    0  0.75933234644E+02 -0.12310249277E+03  0.33965863196E+03  0.36917641291E+03  0.17770000000E+01 0.  1.
         15    1    3    3    0    0  0.26627220392E+02 -0.17036397301E+02  0.12838259290E+02  0.34164694194E+02  0.17770000000E+01 0. -1.
</event>
<event>
 7    1  0.3260141E-006  0.4741714E+03  0.7546771E-02  0.9459533E-01
        -11   -1    0    0    0    0  0.00000000000E+00  0.00000000000E+00  0.50000000000E+03  0.50000000000E+03  0.00000000000E+00 0.  1.
         11   -1    0    0    0    0 -0.00000000000E+00 -0.00000000000E+00 -0.50000000000E+03  0.50000000000E+03  0.00000000000E+00 0. -1.
         23    2    1    2    0    0 -0.88611285040E+02  0.88165941633E+02  0.44374498872E+03  0.47018907204E+03  0.92428109125E+02 0.  0.
        -11    1    1    2    0    0  0.55736590472E+02 -0.45659276720E+01  0.18510918988E+02  0.58907294410E+02  0.00000000000E+00 0.  1.
         11    1    1    2    0    0  0.32874694568E+02 -0.83600013960E+02 -0.46225590771E+03  0.47090363355E+03  0.00000000000E+00 0. -1.
        -15    1    3    3    0    0 -0.48145100238E+02  0.92578926522E+02  0.38358987370E+03  0.39753384415E+03  0.17770000000E+01 0.  1.
         15    1    3    3    0    0 -0.40466184801E+02 -0.44129848892E+01  0.60155115019E+02  0.72655227891E+02  0.17770000000E+01 0. -1.
</event>
<event>
 7    1  0.3260141E-006  0.4351873E+03  0.7546771E-02  0.9557791E-01
        -11   -1    0    0    0    0  0.00000000000E+00  0.00000000000E+00  0.50000000000E+03  0.50000000000E+03  0.00000000000E+00 0.  1.
         11   -1    0    0    0    0 -0.00000000000E+00 -0.00000000000E+00 -0.50000000000E+03  0.50000000000E+03  0.00000000000E+00 0. -1.
         23    2    1    2    0    0  0.20129521684E+02 -0.49561956150E+02  0.40147975213E+03  0.41608038458E+03  0.95264421103E+02 0.  0.
        -11    1    1    2    0    0  0.55435083458E+02 -0.11720678268E+03  0.13488950470E+02  0.13035501590E+03  0.00000000000E+00 0.  1.
         11    1    1    2    0    0 -0.75564605142E+02  0.16676873883E+03 -0.41496870259E+03  0.45356459952E+03  0.00000000000E+00 0. -1.
        -15    1    3    3    0    0  0.48331944237E+02  0.24583756091E+01  0.14562485983E+03  0.15346588537E+03  0.17770000000E+01 0.  1.
         15    1    3    3    0    0 -0.28202422554E+02 -0.52020331759E+02  0.25585489230E+03  0.26261449921E+03  0.17770000000E+01 0. -1.
</event>
<event>
 7    1  0.3260141E-006  0.5192365E+03  0.7546771E-02  0.9357766E-01
        -11   -1    0    0    0    0  0.00000000000E+00  0.00000000000E+00  0.50000000000E+03  0.50000000000E+03  0.00000000000E+00 0.  1.
         11   -1    0    0    0    0 -0.00000000000E+00 -0.00000000000E+00 -0.50000000000E+03  0.50000000000E+03  0.00000000000E+00 0. -1.
         23    2    1    2    0    0 -0.30862626545E+02 -0.23237051544E+02  0.25588287175E+03  0.27468582656E+03  0.92107529415E+02 0.  0.
        -11    1    1    2    0    0  0.10212994904E+03 -0.74000768288E+02  0.20951943904E+03  0.24455068091E+03  0.00000000000E+00 0.  1.
         11    1    1    2    0    0 -0.71267322499E+02  0.97237819831E+02 -0.46540231079E+03  0.48076349253E+03  0.00000000000E+00 0. -1.
        -15    1    3    3    0    0 -0.30218571848E+02 -0.43725900071E+02  0.24632116289E+03  0.25199680442E+03  0.17770000000E+01 0.  1.
         15    1    3    3    0    0 -0.64405469649E+00  0.20488848527E+02  0.95617088676E+01  0.22689022145E+02  0.17770000000E+01 0. -1.
</event>
<event>
 7    1  0.3260141E-006  0.5104755E+03  0.7546771E-02  0.9376670E-01
        -11   -1    0    0    0    0  0.00000000000E+00  0.00000000000E+00  0.50000000000E+03  0.50000000000E+03  0.00000000000E+00 0.  1.
         11   -1    0    0    0    0 -0.00000000000E+00 -0.00000000000E+00 -0.50000000000E+03  0.50000000000E+03  0.00000000000E+00 0. -1.
         23    2    1    2    0    0  0.30719920845E+02  0.49627271275E+02  0.25206553048E+03  0.27437602075E+03  0.91315877655E+02 0.  0.
        -11    1    1    2    0    0 -0.40686333431E+02  0.51365830611E+02  0.22682407384E+03  0.23609952722E+03  0.00000000000E+00 0.  1.
         11    1    1    2    0    0  0.99664125853E+01 -0.10099310189E+03 -0.47888960432E+03  0.48952445203E+03  0.00000000000E+00 0. -1.
        -15    1    3    3    0    0 -0.28705471633E+02  0.17324234670E+02  0.42521686338E+02  0.54179191084E+02  0.17770000000E+01 0. -1.
         15    1    3    3    0    0  0.59425392478E+02  0.32303036606E+02  0.20954384415E+03  0.22019682966E+03  0.17770000000E+01 0.  1.
</event>
<event>
 7    1  0.3260141E-006  0.3865996E+03  0.7546771E-02  0.9696845E-01
        -11   -1    0    0    0    0  0.00000000000E+00  0.00000000000E+00  0.50000000000E+03  0.50000000000E+03  0.00000000000E+00 0.  1.
         11   -1    0    0    0    0 -0.00000000000E+00 -0.00000000000E+00 -0.50000000000E+03  0.50000000000E+03  0.00000000000E+00 0. -1.
         23    2    1    2    0    0 -0.35080720121E+03 -0.10246479103E+03 -0.93479819923E+02  0.38802093191E+03  0.90868262046E+02 0.  0.
        -11    1    1    2    0    0  0.28865221742E+03  0.28340084657E+02  0.27919326362E+03  0.40258184443E+03  0.00000000000E+00 0.  1.
         11    1    1    2    0    0  0.62154983796E+02  0.74124706372E+02 -0.18571344369E+03  0.20939722365E+03  0.00000000000E+00 0. -1.
        -15    1    3    3    0    0 -0.37856816446E+02  0.65394337808E+01 -0.33993884487E+02  0.51328789749E+02  0.17770000000E+01 0.  1.
         15    1    3    3    0    0 -0.31295038477E+03 -0.10900422481E+03 -0.59485935436E+02  0.33669214217E+03  0.17770000000E+01 0. -1.
</event>
<event>
 7    1  0.3260141E-006  0.3992637E+03  0.7546771E-02  0.9658579E-01
        -11   -1    0    0    0    0  0.00000000000E+00  0.00000000000E+00  0.50000000000E+03  0.50000000000E+03  0.00000000000E+00 0.  1.
         11   -1    0    0    0    0 -0.00000000000E+00 -0.00000000000E+00 -0.50000000000E+03  0.50000000000E+03  0.00000000000E+00 0. -1.
         23    2    1    2    0    0 -0.19853649984E+03 -0.16963616294E+02  0.31827563600E+03  0.38651815056E+03  0.91610011439E+02 0.  0.
        -11    1    1    2    0    0  0.11426414609E+03  0.12701418723E+03  0.82274905314E+02  0.18962610285E+03  0.00000000000E+00 0.  1.
         11    1    1    2    0    0  0.84272353758E+02 -0.11005057094E+03 -0.40055054131E+03  0.42385574659E+03  0.00000000000E+00 0. -1.
        -15    1    3    3    0    0 -0.12501261205E+03 -0.68422845701E+00  0.11553058508E+03  0.17023247386E+03  0.17770000000E+01 0. -1.
         15    1    3    3    0    0 -0.73523887798E+02 -0.16279387837E+02  0.20274505091E+03  0.21628567670E+03  0.17770000000E+01 0.  1.
</event>
<event>
 7    1  0.3260141E-006  0.4078725E+03  0.7546771E-02  0.9633422E-01
        -11   -1    0    0    0    0  0.00000000000E+00  0.00000000000E+00  0.50000000000E+03  0.50000000000E+03  0.00000000000E+00 0. -1.
         11   -1    0    0    0    0 -0.00000000000E+00 -0.00000000000E+00 -0.50000000000E+03  0.50000000000E+03  0.00000000000E+00 0.  1.
         23    2    1    2    0    0  0.43864743187E+02 -0.12341482914E+03 -0.44121045463E+02  0.17262950807E+03  0.10343570301E+03 0.  0.
        -11    1    1    2    0    0  0.60525193961E+02  0.82943473748E+02  0.42145198838E+03  0.43377954937E+03  0.00000000000E+00 0. -1.
         11    1    1    2    0    0 -0.10438993715E+03  0.40471355393E+02 -0.37733094291E+03  0.39359094256E+03  0.00000000000E+00 0.  1.
        -15    1    3    3    0    0 -0.22207137792E+02 -0.13819483776E+02  0.16539939864E+02  0.30997781218E+02  0.17770000000E+01 0. -1.
         15    1    3    3    0    0  0.66071880979E+02 -0.10959534536E+03 -0.60660985327E+02  0.14163172685E+03  0.17770000000E+01 0.  1.
</event>
<event>
 7    1  0.3260141E-006  0.4208978E+03  0.7546771E-02  0.9596593E-01
        -11   -1    0    0    0    0  0.00000000000E+00  0.00000000000E+00  0.50000000000E+03  0.50000000000E+03  0.00000000000E+00 0.  1.
         11   -1    0    0    0    0 -0.00000000000E+00 -0.00000000000E+00 -0.50000000000E+03  0.50000000000E+03  0.00000000000E+00 0.  1.
         23    2    1    2    0    0  0.10324647359E+03 -0.11205905156E+03  0.36627931352E+03  0.40671363177E+03  0.89656998657E+02 0.  0.
        -11    1    1    2    0    0 -0.13279897317E+03  0.40182743389E+02  0.66306613741E+02  0.15377511881E+03  0.00000000000E+00 0.  1.
         11    1    1    2    0    0  0.29552499575E+02  0.71876308171E+02 -0.43258592726E+03  0.43951124942E+03  0.00000000000E+00 0.  1.
        -15    1    3    3    0    0  0.11581810739E+03 -0.76055844660E+02  0.29094105914E+03  0.32225484191E+03  0.17770000000E+01 0.  1.
         15    1    3    3    0    0 -0.12571633803E+02 -0.36003206899E+02  0.75338254374E+02  0.84458789860E+02  0.17770000000E+01 0. -1.
</event>
<event>
 7    1  0.3260141E-006  0.5135304E+03  0.7546771E-02  0.9370033E-01
        -11   -1    0    0    0    0  0.00000000000E+00  0.00000000000E+00  0.50000000000E+03  0.50000000000E+03  0.00000000000E+00 0. -1.
         11   -1    0    0    0    0 -0.00000000000E+00 -0.00000000000E+00 -0.50000000000E+03  0.50000000000E+03  0.00000000000E+00 0.  1.
         23    2    1    2    0    0 -0.28101368326E+02  0.42681354257E+02  0.26990127557E+03  0.29108045995E+03  0.96279544610E+02 0.  0.
        -11    1    1    2    0    0  0.63371659414E+02  0.63849861830E+02  0.20344826855E+03  0.22244992706E+03  0.00000000000E+00 0. -1.
         11    1    1    2    0    0 -0.35270291088E+02 -0.10653121609E+03 -0.47334954412E+03  0.48646961298E+03  0.00000000000E+00 0.  1.
        -15    1    3    3    0    0 -0.47243395293E+02  0.23608475538E+02  0.25449701786E+03  0.25992535149E+03  0.17770000000E+01 0. -1.
         15    1    3    3    0    0  0.19142026967E+02  0.19072878719E+02  0.15404257705E+02  0.31155108466E+02  0.17770000000E+01 0.  1.
</event>
<event>
 7    1  0.3260141E-006  0.5143421E+03  0.7546771E-02  0.9368278E-01
        -11   -1    0    0    0    0  0.00000000000E+00  0.00000000000E+00  0.50000000000E+03  0.50000000000E+03  0.00000000000E+00 0.  1.
         11   -1    0    0    0    0 -0.00000000000E+00 -0.00000000000E+00 -0.50000000000E+03  0.50000000000E+03  0.00000000000E+00 0. -1.
         23    2    1    2    0    0  0.12364457382E+03  0.15290127031E+03 -0.18672347155E+03  0.28718034404E+03  0.94552187076E+02 0.  0.
        -11    1    1    2    0    0 -0.13622709184E+03 -0.26194343351E+03  0.38560523730E+03  0.48565788570E+03  0.00000000000E+00 0.  1.
         11    1    1    2    0    0  0.12582518025E+02  0.10904216321E+03 -0.19888176575E+03  0.22716177025E+03  0.00000000000E+00 0. -1.
        -15    1    3    3    0    0  0.20275480018E+02  0.13282133450E+02 -0.79255624997E+02  0.82898262838E+02  0.17770000000E+01 0. -1.
         15    1    3    3    0    0  0.10336909380E+03  0.13961913686E+03 -0.10746784655E+03  0.20428208121E+03  0.17770000000E+01 0.  1.
</event>
<event>
 7    1  0.3260141E-006  0.5339433E+03  0.7546771E-02  0.9326906E-01
        -11   -1    0    0    0    0  0.00000000000E+00  0.00000000000E+00  0.50000000000E+03  0.50000000000E+03  0.00000000000E+00 0.  1.
         11   -1    0    0    0    0 -0.00000000000E+00 -0.00000000000E+00 -0.50000000000E+03  0.50000000000E+03  0.00000000000E+00 0. -1.
         23    2    1    2    0    0 -0.66133417357E+02 -0.31956559367E+01  0.28541030378E+03  0.30751824994E+03  0.93405521420E+02 0.  0.
        -11    1    1    2    0    0  0.12539602993E+03 -0.84713049543E+02  0.16842758091E+03  0.22642507612E+03  0.00000000000E+00 0.  1.
         11    1    1    2    0    0 -0.59262612570E+02  0.87908705479E+02 -0.45383788469E+03  0.46605667394E+03  0.00000000000E+00 0. -1.
        -15    1    3    3    0    0  0.22725618570E+02  0.83233302501E+01  0.74638202586E+02  0.78484078513E+02  0.17770000000E+01 0. -1.
         15    1    3    3    0    0 -0.88859035926E+02 -0.11518986187E+02  0.21077210120E+03  0.22903417143E+03  0.17770000000E+01 0.  1.
</event>
<event>
 7    1  0.3260141E-006  0.5273584E+03  0.7546771E-02  0.9340592E-01
        -11   -1    0    0    0    0  0.00000000000E+00  0.00000000000E+00  0.50000000000E+03  0.50000000000E+03  0.00000000000E+00 0.  1.
         11   -1    0    0    0    0 -0.00000000000E+00 -0.00000000000E+00 -0.50000000000E+03  0.50000000000E+03  0.00000000000E+00 0.  1.
         23    2    1    2    0    0  0.19214604831E+02 -0.40311014840E+02  0.64046061464E+02  0.11996055192E+03  0.91073909938E+02 0.  0.
        -11    1    1    2    0    0  0.75809626831E+02  0.33331593576E+02  0.39889211569E+03  0.40739785788E+03  0.00000000000E+00 0.  1.
         11    1    1    2    0    0 -0.95024231662E+02  0.69794212647E+01 -0.46293817715E+03  0.47264159020E+03  0.00000000000E+00 0.  1.
        -15    1    3    3    0    0  0.39075572240E+02  0.24635756372E+01  0.61208106449E+02  0.72681218859E+02  0.17770000000E+01 0. -1.
         15    1    3    3    0    0 -0.19860967408E+02 -0.42774590478E+02  0.28379550148E+01  0.47279333060E+02  0.17770000000E+01 0.  1.
</event>
<event>
 7    1  0.3260141E-006  0.4356456E+03  0.7546771E-02  0.9556573E-01
        -11   -1    0    0    0    0  0.00000000000E+00  0.00000000000E+00  0.50000000000E+03  0.50000000000E+03  0.00000000000E+00 0.  1.
         11   -1    0    0    0    0 -0.00000000000E+00 -0.00000000000E+00 -0.50000000000E+03  0.50000000000E+03  0.00000000000E+00 0.  1.
         23    2    1    2    0    0  0.11802497833E+03 -0.11406945729E+03  0.43391255515E+03  0.47289703324E+03  0.91704754172E+02 0.  0.
        -11    1    1    2    0    0 -0.30309009522E+02  0.11672005668E+03 -0.45482498971E+02  0.12888314631E+03  0.00000000000E+00 0.  1.
         11    1    1    2    0    0 -0.87715968807E+02 -0.26505993836E+01 -0.38843005618E+03  0.39821982045E+03  0.00000000000E+00 0.  1.
        -15    1    3    3    0    0  0.31973452267E+02 -0.94272652100E+02  0.23901949518E+03  0.25892684564E+03  0.17770000000E+01 0.  1.
         15    1    3    3    0    0  0.86051526062E+02 -0.19796805195E+02  0.19489305996E+03  0.21397018761E+03  0.17770000000E+01 0. -1.
</event>
<event>
 7    1  0.3260141E-006  0.4723928E+03  0.7546771E-02  0.9463794E-01
        -11   -1    0    0    0    0  0.00000000000E+00  0.00000000000E+00  0.50000000000E+03  0.50000000000E+03  0.00000000000E+00 0.  1.
         11   -1    0    0    0    0 -0.00000000000E+00 -0.00000000000E+00 -0.50000000000E+03  0.50000000000E+03  0.00000000000E+00 0.  1.
         23    2    1    2    0    0  0.99650217139E+02  0.34850676739E+02  0.43566339894E+03  0.45910066809E+03  0.99126640303E+02 0.  0.
        -11    1    1    2    0    0 -0.43501859995E+02  0.31909792951E+02  0.33625707924E+02  0.63571494733E+02  0.00000000000E+00 0.  1.
         11    1    1    2    0    0 -0.56148357144E+02 -0.66760469690E+02 -0.46928910687E+03  0.47732783718E+03  0.00000000000E+00 0.  1.
        -15    1    3    3    0    0  0.92655785132E+02  0.16314288019E+02  0.42727301840E+03  0.43751187469E+03  0.17770000000E+01 0.  1.
         15    1    3    3    0    0  0.69944320065E+01  0.18536388719E+02  0.83903805412E+01  0.21588793400E+02  0.17770000000E+01 0. -1.
</event>
<event>
 7    1  0.3260141E-006  0.5086359E+03  0.7546771E-02  0.9380691E-01
        -11   -1    0    0    0    0  0.00000000000E+00  0.00000000000E+00  0.50000000000E+03  0.50000000000E+03  0.00000000000E+00 0.  1.
         11   -1    0    0    0    0 -0.00000000000E+00 -0.00000000000E+00 -0.50000000000E+03  0.50000000000E+03  0.00000000000E+00 0.  1.
         23    2    1    2    0    0  0.54638607906E+02  0.45206500827E+02  0.47763514895E+03  0.49136412562E+03  0.90963527025E+02 0.  0.
        -11    1    1    2    0    0 -0.17356432239E+02 -0.10342641917E+03 -0.26286415130E+03  0.28301207035E+03  0.00000000000E+00 0.  1.
         11    1    1    2    0    0 -0.37282175666E+02  0.58219918346E+02 -0.21477099764E+03  0.22562380403E+03  0.00000000000E+00 0.  1.
        -15    1    3    3    0    0  0.46510479477E+02 -0.15498845931E+02  0.28584453269E+03  0.29002360856E+03  0.17770000000E+01 0.  1.
         15    1    3    3    0    0  0.81281284289E+01  0.60705346757E+02  0.19179061626E+03  0.20134051706E+03  0.17770000000E+01 0. -1.
</event>
<event>
 7    1  0.3260141E-006  0.5110676E+03  0.7546771E-02  0.9375380E-01
        -11   -1    0    0    0    0  0.00000000000E+00  0.00000000000E+00  0.50000000000E+03  0.50000000000E+03  0.00000000000E+00 0.  1.
         11   -1    0    0    0    0 -0.00000000000E+00 -0.00000000000E+00 -0.50000000000E+03  0.50000000000E+03  0.00000000000E+00 0.  1.
         23    2    1    2    0    0 -0.94225557690E+02 -0.23048054145E+03  0.29643583094E+03  0.39796251722E+03  0.92196678574E+02 0.  0.
        -11    1    1    2    0    0 -0.71792997100E+02 -0.31520368193E+02  0.81516852323E+02  0.11310510712E+03  0.00000000000E+00 0.  1.
         11    1    1    2    0    0  0.16601855479E+03  0.26200090964E+03 -0.37795268326E+03  0.48893237566E+03  0.00000000000E+00 0.  1.
        -15    1    3    3    0    0 -0.19686905574E+02  0.32689254067E+01  0.25797744600E+02  0.32664070167E+02  0.17770000000E+01 0. -1.
         15    1    3    3    0    0 -0.74538652116E+02 -0.23374946685E+03  0.27063808634E+03  0.36529844705E+03  0.17770000000E+01 0.  1.
</event>
<event>
 7    1  0.3260141E-006  0.4240038E+03  0.7546771E-02  0.9588021E-01
        -11   -1    0    0    0    0  0.00000000000E+00  0.00000000000E+00  0.50000000000E+03  0.50000000000E+03  0.00000000000E+00 0.  1.
         11   -1    0    0    0    0 -0.00000000000E+00 -0.00000000000E+00 -0.50000000000E+03  0.50000000000E+03  0.00000000000E+00 0. -1.
         23    2    1    2    0    0  0.36132587255E+03 -0.41876917658E+02 -0.18685214181E+03  0.41905232954E+03  0.91548181800E+02 0.  0.
        -11    1    1    2    0    0 -0.28953376734E+03  0.47783637559E+02  0.31713675055E+03  0.43207499001E+03  0.00000000000E+00 0.  1.
         11    1    1    2    0    0 -0.71792105208E+02 -0.59067199008E+01 -0.13028460873E+03  0.14887268045E+03  0.00000000000E+00 0. -1.
        -15    1    3    3    0    0  0.19145918979E+02 -0.35059269619E+01  0.10489049207E+02  0.22181875927E+02  0.17770000000E+01 0.  1.
         15    1    3    3    0    0  0.34217995357E+03 -0.38370990696E+02 -0.19734119102E+03  0.39687045361E+03  0.17770000000E+01 0. -1.
</event>
<event>
 7    1  0.3260141E-006  0.5220036E+03  0.7546771E-02  0.9351878E-01
        -11   -1    0    0    0    0  0.00000000000E+00  0.00000000000E+00  0.50000000000E+03  0.50000000000E+03  0.00000000000E+00 0. -1.
         11   -1    0    0    0    0 -0.00000000000E+00 -0.00000000000E+00 -0.50000000000E+03  0.50000000000E+03  0.00000000000E+00 0. -1.
         23    2    1    2    0    0  0.95240361645E+02 -0.20250089117E+02 -0.15149000288E+03  0.20119567259E+03  0.89720037337E+02 0.  0.
        -11    1    1    2    0    0 -0.32525971776E+03 -0.11185352721E+03  0.33192687529E+03  0.47799638711E+03  0.00000000000E+00 0. -1.
         11    1    1    2    0    0  0.23001935612E+03  0.13210361632E+03 -0.18043687241E+03  0.32080794030E+03  0.00000000000E+00 0. -1.
        -15    1    3    3    0    0  0.63549421794E+02 -0.18261117407E+02 -0.15565027235E+03  0.16912173849E+03  0.17770000000E+01 0. -1.
         15    1    3    3    0    0  0.31690939851E+02 -0.19889717095E+01  0.41602694717E+01  0.32073934093E+02  0.17770000000E+01 0.  1.
</event>
<event>
 7    1  0.3260141E-006  0.5140975E+03  0.7546771E-02  0.9368807E-01
        -11   -1    0    0    0    0  0.00000000000E+00  0.00000000000E+00  0.50000000000E+03  0.50000000000E+03  0.00000000000E+00 0.  1.
         11   -1    0    0    0    0 -0.00000000000E+00 -0.00000000000E+00 -0.50000000000E+03  0.50000000000E+03  0.00000000000E+00 0. -1.
         23    2    1    2    0    0  0.39579433235E+02  0.27735452006E+02 -0.11717560427E+03  0.15083050156E+03  0.81755312558E+02 0.  0.
        -11    1    1    2    0    0 -0.11666226593E+03 -0.80094423219E+01  0.47162168655E+03  0.48590251150E+03  0.00000000000E+00 0.  1.
         11    1    1    2    0    0  0.77082832694E+02 -0.19726009684E+02 -0.35444608228E+03  0.36326698694E+03  0.00000000000E+00 0. -1.
        -15    1    3    3    0    0  0.27038265341E+02 -0.24312141492E+02 -0.72309657675E+02  0.80956731275E+02  0.17770000000E+01 0.  1.
         15    1    3    3    0    0  0.12541167894E+02  0.52047593498E+02 -0.44865946598E+02  0.69873770288E+02  0.17770000000E+01 0. -1.
</event>
<event>
 7    1  0.3260141E-006  0.3765364E+03  0.7546771E-02  0.9728387E-01
        -11   -1    0    0    0    0  0.00000000000E+00  0.00000000000E+00  0.50000000000E+03  0.50000000000E+03  0.00000000000E+00 0.  1.
         11   -1    0    0    0    0 -0.00000000000E+00 -0.00000000000E+00 -0.50000000000E+03  0.50000000000E+03  0.00000000000E+00 0. -1.
         23    2    1    2    0    0 -0.60801774828E+02  0.18074431288E+03  0.63906376772E+02  0.22053348482E+03  0.90474474168E+02 0.  0.
        -11    1    1    2    0    0  0.23215013055E+03 -0.10236661532E+03  0.28583578740E+03  0.38219720617E+03  0.00000000000E+00 0.  1.
         11    1    1    2    0    0 -0.17134835572E+03 -0.78377697557E+02 -0.34974216417E+03  0.39726930901E+03  0.00000000000E+00 0. -1.
        -15    1    3    3    0    0 -0.17242550941E+02  0.88938460700E+02 -0.15028106894E+02  0.91849643878E+02  0.17770000000E+01 0.  1.
         15    1    3    3    0    0 -0.43559223887E+02  0.91805852178E+02  0.78934483666E+02  0.12868384094E+03  0.17770000000E+01 0. -1.
</event>
<event>
 7    1  0.3260141E-006  0.4381288E+03  0.7546771E-02  0.9550001E-01
        -11   -1    0    0    0    0  0.00000000000E+00  0.00000000000E+00  0.50000000000E+03  0.50000000000E+03  0.00000000000E+00 0.  1.
         11   -1    0    0    0    0 -0.00000000000E+00 -0.00000000000E+00 -0.50000000000E+03  0.50000000000E+03  0.00000000000E+00 0. -1.
         23    2    1    2    0    0  0.76239189389E+01  0.17537260911E+03  0.35668872037E+03  0.40806375393E+03  0.92062521507E+02 0.  0.
        -11    1    1    2    0    0 -0.14819495662E+02 -0.73692299606E+02  0.99385181274E+02  0.12460973770E+03  0.00000000000E+00 0.  1.
         11    1    1    2    0    0  0.71955767234E+01 -0.10168030950E+03 -0.45607390164E+03  0.46732650837E+03  0.00000000000E+00 0. -1.
        -15    1    3    3    0    0  0.60710179690E+01  0.69232096863E+02  0.24196187527E+03  0.25175116149E+03  0.17770000000E+01 0. -1.
         15    1    3    3    0    0  0.15529009699E+01  0.10614051225E+03  0.11472684510E+03  0.15631259244E+03  0.17770000000E+01 0.  1.
</event>
<event>
 7    1  0.3260141E-006  0.3579318E+03  0.7546771E-02  0.9789578E-01
        -11   -1    0    0    0    0  0.00000000000E+00  0.00000000000E+00  0.50000000000E+03  0.50000000000E+03  0.00000000000E+00 0.  1.
         11   -1    0    0    0    0 -0.00000000000E+00 -0.00000000000E+00 -0.50000000000E+03  0.50000000000E+03  0.00000000000E+00 0. -1.
         23    2    1    2    0    0  0.14602628058E+03 -0.15853537015E+03 -0.20748560563E+03  0.31282889418E+03  0.91402966489E+02 0.  0.
        -11    1    1    2    0    0 -0.26595739359E+03 -0.16498295145E+02  0.34380087792E+03  0.43497651961E+03  0.00000000000E+00 0.  1.
         11    1    1    2    0    0  0.11993111301E+03  0.17503366529E+03 -0.13631527229E+03  0.25219458621E+03  0.00000000000E+00 0. -1.
        -15    1    3    3    0    0  0.12194339465E+03 -0.15719256497E+03 -0.20905216669E+03  0.28859255033E+03  0.17770000000E+01 0. -1.
         15    1    3    3    0    0  0.24082885932E+02 -0.13428051775E+01  0.15665610614E+01  0.24236343848E+02  0.17770000000E+01 0.  1.
</event>
<event>
 7    1  0.3260141E-006  0.4458473E+03  0.7546771E-02  0.9529865E-01
        -11   -1    0    0    0    0  0.00000000000E+00  0.00000000000E+00  0.50000000000E+03  0.50000000000E+03  0.00000000000E+00 0.  1.
         11   -1    0    0    0    0 -0.00000000000E+00 -0.00000000000E+00 -0.50000000000E+03  0.50000000000E+03  0.00000000000E+00 0. -1.
         23    2    1    2    0    0  0.32777741216E+02  0.21229928206E+02  0.43114981085E+03  0.44322268085E+03  0.95032074883E+02 0.  0.
        -11    1    1    2    0    0  0.95656350601E+02 -0.56986401708E+02 -0.63242552878E+01  0.11152391490E+03  0.00000000000E+00 0.  1.
         11    1    1    2    0    0 -0.12843409182E+03  0.35756473502E+02 -0.42482555556E+03  0.44525340425E+03  0.00000000000E+00 0. -1.
        -15    1    3    3    0    0 -0.20121729245E+01 -0.32525869581E+02  0.82194433312E+02  0.88436777578E+02  0.17770000000E+01 0. -1.
         15    1    3    3    0    0  0.34789914141E+02  0.53755797788E+02  0.34895537754E+03  0.35478590327E+03  0.17770000000E+01 0.  1.
</event>
<event>
 7    1  0.3260141E-006  0.3803978E+03  0.7546771E-02  0.9716161E-01
        -11   -1    0    0    0    0  0.00000000000E+00  0.00000000000E+00  0.50000000000E+03  0.50000000000E+03  0.00000000000E+00 0.  1.
         11   -1    0    0    0    0 -0.00000000000E+00 -0.00000000000E+00 -0.50000000000E+03  0.50000000000E+03  0.00000000000E+00 0. -1.
         23    2    1    2    0    0 -0.61799501720E+02 -0.18542348862E+03 -0.52142069377E+01  0.21448230683E+03  0.88172691035E+02 0.  0.
        -11    1    1    2    0    0 -0.67291242172E+01  0.18695424667E+03  0.36986285350E+03  0.41448245060E+03  0.00000000000E+00 0.  1.
         11    1    1    2    0    0  0.68528625937E+02 -0.15307580547E+01 -0.36464864656E+03  0.37103524257E+03  0.00000000000E+00 0. -1.
        -15    1    3    3    0    0 -0.81163474555E+02 -0.11257330376E+03  0.13199048474E+01  0.13879898486E+03  0.17770000000E+01 0.  1.
         15    1    3    3    0    0  0.19363972835E+02 -0.72850184858E+02 -0.65341117851E+01  0.75683321965E+02  0.17770000000E+01 0. -1.
</event>
<event>
 7    1  0.3260141E-006  0.5093213E+03  0.7546771E-02  0.9379191E-01
        -11   -1    0    0    0    0  0.00000000000E+00  0.00000000000E+00  0.50000000000E+03  0.50000000000E+03  0.00000000000E+00 0.  1.
         11   -1    0    0    0    0 -0.00000000000E+00 -0.00000000000E+00 -0.50000000000E+03  0.50000000000E+03  0.00000000000E+00 0.  1.
         23    2    1    2    0    0 -0.88843321854E+02 -0.57120866021E+02 -0.30662853419E+03  0.33502283332E+03  0.84043510736E+02 0.  0.
        -11    1    1    2    0    0  0.10939673188E+03  0.29164797107E+02  0.47743830612E+03  0.49067867947E+03  0.00000000000E+00 0.  1.
         11    1    1    2    0    0 -0.20553410022E+02  0.27956068915E+02 -0.17080977193E+03  0.17429848720E+03  0.00000000000E+00 0.  1.
        -15    1    3    3    0    0 -0.50462859268E+02 -0.71817021748E+01 -0.52481552319E+02  0.73181610220E+02  0.17770000000E+01 0. -1.
         15    1    3    3    0    0 -0.38380462586E+02 -0.49939163847E+02 -0.25414698187E+03  0.26184122310E+03  0.17770000000E+01 0.  1.
</event>
<event>
 7    1  0.3260141E-006  0.3730428E+03  0.7546771E-02  0.9739585E-01
        -11   -1    0    0    0    0  0.00000000000E+00  0.00000000000E+00  0.50000000000E+03  0.50000000000E+03  0.00000000000E+00 0. -1.
         11   -1    0    0    0    0 -0.00000000000E+00 -0.00000000000E+00 -0.50000000000E+03  0.50000000000E+03  0.00000000000E+00 0. -1.
         23    2    1    2    0    0  0.46023872635E+02  0.14177726603E+03  0.13233222340E+03  0.22774705590E+03  0.11017220206E+03 0.  0.
        -11    1    1    2    0    0 -0.10012356544E+03 -0.21636019536E+03  0.26960317412E+03  0.35989211438E+03  0.00000000000E+00 0. -1.
         11    1    1    2    0    0  0.54099692810E+02  0.74582929336E+02 -0.40193539752E+03  0.41236082972E+03  0.00000000000E+00 0. -1.
        -15    1    3    3    0    0 -0.14306066369E+02 -0.12883115958E+02  0.14143130020E+02  0.23954625180E+02  0.17770000000E+01 0. -1.
         15    1    3    3    0    0  0.60329939004E+02  0.15466038198E+03  0.11818909338E+03  0.20379243072E+03  0.17770000000E+01 0.  1.
</event>
<event>
 7    1  0.3260141E-006  0.3457261E+03  0.7546771E-02  0.9831930E-01
        -11   -1    0    0    0    0  0.00000000000E+00  0.00000000000E+00  0.50000000000E+03  0.50000000000E+03  0.00000000000E+00 0.  1.
         11   -1    0    0    0    0 -0.00000000000E+00 -0.00000000000E+00 -0.50000000000E+03  0.50000000000E+03  0.00000000000E+00 0.  1.
         23    2    1    2    0    0  0.23690389479E+02  0.72387926073E+02  0.23596001562E+03  0.26543578814E+03  0.94751159652E+02 0.  0.
        -11    1    1    2    0    0 -0.25555708560E+02  0.31027532798E+03 -0.13098714679E+03  0.33775953875E+03  0.00000000000E+00 0.  1.
         11    1    1    2    0    0  0.18653190812E+01 -0.38266325405E+03 -0.10497286884E+03  0.39680467312E+03  0.00000000000E+00 0.  1.
        -15    1    3    3    0    0  0.42608036616E+02 -0.36711609319E+01  0.73653194328E+02  0.85187281742E+02  0.17770000000E+01 0.  1.
         15    1    3    3    0    0 -0.18917647137E+02  0.76059087005E+02  0.16230682130E+03  0.18024850639E+03  0.17770000000E+01 0. -1.
</event>
<event>
 7    1  0.3260141E-006  0.3726463E+03  0.7546771E-02  0.9740865E-01
        -11   -1    0    0    0    0  0.00000000000E+00  0.00000000000E+00  0.50000000000E+03  0.50000000000E+03  0.00000000000E+00 0. -1.
         11   -1    0    0    0    0 -0.00000000000E+00 -0.00000000000E+00 -0.50000000000E+03  0.50000000000E+03  0.00000000000E+00 0.  1.
         23    2    1    2    0    0 -0.75881474789E+02  0.31195454480E+03  0.32400963376E+03  0.46531259478E+03  0.91977887801E+02 0.  0.
        -11    1    1    2    0    0  0.11361258389E+03 -0.26287894375E+03 -0.10167048487E+03  0.30389150330E+03  0.00000000000E+00 0. -1.
         11    1    1    2    0    0 -0.37731109098E+02 -0.49075601055E+02 -0.22233914890E+03  0.23079590192E+03  0.00000000000E+00 0.  1.
        -15    1    3    3    0    0 -0.83595715909E+02  0.20785258573E+03  0.25842266069E+03  0.34201808490E+03  0.17770000000E+01 0. -1.
         15    1    3    3    0    0  0.77142411197E+01  0.10410195907E+03  0.65586973078E+02  0.12329450987E+03  0.17770000000E+01 0.  1.
</event>
<event>
 7    1  0.3260141E-006  0.5126887E+03  0.7546771E-02  0.9371857E-01
        -11   -1    0    0    0    0  0.00000000000E+00  0.00000000000E+00  0.50000000000E+03  0.50000000000E+03  0.00000000000E+00 0. -1.
         11   -1    0    0    0    0 -0.00000000000E+00 -0.00000000000E+00 -0.50000000000E+03  0.50000000000E+03  0.00000000000E+00 0.  1.
         23    2    1    2    0    0 -0.52624356314E+02  0.22948480169E+02 -0.14091174049E+03  0.17726880644E+03  0.90951390912E+02 0.  0.
        -11    1    1    2    0    0  0.16592843961E+03 -0.50074465439E+02  0.45544769873E+03  0.48731130239E+03  0.00000000000E+00 0. -1.
         11    1    1    2    0    0 -0.11330408330E+03  0.27125985270E+02 -0.31453595824E+03  0.33541989117E+03  0.00000000000E+00 0.  1.
        -15    1    3    3    0    0 -0.67732998857E+01  0.42201036101E+02 -0.21443617854E+02  0.47851766059E+02  0.17770000000E+01 0. -1.
         15    1    3    3    0    0 -0.45851056428E+02 -0.19252555932E+02 -0.11946812263E+03  0.12941704038E+03  0.17770000000E+01 0.  1.
</event>
<event>
 7    1  0.3260141E-006  0.5299390E+03  0.7546771E-02  0.9335203E-01
        -11   -1    0    0    0    0  0.00000000000E+00  0.00000000000E+00  0.50000000000E+03  0.50000000000E+03  0.00000000000E+00 0. -1.
         11   -1    0    0    0    0 -0.00000000000E+00 -0.00000000000E+00 -0.50000000000E+03  0.50000000000E+03  0.00000000000E+00 0.  1.
         23    2    1    2    0    0 -0.15567380436E+02  0.48008547455E+02  0.13635099106E+03  0.17179465915E+03  0.91513103900E+02 0.  0.
        -11    1    1    2    0    0 -0.23783509620E+02 -0.16410627651E+03  0.31744427113E+03  0.35814437116E+03  0.00000000000E+00 0. -1.
         11    1    1    2    0    0  0.39350890056E+02  0.11609772905E+03 -0.45379526219E+03  0.47006096969E+03  0.00000000000E+00 0.  1.
        -15    1    3    3    0    0  0.37378950050E+01 -0.22714091578E+02  0.66988340698E+02  0.70855467917E+02  0.17770000000E+01 0. -1.
         15    1    3    3    0    0 -0.19305275441E+02  0.70722639033E+02  0.69362650367E+02  0.10093919123E+03  0.17770000000E+01 0.  1.
</event>
<event>
 7    1  0.3260141E-006  0.5105766E+03  0.7546771E-02  0.9376450E-01
        -11   -1    0    0    0    0  0.00000000000E+00  0.00000000000E+00  0.50000000000E+03  0.50000000000E+03  0.00000000000E+00 0. -1.
         11   -1    0    0    0    0 -0.00000000000E+00 -0.00000000000E+00 -0.50000000000E+03  0.50000000000E+03  0.00000000000E+00 0. -1.
         23    2    1    2    0    0  0.25587879541E+02 -0.52375282160E+02 -0.18856253691E+03  0.21708141062E+03  0.90391364355E+02 0.  0.
        -11    1    1    2    0    0 -0.27545099678E+02  0.15769751170E+03  0.46250195473E+03  0.48942343205E+03  0.00000000000E+00 0. -1.
         11    1    1    2    0    0  0.19572201369E+01 -0.10532222954E+03 -0.27393941782E+03  0.29349515734E+03  0.00000000000E+00 0. -1.
        -15    1    3    3    0    0  0.51768864458E+02 -0.31498729390E+02 -0.16584437373E+03  0.17657774296E+03  0.17770000000E+01 0. -1.
         15    1    3    3    0    0 -0.26180984917E+02 -0.20876552770E+02 -0.22718163174E+02  0.40503667659E+02  0.17770000000E+01 0.  1.
</event>
<event>
 7    1  0.3260141E-006  0.4338518E+03  0.7546771E-02  0.9561350E-01
        -11   -1    0    0    0    0  0.00000000000E+00  0.00000000000E+00  0.50000000000E+03  0.50000000000E+03  0.00000000000E+00 0. -1.
         11   -1    0    0    0    0 -0.00000000000E+00 -0.00000000000E+00 -0.50000000000E+03  0.50000000000E+03  0.00000000000E+00 0.  1.
         23    2    1    2    0    0  0.12460517176E+03 -0.10683361317E+03  0.39912176276E+03  0.44170369605E+03  0.94149369962E+02 0.  0.
        -11    1    1    2    0    0 -0.13031157593E+03  0.16615346612E+02  0.17006000607E+02  0.13246275183E+03  0.00000000000E+00 0. -1.
         11    1    1    2    0    0  0.57064041778E+01  0.90218266562E+02 -0.41612776336E+03  0.42583355212E+03  0.00000000000E+00 0.  1.
        -15    1    3    3    0    0  0.87585672437E+02 -0.28417930237E+02  0.27705100702E+03  0.29195761164E+03  0.17770000000E+01 0. -1.
         15    1    3    3    0    0  0.37019499319E+02 -0.78415682936E+02  0.12207075574E+03  0.14974608441E+03  0.17770000000E+01 0.  1.
</event>
<event>
 7    1  0.3260141E-006  0.4753094E+03  0.7546771E-02  0.9456817E-01
        -11   -1    0    0    0    0  0.00000000000E+00  0.00000000000E+00  0.50000000000E+03  0.50000000000E+03  0.00000000000E+00 0.  1.
         11   -1    0    0    0    0 -0.00000000000E+00 -0.00000000000E+00 -0.50000000000E+03  0.50000000000E+03  0.00000000000E+00 0. -1.
         23    2    1    2    0    0  0.64758863708E+02  0.36366626998E+02  0.45509225605E+03  0.47070614209E+03  0.94546648248E+02 0.  0.
        -11    1    1    2    0    0  0.43133467348E+02 -0.37207066081E+02  0.45620347946E+01  0.57146075397E+02  0.00000000000E+00 0.  1.
         11    1    1    2    0    0 -0.10789233106E+03  0.84043908258E+00 -0.45965429085E+03  0.47214778251E+03  0.00000000000E+00 0. -1.
        -15    1    3    3    0    0  0.33529902640E+02  0.63076019448E+02  0.36119260109E+03  0.36819300837E+03  0.17770000000E+01 0.  1.
         15    1    3    3    0    0  0.31228961068E+02 -0.26709392450E+02  0.93899654963E+02  0.10251313372E+03  0.17770000000E+01 0. -1.
</event>
<event>
 7    1  0.3260141E-006  0.5159270E+03  0.7546771E-02  0.9364861E-01
        -11   -1    0    0    0    0  0.00000000000E+00  0.00000000000E+00  0.50000000000E+03  0.50000000000E+03  0.00000000000E+00 0.  1.
         11   -1    0    0    0    0 -0.00000000000E+00 -0.00000000000E+00 -0.50000000000E+03  0.50000000000E+03  0.00000000000E+00 0. -1.
         23    2    1    2    0    0 -0.12453286882E+03 -0.10522700057E+03 -0.14496254329E+03  0.23592831378E+03  0.89815773771E+02 0.  0.
        -11    1    1    2    0    0  0.16453228191E+03  0.23618586900E+03  0.38919412584E+03  0.48407303590E+03  0.00000000000E+00 0.  1.
         11    1    1    2    0    0 -0.39999413084E+02 -0.13095886843E+03 -0.24423158255E+03  0.27999865032E+03  0.00000000000E+00 0. -1.
        -15    1    3    3    0    0 -0.21184312450E+02 -0.15980755260E+02 -0.80762753540E+02  0.85029052218E+02  0.17770000000E+01 0. -1.
         15    1    3    3    0    0 -0.10334855637E+03 -0.89246245308E+02 -0.64199789751E+02  0.15089926156E+03  0.17770000000E+01 0.  1.
</event>
<event>
 7    1  0.3260141E-006  0.3800651E+03  0.7546771E-02  0.9717208E-01
        -11   -1    0    0    0    0  0.00000000000E+00  0.00000000000E+00  0.50000000000E+03  0.50000000000E+03  0.00000000000E+00 0. -1.
         11   -1    0    0    0    0 -0.00000000000E+00 -0.00000000000E+00 -0.50000000000E+03  0.50000000000E+03  0.00000000000E+00 0.  1.
         23    2    1    2    0    0  0.30394747902E+03  0.86568436538E+02  0.30392863319E+03  0.44775596806E+03  0.90744854687E+02 0.  0.
        -11    1    1    2    0    0 -0.13269902631E+03 -0.17184349796E+03 -0.31550449839E+02  0.21939610357E+03  0.00000000000E+00 0. -1.
         11    1    1    2    0    0 -0.17124845271E+03  0.85275061427E+02 -0.27237818335E+03  0.33284792837E+03  0.00000000000E+00 0.  1.
        -15    1    3    3    0    0  0.13029110570E+03  0.41585281620E+02  0.72088068096E+02  0.15461227364E+03  0.17770000000E+01 0.  1.
         15    1    3    3    0    0  0.17365637332E+03  0.44983154917E+02  0.23184056509E+03  0.29314369441E+03  0.17770000000E+01 0. -1.
</event>
<event>
 7    1  0.3260141E-006  0.5152295E+03  0.7546771E-02  0.9366363E-01
        -11   -1    0    0    0    0  0.00000000000E+00  0.00000000000E+00  0.50000000000E+03  0.50000000000E+03  0.00000000000E+00 0. -1.
         11   -1    0    0    0    0 -0.00000000000E+00 -0.00000000000E+00 -0.50000000000E+03  0.50000000000E+03  0.00000000000E+00 0.  1.
         23    2    1    2    0    0  0.94998172437E+02 -0.14116914585E+03 -0.35678811391E+03  0.40590025308E+03  0.92216466626E+02 0.  0.
        -11    1    1    2    0    0 -0.76720889959E+02  0.12198146792E+03  0.46285725808E+03  0.48477047644E+03  0.00000000000E+00 0. -1.
         11    1    1    2    0    0 -0.18277282478E+02  0.19187677926E+02 -0.10606914417E+03  0.10932927048E+03  0.00000000000E+00 0.  1.
        -15    1    3    3    0    0  0.10156914210E+03 -0.10690639039E+03 -0.33135316306E+03  0.36268904496E+03  0.17770000000E+01 0.  1.
         15    1    3    3    0    0 -0.65709696601E+01 -0.34262755453E+02 -0.25434950847E+02  0.43211208119E+02  0.17770000000E+01 0. -1.
</event>
<event>
 7    1  0.3260141E-006  0.5371747E+03  0.7546771E-02  0.9320267E-01
        -11   -1    0    0    0    0  0.00000000000E+00  0.00000000000E+00  0.50000000000E+03  0.50000000000E+03  0.00000000000E+00 0. -1.
         11   -1    0    0    0    0 -0.00000000000E+00 -0.00000000000E+00 -0.50000000000E+03  0.50000000000E+03  0.00000000000E+00 0.  1.
         23    2    1    2    0    0 -0.25768639383E+02 -0.45920923202E+02  0.26677653408E+03  0.28680245468E+03  0.91176613835E+02 0.  0.
        -11    1    1    2    0    0  0.62282988256E+02  0.16307041805E+03  0.17948569916E+03  0.25037221905E+03  0.00000000000E+00 0. -1.
         11    1    1    2    0    0 -0.36514348873E+02 -0.11714949485E+03 -0.44626223324E+03  0.46282532627E+03  0.00000000000E+00 0.  1.
        -15    1    3    3    0    0  0.13999433813E+02 -0.36430583756E+02  0.38372016670E+02  0.54760761246E+02  0.17770000000E+01 0.  1.
         15    1    3    3    0    0 -0.39768073197E+02 -0.94903394457E+01  0.22840451741E+03  0.23204169344E+03  0.17770000000E+01 0. -1.
</event>
<event>
 7    1  0.3260141E-006  0.5088321E+03  0.7546771E-02  0.9380261E-01
        -11   -1    0    0    0    0  0.00000000000E+00  0.00000000000E+00  0.50000000000E+03  0.50000000000E+03  0.00000000000E+00 0.  1.
         11   -1    0    0    0    0 -0.00000000000E+00 -0.00000000000E+00 -0.50000000000E+03  0.50000000000E+03  0.00000000000E+00 0.  1.
         23    2    1    2    0    0 -0.12321208048E+03 -0.97040860039E+02 -0.36715768018E+03  0.40878105247E+03  0.87744181873E+02 0.  0.
        -11    1    1    2    0    0  0.11033932149E+03  0.13157773553E+03  0.46017221249E+03  0.49116792597E+03  0.00000000000E+00 0.  1.
         11    1    1    2    0    0  0.12872758986E+02 -0.34536875491E+02 -0.93014532315E+02  0.10005102156E+03  0.00000000000E+00 0.  1.
        -15    1    3    3    0    0 -0.10926115272E+01  0.14297528224E+02 -0.29667149290E+02  0.32998645264E+02  0.17770000000E+01 0. -1.
         15    1    3    3    0    0 -0.12211946895E+03 -0.11133838826E+03 -0.33749053089E+03  0.37578240721E+03  0.17770000000E+01 0.  1.
</event>
<event>
 7    1  0.3260141E-006  0.4186105E+03  0.7546771E-02  0.9602957E-01
        -11   -1    0    0    0    0  0.00000000000E+00  0.00000000000E+00  0.50000000000E+03  0.50000000000E+03  0.00000000000E+00 0.  1.
         11   -1    0    0    0    0 -0.00000000000E+00 -0.00000000000E+00 -0.50000000000E+03  0.50000000000E+03  0.00000000000E+00 0.  1.
         23    2    1    2    0    0  0.67485082666E+02 -0.91782135159E+02 -0.44737859205E+02  0.15388026623E+03  0.93270914927E+02 0.  0.
        -11    1    1    2    0    0  0.14310145395E+02  0.98925312655E+02  0.43550060295E+03  0.44682409616E+03  0.00000000000E+00 0.  1.
         11    1    1    2    0    0 -0.81795228061E+02 -0.71431774953E+01 -0.39076274374E+03  0.39929563761E+03  0.00000000000E+00 0.  1.
        -15    1    3    3    0    0  0.53052145334E+02 -0.15285317302E+02  0.13235378546E+02  0.56802324106E+02  0.17770000000E+01 0.  1.
         15    1    3    3    0    0  0.14432937331E+02 -0.76496817857E+02 -0.57973237751E+02  0.97077942122E+02  0.17770000000E+01 0. -1.
</event>
<event>
 7    1  0.3260141E-006  0.3578977E+03  0.7546771E-02  0.9789694E-01
        -11   -1    0    0    0    0  0.00000000000E+00  0.00000000000E+00  0.50000000000E+03  0.50000000000E+03  0.00000000000E+00 0.  1.
         11   -1    0    0    0    0 -0.00000000000E+00 -0.00000000000E+00 -0.50000000000E+03  0.50000000000E+03  0.00000000000E+00 0. -1.
         23    2    1    2    0    0 -0.81127521786E+01 -0.78221607516E+02  0.28694520156E+03  0.31090045083E+03  0.90205903340E+02 0.  0.
        -11    1    1    2    0    0 -0.17014205890E+03 -0.18549574279E+03  0.12579290230E+02  0.25202227945E+03  0.00000000000E+00 0.  1.
         11    1    1    2    0    0  0.17825481108E+03  0.26371735030E+03 -0.29952449179E+03  0.43707726972E+03  0.00000000000E+00 0. -1.
        -15    1    3    3    0    0 -0.70658688340E+01 -0.55735556997E+02  0.28230704932E+03  0.28784858284E+03  0.17770000000E+01 0. -1.
         15    1    3    3    0    0 -0.10468833446E+01 -0.22486050519E+02  0.46381522376E+01  0.23051867991E+02  0.17770000000E+01 0.  1.
</event>
<event>
 7    1  0.3260141E-006  0.3838554E+03  0.7546771E-02  0.9705344E-01
        -11   -1    0    0    0    0  0.00000000000E+00  0.00000000000E+00  0.50000000000E+03  0.50000000000E+03  0.00000000000E+00 0.  1.
         11   -1    0    0    0    0 -0.00000000000E+00 -0.00000000000E+00 -0.50000000000E+03  0.50000000000E+03  0.00000000000E+00 0. -1.
         23    2    1    2    0    0 -0.49403731878E+02  0.11252547967E+03  0.34192864371E+03  0.37427049193E+03  0.89780239699E+02 0.  0.
        -11    1    1    2    0    0  0.76703416656E+02 -0.18918520446E+03  0.62263367605E+02  0.21342723036E+03  0.00000000000E+00 0.  1.
         11    1    1    2    0    0 -0.27299684778E+02  0.76659724791E+02 -0.40419201132E+03  0.41230227771E+03  0.00000000000E+00 0. -1.
        -15    1    3    3    0    0 -0.10039192074E+02  0.72247804149E+02  0.28492117051E+03  0.29411521843E+03  0.17770000000E+01 0.  1.
         15    1    3    3    0    0 -0.39364539804E+02  0.40277675518E+02  0.57007473207E+02  0.80155273498E+02  0.17770000000E+01 0. -1.
</event>
<event>
 7    1  0.3260141E-006  0.3490841E+03  0.7546771E-02  0.9820094E-01
        -11   -1    0    0    0    0  0.00000000000E+00  0.00000000000E+00  0.50000000000E+03  0.50000000000E+03  0.00000000000E+00 0. -1.
         11   -1    0    0    0    0 -0.00000000000E+00 -0.00000000000E+00 -0.50000000000E+03  0.50000000000E+03  0.00000000000E+00 0. -1.
         23    2    1    2    0    0 -0.65148155732E+02 -0.18264441655E+02  0.23260485094E+03  0.26099956623E+03  0.97148776976E+02 0.  0.
        -11    1    1    2    0    0  0.36527245100E+03  0.27830907009E+02 -0.12232111215E+02  0.36653532898E+03  0.00000000000E+00 0. -1.
         11    1    1    2    0    0 -0.30012429527E+03 -0.95664653534E+01 -0.22037273972E+03  0.37246510479E+03  0.00000000000E+00 0. -1.
        -15    1    3    3    0    0 -0.17365847045E+02  0.29270004519E+02  0.23770622337E+02  0.41551245751E+02  0.17770000000E+01 0. -1.
         15    1    3    3    0    0 -0.47782308687E+02 -0.47534446175E+02  0.20883422860E+03  0.21944832048E+03  0.17770000000E+01 0.  1.
</event>
<event>
 7    1  0.3260141E-006  0.5270286E+03  0.7546771E-02  0.9341283E-01
        -11   -1    0    0    0    0  0.00000000000E+00  0.00000000000E+00  0.50000000000E+03  0.50000000000E+03  0.00000000000E+00 0.  1.
         11   -1    0    0    0    0 -0.00000000000E+00 -0.00000000000E+00 -0.50000000000E+03  0.50000000000E+03  0.00000000000E+00 0. -1.
         23    2    1    2    0    0  0.58352131608E+02 -0.14463977829E+03  0.24028328255E+03  0.29982843413E+03  0.88517779628E+02 0.  0.
        -11    1    1    2    0    0  0.19256876147E+03 -0.67219298029E+02  0.10009361060E+03  0.22720011621E+03  0.00000000000E+00 0.  1.
         11    1    1    2    0    0 -0.25092089308E+03  0.21185907632E+03 -0.34037689316E+03  0.47297144966E+03  0.00000000000E+00 0. -1.
        -15    1    3    3    0    0  0.46956492058E+02 -0.16714829327E+02  0.82134036764E+02  0.96090870482E+02  0.17770000000E+01 0. -1.
         15    1    3    3    0    0  0.11395639550E+02 -0.12792494896E+03  0.15814924579E+03  0.20373756365E+03  0.17770000000E+01 0.  1.
</event>
<event>
 7    1  0.3260141E-006  0.5131847E+03  0.7546771E-02  0.9370782E-01
        -11   -1    0    0    0    0  0.00000000000E+00  0.00000000000E+00  0.50000000000E+03  0.50000000000E+03  0.00000000000E+00 0.  1.
         11   -1    0    0    0    0 -0.00000000000E+00 -0.00000000000E+00 -0.50000000000E+03  0.50000000000E+03  0.00000000000E+00 0.  1.
         23    2    1    2    0    0 -0.36453351090E+02  0.23181312643E+02  0.47630358982E+03  0.48681525438E+03  0.90872229886E+02 0.  0.
        -11    1    1    2    0    0  0.55516375177E+02  0.51387030513E+02 -0.82509971664E+02  0.11194011900E+03  0.00000000000E+00 0.  1.
         11    1    1    2    0    0 -0.19063024086E+02 -0.74568343156E+02 -0.39379361816E+03  0.40124462662E+03  0.00000000000E+00 0.  1.
        -15    1    3    3    0    0 -0.42141024638E+02  0.51672918797E+02  0.39184089127E+03  0.39747754439E+03  0.17770000000E+01 0.  1.
         15    1    3    3    0    0  0.56876735472E+01 -0.28491606154E+02  0.84462698552E+02  0.89337709996E+02  0.17770000000E+01 0. -1.
</event>
<event>
 7    1  0.3260141E-006  0.3710070E+03  0.7546771E-02  0.9746171E-01
        -11   -1    0    0    0    0  0.00000000000E+00  0.00000000000E+00  0.50000000000E+03  0.50000000000E+03  0.00000000000E+00 0.  1.
         11   -1    0    0    0    0 -0.00000000000E+00 -0.00000000000E+00 -0.50000000000E+03  0.50000000000E+03  0.00000000000E+00 0.  1.
         23    2    1    2    0    0 -0.45774035994E+01  0.12138670575E+03  0.27596275358E+03  0.31574761697E+03  0.93730631590E+02 0.  0.
        -11    1    1    2    0    0  0.13406979126E+03 -0.31501165339E+03 -0.29310690597E+03  0.45068693017E+03  0.00000000000E+00 0.  1.
         11    1    1    2    0    0 -0.12949238766E+03  0.19362494764E+03  0.17144152385E+02  0.23356545286E+03  0.00000000000E+00 0.  1.
        -15    1    3    3    0    0  0.10000362226E+02  0.11924833277E+03  0.27608232342E+03  0.30090659539E+03  0.17770000000E+01 0.  1.
         15    1    3    3    0    0 -0.14577765825E+02  0.21383729753E+01 -0.11956984086E+00  0.14841021575E+02  0.17770000000E+01 0. -1.
</event>
<event>
 7    1  0.3260141E-006  0.5307579E+03  0.7546771E-02  0.9333500E-01
        -11   -1    0    0    0    0  0.00000000000E+00  0.00000000000E+00  0.50000000000E+03  0.50000000000E+03  0.00000000000E+00 0. -1.
         11   -1    0    0    0    0 -0.00000000000E+00 -0.00000000000E+00 -0.50000000000E+03  0.50000000000E+03  0.00000000000E+00 0.  1.
         23    2    1    2    0    0  0.10098039353E+03  0.13731318290E+02 -0.12784557020E+03  0.18657249284E+03  0.89884460747E+02 0.  0.
        -11    1    1    2    0    0 -0.18255980783E+03  0.20557025355E+03  0.38026429776E+03  0.46924210034E+03  0.00000000000E+00 0. -1.
         11    1    1    2    0    0  0.81579414301E+02 -0.21930157184E+03 -0.25241872756E+03  0.34418540682E+03  0.00000000000E+00 0.  1.
        -15    1    3    3    0    0 -0.15763115000E+02  0.87260577810E+01 -0.25206626195E+02  0.31034684017E+02  0.17770000000E+01 0.  1.
         15    1    3    3    0    0  0.11674350853E+03  0.50052605088E+01 -0.10263894401E+03  0.15553780882E+03  0.17770000000E+01 0. -1.
</event>
<event>
 7    1  0.3260141E-006  0.5235837E+03  0.7546771E-02  0.9348532E-01
        -11   -1    0    0    0    0  0.00000000000E+00  0.00000000000E+00  0.50000000000E+03  0.50000000000E+03  0.00000000000E+00 0.  1.
         11   -1    0    0    0    0 -0.00000000000E+00 -0.00000000000E+00 -0.50000000000E+03  0.50000000000E+03  0.00000000000E+00 0. -1.
         23    2    1    2    0    0  0.37246642439E+02 -0.34196702304E+00  0.64206223687E+02  0.11831382817E+03  0.92131935078E+02 0.  0.
        -11    1    1    2    0    0  0.11420184023E+03 -0.87510639671E+02  0.37887136544E+03  0.40526989022E+03  0.00000000000E+00 0.  1.
         11    1    1    2    0    0 -0.15144848267E+03  0.87852606694E+02 -0.44307758912E+03  0.47641628162E+03  0.00000000000E+00 0. -1.
        -15    1    3    3    0    0  0.21834156749E+02  0.42921972601E+02  0.13858429706E+02  0.50142197157E+02  0.17770000000E+01 0.  1.
         15    1    3    3    0    0  0.15412485690E+02 -0.43263939624E+02  0.50347793981E+02  0.68171631011E+02  0.17770000000E+01 0. -1.
</event>
<event>
 7    1  0.3260141E-006  0.3701225E+03  0.7546771E-02  0.9749047E-01
        -11   -1    0    0    0    0  0.00000000000E+00  0.00000000000E+00  0.50000000000E+03  0.50000000000E+03  0.00000000000E+00 0. -1.
         11   -1    0    0    0    0 -0.00000000000E+00 -0.00000000000E+00 -0.50000000000E+03  0.50000000000E+03  0.00000000000E+00 0.  1.
         23    2    1    2    0    0  0.15494939746E+03 -0.18138636501E+02  0.33342098378E+03  0.38113530112E+03  0.98773677806E+02 0.  0.
        -11    1    1    2    0    0 -0.78767556539E+02 -0.21833382655E+03 -0.41931838983E+02  0.23586493360E+03  0.00000000000E+00 0. -1.
         11    1    1    2    0    0 -0.76181840923E+02  0.23647246305E+03 -0.29148914480E+03  0.38299976528E+03  0.00000000000E+00 0.  1.
        -15    1    3    3    0    0  0.87545305403E+02  0.98960123985E+01  0.27133601010E+03  0.28528669732E+03  0.17770000000E+01 0. -1.
         15    1    3    3    0    0  0.67404092060E+02 -0.28034648899E+02  0.62084973678E+02  0.95848603803E+02  0.17770000000E+01 0.  1.
</event>
<event>
 7    1  0.3260141E-006  0.5114253E+03  0.7546771E-02  0.9374601E-01
        -11   -1    0    0    0    0  0.00000000000E+00  0.00000000000E+00  0.50000000000E+03  0.50000000000E+03  0.00000000000E+00 0.  1.
         11   -1    0    0    0    0 -0.00000000000E+00 -0.00000000000E+00 -0.50000000000E+03  0.50000000000E+03  0.00000000000E+00 0. -1.
         23    2    1    2    0    0  0.26757654182E+00  0.59054256632E+02  0.38267692407E+03  0.39738954008E+03  0.89383116565E+02 0.  0.
        -11    1    1    2    0    0 -0.40434963407E+02  0.56742570340E+02  0.90274330200E+02  0.11403578494E+03  0.00000000000E+00 0.  1.
         11    1    1    2    0    0  0.40167386865E+02 -0.11579682697E+03 -0.47295125427E+03  0.48857467497E+03  0.00000000000E+00 0. -1.
        -15    1    3    3    0    0 -0.18270317231E+02 -0.10654366915E+02  0.26370517778E+02  0.33850878319E+02  0.17770000000E+01 0. -1.
         15    1    3    3    0    0  0.18537893773E+02  0.69708623547E+02  0.35630640630E+03  0.36353866177E+03  0.17770000000E+01 0.  1.
</event>
<event>
 7    1  0.3260141E-006  0.4969655E+03  0.7546771E-02  0.9406625E-01
        -11   -1    0    0    0    0  0.00000000000E+00  0.00000000000E+00  0.50000000000E+03  0.50000000000E+03  0.00000000000E+00 0.  1.
         11   -1    0    0    0    0 -0.00000000000E+00 -0.00000000000E+00 -0.50000000000E+03  0.50000000000E+03  0.00000000000E+00 0. -1.
         23    2    1    2    0    0  0.77475580721E+02 -0.38950175797E+02  0.48268366667E+03  0.49882027464E+03  0.91206153951E+02 0.  0.
        -11    1    1    2    0    0  0.84831350982E+01 -0.99406463214E+01 -0.60594231427E+01  0.14404743635E+02  0.00000000000E+00 0.  1.
         11    1    1    2    0    0 -0.85958715819E+02  0.48890822119E+02 -0.47662424353E+03  0.48677498172E+03  0.00000000000E+00 0. -1.
        -15    1    3    3    0    0  0.92656096854E+02 -0.48869748535E+02  0.44192370619E+03  0.45417301155E+03  0.17770000000E+01 0.  1.
         15    1    3    3    0    0 -0.15180516133E+02  0.99195727375E+01  0.40759960486E+02  0.44647263087E+02  0.17770000000E+01 0. -1.
</event>
<event>
 7    1  0.3260141E-006  0.3189797E+03  0.7546771E-02  0.9931673E-01
        -11   -1    0    0    0    0  0.00000000000E+00  0.00000000000E+00  0.50000000000E+03  0.50000000000E+03  0.00000000000E+00 0.  1.
         11   -1    0    0    0    0 -0.00000000000E+00 -0.00000000000E+00 -0.50000000000E+03  0.50000000000E+03  0.00000000000E+00 0.  1.
         23    2    1    2    0    0 -0.26995907686E+03 -0.26203096273E+02  0.91955844227E+02  0.30070560073E+03  0.91670472828E+02 0.  0.
        -11    1    1    2    0    0  0.28649805838E+03  0.11264483079E+03  0.21791369408E+03  0.37716889244E+03  0.00000000000E+00 0.  1.
         11    1    1    2    0    0 -0.16538981519E+02 -0.86441734513E+02 -0.30986953831E+03  0.32212550683E+03  0.00000000000E+00 0.  1.
        -15    1    3    3    0    0 -0.14772726834E+03  0.30803280144E+02  0.57435519679E+02  0.16147502757E+03  0.17770000000E+01 0.  1.
         15    1    3    3    0    0 -0.12223180852E+03 -0.57006376417E+02  0.34520324548E+02  0.13923057316E+03  0.17770000000E+01 0. -1.
</event>
<event>
 7    1  0.3260141E-006  0.3559564E+03  0.7546771E-02  0.9796309E-01
        -11   -1    0    0    0    0  0.00000000000E+00  0.00000000000E+00  0.50000000000E+03  0.50000000000E+03  0.00000000000E+00 0.  1.
         11   -1    0    0    0    0 -0.00000000000E+00 -0.00000000000E+00 -0.50000000000E+03  0.50000000000E+03  0.00000000000E+00 0. -1.
         23    2    1    2    0    0  0.17883980806E+03 -0.13524966509E+03  0.17653747633E+03  0.29306991583E+03  0.66695923104E+02 0.  0.
        -11    1    1    2    0    0  0.23286593684E+02  0.97209881923E+02  0.23030031674E+03  0.25105828503E+03  0.00000000000E+00 0.  1.
         11    1    1    2    0    0 -0.20212640174E+03  0.38039783170E+02 -0.40683779307E+03  0.45587179915E+03  0.00000000000E+00 0. -1.
        -15    1    3    3    0    0  0.92107937806E+01 -0.21693573842E+02  0.70390481860E+00  0.23645360625E+02  0.17770000000E+01 0.  1.
         15    1    3    3    0    0  0.16962901428E+03 -0.11355609125E+03  0.17583357151E+03  0.26942455520E+03  0.17770000000E+01 0. -1.
</event>
<event>
 7    1  0.3260141E-006  0.4592316E+03  0.7546771E-02  0.9495958E-01
        -11   -1    0    0    0    0  0.00000000000E+00  0.00000000000E+00  0.50000000000E+03  0.50000000000E+03  0.00000000000E+00 0.  1.
         11   -1    0    0    0    0 -0.00000000000E+00 -0.00000000000E+00 -0.50000000000E+03  0.50000000000E+03  0.00000000000E+00 0.  1.
         23    2    1    2    0    0  0.15045801998E+02  0.75931473355E+02  0.42284072619E+03  0.43909489563E+03  0.89543748180E+02 0.  0.
        -11    1    1    2    0    0  0.77988635890E+02  0.15297344770E+02  0.33559043134E+02  0.86269609139E+02  0.00000000000E+00 0.  1.
         11    1    1    2    0    0 -0.93034437887E+02 -0.91228818125E+02 -0.45639976933E+03  0.47463549523E+03  0.00000000000E+00 0.  1.
        -15    1    3    3    0    0 -0.27398284496E+02  0.39294850666E+02  0.94144532879E+02  0.10564611721E+03  0.17770000000E+01 0. -1.
         15    1    3    3    0    0  0.42444086493E+02  0.36636622688E+02  0.32869619331E+03  0.33344877842E+03  0.17770000000E+01 0.  1.
</event>
<event>
 7    1  0.3260141E-006  0.5016361E+03  0.7546771E-02  0.9396156E-01
        -11   -1    0    0    0    0  0.00000000000E+00  0.00000000000E+00  0.50000000000E+03  0.50000000000E+03  0.00000000000E+00 0.  1.
         11   -1    0    0    0    0 -0.00000000000E+00 -0.00000000000E+00 -0.50000000000E+03  0.50000000000E+03  0.00000000000E+00 0.  1.
         23    2    1    2    0    0 -0.10231725571E+03  0.84855662868E+02  0.47107958491E+03  0.49836391245E+03  0.93708641932E+02 0.  0.
        -11    1    1    2    0    0  0.23153020302E+02 -0.21090064679E+02 -0.15670743864E+02  0.35020356802E+02  0.00000000000E+00 0.  1.
         11    1    1    2    0    0  0.79164235412E+02 -0.63765598189E+02 -0.45540884105E+03  0.46661573075E+03  0.00000000000E+00 0.  1.
        -15    1    3    3    0    0 -0.78539133215E+02  0.78342643760E+02  0.45623463527E+03  0.46953079284E+03  0.17770000000E+01 0.  1.
         15    1    3    3    0    0 -0.23778122499E+02  0.65130191080E+01  0.14844949645E+02  0.28833119610E+02  0.17770000000E+01 0. -1.
</event>
<event>
 7    1  0.3260141E-006  0.5161576E+03  0.7546771E-02  0.9364364E-01
        -11   -1    0    0    0    0  0.00000000000E+00  0.00000000000E+00  0.50000000000E+03  0.50000000000E+03  0.00000000000E+00 0. -1.
         11   -1    0    0    0    0 -0.00000000000E+00 -0.00000000000E+00 -0.50000000000E+03  0.50000000000E+03  0.00000000000E+00 0. -1.
         23    2    1    2    0    0  0.77831189361E+02  0.85380671885E+02  0.27016147787E+03  0.30498749060E+03  0.81747123089E+02 0.  0.
        -11    1    1    2    0    0 -0.56681239689E+02  0.13671933573E+02  0.20296087470E+03  0.21117007686E+03  0.00000000000E+00 0. -1.
         11    1    1    2    0    0 -0.21149949672E+02 -0.99052605458E+02 -0.47312235257E+03  0.48384243254E+03  0.00000000000E+00 0. -1.
        -15    1    3    3    0    0  0.87308475968E+02  0.71048628041E+02  0.26337812951E+03  0.28642952773E+03  0.17770000000E+01 0.  1.
         15    1    3    3    0    0 -0.94772866071E+01  0.14332043843E+02  0.67833483586E+01  0.18557962876E+02  0.17770000000E+01 0. -1.
</event>
<event>
 7    1  0.3260141E-006  0.5108072E+03  0.7546771E-02  0.9375947E-01
        -11   -1    0    0    0    0  0.00000000000E+00  0.00000000000E+00  0.50000000000E+03  0.50000000000E+03  0.00000000000E+00 0.  1.
         11   -1    0    0    0    0 -0.00000000000E+00 -0.00000000000E+00 -0.50000000000E+03  0.50000000000E+03  0.00000000000E+00 0.  1.
         23    2    1    2    0    0  0.43683466913E+02  0.52213387278E+02  0.47520492116E+03  0.48919276932E+03  0.94102950876E+02 0.  0.
        -11    1    1    2    0    0 -0.10552698220E+02  0.64615662807E+02 -0.14984811783E+03  0.16352676153E+03  0.00000000000E+00 0.  1.
         11    1    1    2    0    0 -0.33130768693E+02 -0.11682905008E+03 -0.32535680334E+03  0.34728046915E+03  0.00000000000E+00 0.  1.
        -15    1    3    3    0    0 -0.28714764590E+02  0.20363381868E+02  0.10969526441E+03  0.11521898190E+03  0.17770000000E+01 0. -1.
         15    1    3    3    0    0  0.72398231503E+02  0.31850005410E+02  0.36550965675E+03  0.37397378742E+03  0.17770000000E+01 0.  1.
</event>
<event>
 7    1  0.3260141E-006  0.3686452E+03  0.7546771E-02  0.9753869E-01
        -11   -1    0    0    0    0  0.00000000000E+00  0.00000000000E+00  0.50000000000E+03  0.50000000000E+03  0.00000000000E+00 0. -1.
         11   -1    0    0    0    0 -0.00000000000E+00 -0.00000000000E+00 -0.50000000000E+03  0.50000000000E+03  0.00000000000E+00 0.  1.
         23    2    1    2    0    0  0.10670982151E+03 -0.11792140485E+03  0.24558010052E+03  0.30557365666E+03  0.88165923931E+02 0.  0.
        -11    1    1    2    0    0 -0.13224609702E+03 -0.43956332701E+01  0.19545502548E+03  0.23603181725E+03  0.00000000000E+00 0. -1.
         11    1    1    2    0    0  0.25536275509E+02  0.12231703812E+03 -0.44103512601E+03  0.45839452609E+03  0.00000000000E+00 0.  1.
        -15    1    3    3    0    0  0.21186575412E+02 -0.60268801983E+02  0.15734552267E+03  0.16982923984E+03  0.17770000000E+01 0.  1.
         15    1    3    3    0    0  0.85523246095E+02 -0.57652602866E+02  0.88234577848E+02  0.13574441682E+03  0.17770000000E+01 0. -1.
</event>
<event>
 7    1  0.3260141E-006  0.5006489E+03  0.7546771E-02  0.9398359E-01
        -11   -1    0    0    0    0  0.00000000000E+00  0.00000000000E+00  0.50000000000E+03  0.50000000000E+03  0.00000000000E+00 0.  1.
         11   -1    0    0    0    0 -0.00000000000E+00 -0.00000000000E+00 -0.50000000000E+03  0.50000000000E+03  0.00000000000E+00 0. -1.
         23    2    1    2    0    0  0.65016067687E+02 -0.80746618473E+02  0.48112593113E+03  0.50064894561E+03  0.91761101141E+02 0.  0.
        -11    1    1    2    0    0 -0.74300672091E+02  0.92475837256E+02 -0.43277770712E+03  0.44874147806E+03  0.00000000000E+00 0. -1.
         11    1    1    2    0    0  0.92846044044E+01 -0.11729218783E+02 -0.48348224008E+02  0.50609576336E+02  0.00000000000E+00 0.  1.
        -15    1    3    3    0    0  0.66372667201E+02 -0.70388680765E+02  0.48037746510E+03  0.49002608506E+03  0.17770000000E+01 0.  1.
         15    1    3    3    0    0 -0.13565995145E+01 -0.10357937708E+02  0.74846602325E+00  0.10622860547E+02  0.17770000000E+01 0. -1.
</event>
<event>
 7    1  0.3260141E-006  0.4806354E+03  0.7546771E-02  0.9444213E-01
        -11   -1    0    0    0    0  0.00000000000E+00  0.00000000000E+00  0.50000000000E+03  0.50000000000E+03  0.00000000000E+00 0.  1.
         11   -1    0    0    0    0 -0.00000000000E+00 -0.00000000000E+00 -0.50000000000E+03  0.50000000000E+03  0.00000000000E+00 0. -1.
         23    2    1    2    0    0  0.13427538026E+03 -0.39256163086E+01  0.43707269091E+03  0.46613651956E+03  0.90583825918E+02 0.  0.
        -11    1    1    2    0    0 -0.21342207083E+02  0.17408721176E+02  0.37120045459E+02  0.46221760579E+02  0.00000000000E+00 0.  1.
         11    1    1    2    0    0 -0.11293317317E+03 -0.13483104867E+02 -0.47419273637E+03  0.48764171986E+03  0.00000000000E+00 0. -1.
        -15    1    3    3    0    0  0.39398350642E+02  0.19714060504E+02  0.26127132714E+03  0.26496554178E+03  0.17770000000E+01 0. -1.
         15    1    3    3    0    0  0.94877029613E+02 -0.23639676813E+02  0.17580136377E+03  0.20117097778E+03  0.17770000000E+01 0.  1.
</event>
<event>
 7    1  0.3260141E-006  0.4089849E+03  0.7546771E-02  0.9630219E-01
        -11   -1    0    0    0    0  0.00000000000E+00  0.00000000000E+00  0.50000000000E+03  0.50000000000E+03  0.00000000000E+00 0.  1.
         11   -1    0    0    0    0 -0.00000000000E+00 -0.00000000000E+00 -0.50000000000E+03  0.50000000000E+03  0.00000000000E+00 0. -1.
         23    2    1    2    0    0 -0.14164774992E+03 -0.25104587723E+02  0.32290646273E+03  0.36492307597E+03  0.90586656429E+02 0.  0.
        -11    1    1    2    0    0  0.65692838872E+02 -0.11826424296E+03  0.10898039629E+03  0.17372019749E+03  0.00000000000E+00 0.  1.
         11    1    1    2    0    0  0.75954911044E+02  0.14336883068E+03 -0.43188685902E+03  0.46135672653E+03  0.00000000000E+00 0. -1.
        -15    1    3    3    0    0 -0.99309731460E+02 -0.18611501352E+02  0.29947998034E+03  0.31606997184E+03  0.17770000000E+01 0.  1.
         15    1    3    3    0    0 -0.42338018456E+02 -0.64930863706E+01  0.23426482395E+02  0.48853104137E+02  0.17770000000E+01 0. -1.
</event>
<event>
 7    1  0.3260141E-006  0.3506763E+03  0.7546771E-02  0.9814531E-01
        -11   -1    0    0    0    0  0.00000000000E+00  0.00000000000E+00  0.50000000000E+03  0.50000000000E+03  0.00000000000E+00 0. -1.
         11   -1    0    0    0    0 -0.00000000000E+00 -0.00000000000E+00 -0.50000000000E+03  0.50000000000E+03  0.00000000000E+00 0.  1.
         23    2    1    2    0    0  0.14603708184E+03  0.18112000401E+03 -0.73093551281E+02  0.25745737892E+03  0.82524842283E+02 0.  0.
        -11    1    1    2    0    0 -0.14428741769E+03 -0.96993123182E+02  0.38342786864E+03  0.42100291602E+03  0.00000000000E+00 0. -1.
         11    1    1    2    0    0 -0.17496641578E+01 -0.84126880829E+02 -0.31033431736E+03  0.32153970506E+03  0.00000000000E+00 0.  1.
        -15    1    3    3    0    0  0.89323229415E+02  0.69279513457E+02 -0.15315647451E+01  0.11306543998E+03  0.17770000000E+01 0.  1.
         15    1    3    3    0    0  0.56713852430E+02  0.11184049055E+03 -0.71561986536E+02  0.14439193894E+03  0.17770000000E+01 0. -1.
</event>
<event>
 7    1  0.3260141E-006  0.4679698E+03  0.7546771E-02  0.9474477E-01
        -11   -1    0    0    0    0  0.00000000000E+00  0.00000000000E+00  0.50000000000E+03  0.50000000000E+03  0.00000000000E+00 0.  1.
         11   -1    0    0    0    0 -0.00000000000E+00 -0.00000000000E+00 -0.50000000000E+03  0.50000000000E+03  0.00000000000E+00 0. -1.
         23    2    1    2    0    0 -0.60042471373E+01 -0.22603978744E+02  0.44780453545E+03  0.45672121464E+03  0.86708564152E+02 0.  0.
        -11    1    1    2    0    0 -0.14210250476E+02 -0.65901736909E+02  0.17134081954E+02  0.69559664394E+02  0.00000000000E+00 0.  1.
         11    1    1    2    0    0  0.20214497613E+02  0.88505715653E+02 -0.46493861740E+03  0.47371912097E+03  0.00000000000E+00 0. -1.
        -15    1    3    3    0    0  0.29886772370E+02  0.17104323424E+02  0.13317706882E+03  0.13756840637E+03  0.17770000000E+01 0. -1.
         15    1    3    3    0    0 -0.35891019507E+02 -0.39708302169E+02  0.31462746663E+03  0.31915280827E+03  0.17770000000E+01 0.  1.
</event>
<event>
 7    1  0.3260141E-006  0.4045836E+03  0.7546771E-02  0.9642954E-01
        -11   -1    0    0    0    0  0.00000000000E+00  0.00000000000E+00  0.50000000000E+03  0.50000000000E+03  0.00000000000E+00 0.  1.
         11   -1    0    0    0    0 -0.00000000000E+00 -0.00000000000E+00 -0.50000000000E+03  0.50000000000E+03  0.00000000000E+00 0. -1.
         23    2    1    2    0    0  0.45231822550E+02 -0.21722599204E+02  0.35030942542E+03  0.36589790093E+03  0.92988124411E+02 0.  0.
        -11    1    1    2    0    0 -0.10175861867E+03  0.12185482217E+03  0.87618764662E+02  0.18132970545E+03  0.00000000000E+00 0.  1.
         11    1    1    2    0    0  0.56526796115E+02 -0.10013222296E+03 -0.43792819008E+03  0.45277239362E+03  0.00000000000E+00 0. -1.
        -15    1    3    3    0    0  0.27255423582E+01  0.34762035506E+02  0.12024081600E+03  0.12520718531E+03  0.17770000000E+01 0. -1.
         15    1    3    3    0    0  0.42506280192E+02 -0.56484634710E+02  0.23006860942E+03  0.24069071562E+03  0.17770000000E+01 0.  1.
</event>
<event>
 7    1  0.3260141E-006  0.5279270E+03  0.7546771E-02  0.9339402E-01
        -11   -1    0    0    0    0  0.00000000000E+00  0.00000000000E+00  0.50000000000E+03  0.50000000000E+03  0.00000000000E+00 0. -1.
         11   -1    0    0    0    0 -0.00000000000E+00 -0.00000000000E+00 -0.50000000000E+03  0.50000000000E+03  0.00000000000E+00 0.  1.
         23    2    1    2    0    0  0.82904331989E+01  0.32970605322E+02  0.39494856153E+03  0.40649365595E+03  0.89982964932E+02 0.  0.
        -11    1    1    2    0    0 -0.87855105037E+02 -0.45830525936E+02  0.70193337720E+02  0.12143336135E+03  0.00000000000E+00 0. -1.
         11    1    1    2    0    0  0.79564671838E+02  0.12859920614E+02 -0.46514189924E+03  0.47207298270E+03  0.00000000000E+00 0.  1.
        -15    1    3    3    0    0  0.38626785372E+02  0.48340903517E+02  0.24096488025E+03  0.24878927377E+03  0.17770000000E+01 0. -1.
         15    1    3    3    0    0 -0.30336352173E+02 -0.15370298196E+02  0.15398368127E+03  0.15770438217E+03  0.17770000000E+01 0.  1.
</event>
<event>
 7    1  0.3260141E-006  0.5173666E+03  0.7546771E-02  0.9361768E-01
        -11   -1    0    0    0    0  0.00000000000E+00  0.00000000000E+00  0.50000000000E+03  0.50000000000E+03  0.00000000000E+00 0. -1.
         11   -1    0    0    0    0 -0.00000000000E+00 -0.00000000000E+00 -0.50000000000E+03  0.50000000000E+03  0.00000000000E+00 0.  1.
         23    2    1    2    0    0 -0.11230109620E+03  0.18775350261E+03 -0.28178870210E+03  0.36722777014E+03  0.87111701751E+02 0.  0.
        -11    1    1    2    0    0  0.84196478856E+02 -0.20634680050E+03  0.42809689519E+03  0.48263340207E+03  0.00000000000E+00 0. -1.
         11    1    1    2    0    0  0.28104617349E+02  0.18593297885E+02 -0.14630819309E+03  0.15013882778E+03  0.00000000000E+00 0.  1.
        -15    1    3    3    0    0 -0.49810199948E+02  0.14828198616E+03 -0.15354395370E+03  0.21919741533E+03  0.17770000000E+01 0.  1.
         15    1    3    3    0    0 -0.62490896257E+02  0.39471516448E+02 -0.12824474840E+03  0.14803035482E+03  0.17770000000E+01 0. -1.
</event>
<event>
 7    1  0.3260141E-006  0.5339856E+03  0.7546771E-02  0.9326819E-01
        -11   -1    0    0    0    0  0.00000000000E+00  0.00000000000E+00  0.50000000000E+03  0.50000000000E+03  0.00000000000E+00 0.  1.
         11   -1    0    0    0    0 -0.00000000000E+00 -0.00000000000E+00 -0.50000000000E+03  0.50000000000E+03  0.00000000000E+00 0. -1.
         23    2    1    2    0    0  0.13458146342E+03 -0.21644845847E+02  0.19640684428E+03  0.25590441445E+03  0.91272948925E+02 0.  0.
        -11    1    1    2    0    0 -0.59246381875E+02  0.79394146628E+02  0.25983764318E+03  0.27808122033E+03  0.00000000000E+00 0.  1.
         11    1    1    2    0    0 -0.75335081543E+02 -0.57749300781E+02 -0.45624448747E+03  0.46601436522E+03  0.00000000000E+00 0. -1.
        -15    1    3    3    0    0  0.71189562773E+02  0.17050102254E+02  0.41652364984E+02  0.84242133594E+02  0.17770000000E+01 0. -1.
         15    1    3    3    0    0  0.63391900646E+02 -0.38694948101E+02  0.15475447930E+03  0.17166228086E+03  0.17770000000E+01 0.  1.
</event>
<event>
 7    1  0.3260141E-006  0.5313650E+03  0.7546771E-02  0.9332240E-01
        -11   -1    0    0    0    0  0.00000000000E+00  0.00000000000E+00  0.50000000000E+03  0.50000000000E+03  0.00000000000E+00 0.  1.
         11   -1    0    0    0    0 -0.00000000000E+00 -0.00000000000E+00 -0.50000000000E+03  0.50000000000E+03  0.00000000000E+00 0.  1.
         23    2    1    2    0    0  0.17076418880E+02 -0.43095487345E+02  0.12944445512E+03  0.16567088942E+03  0.92423760634E+02 0.  0.
        -11    1    1    2    0    0 -0.94941943227E+02  0.14815149357E+03  0.32057659652E+03  0.36569412337E+03  0.00000000000E+00 0.  1.
         11    1    1    2    0    0  0.77865524347E+02 -0.10505600623E+03 -0.45002105163E+03  0.46863498721E+03  0.00000000000E+00 0.  1.
        -15    1    3    3    0    0 -0.24975563952E+02 -0.53483420304E+02  0.63151734925E+02  0.86461288420E+02  0.17770000000E+01 0.  1.
         15    1    3    3    0    0  0.42051982832E+02  0.10387932960E+02  0.66292720193E+02  0.79209601002E+02  0.17770000000E+01 0. -1.
</event>
<event>
 7    1  0.3260141E-006  0.3421668E+03  0.7546771E-02  0.9844635E-01
        -11   -1    0    0    0    0  0.00000000000E+00  0.00000000000E+00  0.50000000000E+03  0.50000000000E+03  0.00000000000E+00 0.  1.
         11   -1    0    0    0    0 -0.00000000000E+00 -0.00000000000E+00 -0.50000000000E+03  0.50000000000E+03  0.00000000000E+00 0. -1.
         23    2    1    2    0    0 -0.17109972695E+03 -0.69566017582E+02  0.17419625732E+03  0.27008811499E+03  0.92134176224E+02 0.  0.
        -11    1    1    2    0    0  0.11889892767E+03  0.11662332245E+03  0.24974527493E+03  0.30018437116E+03  0.00000000000E+00 0.  1.
         11    1    1    2    0    0  0.52200799279E+02 -0.47057304864E+02 -0.42394153225E+03  0.42972751385E+03  0.00000000000E+00 0. -1.
        -15    1    3    3    0    0 -0.97889462183E+02 -0.48122508096E+02  0.15812674042E+03  0.19210764263E+03  0.17770000000E+01 0.  1.
         15    1    3    3    0    0 -0.73210264770E+02 -0.21443509485E+02  0.16069516899E+02  0.77980472358E+02  0.17770000000E+01 0. -1.
</event>
<event>
 7    1  0.3260141E-006  0.5288604E+03  0.7546771E-02  0.9337452E-01
        -11   -1    0    0    0    0  0.00000000000E+00  0.00000000000E+00  0.50000000000E+03  0.50000000000E+03  0.00000000000E+00 0.  1.
         11   -1    0    0    0    0 -0.00000000000E+00 -0.00000000000E+00 -0.50000000000E+03  0.50000000000E+03  0.00000000000E+00 0. -1.
         23    2    1    2    0    0  0.79252458494E+01  0.42457220606E+02 -0.91690277387E+02  0.13626730913E+03  0.91083738757E+02 0.  0.
        -11    1    1    2    0    0 -0.12334210788E+03  0.72507134621E+02  0.44888973575E+03  0.47113963430E+03  0.00000000000E+00 0.  1.
         11    1    1    2    0    0  0.11541686203E+03 -0.11496435523E+03 -0.35719945836E+03  0.39259305657E+03  0.00000000000E+00 0. -1.
        -15    1    3    3    0    0 -0.24312658957E+02  0.45868915977E+02 -0.16720134954E+02  0.54569070730E+02  0.17770000000E+01 0.  1.
         15    1    3    3    0    0  0.32237904806E+02 -0.34116953716E+01 -0.74970142433E+02  0.81698238396E+02  0.17770000000E+01 0. -1.
</event>
<event>
 7    1  0.3260141E-006  0.3422704E+03  0.7546771E-02  0.9844263E-01
        -11   -1    0    0    0    0  0.00000000000E+00  0.00000000000E+00  0.50000000000E+03  0.50000000000E+03  0.00000000000E+00 0.  1.
         11   -1    0    0    0    0 -0.00000000000E+00 -0.00000000000E+00 -0.50000000000E+03  0.50000000000E+03  0.00000000000E+00 0. -1.
         23    2    1    2    0    0  0.17184924314E+03  0.14562259696E+03  0.16637333526E+03  0.29465112059E+03  0.91657476881E+02 0.  0.
        -11    1    1    2    0    0 -0.10346664546E+03 -0.51107771324E+02  0.24871262283E+03  0.27418118055E+03  0.00000000000E+00 0.  1.
         11    1    1    2    0    0 -0.68382597677E+02 -0.94514825637E+02 -0.41508595809E+03  0.43116769886E+03  0.00000000000E+00 0. -1.
        -15    1    3    3    0    0  0.90526377299E+02  0.11317103388E+03  0.59993216076E+02  0.15685997450E+03  0.17770000000E+01 0.  1.
         15    1    3    3    0    0  0.81322865837E+02  0.32451563083E+02  0.10638011919E+03  0.13779114609E+03  0.17770000000E+01 0. -1.
</event>
<event>
 7    1  0.3260141E-006  0.5154213E+03  0.7546771E-02  0.9365949E-01
        -11   -1    0    0    0    0  0.00000000000E+00  0.00000000000E+00  0.50000000000E+03  0.50000000000E+03  0.00000000000E+00 0. -1.
         11   -1    0    0    0    0 -0.00000000000E+00 -0.00000000000E+00 -0.50000000000E+03  0.50000000000E+03  0.00000000000E+00 0.  1.
         23    2    1    2    0    0  0.22245352640E+02 -0.57540709106E+02  0.31279592083E+03  0.33028497976E+03  0.86261757751E+02 0.  0.
        -11    1    1    2    0    0 -0.87090829100E+02 -0.53829584872E+01  0.16328406159E+03  0.18513636467E+03  0.00000000000E+00 0. -1.
         11    1    1    2    0    0  0.64845476460E+02  0.62923667593E+02 -0.47607998242E+03  0.48457865556E+03  0.00000000000E+00 0.  1.
        -15    1    3    3    0    0 -0.19732554359E+02  0.13163650298E+02  0.67630559221E+02  0.71691740530E+02  0.17770000000E+01 0.  1.
         15    1    3    3    0    0  0.41977906999E+02 -0.70704359404E+02  0.24516536161E+03  0.25859323923E+03  0.17770000000E+01 0. -1.
</event>
<event>
 7    1  0.3260141E-006  0.4290091E+03  0.7546771E-02  0.9574370E-01
        -11   -1    0    0    0    0  0.00000000000E+00  0.00000000000E+00  0.50000000000E+03  0.50000000000E+03  0.00000000000E+00 0.  1.
         11   -1    0    0    0    0 -0.00000000000E+00 -0.00000000000E+00 -0.50000000000E+03  0.50000000000E+03  0.00000000000E+00 0.  1.
         23    2    1    2    0    0  0.60426996246E+02 -0.12253776109E+03  0.40849989002E+03  0.44318866996E+03  0.10429339512E+03 0.  0.
        -11    1    1    2    0    0  0.71275176516E+02 -0.93656371753E+02 -0.80981275552E+02  0.14286228945E+03  0.00000000000E+00 0.  1.
         11    1    1    2    0    0 -0.13170217276E+03  0.21619413284E+03 -0.32751861447E+03  0.41394904059E+03  0.00000000000E+00 0.  1.
        -15    1    3    3    0    0  0.49348203611E+02 -0.99970607123E+02  0.40197824724E+03  0.41715588989E+03  0.17770000000E+01 0.  1.
         15    1    3    3    0    0  0.11078792635E+02 -0.22567153966E+02  0.65216427786E+01  0.26032780065E+02  0.17770000000E+01 0. -1.
</event>
<event>
 7    1  0.3260141E-006  0.3802604E+03  0.7546771E-02  0.9716593E-01
        -11   -1    0    0    0    0  0.00000000000E+00  0.00000000000E+00  0.50000000000E+03  0.50000000000E+03  0.00000000000E+00 0.  1.
         11   -1    0    0    0    0 -0.00000000000E+00 -0.00000000000E+00 -0.50000000000E+03  0.50000000000E+03  0.00000000000E+00 0. -1.
         23    2    1    2    0    0  0.12870593716E+03  0.98410542195E+02  0.10740167602E+03  0.21503062700E+03  0.91941271812E+02 0.  0.
        -11    1    1    2    0    0 -0.21278473896E+03 -0.71064970255E+02  0.29632970963E+03  0.37167038077E+03  0.00000000000E+00 0.  1.
         11    1    1    2    0    0  0.84078801803E+02 -0.27345571940E+02 -0.40373138565E+03  0.41329899223E+03  0.00000000000E+00 0. -1.
        -15    1    3    3    0    0 -0.11724787862E+02  0.18662813081E+02  0.26130584448E+02  0.34230635622E+02  0.17770000000E+01 0.  1.
         15    1    3    3    0    0  0.14043072502E+03  0.79747729114E+02  0.81271091573E+02  0.18079999138E+03  0.17770000000E+01 0. -1.
</event>
<event>
 7    1  0.3260141E-006  0.3510518E+03  0.7546771E-02  0.9813224E-01
        -11   -1    0    0    0    0  0.00000000000E+00  0.00000000000E+00  0.50000000000E+03  0.50000000000E+03  0.00000000000E+00 0.  1.
         11   -1    0    0    0    0 -0.00000000000E+00 -0.00000000000E+00 -0.50000000000E+03  0.50000000000E+03  0.00000000000E+00 0. -1.
         23    2    1    2    0    0 -0.87460276343E+02  0.18758527794E+03 -0.12063543884E+03  0.25815107749E+03  0.96184891064E+02 0.  0.
        -11    1    1    2    0    0 -0.33065772517E+02 -0.12995712012E+03  0.40556251330E+03  0.42715705610E+03  0.00000000000E+00 0.  1.
         11    1    1    2    0    0  0.12052604886E+03 -0.57628157812E+02 -0.28492707446E+03  0.31469186641E+03  0.00000000000E+00 0. -1.
        -15    1    3    3    0    0 -0.43853623924E+02  0.13747747091E+03 -0.32768081845E+02  0.14798682460E+03  0.17770000000E+01 0.  1.
         15    1    3    3    0    0 -0.43606652419E+02  0.50107807025E+02 -0.87867356993E+02  0.11016425289E+03  0.17770000000E+01 0. -1.
</event>
<event>
 7    1  0.3260141E-006  0.5106996E+03  0.7546771E-02  0.9376182E-01
        -11   -1    0    0    0    0  0.00000000000E+00  0.00000000000E+00  0.50000000000E+03  0.50000000000E+03  0.00000000000E+00 0. -1.
         11   -1    0    0    0    0 -0.00000000000E+00 -0.00000000000E+00 -0.50000000000E+03  0.50000000000E+03  0.00000000000E+00 0. -1.
         23    2    1    2    0    0  0.62323749392E+02 -0.51231308606E+02  0.29382939534E+03  0.31903540183E+03  0.94546165093E+02 0.  0.
        -11    1    1    2    0    0 -0.26586124940E+02 -0.25637240989E+02  0.18807198365E+03  0.19166418862E+03  0.00000000000E+00 0. -1.
         11    1    1    2    0    0 -0.35737624452E+02  0.76868549596E+02 -0.48190137899E+03  0.48930040955E+03  0.00000000000E+00 0. -1.
        -15    1    3    3    0    0  0.19360983474E+02 -0.45526004509E+02  0.25819774127E+03  0.26290054411E+03  0.17770000000E+01 0.  1.
         15    1    3    3    0    0  0.42962765918E+02 -0.57053040973E+01  0.35631654070E+02  0.56134857717E+02  0.17770000000E+01 0. -1.
</event>
<event>
 7    1  0.3260141E-006  0.4222454E+03  0.7546771E-02  0.9592864E-01
        -11   -1    0    0    0    0  0.00000000000E+00  0.00000000000E+00  0.50000000000E+03  0.50000000000E+03  0.00000000000E+00 0.  1.
         11   -1    0    0    0    0 -0.00000000000E+00 -0.00000000000E+00 -0.50000000000E+03  0.50000000000E+03  0.00000000000E+00 0. -1.
         23    2    1    2    0    0  0.99274588185E+02  0.47339705071E+02 -0.33093756413E+01  0.14837084463E+03  0.99531221399E+02 0.  0.
        -11    1    1    2    0    0 -0.48174458736E+02 -0.18128695146E+03  0.39350694391E+03  0.43592826491E+03  0.00000000000E+00 0.  1.
         11    1    1    2    0    0 -0.51100129449E+02  0.13394724639E+03 -0.39019756827E+03  0.41570089046E+03  0.00000000000E+00 0. -1.
        -15    1    3    3    0    0  0.73121678867E+02  0.62490738263E+02  0.32438051319E+02  0.10152466297E+03  0.17770000000E+01 0.  1.
         15    1    3    3    0    0  0.26152909318E+02 -0.15151033192E+02 -0.35747426961E+02  0.46846181657E+02  0.17770000000E+01 0. -1.
</event>
<event>
 7    1  0.3260141E-006  0.5281206E+03  0.7546771E-02  0.9338997E-01
        -11   -1    0    0    0    0  0.00000000000E+00  0.00000000000E+00  0.50000000000E+03  0.50000000000E+03  0.00000000000E+00 0.  1.
         11   -1    0    0    0    0 -0.00000000000E+00 -0.00000000000E+00 -0.50000000000E+03  0.50000000000E+03  0.00000000000E+00 0. -1.
         23    2    1    2    0    0  0.60086451343E+01 -0.11299592653E+02  0.24905115500E+03  0.26582904935E+03  0.92058791325E+02 0.  0.
        -11    1    1    2    0    0  0.14490096555E+03 -0.13159023243E+03  0.17459837893E+03  0.26229158014E+03  0.00000000000E+00 0.  1.
         11    1    1    2    0    0 -0.15090961068E+03  0.14288982508E+03 -0.42364953393E+03  0.47187937051E+03  0.00000000000E+00 0. -1.
        -15    1    3    3    0    0  0.46123063063E+02 -0.18160334387E+02  0.16718797487E+03  0.17439068599E+03  0.17770000000E+01 0.  1.
         15    1    3    3    0    0 -0.40114417929E+02  0.68607417340E+01  0.81863180134E+02  0.91438363358E+02  0.17770000000E+01 0. -1.
</event>
<event>
 7    1  0.3260141E-006  0.5143061E+03  0.7546771E-02  0.9368356E-01
        -11   -1    0    0    0    0  0.00000000000E+00  0.00000000000E+00  0.50000000000E+03  0.50000000000E+03  0.00000000000E+00 0.  1.
         11   -1    0    0    0    0 -0.00000000000E+00 -0.00000000000E+00 -0.50000000000E+03  0.50000000000E+03  0.00000000000E+00 0.  1.
         23    2    1    2    0    0  0.39717463063E+02  0.12065582781E+02  0.33034308801E+03  0.34508346730E+03  0.90735816813E+02 0.  0.
        -11    1    1    2    0    0  0.57656596958E+02  0.82593409439E+02  0.13597923616E+03  0.16922265546E+03  0.00000000000E+00 0.  1.
         11    1    1    2    0    0 -0.97374060021E+02 -0.94658992220E+02 -0.46632232416E+03  0.48569387724E+03  0.00000000000E+00 0.  1.
        -15    1    3    3    0    0  0.51762900893E+02 -0.11724767764E+02  0.29993740600E+03  0.30460215583E+03  0.17770000000E+01 0.  1.
         15    1    3    3    0    0 -0.12045437830E+02  0.23790350545E+02  0.30405682008E+02  0.40481311478E+02  0.17770000000E+01 0. -1.
</event>
<event>
 7    1  0.3260141E-006  0.4956631E+03  0.7546771E-02  0.9409567E-01
        -11   -1    0    0    0    0  0.00000000000E+00  0.00000000000E+00  0.50000000000E+03  0.50000000000E+03  0.00000000000E+00 0.  1.
         11   -1    0    0    0    0 -0.00000000000E+00 -0.00000000000E+00 -0.50000000000E+03  0.50000000000E+03  0.00000000000E+00 0. -1.
         23    2    1    2    0    0 -0.19395690853E+03  0.21374871638E+02 -0.43735934741E+03  0.48788637498E+03  0.93132962080E+02 0.  0.
        -11    1    1    2    0    0  0.20062558703E+03 -0.29229579345E+02  0.45131707070E+03  0.49476468425E+03  0.00000000000E+00 0.  1.
         11    1    1    2    0    0 -0.66686785087E+01  0.78547077073E+01 -0.13957723290E+02  0.17348940765E+02  0.00000000000E+00 0. -1.
        -15    1    3    3    0    0 -0.49926337589E+02  0.50340974670E+01 -0.37820038117E+02  0.62860912613E+02  0.17770000000E+01 0.  1.
         15    1    3    3    0    0 -0.14403057094E+03  0.16340774171E+02 -0.39953930929E+03  0.42502546237E+03  0.17770000000E+01 0. -1.
</event>
<event>
 7    1  0.3260141E-006  0.3798437E+03  0.7546771E-02  0.9717906E-01
        -11   -1    0    0    0    0  0.00000000000E+00  0.00000000000E+00  0.50000000000E+03  0.50000000000E+03  0.00000000000E+00 0. -1.
         11   -1    0    0    0    0 -0.00000000000E+00 -0.00000000000E+00 -0.50000000000E+03  0.50000000000E+03  0.00000000000E+00 0.  1.
         23    2    1    2    0    0 -0.74280440513E+01 -0.13373402531E+03 -0.14233557673E+03  0.21557396567E+03  0.90954675026E+02 0.  0.
        -11    1    1    2    0    0 -0.11348135077E+03  0.43470851362E+02  0.43688918978E+03  0.45347535328E+03  0.00000000000E+00 0. -1.
         11    1    1    2    0    0  0.12090939482E+03  0.90263173944E+02 -0.29455361305E+03  0.33095068105E+03  0.00000000000E+00 0.  1.
        -15    1    3    3    0    0 -0.22644062294E+02 -0.14228320600E+03 -0.13061542064E+03  0.19447573140E+03  0.17770000000E+01 0.  1.
         15    1    3    3    0    0  0.15216018243E+02  0.85491806894E+01 -0.11720156096E+02  0.21098234275E+02  0.17770000000E+01 0. -1.
</event>
<event>
 7    1  0.3260141E-006  0.3644247E+03  0.7546771E-02  0.9767779E-01
        -11   -1    0    0    0    0  0.00000000000E+00  0.00000000000E+00  0.50000000000E+03  0.50000000000E+03  0.00000000000E+00 0.  1.
         11   -1    0    0    0    0 -0.00000000000E+00 -0.00000000000E+00 -0.50000000000E+03  0.50000000000E+03  0.00000000000E+00 0. -1.
         23    2    1    2    0    0  0.19436903786E+03 -0.16270305292E+03 -0.17113059665E+03  0.31880035245E+03  0.89979871646E+02 0.  0.
        -11    1    1    2    0    0 -0.26879069908E+03  0.12490852817E+02  0.34642419117E+03  0.43865040926E+03  0.00000000000E+00 0.  1.
         11    1    1    2    0    0  0.74421661217E+02  0.15021220010E+03 -0.17529359452E+03  0.24254923829E+03  0.00000000000E+00 0. -1.
        -15    1    3    3    0    0  0.28743264742E+02  0.43836902546E+01 -0.39905540768E+02  0.49406496751E+02  0.17770000000E+01 0.  1.
         15    1    3    3    0    0  0.16562577312E+03 -0.16708674317E+03 -0.13122505589E+03  0.26939385570E+03  0.17770000000E+01 0. -1.
</event>
<event>
 7    1  0.3260141E-006  0.4783502E+03  0.7546771E-02  0.9449600E-01
        -11   -1    0    0    0    0  0.00000000000E+00  0.00000000000E+00  0.50000000000E+03  0.50000000000E+03  0.00000000000E+00 0. -1.
         11   -1    0    0    0    0 -0.00000000000E+00 -0.00000000000E+00 -0.50000000000E+03  0.50000000000E+03  0.00000000000E+00 0.  1.
         23    2    1    2    0    0  0.12591091237E+03 -0.73894361223E+02  0.42317135051E+03  0.45701888212E+03  0.92077859667E+02 0.  0.
        -11    1    1    2    0    0  0.35872009110E+02 -0.14295161763E+02  0.33131108540E+02  0.50880477990E+02  0.00000000000E+00 0. -1.
         11    1    1    2    0    0 -0.16178292148E+03  0.88189522986E+02 -0.45630245905E+03  0.49210063989E+03  0.00000000000E+00 0.  1.
        -15    1    3    3    0    0  0.15819906417E+02 -0.50305017386E+02  0.79894547350E+02  0.95745290425E+02  0.17770000000E+01 0.  1.
         15    1    3    3    0    0  0.11009100595E+03 -0.23589343837E+02  0.34327680316E+03  0.36127359169E+03  0.17770000000E+01 0. -1.
</event>
<event>
 7    1  0.3260141E-006  0.4807359E+03  0.7546771E-02  0.9443977E-01
        -11   -1    0    0    0    0  0.00000000000E+00  0.00000000000E+00  0.50000000000E+03  0.50000000000E+03  0.00000000000E+00 0.  1.
         11   -1    0    0    0    0 -0.00000000000E+00 -0.00000000000E+00 -0.50000000000E+03  0.50000000000E+03  0.00000000000E+00 0. -1.
         23    2    1    2    0    0 -0.66149322397E+02 -0.49866389736E+02  0.44901223567E+03  0.46544729938E+03  0.90370410185E+02 0.  0.
        -11    1    1    2    0    0  0.14046400665E+02 -0.32087239281E+02  0.29801768813E+02  0.45989539253E+02  0.00000000000E+00 0.  1.
         11    1    1    2    0    0  0.52102921732E+02  0.81953629017E+02 -0.47881400448E+03  0.48856316137E+03  0.00000000000E+00 0. -1.
        -15    1    3    3    0    0  0.15745643135E+02 -0.17106161922E+02  0.34433820191E+02  0.41585956228E+02  0.17770000000E+01 0. -1.
         15    1    3    3    0    0 -0.81894965533E+02 -0.32760227814E+02  0.41457841548E+03  0.42386134315E+03  0.17770000000E+01 0.  1.
</event>
<event>
 7    1  0.3260141E-006  0.5310360E+03  0.7546771E-02  0.9332923E-01
        -11   -1    0    0    0    0  0.00000000000E+00  0.00000000000E+00  0.50000000000E+03  0.50000000000E+03  0.00000000000E+00 0.  1.
         11   -1    0    0    0    0 -0.00000000000E+00 -0.00000000000E+00 -0.50000000000E+03  0.50000000000E+03  0.00000000000E+00 0. -1.
         23    2    1    2    0    0 -0.84818956783E+01 -0.25260064145E+02 -0.25280391406E+03  0.27045975564E+03  0.92350674421E+02 0.  0.
        -11    1    1    2    0    0  0.28642078084E+02  0.23660781432E+03  0.40388561988E+03  0.46896398623E+03  0.00000000000E+00 0.  1.
         11    1    1    2    0    0 -0.20160182406E+02 -0.21134775018E+03 -0.15108170583E+03  0.26057625812E+03  0.00000000000E+00 0. -1.
        -15    1    3    3    0    0  0.35178294851E+02 -0.11539573944E+02 -0.48260743165E+02  0.60851715303E+02  0.17770000000E+01 0.  1.
         15    1    3    3    0    0 -0.43660190530E+02 -0.13720490201E+02 -0.20454317089E+03  0.20960804034E+03  0.17770000000E+01 0. -1.
</event>
<event>
 7    1  0.3260141E-006  0.4566679E+03  0.7546771E-02  0.9502356E-01
        -11   -1    0    0    0    0  0.00000000000E+00  0.00000000000E+00  0.50000000000E+03  0.50000000000E+03  0.00000000000E+00 0.  1.
         11   -1    0    0    0    0 -0.00000000000E+00 -0.00000000000E+00 -0.50000000000E+03  0.50000000000E+03  0.00000000000E+00 0. -1.
         23    2    1    2    0    0 -0.20738021129E+03  0.22095002744E+03 -0.30631567808E+03  0.44047385010E+03  0.91446439660E+02 0.  0.
        -11    1    1    2    0    0  0.22620933891E+03 -0.16442935332E+03  0.37551937290E+03  0.46821199970E+03  0.00000000000E+00 0.  1.
         11    1    1    2    0    0 -0.18829127615E+02 -0.56520674118E+02 -0.69203694822E+02  0.91314150199E+02  0.00000000000E+00 0. -1.
        -15    1    3    3    0    0 -0.59512721124E+02  0.38252380300E+02 -0.12491616313E+03  0.14356954453E+03  0.17770000000E+01 0.  1.
         15    1    3    3    0    0 -0.14786749017E+03  0.18269764714E+03 -0.18139951494E+03  0.29690430557E+03  0.17770000000E+01 0. -1.
</event>
<event>
 6    1  0.3260141E-006  0.4511543E+03  0.7546771E-02  0.9516271E-01
        -11   -1    0    0    0    0  0.00000000000E+00  0.00000000000E+00  0.50000000000E+03  0.50000000000E+03  0.00000000000E+00 0.  1.
         11   -1    0    0    0    0 -0.00000000000E+00 -0.00000000000E+00 -0.50000000000E+03  0.50000000000E+03  0.00000000000E+00 0. -1.
        -11    1    1    2    0    0  0.19996355316E+02  0.10846219918E+03  0.36723482447E+02  0.11624335267E+03  0.00000000000E+00 0.  1.
         11    1    1    2    0    0 -0.28433294157E+02  0.11530796755E+03 -0.40772193074E+03  0.42466640132E+03  0.00000000000E+00 0. -1.
        -15    1    1    2    0    0  0.57046683851E+02 -0.19747865119E+03  0.33523264131E+03  0.39323812549E+03  0.17770000000E+01 0.  1.
         15    1    1    2    0    0 -0.48609745011E+02 -0.26291515540E+02  0.35765806990E+02  0.65852120528E+02  0.17770000000E+01 0. -1.
</event>
<event>
 7    1  0.3260141E-006  0.3936848E+03  0.7546771E-02  0.9675246E-01
        -11   -1    0    0    0    0  0.00000000000E+00  0.00000000000E+00  0.50000000000E+03  0.50000000000E+03  0.00000000000E+00 0.  1.
         11   -1    0    0    0    0 -0.00000000000E+00 -0.00000000000E+00 -0.50000000000E+03  0.50000000000E+03  0.00000000000E+00 0. -1.
         23    2    1    2    0    0 -0.95713800037E+02 -0.61854535537E+02  0.35576867181E+03  0.38438383052E+03  0.90512243581E+02 0.  0.
        -11    1    1    2    0    0  0.13357192961E+03  0.13657545218E+03  0.53082338322E+02  0.19827266367E+03  0.00000000000E+00 0.  1.
         11    1    1    2    0    0 -0.37858129570E+02 -0.74720916640E+02 -0.40885101013E+03  0.41734350581E+03  0.00000000000E+00 0. -1.
        -15    1    3    3    0    0 -0.10442927319E+03 -0.38169769166E+02  0.33016713895E+03  0.34839044440E+03  0.17770000000E+01 0.  1.
         15    1    3    3    0    0  0.87154731555E+01 -0.23684766371E+02  0.25601532855E+02  0.35993386114E+02  0.17770000000E+01 0. -1.
</event>
<event>
 7    1  0.3260141E-006  0.3560542E+03  0.7546771E-02  0.9795975E-01
        -11   -1    0    0    0    0  0.00000000000E+00  0.00000000000E+00  0.50000000000E+03  0.50000000000E+03  0.00000000000E+00 0. -1.
         11   -1    0    0    0    0 -0.00000000000E+00 -0.00000000000E+00 -0.50000000000E+03  0.50000000000E+03  0.00000000000E+00 0.  1.
         23    2    1    2    0    0  0.11964564962E+03  0.12715932558E+03  0.22573249232E+03  0.29863659505E+03  0.88000467384E+02 0.  0.
        -11    1    1    2    0    0 -0.39265623851E+02 -0.13144789788E+03  0.21406946341E+03  0.25425592272E+03  0.00000000000E+00 0. -1.
         11    1    1    2    0    0 -0.80380025773E+02  0.42885722980E+01 -0.43980195573E+03  0.44710748222E+03  0.00000000000E+00 0.  1.
        -15    1    3    3    0    0  0.12360525724E+03  0.13700176783E+03  0.21641673309E+03  0.28440658237E+03  0.17770000000E+01 0. -1.
         15    1    3    3    0    0 -0.39596076208E+01 -0.98424422461E+01  0.93157592343E+01  0.14230012684E+02  0.17770000000E+01 0.  1.
</event>
<event>
 6    1  0.3260141E-006  0.4056801E+03  0.7546771E-02  0.9639765E-01
        -11   -1    0    0    0    0  0.00000000000E+00  0.00000000000E+00  0.50000000000E+03  0.50000000000E+03  0.00000000000E+00 0.  1.
         11   -1    0    0    0    0 -0.00000000000E+00 -0.00000000000E+00 -0.50000000000E+03  0.50000000000E+03  0.00000000000E+00 0. -1.
        -11    1    1    2    0    0 -0.17412195118E+03  0.55590612922E+02  0.10445917562E+03  0.21052432044E+03  0.00000000000E+00 0.  1.
         11    1    1    2    0    0  0.64021112316E+02 -0.11793934880E+03 -0.39483072762E+03  0.41701282509E+03  0.00000000000E+00 0. -1.
        -15    1    1    2    0    0  0.12334180305E+03  0.64913180010E+01  0.28979926403E+03  0.31502715557E+03  0.17770000000E+01 0.  1.
         15    1    1    2    0    0 -0.13240964187E+02  0.55857417877E+02  0.57228798002E+00  0.57435698891E+02  0.17770000000E+01 0. -1.
</event>
<event>
 7    1  0.3260141E-006  0.4842612E+03  0.7546771E-02  0.9435732E-01
        -11   -1    0    0    0    0  0.00000000000E+00  0.00000000000E+00  0.50000000000E+03  0.50000000000E+03  0.00000000000E+00 0. -1.
         11   -1    0    0    0    0 -0.00000000000E+00 -0.00000000000E+00 -0.50000000000E+03  0.50000000000E+03  0.00000000000E+00 0. -1.
         23    2    1    2    0    0  0.10956392467E+03  0.75886731998E+02 -0.43850459706E+03  0.46736969068E+03  0.91570172229E+02 0.  0.
        -11    1    1    2    0    0 -0.11655470816E+03 -0.63031473077E+02  0.47509235953E+03  0.49322481353E+03  0.00000000000E+00 0. -1.
         11    1    1    2    0    0  0.69907834912E+01 -0.12855258921E+02 -0.36587762477E+02  0.39405495795E+02  0.00000000000E+00 0. -1.
        -15    1    3    3    0    0  0.89512143339E+02  0.67473636680E+02 -0.42928810059E+03  0.44368518850E+03  0.17770000000E+01 0. -1.
         15    1    3    3    0    0  0.20051781333E+02  0.84130953178E+01 -0.92164964620E+01  0.23684502180E+02  0.17770000000E+01 0.  1.
</event>
<event>
 7    1  0.3260141E-006  0.5126251E+03  0.7546771E-02  0.9371995E-01
        -11   -1    0    0    0    0  0.00000000000E+00  0.00000000000E+00  0.50000000000E+03  0.50000000000E+03  0.00000000000E+00 0.  1.
         11   -1    0    0    0    0 -0.00000000000E+00 -0.00000000000E+00 -0.50000000000E+03  0.50000000000E+03  0.00000000000E+00 0. -1.
         23    2    1    2    0    0 -0.63944783544E+02 -0.86865853879E+02 -0.33067567156E+03  0.36001362630E+03  0.92891331405E+02 0.  0.
        -11    1    1    2    0    0  0.12466717785E+03  0.57697578041E+02  0.46761456964E+03  0.48737490855E+03  0.00000000000E+00 0.  1.
         11    1    1    2    0    0 -0.60722394310E+02  0.29168275838E+02 -0.13693889808E+03  0.15261146514E+03  0.00000000000E+00 0. -1.
        -15    1    3    3    0    0 -0.14592439312E+02 -0.33107167245E+02 -0.21043693270E+02  0.41892941691E+02  0.17770000000E+01 0. -1.
         15    1    3    3    0    0 -0.49352344232E+02 -0.53758686634E+02 -0.30963197829E+03  0.31812068461E+03  0.17770000000E+01 0.  1.
</event>
<event>
 7    1  0.3260141E-006  0.5245507E+03  0.7546771E-02  0.9346491E-01
        -11   -1    0    0    0    0  0.00000000000E+00  0.00000000000E+00  0.50000000000E+03  0.50000000000E+03  0.00000000000E+00 0. -1.
         11   -1    0    0    0    0 -0.00000000000E+00 -0.00000000000E+00 -0.50000000000E+03  0.50000000000E+03  0.00000000000E+00 0.  1.
         23    2    1    2    0    0  0.73895334515E+02 -0.78771728497E+02  0.34050986567E+03  0.36724250145E+03  0.85173825649E+02 0.  0.
        -11    1    1    2    0    0 -0.93210552027E+02 -0.87385920572E+01  0.12641719459E+03  0.15730822320E+03  0.00000000000E+00 0. -1.
         11    1    1    2    0    0  0.19315217513E+02  0.87510320554E+02 -0.46692706026E+03  0.47544927535E+03  0.00000000000E+00 0.  1.
        -15    1    3    3    0    0  0.28826725843E+02  0.11492463901E+02  0.13185383715E+03  0.13546825809E+03  0.17770000000E+01 0.  1.
         15    1    3    3    0    0  0.45068608672E+02 -0.90264192398E+02  0.20865602852E+03  0.23177424336E+03  0.17770000000E+01 0. -1.
</event>
<event>
 7    1  0.3260141E-006  0.3815551E+03  0.7546771E-02  0.9712526E-01
        -11   -1    0    0    0    0  0.00000000000E+00  0.00000000000E+00  0.50000000000E+03  0.50000000000E+03  0.00000000000E+00 0.  1.
         11   -1    0    0    0    0 -0.00000000000E+00 -0.00000000000E+00 -0.50000000000E+03  0.50000000000E+03  0.00000000000E+00 0. -1.
         23    2    1    2    0    0 -0.45869828816E+02  0.81507322890E+02  0.16823769275E+03  0.21298753451E+03  0.91171726511E+02 0.  0.
        -11    1    1    2    0    0  0.17575124929E+03 -0.26733657527E+03  0.18328758059E+03  0.36871626395E+03  0.00000000000E+00 0.  1.
         11    1    1    2    0    0 -0.12988142047E+03  0.18582925238E+03 -0.35152527334E+03  0.41829620154E+03  0.00000000000E+00 0. -1.
        -15    1    3    3    0    0 -0.73753159058E+02  0.56358070290E+02  0.11453751652E+03  0.14743731202E+03  0.17770000000E+01 0.  1.
         15    1    3    3    0    0  0.27883330242E+02  0.25149252600E+02  0.53700176227E+02  0.65550222483E+02  0.17770000000E+01 0. -1.
</event>
<event>
 7    1  0.3260141E-006  0.4159829E+03  0.7546771E-02  0.9610321E-01
        -11   -1    0    0    0    0  0.00000000000E+00  0.00000000000E+00  0.50000000000E+03  0.50000000000E+03  0.00000000000E+00 0.  1.
         11   -1    0    0    0    0 -0.00000000000E+00 -0.00000000000E+00 -0.50000000000E+03  0.50000000000E+03  0.00000000000E+00 0.  1.
         23    2    1    2    0    0 -0.64637631842E+02 -0.26894650435E+02  0.40191933898E+03  0.41775928709E+03  0.89901730988E+02 0.  0.
        -11    1    1    2    0    0 -0.11055454558E+03  0.11456709430E+03 -0.30188373125E+02  0.16204710585E+03  0.00000000000E+00 0.  1.
         11    1    1    2    0    0  0.17519217742E+03 -0.87672443862E+02 -0.37173096585E+03  0.42019360706E+03  0.00000000000E+00 0.  1.
        -15    1    3    3    0    0 -0.56375916224E+02 -0.57999815014E+02  0.26371214776E+03  0.27584321104E+03  0.17770000000E+01 0.  1.
         15    1    3    3    0    0 -0.82617156179E+01  0.31105164580E+02  0.13820719122E+03  0.14191607605E+03  0.17770000000E+01 0. -1.
</event>
<event>
 7    1  0.3260141E-006  0.5231085E+03  0.7546771E-02  0.9349537E-01
        -11   -1    0    0    0    0  0.00000000000E+00  0.00000000000E+00  0.50000000000E+03  0.50000000000E+03  0.00000000000E+00 0. -1.
         11   -1    0    0    0    0 -0.00000000000E+00 -0.00000000000E+00 -0.50000000000E+03  0.50000000000E+03  0.00000000000E+00 0.  1.
         23    2    1    2    0    0  0.51786300913E+02 -0.15479374608E+03  0.43869895104E+03  0.47689150543E+03  0.91245895918E+02 0.  0.
        -11    1    1    2    0    0 -0.12058559092E+03  0.12487878173E+02 -0.14022250650E+03  0.18536230245E+03  0.00000000000E+00 0. -1.
         11    1    1    2    0    0  0.68799290006E+02  0.14230586790E+03 -0.29847644454E+03  0.33774619212E+03  0.00000000000E+00 0.  1.
        -15    1    3    3    0    0 -0.94663804829E+01 -0.40728222534E+02  0.40775492459E+02  0.58431147383E+02  0.17770000000E+01 0.  1.
         15    1    3    3    0    0  0.61252681395E+02 -0.11406552354E+03  0.39792345858E+03  0.41846035805E+03  0.17770000000E+01 0. -1.
</event>
<event>
 7    1  0.3260141E-006  0.3882917E+03  0.7546771E-02  0.9691642E-01
        -11   -1    0    0    0    0  0.00000000000E+00  0.00000000000E+00  0.50000000000E+03  0.50000000000E+03  0.00000000000E+00 0.  1.
         11   -1    0    0    0    0 -0.00000000000E+00 -0.00000000000E+00 -0.50000000000E+03  0.50000000000E+03  0.00000000000E+00 0. -1.
         23    2    1    2    0    0  0.17959082978E+03  0.17108425924E+03  0.34675976191E+03  0.44136935751E+03  0.11420108302E+03 0.  0.
        -11    1    1    2    0    0 -0.19791447483E+03 -0.24318617858E+03 -0.14861675477E+03  0.34698212721E+03  0.00000000000E+00 0.  1.
         11    1    1    2    0    0  0.18323645056E+02  0.72101919343E+02 -0.19814300715E+03  0.21164851529E+03  0.00000000000E+00 0. -1.
        -15    1    3    3    0    0  0.12904466369E+03  0.45962566797E+02  0.19455157556E+03  0.23794654033E+03  0.17770000000E+01 0.  1.
         15    1    3    3    0    0  0.50546166090E+02  0.12512169244E+03  0.15220818635E+03  0.20342281717E+03  0.17770000000E+01 0. -1.
</event>
<event>
 7    1  0.3260141E-006  0.5118695E+03  0.7546771E-02  0.9373636E-01
        -11   -1    0    0    0    0  0.00000000000E+00  0.00000000000E+00  0.50000000000E+03  0.50000000000E+03  0.00000000000E+00 0.  1.
         11   -1    0    0    0    0 -0.00000000000E+00 -0.00000000000E+00 -0.50000000000E+03  0.50000000000E+03  0.00000000000E+00 0. -1.
         23    2    1    2    0    0 -0.21349062307E+03 -0.13443894227E+03  0.40613682137E+03  0.48813054172E+03  0.98347510155E+02 0.  0.
        -11    1    1    2    0    0  0.38229430261E+02  0.76459245878E+02 -0.26116462034E+02  0.89384423740E+02  0.00000000000E+00 0.  1.
         11    1    1    2    0    0  0.17526119281E+03  0.57979696390E+02 -0.38002035933E+03  0.42248503454E+03  0.00000000000E+00 0. -1.
        -15    1    3    3    0    0 -0.14326738619E+02  0.37886679416E+01 -0.24348846291E+00  0.14927372839E+02  0.17770000000E+01 0. -1.
         15    1    3    3    0    0 -0.19916388446E+03 -0.13822761021E+03  0.40638030983E+03  0.47320316888E+03  0.17770000000E+01 0.  1.
</event>
<event>
 7    1  0.3260141E-006  0.4192644E+03  0.7546771E-02  0.9601133E-01
        -11   -1    0    0    0    0  0.00000000000E+00  0.00000000000E+00  0.50000000000E+03  0.50000000000E+03  0.00000000000E+00 0.  1.
         11   -1    0    0    0    0 -0.00000000000E+00 -0.00000000000E+00 -0.50000000000E+03  0.50000000000E+03  0.00000000000E+00 0.  1.
         23    2    1    2    0    0 -0.13249751331E+03  0.45703420090E+02  0.34076687501E+03  0.38068983624E+03  0.95698979476E+02 0.  0.
        -11    1    1    2    0    0  0.20918703804E+02 -0.11910684384E+03  0.10114750926E+03  0.15765421354E+03  0.00000000000E+00 0.  1.
         11    1    1    2    0    0  0.11157880950E+03  0.73403423746E+02 -0.44191438427E+03  0.46165595022E+03  0.00000000000E+00 0.  1.
        -15    1    3    3    0    0 -0.98462681697E+02  0.41506334871E+02  0.32643013254E+03  0.34347847775E+03  0.17770000000E+01 0.  1.
         15    1    3    3    0    0 -0.34034831608E+02  0.41970852188E+01  0.14336742475E+02  0.37211358490E+02  0.17770000000E+01 0. -1.
</event>
<event>
 7    1  0.3260141E-006  0.5117746E+03  0.7546771E-02  0.9373842E-01
        -11   -1    0    0    0    0  0.00000000000E+00  0.00000000000E+00  0.50000000000E+03  0.50000000000E+03  0.00000000000E+00 0.  1.
         11   -1    0    0    0    0 -0.00000000000E+00 -0.00000000000E+00 -0.50000000000E+03  0.50000000000E+03  0.00000000000E+00 0.  1.
         23    2    1    2    0    0  0.22375425726E+02  0.20792947928E+02  0.18515625912E+03  0.20864333228E+03  0.91193165605E+02 0.  0.
        -11    1    1    2    0    0 -0.21579088965E+02  0.60348163118E+02  0.29627860084E+03  0.30313127055E+03  0.00000000000E+00 0.  1.
         11    1    1    2    0    0 -0.79633676081E+00 -0.81141111046E+02 -0.48143485996E+03  0.48822539717E+03  0.00000000000E+00 0.  1.
        -15    1    3    3    0    0  0.43411301124E+02  0.11632498202E+00  0.16993963248E+03  0.17540578957E+03  0.17770000000E+01 0.  1.
         15    1    3    3    0    0 -0.21035875399E+02  0.20676622946E+02  0.15216626640E+02  0.33237542712E+02  0.17770000000E+01 0. -1.
</event>
<event>
 7    1  0.3260141E-006  0.5181395E+03  0.7546771E-02  0.9360112E-01
        -11   -1    0    0    0    0  0.00000000000E+00  0.00000000000E+00  0.50000000000E+03  0.50000000000E+03  0.00000000000E+00 0. -1.
         11   -1    0    0    0    0 -0.00000000000E+00 -0.00000000000E+00 -0.50000000000E+03  0.50000000000E+03  0.00000000000E+00 0. -1.
         23    2    1    2    0    0  0.56451966308E+00  0.51144792301E+01  0.47289533240E+03  0.48186050736E+03  0.92374653296E+02 0.  0.
        -11    1    1    2    0    0 -0.96280296162E+02 -0.30423023232E+02 -0.15334417643E+03  0.18360253869E+03  0.00000000000E+00 0. -1.
         11    1    1    2    0    0  0.95715776499E+02  0.25308544002E+02 -0.31955115597E+03  0.33453695394E+03  0.00000000000E+00 0. -1.
        -15    1    3    3    0    0 -0.24579593375E+02  0.41249889921E+02  0.22400609841E+03  0.22910172344E+03  0.17770000000E+01 0. -1.
         15    1    3    3    0    0  0.25144113038E+02 -0.36135410691E+02  0.24888923399E+03  0.25275878392E+03  0.17770000000E+01 0.  1.
</event>
<event>
 7    1  0.3260141E-006  0.3058552E+03  0.7546771E-02  0.9984543E-01
        -11   -1    0    0    0    0  0.00000000000E+00  0.00000000000E+00  0.50000000000E+03  0.50000000000E+03  0.00000000000E+00 0.  1.
         11   -1    0    0    0    0 -0.00000000000E+00 -0.00000000000E+00 -0.50000000000E+03  0.50000000000E+03  0.00000000000E+00 0. -1.
         23    2    1    2    0    0 -0.22171691476E+02 -0.33563622657E+03  0.39965284793E+02  0.35088203422E+03  0.91529871986E+02 0.  0.
        -11    1    1    2    0    0  0.11639424193E+02  0.19445199509E+03  0.25561460073E+03  0.32138120464E+03  0.00000000000E+00 0.  1.
         11    1    1    2    0    0  0.10532267282E+02  0.14118423148E+03 -0.29557988553E+03  0.32773676114E+03  0.00000000000E+00 0. -1.
        -15    1    3    3    0    0 -0.48395333810E+02 -0.30020650828E+03  0.40440634657E+02  0.30676482622E+03  0.17770000000E+01 0. -1.
         15    1    3    3    0    0  0.26223642335E+02 -0.35429718288E+02 -0.47534986332E+00  0.44117208001E+02  0.17770000000E+01 0.  1.
</event>
<event>
 7    1  0.3260141E-006  0.5149652E+03  0.7546771E-02  0.9366933E-01
        -11   -1    0    0    0    0  0.00000000000E+00  0.00000000000E+00  0.50000000000E+03  0.50000000000E+03  0.00000000000E+00 0. -1.
         11   -1    0    0    0    0 -0.00000000000E+00 -0.00000000000E+00 -0.50000000000E+03  0.50000000000E+03  0.00000000000E+00 0. -1.
         23    2    1    2    0    0  0.91352095820E+02 -0.21456702737E+02 -0.32712230573E+03  0.35184311155E+03  0.89325118186E+02 0.  0.
        -11    1    1    2    0    0 -0.71559603038E+02 -0.36418222603E+02  0.47834260893E+03  0.48503475674E+03  0.00000000000E+00 0. -1.
         11    1    1    2    0    0 -0.19792492782E+02  0.57874925340E+02 -0.15122030320E+03  0.16312213171E+03  0.00000000000E+00 0. -1.
        -15    1    3    3    0    0  0.10885751357E+03 -0.16538478114E+02 -0.26188253383E+03  0.28409346838E+03  0.17770000000E+01 0.  1.
         15    1    3    3    0    0 -0.17505417754E+02 -0.49182246233E+01 -0.65239771899E+02  0.67749643177E+02  0.17770000000E+01 0. -1.
</event>
<event>
 7    1  0.3260141E-006  0.3817485E+03  0.7546771E-02  0.9711921E-01
        -11   -1    0    0    0    0  0.00000000000E+00  0.00000000000E+00  0.50000000000E+03  0.50000000000E+03  0.00000000000E+00 0. -1.
         11   -1    0    0    0    0 -0.00000000000E+00 -0.00000000000E+00 -0.50000000000E+03  0.50000000000E+03  0.00000000000E+00 0.  1.
         23    2    1    2    0    0  0.15224541404E+03 -0.35667881430E+03  0.12828038785E+03  0.41912881508E+03  0.93886436994E+02 0.  0.
        -11    1    1    2    0    0 -0.21074556779E+03  0.28784588975E+03  0.69484702738E+02  0.36345161233E+03  0.00000000000E+00 0. -1.
         11    1    1    2    0    0  0.58500153753E+02  0.68832924554E+02 -0.19776509059E+03  0.21741957260E+03  0.00000000000E+00 0.  1.
        -15    1    3    3    0    0  0.11762665006E+03 -0.16164754478E+03  0.79294984781E+02  0.21507396374E+03  0.17770000000E+01 0. -1.
         15    1    3    3    0    0  0.34618763977E+02 -0.19503126952E+03  0.48985403073E+02  0.20405485134E+03  0.17770000000E+01 0.  1.
</event>
<event>
 7    1  0.3260141E-006  0.4386213E+03  0.7546771E-02  0.9548703E-01
        -11   -1    0    0    0    0  0.00000000000E+00  0.00000000000E+00  0.50000000000E+03  0.50000000000E+03  0.00000000000E+00 0. -1.
         11   -1    0    0    0    0 -0.00000000000E+00 -0.00000000000E+00 -0.50000000000E+03  0.50000000000E+03  0.00000000000E+00 0.  1.
         23    2    1    2    0    0 -0.51413667300E+02  0.52790977934E+02  0.86208873568E+01  0.11962558446E+03  0.93838735192E+02 0.  0.
        -11    1    1    2    0    0  0.18099421466E+03 -0.34352685546E+02  0.40586235038E+03  0.44571656936E+03  0.00000000000E+00 0. -1.
         11    1    1    2    0    0 -0.12958054736E+03 -0.18438292389E+02 -0.41448323774E+03  0.43465784618E+03  0.00000000000E+00 0.  1.
        -15    1    3    3    0    0 -0.49239719596E+02  0.78330603923E+02  0.13361997961E+02  0.93498311297E+02  0.17770000000E+01 0. -1.
         15    1    3    3    0    0 -0.21739477045E+01 -0.25539625989E+02 -0.47411106043E+01  0.26127273165E+02  0.17770000000E+01 0.  1.
</event>
<event>
 7    1  0.3260141E-006  0.3242092E+03  0.7546771E-02  0.9911363E-01
        -11   -1    0    0    0    0  0.00000000000E+00  0.00000000000E+00  0.50000000000E+03  0.50000000000E+03  0.00000000000E+00 0.  1.
         11   -1    0    0    0    0 -0.00000000000E+00 -0.00000000000E+00 -0.50000000000E+03  0.50000000000E+03  0.00000000000E+00 0. -1.
         23    2    1    2    0    0 -0.16539824276E+03 -0.22394758857E+03  0.88677440679E+02  0.30635225362E+03  0.92081016947E+02 0.  0.
        -11    1    1    2    0    0  0.21596057091E+03  0.26162118637E+03  0.20292807023E+03  0.39530294084E+03  0.00000000000E+00 0.  1.
         11    1    1    2    0    0 -0.50562328153E+02 -0.37673597801E+02 -0.29160551091E+03  0.29834480554E+03  0.00000000000E+00 0. -1.
        -15    1    3    3    0    0 -0.10088802640E+03 -0.12639224483E+03  0.36971911889E+01  0.16177212484E+03  0.17770000000E+01 0. -1.
         15    1    3    3    0    0 -0.64510216364E+02 -0.97555343734E+02  0.84980249490E+02  0.14458012878E+03  0.17770000000E+01 0.  1.
</event>
<event>
 7    1  0.3260141E-006  0.5263133E+03  0.7546771E-02  0.9342783E-01
        -11   -1    0    0    0    0  0.00000000000E+00  0.00000000000E+00  0.50000000000E+03  0.50000000000E+03  0.00000000000E+00 0.  1.
         11   -1    0    0    0    0 -0.00000000000E+00 -0.00000000000E+00 -0.50000000000E+03  0.50000000000E+03  0.00000000000E+00 0.  1.
         23    2    1    2    0    0 -0.63104517892E+02  0.52471005320E+02 -0.13504234331E+03  0.18187307907E+03  0.90033303981E+02 0.  0.
        -11    1    1    2    0    0 -0.29578105944E+02 -0.83566927526E+02  0.46531799776E+03  0.47368674751E+03  0.00000000000E+00 0.  1.
         11    1    1    2    0    0  0.92682623836E+02  0.31095922206E+02 -0.33027565446E+03  0.34444017342E+03  0.00000000000E+00 0.  1.
        -15    1    3    3    0    0 -0.45548460682E+02  0.53779288704E+02 -0.32172523834E+02  0.77492600826E+02  0.17770000000E+01 0.  1.
         15    1    3    3    0    0 -0.17556057210E+02 -0.13082833845E+01 -0.10286981947E+03  0.10438047824E+03  0.17770000000E+01 0. -1.
</event>
<event>
 7    1  0.3260141E-006  0.3535668E+03  0.7546771E-02  0.9804513E-01
        -11   -1    0    0    0    0  0.00000000000E+00  0.00000000000E+00  0.50000000000E+03  0.50000000000E+03  0.00000000000E+00 0. -1.
         11   -1    0    0    0    0 -0.00000000000E+00 -0.00000000000E+00 -0.50000000000E+03  0.50000000000E+03  0.00000000000E+00 0. -1.
         23    2    1    2    0    0  0.20453481907E+03 -0.98297801202E+02 -0.68389257095E+02  0.25420370990E+03  0.91899323749E+02 0.  0.
        -11    1    1    2    0    0 -0.18911975288E+03  0.26771221085E+02  0.38021802870E+03  0.42549821217E+03  0.00000000000E+00 0. -1.
         11    1    1    2    0    0 -0.15415066195E+02  0.71526580117E+02 -0.31182877160E+03  0.32029807794E+03  0.00000000000E+00 0. -1.
        -15    1    3    3    0    0  0.18929057772E+03 -0.74062780986E+02 -0.28781524596E+02  0.20529917737E+03  0.17770000000E+01 0. -1.
         15    1    3    3    0    0  0.15244241354E+02 -0.24235020217E+02 -0.39607732499E+02  0.48904532531E+02  0.17770000000E+01 0.  1.
</event>
<event>
 7    1  0.3260141E-006  0.5100125E+03  0.7546771E-02  0.9377681E-01
        -11   -1    0    0    0    0  0.00000000000E+00  0.00000000000E+00  0.50000000000E+03  0.50000000000E+03  0.00000000000E+00 0. -1.
         11   -1    0    0    0    0 -0.00000000000E+00 -0.00000000000E+00 -0.50000000000E+03  0.50000000000E+03  0.00000000000E+00 0.  1.
         23    2    1    2    0    0 -0.61262775047E+01  0.40092265856E+02  0.31859721216E+03  0.33665196662E+03  0.10092295069E+03 0.  0.
        -11    1    1    2    0    0  0.44215762881E+02  0.31678150102E+02  0.16460661726E+03  0.17336054144E+03  0.00000000000E+00 0. -1.
         11    1    1    2    0    0 -0.38089485377E+02 -0.71770415957E+02 -0.48320382942E+03  0.48998749195E+03  0.00000000000E+00 0.  1.
        -15    1    3    3    0    0  0.30810960329E+01  0.72363017000E+02  0.24965917416E+03  0.25995915131E+03  0.17770000000E+01 0. -1.
         15    1    3    3    0    0 -0.92073735376E+01 -0.32270751145E+02  0.68938038001E+02  0.76692815304E+02  0.17770000000E+01 0.  1.
</event>
<event>
 7    1  0.3260141E-006  0.3786054E+03  0.7546771E-02  0.9721817E-01
        -11   -1    0    0    0    0  0.00000000000E+00  0.00000000000E+00  0.50000000000E+03  0.50000000000E+03  0.00000000000E+00 0. -1.
         11   -1    0    0    0    0 -0.00000000000E+00 -0.00000000000E+00 -0.50000000000E+03  0.50000000000E+03  0.00000000000E+00 0. -1.
         23    2    1    2    0    0  0.69336891808E+02 -0.20256722997E+02  0.18505183035E+03  0.21716528592E+03  0.87741906195E+02 0.  0.
        -11    1    1    2    0    0 -0.14497297360E+03  0.23935827048E+03  0.19260830770E+03  0.33971680105E+03  0.00000000000E+00 0. -1.
         11    1    1    2    0    0  0.75636081794E+02 -0.21910154748E+03 -0.37766013805E+03  0.44311791303E+03  0.00000000000E+00 0. -1.
        -15    1    3    3    0    0 -0.46689100578E+00 -0.38509385407E+02  0.42478237250E+02  0.57365051386E+02  0.17770000000E+01 0.  1.
         15    1    3    3    0    0  0.69803782813E+02  0.18252662410E+02  0.14257359310E+03  0.15980023454E+03  0.17770000000E+01 0. -1.
</event>
<event>
 6    1  0.3260141E-006  0.4220982E+03  0.7546771E-02  0.9593271E-01
        -11   -1    0    0    0    0  0.00000000000E+00  0.00000000000E+00  0.50000000000E+03  0.50000000000E+03  0.00000000000E+00 0.  1.
         11   -1    0    0    0    0 -0.00000000000E+00 -0.00000000000E+00 -0.50000000000E+03  0.50000000000E+03  0.00000000000E+00 0.  1.
        -11    1    1    2    0    0 -0.16548801403E+03 -0.10068028068E+02  0.23901602092E+02  0.16750801342E+03  0.00000000000E+00 0.  1.
         11    1    1    2    0    0 -0.90203562313E+01  0.14756212575E+03 -0.36721440805E+03  0.39585650084E+03  0.00000000000E+00 0.  1.
        -15    1    1    2    0    0  0.11269142763E+03 -0.22663003556E+01  0.20293881447E+03  0.23214610512E+03  0.17770000000E+01 0. -1.
         15    1    1    2    0    0  0.61816942637E+02 -0.13522779733E+03  0.14037399149E+03  0.20448938061E+03  0.17770000000E+01 0.  1.
</event>
<event>
 7    1  0.3260141E-006  0.5161706E+03  0.7546771E-02  0.9364337E-01
        -11   -1    0    0    0    0  0.00000000000E+00  0.00000000000E+00  0.50000000000E+03  0.50000000000E+03  0.00000000000E+00 0.  1.
         11   -1    0    0    0    0 -0.00000000000E+00 -0.00000000000E+00 -0.50000000000E+03  0.50000000000E+03  0.00000000000E+00 0. -1.
         23    2    1    2    0    0 -0.88721959502E+02 -0.11597623100E+02 -0.20362824646E+03  0.24170626622E+03  0.94611655805E+02 0.  0.
        -11    1    1    2    0    0  0.27215065155E+03 -0.56895862930E+02  0.39596441500E+03  0.48382944754E+03  0.00000000000E+00 0.  1.
         11    1    1    2    0    0 -0.18342869205E+03  0.68493486030E+02 -0.19233616854E+03  0.27446428624E+03  0.00000000000E+00 0. -1.
        -15    1    3    3    0    0 -0.24879580281E+02  0.33941459628E+02 -0.31658259035E+02  0.52691738354E+02  0.17770000000E+01 0.  1.
         15    1    3    3    0    0 -0.63842379221E+02 -0.45539082728E+02 -0.17196998743E+03  0.18901452787E+03  0.17770000000E+01 0. -1.
</event>
<event>
 7    1  0.3260141E-006  0.4694272E+03  0.7546771E-02  0.9470943E-01
        -11   -1    0    0    0    0  0.00000000000E+00  0.00000000000E+00  0.50000000000E+03  0.50000000000E+03  0.00000000000E+00 0.  1.
         11   -1    0    0    0    0 -0.00000000000E+00 -0.00000000000E+00 -0.50000000000E+03  0.50000000000E+03  0.00000000000E+00 0. -1.
         23    2    1    2    0    0 -0.86133128147E+02 -0.36581087627E+02 -0.45768055284E+03  0.47591144071E+03  0.90901700791E+02 0.  0.
        -11    1    1    2    0    0  0.13900307226E+03  0.67851795235E+02  0.42950608441E+03  0.45650979919E+03  0.00000000000E+00 0.  1.
         11    1    1    2    0    0 -0.52869944117E+02 -0.31270707608E+02  0.28174468438E+02  0.67578760102E+02  0.00000000000E+00 0. -1.
        -15    1    3    3    0    0 -0.63898653087E+02  0.18900783244E+02 -0.18208169806E+03  0.19389992257E+03  0.17770000000E+01 0.  1.
         15    1    3    3    0    0 -0.22234475061E+02 -0.55481870871E+02 -0.27559885478E+03  0.28201151814E+03  0.17770000000E+01 0. -1.
</event>
<event>
 7    1  0.3260141E-006  0.5167604E+03  0.7546771E-02  0.9363069E-01
        -11   -1    0    0    0    0  0.00000000000E+00  0.00000000000E+00  0.50000000000E+03  0.50000000000E+03  0.00000000000E+00 0.  1.
         11   -1    0    0    0    0 -0.00000000000E+00 -0.00000000000E+00 -0.50000000000E+03  0.50000000000E+03  0.00000000000E+00 0.  1.
         23    2    1    2    0    0 -0.12040840466E+03  0.18619282215E+02 -0.19459429890E+03  0.24671151388E+03  0.90303755918E+02 0.  0.
        -11    1    1    2    0    0  0.23266696550E+03 -0.17023355142E+03  0.38782355116E+03  0.48323957381E+03  0.00000000000E+00 0.  1.
         11    1    1    2    0    0 -0.11225856083E+03  0.15161426921E+03 -0.19322925226E+03  0.27004891231E+03  0.00000000000E+00 0.  1.
        -15    1    3    3    0    0 -0.84183867733E+02  0.30574792637E+01 -0.18889668329E+03  0.20683661777E+03  0.17770000000E+01 0.  1.
         15    1    3    3    0    0 -0.36224536931E+02  0.15561802952E+02 -0.56976156138E+01  0.39874896109E+02  0.17770000000E+01 0. -1.
</event>
<event>
 7    1  0.3260141E-006  0.4705146E+03  0.7546771E-02  0.9468315E-01
        -11   -1    0    0    0    0  0.00000000000E+00  0.00000000000E+00  0.50000000000E+03  0.50000000000E+03  0.00000000000E+00 0.  1.
         11   -1    0    0    0    0 -0.00000000000E+00 -0.00000000000E+00 -0.50000000000E+03  0.50000000000E+03  0.00000000000E+00 0.  1.
         23    2    1    2    0    0 -0.36288594255E+02 -0.28676912547E+01  0.43849285762E+03  0.45740481892E+03  0.12497238279E+03 0.  0.
        -11    1    1    2    0    0  0.47175253749E-01 -0.68871452695E+02  0.24180210345E+02  0.72992888654E+02  0.00000000000E+00 0.  1.
         11    1    1    2    0    0  0.36241419001E+02  0.71739143950E+02 -0.46267306797E+03  0.46960229242E+03  0.00000000000E+00 0.  1.
        -15    1    3    3    0    0 -0.56262322437E+02 -0.44107473579E+02  0.35515944105E+03  0.36228759908E+03  0.17770000000E+01 0.  1.
         15    1    3    3    0    0  0.19973728182E+02  0.41239782324E+02  0.83333416569E+02  0.95117219838E+02  0.17770000000E+01 0. -1.
</event>
<event>
 7    1  0.3260141E-006  0.5280129E+03  0.7546771E-02  0.9339222E-01
        -11   -1    0    0    0    0  0.00000000000E+00  0.00000000000E+00  0.50000000000E+03  0.50000000000E+03  0.00000000000E+00 0.  1.
         11   -1    0    0    0    0 -0.00000000000E+00 -0.00000000000E+00 -0.50000000000E+03  0.50000000000E+03  0.00000000000E+00 0.  1.
         23    2    1    2    0    0 -0.99855895123E+02  0.70484218810E+01  0.33734577567E+03  0.36440415513E+03  0.94696018247E+02 0.  0.
        -11    1    1    2    0    0  0.50382695129E+02 -0.94267969628E+02  0.12386670989E+03  0.16360876469E+03  0.00000000000E+00 0.  1.
         11    1    1    2    0    0  0.49473199994E+02  0.87219547747E+02 -0.46121248555E+03  0.47198708018E+03  0.00000000000E+00 0.  1.
        -15    1    3    3    0    0 -0.27961980962E+02  0.26618107356E+02  0.23294762429E+03  0.23613163577E+03  0.17770000000E+01 0.  1.
         15    1    3    3    0    0 -0.71893914162E+02 -0.19569685475E+02  0.10439815138E+03  0.12827251936E+03  0.17770000000E+01 0. -1.
</event>
<event>
 7    1  0.3260141E-006  0.5087719E+03  0.7546771E-02  0.9380393E-01
        -11   -1    0    0    0    0  0.00000000000E+00  0.00000000000E+00  0.50000000000E+03  0.50000000000E+03  0.00000000000E+00 0. -1.
         11   -1    0    0    0    0 -0.00000000000E+00 -0.00000000000E+00 -0.50000000000E+03  0.50000000000E+03  0.00000000000E+00 0. -1.
         23    2    1    2    0    0 -0.79486722619E+02  0.16414901714E+02  0.24064015453E+03  0.27122228292E+03  0.95216882492E+02 0.  0.
        -11    1    1    2    0    0 -0.82964470617E+02  0.28212207544E+02  0.22079576935E+03  0.23754958178E+03  0.00000000000E+00 0. -1.
         11    1    1    2    0    0  0.16245119324E+03 -0.44627109258E+02 -0.46143592388E+03  0.49122813530E+03  0.00000000000E+00 0. -1.
        -15    1    3    3    0    0 -0.35467310423E+02  0.21154906834E+02  0.19531506151E+02  0.45717585822E+02  0.17770000000E+01 0.  1.
         15    1    3    3    0    0 -0.44019412196E+02 -0.47400051207E+01  0.22110864838E+03  0.22550469710E+03  0.17770000000E+01 0. -1.
</event>
<event>
 7    1  0.3260141E-006  0.5272129E+03  0.7546771E-02  0.9340896E-01
        -11   -1    0    0    0    0  0.00000000000E+00  0.00000000000E+00  0.50000000000E+03  0.50000000000E+03  0.00000000000E+00 0. -1.
         11   -1    0    0    0    0 -0.00000000000E+00 -0.00000000000E+00 -0.50000000000E+03  0.50000000000E+03  0.00000000000E+00 0. -1.
         23    2    1    2    0    0  0.48063511420E+02 -0.12233271138E+03  0.27840275304E+03  0.32124538813E+03  0.91733925544E+02 0.  0.
        -11    1    1    2    0    0  0.95186432045E+02 -0.17132882985E+03  0.63313478022E+02  0.20596752483E+03  0.00000000000E+00 0. -1.
         11    1    1    2    0    0 -0.14324994347E+03  0.29366154123E+03 -0.34171623106E+03  0.47278708704E+03  0.00000000000E+00 0. -1.
        -15    1    3    3    0    0  0.75695563537E+02 -0.93116545322E+02  0.21035358623E+03  0.24218236584E+03  0.17770000000E+01 0.  1.
         15    1    3    3    0    0 -0.27632052117E+02 -0.29216166056E+02  0.68049166803E+02  0.79063022298E+02  0.17770000000E+01 0. -1.
</event>
<event>
 7    1  0.3260141E-006  0.3749309E+03  0.7546771E-02  0.9733517E-01
        -11   -1    0    0    0    0  0.00000000000E+00  0.00000000000E+00  0.50000000000E+03  0.50000000000E+03  0.00000000000E+00 0.  1.
         11   -1    0    0    0    0 -0.00000000000E+00 -0.00000000000E+00 -0.50000000000E+03  0.50000000000E+03  0.00000000000E+00 0.  1.
         23    2    1    2    0    0  0.13122669733E+03 -0.27683452120E+03  0.21749241102E+03  0.38869550198E+03  0.99616495552E+02 0.  0.
        -11    1    1    2    0    0 -0.28366838122E+03  0.25184529684E+03 -0.48620994836E+02  0.38243666820E+03  0.00000000000E+00 0.  1.
         11    1    1    2    0    0  0.15244168389E+03  0.24989224363E+02 -0.16887141619E+03  0.22886782982E+03  0.00000000000E+00 0.  1.
        -15    1    3    3    0    0  0.13361517112E+03 -0.18288198640E+03  0.13532751579E+03  0.26384754909E+03  0.17770000000E+01 0. -1.
         15    1    3    3    0    0 -0.23884737903E+01 -0.93952534802E+02  0.82164895231E+02  0.12484795289E+03  0.17770000000E+01 0.  1.
</event>
<event>
 7    1  0.3260141E-006  0.3494641E+03  0.7546771E-02  0.9818763E-01
        -11   -1    0    0    0    0  0.00000000000E+00  0.00000000000E+00  0.50000000000E+03  0.50000000000E+03  0.00000000000E+00 0.  1.
         11   -1    0    0    0    0 -0.00000000000E+00 -0.00000000000E+00 -0.50000000000E+03  0.50000000000E+03  0.00000000000E+00 0.  1.
         23    2    1    2    0    0  0.85467302085E+01 -0.12888348792E+03  0.25333612096E+03  0.29898133494E+03  0.92339852719E+02 0.  0.
        -11    1    1    2    0    0  0.19833083027E+03  0.11571457168E+03  0.13098765550E+03  0.26435344944E+03  0.00000000000E+00 0.  1.
         11    1    1    2    0    0 -0.20687756048E+03  0.13168916237E+02 -0.38432377646E+03  0.43666521563E+03  0.00000000000E+00 0.  1.
        -15    1    3    3    0    0 -0.23742007841E+02 -0.10835919123E+03  0.13577279739E+03  0.17533626978E+03  0.17770000000E+01 0.  1.
         15    1    3    3    0    0  0.32288738050E+02 -0.20524296695E+02  0.11756332357E+03  0.12364506516E+03  0.17770000000E+01 0. -1.
</event>
<event>
 7    1  0.3260141E-006  0.5130675E+03  0.7546771E-02  0.9371036E-01
        -11   -1    0    0    0    0  0.00000000000E+00  0.00000000000E+00  0.50000000000E+03  0.50000000000E+03  0.00000000000E+00 0.  1.
         11   -1    0    0    0    0 -0.00000000000E+00 -0.00000000000E+00 -0.50000000000E+03  0.50000000000E+03  0.00000000000E+00 0. -1.
         23    2    1    2    0    0  0.58158578255E+02  0.35828398085E+02 -0.19580847905E+03  0.22796593107E+03  0.94664729043E+02 0.  0.
        -11    1    1    2    0    0 -0.14755850188E+03  0.84256909159E+00  0.46403560933E+03  0.48693250880E+03  0.00000000000E+00 0.  1.
         11    1    1    2    0    0  0.89399923624E+02 -0.36670967177E+02 -0.26822713028E+03  0.28510156014E+03  0.00000000000E+00 0. -1.
        -15    1    3    3    0    0  0.35057006637E+02 -0.71969764544E+00 -0.17756700151E+03  0.18100472213E+03  0.17770000000E+01 0. -1.
         15    1    3    3    0    0  0.23101571618E+02  0.36548095731E+02 -0.18241477538E+02  0.46961208934E+02  0.17770000000E+01 0.  1.
</event>
<event>
 7    1  0.3260141E-006  0.4777665E+03  0.7546771E-02  0.9450981E-01
        -11   -1    0    0    0    0  0.00000000000E+00  0.00000000000E+00  0.50000000000E+03  0.50000000000E+03  0.00000000000E+00 0. -1.
         11   -1    0    0    0    0 -0.00000000000E+00 -0.00000000000E+00 -0.50000000000E+03  0.50000000000E+03  0.00000000000E+00 0.  1.
         23    2    1    2    0    0 -0.44562685926E+02 -0.19144051105E+02  0.45757439275E+03  0.46914311690E+03  0.91480115670E+02 0.  0.
        -11    1    1    2    0    0 -0.48228656612E+02 -0.15634134132E+02  0.11033409270E+02  0.51886082804E+02  0.00000000000E+00 0. -1.
         11    1    1    2    0    0  0.92791342537E+02  0.34778185238E+02 -0.46860780202E+03  0.47897080029E+03  0.00000000000E+00 0.  1.
        -15    1    3    3    0    0 -0.21942336053E+02 -0.54369593239E+02  0.31991624395E+03  0.32524925773E+03  0.17770000000E+01 0. -1.
         15    1    3    3    0    0 -0.22620349873E+02  0.35225542133E+02  0.13765814880E+03  0.14389385917E+03  0.17770000000E+01 0.  1.
</event>
<event>
 7    1  0.3260141E-006  0.5221249E+03  0.7546771E-02  0.9351620E-01
        -11   -1    0    0    0    0  0.00000000000E+00  0.00000000000E+00  0.50000000000E+03  0.50000000000E+03  0.00000000000E+00 0. -1.
         11   -1    0    0    0    0 -0.00000000000E+00 -0.00000000000E+00 -0.50000000000E+03  0.50000000000E+03  0.00000000000E+00 0. -1.
         23    2    1    2    0    0  0.97436144463E+02 -0.31473488160E+01 -0.30382228596E+03  0.33094461738E+03  0.87821695892E+02 0.  0.
        -11    1    1    2    0    0 -0.14429129465E+03  0.13352721414E+03  0.43556294475E+03  0.47787506052E+03  0.00000000000E+00 0. -1.
         11    1    1    2    0    0  0.46855150187E+02 -0.13037986533E+03 -0.13174065879E+03  0.19118032210E+03  0.00000000000E+00 0. -1.
        -15    1    3    3    0    0  0.96201489395E+02 -0.31277993485E+02 -0.25805590352E+03  0.27718053054E+03  0.17770000000E+01 0. -1.
         15    1    3    3    0    0  0.12346550681E+01  0.28130644669E+02 -0.45766382444E+02  0.53764086839E+02  0.17770000000E+01 0.  1.
</event>
<event>
 7    1  0.3260141E-006  0.3189605E+03  0.7546771E-02  0.9931748E-01
        -11   -1    0    0    0    0  0.00000000000E+00  0.00000000000E+00  0.50000000000E+03  0.50000000000E+03  0.00000000000E+00 0. -1.
         11   -1    0    0    0    0 -0.00000000000E+00 -0.00000000000E+00 -0.50000000000E+03  0.50000000000E+03  0.00000000000E+00 0.  1.
         23    2    1    2    0    0 -0.16256235291E+03  0.11012252728E+03  0.20804286806E+03  0.30087294612E+03  0.93215906158E+02 0.  0.
        -11    1    1    2    0    0 -0.32108158191E+02 -0.28571965829E+03  0.90868461037E+02  0.30153562669E+03  0.00000000000E+00 0. -1.
         11    1    1    2    0    0  0.19467051110E+03  0.17559713101E+03 -0.29891132909E+03  0.39759142719E+03  0.00000000000E+00 0.  1.
        -15    1    3    3    0    0 -0.68762987298E+02 -0.14489104610E-02  0.41772097607E+02  0.80476172199E+02  0.17770000000E+01 0.  1.
         15    1    3    3    0    0 -0.93799365611E+02  0.11012397619E+03  0.16627077045E+03  0.22039677392E+03  0.17770000000E+01 0. -1.
</event>
<event>
 7    1  0.3260141E-006  0.5203523E+03  0.7546771E-02  0.9355387E-01
        -11   -1    0    0    0    0  0.00000000000E+00  0.00000000000E+00  0.50000000000E+03  0.50000000000E+03  0.00000000000E+00 0.  1.
         11   -1    0    0    0    0 -0.00000000000E+00 -0.00000000000E+00 -0.50000000000E+03  0.50000000000E+03  0.00000000000E+00 0. -1.
         23    2    1    2    0    0  0.29757373521E+02 -0.38444398116E+02  0.10680310973E+03  0.14915183554E+03  0.92064611936E+02 0.  0.
        -11    1    1    2    0    0  0.15410524299E+03  0.32200794878E+02  0.33616133741E+03  0.37120043356E+03  0.00000000000E+00 0.  1.
         11    1    1    2    0    0 -0.18386261651E+03  0.62436032378E+01 -0.44296444714E+03  0.47964773090E+03  0.00000000000E+00 0. -1.
        -15    1    3    3    0    0  0.41040810713E+02 -0.38569630394E+02  0.11947196751E+03  0.13209342634E+03  0.17770000000E+01 0.  1.
         15    1    3    3    0    0 -0.11283437192E+02  0.12523227828E+00 -0.12668857779E+02  0.17058409199E+02  0.17770000000E+01 0. -1.
</event>
<event>
 7    1  0.3260141E-006  0.4060778E+03  0.7546771E-02  0.9638611E-01
        -11   -1    0    0    0    0  0.00000000000E+00  0.00000000000E+00  0.50000000000E+03  0.50000000000E+03  0.00000000000E+00 0.  1.
         11   -1    0    0    0    0 -0.00000000000E+00 -0.00000000000E+00 -0.50000000000E+03  0.50000000000E+03  0.00000000000E+00 0. -1.
         23    2    1    2    0    0  0.85473675503E+02  0.11140323352E+02  0.11712758308E+03  0.17492694345E+03  0.97214756173E+02 0.  0.
        -11    1    1    2    0    0 -0.37113647718E+03 -0.10308972847E+03  0.15952330234E+03  0.41691421276E+03  0.00000000000E+00 0.  1.
         11    1    1    2    0    0  0.28566280168E+03  0.91949405121E+02 -0.27665088541E+03  0.40815884379E+03  0.00000000000E+00 0. -1.
        -15    1    3    3    0    0  0.98330547351E+02  0.57107236169E+01  0.58365584856E+02  0.11450418390E+03  0.17770000000E+01 0.  1.
         15    1    3    3    0    0 -0.12856871849E+02  0.54295997351E+01  0.58761998220E+02  0.60422759544E+02  0.17770000000E+01 0. -1.
</event>
<event>
 7    1  0.3260141E-006  0.5261744E+03  0.7546771E-02  0.9343075E-01
        -11   -1    0    0    0    0  0.00000000000E+00  0.00000000000E+00  0.50000000000E+03  0.50000000000E+03  0.00000000000E+00 0.  1.
         11   -1    0    0    0    0 -0.00000000000E+00 -0.00000000000E+00 -0.50000000000E+03  0.50000000000E+03  0.00000000000E+00 0. -1.
         23    2    1    2    0    0  0.41873237799E+02  0.61235822482E+02  0.10388270985E+03  0.15835560146E+03  0.93710645645E+02 0.  0.
        -11    1    1    2    0    0 -0.81245280827E+02  0.47875797134E+02  0.35552469307E+03  0.36781883447E+03  0.00000000000E+00 0.  1.
         11    1    1    2    0    0  0.39372043028E+02 -0.10911161962E+03 -0.45940740292E+03  0.47382556407E+03  0.00000000000E+00 0. -1.
        -15    1    3    3    0    0  0.70061032468E+02  0.40802088834E+02  0.89130911620E+02  0.12050243093E+03  0.17770000000E+01 0.  1.
         15    1    3    3    0    0 -0.28187794669E+02  0.20433733648E+02  0.14751798233E+02  0.37853170531E+02  0.17770000000E+01 0. -1.
</event>
<event>
 7    1  0.3260141E-006  0.5275204E+03  0.7546771E-02  0.9340252E-01
        -11   -1    0    0    0    0  0.00000000000E+00  0.00000000000E+00  0.50000000000E+03  0.50000000000E+03  0.00000000000E+00 0.  1.
         11   -1    0    0    0    0 -0.00000000000E+00 -0.00000000000E+00 -0.50000000000E+03  0.50000000000E+03  0.00000000000E+00 0. -1.
         23    2    1    2    0    0  0.98217886149E+02 -0.71910537044E+02  0.15032103139E+03  0.21275549799E+03  0.88603673448E+02 0.  0.
        -11    1    1    2    0    0  0.38396331754E+02 -0.28549232379E+03  0.12687326967E+03  0.31476494689E+03  0.00000000000E+00 0.  1.
         11    1    1    2    0    0 -0.13661421790E+03  0.35740286083E+03 -0.27719430106E+03  0.47247955512E+03  0.00000000000E+00 0. -1.
        -15    1    3    3    0    0  0.72917920187E+02 -0.41990294402E+02  0.15172774378E+03  0.17350698507E+03  0.17770000000E+01 0.  1.
         15    1    3    3    0    0  0.25299965962E+02 -0.29920242642E+02 -0.14067123848E+01  0.39248512917E+02  0.17770000000E+01 0. -1.
</event>
<event>
 7    1  0.3260141E-006  0.4301220E+03  0.7546771E-02  0.9571361E-01
        -11   -1    0    0    0    0  0.00000000000E+00  0.00000000000E+00  0.50000000000E+03  0.50000000000E+03  0.00000000000E+00 0.  1.
         11   -1    0    0    0    0 -0.00000000000E+00 -0.00000000000E+00 -0.50000000000E+03  0.50000000000E+03  0.00000000000E+00 0. -1.
         23    2    1    2    0    0 -0.38771503212E+03 -0.16584772215E+03 -0.31966356325E+02  0.43255428343E+03  0.90845732440E+02 0.  0.
        -11    1    1    2    0    0  0.32098183688E+03  0.26758044348E+03  0.97702950383E+02  0.42915556603E+03  0.00000000000E+00 0.  1.
         11    1    1    2    0    0  0.66733195243E+02 -0.10173272133E+03 -0.65736594058E+02  0.13829015054E+03  0.00000000000E+00 0. -1.
        -15    1    3    3    0    0 -0.16651729514E+03 -0.12043722493E+03 -0.18132859800E+02  0.20631309474E+03  0.17770000000E+01 0.  1.
         15    1    3    3    0    0 -0.22119773699E+03 -0.45410497225E+02 -0.13833496525E+02  0.22624118869E+03  0.17770000000E+01 0. -1.
</event>
<event>
 7    1  0.3260141E-006  0.4613005E+03  0.7546771E-02  0.9490826E-01
        -11   -1    0    0    0    0  0.00000000000E+00  0.00000000000E+00  0.50000000000E+03  0.50000000000E+03  0.00000000000E+00 0.  1.
         11   -1    0    0    0    0 -0.00000000000E+00 -0.00000000000E+00 -0.50000000000E+03  0.50000000000E+03  0.00000000000E+00 0. -1.
         23    2    1    2    0    0  0.18061266870E+03 -0.28581020067E+02 -0.36817371830E+03  0.42341896026E+03  0.10145894861E+03 0.  0.
        -11    1    1    2    0    0 -0.20613755733E+03  0.84571087526E+01  0.44645529521E+03  0.49181962736E+03  0.00000000000E+00 0.  1.
         11    1    1    2    0    0  0.25524888633E+02  0.20123911315E+02 -0.78281576910E+02  0.84761412387E+02  0.00000000000E+00 0. -1.
        -15    1    3    3    0    0  0.11885432471E+03  0.31079052384E+02 -0.20417349572E+03  0.23829022658E+03  0.17770000000E+01 0.  1.
         15    1    3    3    0    0  0.61758343988E+02 -0.59660072451E+02 -0.16400022258E+03  0.18512873368E+03  0.17770000000E+01 0. -1.
</event>
<event>
 7    1  0.3260141E-006  0.5408107E+03  0.7546771E-02  0.9312855E-01
        -11   -1    0    0    0    0  0.00000000000E+00  0.00000000000E+00  0.50000000000E+03  0.50000000000E+03  0.00000000000E+00 0. -1.
         11   -1    0    0    0    0 -0.00000000000E+00 -0.00000000000E+00 -0.50000000000E+03  0.50000000000E+03  0.00000000000E+00 0.  1.
         23    2    1    2    0    0 -0.10476255383E+03  0.46917687063E+02  0.98141756794E+02  0.18363271199E+03  0.10446390019E+03 0.  0.
        -11    1    1    2    0    0  0.60142831144E+02  0.49595669061E+02  0.34856739159E+03  0.35717799065E+03  0.00000000000E+00 0. -1.
         11    1    1    2    0    0  0.44619722684E+02 -0.96513356123E+02 -0.44670914838E+03  0.45918929736E+03  0.00000000000E+00 0.  1.
        -15    1    3    3    0    0 -0.93295952492E+02  0.15250239281E+02  0.11251817343E+03  0.14697007052E+03  0.17770000000E+01 0. -1.
         15    1    3    3    0    0 -0.11466601336E+02  0.31667447782E+02 -0.14376416633E+02  0.36662641468E+02  0.17770000000E+01 0.  1.
</event>
<event>
 7    1  0.3260141E-006  0.5122738E+03  0.7546771E-02  0.9372757E-01
        -11   -1    0    0    0    0  0.00000000000E+00  0.00000000000E+00  0.50000000000E+03  0.50000000000E+03  0.00000000000E+00 0. -1.
         11   -1    0    0    0    0 -0.00000000000E+00 -0.00000000000E+00 -0.50000000000E+03  0.50000000000E+03  0.00000000000E+00 0.  1.
         23    2    1    2    0    0 -0.12383057784E+03 -0.11469198483E+01 -0.37537513450E+03  0.40781246815E+03  0.10034535438E+03 0.  0.
        -11    1    1    2    0    0  0.10138041821E+03 -0.77033036290E+01  0.47701097369E+03  0.48772615175E+03  0.00000000000E+00 0. -1.
         11    1    1    2    0    0  0.22450159628E+02  0.88502234773E+01 -0.10163583919E+03  0.10446138009E+03  0.00000000000E+00 0.  1.
        -15    1    3    3    0    0 -0.90506981120E+01  0.26944866235E+02 -0.24495715245E+02  0.37565126742E+02  0.17770000000E+01 0. -1.
         15    1    3    3    0    0 -0.11477987973E+03 -0.28091786083E+02 -0.35087941926E+03  0.37024734141E+03  0.17770000000E+01 0.  1.
</event>
<event>
 7    1  0.3260141E-006  0.5124433E+03  0.7546771E-02  0.9372389E-01
        -11   -1    0    0    0    0  0.00000000000E+00  0.00000000000E+00  0.50000000000E+03  0.50000000000E+03  0.00000000000E+00 0.  1.
         11   -1    0    0    0    0 -0.00000000000E+00 -0.00000000000E+00 -0.50000000000E+03  0.50000000000E+03  0.00000000000E+00 0. -1.
         23    2    1    2    0    0 -0.11745943560E+02 -0.58035530971E+02 -0.16876810632E+03  0.20179491099E+03  0.93447430919E+02 0.  0.
        -11    1    1    2    0    0 -0.12491091670E+02  0.19220548455E+03  0.44789789066E+03  0.48755665939E+03  0.00000000000E+00 0.  1.
         11    1    1    2    0    0  0.24237035230E+02 -0.13416995358E+03 -0.27912978433E+03  0.31064842961E+03  0.00000000000E+00 0. -1.
        -15    1    3    3    0    0 -0.39734081646E+02 -0.16690417437E+02 -0.25595799990E+02  0.50156455064E+02  0.17770000000E+01 0.  1.
         15    1    3    3    0    0  0.27988138086E+02 -0.41345113535E+02 -0.14317230633E+03  0.15163845593E+03  0.17770000000E+01 0. -1.
</event>
<event>
 7    1  0.3260141E-006  0.5239660E+03  0.7546771E-02  0.9347725E-01
        -11   -1    0    0    0    0  0.00000000000E+00  0.00000000000E+00  0.50000000000E+03  0.50000000000E+03  0.00000000000E+00 0.  1.
         11   -1    0    0    0    0 -0.00000000000E+00 -0.00000000000E+00 -0.50000000000E+03  0.50000000000E+03  0.00000000000E+00 0.  1.
         23    2    1    2    0    0  0.94631406078E+02 -0.91344667334E+02  0.25082129647E+03  0.29722786331E+03  0.90189404569E+02 0.  0.
        -11    1    1    2    0    0  0.75361882948E+02  0.90348909459E+02  0.19382425323E+03  0.22673813085E+03  0.00000000000E+00 0.  1.
         11    1    1    2    0    0 -0.16999328903E+03  0.99575787506E+00 -0.44464554970E+03  0.47603400584E+03  0.00000000000E+00 0.  1.
        -15    1    3    3    0    0  0.98427548844E+02 -0.10257615804E+03  0.24635281626E+03  0.28443403168E+03  0.17770000000E+01 0.  1.
         15    1    3    3    0    0 -0.37961427658E+01  0.11231490704E+02  0.44684802105E+01  0.12793831628E+02  0.17770000000E+01 0. -1.
</event>
<event>
 7    1  0.3260141E-006  0.5136217E+03  0.7546771E-02  0.9369835E-01
        -11   -1    0    0    0    0  0.00000000000E+00  0.00000000000E+00  0.50000000000E+03  0.50000000000E+03  0.00000000000E+00 0. -1.
         11   -1    0    0    0    0 -0.00000000000E+00 -0.00000000000E+00 -0.50000000000E+03  0.50000000000E+03  0.00000000000E+00 0.  1.
         23    2    1    2    0    0 -0.11941016016E+03  0.13468361904E+03  0.18996025691E+03  0.27653445797E+03  0.89375296673E+02 0.  0.
        -11    1    1    2    0    0 -0.66679592137E+01  0.12890174880E+03  0.19887245665E+03  0.23708727621E+03  0.00000000000E+00 0. -1.
         11    1    1    2    0    0  0.12607811937E+03 -0.26358536784E+03 -0.38883271357E+03  0.48637826582E+03  0.00000000000E+00 0.  1.
        -15    1    3    3    0    0 -0.13019606289E+03  0.11885113097E+03  0.18711914044E+03  0.25708624345E+03  0.17770000000E+01 0.  1.
         15    1    3    3    0    0  0.10785902733E+02  0.15832488070E+02  0.28411164697E+01  0.19448214521E+02  0.17770000000E+01 0. -1.
</event>
<event>
 7    1  0.3260141E-006  0.5341191E+03  0.7546771E-02  0.9326544E-01
        -11   -1    0    0    0    0  0.00000000000E+00  0.00000000000E+00  0.50000000000E+03  0.50000000000E+03  0.00000000000E+00 0. -1.
         11   -1    0    0    0    0 -0.00000000000E+00 -0.00000000000E+00 -0.50000000000E+03  0.50000000000E+03  0.00000000000E+00 0. -1.
         23    2    1    2    0    0  0.72364488500E+02 -0.83075691427E+02 -0.16637559123E+03  0.22430752641E+03  0.10244432315E+03 0.  0.
        -11    1    1    2    0    0 -0.94640416993E+02 -0.26214451652E+02  0.45541303325E+03  0.46588092562E+03  0.00000000000E+00 0. -1.
         11    1    1    2    0    0  0.22275928493E+02  0.10929014308E+03 -0.28903744202E+03  0.30981154797E+03  0.00000000000E+00 0. -1.
        -15    1    3    3    0    0  0.84269929755E+02 -0.59392950743E+02 -0.70725872486E+02  0.12503699623E+03  0.17770000000E+01 0. -1.
         15    1    3    3    0    0 -0.11905441254E+02 -0.23682740684E+02 -0.95649718742E+02  0.99270530180E+02  0.17770000000E+01 0.  1.
</event>
<event>
 7    1  0.3260141E-006  0.5247622E+03  0.7546771E-02  0.9346046E-01
        -11   -1    0    0    0    0  0.00000000000E+00  0.00000000000E+00  0.50000000000E+03  0.50000000000E+03  0.00000000000E+00 0. -1.
         11   -1    0    0    0    0 -0.00000000000E+00 -0.00000000000E+00 -0.50000000000E+03  0.50000000000E+03  0.00000000000E+00 0.  1.
         23    2    1    2    0    0  0.39613323353E+02  0.12432740348E+02  0.28061483734E+03  0.29744078347E+03  0.89456941131E+02 0.  0.
        -11    1    1    2    0    0  0.82474179350E+02  0.15092914457E+03  0.14863858722E+03  0.22732141683E+03  0.00000000000E+00 0. -1.
         11    1    1    2    0    0 -0.12208750270E+03 -0.16336188491E+03 -0.42925342457E+03  0.47523779970E+03  0.00000000000E+00 0.  1.
        -15    1    3    3    0    0  0.50229393220E+02 -0.21997829696E+02  0.10845734034E+03  0.12154443162E+03  0.17770000000E+01 0.  1.
         15    1    3    3    0    0 -0.10616069867E+02  0.34430570044E+02  0.17215749700E+03  0.17589635185E+03  0.17770000000E+01 0. -1.
</event>
<event>
 7    1  0.3260141E-006  0.4397487E+03  0.7546771E-02  0.9545738E-01
        -11   -1    0    0    0    0  0.00000000000E+00  0.00000000000E+00  0.50000000000E+03  0.50000000000E+03  0.00000000000E+00 0. -1.
         11   -1    0    0    0    0 -0.00000000000E+00 -0.00000000000E+00 -0.50000000000E+03  0.50000000000E+03  0.00000000000E+00 0.  1.
         23    2    1    2    0    0 -0.21950171636E+02 -0.24234073947E+02  0.42187808659E+03  0.43064953271E+03  0.80054979245E+02 0.  0.
        -11    1    1    2    0    0  0.55654307647E+02 -0.10569873014E+03  0.72919598754E+01  0.11967788514E+03  0.00000000000E+00 0. -1.
         11    1    1    2    0    0 -0.33704136012E+02  0.12993280408E+03 -0.42917004646E+03  0.44967258216E+03  0.00000000000E+00 0.  1.
        -15    1    3    3    0    0 -0.40885453636E+02  0.14373625878E+02  0.20359987713E+03  0.20816889570E+03  0.17770000000E+01 0.  1.
         15    1    3    3    0    0  0.18935282000E+02 -0.38607699825E+02  0.21827820946E+03  0.22248063701E+03  0.17770000000E+01 0. -1.
</event>
<event>
 7    1  0.3260141E-006  0.5145319E+03  0.7546771E-02  0.9367868E-01
        -11   -1    0    0    0    0  0.00000000000E+00  0.00000000000E+00  0.50000000000E+03  0.50000000000E+03  0.00000000000E+00 0. -1.
         11   -1    0    0    0    0 -0.00000000000E+00 -0.00000000000E+00 -0.50000000000E+03  0.50000000000E+03  0.00000000000E+00 0. -1.
         23    2    1    2    0    0  0.92575820600E+01  0.96832590086E+01  0.21721730663E+03  0.23579022295E+03  0.90742507184E+02 0.  0.
        -11    1    1    2    0    0 -0.77967248931E+02 -0.60639430424E+02  0.26065475478E+03  0.27874169695E+03  0.00000000000E+00 0. -1.
         11    1    1    2    0    0  0.68709666871E+02  0.50956171415E+02 -0.47787206141E+03  0.48546808010E+03  0.00000000000E+00 0. -1.
        -15    1    3    3    0    0  0.20885807391E+02 -0.35563313783E+02  0.69330122121E+02  0.80689465236E+02  0.17770000000E+01 0. -1.
         15    1    3    3    0    0 -0.11628225331E+02  0.45246572792E+02  0.14788718450E+03  0.15510075771E+03  0.17770000000E+01 0.  1.
</event>
<event>
 7    1  0.3260141E-006  0.5421896E+03  0.7546771E-02  0.9310060E-01
        -11   -1    0    0    0    0  0.00000000000E+00  0.00000000000E+00  0.50000000000E+03  0.50000000000E+03  0.00000000000E+00 0. -1.
         11   -1    0    0    0    0 -0.00000000000E+00 -0.00000000000E+00 -0.50000000000E+03  0.50000000000E+03  0.00000000000E+00 0. -1.
         23    2    1    2    0    0 -0.26387735536E+02  0.14018570977E+02  0.16488552501E+03  0.19889533597E+03  0.10714142707E+03 0.  0.
        -11    1    1    2    0    0 -0.15056178133E+02 -0.26844271727E+03  0.21345440437E+03  0.34329428149E+03  0.00000000000E+00 0. -1.
         11    1    1    2    0    0  0.41443913668E+02  0.25442414630E+03 -0.37833992938E+03  0.45781038254E+03  0.00000000000E+00 0. -1.
        -15    1    3    3    0    0 -0.55969745621E+02 -0.45584683651E+01  0.15126230205E+03  0.16135933133E+03  0.17770000000E+01 0. -1.
         15    1    3    3    0    0  0.29582010086E+02  0.18577039342E+02  0.13623222968E+02  0.37536004641E+02  0.17770000000E+01 0.  1.
</event>
<event>
 7    1  0.3260141E-006  0.5373902E+03  0.7546771E-02  0.9319826E-01
        -11   -1    0    0    0    0  0.00000000000E+00  0.00000000000E+00  0.50000000000E+03  0.50000000000E+03  0.00000000000E+00 0.  1.
         11   -1    0    0    0    0 -0.00000000000E+00 -0.00000000000E+00 -0.50000000000E+03  0.50000000000E+03  0.00000000000E+00 0. -1.
         23    2    1    2    0    0 -0.27430363079E+02  0.46411174608E+02  0.24993366525E+02  0.10888210722E+03  0.91237179680E+02 0.  0.
        -11    1    1    2    0    0 -0.11283275331E+03  0.38861503696E-01  0.41338598687E+03  0.42850811645E+03  0.00000000000E+00 0.  1.
         11    1    1    2    0    0  0.14026311638E+03 -0.46450036111E+02 -0.43837935339E+03  0.46260977632E+03  0.00000000000E+00 0. -1.
        -15    1    3    3    0    0 -0.16868487666E+02  0.16678586535E+02 -0.34271142010E+02  0.41717982077E+02  0.17770000000E+01 0.  1.
         15    1    3    3    0    0 -0.10561875413E+02  0.29732588073E+02  0.59264508535E+02  0.67164125146E+02  0.17770000000E+01 0. -1.
</event>
<event>
 6    1  0.3260141E-006  0.3582878E+03  0.7546771E-02  0.9788370E-01
        -11   -1    0    0    0    0  0.00000000000E+00  0.00000000000E+00  0.50000000000E+03  0.50000000000E+03  0.00000000000E+00 0.  1.
         11   -1    0    0    0    0 -0.00000000000E+00 -0.00000000000E+00 -0.50000000000E+03  0.50000000000E+03  0.00000000000E+00 0. -1.
        -11    1    1    2    0    0 -0.19584817930E+02 -0.23439699780E+03  0.16458248954E+03  0.28707649422E+03  0.00000000000E+00 0.  1.
         11    1    1    2    0    0  0.12368217728E+03  0.17449925238E+03 -0.35121821121E+03  0.41121953011E+03  0.00000000000E+00 0. -1.
        -15    1    1    2    0    0 -0.16365202266E+02 -0.51751684234E+02  0.14328076356E+03  0.15322725476E+03  0.17770000000E+01 0.  1.
         15    1    1    2    0    0 -0.87732157086E+02  0.11164942966E+03  0.43354958107E+02  0.14847672091E+03  0.17770000000E+01 0. -1.
</event>
<event>
 7    1  0.3260141E-006  0.5386537E+03  0.7546771E-02  0.9317244E-01
        -11   -1    0    0    0    0  0.00000000000E+00  0.00000000000E+00  0.50000000000E+03  0.50000000000E+03  0.00000000000E+00 0. -1.
         11   -1    0    0    0    0 -0.00000000000E+00 -0.00000000000E+00 -0.50000000000E+03  0.50000000000E+03  0.00000000000E+00 0. -1.
         23    2    1    2    0    0  0.72728624624E+02  0.23089620322E+02  0.18693244082E+03  0.22137835880E+03  0.90785774808E+02 0.  0.
        -11    1    1    2    0    0 -0.18183054332E+03  0.21063372061E+02  0.25914791018E+03  0.31727535592E+03  0.00000000000E+00 0. -1.
         11    1    1    2    0    0  0.10910191870E+03 -0.44152992383E+02 -0.44608035099E+03  0.46134628528E+03  0.00000000000E+00 0. -1.
        -15    1    3    3    0    0  0.25801567410E+02  0.19733437998E+01 -0.15551688835E+01  0.25984442381E+02  0.17770000000E+01 0. -1.
         15    1    3    3    0    0  0.46927057214E+02  0.21116276522E+02  0.18848760970E+03  0.19539391641E+03  0.17770000000E+01 0.  1.
</event>
<event>
 7    1  0.3260141E-006  0.4055863E+03  0.7546771E-02  0.9640037E-01
        -11   -1    0    0    0    0  0.00000000000E+00  0.00000000000E+00  0.50000000000E+03  0.50000000000E+03  0.00000000000E+00 0.  1.
         11   -1    0    0    0    0 -0.00000000000E+00 -0.00000000000E+00 -0.50000000000E+03  0.50000000000E+03  0.00000000000E+00 0.  1.
         23    2    1    2    0    0 -0.13044015383E+03 -0.11683490410E+03  0.39959200573E+03  0.44586924516E+03  0.91981433910E+02 0.  0.
        -11    1    1    2    0    0  0.17258053274E+03  0.32793446913E+02 -0.36966107078E+02  0.17951585867E+03  0.00000000000E+00 0.  1.
         11    1    1    2    0    0 -0.42140378907E+02  0.84041457185E+02 -0.36262589866E+03  0.37461489618E+03  0.00000000000E+00 0.  1.
        -15    1    3    3    0    0 -0.13052799259E+03 -0.88349013299E+02  0.37958997967E+03  0.41101680671E+03  0.17770000000E+01 0.  1.
         15    1    3    3    0    0  0.87838764152E-01 -0.28485890799E+02  0.20002026066E+02  0.34852438451E+02  0.17770000000E+01 0. -1.
</event>
<event>
 7    1  0.3260141E-006  0.5322415E+03  0.7546771E-02  0.9330423E-01
        -11   -1    0    0    0    0  0.00000000000E+00  0.00000000000E+00  0.50000000000E+03  0.50000000000E+03  0.00000000000E+00 0.  1.
         11   -1    0    0    0    0 -0.00000000000E+00 -0.00000000000E+00 -0.50000000000E+03  0.50000000000E+03  0.00000000000E+00 0. -1.
         23    2    1    2    0    0 -0.35439359422E+02  0.93352447072E+02 -0.13380800476E+03  0.19915675851E+03  0.10857349932E+03 0.  0.
        -11    1    1    2    0    0 -0.46331930729E+02 -0.89962338262E+02  0.45668167160E+03  0.46775850531E+03  0.00000000000E+00 0.  1.
         11    1    1    2    0    0  0.81771290151E+02 -0.33901088093E+01 -0.32287366685E+03  0.33308473618E+03  0.00000000000E+00 0. -1.
        -15    1    3    3    0    0  0.29023024413E+02  0.41270562851E+02 -0.95105866960E+02  0.10767487619E+03  0.17770000000E+01 0.  1.
         15    1    3    3    0    0 -0.64462383835E+02  0.52081884221E+02 -0.38702137796E+02  0.91481882319E+02  0.17770000000E+01 0. -1.
</event>
<event>
 7    1  0.4915785E-006  0.5086020E+03  0.7546771E-02  0.9380765E-01
        -11   -1    0    0    0    0  0.00000000000E+00  0.00000000000E+00  0.50000000000E+03  0.50000000000E+03  0.00000000000E+00 0. -1.
         11   -1    0    0    0    0 -0.00000000000E+00 -0.00000000000E+00 -0.50000000000E+03  0.50000000000E+03  0.00000000000E+00 0.  1.
         23    2    1    2    0    0  0.37503957084E+02  0.56254408437E+02 -0.38009526407E+03  0.39628199923E+03  0.89419840525E+02 0.  0.
        -11    1    1    2    0    0 -0.97667518477E+01 -0.93754348651E+02  0.48227247284E+03  0.49139801118E+03  0.00000000000E+00 0. -1.
         11    1    1    2    0    0 -0.27737205236E+02  0.37499940214E+02 -0.10217720876E+03  0.11231998959E+03  0.00000000000E+00 0.  1.
        -15    1    3    3    0    0 -0.20526876592E+02  0.38068990958E+02 -0.23490585587E+03  0.23886087915E+03  0.17770000000E+01 0.  1.
         15    1    3    3    0    0  0.58030833676E+02  0.18185417479E+02 -0.14518940820E+03  0.15742112008E+03  0.17770000000E+01 0. -1.
</event>
<event>
 7    1  0.3260141E-006  0.3300684E+03  0.7546771E-02  0.9889091E-01
        -11   -1    0    0    0    0  0.00000000000E+00  0.00000000000E+00  0.50000000000E+03  0.50000000000E+03  0.00000000000E+00 0. -1.
         11   -1    0    0    0    0 -0.00000000000E+00 -0.00000000000E+00 -0.50000000000E+03  0.50000000000E+03  0.00000000000E+00 0.  1.
         23    2    1    2    0    0  0.77996634055E+02 -0.29021464203E+03  0.14373035478E+03  0.34579361229E+03  0.92772808742E+02 0.  0.
        -11    1    1    2    0    0 -0.89971255503E+02  0.18636103479E+03  0.20430929902E+03  0.29080500644E+03  0.00000000000E+00 0. -1.
         11    1    1    2    0    0  0.11974621448E+02  0.10385360724E+03 -0.34803965380E+03  0.36340138127E+03  0.00000000000E+00 0.  1.
        -15    1    3    3    0    0  0.94513638015E+01 -0.79479753484E+02 -0.28214201923E+01  0.80109160728E+02  0.17770000000E+01 0.  1.
         15    1    3    3    0    0  0.68545270254E+02 -0.21073488855E+03  0.14655177497E+03  0.26568445156E+03  0.17770000000E+01 0. -1.
</event>
<event>
 7    1  0.3260141E-006  0.5193838E+03  0.7546771E-02  0.9357452E-01
        -11   -1    0    0    0    0  0.00000000000E+00  0.00000000000E+00  0.50000000000E+03  0.50000000000E+03  0.00000000000E+00 0. -1.
         11   -1    0    0    0    0 -0.00000000000E+00 -0.00000000000E+00 -0.50000000000E+03  0.50000000000E+03  0.00000000000E+00 0. -1.
         23    2    1    2    0    0 -0.22017236737E+03  0.77749600646E+02 -0.15418995344E+01  0.25065485260E+03  0.91129610594E+02 0.  0.
        -11    1    1    2    0    0  0.47164741711E+03 -0.34391944574E+02  0.85777717482E+02  0.48061617611E+03  0.00000000000E+00 0. -1.
         11    1    1    2    0    0 -0.25147504975E+03 -0.43357656073E+02 -0.84235817948E+02  0.26872897129E+03  0.00000000000E+00 0. -1.
        -15    1    3    3    0    0 -0.77007761946E+02  0.48294610005E+02 -0.40273019739E+02  0.99436605952E+02  0.17770000000E+01 0.  1.
         15    1    3    3    0    0 -0.14316460542E+03  0.29454990642E+02  0.38731120204E+02  0.15121824665E+03  0.17770000000E+01 0. -1.
</event>
<event>
 7    1  0.3260141E-006  0.5271178E+03  0.7546771E-02  0.9341096E-01
        -11   -1    0    0    0    0  0.00000000000E+00  0.00000000000E+00  0.50000000000E+03  0.50000000000E+03  0.00000000000E+00 0.  1.
         11   -1    0    0    0    0 -0.00000000000E+00 -0.00000000000E+00 -0.50000000000E+03  0.50000000000E+03  0.00000000000E+00 0.  1.
         23    2    1    2    0    0 -0.61535050209E+02 -0.12398579369E+03  0.32547487465E+03  0.36520561479E+03  0.91006634973E+02 0.  0.
        -11    1    1    2    0    0  0.78211754334E+02  0.32083372840E+02  0.13809106751E+03  0.16191221157E+03  0.00000000000E+00 0.  1.
         11    1    1    2    0    0 -0.16676704125E+02  0.91902420847E+02 -0.46356594216E+03  0.47288217364E+03  0.00000000000E+00 0.  1.
        -15    1    3    3    0    0 -0.82866271693E+02 -0.92858670661E+02  0.27755044161E+03  0.30418244044E+03  0.17770000000E+01 0.  1.
         15    1    3    3    0    0  0.21331221484E+02 -0.31127123026E+02  0.47924433035E+02  0.61023174357E+02  0.17770000000E+01 0. -1.
</event>
<event>
 7    1  0.3260141E-006  0.4685428E+03  0.7546771E-02  0.9473086E-01
        -11   -1    0    0    0    0  0.00000000000E+00  0.00000000000E+00  0.50000000000E+03  0.50000000000E+03  0.00000000000E+00 0.  1.
         11   -1    0    0    0    0 -0.00000000000E+00 -0.00000000000E+00 -0.50000000000E+03  0.50000000000E+03  0.00000000000E+00 0. -1.
         23    2    1    2    0    0 -0.39364102598E+02  0.42574311672E+01  0.43277367439E+03  0.44390558969E+03  0.90506690482E+02 0.  0.
        -11    1    1    2    0    0 -0.35301505798E+02 -0.35997329646E+02  0.47348475162E+02  0.69165613952E+02  0.00000000000E+00 0.  1.
         11    1    1    2    0    0  0.74665608396E+02  0.31739898479E+02 -0.48012214955E+03  0.48692879636E+03  0.00000000000E+00 0. -1.
        -15    1    3    3    0    0 -0.57551540250E+02  0.23710227099E+02  0.37660410693E+03  0.38171738988E+03  0.17770000000E+01 0.  1.
         15    1    3    3    0    0  0.18187437652E+02 -0.19452795931E+02  0.56169567463E+02  0.62188199812E+02  0.17770000000E+01 0. -1.
</event>
<event>
 7    1  0.3260141E-006  0.3908686E+03  0.7546771E-02  0.9683773E-01
        -11   -1    0    0    0    0  0.00000000000E+00  0.00000000000E+00  0.50000000000E+03  0.50000000000E+03  0.00000000000E+00 0.  1.
         11   -1    0    0    0    0 -0.00000000000E+00 -0.00000000000E+00 -0.50000000000E+03  0.50000000000E+03  0.00000000000E+00 0. -1.
         23    2    1    2    0    0 -0.10833269467E+03 -0.65356544539E+02  0.32554078791E+03  0.36303002258E+03  0.99027986207E+02 0.  0.
        -11    1    1    2    0    0 -0.42276619181E+02  0.19062871863E+03  0.60205161525E+02  0.20433130541E+03  0.00000000000E+00 0.  1.
         11    1    1    2    0    0  0.15060931385E+03 -0.12527217409E+03 -0.38574594943E+03  0.43263867202E+03  0.00000000000E+00 0. -1.
        -15    1    3    3    0    0 -0.11135728885E+03 -0.48939963383E+02  0.32410310045E+03  0.34618137334E+03  0.17770000000E+01 0.  1.
         15    1    3    3    0    0  0.30245941800E+01 -0.16416581156E+02  0.14376874526E+01  0.16848649234E+02  0.17770000000E+01 0. -1.
</event>
<event>
 7    1  0.3260141E-006  0.4562153E+03  0.7546771E-02  0.9503491E-01
        -11   -1    0    0    0    0  0.00000000000E+00  0.00000000000E+00  0.50000000000E+03  0.50000000000E+03  0.00000000000E+00 0.  1.
         11   -1    0    0    0    0 -0.00000000000E+00 -0.00000000000E+00 -0.50000000000E+03  0.50000000000E+03  0.00000000000E+00 0.  1.
         23    2    1    2    0    0 -0.58139472857E+02 -0.33650765332E+01  0.40101156913E+03  0.41585810436E+03  0.93467439998E+02 0.  0.
        -11    1    1    2    0    0 -0.25668144168E+02 -0.34452440696E+02  0.81937707650E+02  0.92518172431E+02  0.00000000000E+00 0.  1.
         11    1    1    2    0    0  0.83807617026E+02  0.37817517229E+02 -0.48294927678E+03  0.49162372321E+03  0.00000000000E+00 0.  1.
        -15    1    3    3    0    0 -0.53876044100E+01 -0.40942057660E+02  0.21360996136E+03  0.21757217581E+03  0.17770000000E+01 0.  1.
         15    1    3    3    0    0 -0.52751868447E+02  0.37576981126E+02  0.18740160777E+03  0.19828592855E+03  0.17770000000E+01 0. -1.
</event>
<event>
 7    1  0.3260141E-006  0.5297550E+03  0.7546771E-02  0.9335586E-01
        -11   -1    0    0    0    0  0.00000000000E+00  0.00000000000E+00  0.50000000000E+03  0.50000000000E+03  0.00000000000E+00 0. -1.
         11   -1    0    0    0    0 -0.00000000000E+00 -0.00000000000E+00 -0.50000000000E+03  0.50000000000E+03  0.00000000000E+00 0. -1.
         23    2    1    2    0    0 -0.11719936719E+03 -0.93600490781E+00 -0.15637577485E+03  0.21674659343E+03  0.93750386832E+02 0.  0.
        -11    1    1    2    0    0  0.69272362528E+02  0.35442171066E+02  0.46376243607E+03  0.47024504761E+03  0.00000000000E+00 0. -1.
         11    1    1    2    0    0  0.47927004662E+02 -0.34506166158E+02 -0.30738666122E+03  0.31300835895E+03  0.00000000000E+00 0. -1.
        -15    1    3    3    0    0  0.11287978941E+02 -0.10052137017E+02 -0.14931927288E+01  0.15292196726E+02  0.17770000000E+01 0.  1.
         15    1    3    3    0    0 -0.12848734613E+03  0.91161321090E+01 -0.15488258212E+03  0.20145439671E+03  0.17770000000E+01 0. -1.
</event>
<event>
 7    1  0.3260141E-006  0.3664022E+03  0.7546771E-02  0.9761237E-01
        -11   -1    0    0    0    0  0.00000000000E+00  0.00000000000E+00  0.50000000000E+03  0.50000000000E+03  0.00000000000E+00 0. -1.
         11   -1    0    0    0    0 -0.00000000000E+00 -0.00000000000E+00 -0.50000000000E+03  0.50000000000E+03  0.00000000000E+00 0. -1.
         23    2    1    2    0    0 -0.10873021477E+03 -0.17179660313E+03  0.76589733275E+02  0.23566723010E+03  0.91305660539E+02 0.  0.
        -11    1    1    2    0    0 -0.22933534227E+03  0.11318909914E+03  0.19916235524E+03  0.32414829187E+03  0.00000000000E+00 0. -1.
         11    1    1    2    0    0  0.33806555704E+03  0.58607503992E+02 -0.27575208851E+03  0.44018447803E+03  0.00000000000E+00 0. -1.
        -15    1    3    3    0    0 -0.66417589546E+02 -0.15297592530E+03  0.87087130089E+02  0.18814955721E+03  0.17770000000E+01 0.  1.
         15    1    3    3    0    0 -0.42312625227E+02 -0.18820677831E+02 -0.10497396814E+02  0.47517672886E+02  0.17770000000E+01 0. -1.
</event>
<event>
 7    1  0.3260141E-006  0.3979180E+03  0.7546771E-02  0.9662572E-01
        -11   -1    0    0    0    0  0.00000000000E+00  0.00000000000E+00  0.50000000000E+03  0.50000000000E+03  0.00000000000E+00 0. -1.
         11   -1    0    0    0    0 -0.00000000000E+00 -0.00000000000E+00 -0.50000000000E+03  0.50000000000E+03  0.00000000000E+00 0.  1.
         23    2    1    2    0    0 -0.12959062253E+03  0.31010538185E+02 -0.95329744035E+02  0.18747424723E+03  0.91123270087E+02 0.  0.
        -11    1    1    2    0    0  0.12151198223E+03  0.11345624609E+03  0.42291049440E+03  0.45441255251E+03  0.00000000000E+00 0. -1.
         11    1    1    2    0    0  0.80786403019E+01 -0.14446678428E+03 -0.32758075037E+03  0.35811320026E+03  0.00000000000E+00 0.  1.
        -15    1    3    3    0    0  0.95690233054E+01 -0.59126019508E+01 -0.24484640887E+02  0.27003341223E+02  0.17770000000E+01 0. -1.
         15    1    3    3    0    0 -0.13915964583E+03  0.36923140136E+02 -0.70845103148E+02  0.16047090601E+03  0.17770000000E+01 0.  1.
</event>
<event>
 7    1  0.3260141E-006  0.5262992E+03  0.7546771E-02  0.9342813E-01
        -11   -1    0    0    0    0  0.00000000000E+00  0.00000000000E+00  0.50000000000E+03  0.50000000000E+03  0.00000000000E+00 0.  1.
         11   -1    0    0    0    0 -0.00000000000E+00 -0.00000000000E+00 -0.50000000000E+03  0.50000000000E+03  0.00000000000E+00 0. -1.
         23    2    1    2    0    0 -0.93136976270E+02  0.42640116111E+02  0.23732641723E+03  0.27462151045E+03  0.92738718121E+02 0.  0.
        -11    1    1    2    0    0 -0.73467159626E+01 -0.12527817356E+03  0.21815837969E+03  0.25167771779E+03  0.00000000000E+00 0.  1.
         11    1    1    2    0    0  0.10048369223E+03  0.82638057445E+02 -0.45548479691E+03  0.47370077176E+03  0.00000000000E+00 0. -1.
        -15    1    3    3    0    0 -0.80199496873E+02  0.27977054548E+02  0.24019552365E+03  0.25477778983E+03  0.17770000000E+01 0.  1.
         15    1    3    3    0    0 -0.12937479396E+02  0.14663061563E+02 -0.28691064222E+01  0.19843720623E+02  0.17770000000E+01 0. -1.
</event>
<event>
 7    1  0.3260141E-006  0.5344842E+03  0.7546771E-02  0.9325791E-01
        -11   -1    0    0    0    0  0.00000000000E+00  0.00000000000E+00  0.50000000000E+03  0.50000000000E+03  0.00000000000E+00 0.  1.
         11   -1    0    0    0    0 -0.00000000000E+00 -0.00000000000E+00 -0.50000000000E+03  0.50000000000E+03  0.00000000000E+00 0. -1.
         23    2    1    2    0    0 -0.11544266815E+02  0.48380154315E+02  0.31088935677E+03  0.32755122992E+03  0.90353232612E+02 0.  0.
        -11    1    1    2    0    0 -0.87651759202E+02 -0.12804640763E+03  0.13690342847E+03  0.20693298946E+03  0.00000000000E+00 0.  1.
         11    1    1    2    0    0  0.99196026017E+02  0.79666253313E+02 -0.44779278524E+03  0.46551578062E+03  0.00000000000E+00 0. -1.
        -15    1    3    3    0    0  0.15082521559E+02 -0.22223650392E+02  0.65471362058E+02  0.70788629539E+02  0.17770000000E+01 0. -1.
         15    1    3    3    0    0 -0.26626788374E+02  0.70603804708E+02  0.24541799471E+03  0.25676260038E+03  0.17770000000E+01 0.  1.
</event>
<event>
 7    1  0.3260141E-006  0.5060015E+03  0.7546771E-02  0.9386480E-01
        -11   -1    0    0    0    0  0.00000000000E+00  0.00000000000E+00  0.50000000000E+03  0.50000000000E+03  0.00000000000E+00 0.  1.
         11   -1    0    0    0    0 -0.00000000000E+00 -0.00000000000E+00 -0.50000000000E+03  0.50000000000E+03  0.00000000000E+00 0.  1.
         23    2    1    2    0    0  0.10265436234E+03 -0.58853334168E+02 -0.38488857130E+03  0.41286395063E+03  0.91190988383E+02 0.  0.
        -11    1    1    2    0    0 -0.10762879985E+03  0.80144482616E+02  0.47542337819E+03  0.49399846678E+03  0.00000000000E+00 0.  1.
         11    1    1    2    0    0  0.49744375117E+01 -0.21291148448E+02 -0.90534806894E+02  0.93137582587E+02  0.00000000000E+00 0.  1.
        -15    1    3    3    0    0  0.49954752742E+02 -0.65356561086E+02 -0.14096563751E+03  0.16322201471E+03  0.17770000000E+01 0.  1.
         15    1    3    3    0    0  0.52699609602E+02  0.65032269182E+01 -0.24392293379E+03  0.24964193592E+03  0.17770000000E+01 0. -1.
</event>
<event>
 7    1  0.3260141E-006  0.4519503E+03  0.7546771E-02  0.9514249E-01
        -11   -1    0    0    0    0  0.00000000000E+00  0.00000000000E+00  0.50000000000E+03  0.50000000000E+03  0.00000000000E+00 0.  1.
         11   -1    0    0    0    0 -0.00000000000E+00 -0.00000000000E+00 -0.50000000000E+03  0.50000000000E+03  0.00000000000E+00 0.  1.
         23    2    1    2    0    0 -0.85802235276E+01  0.53161841923E+02  0.41312366483E+03  0.42687204401E+03  0.92998805564E+02 0.  0.
        -11    1    1    2    0    0 -0.82767655743E+02 -0.25938137773E+02  0.50122167317E+02  0.10017736014E+03  0.00000000000E+00 0.  1.
         11    1    1    2    0    0  0.91347879271E+02 -0.27223704150E+02 -0.46324583215E+03  0.47295059585E+03  0.00000000000E+00 0.  1.
        -15    1    3    3    0    0  0.19916038007E+02  0.70614759824E+02  0.26179240153E+03  0.27188510828E+03  0.17770000000E+01 0. -1.
         15    1    3    3    0    0 -0.28496261535E+02 -0.17452917902E+02  0.15133126330E+03  0.15498693572E+03  0.17770000000E+01 0.  1.
</event>
<event>
 7    1  0.3260141E-006  0.5188579E+03  0.7546771E-02  0.9358575E-01
        -11   -1    0    0    0    0  0.00000000000E+00  0.00000000000E+00  0.50000000000E+03  0.50000000000E+03  0.00000000000E+00 0.  1.
         11   -1    0    0    0    0 -0.00000000000E+00 -0.00000000000E+00 -0.50000000000E+03  0.50000000000E+03  0.00000000000E+00 0. -1.
         23    2    1    2    0    0  0.49171526705E+02 -0.67898097281E+02 -0.22850920603E+03  0.25668175305E+03  0.81492787765E+02 0.  0.
        -11    1    1    2    0    0 -0.15082103301E+03 -0.11546691381E+02  0.45674649752E+03  0.48114205084E+03  0.00000000000E+00 0.  1.
         11    1    1    2    0    0  0.10164950631E+03  0.79444788662E+02 -0.22823729150E+03  0.26217619611E+03  0.00000000000E+00 0. -1.
        -15    1    3    3    0    0  0.64086005026E+02 -0.42072704311E+02 -0.10755314529E+03  0.13209074638E+03  0.17770000000E+01 0. -1.
         15    1    3    3    0    0 -0.14914478322E+02 -0.25825392969E+02 -0.12095606074E+03  0.12459100667E+03  0.17770000000E+01 0.  1.
</event>
<event>
 7    1  0.3260141E-006  0.3680852E+03  0.7546771E-02  0.9755703E-01
        -11   -1    0    0    0    0  0.00000000000E+00  0.00000000000E+00  0.50000000000E+03  0.50000000000E+03  0.00000000000E+00 0. -1.
         11   -1    0    0    0    0 -0.00000000000E+00 -0.00000000000E+00 -0.50000000000E+03  0.50000000000E+03  0.00000000000E+00 0. -1.
         23    2    1    2    0    0 -0.42751058401E+02 -0.16433790282E+03  0.13188533557E+03  0.23307414806E+03  0.89973426394E+02 0.  0.
        -11    1    1    2    0    0  0.65205301466E+02  0.75747273604E+02  0.30480570592E+03  0.32077390660E+03  0.00000000000E+00 0. -1.
         11    1    1    2    0    0 -0.22454243065E+02  0.88590629218E+02 -0.43669104148E+03  0.44615194534E+03  0.00000000000E+00 0. -1.
        -15    1    3    3    0    0  0.13604528494E+02 -0.11028523636E+03  0.97068411659E+02  0.14755795752E+03  0.17770000000E+01 0. -1.
         15    1    3    3    0    0 -0.56355586895E+02 -0.54052666459E+02  0.34816923911E+02  0.85516190544E+02  0.17770000000E+01 0.  1.
</event>
<event>
 7    1  0.3260141E-006  0.4438427E+03  0.7546771E-02  0.9535052E-01
        -11   -1    0    0    0    0  0.00000000000E+00  0.00000000000E+00  0.50000000000E+03  0.50000000000E+03  0.00000000000E+00 0.  1.
         11   -1    0    0    0    0 -0.00000000000E+00 -0.00000000000E+00 -0.50000000000E+03  0.50000000000E+03  0.00000000000E+00 0. -1.
         23    2    1    2    0    0  0.75298487564E+01 -0.61082245243E+02  0.44478103415E+03  0.45934634563E+03  0.96856376130E+02 0.  0.
        -11    1    1    2    0    0 -0.10678410041E+03 -0.19576510094E+02 -0.39263298611E+02  0.11544561692E+03  0.00000000000E+00 0.  1.
         11    1    1    2    0    0  0.99254251654E+02  0.80658755337E+02 -0.40551773553E+03  0.42520803746E+03  0.00000000000E+00 0. -1.
        -15    1    3    3    0    0  0.10821566900E+02 -0.82927327586E+02  0.40731603302E+03  0.41581673422E+03  0.17770000000E+01 0.  1.
         15    1    3    3    0    0 -0.32917181434E+01  0.21845082344E+02  0.37465001123E+02  0.43529611405E+02  0.17770000000E+01 0. -1.
</event>
<event>
 7    1  0.3260141E-006  0.3391286E+03  0.7546771E-02  0.9855612E-01
        -11   -1    0    0    0    0  0.00000000000E+00  0.00000000000E+00  0.50000000000E+03  0.50000000000E+03  0.00000000000E+00 0. -1.
         11   -1    0    0    0    0 -0.00000000000E+00 -0.00000000000E+00 -0.50000000000E+03  0.50000000000E+03  0.00000000000E+00 0. -1.
         23    2    1    2    0    0  0.94048672600E+02  0.17010046265E+03  0.17038514372E+03  0.27416029946E+03  0.91397223078E+02 0.  0.
        -11    1    1    2    0    0 -0.15716850671E+03 -0.12884315019E+03  0.23661546203E+03  0.31191244561E+03  0.00000000000E+00 0. -1.
         11    1    1    2    0    0  0.63119834113E+02 -0.41257312460E+02 -0.40700060575E+03  0.41392725493E+03  0.00000000000E+00 0. -1.
        -15    1    3    3    0    0  0.52970275797E+02  0.58602393600E+02  0.18218244914E+02  0.81087316088E+02  0.17770000000E+01 0.  1.
         15    1    3    3    0    0  0.41078396804E+02  0.11149806905E+03  0.15216689881E+03  0.19307298337E+03  0.17770000000E+01 0. -1.
</event>
<event>
 7    1  0.3260141E-006  0.5407410E+03  0.7546771E-02  0.9312997E-01
        -11   -1    0    0    0    0  0.00000000000E+00  0.00000000000E+00  0.50000000000E+03  0.50000000000E+03  0.00000000000E+00 0.  1.
         11   -1    0    0    0    0 -0.00000000000E+00 -0.00000000000E+00 -0.50000000000E+03  0.50000000000E+03  0.00000000000E+00 0. -1.
         23    2    1    2    0    0 -0.14998651941E+03  0.79960335430E+02 -0.18960057207E+03  0.27902764674E+03  0.11409837627E+03 0.  0.
        -11    1    1    2    0    0  0.79444980137E+02 -0.10215856661E+03  0.44064836257E+03  0.45925903043E+03  0.00000000000E+00 0.  1.
         11    1    1    2    0    0  0.70541539272E+02  0.22198231175E+02 -0.25104779050E+03  0.26171332283E+03  0.00000000000E+00 0. -1.
        -15    1    3    3    0    0 -0.10196958580E+03  0.50663136437E+02 -0.42532075100E+02  0.12155938863E+03  0.17770000000E+01 0.  1.
         15    1    3    3    0    0 -0.48016933606E+02  0.29297198993E+02 -0.14706849697E+03  0.15746825811E+03  0.17770000000E+01 0. -1.
</event>
<event>
 7    1  0.3260141E-006  0.3169543E+03  0.7546771E-02  0.9939652E-01
        -11   -1    0    0    0    0  0.00000000000E+00  0.00000000000E+00  0.50000000000E+03  0.50000000000E+03  0.00000000000E+00 0.  1.
         11   -1    0    0    0    0 -0.00000000000E+00 -0.00000000000E+00 -0.50000000000E+03  0.50000000000E+03  0.00000000000E+00 0. -1.
         23    2    1    2    0    0  0.25289305501E+03 -0.14124066569E+03  0.13550730642E+03  0.33238893500E+03  0.90644090250E+02 0.  0.
        -11    1    1    2    0    0 -0.18218068263E+03  0.11915290867E+03  0.21701996604E+03  0.30738393326E+03  0.00000000000E+00 0.  1.
         11    1    1    2    0    0 -0.70712372383E+02  0.22087757020E+02 -0.35252727245E+03  0.36022713174E+03  0.00000000000E+00 0. -1.
        -15    1    3    3    0    0  0.10890188873E+03 -0.22089099368E+02  0.81569881109E+02  0.13785627629E+03  0.17770000000E+01 0.  1.
         15    1    3    3    0    0  0.14399116628E+03 -0.11915156633E+03  0.53937425307E+02  0.19453265871E+03  0.17770000000E+01 0. -1.
</event>
<event>
 7    1  0.3260141E-006  0.5307360E+03  0.7546771E-02  0.9333546E-01
        -11   -1    0    0    0    0  0.00000000000E+00  0.00000000000E+00  0.50000000000E+03  0.50000000000E+03  0.00000000000E+00 0. -1.
         11   -1    0    0    0    0 -0.00000000000E+00 -0.00000000000E+00 -0.50000000000E+03  0.50000000000E+03  0.00000000000E+00 0.  1.
         23    2    1    2    0    0 -0.30685018996E+02 -0.53171365203E+02 -0.77640806013E+02  0.13736344390E+03  0.95246293851E+02 0.  0.
        -11    1    1    2    0    0 -0.91868670934E+02  0.10733862506E+03  0.44749001088E+03  0.46926404398E+03  0.00000000000E+00 0. -1.
         11    1    1    2    0    0  0.12255368993E+03 -0.54167259853E+02 -0.36984920487E+03  0.39337251213E+03  0.00000000000E+00 0.  1.
        -15    1    3    3    0    0  0.33227180704E+02 -0.70749366944E+01 -0.17756334963E+02  0.38373759617E+02  0.17770000000E+01 0. -1.
         15    1    3    3    0    0 -0.63912199701E+02 -0.46096428508E+02 -0.59884471049E+02  0.98989684279E+02  0.17770000000E+01 0.  1.
</event>
<event>
 7    1  0.3260141E-006  0.5310001E+03  0.7546771E-02  0.9332997E-01
        -11   -1    0    0    0    0  0.00000000000E+00  0.00000000000E+00  0.50000000000E+03  0.50000000000E+03  0.00000000000E+00 0.  1.
         11   -1    0    0    0    0 -0.00000000000E+00 -0.00000000000E+00 -0.50000000000E+03  0.50000000000E+03  0.00000000000E+00 0.  1.
         23    2    1    2    0    0 -0.53432494662E+02 -0.27206964623E+02  0.30811663620E+03  0.32716583975E+03  0.92230010203E+02 0.  0.
        -11    1    1    2    0    0  0.97089038847E+02  0.90859439388E+02  0.15448840182E+03  0.20383421079E+03  0.00000000000E+00 0.  1.
         11    1    1    2    0    0 -0.43656544184E+02 -0.63652474765E+02 -0.46260503802E+03  0.46899994947E+03  0.00000000000E+00 0.  1.
        -15    1    3    3    0    0  0.12749951945E+02  0.23375454759E+02  0.73584301561E+02  0.78273752466E+02  0.17770000000E+01 0. -1.
         15    1    3    3    0    0 -0.66182446608E+02 -0.50582419382E+02  0.23453233464E+03  0.24889208728E+03  0.17770000000E+01 0.  1.
</event>
<event>
 7    1  0.3260141E-006  0.4356467E+03  0.7546771E-02  0.9556570E-01
        -11   -1    0    0    0    0  0.00000000000E+00  0.00000000000E+00  0.50000000000E+03  0.50000000000E+03  0.00000000000E+00 0. -1.
         11   -1    0    0    0    0 -0.00000000000E+00 -0.00000000000E+00 -0.50000000000E+03  0.50000000000E+03  0.00000000000E+00 0.  1.
         23    2    1    2    0    0 -0.68338709769E+02  0.84897846378E+02  0.38663572931E+03  0.41170177352E+03  0.90185029641E+02 0.  0.
        -11    1    1    2    0    0 -0.12682401013E+03 -0.19266912056E+01  0.21222212846E+02  0.12860180404E+03  0.00000000000E+00 0. -1.
         11    1    1    2    0    0  0.19516271989E+03 -0.82971155173E+02 -0.40785794215E+03  0.45969642244E+03  0.00000000000E+00 0.  1.
        -15    1    3    3    0    0 -0.47875922582E+02  0.33418370319E+02  0.74429993754E+02  0.94614338961E+02  0.17770000000E+01 0.  1.
         15    1    3    3    0    0 -0.20462787187E+02  0.51479476060E+02  0.31220573555E+03  0.31708743456E+03  0.17770000000E+01 0. -1.
</event>
<event>
 6    1  0.3260141E-006  0.3969501E+03  0.7546771E-02  0.9665455E-01
        -11   -1    0    0    0    0  0.00000000000E+00  0.00000000000E+00  0.50000000000E+03  0.50000000000E+03  0.00000000000E+00 0.  1.
         11   -1    0    0    0    0 -0.00000000000E+00 -0.00000000000E+00 -0.50000000000E+03  0.50000000000E+03  0.00000000000E+00 0.  1.
        -11    1    1    2    0    0  0.15025367202E+03 -0.91918560646E+01  0.39957337199E+03  0.42698891763E+03  0.00000000000E+00 0.  1.
         11    1    1    2    0    0  0.77424705357E+02  0.45548137257E+02 -0.19888380742E+03  0.21822920671E+03  0.00000000000E+00 0.  1.
        -15    1    1    2    0    0 -0.55131618869E+02  0.34644092621E+02  0.17735190212E+02  0.67508542079E+02  0.17770000000E+01 0. -1.
         15    1    1    2    0    0 -0.17254675851E+03 -0.71000373814E+02 -0.21842475479E+03  0.28727333358E+03  0.17770000000E+01 0.  1.
</event>
<event>
 7    1  0.3260141E-006  0.4264144E+03  0.7546771E-02  0.9581421E-01
        -11   -1    0    0    0    0  0.00000000000E+00  0.00000000000E+00  0.50000000000E+03  0.50000000000E+03  0.00000000000E+00 0. -1.
         11   -1    0    0    0    0 -0.00000000000E+00 -0.00000000000E+00 -0.50000000000E+03  0.50000000000E+03  0.00000000000E+00 0.  1.
         23    2    1    2    0    0  0.77563668905E+02 -0.63954849800E+02  0.37336421482E+02  0.14045511802E+03  0.90704389433E+02 0.  0.
        -11    1    1    2    0    0 -0.26548076920E+03  0.15969288217E+03  0.31950157196E+03  0.44504281807E+03  0.00000000000E+00 0. -1.
         11    1    1    2    0    0  0.18791710029E+03 -0.95738032366E+02 -0.35683799344E+03  0.41450206391E+03  0.00000000000E+00 0.  1.
        -15    1    3    3    0    0  0.57008759381E+02  0.10035001673E+02  0.91314957410E+01  0.58627995431E+02  0.17770000000E+01 0.  1.
         15    1    3    3    0    0  0.20554909524E+02 -0.73989851473E+02  0.28204925741E+02  0.81827122592E+02  0.17770000000E+01 0. -1.
</event>
<event>
 7    1  0.3260141E-006  0.3749783E+03  0.7546771E-02  0.9733365E-01
        -11   -1    0    0    0    0  0.00000000000E+00  0.00000000000E+00  0.50000000000E+03  0.50000000000E+03  0.00000000000E+00 0.  1.
         11   -1    0    0    0    0 -0.00000000000E+00 -0.00000000000E+00 -0.50000000000E+03  0.50000000000E+03  0.00000000000E+00 0. -1.
         23    2    1    2    0    0 -0.94333047923E+02  0.13276257129E+03  0.12097470520E+03  0.22308668693E+03  0.92780204375E+02 0.  0.
        -11    1    1    2    0    0  0.20212143909E+02 -0.15626025868E+03  0.30532366095E+03  0.34358163097E+03  0.00000000000E+00 0.  1.
         11    1    1    2    0    0  0.74120904015E+02  0.23497687393E+02 -0.42629836615E+03  0.43333168209E+03  0.00000000000E+00 0. -1.
        -15    1    3    3    0    0 -0.51520740761E+02  0.10511670054E+03  0.12581753549E+03  0.17186365942E+03  0.17770000000E+01 0.  1.
         15    1    3    3    0    0 -0.42812307162E+02  0.27645870747E+02 -0.48428302944E+01  0.51223027519E+02  0.17770000000E+01 0. -1.
</event>
<event>
 7    1  0.3260141E-006  0.5170915E+03  0.7546771E-02  0.9362358E-01
        -11   -1    0    0    0    0  0.00000000000E+00  0.00000000000E+00  0.50000000000E+03  0.50000000000E+03  0.00000000000E+00 0. -1.
         11   -1    0    0    0    0 -0.00000000000E+00 -0.00000000000E+00 -0.50000000000E+03  0.50000000000E+03  0.00000000000E+00 0. -1.
         23    2    1    2    0    0  0.20120790352E+01 -0.30957667548E+02  0.32327603237E+03  0.33659457118E+03  0.88465171691E+02 0.  0.
        -11    1    1    2    0    0 -0.49813914624E+02 -0.10601631607E+03  0.13732541611E+03  0.18049696749E+03  0.00000000000E+00 0. -1.
         11    1    1    2    0    0  0.47801835589E+02  0.13697398362E+03 -0.46060144848E+03  0.48290846132E+03  0.00000000000E+00 0. -1.
        -15    1    3    3    0    0  0.33636140302E+02  0.75186654591E+01  0.65404882693E+02  0.73951853755E+02  0.17770000000E+01 0.  1.
         15    1    3    3    0    0 -0.31624061267E+02 -0.38476333007E+02  0.25787114968E+03  0.26264271743E+03  0.17770000000E+01 0. -1.
</event>
<event>
 7    1  0.3260141E-006  0.5089902E+03  0.7546771E-02  0.9379915E-01
        -11   -1    0    0    0    0  0.00000000000E+00  0.00000000000E+00  0.50000000000E+03  0.50000000000E+03  0.00000000000E+00 0. -1.
         11   -1    0    0    0    0 -0.00000000000E+00 -0.00000000000E+00 -0.50000000000E+03  0.50000000000E+03  0.00000000000E+00 0.  1.
         23    2    1    2    0    0  0.37395552964E+02 -0.87786192390E+01  0.32025680945E+03  0.33471967231E+03  0.89427867575E+02 0.  0.
        -11    1    1    2    0    0  0.72534070403E+02 -0.16025650304E+02  0.15764577930E+03  0.17427049254E+03  0.00000000000E+00 0. -1.
         11    1    1    2    0    0 -0.10992962337E+03  0.24804269543E+02 -0.47790258875E+03  0.49100983515E+03  0.00000000000E+00 0.  1.
        -15    1    3    3    0    0 -0.15386856185E+02 -0.16445828155E+02  0.21341407545E+02  0.31077870133E+02  0.17770000000E+01 0.  1.
         15    1    3    3    0    0  0.52782409149E+02  0.76672089162E+01  0.29891540190E+03  0.30364180218E+03  0.17770000000E+01 0. -1.
</event>
<event>
 7    1  0.3260141E-006  0.4054072E+03  0.7546771E-02  0.9640558E-01
        -11   -1    0    0    0    0  0.00000000000E+00  0.00000000000E+00  0.50000000000E+03  0.50000000000E+03  0.00000000000E+00 0. -1.
         11   -1    0    0    0    0 -0.00000000000E+00 -0.00000000000E+00 -0.50000000000E+03  0.50000000000E+03  0.00000000000E+00 0. -1.
         23    2    1    2    0    0 -0.20359628132E+02  0.67749867720E+02  0.35185297789E+03  0.36919504317E+03  0.86601979280E+02 0.  0.
        -11    1    1    2    0    0 -0.13422198291E+02 -0.15359852448E+03  0.90602504975E+02  0.17883365466E+03  0.00000000000E+00 0. -1.
         11    1    1    2    0    0  0.33781826423E+02  0.85848656764E+02 -0.44245548287E+03  0.45197130217E+03  0.00000000000E+00 0. -1.
        -15    1    3    3    0    0  0.14035949970E+02 -0.15941443496E+02  0.65345869819E+02  0.68734110482E+02  0.17770000000E+01 0.  1.
         15    1    3    3    0    0 -0.34395578102E+02  0.83691311216E+02  0.28650710808E+03  0.30046093269E+03  0.17770000000E+01 0. -1.
</event>
<event>
 7    1  0.3260141E-006  0.4059767E+03  0.7546771E-02  0.9638905E-01
        -11   -1    0    0    0    0  0.00000000000E+00  0.00000000000E+00  0.50000000000E+03  0.50000000000E+03  0.00000000000E+00 0.  1.
         11   -1    0    0    0    0 -0.00000000000E+00 -0.00000000000E+00 -0.50000000000E+03  0.50000000000E+03  0.00000000000E+00 0. -1.
         23    2    1    2    0    0  0.72247134247E+02 -0.35832677614E+02  0.12490026242E+03  0.17454744668E+03  0.91450021325E+02 0.  0.
        -11    1    1    2    0    0  0.77455700642E+02  0.28637324480E+03  0.22315475869E+03  0.37122374281E+03  0.00000000000E+00 0.  1.
         11    1    1    2    0    0 -0.14970283489E+03 -0.25054056718E+03 -0.34805502111E+03  0.45422881051E+03  0.00000000000E+00 0. -1.
        -15    1    3    3    0    0  0.56460217814E+01  0.22341987962E+02  0.20973599875E+01  0.23207727937E+02  0.17770000000E+01 0. -1.
         15    1    3    3    0    0  0.66601112466E+02 -0.58174665576E+02  0.12280290243E+03  0.15133971875E+03  0.17770000000E+01 0.  1.
</event>
<event>
 7    1  0.3260141E-006  0.5362959E+03  0.7546771E-02  0.9322068E-01
        -11   -1    0    0    0    0  0.00000000000E+00  0.00000000000E+00  0.50000000000E+03  0.50000000000E+03  0.00000000000E+00 0. -1.
         11   -1    0    0    0    0 -0.00000000000E+00 -0.00000000000E+00 -0.50000000000E+03  0.50000000000E+03  0.00000000000E+00 0. -1.
         23    2    1    2    0    0 -0.69814598348E+02 -0.53664093168E+02 -0.66182291581E+02  0.14101184814E+03  0.88035973095E+02 0.  0.
        -11    1    1    2    0    0  0.18530292836E+03 -0.92175634229E+02  0.41495540551E+03  0.46370412049E+03  0.00000000000E+00 0. -1.
         11    1    1    2    0    0 -0.11548833001E+03  0.14583972740E+03 -0.34877311393E+03  0.39528403137E+03  0.00000000000E+00 0. -1.
        -15    1    3    3    0    0  0.87208289588E+01  0.14999840939E+02  0.28877216854E-01  0.17441520828E+02  0.17770000000E+01 0. -1.
         15    1    3    3    0    0 -0.78535427307E+02 -0.68663934107E+02 -0.66211168798E+02  0.12357032731E+03  0.17770000000E+01 0.  1.
</event>
<event>
 7    1  0.3260141E-006  0.5138836E+03  0.7546771E-02  0.9369269E-01
        -11   -1    0    0    0    0  0.00000000000E+00  0.00000000000E+00  0.50000000000E+03  0.50000000000E+03  0.00000000000E+00 0. -1.
         11   -1    0    0    0    0 -0.00000000000E+00 -0.00000000000E+00 -0.50000000000E+03  0.50000000000E+03  0.00000000000E+00 0. -1.
         23    2    1    2    0    0 -0.11928673844E+03  0.21707920886E+02 -0.32776604754E+03  0.36053077024E+03  0.88607531160E+02 0.  0.
        -11    1    1    2    0    0  0.86961727115E+02 -0.24487718643E+02  0.47764752720E+03  0.48611639613E+03  0.00000000000E+00 0. -1.
         11    1    1    2    0    0  0.32325011322E+02  0.27797977574E+01 -0.14988147967E+03  0.15335283362E+03  0.00000000000E+00 0. -1.
        -15    1    3    3    0    0 -0.55106826574E+02 -0.58736779720E+01 -0.24959667504E+03  0.25568128666E+03  0.17770000000E+01 0. -1.
         15    1    3    3    0    0 -0.64179911863E+02  0.27581598858E+02 -0.78169372498E+02  0.10484948358E+03  0.17770000000E+01 0.  1.
</event>
<event>
 7    1  0.3260141E-006  0.4151606E+03  0.7546771E-02  0.9612637E-01
        -11   -1    0    0    0    0  0.00000000000E+00  0.00000000000E+00  0.50000000000E+03  0.50000000000E+03  0.00000000000E+00 0.  1.
         11   -1    0    0    0    0 -0.00000000000E+00 -0.00000000000E+00 -0.50000000000E+03  0.50000000000E+03  0.00000000000E+00 0. -1.
         23    2    1    2    0    0  0.29180722632E+03 -0.23941902880E+03  0.74003309410E+02  0.39595170159E+03  0.93959201285E+02 0.  0.
        -11    1    1    2    0    0 -0.27756967459E+03  0.33632323893E+03  0.57748613364E+02  0.43987856011E+03  0.00000000000E+00 0.  1.
         11    1    1    2    0    0 -0.14237551721E+02 -0.96904210124E+02 -0.13175192277E+03  0.16416973830E+03  0.00000000000E+00 0. -1.
        -15    1    3    3    0    0  0.24693643207E+03 -0.15721760173E+03  0.75312732255E+02  0.30227494297E+03  0.17770000000E+01 0.  1.
         15    1    3    3    0    0  0.44870794248E+02 -0.82201427075E+02 -0.13094228455E+01  0.93676758626E+02  0.17770000000E+01 0. -1.
</event>
<event>
 7    1  0.3260141E-006  0.3663152E+03  0.7546771E-02  0.9761524E-01
        -11   -1    0    0    0    0  0.00000000000E+00  0.00000000000E+00  0.50000000000E+03  0.50000000000E+03  0.00000000000E+00 0. -1.
         11   -1    0    0    0    0 -0.00000000000E+00 -0.00000000000E+00 -0.50000000000E+03  0.50000000000E+03  0.00000000000E+00 0. -1.
         23    2    1    2    0    0 -0.87914083743E+02 -0.49770555056E+02  0.33637540393E+03  0.36341239079E+03  0.93349660612E+02 0.  0.
        -11    1    1    2    0    0  0.22643920429E+03 -0.79965557430E+02  0.11379102281E+02  0.24041357612E+03  0.00000000000E+00 0. -1.
         11    1    1    2    0    0 -0.13852512055E+03  0.12973611249E+03 -0.34775450621E+03  0.39617403309E+03  0.00000000000E+00 0. -1.
        -15    1    3    3    0    0 -0.31081098263E+02 -0.18449033490E+02  0.21882731458E+02  0.42289634321E+02  0.17770000000E+01 0.  1.
         15    1    3    3    0    0 -0.56832985480E+02 -0.31321521566E+02  0.31449267247E+03  0.32112275646E+03  0.17770000000E+01 0. -1.
</event>
<event>
 7    1  0.3260141E-006  0.5145911E+03  0.7546771E-02  0.9367740E-01
        -11   -1    0    0    0    0  0.00000000000E+00  0.00000000000E+00  0.50000000000E+03  0.50000000000E+03  0.00000000000E+00 0. -1.
         11   -1    0    0    0    0 -0.00000000000E+00 -0.00000000000E+00 -0.50000000000E+03  0.50000000000E+03  0.00000000000E+00 0.  1.
         23    2    1    2    0    0  0.11788747963E+03 -0.10106165477E+02 -0.18066019556E+03  0.23489374060E+03  0.92397893270E+02 0.  0.
        -11    1    1    2    0    0 -0.16742064231E+03  0.54074630201E+02  0.45240249663E+03  0.48540885453E+03  0.00000000000E+00 0. -1.
         11    1    1    2    0    0  0.49533162681E+02 -0.43968464724E+02 -0.27174230107E+03  0.27969740486E+03  0.00000000000E+00 0.  1.
        -15    1    3    3    0    0  0.96634958908E+02  0.21245309476E+02 -0.79747559102E+02  0.12709252287E+03  0.17770000000E+01 0.  1.
         15    1    3    3    0    0  0.21252520722E+02 -0.31351474953E+02 -0.10091263646E+03  0.10780121773E+03  0.17770000000E+01 0. -1.
</event>
<event>
 7    1  0.3260141E-006  0.5222097E+03  0.7546771E-02  0.9351441E-01
        -11   -1    0    0    0    0  0.00000000000E+00  0.00000000000E+00  0.50000000000E+03  0.50000000000E+03  0.00000000000E+00 0. -1.
         11   -1    0    0    0    0 -0.00000000000E+00 -0.00000000000E+00 -0.50000000000E+03  0.50000000000E+03  0.00000000000E+00 0. -1.
         23    2    1    2    0    0 -0.19494043801E+01 -0.26679737413E+02  0.16961069913E+03  0.19110067685E+03  0.83881290339E+02 0.  0.
        -11    1    1    2    0    0 -0.12995926559E+03  0.11941760040E+03  0.28014853934E+03  0.33110901240E+03  0.00000000000E+00 0. -1.
         11    1    1    2    0    0  0.13190866997E+03 -0.92737862987E+02 -0.44975923847E+03  0.47779031074E+03  0.00000000000E+00 0. -1.
        -15    1    3    3    0    0  0.35021437799E+02 -0.23115400995E+02  0.47267237189E+02  0.63231102388E+02  0.17770000000E+01 0.  1.
         15    1    3    3    0    0 -0.36970842179E+02 -0.35643364176E+01  0.12234346194E+03  0.12786957447E+03  0.17770000000E+01 0. -1.
</event>
<event>
 7    1  0.3260141E-006  0.5290113E+03  0.7546771E-02  0.9337137E-01
        -11   -1    0    0    0    0  0.00000000000E+00  0.00000000000E+00  0.50000000000E+03  0.50000000000E+03  0.00000000000E+00 0. -1.
         11   -1    0    0    0    0 -0.00000000000E+00 -0.00000000000E+00 -0.50000000000E+03  0.50000000000E+03  0.00000000000E+00 0.  1.
         23    2    1    2    0    0  0.69116405048E+02 -0.11011640993E+02 -0.64396742757E+02  0.13027218905E+03  0.89025665271E+02 0.  0.
        -11    1    1    2    0    0 -0.13686645570E+03 -0.12582501145E+03  0.43274241737E+03  0.47098870474E+03  0.00000000000E+00 0. -1.
         11    1    1    2    0    0  0.67750050656E+02  0.13683665244E+03 -0.36834567462E+03  0.39873910621E+03  0.00000000000E+00 0.  1.
        -15    1    3    3    0    0 -0.52463678566E+00  0.10559184050E+02 -0.55822928112E+02  0.56843017545E+02  0.17770000000E+01 0.  1.
         15    1    3    3    0    0  0.69641041834E+02 -0.21570825043E+02 -0.85738146445E+01  0.73429171501E+02  0.17770000000E+01 0. -1.
</event>
<event>
 7    1  0.3260141E-006  0.5130436E+03  0.7546771E-02  0.9371087E-01
        -11   -1    0    0    0    0  0.00000000000E+00  0.00000000000E+00  0.50000000000E+03  0.50000000000E+03  0.00000000000E+00 0.  1.
         11   -1    0    0    0    0 -0.00000000000E+00 -0.00000000000E+00 -0.50000000000E+03  0.50000000000E+03  0.00000000000E+00 0. -1.
         23    2    1    2    0    0  0.16986048451E+03 -0.15718259458E+03 -0.32158711738E+03  0.40685898782E+03  0.92504106256E+02 0.  0.
        -11    1    1    2    0    0 -0.17219418118E+03  0.24132859612E+03  0.38631099800E+03  0.48695637845E+03  0.00000000000E+00 0.  1.
         11    1    1    2    0    0  0.23336966704E+01 -0.84146001545E+02 -0.64723880624E+02  0.10618463372E+03  0.00000000000E+00 0. -1.
        -15    1    3    3    0    0  0.15170612161E+02 -0.32393798737E+02 -0.98390228170E+01  0.37141213886E+02  0.17770000000E+01 0.  1.
         15    1    3    3    0    0  0.15468987235E+03 -0.12478879584E+03 -0.31174809456E+03  0.36971777394E+03  0.17770000000E+01 0. -1.
</event>
<event>
 7    1  0.3260141E-006  0.4013930E+03  0.7546771E-02  0.9652294E-01
        -11   -1    0    0    0    0  0.00000000000E+00  0.00000000000E+00  0.50000000000E+03  0.50000000000E+03  0.00000000000E+00 0.  1.
         11   -1    0    0    0    0 -0.00000000000E+00 -0.00000000000E+00 -0.50000000000E+03  0.50000000000E+03  0.00000000000E+00 0. -1.
         23    2    1    2    0    0  0.11183738885E+03  0.54978348360E+02  0.36025750672E+03  0.39198477364E+03  0.91303730950E+02 0.  0.
        -11    1    1    2    0    0 -0.17670604105E+03  0.35386275631E+02  0.46668712856E+02  0.18615902397E+03  0.00000000000E+00 0.  1.
         11    1    1    2    0    0  0.64868652202E+02 -0.90364623990E+02 -0.40692621958E+03  0.42185620238E+03  0.00000000000E+00 0. -1.
        -15    1    3    3    0    0  0.10853176454E+03  0.75003725889E+02  0.33104929953E+03  0.35637269713E+03  0.17770000000E+01 0.  1.
         15    1    3    3    0    0  0.33056243148E+01 -0.20025377530E+02  0.29208207192E+02  0.35612076514E+02  0.17770000000E+01 0. -1.
</event>
<event>
 7    1  0.3260141E-006  0.5105538E+03  0.7546771E-02  0.9376500E-01
        -11   -1    0    0    0    0  0.00000000000E+00  0.00000000000E+00  0.50000000000E+03  0.50000000000E+03  0.00000000000E+00 0.  1.
         11   -1    0    0    0    0 -0.00000000000E+00 -0.00000000000E+00 -0.50000000000E+03  0.50000000000E+03  0.00000000000E+00 0. -1.
         23    2    1    2    0    0 -0.13684434341E-01  0.68054133805E+02 -0.24518344706E+03  0.27018256090E+03  0.90842325968E+02 0.  0.
        -11    1    1    2    0    0  0.48375136335E+02 -0.80857311735E+02  0.48029106232E+03  0.48944618011E+03  0.00000000000E+00 0.  1.
         11    1    1    2    0    0 -0.48361451900E+02  0.12803177930E+02 -0.23510761526E+03  0.24037125899E+03  0.00000000000E+00 0. -1.
        -15    1    3    3    0    0 -0.12219085997E+02 -0.19591780107E+02 -0.72953040190E+02  0.76540497205E+02  0.17770000000E+01 0. -1.
         15    1    3    3    0    0  0.12205401563E+02  0.87645913912E+02 -0.17223040687E+03  0.19364206370E+03  0.17770000000E+01 0.  1.
</event>
<event>
 7    1  0.3260141E-006  0.5213651E+03  0.7546771E-02  0.9353233E-01
        -11   -1    0    0    0    0  0.00000000000E+00  0.00000000000E+00  0.50000000000E+03  0.50000000000E+03  0.00000000000E+00 0.  1.
         11   -1    0    0    0    0 -0.00000000000E+00 -0.00000000000E+00 -0.50000000000E+03  0.50000000000E+03  0.00000000000E+00 0. -1.
         23    2    1    2    0    0 -0.23138361460E+01 -0.63836655254E+02  0.36325396687E+03  0.38592346908E+03  0.11359140438E+03 0.  0.
        -11    1    1    2    0    0  0.24185695307E+02 -0.10268064785E+03  0.84948004739E+02  0.13544159926E+03  0.00000000000E+00 0.  1.
         11    1    1    2    0    0 -0.21871859161E+02  0.16651730310E+03 -0.44820197161E+03  0.47863493166E+03  0.00000000000E+00 0. -1.
        -15    1    3    3    0    0  0.14818606344E+02 -0.61775941563E+02  0.36305456342E+03  0.36857513725E+03  0.17770000000E+01 0.  1.
         15    1    3    3    0    0 -0.17132442490E+02 -0.20607136906E+01  0.19940344869E+00  0.17348331831E+02  0.17770000000E+01 0. -1.
</event>
<event>
 7    1  0.3260141E-006  0.4779456E+03  0.7546771E-02  0.9450557E-01
        -11   -1    0    0    0    0  0.00000000000E+00  0.00000000000E+00  0.50000000000E+03  0.50000000000E+03  0.00000000000E+00 0.  1.
         11   -1    0    0    0    0 -0.00000000000E+00 -0.00000000000E+00 -0.50000000000E+03  0.50000000000E+03  0.00000000000E+00 0.  1.
         23    2    1    2    0    0  0.42834804416E+02  0.27952240498E+02  0.46026461570E+03  0.47184122800E+03  0.90412829602E+02 0.  0.
        -11    1    1    2    0    0  0.43402469104E+02  0.26887651955E+02  0.54654274398E+01  0.51347746290E+02  0.00000000000E+00 0.  1.
         11    1    1    2    0    0 -0.86237273520E+02 -0.54839892453E+02 -0.46573004314E+03  0.47681102571E+03  0.00000000000E+00 0.  1.
        -15    1    3    3    0    0 -0.22455020778E+02  0.23803300665E+02  0.88773321875E+02  0.94629199967E+02  0.17770000000E+01 0. -1.
         15    1    3    3    0    0  0.65289825195E+02  0.41489398325E+01  0.37149129383E+03  0.37721202804E+03  0.17770000000E+01 0.  1.
</event>
<event>
 7    1  0.3260141E-006  0.5263855E+03  0.7546771E-02  0.9342632E-01
        -11   -1    0    0    0    0  0.00000000000E+00  0.00000000000E+00  0.50000000000E+03  0.50000000000E+03  0.00000000000E+00 0.  1.
         11   -1    0    0    0    0 -0.00000000000E+00 -0.00000000000E+00 -0.50000000000E+03  0.50000000000E+03  0.00000000000E+00 0.  1.
         23    2    1    2    0    0  0.56750601940E+01  0.19624728362E+03  0.42113716354E+03  0.47361454442E+03  0.91700728081E+02 0.  0.
        -11    1    1    2    0    0  0.50790772539E+02 -0.21598132220E+03 -0.20484674980E+03  0.30197653058E+03  0.00000000000E+00 0.  1.
         11    1    1    2    0    0 -0.56465832733E+02  0.19734038581E+02 -0.21629041374E+03  0.22440892501E+03  0.00000000000E+00 0.  1.
        -15    1    3    3    0    0 -0.20800216795E+02  0.82476370407E+02  0.26687658836E+03  0.28010939262E+03  0.17770000000E+01 0. -1.
         15    1    3    3    0    0  0.26475276989E+02  0.11377091321E+03  0.15426057519E+03  0.19350515179E+03  0.17770000000E+01 0.  1.
</event>
<event>
 7    1  0.3260141E-006  0.4578519E+03  0.7546771E-02  0.9499396E-01
        -11   -1    0    0    0    0  0.00000000000E+00  0.00000000000E+00  0.50000000000E+03  0.50000000000E+03  0.00000000000E+00 0.  1.
         11   -1    0    0    0    0 -0.00000000000E+00 -0.00000000000E+00 -0.50000000000E+03  0.50000000000E+03  0.00000000000E+00 0.  1.
         23    2    1    2    0    0 -0.27491823588E+02 -0.12316585273E+02  0.43596516764E+03  0.44608046874E+03  0.89524625457E+02 0.  0.
        -11    1    1    2    0    0 -0.43993950026E+02  0.74657250054E+02  0.19383555371E+02  0.88796930371E+02  0.00000000000E+00 0.  1.
         11    1    1    2    0    0  0.71485773614E+02 -0.62340664781E+02 -0.45534872301E+03  0.46512260089E+03  0.00000000000E+00 0.  1.
        -15    1    3    3    0    0 -0.59349366444E+02 -0.39081309783E+01  0.32123314291E+03  0.32669788891E+03  0.17770000000E+01 0.  1.
         15    1    3    3    0    0  0.31857542856E+02 -0.84084542948E+01  0.11473202472E+03  0.11938257983E+03  0.17770000000E+01 0. -1.
</event>
<event>
 7    1  0.3260141E-006  0.3501108E+03  0.7546771E-02  0.9816503E-01
        -11   -1    0    0    0    0  0.00000000000E+00  0.00000000000E+00  0.50000000000E+03  0.50000000000E+03  0.00000000000E+00 0.  1.
         11   -1    0    0    0    0 -0.00000000000E+00 -0.00000000000E+00 -0.50000000000E+03  0.50000000000E+03  0.00000000000E+00 0. -1.
         23    2    1    2    0    0  0.19535414354E+03  0.13645398386E+03  0.38644905001E+02  0.25933366868E+03  0.94750155249E+02 0.  0.
        -11    1    1    2    0    0 -0.13521961119E+03 -0.22016638955E+03  0.29459702155E+03  0.39184816887E+03  0.00000000000E+00 0.  1.
         11    1    1    2    0    0 -0.60134532345E+02  0.83712405691E+02 -0.33324192655E+03  0.34881816245E+03  0.00000000000E+00 0. -1.
        -15    1    3    3    0    0  0.14385812994E+03  0.14237799926E+03  0.44172390199E+02  0.20717387385E+03  0.17770000000E+01 0.  1.
         15    1    3    3    0    0  0.51496013594E+02 -0.59240153974E+01 -0.55274851979E+01  0.52159794825E+02  0.17770000000E+01 0. -1.
</event>
<event>
 7    1  0.3260141E-006  0.5138971E+03  0.7546771E-02  0.9369240E-01
        -11   -1    0    0    0    0  0.00000000000E+00  0.00000000000E+00  0.50000000000E+03  0.50000000000E+03  0.00000000000E+00 0.  1.
         11   -1    0    0    0    0 -0.00000000000E+00 -0.00000000000E+00 -0.50000000000E+03  0.50000000000E+03  0.00000000000E+00 0. -1.
         23    2    1    2    0    0  0.17106762705E+02  0.51224825150E+00  0.26739340228E+03  0.28464228858E+03  0.96068190054E+02 0.  0.
        -11    1    1    2    0    0 -0.12465416428E+02 -0.90424255622E+02  0.21029934656E+03  0.22925476609E+03  0.00000000000E+00 0.  1.
         11    1    1    2    0    0 -0.46413462775E+01  0.89912007371E+02 -0.47769274884E+03  0.48610294533E+03  0.00000000000E+00 0. -1.
        -15    1    3    3    0    0  0.49156131308E+02 -0.25525722580E+02  0.17118411698E+03  0.17993067386E+03  0.17770000000E+01 0.  1.
         15    1    3    3    0    0 -0.32049368603E+02  0.26037970831E+02  0.96209285295E+02  0.10471161473E+03  0.17770000000E+01 0. -1.
</event>
<event>
 7    1  0.3260141E-006  0.5138614E+03  0.7546771E-02  0.9369317E-01
        -11   -1    0    0    0    0  0.00000000000E+00  0.00000000000E+00  0.50000000000E+03  0.50000000000E+03  0.00000000000E+00 0. -1.
         11   -1    0    0    0    0 -0.00000000000E+00 -0.00000000000E+00 -0.50000000000E+03  0.50000000000E+03  0.00000000000E+00 0. -1.
         23    2    1    2    0    0 -0.82649796518E+02  0.48867240181E+01  0.19006563183E+03  0.22680549074E+03  0.91983244620E+02 0.  0.
        -11    1    1    2    0    0 -0.14924976764E+03  0.98772637831E+02  0.22443169699E+03  0.28705594182E+03  0.00000000000E+00 0. -1.
         11    1    1    2    0    0  0.23189956415E+03 -0.10365936185E+03 -0.41449732882E+03  0.48613856744E+03  0.00000000000E+00 0. -1.
        -15    1    3    3    0    0 -0.50079152995E+02  0.39731931428E+02  0.15471109682E+03  0.16740737483E+03  0.17770000000E+01 0. -1.
         15    1    3    3    0    0 -0.32570643523E+02 -0.34845207410E+02  0.35354535016E+02  0.59398115914E+02  0.17770000000E+01 0.  1.
</event>
<event>
 7    1  0.3260141E-006  0.4101907E+03  0.7546771E-02  0.9626761E-01
        -11   -1    0    0    0    0  0.00000000000E+00  0.00000000000E+00  0.50000000000E+03  0.50000000000E+03  0.00000000000E+00 0.  1.
         11   -1    0    0    0    0 -0.00000000000E+00 -0.00000000000E+00 -0.50000000000E+03  0.50000000000E+03  0.00000000000E+00 0. -1.
         23    2    1    2    0    0 -0.10825025248E+03 -0.34388593682E+01 -0.89926479620E+02  0.16762851934E+03  0.91008822892E+02 0.  0.
        -11    1    1    2    0    0 -0.43236061264E+02  0.20176966067E+03  0.39051669902E+03  0.44168274267E+03  0.00000000000E+00 0.  1.
         11    1    1    2    0    0  0.15148631374E+03 -0.19833080131E+03 -0.30059021940E+03  0.39068873799E+03  0.00000000000E+00 0. -1.
        -15    1    3    3    0    0  0.60802102039E+01 -0.87760513104E+01 -0.42273314049E+02  0.43636897718E+02  0.17770000000E+01 0. -1.
         15    1    3    3    0    0 -0.11433046268E+03  0.53371919423E+01 -0.47653165570E+02  0.12399162162E+03  0.17770000000E+01 0.  1.
</event>
<event>
 7    1  0.3260141E-006  0.5176698E+03  0.7546771E-02  0.9361118E-01
        -11   -1    0    0    0    0  0.00000000000E+00  0.00000000000E+00  0.50000000000E+03  0.50000000000E+03  0.00000000000E+00 0.  1.
         11   -1    0    0    0    0 -0.00000000000E+00 -0.00000000000E+00 -0.50000000000E+03  0.50000000000E+03  0.00000000000E+00 0. -1.
         23    2    1    2    0    0  0.75143605807E+02 -0.15983871459E+03 -0.36897453354E+03  0.41939610481E+03  0.92498162996E+02 0.  0.
        -11    1    1    2    0    0 -0.48246899354E+02  0.13563635767E+03  0.46034487421E+03  0.48233016496E+03  0.00000000000E+00 0.  1.
         11    1    1    2    0    0 -0.26896706453E+02  0.24202356915E+02 -0.91370340674E+02  0.98273730229E+02  0.00000000000E+00 0. -1.
        -15    1    3    3    0    0 -0.16498585105E+02 -0.16148476541E+02 -0.18356226803E+02  0.29548018487E+02  0.17770000000E+01 0.  1.
         15    1    3    3    0    0  0.91642190912E+02 -0.14369023805E+03 -0.35061830673E+03  0.38984808632E+03  0.17770000000E+01 0. -1.
</event>
<event>
 7    1  0.3260141E-006  0.2970424E+03  0.7546771E-02  0.1002167E+00
        -11   -1    0    0    0    0  0.00000000000E+00  0.00000000000E+00  0.50000000000E+03  0.50000000000E+03  0.00000000000E+00 0. -1.
         11   -1    0    0    0    0 -0.00000000000E+00 -0.00000000000E+00 -0.50000000000E+03  0.50000000000E+03  0.00000000000E+00 0.  1.
         23    2    1    2    0    0  0.21104851763E+03  0.22058093161E+03  0.77487104901E+02  0.32758762588E+03  0.90066514417E+02 0.  0.
        -11    1    1    2    0    0 -0.11916125635E+03 -0.19759486116E+03  0.24485160503E+03  0.33644530410E+03  0.00000000000E+00 0. -1.
         11    1    1    2    0    0 -0.91887261280E+02 -0.22986070454E+02 -0.32233870993E+03  0.33596707002E+03  0.00000000000E+00 0.  1.
        -15    1    3    3    0    0  0.21633472868E+03  0.20128785958E+03  0.82669629368E+02  0.30684677381E+03  0.17770000000E+01 0.  1.
         15    1    3    3    0    0 -0.52862110548E+01  0.19293072027E+02 -0.51825244677E+01  0.20740852066E+02  0.17770000000E+01 0. -1.
</event>
<event>
 7    1  0.3260141E-006  0.3763185E+03  0.7546771E-02  0.9729082E-01
        -11   -1    0    0    0    0  0.00000000000E+00  0.00000000000E+00  0.50000000000E+03  0.50000000000E+03  0.00000000000E+00 0.  1.
         11   -1    0    0    0    0 -0.00000000000E+00 -0.00000000000E+00 -0.50000000000E+03  0.50000000000E+03  0.00000000000E+00 0. -1.
         23    2    1    2    0    0  0.17524290323E+03  0.70885368597E+02 -0.59704483206E+02  0.22169298397E+03  0.99238819077E+02 0.  0.
        -11    1    1    2    0    0 -0.10340541417E+03 -0.78472538807E+02  0.40512508237E+03  0.42541385895E+03  0.00000000000E+00 0.  1.
         11    1    1    2    0    0 -0.71837489059E+02  0.75871702105E+01 -0.34542059916E+03  0.35289315708E+03  0.00000000000E+00 0. -1.
        -15    1    3    3    0    0  0.13100360212E+03  0.47086609933E+01 -0.19652569183E+02  0.13256506501E+03  0.17770000000E+01 0. -1.
         15    1    3    3    0    0  0.44239301115E+02  0.66176707604E+02 -0.40051914023E+02  0.89127918961E+02  0.17770000000E+01 0.  1.
</event>
<event>
 7    1  0.3260141E-006  0.5086542E+03  0.7546771E-02  0.9380651E-01
        -11   -1    0    0    0    0  0.00000000000E+00  0.00000000000E+00  0.50000000000E+03  0.50000000000E+03  0.00000000000E+00 0.  1.
         11   -1    0    0    0    0 -0.00000000000E+00 -0.00000000000E+00 -0.50000000000E+03  0.50000000000E+03  0.00000000000E+00 0.  1.
         23    2    1    2    0    0 -0.75920866278E+02 -0.33082251488E+01  0.29699331529E+03  0.31971417237E+03  0.90759023777E+02 0.  0.
        -11    1    1    2    0    0 -0.13020565791E+02 -0.39260158025E+02  0.18435687286E+03  0.18894007440E+03  0.00000000000E+00 0.  1.
         11    1    1    2    0    0  0.88941432068E+02  0.42568383174E+02 -0.48135018815E+03  0.49134575323E+03  0.00000000000E+00 0.  1.
        -15    1    3    3    0    0 -0.55669347413E+02  0.88494811481E+01  0.28939351777E+03  0.29483750680E+03  0.17770000000E+01 0.  1.
         15    1    3    3    0    0 -0.20251518864E+02 -0.12157706297E+02  0.75997975223E+01  0.24876665574E+02  0.17770000000E+01 0. -1.
</event>
<event>
 7    1  0.3260141E-006  0.5335710E+03  0.7546771E-02  0.9327674E-01
        -11   -1    0    0    0    0  0.00000000000E+00  0.00000000000E+00  0.50000000000E+03  0.50000000000E+03  0.00000000000E+00 0. -1.
         11   -1    0    0    0    0 -0.00000000000E+00 -0.00000000000E+00 -0.50000000000E+03  0.50000000000E+03  0.00000000000E+00 0. -1.
         23    2    1    2    0    0  0.33153913529E+02  0.21879681106E+02  0.37012938966E+03  0.38347270857E+03  0.92074158693E+02 0.  0.
        -11    1    1    2    0    0 -0.81377660467E+02 -0.89522252068E+02  0.88842237523E+02  0.15009830248E+03  0.00000000000E+00 0. -1.
         11    1    1    2    0    0  0.48223746939E+02  0.67642570962E+02 -0.45897162718E+03  0.46642898895E+03  0.00000000000E+00 0. -1.
        -15    1    3    3    0    0  0.24646324871E+02 -0.34089474368E+02  0.12559029116E+03  0.13245985261E+03  0.17770000000E+01 0. -1.
         15    1    3    3    0    0  0.85075886576E+01  0.55969155474E+02  0.24453909850E+03  0.25101285596E+03  0.17770000000E+01 0.  1.
</event>
<event>
 7    1  0.3260141E-006  0.5385199E+03  0.7546771E-02  0.9317518E-01
        -11   -1    0    0    0    0  0.00000000000E+00  0.00000000000E+00  0.50000000000E+03  0.50000000000E+03  0.00000000000E+00 0.  1.
         11   -1    0    0    0    0 -0.00000000000E+00 -0.00000000000E+00 -0.50000000000E+03  0.50000000000E+03  0.00000000000E+00 0. -1.
         23    2    1    2    0    0 -0.51233569285E+02 -0.73566084759E+02 -0.78028453756E+02  0.14950708324E+03  0.90703257360E+02 0.  0.
        -11    1    1    2    0    0 -0.10979608248E+03  0.13958974379E+03  0.42593830971E+03  0.46148014040E+03  0.00000000000E+00 0.  1.
         11    1    1    2    0    0  0.16102965177E+03 -0.66023659034E+02 -0.34790985596E+03  0.38901277636E+03  0.00000000000E+00 0. -1.
        -15    1    3    3    0    0 -0.40887665080E+02 -0.39539274469E+02 -0.94469879880E+02  0.11028540844E+03  0.17770000000E+01 0.  1.
         15    1    3    3    0    0 -0.10345904205E+02 -0.34026810290E+02  0.16441426124E+02  0.39221674803E+02  0.17770000000E+01 0. -1.
</event>
<event>
 7    1  0.3260141E-006  0.5195333E+03  0.7546771E-02  0.9357133E-01
        -11   -1    0    0    0    0  0.00000000000E+00  0.00000000000E+00  0.50000000000E+03  0.50000000000E+03  0.00000000000E+00 0.  1.
         11   -1    0    0    0    0 -0.00000000000E+00 -0.00000000000E+00 -0.50000000000E+03  0.50000000000E+03  0.00000000000E+00 0. -1.
         23    2    1    2    0    0  0.12514178870E+03 -0.53642199397E+02  0.39139999538E+03  0.42441515995E+03  0.91631429007E+02 0.  0.
        -11    1    1    2    0    0  0.10301154764E+02  0.64160202884E+02  0.69460935775E+02  0.95118173985E+02  0.00000000000E+00 0.  1.
         11    1    1    2    0    0 -0.13544294346E+03 -0.10518003487E+02 -0.46086093115E+03  0.48046666606E+03  0.00000000000E+00 0. -1.
        -15    1    3    3    0    0  0.56682801587E+02 -0.55409316250E+02  0.29934710470E+03  0.30966914465E+03  0.17770000000E+01 0.  1.
         15    1    3    3    0    0  0.68458987111E+02  0.17671168530E+01  0.92052890675E+02  0.11474601531E+03  0.17770000000E+01 0. -1.
</event>
<event>
 6    1  0.3260141E-006  0.5236337E+03  0.7546771E-02  0.9348427E-01
        -11   -1    0    0    0    0  0.00000000000E+00  0.00000000000E+00  0.50000000000E+03  0.50000000000E+03  0.00000000000E+00 0. -1.
         11   -1    0    0    0    0 -0.00000000000E+00 -0.00000000000E+00 -0.50000000000E+03  0.50000000000E+03  0.00000000000E+00 0. -1.
        -11    1    1    2    0    0  0.83823412224E+02  0.11236551911E+03  0.45527186459E+03  0.47636629290E+03  0.00000000000E+00 0. -1.
         11    1    1    2    0    0 -0.87570419694E+01 -0.97743867961E+02 -0.12099227091E+03  0.15578728808E+03  0.00000000000E+00 0. -1.
        -15    1    1    2    0    0 -0.58722668691E+02 -0.53477278150E+02 -0.30813635521E+03  0.31821273109E+03  0.17770000000E+01 0.  1.
         15    1    1    2    0    0 -0.16343701564E+02  0.38855627006E+02 -0.26143238468E+02  0.49633687928E+02  0.17770000000E+01 0. -1.
</event>
<event>
 7    1  0.3260141E-006  0.4290952E+03  0.7546771E-02  0.9574136E-01
        -11   -1    0    0    0    0  0.00000000000E+00  0.00000000000E+00  0.50000000000E+03  0.50000000000E+03  0.00000000000E+00 0.  1.
         11   -1    0    0    0    0 -0.00000000000E+00 -0.00000000000E+00 -0.50000000000E+03  0.50000000000E+03  0.00000000000E+00 0. -1.
         23    2    1    2    0    0 -0.14119449072E+03 -0.35800313672E+02  0.37569984906E+03  0.41321371146E+03  0.91529492968E+02 0.  0.
        -11    1    1    2    0    0 -0.12709982356E+03  0.55915085820E+02 -0.19231233453E+02  0.14018096273E+03  0.00000000000E+00 0.  1.
         11    1    1    2    0    0  0.26829431428E+03 -0.20114772149E+02 -0.35646861561E+03  0.44660532581E+03  0.00000000000E+00 0. -1.
        -15    1    3    3    0    0 -0.88978686590E+01  0.14352180435E+02  0.71285761124E+01  0.18415522700E+02  0.17770000000E+01 0. -1.
         15    1    3    3    0    0 -0.13229662206E+03 -0.50152494107E+02  0.36857127295E+03  0.39479818876E+03  0.17770000000E+01 0.  1.
</event>
<event>
 6    1  0.3260141E-006  0.5148213E+03  0.7546771E-02  0.9367243E-01
        -11   -1    0    0    0    0  0.00000000000E+00  0.00000000000E+00  0.50000000000E+03  0.50000000000E+03  0.00000000000E+00 0. -1.
         11   -1    0    0    0    0 -0.00000000000E+00 -0.00000000000E+00 -0.50000000000E+03  0.50000000000E+03  0.00000000000E+00 0. -1.
        -11    1    1    2    0    0  0.13347027737E+03  0.28458802243E+03  0.36958588896E+03  0.48517871632E+03  0.00000000000E+00 0. -1.
         11    1    1    2    0    0 -0.13265299092E+03 -0.27536719725E+03 -0.34803695856E+03  0.46319934568E+03  0.00000000000E+00 0. -1.
        -15    1    1    2    0    0  0.22006053203E+02 -0.83136460139E+01 -0.75344418649E+01  0.24765068763E+02  0.17770000000E+01 0. -1.
         15    1    1    2    0    0 -0.22823339650E+02 -0.90717916539E+00 -0.14014488543E+02  0.26856869232E+02  0.17770000000E+01 0.  1.
</event>
<event>
 7    1  0.3260141E-006  0.5108018E+03  0.7546771E-02  0.9375959E-01
        -11   -1    0    0    0    0  0.00000000000E+00  0.00000000000E+00  0.50000000000E+03  0.50000000000E+03  0.00000000000E+00 0.  1.
         11   -1    0    0    0    0 -0.00000000000E+00 -0.00000000000E+00 -0.50000000000E+03  0.50000000000E+03  0.00000000000E+00 0. -1.
         23    2    1    2    0    0 -0.10523703772E+03 -0.58371766010E+02 -0.24105650704E+03  0.28493013025E+03  0.92708372680E+02 0.  0.
        -11    1    1    2    0    0  0.12685643182E+03  0.12894586942E+03  0.45452757339E+03  0.48919822823E+03  0.00000000000E+00 0.  1.
         11    1    1    2    0    0 -0.21619394100E+02 -0.70574103406E+02 -0.21347106635E+03  0.22587164152E+03  0.00000000000E+00 0. -1.
        -15    1    3    3    0    0 -0.49130436563E+02  0.32167796711E+01 -0.16468039039E+03  0.17189222256E+03  0.17770000000E+01 0.  1.
         15    1    3    3    0    0 -0.56106601158E+02 -0.61588545681E+02 -0.76376116651E+02  0.11303790770E+03  0.17770000000E+01 0. -1.
</event>
<event>
 7    1  0.3260141E-006  0.5314495E+03  0.7546771E-02  0.9332064E-01
        -11   -1    0    0    0    0  0.00000000000E+00  0.00000000000E+00  0.50000000000E+03  0.50000000000E+03  0.00000000000E+00 0. -1.
         11   -1    0    0    0    0 -0.00000000000E+00 -0.00000000000E+00 -0.50000000000E+03  0.50000000000E+03  0.00000000000E+00 0.  1.
         23    2    1    2    0    0 -0.19534521929E+02 -0.43853432012E+02  0.81982726351E+02  0.13243486341E+03  0.92266486763E+02 0.  0.
        -11    1    1    2    0    0  0.91359578371E+02  0.83529632849E+02  0.37932688511E+03  0.39901460861E+03  0.00000000000E+00 0. -1.
         11    1    1    2    0    0 -0.71825056442E+02 -0.39676200837E+02 -0.46130961146E+03  0.46855052798E+03  0.00000000000E+00 0.  1.
        -15    1    3    3    0    0 -0.47704008385E+02 -0.30133404698E+02  0.14917597620E+02  0.58389955835E+02  0.17770000000E+01 0.  1.
         15    1    3    3    0    0  0.28169486456E+02 -0.13720027314E+02  0.67065128731E+02  0.74044907572E+02  0.17770000000E+01 0. -1.
</event>
<event>
 7    1  0.3260141E-006  0.4598216E+03  0.7546771E-02  0.9494491E-01
        -11   -1    0    0    0    0  0.00000000000E+00  0.00000000000E+00  0.50000000000E+03  0.50000000000E+03  0.00000000000E+00 0.  1.
         11   -1    0    0    0    0 -0.00000000000E+00 -0.00000000000E+00 -0.50000000000E+03  0.50000000000E+03  0.00000000000E+00 0.  1.
         23    2    1    2    0    0  0.68593135246E+02 -0.31257423341E+02  0.43357806351E+03  0.45386564975E+03  0.11100471225E+03 0.  0.
        -11    1    1    2    0    0  0.41258258082E+02  0.79161729397E+02  0.70053752203E+01  0.89542719096E+02  0.00000000000E+00 0.  1.
         11    1    1    2    0    0 -0.10985139333E+03 -0.47904306056E+02 -0.44058343874E+03  0.45659163116E+03  0.00000000000E+00 0.  1.
        -15    1    3    3    0    0  0.89270379372E+02 -0.43592511790E+02  0.40210510898E+03  0.41419944968E+03  0.17770000000E+01 0.  1.
         15    1    3    3    0    0 -0.20677244125E+02  0.12335088449E+02  0.31472954530E+02  0.39666200064E+02  0.17770000000E+01 0. -1.
</event>
<event>
 7    1  0.3260141E-006  0.5142477E+03  0.7546771E-02  0.9368482E-01
        -11   -1    0    0    0    0  0.00000000000E+00  0.00000000000E+00  0.50000000000E+03  0.50000000000E+03  0.00000000000E+00 0.  1.
         11   -1    0    0    0    0 -0.00000000000E+00 -0.00000000000E+00 -0.50000000000E+03  0.50000000000E+03  0.00000000000E+00 0. -1.
         23    2    1    2    0    0 -0.69187979541E+02  0.52318808478E+02  0.36953248400E+03  0.39289632069E+03  0.10143484532E+03 0.  0.
        -11    1    1    2    0    0 -0.66882241215E+02 -0.31297946975E+02  0.96298295326E+02  0.12135137971E+03  0.00000000000E+00 0.  1.
         11    1    1    2    0    0  0.13607022076E+03 -0.21020861503E+02 -0.46583077933E+03  0.48575229960E+03  0.00000000000E+00 0. -1.
        -15    1    3    3    0    0 -0.23230022170E+02 -0.52797657518E+00  0.80004319010E+01  0.24638939281E+02  0.17770000000E+01 0. -1.
         15    1    3    3    0    0 -0.45957957371E+02  0.52846785053E+02  0.36153205210E+03  0.36825738141E+03  0.17770000000E+01 0.  1.
</event>
<event>
 6    1  0.3260141E-006  0.4008720E+03  0.7546771E-02  0.9653828E-01
        -11   -1    0    0    0    0  0.00000000000E+00  0.00000000000E+00  0.50000000000E+03  0.50000000000E+03  0.00000000000E+00 0. -1.
         11   -1    0    0    0    0 -0.00000000000E+00 -0.00000000000E+00 -0.50000000000E+03  0.50000000000E+03  0.00000000000E+00 0.  1.
        -11    1    1    2    0    0 -0.65373230473E+02  0.25688239046E+02  0.25990681169E+03  0.26923056226E+03  0.00000000000E+00 0. -1.
         11    1    1    2    0    0 -0.13081390969E+03  0.26716077041E+01 -0.34643981943E+03  0.37032413497E+03  0.00000000000E+00 0.  1.
        -15    1    1    2    0    0  0.15426608768E+03  0.11560770620E+03  0.12451870326E+02  0.19318740732E+03  0.17770000000E+01 0. -1.
         15    1    1    2    0    0  0.41921052481E+02 -0.14396755295E+03  0.74081137410E+02  0.16725789546E+03  0.17770000000E+01 0.  1.
</event>
<event>
 7    1  0.3260141E-006  0.3095776E+03  0.7546771E-02  0.9969262E-01
        -11   -1    0    0    0    0  0.00000000000E+00  0.00000000000E+00  0.50000000000E+03  0.50000000000E+03  0.00000000000E+00 0.  1.
         11   -1    0    0    0    0 -0.00000000000E+00 -0.00000000000E+00 -0.50000000000E+03  0.50000000000E+03  0.00000000000E+00 0. -1.
         23    2    1    2    0    0  0.17546075720E+03 -0.10349828733E+03  0.25399825909E+03  0.33835039369E+03  0.92019022432E+02 0.  0.
        -11    1    1    2    0    0 -0.29993036842E+03  0.77725970648E+02  0.66475055795E+02  0.31688875880E+03  0.00000000000E+00 0.  1.
         11    1    1    2    0    0  0.12446961121E+03  0.25772316681E+02 -0.32047331488E+03  0.34476084751E+03  0.00000000000E+00 0. -1.
        -15    1    3    3    0    0  0.11976989390E+03 -0.10011362170E+03  0.22908944972E+03  0.27722319245E+03  0.17770000000E+01 0.  1.
         15    1    3    3    0    0  0.55690863308E+02 -0.33846656339E+01  0.24908809371E+02  0.61127201234E+02  0.17770000000E+01 0. -1.
</event>
<event>
 7    1  0.3260141E-006  0.5247438E+03  0.7546771E-02  0.9346085E-01
        -11   -1    0    0    0    0  0.00000000000E+00  0.00000000000E+00  0.50000000000E+03  0.50000000000E+03  0.00000000000E+00 0.  1.
         11   -1    0    0    0    0 -0.00000000000E+00 -0.00000000000E+00 -0.50000000000E+03  0.50000000000E+03  0.00000000000E+00 0. -1.
         23    2    1    2    0    0  0.64019053727E+02  0.10942618139E+02  0.34077121403E+03  0.35860045302E+03  0.90835480226E+02 0.  0.
        -11    1    1    2    0    0 -0.34931720922E+02  0.11237220068E+03  0.11728540337E+03  0.16614331902E+03  0.00000000000E+00 0.  1.
         11    1    1    2    0    0 -0.29087332805E+02 -0.12331481882E+03 -0.45805661739E+03  0.47525622795E+03  0.00000000000E+00 0. -1.
        -15    1    3    3    0    0  0.76851870785E+02  0.10696352858E+02  0.33591192372E+03  0.34476165714E+03  0.17770000000E+01 0.  1.
         15    1    3    3    0    0 -0.12832817059E+02  0.24626528111E+00  0.48592903077E+01  0.13838795885E+02  0.17770000000E+01 0. -1.
</event>
<event>
 7    1  0.3260141E-006  0.5108036E+03  0.7546771E-02  0.9375955E-01
        -11   -1    0    0    0    0  0.00000000000E+00  0.00000000000E+00  0.50000000000E+03  0.50000000000E+03  0.00000000000E+00 0.  1.
         11   -1    0    0    0    0 -0.00000000000E+00 -0.00000000000E+00 -0.50000000000E+03  0.50000000000E+03  0.00000000000E+00 0. -1.
         23    2    1    2    0    0  0.12563474340E+02 -0.12528585630E+03 -0.33692172396E+03  0.37098180019E+03  0.90867273110E+02 0.  0.
        -11    1    1    2    0    0  0.44247080909E+02  0.17286701114E+03  0.45549126335E+03  0.48919638050E+03  0.00000000000E+00 0.  1.
         11    1    1    2    0    0 -0.56810555249E+02 -0.47581154836E+02 -0.11856953939E+03  0.13982181931E+03  0.00000000000E+00 0. -1.
        -15    1    3    3    0    0 -0.21469087462E+02 -0.27075854272E+02 -0.17624255216E+03  0.17960684430E+03  0.17770000000E+01 0.  1.
         15    1    3    3    0    0  0.34032561803E+02 -0.98210002032E+02 -0.16067917180E+03  0.19137495589E+03  0.17770000000E+01 0. -1.
</event>
<event>
 7    1  0.3260141E-006  0.4351514E+03  0.7546771E-02  0.9557887E-01
        -11   -1    0    0    0    0  0.00000000000E+00  0.00000000000E+00  0.50000000000E+03  0.50000000000E+03  0.00000000000E+00 0. -1.
         11   -1    0    0    0    0 -0.00000000000E+00 -0.00000000000E+00 -0.50000000000E+03  0.50000000000E+03  0.00000000000E+00 0.  1.
         23    2    1    2    0    0  0.12369291871E+03  0.46811397388E+02  0.42718639269E+03  0.45621696068E+03  0.90302026800E+02 0.  0.
        -11    1    1    2    0    0 -0.69189026021E+02  0.10032566126E+03 -0.43751586082E+02  0.12948575564E+03  0.00000000000E+00 0. -1.
         11    1    1    2    0    0 -0.54503892691E+02 -0.14713705865E+03 -0.38343480661E+03  0.41429728368E+03  0.00000000000E+00 0.  1.
        -15    1    3    3    0    0  0.76477914608E+02  0.24501309178E+02  0.11862489511E+03  0.14326272733E+03  0.17770000000E+01 0.  1.
         15    1    3    3    0    0  0.47215004103E+02  0.22310088210E+02  0.30856149759E+03  0.31295423335E+03  0.17770000000E+01 0. -1.
</event>
<event>
 7    1  0.3260141E-006  0.5186091E+03  0.7546771E-02  0.9359107E-01
        -11   -1    0    0    0    0  0.00000000000E+00  0.00000000000E+00  0.50000000000E+03  0.50000000000E+03  0.00000000000E+00 0. -1.
         11   -1    0    0    0    0 -0.00000000000E+00 -0.00000000000E+00 -0.50000000000E+03  0.50000000000E+03  0.00000000000E+00 0. -1.
         23    2    1    2    0    0 -0.84695697434E+02 -0.11865872139E+03 -0.15374579852E+03  0.23088205252E+03  0.91736025030E+02 0.  0.
        -11    1    1    2    0    0  0.12539691276E+03  0.16366700863E+03  0.43500105766E+03  0.48139089689E+03  0.00000000000E+00 0. -1.
         11    1    1    2    0    0 -0.40701215322E+02 -0.45008287239E+02 -0.28125525914E+03  0.28772705059E+03  0.00000000000E+00 0. -1.
        -15    1    3    3    0    0  0.23213415100E+01 -0.73188437420E+02 -0.76801313435E+02  0.10612980483E+03  0.17770000000E+01 0.  1.
         15    1    3    3    0    0 -0.87017038944E+02 -0.45470283973E+02 -0.76944485082E+02  0.12475224769E+03  0.17770000000E+01 0. -1.
</event>
<event>
 7    1  0.3260141E-006  0.5245701E+03  0.7546771E-02  0.9346451E-01
        -11   -1    0    0    0    0  0.00000000000E+00  0.00000000000E+00  0.50000000000E+03  0.50000000000E+03  0.00000000000E+00 0. -1.
         11   -1    0    0    0    0 -0.00000000000E+00 -0.00000000000E+00 -0.50000000000E+03  0.50000000000E+03  0.00000000000E+00 0. -1.
         23    2    1    2    0    0 -0.75462702149E+01 -0.27684108251E+02 -0.20469947688E+03  0.22537896942E+03  0.89835672099E+02 0.  0.
        -11    1    1    2    0    0 -0.60870961919E+00 -0.13443936356E+03  0.45602554792E+03  0.47542992476E+03  0.00000000000E+00 0. -1.
         11    1    1    2    0    0  0.81549798341E+01  0.16212347181E+03 -0.25132607105E+03  0.29919110581E+03  0.00000000000E+00 0. -1.
        -15    1    3    3    0    0  0.29440602169E+02  0.17052083419E+02 -0.53679873031E+02  0.63578369770E+02  0.17770000000E+01 0.  1.
         15    1    3    3    0    0 -0.36986872384E+02 -0.44736191669E+02 -0.15101960384E+03  0.16180059965E+03  0.17770000000E+01 0. -1.
</event>
<event>
 7    1  0.3260141E-006  0.5168060E+03  0.7546771E-02  0.9362971E-01
        -11   -1    0    0    0    0  0.00000000000E+00  0.00000000000E+00  0.50000000000E+03  0.50000000000E+03  0.00000000000E+00 0.  1.
         11   -1    0    0    0    0 -0.00000000000E+00 -0.00000000000E+00 -0.50000000000E+03  0.50000000000E+03  0.00000000000E+00 0. -1.
         23    2    1    2    0    0  0.15274023960E+02  0.18099399445E+02 -0.13041476075E+03  0.16184338146E+03  0.92867573636E+02 0.  0.
        -11    1    1    2    0    0 -0.14050446474E+02 -0.16069850631E+03  0.45547234150E+03  0.48319403851E+03  0.00000000000E+00 0.  1.
         11    1    1    2    0    0 -0.12235774864E+01  0.14259910687E+03 -0.32505758075E+03  0.35496258003E+03  0.00000000000E+00 0. -1.
        -15    1    3    3    0    0 -0.34205797727E+02 -0.11869682860E+02 -0.35913796306E+02  0.51028271217E+02  0.17770000000E+01 0. -1.
         15    1    3    3    0    0  0.49479821687E+02  0.29969082305E+02 -0.94500964445E+02  0.11081511024E+03  0.17770000000E+01 0.  1.
</event>
<event>
 7    1  0.3260141E-006  0.3409466E+03  0.7546771E-02  0.9849029E-01
        -11   -1    0    0    0    0  0.00000000000E+00  0.00000000000E+00  0.50000000000E+03  0.50000000000E+03  0.00000000000E+00 0.  1.
         11   -1    0    0    0    0 -0.00000000000E+00 -0.00000000000E+00 -0.50000000000E+03  0.50000000000E+03  0.00000000000E+00 0. -1.
         23    2    1    2    0    0 -0.24392041793E+02  0.63511556833E+01 -0.25350412755E+03  0.27207279403E+03  0.95519389044E+02 0.  0.
        -11    1    1    2    0    0  0.31534857826E+03  0.12366680404E+03  0.22780467662E+03  0.40820726956E+03  0.00000000000E+00 0.  1.
         11    1    1    2    0    0 -0.29095653646E+03 -0.13001795973E+03  0.25699450931E+02  0.31971993641E+03  0.00000000000E+00 0. -1.
        -15    1    3    3    0    0 -0.16277572763E+02  0.47146966616E+02 -0.85631193683E+02  0.99114352627E+02  0.17770000000E+01 0. -1.
         15    1    3    3    0    0 -0.81144690304E+01 -0.40795810932E+02 -0.16787293387E+03  0.17295844140E+03  0.17770000000E+01 0.  1.
</event>
<event>
 7    1  0.3260141E-006  0.5094272E+03  0.7546771E-02  0.9378959E-01
        -11   -1    0    0    0    0  0.00000000000E+00  0.00000000000E+00  0.50000000000E+03  0.50000000000E+03  0.00000000000E+00 0.  1.
         11   -1    0    0    0    0 -0.00000000000E+00 -0.00000000000E+00 -0.50000000000E+03  0.50000000000E+03  0.00000000000E+00 0. -1.
         23    2    1    2    0    0  0.67759702644E+02  0.89872105728E+02 -0.23242827939E+03  0.27408198679E+03  0.91813167521E+02 0.  0.
        -11    1    1    2    0    0 -0.16852081325E+03 -0.13764126964E+03  0.43967858542E+03  0.49057276941E+03  0.00000000000E+00 0.  1.
         11    1    1    2    0    0  0.10076111060E+03  0.47769163912E+02 -0.20725030603E+03  0.23534524380E+03  0.00000000000E+00 0. -1.
        -15    1    3    3    0    0  0.32776371759E+02  0.95284704865E+02 -0.20771570448E+03  0.23087320577E+03  0.17770000000E+01 0.  1.
         15    1    3    3    0    0  0.34983330885E+02 -0.54125991370E+01 -0.24712574916E+02  0.43208781019E+02  0.17770000000E+01 0. -1.
</event>
<event>
 7    1  0.3260141E-006  0.3492313E+03  0.7546771E-02  0.9819578E-01
        -11   -1    0    0    0    0  0.00000000000E+00  0.00000000000E+00  0.50000000000E+03  0.50000000000E+03  0.00000000000E+00 0.  1.
         11   -1    0    0    0    0 -0.00000000000E+00 -0.00000000000E+00 -0.50000000000E+03  0.50000000000E+03  0.00000000000E+00 0. -1.
         23    2    1    2    0    0  0.20804342145E+02 -0.80088544331E+02  0.22821323958E+03  0.26055541475E+03  0.94661744384E+02 0.  0.
        -11    1    1    2    0    0 -0.10919080406E+02  0.29991830389E+03  0.12352507687E+03  0.32454377199E+03  0.00000000000E+00 0.  1.
         11    1    1    2    0    0 -0.98852617387E+01 -0.21982975956E+03 -0.35173831645E+03  0.41490081326E+03  0.00000000000E+00 0. -1.
        -15    1    3    3    0    0 -0.14660653743E+02 -0.82206611693E+02  0.11672485739E+03  0.14352948072E+03  0.17770000000E+01 0.  1.
         15    1    3    3    0    0  0.35464995888E+02  0.21180673617E+01  0.11148838219E+03  0.11702593403E+03  0.17770000000E+01 0. -1.
</event>
<event>
 7    1  0.3260141E-006  0.4264297E+03  0.7546771E-02  0.9581380E-01
        -11   -1    0    0    0    0  0.00000000000E+00  0.00000000000E+00  0.50000000000E+03  0.50000000000E+03  0.00000000000E+00 0. -1.
         11   -1    0    0    0    0 -0.00000000000E+00 -0.00000000000E+00 -0.50000000000E+03  0.50000000000E+03  0.00000000000E+00 0. -1.
         23    2    1    2    0    0  0.59260287572E+02  0.10168500590E+03  0.41227621778E+03  0.43844958634E+03  0.91731880551E+02 0.  0.
        -11    1    1    2    0    0  0.56634779808E+02 -0.13259387360E+03 -0.13139026260E+02  0.14478006635E+03  0.00000000000E+00 0. -1.
         11    1    1    2    0    0 -0.11589506738E+03  0.30908867704E+02 -0.39913719152E+03  0.41677034731E+03  0.00000000000E+00 0. -1.
        -15    1    3    3    0    0  0.55644241053E+02  0.62286314586E+02  0.37454703311E+03  0.38375057561E+03  0.17770000000E+01 0. -1.
         15    1    3    3    0    0  0.36160465191E+01  0.39398691310E+02  0.37729184673E+02  0.54699010727E+02  0.17770000000E+01 0.  1.
</event>
<event>
 7    1  0.3260141E-006  0.4649747E+03  0.7546771E-02  0.9481783E-01
        -11   -1    0    0    0    0  0.00000000000E+00  0.00000000000E+00  0.50000000000E+03  0.50000000000E+03  0.00000000000E+00 0.  1.
         11   -1    0    0    0    0 -0.00000000000E+00 -0.00000000000E+00 -0.50000000000E+03  0.50000000000E+03  0.00000000000E+00 0. -1.
         23    2    1    2    0    0 -0.81536256909E+02  0.80565104723E+02  0.40672528123E+03  0.43385079901E+03  0.98296307799E+02 0.  0.
        -11    1    1    2    0    0  0.65106642354E+01 -0.24471913576E+02  0.73049758120E+02  0.77314490649E+02  0.00000000000E+00 0.  1.
         11    1    1    2    0    0  0.75025592674E+02 -0.56093191147E+02 -0.47977503935E+03  0.48883471034E+03  0.00000000000E+00 0. -1.
        -15    1    3    3    0    0 -0.45628773368E+02  0.55985675301E+02  0.36968655615E+03  0.37667982203E+03  0.17770000000E+01 0.  1.
         15    1    3    3    0    0 -0.35907483541E+02  0.24579429422E+02  0.37038725076E+02  0.57170976983E+02  0.17770000000E+01 0. -1.
</event>
<event>
 7    1  0.3260141E-006  0.5112767E+03  0.7546771E-02  0.9374925E-01
        -11   -1    0    0    0    0  0.00000000000E+00  0.00000000000E+00  0.50000000000E+03  0.50000000000E+03  0.00000000000E+00 0.  1.
         11   -1    0    0    0    0 -0.00000000000E+00 -0.00000000000E+00 -0.50000000000E+03  0.50000000000E+03  0.00000000000E+00 0.  1.
         23    2    1    2    0    0 -0.34828881480E+02  0.16438759972E+03  0.44964155552E+03  0.48872329523E+03  0.91850949493E+02 0.  0.
        -11    1    1    2    0    0 -0.16189979522E+01 -0.18746277511E+03 -0.28540110585E+03  0.34146552451E+03  0.00000000000E+00 0.  1.
         11    1    1    2    0    0  0.36447879432E+02  0.23075175391E+02 -0.16424044967E+03  0.16981118026E+03  0.00000000000E+00 0.  1.
        -15    1    3    3    0    0 -0.29583316552E+02  0.17607945661E+03  0.41810268120E+03  0.45463409179E+03  0.17770000000E+01 0.  1.
         15    1    3    3    0    0 -0.52455649276E+01 -0.11691856892E+02  0.31538874320E+02  0.34089203443E+02  0.17770000000E+01 0. -1.
</event>
<event>
 7    1  0.3260141E-006  0.5101975E+03  0.7546771E-02  0.9377277E-01
        -11   -1    0    0    0    0  0.00000000000E+00  0.00000000000E+00  0.50000000000E+03  0.50000000000E+03  0.00000000000E+00 0.  1.
         11   -1    0    0    0    0 -0.00000000000E+00 -0.00000000000E+00 -0.50000000000E+03  0.50000000000E+03  0.00000000000E+00 0. -1.
         23    2    1    2    0    0  0.98201343146E+02 -0.12730672837E+03 -0.22642828299E+03  0.29314105735E+03  0.93869085878E+02 0.  0.
        -11    1    1    2    0    0 -0.20240725924E+03  0.17206231226E+03  0.41150009312E+03  0.48980247501E+03  0.00000000000E+00 0.  1.
         11    1    1    2    0    0  0.10420591609E+03 -0.44755583896E+02 -0.18507181013E+03  0.21705646764E+03  0.00000000000E+00 0. -1.
        -15    1    3    3    0    0  0.78297401174E+02 -0.71851568238E+02 -0.73436999608E+02  0.12918700217E+03  0.17770000000E+01 0.  1.
         15    1    3    3    0    0  0.19903941972E+02 -0.55455160129E+02 -0.15299128338E+03  0.16395405518E+03  0.17770000000E+01 0. -1.
</event>
<event>
 7    1  0.3260141E-006  0.5063069E+03  0.7546771E-02  0.9385807E-01
        -11   -1    0    0    0    0  0.00000000000E+00  0.00000000000E+00  0.50000000000E+03  0.50000000000E+03  0.00000000000E+00 0.  1.
         11   -1    0    0    0    0 -0.00000000000E+00 -0.00000000000E+00 -0.50000000000E+03  0.50000000000E+03  0.00000000000E+00 0. -1.
         23    2    1    2    0    0  0.62017897803E+02  0.76936891339E+01  0.35321876001E+03  0.36991788845E+03  0.90389929033E+02 0.  0.
        -11    1    1    2    0    0  0.43173155538E+02 -0.78445770694E+01  0.12913758975E+03  0.13638906054E+03  0.00000000000E+00 0.  1.
         11    1    1    2    0    0 -0.10519105334E+03  0.15088793548E+00 -0.48235634976E+03  0.49369305102E+03  0.00000000000E+00 0. -1.
        -15    1    3    3    0    0  0.87673832138E+00  0.30238040199E+02  0.41096498838E+02  0.51060627600E+02  0.17770000000E+01 0.  1.
         15    1    3    3    0    0  0.61141159482E+02 -0.22544351065E+02  0.31212226117E+03  0.31885726085E+03  0.17770000000E+01 0. -1.
</event>
<event>
 7    1  0.3260141E-006  0.4513424E+03  0.7546771E-02  0.9515793E-01
        -11   -1    0    0    0    0  0.00000000000E+00  0.00000000000E+00  0.50000000000E+03  0.50000000000E+03  0.00000000000E+00 0.  1.
         11   -1    0    0    0    0 -0.00000000000E+00 -0.00000000000E+00 -0.50000000000E+03  0.50000000000E+03  0.00000000000E+00 0.  1.
         23    2    1    2    0    0 -0.14312715980E+03  0.12810159718E+03  0.37372513209E+03  0.42974158211E+03  0.90066364211E+02 0.  0.
        -11    1    1    2    0    0  0.43712415612E+02 -0.46623626800E+02  0.77863064670E+02  0.10073328494E+03  0.00000000000E+00 0.  1.
         11    1    1    2    0    0  0.99414744192E+02 -0.81477970377E+02 -0.45158819676E+03  0.46952513295E+03  0.00000000000E+00 0.  1.
        -15    1    3    3    0    0 -0.62162380224E+02  0.75929737329E+02  0.27417161007E+03  0.29120905896E+03  0.17770000000E+01 0. -1.
         15    1    3    3    0    0 -0.80964779579E+02  0.52171859848E+02  0.99553522025E+02  0.13853252315E+03  0.17770000000E+01 0.  1.
</event>
<event>
 7    1  0.3260141E-006  0.4560128E+03  0.7546771E-02  0.9503999E-01
        -11   -1    0    0    0    0  0.00000000000E+00  0.00000000000E+00  0.50000000000E+03  0.50000000000E+03  0.00000000000E+00 0.  1.
         11   -1    0    0    0    0 -0.00000000000E+00 -0.00000000000E+00 -0.50000000000E+03  0.50000000000E+03  0.00000000000E+00 0. -1.
         23    2    1    2    0    0 -0.48030796891E+02 -0.27497674817E+03 -0.32345507643E+03  0.43693084059E+03  0.91466953082E+02 0.  0.
        -11    1    1    2    0    0  0.31229508683E+02  0.23622501002E+03  0.40576443030E+03  0.47055532137E+03  0.00000000000E+00 0.  1.
         11    1    1    2    0    0  0.16801288208E+02  0.38751738145E+02 -0.82309353869E+02  0.92513838041E+02  0.00000000000E+00 0. -1.
        -15    1    3    3    0    0 -0.45488348682E+02 -0.53986681619E+02 -0.57047879398E+02  0.90781991225E+02  0.17770000000E+01 0.  1.
         15    1    3    3    0    0 -0.25424482093E+01 -0.22099006655E+03 -0.26640719703E+03  0.34614884936E+03  0.17770000000E+01 0. -1.
</event>
<event>
 7    1  0.3260141E-006  0.5144869E+03  0.7546771E-02  0.9367965E-01
        -11   -1    0    0    0    0  0.00000000000E+00  0.00000000000E+00  0.50000000000E+03  0.50000000000E+03  0.00000000000E+00 0.  1.
         11   -1    0    0    0    0 -0.00000000000E+00 -0.00000000000E+00 -0.50000000000E+03  0.50000000000E+03  0.00000000000E+00 0. -1.
         23    2    1    2    0    0 -0.39937461273E+02 -0.66424611920E+02 -0.18126930312E+03  0.22190184017E+03  0.10185595974E+03 0.  0.
        -11    1    1    2    0    0  0.13995775754E+03  0.98484334837E+02  0.45435191541E+03  0.48551313179E+03  0.00000000000E+00 0.  1.
         11    1    1    2    0    0 -0.10002029626E+03 -0.32059722917E+02 -0.27308261229E+03  0.29258502804E+03  0.00000000000E+00 0. -1.
        -15    1    3    3    0    0  0.20313524002E+02  0.15764713773E+02 -0.30798267280E+02  0.40160384139E+02  0.17770000000E+01 0.  1.
         15    1    3    3    0    0 -0.60250985275E+02 -0.82189325693E+02 -0.15047103584E+03  0.18174145603E+03  0.17770000000E+01 0. -1.
</event>
<event>
 7    1  0.3260141E-006  0.3698457E+03  0.7546771E-02  0.9749949E-01
        -11   -1    0    0    0    0  0.00000000000E+00  0.00000000000E+00  0.50000000000E+03  0.50000000000E+03  0.00000000000E+00 0.  1.
         11   -1    0    0    0    0 -0.00000000000E+00 -0.00000000000E+00 -0.50000000000E+03  0.50000000000E+03  0.00000000000E+00 0. -1.
         23    2    1    2    0    0 -0.11236205223E+03  0.17313985486E+03  0.38866120266E+02  0.23106795897E+03  0.96328532813E+02 0.  0.
        -11    1    1    2    0    0  0.52287495840E+02 -0.21727563282E+03  0.32671121546E+03  0.39583191022E+03  0.00000000000E+00 0.  1.
         11    1    1    2    0    0  0.60074556390E+02  0.44135777961E+02 -0.36557733572E+03  0.37310013082E+03  0.00000000000E+00 0. -1.
        -15    1    3    3    0    0 -0.61887910697E+02  0.98458731382E+02  0.69928953293E+02  0.13571091155E+03  0.17770000000E+01 0.  1.
         15    1    3    3    0    0 -0.50474141534E+02  0.74681123478E+02 -0.31062833027E+02  0.95357047417E+02  0.17770000000E+01 0. -1.
</event>
<event>
 7    1  0.3260141E-006  0.3688640E+03  0.7546771E-02  0.9753153E-01
        -11   -1    0    0    0    0  0.00000000000E+00  0.00000000000E+00  0.50000000000E+03  0.50000000000E+03  0.00000000000E+00 0. -1.
         11   -1    0    0    0    0 -0.00000000000E+00 -0.00000000000E+00 -0.50000000000E+03  0.50000000000E+03  0.00000000000E+00 0. -1.
         23    2    1    2    0    0 -0.76896580722E+02 -0.17053356101E+02  0.44932901366E+03  0.46519154892E+03  0.91119227328E+02 0.  0.
        -11    1    1    2    0    0  0.58528557033E+02 -0.12858698653E+03 -0.18934717066E+03  0.23624681189E+03  0.00000000000E+00 0. -1.
         11    1    1    2    0    0  0.18368023689E+02  0.14564034264E+03 -0.25998184301E+03  0.29856163918E+03  0.00000000000E+00 0. -1.
        -15    1    3    3    0    0 -0.85193400929E+00 -0.24013503379E+02  0.27757471409E+02  0.36756075472E+02  0.17770000000E+01 0.  1.
         15    1    3    3    0    0 -0.76044646713E+02  0.69601472776E+01  0.42157154226E+03  0.42843547345E+03  0.17770000000E+01 0. -1.
</event>
<event>
 7    1  0.3260141E-006  0.5249081E+03  0.7546771E-02  0.9345738E-01
        -11   -1    0    0    0    0  0.00000000000E+00  0.00000000000E+00  0.50000000000E+03  0.50000000000E+03  0.00000000000E+00 0.  1.
         11   -1    0    0    0    0 -0.00000000000E+00 -0.00000000000E+00 -0.50000000000E+03  0.50000000000E+03  0.00000000000E+00 0. -1.
         23    2    1    2    0    0 -0.31644921791E+02 -0.56350596652E+02  0.30807796395E+03  0.32803418066E+03  0.92290849991E+02 0.  0.
        -11    1    1    2    0    0 -0.59799823932E+02  0.10472678515E+03  0.15561367159E+03  0.19687390192E+03  0.00000000000E+00 0.  1.
         11    1    1    2    0    0  0.91444745723E+02 -0.48376188493E+02 -0.46369163554E+03  0.47509191743E+03  0.00000000000E+00 0. -1.
        -15    1    3    3    0    0 -0.17695425795E+02 -0.68658545268E+02  0.29892793764E+03  0.30722661597E+03  0.17770000000E+01 0.  1.
         15    1    3    3    0    0 -0.13949495996E+02  0.12307948616E+02  0.91500263080E+01  0.20807564685E+02  0.17770000000E+01 0. -1.
</event>
<event>
 7    1  0.3260141E-006  0.4187020E+03  0.7546771E-02  0.9602701E-01
        -11   -1    0    0    0    0  0.00000000000E+00  0.00000000000E+00  0.50000000000E+03  0.50000000000E+03  0.00000000000E+00 0. -1.
         11   -1    0    0    0    0 -0.00000000000E+00 -0.00000000000E+00 -0.50000000000E+03  0.50000000000E+03  0.00000000000E+00 0.  1.
         23    2    1    2    0    0 -0.12111804267E+03  0.91642587092E+01  0.25837885427E+02  0.15343843315E+03  0.90123207587E+02 0.  0.
        -11    1    1    2    0    0  0.18391417969E+03  0.44503890139E+02  0.38420869819E+03  0.42827718302E+03  0.00000000000E+00 0. -1.
         11    1    1    2    0    0 -0.62796137020E+02 -0.53668148848E+02 -0.41004658362E+03  0.41828438384E+03  0.00000000000E+00 0.  1.
        -15    1    3    3    0    0 -0.53331119614E+02 -0.69246284706E+01  0.55854283467E+02  0.77556543950E+02  0.17770000000E+01 0.  1.
         15    1    3    3    0    0 -0.67786923054E+02  0.16088887180E+02 -0.30016398040E+02  0.75881889197E+02  0.17770000000E+01 0. -1.
</event>
<event>
 7    1  0.3260141E-006  0.4130216E+03  0.7546771E-02  0.9618690E-01
        -11   -1    0    0    0    0  0.00000000000E+00  0.00000000000E+00  0.50000000000E+03  0.50000000000E+03  0.00000000000E+00 0. -1.
         11   -1    0    0    0    0 -0.00000000000E+00 -0.00000000000E+00 -0.50000000000E+03  0.50000000000E+03  0.00000000000E+00 0. -1.
         23    2    1    2    0    0 -0.27494308877E+02 -0.37419052104E+02  0.46262002393E+03  0.47389827434E+03  0.91685142793E+02 0.  0.
        -11    1    1    2    0    0 -0.27045957302E+02 -0.96245295985E+02 -0.13412610888E+03  0.16728554596E+03  0.00000000000E+00 0. -1.
         11    1    1    2    0    0  0.54540266180E+02  0.13366434809E+03 -0.32849391505E+03  0.35881617969E+03  0.00000000000E+00 0. -1.
        -15    1    3    3    0    0 -0.60512348625E+02 -0.26090197618E+02  0.34295595537E+03  0.34923400149E+03  0.17770000000E+01 0. -1.
         15    1    3    3    0    0  0.33018039748E+02 -0.11328854485E+02  0.11966406856E+03  0.12466427285E+03  0.17770000000E+01 0.  1.
</event>
<event>
 7    1  0.3260141E-006  0.4239603E+03  0.7546771E-02  0.9588140E-01
        -11   -1    0    0    0    0  0.00000000000E+00  0.00000000000E+00  0.50000000000E+03  0.50000000000E+03  0.00000000000E+00 0.  1.
         11   -1    0    0    0    0 -0.00000000000E+00 -0.00000000000E+00 -0.50000000000E+03  0.50000000000E+03  0.00000000000E+00 0.  1.
         23    2    1    2    0    0  0.91321538932E+02  0.34708531499E+02 -0.43698896196E+02  0.14535190040E+03  0.98352812820E+02 0.  0.
        -11    1    1    2    0    0 -0.43721444248E+03  0.48001852641E+02 -0.13027879121E+03  0.45872999685E+03  0.00000000000E+00 0.  1.
         11    1    1    2    0    0  0.34589290355E+03 -0.82710384140E+02  0.17397768741E+03  0.39591810275E+03  0.00000000000E+00 0.  1.
        -15    1    3    3    0    0  0.29127137984E+02  0.31560105966E+02  0.27280542983E+02  0.50909883227E+02  0.17770000000E+01 0. -1.
         15    1    3    3    0    0  0.62194400948E+02  0.31484255327E+01 -0.70979439179E+02  0.94442017173E+02  0.17770000000E+01 0.  1.
</event>
<event>
 7    1  0.3260141E-006  0.3840148E+03  0.7546771E-02  0.9704848E-01
        -11   -1    0    0    0    0  0.00000000000E+00  0.00000000000E+00  0.50000000000E+03  0.50000000000E+03  0.00000000000E+00 0.  1.
         11   -1    0    0    0    0 -0.00000000000E+00 -0.00000000000E+00 -0.50000000000E+03  0.50000000000E+03  0.00000000000E+00 0. -1.
         23    2    1    2    0    0  0.88482108106E+02 -0.69718212452E+02  0.15019796964E+03  0.20935557758E+03  0.92631610037E+02 0.  0.
        -11    1    1    2    0    0 -0.16979644288E+03  0.44671407277E+02  0.29179053967E+03  0.34054087227E+03  0.00000000000E+00 0.  1.
         11    1    1    2    0    0  0.81314334775E+02  0.25046805175E+02 -0.44198850932E+03  0.45010355015E+03  0.00000000000E+00 0. -1.
        -15    1    3    3    0    0  0.33104434329E+02  0.40868027660E+01  0.39324594360E+00  0.33405357362E+02  0.17770000000E+01 0. -1.
         15    1    3    3    0    0  0.55377673776E+02 -0.73805015218E+02  0.14980472370E+03  0.17595022022E+03  0.17770000000E+01 0.  1.
</event>
<event>
 7    1  0.3260141E-006  0.4102935E+03  0.7546771E-02  0.9626466E-01
        -11   -1    0    0    0    0  0.00000000000E+00  0.00000000000E+00  0.50000000000E+03  0.50000000000E+03  0.00000000000E+00 0. -1.
         11   -1    0    0    0    0 -0.00000000000E+00 -0.00000000000E+00 -0.50000000000E+03  0.50000000000E+03  0.00000000000E+00 0.  1.
         23    2    1    2    0    0 -0.12147022465E+03  0.69046002195E+01  0.36313502637E+02  0.16964800346E+03  0.11251260207E+03 0.  0.
        -11    1    1    2    0    0  0.76356017722E+02  0.10290240897E+03  0.37812495080E+03  0.39924632200E+03  0.00000000000E+00 0. -1.
         11    1    1    2    0    0  0.45114206932E+02 -0.10980700919E+03 -0.41443845343E+03  0.43110567454E+03  0.00000000000E+00 0.  1.
        -15    1    3    3    0    0 -0.59291848485E+02 -0.42737946690E+02  0.50436172609E+02  0.88820158863E+02  0.17770000000E+01 0. -1.
         15    1    3    3    0    0 -0.62178376169E+02  0.49642546910E+02 -0.14122669972E+02  0.80827844601E+02  0.17770000000E+01 0.  1.
</event>
<event>
 7    1  0.3260141E-006  0.3789660E+03  0.7546771E-02  0.9720676E-01
        -11   -1    0    0    0    0  0.00000000000E+00  0.00000000000E+00  0.50000000000E+03  0.50000000000E+03  0.00000000000E+00 0. -1.
         11   -1    0    0    0    0 -0.00000000000E+00 -0.00000000000E+00 -0.50000000000E+03  0.50000000000E+03  0.00000000000E+00 0.  1.
         23    2    1    2    0    0  0.47593403273E+02  0.84777218472E+02  0.38442094583E+03  0.40656533470E+03  0.89797544382E+02 0.  0.
        -11    1    1    2    0    0 -0.12899349364E+03 -0.17632694476E+03 -0.32595389537E+02  0.22089131325E+03  0.00000000000E+00 0. -1.
         11    1    1    2    0    0  0.81400090363E+02  0.91549726287E+02 -0.35182555630E+03  0.37254335205E+03  0.00000000000E+00 0.  1.
        -15    1    3    3    0    0 -0.42842338825E+01  0.73657339308E+02  0.27812526660E+03  0.28775089912E+03  0.17770000000E+01 0. -1.
         15    1    3    3    0    0  0.51877637156E+02  0.11119879164E+02  0.10629567923E+03  0.11881443558E+03  0.17770000000E+01 0.  1.
</event>
<event>
 7    1  0.3260141E-006  0.5314678E+03  0.7546771E-02  0.9332026E-01
        -11   -1    0    0    0    0  0.00000000000E+00  0.00000000000E+00  0.50000000000E+03  0.50000000000E+03  0.00000000000E+00 0.  1.
         11   -1    0    0    0    0 -0.00000000000E+00 -0.00000000000E+00 -0.50000000000E+03  0.50000000000E+03  0.00000000000E+00 0. -1.
         23    2    1    2    0    0  0.60060309061E+02  0.27858088147E+02 -0.85435492385E+02  0.14557116052E+03  0.97511156367E+02 0.  0.
        -11    1    1    2    0    0 -0.57592732366E+02  0.60940729064E+02  0.46096827990E+03  0.46853222979E+03  0.00000000000E+00 0.  1.
         11    1    1    2    0    0 -0.24675766950E+01 -0.88798817211E+02 -0.37553278751E+03  0.38589660969E+03  0.00000000000E+00 0. -1.
        -15    1    3    3    0    0  0.36106570139E+02 -0.25311223476E+02 -0.25411710404E+01  0.44203593975E+02  0.17770000000E+01 0.  1.
         15    1    3    3    0    0  0.23953738922E+02  0.53169311622E+02 -0.82894321345E+02  0.10136756654E+03  0.17770000000E+01 0. -1.
</event>
<event>
 7    1  0.3260141E-006  0.3709935E+03  0.7546771E-02  0.9746215E-01
        -11   -1    0    0    0    0  0.00000000000E+00  0.00000000000E+00  0.50000000000E+03  0.50000000000E+03  0.00000000000E+00 0.  1.
         11   -1    0    0    0    0 -0.00000000000E+00 -0.00000000000E+00 -0.50000000000E+03  0.50000000000E+03  0.00000000000E+00 0.  1.
         23    2    1    2    0    0 -0.55147819898E+01 -0.30233099968E+03 -0.68292107152E+02  0.33525108731E+03  0.12765200138E+03 0.  0.
        -11    1    1    2    0    0 -0.36006235015E+02  0.29082935414E+03  0.30569338146E+03  0.42346972224E+03  0.00000000000E+00 0.  1.
         11    1    1    2    0    0  0.41521017005E+02  0.11501645544E+02 -0.23740127430E+03  0.24127919045E+03  0.00000000000E+00 0.  1.
        -15    1    3    3    0    0 -0.43513729282E+02 -0.33533164887E+02 -0.24850691750E+02  0.60321077517E+02  0.17770000000E+01 0. -1.
         15    1    3    3    0    0  0.37998947292E+02 -0.26879783479E+03 -0.43441415402E+02  0.27493000979E+03  0.17770000000E+01 0.  1.
</event>
<event>
 7    1  0.3260141E-006  0.5147871E+03  0.7546771E-02  0.9367317E-01
        -11   -1    0    0    0    0  0.00000000000E+00  0.00000000000E+00  0.50000000000E+03  0.50000000000E+03  0.00000000000E+00 0. -1.
         11   -1    0    0    0    0 -0.00000000000E+00 -0.00000000000E+00 -0.50000000000E+03  0.50000000000E+03  0.00000000000E+00 0.  1.
         23    2    1    2    0    0  0.25308677379E+02  0.82162778621E+01  0.21737410047E+03  0.23510243227E+03  0.85519692070E+02 0.  0.
        -11    1    1    2    0    0 -0.48785205932E+02 -0.89745838675E+02  0.26036361425E+03  0.27968468586E+03  0.00000000000E+00 0. -1.
         11    1    1    2    0    0  0.23476528553E+02  0.81529560813E+02 -0.47773771471E+03  0.48521288188E+03  0.00000000000E+00 0.  1.
        -15    1    3    3    0    0 -0.30831999044E+02 -0.49606731037E+01  0.89725380823E+02  0.95021166776E+02  0.17770000000E+01 0.  1.
         15    1    3    3    0    0  0.56140676423E+02  0.13176950966E+02  0.12764871964E+03  0.14008126549E+03  0.17770000000E+01 0. -1.
</event>
<event>
 7    1  0.3260141E-006  0.5250766E+03  0.7546771E-02  0.9345383E-01
        -11   -1    0    0    0    0  0.00000000000E+00  0.00000000000E+00  0.50000000000E+03  0.50000000000E+03  0.00000000000E+00 0.  1.
         11   -1    0    0    0    0 -0.00000000000E+00 -0.00000000000E+00 -0.50000000000E+03  0.50000000000E+03  0.00000000000E+00 0. -1.
         23    2    1    2    0    0  0.25992970374E+03  0.66972829509E+02 -0.18472921937E+03  0.33815495618E+03  0.90416144144E+02 0.  0.
        -11    1    1    2    0    0 -0.34214544885E+03  0.19158170429E+02  0.32881856617E+03  0.47492335499E+03  0.00000000000E+00 0.  1.
         11    1    1    2    0    0  0.82215745106E+02 -0.86130999937E+02 -0.14408934679E+03  0.18692168883E+03  0.00000000000E+00 0. -1.
        -15    1    3    3    0    0  0.18094233549E+03  0.62214807990E+02 -0.81269847478E+02  0.20789121421E+03  0.17770000000E+01 0. -1.
         15    1    3    3    0    0  0.78987368248E+02  0.47580215190E+01 -0.10345937189E+03  0.13026374197E+03  0.17770000000E+01 0.  1.
</event>
<event>
 7    1  0.3260141E-006  0.4766531E+03  0.7546771E-02  0.9453621E-01
        -11   -1    0    0    0    0  0.00000000000E+00  0.00000000000E+00  0.50000000000E+03  0.50000000000E+03  0.00000000000E+00 0. -1.
         11   -1    0    0    0    0 -0.00000000000E+00 -0.00000000000E+00 -0.50000000000E+03  0.50000000000E+03  0.00000000000E+00 0.  1.
         23    2    1    2    0    0 -0.62772446299E+02 -0.15129388172E+02  0.43606597465E+03  0.45121895775E+03  0.96310618200E+02 0.  0.
        -11    1    1    2    0    0 -0.17063720542E+02 -0.13425489832E+02  0.50454281345E+02  0.54927669184E+02  0.00000000000E+00 0. -1.
         11    1    1    2    0    0  0.79836166841E+02  0.28554878004E+02 -0.48652025600E+03  0.49385337307E+03  0.00000000000E+00 0.  1.
        -15    1    3    3    0    0 -0.41726260045E+02 -0.51896555736E+02  0.33600330593E+03  0.34254300840E+03  0.17770000000E+01 0. -1.
         15    1    3    3    0    0 -0.21046186255E+02  0.36767167564E+02  0.10006266872E+03  0.10867594935E+03  0.17770000000E+01 0.  1.
</event>
<event>
 7    1  0.3260141E-006  0.4497313E+03  0.7546771E-02  0.9519896E-01
        -11   -1    0    0    0    0  0.00000000000E+00  0.00000000000E+00  0.50000000000E+03  0.50000000000E+03  0.00000000000E+00 0.  1.
         11   -1    0    0    0    0 -0.00000000000E+00 -0.00000000000E+00 -0.50000000000E+03  0.50000000000E+03  0.00000000000E+00 0. -1.
         23    2    1    2    0    0 -0.40344461392E+02  0.58359856402E+02  0.40689533528E+03  0.42347553025E+03  0.93456741032E+02 0.  0.
        -11    1    1    2    0    0  0.58046597360E+02  0.73182634791E+02  0.46327941036E+02  0.10426592742E+03  0.00000000000E+00 0.  1.
         11    1    1    2    0    0 -0.17702135967E+02 -0.13154249119E+03 -0.45322327632E+03  0.47225854233E+03  0.00000000000E+00 0. -1.
        -15    1    3    3    0    0 -0.26504829571E+02 -0.22780707041E+02  0.12386929030E+03  0.12871761889E+03  0.17770000000E+01 0. -1.
         15    1    3    3    0    0 -0.13839631821E+02  0.81140563443E+02  0.28302604498E+03  0.29475791137E+03  0.17770000000E+01 0.  1.
</event>
<event>
 7    1  0.3260141E-006  0.3348885E+03  0.7546771E-02  0.9871138E-01
        -11   -1    0    0    0    0  0.00000000000E+00  0.00000000000E+00  0.50000000000E+03  0.50000000000E+03  0.00000000000E+00 0.  1.
         11   -1    0    0    0    0 -0.00000000000E+00 -0.00000000000E+00 -0.50000000000E+03  0.50000000000E+03  0.00000000000E+00 0.  1.
         23    2    1    2    0    0 -0.45478066654E+02  0.32883896906E+03  0.16443525057E+03  0.38153294509E+03  0.91242065074E+02 0.  0.
        -11    1    1    2    0    0  0.97975138455E+02 -0.29898195882E+03  0.11317616421E+03  0.33436235375E+03  0.00000000000E+00 0.  1.
         11    1    1    2    0    0 -0.52497071800E+02 -0.29857010239E+02 -0.27761141478E+03  0.28410470117E+03  0.00000000000E+00 0.  1.
        -15    1    3    3    0    0 -0.39241599356E+01  0.64074176105E+02  0.75573842201E+02  0.99173899938E+02  0.17770000000E+01 0. -1.
         15    1    3    3    0    0 -0.41553906719E+02  0.26476479296E+03  0.88861408365E+02  0.28235904515E+03  0.17770000000E+01 0.  1.
</event>
<event>
 7    1  0.3260141E-006  0.5058171E+03  0.7546771E-02  0.9386887E-01
        -11   -1    0    0    0    0  0.00000000000E+00  0.00000000000E+00  0.50000000000E+03  0.50000000000E+03  0.00000000000E+00 0.  1.
         11   -1    0    0    0    0 -0.00000000000E+00 -0.00000000000E+00 -0.50000000000E+03  0.50000000000E+03  0.00000000000E+00 0.  1.
         23    2    1    2    0    0 -0.12359766087E+03  0.63566258910E+02 -0.35335811195E+03  0.39105117727E+03  0.93498753552E+02 0.  0.
        -11    1    1    2    0    0  0.15887753033E+03 -0.91794461242E+02  0.45885558298E+03  0.49418290014E+03  0.00000000000E+00 0.  1.
         11    1    1    2    0    0 -0.35279869461E+02  0.28228202333E+02 -0.10549747103E+03  0.11476592259E+03  0.00000000000E+00 0.  1.
        -15    1    3    3    0    0 -0.61956936423E+02  0.29078791425E+01 -0.24319705186E+03  0.25098820987E+03  0.17770000000E+01 0.  1.
         15    1    3    3    0    0 -0.61640724444E+02  0.60658379767E+02 -0.11016106009E+03  0.14006296740E+03  0.17770000000E+01 0. -1.
</event>
<event>
 7    1  0.3260141E-006  0.3480663E+03  0.7546771E-02  0.9823666E-01
        -11   -1    0    0    0    0  0.00000000000E+00  0.00000000000E+00  0.50000000000E+03  0.50000000000E+03  0.00000000000E+00 0.  1.
         11   -1    0    0    0    0 -0.00000000000E+00 -0.00000000000E+00 -0.50000000000E+03  0.50000000000E+03  0.00000000000E+00 0.  1.
         23    2    1    2    0    0 -0.14418684623E+02  0.20488980463E+03  0.36489635230E+03  0.42811785214E+03  0.89150529398E+02 0.  0.
        -11    1    1    2    0    0 -0.37538468722E+02 -0.25430967313E+03 -0.67244649827E+02  0.26571486487E+03  0.00000000000E+00 0.  1.
         11    1    1    2    0    0  0.51957153345E+02  0.49419868495E+02 -0.29765170248E+03  0.30616728299E+03  0.00000000000E+00 0.  1.
        -15    1    3    3    0    0 -0.10305157860E+02  0.17170352191E+03  0.35281569776E+03  0.39251798689E+03  0.17770000000E+01 0.  1.
         15    1    3    3    0    0 -0.41135267624E+01  0.33186282720E+02  0.12080654547E+02  0.35599865260E+02  0.17770000000E+01 0. -1.
</event>
<event>
 7    1  0.3260141E-006  0.5250220E+03  0.7546771E-02  0.9345498E-01
        -11   -1    0    0    0    0  0.00000000000E+00  0.00000000000E+00  0.50000000000E+03  0.50000000000E+03  0.00000000000E+00 0. -1.
         11   -1    0    0    0    0 -0.00000000000E+00 -0.00000000000E+00 -0.50000000000E+03  0.50000000000E+03  0.00000000000E+00 0.  1.
         23    2    1    2    0    0 -0.46673694230E+02  0.56582826837E+01  0.78797614123E+02  0.12969444300E+03  0.91657703748E+02 0.  0.
        -11    1    1    2    0    0 -0.18978382480E+03 -0.19332895483E+03  0.28790610770E+03  0.39532760058E+03  0.00000000000E+00 0. -1.
         11    1    1    2    0    0  0.23645751903E+03  0.18767067214E+03 -0.36670372183E+03  0.47497795642E+03  0.00000000000E+00 0.  1.
        -15    1    3    3    0    0 -0.41434430779E+02  0.15478443778E+02  0.97940499677E+02  0.10747973521E+03  0.17770000000E+01 0. -1.
         15    1    3    3    0    0 -0.52392634509E+01 -0.98201610942E+01 -0.19142885554E+02  0.22214707781E+02  0.17770000000E+01 0.  1.
</event>
<event>
 7    1  0.3260141E-006  0.3702555E+03  0.7546771E-02  0.9748614E-01
        -11   -1    0    0    0    0  0.00000000000E+00  0.00000000000E+00  0.50000000000E+03  0.50000000000E+03  0.00000000000E+00 0.  1.
         11   -1    0    0    0    0 -0.00000000000E+00 -0.00000000000E+00 -0.50000000000E+03  0.50000000000E+03  0.00000000000E+00 0. -1.
         23    2    1    2    0    0 -0.22447651481E+02 -0.19537605319E+03 -0.74530189859E+02  0.23020328184E+03  0.93611444557E+02 0.  0.
        -11    1    1    2    0    0 -0.25621938956E+03  0.12154185245E+03  0.29324368522E+03  0.40793707408E+03  0.00000000000E+00 0.  1.
         11    1    1    2    0    0  0.27866704104E+03  0.73834200739E+02 -0.21871349536E+03  0.36185964408E+03  0.00000000000E+00 0. -1.
        -15    1    3    3    0    0 -0.39301628848E+02 -0.17817672086E+03 -0.37950982567E+02  0.18637327248E+03  0.17770000000E+01 0.  1.
         15    1    3    3    0    0  0.16853977366E+02 -0.17199332330E+02 -0.36579207292E+02  0.43830009363E+02  0.17770000000E+01 0. -1.
</event>
<event>
 7    1  0.3260141E-006  0.3226447E+03  0.7546771E-02  0.9917396E-01
        -11   -1    0    0    0    0  0.00000000000E+00  0.00000000000E+00  0.50000000000E+03  0.50000000000E+03  0.00000000000E+00 0. -1.
         11   -1    0    0    0    0 -0.00000000000E+00 -0.00000000000E+00 -0.50000000000E+03  0.50000000000E+03  0.00000000000E+00 0. -1.
         23    2    1    2    0    0  0.93386805651E+01  0.19787131587E+03  0.23232263303E+03  0.31876699548E+03  0.91642364601E+02 0.  0.
        -11    1    1    2    0    0  0.48277070205E+01 -0.26426461609E+03  0.14252510427E+03  0.30028736141E+03  0.00000000000E+00 0. -1.
         11    1    1    2    0    0 -0.14166387586E+02  0.66393300222E+02 -0.37484773730E+03  0.38094564312E+03  0.00000000000E+00 0. -1.
        -15    1    3    3    0    0 -0.10299960546E+02  0.19257953937E+03  0.18508556994E+03  0.26730655454E+03  0.17770000000E+01 0. -1.
         15    1    3    3    0    0  0.19638641111E+02  0.52917765006E+01  0.47237063091E+02  0.51460440939E+02  0.17770000000E+01 0.  1.
</event>
<event>
 7    1  0.3260141E-006  0.4660206E+03  0.7546771E-02  0.9479225E-01
        -11   -1    0    0    0    0  0.00000000000E+00  0.00000000000E+00  0.50000000000E+03  0.50000000000E+03  0.00000000000E+00 0.  1.
         11   -1    0    0    0    0 -0.00000000000E+00 -0.00000000000E+00 -0.50000000000E+03  0.50000000000E+03  0.00000000000E+00 0. -1.
         23    2    1    2    0    0 -0.19446805250E+02 -0.58059750123E+02  0.41869875926E+03  0.43280066938E+03  0.90877145625E+02 0.  0.
        -11    1    1    2    0    0  0.13962308563E+02 -0.28195805544E+02  0.66920894550E+02  0.73948330868E+02  0.00000000000E+00 0.  1.
         11    1    1    2    0    0  0.54844966869E+01  0.86255555667E+02 -0.48561965381E+03  0.49325099975E+03  0.00000000000E+00 0. -1.
        -15    1    3    3    0    0 -0.36590422967E+02 -0.76086291449E+02  0.31203570341E+03  0.32326060807E+03  0.17770000000E+01 0.  1.
         15    1    3    3    0    0  0.17143617717E+02  0.18026541327E+02  0.10666305584E+03  0.10954006131E+03  0.17770000000E+01 0. -1.
</event>
<event>
 7    1  0.3260141E-006  0.4501759E+03  0.7546771E-02  0.9518762E-01
        -11   -1    0    0    0    0  0.00000000000E+00  0.00000000000E+00  0.50000000000E+03  0.50000000000E+03  0.00000000000E+00 0. -1.
         11   -1    0    0    0    0 -0.00000000000E+00 -0.00000000000E+00 -0.50000000000E+03  0.50000000000E+03  0.00000000000E+00 0. -1.
         23    2    1    2    0    0  0.28799669204E+03 -0.25820302744E+03 -0.14857418772E+03  0.42529440242E+03  0.95865225553E+02 0.  0.
        -11    1    1    2    0    0 -0.28760432020E+03  0.27547821359E+03  0.25105431094E+03  0.47077888461E+03  0.00000000000E+00 0. -1.
         11    1    1    2    0    0 -0.39237184110E+00 -0.17275186147E+02 -0.10248012322E+03  0.10392671296E+03  0.00000000000E+00 0. -1.
        -15    1    3    3    0    0  0.25183282797E+03 -0.25586042885E+03 -0.11817236156E+03  0.37795793028E+03  0.17770000000E+01 0. -1.
         15    1    3    3    0    0  0.36163864068E+02 -0.23425985971E+01 -0.30401826160E+02  0.47336472147E+02  0.17770000000E+01 0.  1.
</event>
<event>
 7    1  0.3260141E-006  0.5373408E+03  0.7546771E-02  0.9319927E-01
        -11   -1    0    0    0    0  0.00000000000E+00  0.00000000000E+00  0.50000000000E+03  0.50000000000E+03  0.00000000000E+00 0. -1.
         11   -1    0    0    0    0 -0.00000000000E+00 -0.00000000000E+00 -0.50000000000E+03  0.50000000000E+03  0.00000000000E+00 0.  1.
         23    2    1    2    0    0  0.22151402466E+02  0.33189488418E+02  0.18247810572E+03  0.20733770411E+03  0.89991320167E+02 0.  0.
        -11    1    1    2    0    0  0.13523310661E+03 -0.26913207143E+03 -0.35118866327E+03  0.46265920741E+03  0.00000000000E+00 0.  1.
         11    1    1    2    0    0 -0.15738450907E+03  0.23594258301E+03  0.16871055755E+03  0.33000308847E+03  0.00000000000E+00 0. -1.
        -15    1    3    3    0    0  0.44393646175E+02  0.49699813565E+02  0.98889242859E+02  0.11926066984E+03  0.17770000000E+01 0.  1.
         15    1    3    3    0    0 -0.22242243709E+02 -0.16510325147E+02  0.83588862864E+02  0.88077034269E+02  0.17770000000E+01 0. -1.
</event>
<event>
 7    1  0.3260141E-006  0.4759851E+03  0.7546771E-02  0.9455209E-01
        -11   -1    0    0    0    0  0.00000000000E+00  0.00000000000E+00  0.50000000000E+03  0.50000000000E+03  0.00000000000E+00 0. -1.
         11   -1    0    0    0    0 -0.00000000000E+00 -0.00000000000E+00 -0.50000000000E+03  0.50000000000E+03  0.00000000000E+00 0. -1.
         23    2    1    2    0    0  0.25282768602E+02 -0.99982887141E+02  0.43238126984E+03  0.45484616577E+03  0.96414085575E+02 0.  0.
        -11    1    1    2    0    0  0.29396617060E+02  0.14033305958E+02  0.45822126368E+02  0.56220654884E+02  0.00000000000E+00 0. -1.
         11    1    1    2    0    0 -0.54679385661E+02  0.85949581183E+02 -0.47820339621E+03  0.48893317935E+03  0.00000000000E+00 0. -1.
        -15    1    3    3    0    0  0.32487063438E+02 -0.89339991320E+02  0.43148994889E+03  0.44184134829E+03  0.17770000000E+01 0. -1.
         15    1    3    3    0    0 -0.72042948360E+01 -0.10642895822E+02  0.89132095062E+00  0.13004817476E+02  0.17770000000E+01 0.  1.
</event>
<event>
 7    1  0.3260141E-006  0.4136547E+03  0.7546771E-02  0.9616894E-01
        -11   -1    0    0    0    0  0.00000000000E+00  0.00000000000E+00  0.50000000000E+03  0.50000000000E+03  0.00000000000E+00 0.  1.
         11   -1    0    0    0    0 -0.00000000000E+00 -0.00000000000E+00 -0.50000000000E+03  0.50000000000E+03  0.00000000000E+00 0. -1.
         23    2    1    2    0    0  0.30416065745E+03  0.66258510034E+01  0.29943720898E+03  0.43646036474E+03  0.90980219967E+02 0.  0.
        -11    1    1    2    0    0 -0.10837601962E+03 -0.12312363084E+03  0.26213494605E+02  0.16610820991E+03  0.00000000000E+00 0.  1.
         11    1    1    2    0    0 -0.19578463783E+03  0.11649777983E+03 -0.32565070358E+03  0.39743142535E+03  0.00000000000E+00 0. -1.
        -15    1    3    3    0    0  0.14161188082E+03  0.45681759708E+02  0.11957916795E+03  0.19090071529E+03  0.17770000000E+01 0.  1.
         15    1    3    3    0    0  0.16254877662E+03 -0.39055908705E+02  0.17985804102E+03  0.24555964945E+03  0.17770000000E+01 0. -1.
</event>
<event>
 7    1  0.3260141E-006  0.4438566E+03  0.7546771E-02  0.9535017E-01
        -11   -1    0    0    0    0  0.00000000000E+00  0.00000000000E+00  0.50000000000E+03  0.50000000000E+03  0.00000000000E+00 0.  1.
         11   -1    0    0    0    0 -0.00000000000E+00 -0.00000000000E+00 -0.50000000000E+03  0.50000000000E+03  0.00000000000E+00 0. -1.
         23    2    1    2    0    0 -0.59715793017E+02  0.13419902081E+02  0.11939442947E+02  0.11009934217E+03  0.90737231285E+02 0.  0.
        -11    1    1    2    0    0  0.14525696818E+02 -0.16334888715E+03  0.40906731724E+03  0.44071524235E+03  0.00000000000E+00 0.  1.
         11    1    1    2    0    0  0.45190096199E+02  0.14992898507E+03 -0.42100676019E+03  0.44918541548E+03  0.00000000000E+00 0. -1.
        -15    1    3    3    0    0  0.13751609435E+02  0.30668825461E+02  0.74978929156E+01  0.34482745604E+02  0.17770000000E+01 0.  1.
         15    1    3    3    0    0 -0.73467402452E+02 -0.17248923380E+02  0.44415500319E+01  0.75616596568E+02  0.17770000000E+01 0. -1.
</event>
<event>
 7    1  0.3260141E-006  0.5161235E+03  0.7546771E-02  0.9364438E-01
        -11   -1    0    0    0    0  0.00000000000E+00  0.00000000000E+00  0.50000000000E+03  0.50000000000E+03  0.00000000000E+00 0.  1.
         11   -1    0    0    0    0 -0.00000000000E+00 -0.00000000000E+00 -0.50000000000E+03  0.50000000000E+03  0.00000000000E+00 0. -1.
         23    2    1    2    0    0  0.22163790515E+02  0.42177030799E+02  0.21534825272E+03  0.23949421224E+03  0.93340624657E+02 0.  0.
        -11    1    1    2    0    0 -0.97672133315E+02  0.31475918634E+02  0.25689134440E+03  0.27662924991E+03  0.00000000000E+00 0.  1.
         11    1    1    2    0    0  0.75508342801E+02 -0.73652949434E+02 -0.47223959712E+03  0.48387653785E+03  0.00000000000E+00 0. -1.
        -15    1    3    3    0    0  0.41004630439E+02  0.87471253887E+01  0.18726360292E+03  0.19190806816E+03  0.17770000000E+01 0.  1.
         15    1    3    3    0    0 -0.18840839924E+02  0.33429905411E+02  0.28084649805E+02  0.47586144081E+02  0.17770000000E+01 0. -1.
</event>
<event>
 7    1  0.3260141E-006  0.5082884E+03  0.7546771E-02  0.9381453E-01
        -11   -1    0    0    0    0  0.00000000000E+00  0.00000000000E+00  0.50000000000E+03  0.50000000000E+03  0.00000000000E+00 0. -1.
         11   -1    0    0    0    0 -0.00000000000E+00 -0.00000000000E+00 -0.50000000000E+03  0.50000000000E+03  0.00000000000E+00 0.  1.
         23    2    1    2    0    0 -0.13453296627E+03 -0.65723745860E+02 -0.32886082546E+03  0.37274129654E+03  0.91476236471E+02 0.  0.
        -11    1    1    2    0    0  0.14247243677E+03  0.87556302362E+02  0.46240224462E+03  0.49171164025E+03  0.00000000000E+00 0. -1.
         11    1    1    2    0    0 -0.79394705016E+01 -0.21832556502E+02 -0.13354141916E+03  0.13554706322E+03  0.00000000000E+00 0.  1.
        -15    1    3    3    0    0  0.13733352576E+02 -0.85970556787E+01 -0.25074378257E+02  0.29906462735E+02  0.17770000000E+01 0. -1.
         15    1    3    3    0    0 -0.14826631884E+03 -0.57126690181E+02 -0.30378644720E+03  0.34283483380E+03  0.17770000000E+01 0.  1.
</event>
<event>
 7    1  0.3260141E-006  0.5057200E+03  0.7546771E-02  0.9387101E-01
        -11   -1    0    0    0    0  0.00000000000E+00  0.00000000000E+00  0.50000000000E+03  0.50000000000E+03  0.00000000000E+00 0.  1.
         11   -1    0    0    0    0 -0.00000000000E+00 -0.00000000000E+00 -0.50000000000E+03  0.50000000000E+03  0.00000000000E+00 0. -1.
         23    2    1    2    0    0  0.11258618804E+02  0.19153548753E+02  0.48524127589E+03  0.49428001774E+03  0.91433173309E+02 0.  0.
        -11    1    1    2    0    0 -0.49736584385E+01  0.54510112704E+02 -0.10555782521E+03  0.11890561016E+03  0.00000000000E+00 0.  1.
         11    1    1    2    0    0 -0.62849603659E+01 -0.73663661457E+02 -0.37968345068E+03  0.38681437210E+03  0.00000000000E+00 0. -1.
        -15    1    3    3    0    0  0.31840380555E+02 -0.27582923553E+02  0.25241900436E+03  0.25591627341E+03  0.17770000000E+01 0. -1.
         15    1    3    3    0    0 -0.20581761751E+02  0.46736472307E+02  0.23282227153E+03  0.23836374433E+03  0.17770000000E+01 0.  1.
</event>
<event>
 7    1  0.3260141E-006  0.3748104E+03  0.7546771E-02  0.9733903E-01
        -11   -1    0    0    0    0  0.00000000000E+00  0.00000000000E+00  0.50000000000E+03  0.50000000000E+03  0.00000000000E+00 0. -1.
         11   -1    0    0    0    0 -0.00000000000E+00 -0.00000000000E+00 -0.50000000000E+03  0.50000000000E+03  0.00000000000E+00 0.  1.
         23    2    1    2    0    0  0.18831974697E+02  0.17706148620E+03  0.99208127641E+02  0.22316083680E+03  0.90846537208E+02 0.  0.
        -11    1    1    2    0    0 -0.18172363609E+03 -0.12188772851E+03  0.28299547436E+03  0.35772410708E+03  0.00000000000E+00 0. -1.
         11    1    1    2    0    0  0.16289166139E+03 -0.55173757690E+02 -0.38220360200E+03  0.41911505613E+03  0.00000000000E+00 0.  1.
        -15    1    3    3    0    0 -0.18261598803E+02  0.11304597990E+03  0.95402229915E+02  0.14905577065E+03  0.17770000000E+01 0. -1.
         15    1    3    3    0    0  0.37093573500E+02  0.64015506299E+02  0.38058977256E+01  0.74105066144E+02  0.17770000000E+01 0.  1.
</event>
<event>
 7    1  0.3260141E-006  0.5317990E+03  0.7546771E-02  0.9331340E-01
        -11   -1    0    0    0    0  0.00000000000E+00  0.00000000000E+00  0.50000000000E+03  0.50000000000E+03  0.00000000000E+00 0.  1.
         11   -1    0    0    0    0 -0.00000000000E+00 -0.00000000000E+00 -0.50000000000E+03  0.50000000000E+03  0.00000000000E+00 0. -1.
         23    2    1    2    0    0 -0.54501960995E+02  0.96863434865E+02  0.26766240214E+03  0.30476220416E+03  0.94254181855E+02 0.  0.
        -11    1    1    2    0    0  0.11033581737E+03 -0.41935761699E+02  0.19394099730E+03  0.22703680569E+03  0.00000000000E+00 0.  1.
         11    1    1    2    0    0 -0.55833856378E+02 -0.54927673165E+02 -0.46160339944E+03  0.46820099015E+03  0.00000000000E+00 0. -1.
        -15    1    3    3    0    0 -0.43943188598E+02 -0.20612789662E+01  0.10803899802E+03  0.11666548554E+03  0.17770000000E+01 0. -1.
         15    1    3    3    0    0 -0.10558772397E+02  0.98924713831E+02  0.15962340412E+03  0.18809671862E+03  0.17770000000E+01 0.  1.
</event>
<event>
 7    1  0.3260141E-006  0.4591850E+03  0.7546771E-02  0.9496073E-01
        -11   -1    0    0    0    0  0.00000000000E+00  0.00000000000E+00  0.50000000000E+03  0.50000000000E+03  0.00000000000E+00 0.  1.
         11   -1    0    0    0    0 -0.00000000000E+00 -0.00000000000E+00 -0.50000000000E+03  0.50000000000E+03  0.00000000000E+00 0.  1.
         23    2    1    2    0    0  0.15983199700E+03  0.14817422277E+01 -0.38122871697E+03  0.42368406626E+03  0.92867596804E+02 0.  0.
        -11    1    1    2    0    0 -0.14752507231E+03  0.10669218310E+02  0.46645933263E+03  0.48934833010E+03  0.00000000000E+00 0.  1.
         11    1    1    2    0    0 -0.12306924687E+02 -0.12150960538E+02 -0.85230615659E+02  0.86967603640E+02  0.00000000000E+00 0.  1.
        -15    1    3    3    0    0  0.94818117904E+02 -0.17116928054E+02 -0.12034865725E+03  0.15417659271E+03  0.17770000000E+01 0. -1.
         15    1    3    3    0    0  0.65013879097E+02  0.18598670282E+02 -0.26088005972E+03  0.26950747355E+03  0.17770000000E+01 0.  1.
</event>
<event>
 7    1  0.3260141E-006  0.5167782E+03  0.7546771E-02  0.9363031E-01
        -11   -1    0    0    0    0  0.00000000000E+00  0.00000000000E+00  0.50000000000E+03  0.50000000000E+03  0.00000000000E+00 0.  1.
         11   -1    0    0    0    0 -0.00000000000E+00 -0.00000000000E+00 -0.50000000000E+03  0.50000000000E+03  0.00000000000E+00 0. -1.
         23    2    1    2    0    0 -0.30627401424E+02 -0.42413650029E+02  0.26949874043E+03  0.28855619861E+03  0.88871554688E+02 0.  0.
        -11    1    1    2    0    0 -0.50880917111E+02 -0.14582155403E+03  0.16802523493E+03  0.22822198167E+03  0.00000000000E+00 0.  1.
         11    1    1    2    0    0  0.81508318535E+02  0.18823520406E+03 -0.43752397536E+03  0.48322181972E+03  0.00000000000E+00 0. -1.
        -15    1    3    3    0    0 -0.45346505704E+02  0.11533383413E+02  0.11094730021E+03  0.12042336013E+03  0.17770000000E+01 0.  1.
         15    1    3    3    0    0  0.14719104280E+02 -0.53947033442E+02  0.15855144022E+03  0.16813283847E+03  0.17770000000E+01 0. -1.
</event>
<event>
 7    1  0.3260141E-006  0.3552994E+03  0.7546771E-02  0.9798558E-01
        -11   -1    0    0    0    0  0.00000000000E+00  0.00000000000E+00  0.50000000000E+03  0.50000000000E+03  0.00000000000E+00 0. -1.
         11   -1    0    0    0    0 -0.00000000000E+00 -0.00000000000E+00 -0.50000000000E+03  0.50000000000E+03  0.00000000000E+00 0. -1.
         23    2    1    2    0    0 -0.58726699033E+02 -0.12747113336E+03  0.42686645376E+03  0.45902536231E+03  0.93763526358E+02 0.  0.
        -11    1    1    2    0    0  0.88232549680E+02  0.19963334792E+03 -0.18261105002E+03  0.28457907867E+03  0.00000000000E+00 0. -1.
         11    1    1    2    0    0 -0.29505850647E+02 -0.72162214554E+02 -0.24425540374E+03  0.25639555903E+03  0.00000000000E+00 0. -1.
        -15    1    3    3    0    0  0.13613835980E+01  0.13598934085E+02  0.56759696909E+02  0.58408948764E+02  0.17770000000E+01 0.  1.
         15    1    3    3    0    0 -0.60088082631E+02 -0.14107006745E+03  0.37010675685E+03  0.40061641354E+03  0.17770000000E+01 0. -1.
</event>
<event>
 7    1  0.3260141E-006  0.3693174E+03  0.7546771E-02  0.9751672E-01
        -11   -1    0    0    0    0  0.00000000000E+00  0.00000000000E+00  0.50000000000E+03  0.50000000000E+03  0.00000000000E+00 0. -1.
         11   -1    0    0    0    0 -0.00000000000E+00 -0.00000000000E+00 -0.50000000000E+03  0.50000000000E+03  0.00000000000E+00 0. -1.
         23    2    1    2    0    0 -0.95089288838E+02 -0.16443662985E+03  0.94948076155E+02  0.23144436489E+03  0.92032487671E+02 0.  0.
        -11    1    1    2    0    0 -0.11489103808E+02  0.16163772446E+03  0.31000521224E+03  0.34980278028E+03  0.00000000000E+00 0. -1.
         11    1    1    2    0    0  0.10657839265E+03  0.27989053889E+01 -0.40495328839E+03  0.41875285483E+03  0.00000000000E+00 0. -1.
        -15    1    3    3    0    0 -0.49440261164E+02 -0.75297264307E+02  0.95482960763E+02  0.13127898141E+03  0.17770000000E+01 0.  1.
         15    1    3    3    0    0 -0.45649027674E+02 -0.89139365540E+02 -0.53488460764E+00  0.10016538348E+03  0.17770000000E+01 0. -1.
</event>
<event>
 7    1  0.3260141E-006  0.3405284E+03  0.7546771E-02  0.9850539E-01
        -11   -1    0    0    0    0  0.00000000000E+00  0.00000000000E+00  0.50000000000E+03  0.50000000000E+03  0.00000000000E+00 0.  1.
         11   -1    0    0    0    0 -0.00000000000E+00 -0.00000000000E+00 -0.50000000000E+03  0.50000000000E+03  0.00000000000E+00 0.  1.
         23    2    1    2    0    0 -0.53193435917E+02  0.20043181388E+03  0.15066773045E+03  0.27230391174E+03  0.91903219249E+02 0.  0.
        -11    1    1    2    0    0 -0.12409400912E+03 -0.41222199090E+03 -0.13452921158E+03  0.45102594343E+03  0.00000000000E+00 0.  1.
         11    1    1    2    0    0  0.17728744503E+03  0.21179017702E+03 -0.16138518873E+02  0.27667014483E+03  0.00000000000E+00 0.  1.
        -15    1    3    3    0    0 -0.70062564154E+02  0.19699226629E+03  0.14336851963E+03  0.25352003081E+03  0.17770000000E+01 0.  1.
         15    1    3    3    0    0  0.16869128237E+02  0.34395475964E+01  0.72992108210E+01  0.18783880929E+02  0.17770000000E+01 0. -1.
</event>
<event>
 7    1  0.5192822E-006  0.5099536E+03  0.7546771E-02  0.9377809E-01
        -11   -1    0    0    0    0  0.00000000000E+00  0.00000000000E+00  0.50000000000E+03  0.50000000000E+03  0.00000000000E+00 0. -1.
         11   -1    0    0    0    0 -0.00000000000E+00 -0.00000000000E+00 -0.50000000000E+03  0.50000000000E+03  0.00000000000E+00 0. -1.
         23    2    1    2    0    0 -0.14077363853E+02 -0.27277733388E+02 -0.19560129231E+03  0.21624787049E+03  0.86954177717E+02 0.  0.
        -11    1    1    2    0    0  0.53684352950E+02  0.11160549884E+03  0.47413886390E+03  0.49004638494E+03  0.00000000000E+00 0. -1.
         11    1    1    2    0    0 -0.39606989097E+02 -0.84327765454E+02 -0.27853757159E+03  0.29370574458E+03  0.00000000000E+00 0. -1.
        -15    1    3    3    0    0 -0.36257193981E+02  0.13661419677E+02 -0.49436787513E+02  0.62836073967E+02  0.17770000000E+01 0.  1.
         15    1    3    3    0    0  0.22179830127E+02 -0.40939153065E+02 -0.14616450480E+03  0.15341179652E+03  0.17770000000E+01 0. -1.
</event>
<event>
 7    1  0.3260141E-006  0.4683583E+03  0.7546771E-02  0.9473534E-01
        -11   -1    0    0    0    0  0.00000000000E+00  0.00000000000E+00  0.50000000000E+03  0.50000000000E+03  0.00000000000E+00 0. -1.
         11   -1    0    0    0    0 -0.00000000000E+00 -0.00000000000E+00 -0.50000000000E+03  0.50000000000E+03  0.00000000000E+00 0. -1.
         23    2    1    2    0    0  0.17549261036E+02  0.11657730732E+03  0.43315573500E+03  0.45772892973E+03  0.89407142892E+02 0.  0.
        -11    1    1    2    0    0  0.67260714635E+02  0.37170822990E+01  0.16318492325E+02  0.69311713482E+02  0.00000000000E+00 0. -1.
         11    1    1    2    0    0 -0.84809975671E+02 -0.12029438962E+03 -0.44947422733E+03  0.47295935679E+03  0.00000000000E+00 0. -1.
        -15    1    3    3    0    0 -0.28681372938E+02  0.89943556344E+02  0.28658784007E+03  0.30174196308E+03  0.17770000000E+01 0.  1.
         15    1    3    3    0    0  0.46230633975E+02  0.26633750976E+02  0.14656789493E+03  0.15598696664E+03  0.17770000000E+01 0. -1.
</event>
<event>
 7    1  0.3260141E-006  0.3984177E+03  0.7546771E-02  0.9661088E-01
        -11   -1    0    0    0    0  0.00000000000E+00  0.00000000000E+00  0.50000000000E+03  0.50000000000E+03  0.00000000000E+00 0.  1.
         11   -1    0    0    0    0 -0.00000000000E+00 -0.00000000000E+00 -0.50000000000E+03  0.50000000000E+03  0.00000000000E+00 0. -1.
         23    2    1    2    0    0  0.11574518678E+03 -0.10650606677E+02  0.33550253936E+03  0.36564976562E+03  0.87335064563E+02 0.  0.
        -11    1    1    2    0    0 -0.11076079739E+03  0.12254620846E+03  0.94291630980E+02  0.19020104920E+03  0.00000000000E+00 0.  1.
         11    1    1    2    0    0 -0.49843893869E+01 -0.11189560178E+03 -0.42979417034E+03  0.44414918517E+03  0.00000000000E+00 0. -1.
        -15    1    3    3    0    0  0.90977721768E+01  0.29880218372E+02  0.72111794990E+02  0.78605760694E+02  0.17770000000E+01 0. -1.
         15    1    3    3    0    0  0.10664741460E+03 -0.40530825049E+02  0.26339074436E+03  0.28704400493E+03  0.17770000000E+01 0.  1.
</event>
<event>
 7    1  0.3260141E-006  0.5320592E+03  0.7546771E-02  0.9330801E-01
        -11   -1    0    0    0    0  0.00000000000E+00  0.00000000000E+00  0.50000000000E+03  0.50000000000E+03  0.00000000000E+00 0.  1.
         11   -1    0    0    0    0 -0.00000000000E+00 -0.00000000000E+00 -0.50000000000E+03  0.50000000000E+03  0.00000000000E+00 0. -1.
         23    2    1    2    0    0 -0.51934400161E+02 -0.15111849938E+00 -0.46454758130E+02  0.11493728468E+03  0.91407494768E+02 0.  0.
        -11    1    1    2    0    0  0.79263052137E+02 -0.10903459713E+03  0.44810425061E+03  0.46794080205E+03  0.00000000000E+00 0.  1.
         11    1    1    2    0    0 -0.27328651975E+02  0.10918571563E+03 -0.40164949248E+03  0.41712191327E+03  0.00000000000E+00 0. -1.
        -15    1    3    3    0    0 -0.54339734968E+02 -0.34856998118E+02 -0.47366369172E+02  0.80090871962E+02  0.17770000000E+01 0. -1.
         15    1    3    3    0    0  0.24053348064E+01  0.34705879618E+02  0.91161104179E+00  0.34846412718E+02  0.17770000000E+01 0.  1.
</event>
<event>
 7    1  0.3260141E-006  0.3661615E+03  0.7546771E-02  0.9762031E-01
        -11   -1    0    0    0    0  0.00000000000E+00  0.00000000000E+00  0.50000000000E+03  0.50000000000E+03  0.00000000000E+00 0. -1.
         11   -1    0    0    0    0 -0.00000000000E+00 -0.00000000000E+00 -0.50000000000E+03  0.50000000000E+03  0.00000000000E+00 0.  1.
         23    2    1    2    0    0 -0.42823881911E+02 -0.49125880719E+02  0.39569308957E+03  0.41124098991E+03  0.91098263555E+02 0.  0.
        -11    1    1    2    0    0  0.35881263462E+02 -0.19014207290E+03 -0.14234664239E+03  0.24021665129E+03  0.00000000000E+00 0. -1.
         11    1    1    2    0    0  0.69426184490E+01  0.23926795362E+03 -0.25334644718E+03  0.34854235881E+03  0.00000000000E+00 0.  1.
        -15    1    3    3    0    0  0.24556228056E+02 -0.35564818003E+02  0.15279238756E+03  0.15879715376E+03  0.17770000000E+01 0. -1.
         15    1    3    3    0    0 -0.67380109967E+02 -0.13561062716E+02  0.24290070201E+03  0.25244383615E+03  0.17770000000E+01 0.  1.
</event>
<event>
 7    1  0.3260141E-006  0.4100317E+03  0.7546771E-02  0.9627216E-01
        -11   -1    0    0    0    0  0.00000000000E+00  0.00000000000E+00  0.50000000000E+03  0.50000000000E+03  0.00000000000E+00 0.  1.
         11   -1    0    0    0    0 -0.00000000000E+00 -0.00000000000E+00 -0.50000000000E+03  0.50000000000E+03  0.00000000000E+00 0. -1.
         23    2    1    2    0    0 -0.99889406093E+02 -0.84521452264E+02  0.52736896512E+02  0.16788999800E+03  0.91017041448E+02 0.  0.
        -11    1    1    2    0    0  0.93555191841E+02 -0.53603505126E+02  0.37101744470E+03  0.38636751151E+03  0.00000000000E+00 0.  1.
         11    1    1    2    0    0  0.63342142520E+01  0.13812495739E+03 -0.42375434121E+03  0.44574249048E+03  0.00000000000E+00 0. -1.
        -15    1    3    3    0    0 -0.50120036754E+02 -0.63573291100E+01  0.55624033773E+02  0.75163984592E+02  0.17770000000E+01 0. -1.
         15    1    3    3    0    0 -0.49769369339E+02 -0.78164123154E+02 -0.28871372610E+01  0.92726013412E+02  0.17770000000E+01 0.  1.
</event>
<event>
 6    1  0.3260141E-006  0.4243100E+03  0.7546771E-02  0.9587180E-01
        -11   -1    0    0    0    0  0.00000000000E+00  0.00000000000E+00  0.50000000000E+03  0.50000000000E+03  0.00000000000E+00 0. -1.
         11   -1    0    0    0    0 -0.00000000000E+00 -0.00000000000E+00 -0.50000000000E+03  0.50000000000E+03  0.00000000000E+00 0.  1.
        -11    1    1    2    0    0  0.40252672746E+02  0.89827844316E+02  0.15645391237E+03  0.18484357163E+03  0.00000000000E+00 0. -1.
         11    1    1    2    0    0  0.47759314526E+01  0.91222583917E+02 -0.42062178932E+03  0.43042660116E+03  0.00000000000E+00 0.  1.
        -15    1    1    2    0    0 -0.10085213804E+03 -0.16176473225E+03  0.11108687517E+03  0.22064096154E+03  0.17770000000E+01 0. -1.
         15    1    1    2    0    0  0.55823533838E+02 -0.19285695983E+02  0.15308100178E+03  0.16408886566E+03  0.17770000000E+01 0.  1.
</event>
<event>
 7    1  0.3260141E-006  0.5315663E+03  0.7546771E-02  0.9331822E-01
        -11   -1    0    0    0    0  0.00000000000E+00  0.00000000000E+00  0.50000000000E+03  0.50000000000E+03  0.00000000000E+00 0.  1.
         11   -1    0    0    0    0 -0.00000000000E+00 -0.00000000000E+00 -0.50000000000E+03  0.50000000000E+03  0.00000000000E+00 0. -1.
         23    2    1    2    0    0 -0.32636059764E+01  0.12871872383E+03  0.19191442790E+03  0.24854177443E+03  0.91447826723E+02 0.  0.
        -11    1    1    2    0    0 -0.75129912886E+02 -0.63747011796E+02  0.26531996247E+03  0.28302450037E+03  0.00000000000E+00 0.  1.
         11    1    1    2    0    0  0.78393518862E+02 -0.64971712034E+02 -0.45723439037E+03  0.46843372520E+03  0.00000000000E+00 0. -1.
        -15    1    3    3    0    0 -0.11248389023E+02 -0.16625135388E+01 -0.47431922450E+01  0.12447723026E+02  0.17770000000E+01 0.  1.
         15    1    3    3    0    0  0.79847830461E+01  0.13038123737E+03  0.19665762015E+03  0.23609405141E+03  0.17770000000E+01 0. -1.
</event>
<event>
 7    1  0.3260141E-006  0.5114634E+03  0.7546771E-02  0.9374519E-01
        -11   -1    0    0    0    0  0.00000000000E+00  0.00000000000E+00  0.50000000000E+03  0.50000000000E+03  0.00000000000E+00 0. -1.
         11   -1    0    0    0    0 -0.00000000000E+00 -0.00000000000E+00 -0.50000000000E+03  0.50000000000E+03  0.00000000000E+00 0. -1.
         23    2    1    2    0    0 -0.19329857329E+02  0.21143908714E+02  0.25669717389E+03  0.27373306741E+03  0.90640194434E+02 0.  0.
        -11    1    1    2    0    0 -0.89870706321E+02 -0.16656977943E+02  0.21945732302E+03  0.23773034176E+03  0.00000000000E+00 0. -1.
         11    1    1    2    0    0  0.10920056365E+03 -0.44869307711E+01 -0.47615449691E+03  0.48853659083E+03  0.00000000000E+00 0. -1.
        -15    1    3    3    0    0 -0.38030882214E+02  0.27983226773E+02  0.24706399784E+03  0.25154161831E+03  0.17770000000E+01 0. -1.
         15    1    3    3    0    0  0.18701024885E+02 -0.68393180585E+01  0.96331760509E+01  0.22191449098E+02  0.17770000000E+01 0.  1.
</event>
<event>
 7    1  0.3260141E-006  0.5189178E+03  0.7546771E-02  0.9358447E-01
        -11   -1    0    0    0    0  0.00000000000E+00  0.00000000000E+00  0.50000000000E+03  0.50000000000E+03  0.00000000000E+00 0. -1.
         11   -1    0    0    0    0 -0.00000000000E+00 -0.00000000000E+00 -0.50000000000E+03  0.50000000000E+03  0.00000000000E+00 0. -1.
         23    2    1    2    0    0 -0.15326259442E+02  0.59856961170E+02  0.77286853478E+02  0.13592036277E+03  0.93184426086E+02 0.  0.
        -11    1    1    2    0    0 -0.91283820820E+02  0.18963910187E+03  0.31998644407E+03  0.38299745337E+03  0.00000000000E+00 0. -1.
         11    1    1    2    0    0  0.10661008026E+03 -0.24949606304E+03 -0.39727329755E+03  0.48108218386E+03  0.00000000000E+00 0. -1.
        -15    1    3    3    0    0  0.32136025716E+02  0.10716277833E+01  0.75266947179E+01  0.33070854196E+02  0.17770000000E+01 0. -1.
         15    1    3    3    0    0 -0.47462285158E+02  0.58785333387E+02  0.69760158760E+02  0.10284950857E+03  0.17770000000E+01 0.  1.
</event>
<event>
 7    1  0.3260141E-006  0.4701008E+03  0.7546771E-02  0.9469315E-01
        -11   -1    0    0    0    0  0.00000000000E+00  0.00000000000E+00  0.50000000000E+03  0.50000000000E+03  0.00000000000E+00 0.  1.
         11   -1    0    0    0    0 -0.00000000000E+00 -0.00000000000E+00 -0.50000000000E+03  0.50000000000E+03  0.00000000000E+00 0. -1.
         23    2    1    2    0    0  0.13651661983E+03  0.34584917671E+02 -0.41225661382E+03  0.44445571355E+03  0.88048064427E+02 0.  0.
        -11    1    1    2    0    0 -0.12973672982E+03 -0.70521130791E+02  0.46695513558E+03  0.48974681990E+03  0.00000000000E+00 0.  1.
         11    1    1    2    0    0 -0.67798900148E+01  0.35936213119E+02 -0.54698521762E+02  0.65797466554E+02  0.00000000000E+00 0. -1.
        -15    1    3    3    0    0  0.38571768110E+02  0.21314908304E+02 -0.40843848482E+02  0.60112264131E+02  0.17770000000E+01 0.  1.
         15    1    3    3    0    0  0.97944851725E+02  0.13270009367E+02 -0.37141276534E+03  0.38434344942E+03  0.17770000000E+01 0. -1.
</event>
<event>
 7    1  0.3260141E-006  0.5219608E+03  0.7546771E-02  0.9351969E-01
        -11   -1    0    0    0    0  0.00000000000E+00  0.00000000000E+00  0.50000000000E+03  0.50000000000E+03  0.00000000000E+00 0.  1.
         11   -1    0    0    0    0 -0.00000000000E+00 -0.00000000000E+00 -0.50000000000E+03  0.50000000000E+03  0.00000000000E+00 0. -1.
         23    2    1    2    0    0 -0.30330604843E+02  0.99424924944E+02  0.16159164511E+03  0.21224678412E+03  0.90175253317E+02 0.  0.
        -11    1    1    2    0    0 -0.57155111901E+02 -0.28767344938E+02  0.30303214653E+03  0.30971397899E+03  0.00000000000E+00 0.  1.
         11    1    1    2    0    0  0.87485716744E+02 -0.70657580006E+02 -0.46462379164E+03  0.47803923689E+03  0.00000000000E+00 0. -1.
        -15    1    3    3    0    0  0.20269256552E+02  0.44741471247E+02  0.11314606369E+03  0.12336057501E+03  0.17770000000E+01 0. -1.
         15    1    3    3    0    0 -0.50599861395E+02  0.54683453697E+02  0.48445581419E+02  0.88886209107E+02  0.17770000000E+01 0.  1.
</event>
<event>
 7    1  0.3260141E-006  0.5219592E+03  0.7546771E-02  0.9351972E-01
        -11   -1    0    0    0    0  0.00000000000E+00  0.00000000000E+00  0.50000000000E+03  0.50000000000E+03  0.00000000000E+00 0. -1.
         11   -1    0    0    0    0 -0.00000000000E+00 -0.00000000000E+00 -0.50000000000E+03  0.50000000000E+03  0.00000000000E+00 0. -1.
         23    2    1    2    0    0 -0.61174641076E+02  0.50827552836E+02  0.23816561708E+03  0.26722611629E+03  0.91439374612E+02 0.  0.
        -11    1    1    2    0    0 -0.11561998871E+02 -0.10677664616E+03  0.23098482040E+03  0.25473303523E+03  0.00000000000E+00 0. -1.
         11    1    1    2    0    0  0.72736639947E+02  0.55949093321E+02 -0.46915043748E+03  0.47804084848E+03  0.00000000000E+00 0. -1.
        -15    1    3    3    0    0 -0.83569024930E+02  0.26961135160E+02  0.18459936931E+03  0.20442790812E+03  0.17770000000E+01 0. -1.
         15    1    3    3    0    0  0.22394383853E+02  0.23866417676E+02  0.53566247764E+02  0.62798208170E+02  0.17770000000E+01 0.  1.
</event>
<event>
 7    1  0.3260141E-006  0.5257656E+03  0.7546771E-02  0.9343934E-01
        -11   -1    0    0    0    0  0.00000000000E+00  0.00000000000E+00  0.50000000000E+03  0.50000000000E+03  0.00000000000E+00 0. -1.
         11   -1    0    0    0    0 -0.00000000000E+00 -0.00000000000E+00 -0.50000000000E+03  0.50000000000E+03  0.00000000000E+00 0.  1.
         23    2    1    2    0    0 -0.72935532982E+02 -0.12756870195E+03  0.38142087178E+03  0.41883025815E+03  0.91342969214E+02 0.  0.
        -11    1    1    2    0    0  0.77262255483E+02 -0.55702991895E+01  0.73720343019E+02  0.10693536987E+03  0.00000000000E+00 0. -1.
         11    1    1    2    0    0 -0.43267225007E+01  0.13313900114E+03 -0.45514121480E+03  0.47423437197E+03  0.00000000000E+00 0.  1.
        -15    1    3    3    0    0  0.16333542813E+02 -0.38717323324E+02  0.57189369986E+02  0.70990122656E+02  0.17770000000E+01 0.  1.
         15    1    3    3    0    0 -0.89269075795E+02 -0.88851378624E+02  0.32423150180E+03  0.34784013550E+03  0.17770000000E+01 0. -1.
</event>
<event>
 7    1  0.3260141E-006  0.5147570E+03  0.7546771E-02  0.9367382E-01
        -11   -1    0    0    0    0  0.00000000000E+00  0.00000000000E+00  0.50000000000E+03  0.50000000000E+03  0.00000000000E+00 0. -1.
         11   -1    0    0    0    0 -0.00000000000E+00 -0.00000000000E+00 -0.50000000000E+03  0.50000000000E+03  0.00000000000E+00 0.  1.
         23    2    1    2    0    0 -0.68562542108E+01  0.28829367364E+01 -0.16536088285E+03  0.18910433807E+03  0.91438009348E+02 0.  0.
        -11    1    1    2    0    0 -0.67194567556E+02  0.51260781700E+02  0.47782627254E+03  0.48524295397E+03  0.00000000000E+00 0. -1.
         11    1    1    2    0    0  0.74050821767E+02 -0.54143718437E+02 -0.31246538968E+03  0.32565270796E+03  0.00000000000E+00 0.  1.
        -15    1    3    3    0    0 -0.15848308344E+02 -0.40858769171E+02 -0.57251113123E+02  0.72121117423E+02  0.17770000000E+01 0.  1.
         15    1    3    3    0    0  0.89920541330E+01  0.43741705907E+02 -0.10810976973E+03  0.11698322065E+03  0.17770000000E+01 0. -1.
</event>
<event>
 7    1  0.3260141E-006  0.5127038E+03  0.7546771E-02  0.9371824E-01
        -11   -1    0    0    0    0  0.00000000000E+00  0.00000000000E+00  0.50000000000E+03  0.50000000000E+03  0.00000000000E+00 0.  1.
         11   -1    0    0    0    0 -0.00000000000E+00 -0.00000000000E+00 -0.50000000000E+03  0.50000000000E+03  0.00000000000E+00 0.  1.
         23    2    1    2    0    0  0.13776019608E+03 -0.66376762417E+02 -0.18375712472E+03  0.25709765676E+03  0.94597981009E+02 0.  0.
        -11    1    1    2    0    0 -0.22984839407E+03  0.20577696682E+03  0.37720438715E+03  0.48729620768E+03  0.00000000000E+00 0.  1.
         11    1    1    2    0    0  0.92088197991E+02 -0.13940020440E+03 -0.19344726243E+03  0.25560613557E+03  0.00000000000E+00 0.  1.
        -15    1    3    3    0    0  0.12453870179E+03 -0.21052432072E+02 -0.16104668976E+03  0.20467605417E+03  0.17770000000E+01 0. -1.
         15    1    3    3    0    0  0.13221494291E+02 -0.45324330345E+02 -0.22710434960E+02  0.52421602585E+02  0.17770000000E+01 0.  1.
</event>
<event>
 7    1  0.3505365E-006  0.5096795E+03  0.7546771E-02  0.9378408E-01
        -11   -1    0    0    0    0  0.00000000000E+00  0.00000000000E+00  0.50000000000E+03  0.50000000000E+03  0.00000000000E+00 0.  1.
         11   -1    0    0    0    0 -0.00000000000E+00 -0.00000000000E+00 -0.50000000000E+03  0.50000000000E+03  0.00000000000E+00 0.  1.
         23    2    1    2    0    0 -0.99976420612E+02 -0.24346870854E+02 -0.38541993687E+03  0.40952924193E+03  0.92615427776E+02 0.  0.
        -11    1    1    2    0    0  0.16062156120E+03  0.51335368161E+02  0.46041238337E+03  0.49032047551E+03  0.00000000000E+00 0.  1.
         11    1    1    2    0    0 -0.60645140592E+02 -0.26988497306E+02 -0.74992446497E+02  0.10015028256E+03  0.00000000000E+00 0.  1.
        -15    1    3    3    0    0 -0.22891372706E+02 -0.36681169933E+02 -0.24559172738E+03  0.24937517410E+03  0.17770000000E+01 0. -1.
         15    1    3    3    0    0 -0.77085047906E+02  0.12334299079E+02 -0.13982820949E+03  0.16015406783E+03  0.17770000000E+01 0.  1.
</event>
<event>
 7    1  0.3260141E-006  0.5037129E+03  0.7546771E-02  0.9391540E-01
        -11   -1    0    0    0    0  0.00000000000E+00  0.00000000000E+00  0.50000000000E+03  0.50000000000E+03  0.00000000000E+00 0. -1.
         11   -1    0    0    0    0 -0.00000000000E+00 -0.00000000000E+00 -0.50000000000E+03  0.50000000000E+03  0.00000000000E+00 0. -1.
         23    2    1    2    0    0  0.55048476911E+02  0.67045827512E+02  0.47986011875E+03  0.49628707310E+03  0.92247750976E+02 0.  0.
        -11    1    1    2    0    0 -0.37928102532E+02  0.19277883030E+02 -0.53450137306E+02  0.68316139483E+02  0.00000000000E+00 0. -1.
         11    1    1    2    0    0 -0.17120374379E+02 -0.86323710542E+02 -0.42640998144E+03  0.43539678742E+03  0.00000000000E+00 0. -1.
        -15    1    3    3    0    0 -0.43518201146E+01  0.56006007906E+02  0.13600996883E+03  0.14716480764E+03  0.17770000000E+01 0.  1.
         15    1    3    3    0    0  0.59400297026E+02  0.11039819606E+02  0.34385014992E+03  0.34912226545E+03  0.17770000000E+01 0. -1.
</event>
<event>
 7    1  0.3260141E-006  0.5044690E+03  0.7546771E-02  0.9389865E-01
        -11   -1    0    0    0    0  0.00000000000E+00  0.00000000000E+00  0.50000000000E+03  0.50000000000E+03  0.00000000000E+00 0. -1.
         11   -1    0    0    0    0 -0.00000000000E+00 -0.00000000000E+00 -0.50000000000E+03  0.50000000000E+03  0.00000000000E+00 0. -1.
         23    2    1    2    0    0  0.20367374003E+03  0.50221689879E+01  0.44177907829E+03  0.49553095859E+03  0.94201710928E+02 0.  0.
        -11    1    1    2    0    0 -0.18977065458E+03  0.23081640671E+02 -0.27593525164E+03  0.33568724517E+03  0.00000000000E+00 0. -1.
         11    1    1    2    0    0 -0.13903085453E+02 -0.28103809659E+02 -0.16584382665E+03  0.16878179624E+03  0.00000000000E+00 0. -1.
        -15    1    3    3    0    0  0.92083521552E+02 -0.39104228818E+02  0.15306743038E+03  0.18286965747E+03  0.17770000000E+01 0.  1.
         15    1    3    3    0    0  0.11159021848E+03  0.44126397806E+02  0.28871164792E+03  0.31266130112E+03  0.17770000000E+01 0. -1.
</event>
<event>
 7    1  0.3260141E-006  0.5117160E+03  0.7546771E-02  0.9373969E-01
        -11   -1    0    0    0    0  0.00000000000E+00  0.00000000000E+00  0.50000000000E+03  0.50000000000E+03  0.00000000000E+00 0.  1.
         11   -1    0    0    0    0 -0.00000000000E+00 -0.00000000000E+00 -0.50000000000E+03  0.50000000000E+03  0.00000000000E+00 0. -1.
         23    2    1    2    0    0  0.41727460029E+02 -0.37415617776E+02  0.39537134878E+03  0.40983047744E+03  0.92203077149E+02 0.  0.
        -11    1    1    2    0    0  0.63377486245E+02 -0.11267687332E+02  0.78974658056E+02  0.10188553948E+03  0.00000000000E+00 0.  1.
         11    1    1    2    0    0 -0.10510494627E+03  0.48683305108E+02 -0.47434600683E+03  0.48828398307E+03  0.00000000000E+00 0. -1.
        -15    1    3    3    0    0 -0.10094041266E+02  0.10236107982E+02  0.89123061327E+01  0.17007483803E+02  0.17770000000E+01 0. -1.
         15    1    3    3    0    0  0.51821501295E+02 -0.47651725757E+02  0.38645904264E+03  0.39282299364E+03  0.17770000000E+01 0.  1.
</event>
<event>
 7    1  0.3260141E-006  0.3444740E+03  0.7546771E-02  0.9836381E-01
        -11   -1    0    0    0    0  0.00000000000E+00  0.00000000000E+00  0.50000000000E+03  0.50000000000E+03  0.00000000000E+00 0. -1.
         11   -1    0    0    0    0 -0.00000000000E+00 -0.00000000000E+00 -0.50000000000E+03  0.50000000000E+03  0.00000000000E+00 0.  1.
         23    2    1    2    0    0  0.29297637930E+03  0.58003872645E+02 -0.44133358523E+02  0.31679215478E+03  0.95968265203E+02 0.  0.
        -11    1    1    2    0    0 -0.28741500543E+03  0.64297336273E+02  0.28699878716E+03  0.41122966409E+03  0.00000000000E+00 0. -1.
         11    1    1    2    0    0 -0.55613738667E+01 -0.12230120892E+03 -0.24286542864E+03  0.27197818113E+03  0.00000000000E+00 0.  1.
        -15    1    3    3    0    0  0.26683478259E+03  0.51998170395E+02 -0.68667602749E+02  0.28039794636E+03  0.17770000000E+01 0.  1.
         15    1    3    3    0    0  0.26141596705E+02  0.60057022498E+01  0.24534244225E+02  0.36394208420E+02  0.17770000000E+01 0. -1.
</event>
<event>
 7    1  0.3260141E-006  0.5127014E+03  0.7546771E-02  0.9371829E-01
        -11   -1    0    0    0    0  0.00000000000E+00  0.00000000000E+00  0.50000000000E+03  0.50000000000E+03  0.00000000000E+00 0.  1.
         11   -1    0    0    0    0 -0.00000000000E+00 -0.00000000000E+00 -0.50000000000E+03  0.50000000000E+03  0.00000000000E+00 0. -1.
         23    2    1    2    0    0 -0.44575839126E+02 -0.29796106429E+00 -0.15023368099E+03  0.18088843105E+03  0.90351377234E+02 0.  0.
        -11    1    1    2    0    0  0.97614679324E+02  0.28265172924E+02  0.47658406177E+03  0.48729858768E+03  0.00000000000E+00 0.  1.
         11    1    1    2    0    0 -0.53038840198E+02 -0.27967211860E+02 -0.32635038078E+03  0.33181298127E+03  0.00000000000E+00 0. -1.
        -15    1    3    3    0    0 -0.27034401442E+02 -0.44669843754E+02 -0.89516703288E+02  0.10364676405E+03  0.17770000000E+01 0.  1.
         15    1    3    3    0    0 -0.17541437684E+02  0.44371882690E+02 -0.60716977706E+02  0.77241666995E+02  0.17770000000E+01 0. -1.
</event>
<event>
 7    1  0.3260141E-006  0.4516745E+03  0.7546771E-02  0.9514949E-01
        -11   -1    0    0    0    0  0.00000000000E+00  0.00000000000E+00  0.50000000000E+03  0.50000000000E+03  0.00000000000E+00 0. -1.
         11   -1    0    0    0    0 -0.00000000000E+00 -0.00000000000E+00 -0.50000000000E+03  0.50000000000E+03  0.00000000000E+00 0.  1.
         23    2    1    2    0    0  0.40166225543E+03 -0.11293858149E+03 -0.11744957614E+03  0.44274640228E+03  0.90234600699E+02 0.  0.
        -11    1    1    2    0    0 -0.37740390399E+03  0.15897969546E+03  0.20303341382E+03  0.45708950704E+03  0.00000000000E+00 0. -1.
         11    1    1    2    0    0 -0.24258351447E+02 -0.46041113976E+02 -0.85583837680E+02  0.10016409069E+03  0.00000000000E+00 0.  1.
        -15    1    3    3    0    0  0.27821596977E+03 -0.11038545339E+03 -0.54863184944E+02  0.30430609746E+03  0.17770000000E+01 0.  1.
         15    1    3    3    0    0  0.12344628566E+03 -0.25531280963E+01 -0.62586391199E+02  0.13844030482E+03  0.17770000000E+01 0. -1.
</event>
<event>
 7    1  0.3260141E-006  0.3301929E+03  0.7546771E-02  0.9888624E-01
        -11   -1    0    0    0    0  0.00000000000E+00  0.00000000000E+00  0.50000000000E+03  0.50000000000E+03  0.00000000000E+00 0.  1.
         11   -1    0    0    0    0 -0.00000000000E+00 -0.00000000000E+00 -0.50000000000E+03  0.50000000000E+03  0.00000000000E+00 0. -1.
         23    2    1    2    0    0  0.25175527508E+02  0.27883724005E+03  0.17107139131E+03  0.34021928070E+03  0.89998468960E+02 0.  0.
        -11    1    1    2    0    0 -0.36856097097E+02 -0.21379076515E+03  0.19263071483E+03  0.29012317289E+03  0.00000000000E+00 0.  1.
         11    1    1    2    0    0  0.11680569589E+02 -0.65046474903E+02 -0.36370210614E+03  0.36965754640E+03  0.00000000000E+00 0. -1.
        -15    1    3    3    0    0  0.50474639822E+02  0.16131776178E+03  0.12973868848E+03  0.21308776255E+03  0.17770000000E+01 0. -1.
         15    1    3    3    0    0 -0.25299112315E+02  0.11751947827E+03  0.41332702832E+02  0.12713151816E+03  0.17770000000E+01 0.  1.
</event>
<event>
 7    1  0.3260141E-006  0.3864434E+03  0.7546771E-02  0.9697327E-01
        -11   -1    0    0    0    0  0.00000000000E+00  0.00000000000E+00  0.50000000000E+03  0.50000000000E+03  0.00000000000E+00 0.  1.
         11   -1    0    0    0    0 -0.00000000000E+00 -0.00000000000E+00 -0.50000000000E+03  0.50000000000E+03  0.00000000000E+00 0. -1.
         23    2    1    2    0    0  0.46387783708E+02  0.31299224619E+03 -0.10584993440E+03  0.34562104450E+03  0.90187167217E+02 0.  0.
        -11    1    1    2    0    0  0.14154948530E+03 -0.39366190301E+03  0.15132476928E+03  0.44486530149E+03  0.00000000000E+00 0.  1.
         11    1    1    2    0    0 -0.18793726901E+03  0.80669656818E+02 -0.45474834871E+02  0.20951365402E+03  0.00000000000E+00 0. -1.
        -15    1    3    3    0    0  0.35973720995E+02  0.30851091599E+03 -0.85336354920E+02  0.32211573244E+03  0.17770000000E+01 0. -1.
         15    1    3    3    0    0  0.10414062713E+02  0.44813302068E+01 -0.20513579484E+02  0.23505312056E+02  0.17770000000E+01 0.  1.
</event>
<event>
 7    1  0.3260141E-006  0.4371558E+03  0.7546771E-02  0.9552570E-01
        -11   -1    0    0    0    0  0.00000000000E+00  0.00000000000E+00  0.50000000000E+03  0.50000000000E+03  0.00000000000E+00 0.  1.
         11   -1    0    0    0    0 -0.00000000000E+00 -0.00000000000E+00 -0.50000000000E+03  0.50000000000E+03  0.00000000000E+00 0. -1.
         23    2    1    2    0    0  0.62681392456E+02 -0.16985413097E+02 -0.44047212380E+02  0.12217402778E+03  0.93642271055E+02 0.  0.
        -11    1    1    2    0    0 -0.95648271414E+01 -0.20840714180E+03  0.40118275234E+03  0.45218649189E+03  0.00000000000E+00 0.  1.
         11    1    1    2    0    0 -0.53116565314E+02  0.22539255490E+03 -0.35713553996E+03  0.42563948033E+03  0.00000000000E+00 0. -1.
        -15    1    3    3    0    0  0.42092368091E+02 -0.54794056985E+02 -0.16589492607E+02  0.71081116524E+02  0.17770000000E+01 0.  1.
         15    1    3    3    0    0  0.20589024365E+02  0.37808643887E+02 -0.27457719773E+02  0.51092911260E+02  0.17770000000E+01 0. -1.
</event>
<event>
 7    1  0.3260141E-006  0.5167144E+03  0.7546771E-02  0.9363168E-01
        -11   -1    0    0    0    0  0.00000000000E+00  0.00000000000E+00  0.50000000000E+03  0.50000000000E+03  0.00000000000E+00 0.  1.
         11   -1    0    0    0    0 -0.00000000000E+00 -0.00000000000E+00 -0.50000000000E+03  0.50000000000E+03  0.00000000000E+00 0. -1.
         23    2    1    2    0    0  0.58949367672E+02 -0.15442072759E+02  0.30805176818E+03  0.32599397409E+03  0.87536813405E+02 0.  0.
        -11    1    1    2    0    0  0.61066603531E+02 -0.11073174298E+03  0.14277119927E+03  0.19072038253E+03  0.00000000000E+00 0.  1.
         11    1    1    2    0    0 -0.12001597120E+03  0.12617381574E+03 -0.45082296745E+03  0.48328564339E+03  0.00000000000E+00 0. -1.
        -15    1    3    3    0    0 -0.15676784896E+02  0.12758061719E+02  0.26636950363E+02  0.33484542361E+02  0.17770000000E+01 0. -1.
         15    1    3    3    0    0  0.74626152568E+02 -0.28200134478E+02  0.28141481782E+03  0.29250943173E+03  0.17770000000E+01 0.  1.
</event>
<event>
 7    1  0.1089740E-005  0.5078050E+03  0.7546771E-02  0.9382513E-01
        -11   -1    0    0    0    0  0.00000000000E+00  0.00000000000E+00  0.50000000000E+03  0.50000000000E+03  0.00000000000E+00 0. -1.
         11   -1    0    0    0    0 -0.00000000000E+00 -0.00000000000E+00 -0.50000000000E+03  0.50000000000E+03  0.00000000000E+00 0.  1.
         23    2    1    2    0    0 -0.16825783394E+02  0.11161964130E+02 -0.26503602836E+03  0.27589902361E+03  0.73949161388E+02 0.  0.
        -11    1    1    2    0    0  0.70342573259E+02 -0.75921737809E+02  0.48118991741E+03  0.49219500658E+03  0.00000000000E+00 0. -1.
         11    1    1    2    0    0 -0.53516789864E+02  0.64759773678E+02 -0.21615388904E+03  0.23190596981E+03  0.00000000000E+00 0.  1.
        -15    1    3    3    0    0  0.11304790255E+02  0.36684412583E+02 -0.12316631300E+03  0.12902186945E+03  0.17770000000E+01 0.  1.
         15    1    3    3    0    0 -0.28130573650E+02 -0.25522448453E+02 -0.14186971536E+03  0.14687715416E+03  0.17770000000E+01 0. -1.
</event>
<event>
 7    1  0.3260141E-006  0.4580045E+03  0.7546771E-02  0.9499015E-01
        -11   -1    0    0    0    0  0.00000000000E+00  0.00000000000E+00  0.50000000000E+03  0.50000000000E+03  0.00000000000E+00 0.  1.
         11   -1    0    0    0    0 -0.00000000000E+00 -0.00000000000E+00 -0.50000000000E+03  0.50000000000E+03  0.00000000000E+00 0. -1.
         23    2    1    2    0    0  0.15021474471E+02 -0.18114898544E+00  0.46188792258E+03  0.47114465870E+03  0.91712370391E+02 0.  0.
        -11    1    1    2    0    0 -0.21537524216E+02  0.81069662674E+02 -0.29499710794E+02  0.88917872739E+02  0.00000000000E+00 0.  1.
         11    1    1    2    0    0  0.65160497448E+01 -0.80888513689E+02 -0.43238821179E+03  0.43993746856E+03  0.00000000000E+00 0. -1.
        -15    1    3    3    0    0  0.25765800149E+02 -0.42171603877E+02  0.25708733127E+03  0.26180025642E+03  0.17770000000E+01 0.  1.
         15    1    3    3    0    0 -0.10744325678E+02  0.41990454892E+02  0.20480059131E+03  0.20934440228E+03  0.17770000000E+01 0. -1.
</event>
<event>
 7    1  0.3260141E-006  0.3203541E+03  0.7546771E-02  0.9926295E-01
        -11   -1    0    0    0    0  0.00000000000E+00  0.00000000000E+00  0.50000000000E+03  0.50000000000E+03  0.00000000000E+00 0.  1.
         11   -1    0    0    0    0 -0.00000000000E+00 -0.00000000000E+00 -0.50000000000E+03  0.50000000000E+03  0.00000000000E+00 0. -1.
         23    2    1    2    0    0 -0.22179663567E+03  0.98005559419E+02  0.20666202328E+03  0.33164874074E+03  0.92102432643E+02 0.  0.
        -11    1    1    2    0    0  0.34747530113E+03 -0.87853066396E+02  0.69209859155E+02  0.36503047924E+03  0.00000000000E+00 0.  1.
         11    1    1    2    0    0 -0.12567866547E+03 -0.10152493023E+02 -0.27587188244E+03  0.30332078001E+03  0.00000000000E+00 0. -1.
        -15    1    3    3    0    0 -0.15272261970E+03  0.83164276148E+02  0.19277160118E+03  0.25962384972E+03  0.17770000000E+01 0. -1.
         15    1    3    3    0    0 -0.69074015970E+02  0.14841283271E+02  0.13890422104E+02  0.72024891021E+02  0.17770000000E+01 0.  1.
</event>
<event>
 7    1  0.3260141E-006  0.3548035E+03  0.7546771E-02  0.9800259E-01
        -11   -1    0    0    0    0  0.00000000000E+00  0.00000000000E+00  0.50000000000E+03  0.50000000000E+03  0.00000000000E+00 0. -1.
         11   -1    0    0    0    0 -0.00000000000E+00 -0.00000000000E+00 -0.50000000000E+03  0.50000000000E+03  0.00000000000E+00 0.  1.
         23    2    1    2    0    0  0.20485915220E+03 -0.25013179428E+01  0.20231878571E+03  0.30194777012E+03  0.90917743031E+02 0.  0.
        -11    1    1    2    0    0 -0.11190921296E+03  0.36957501572E+02  0.22789502951E+03  0.25656514444E+03  0.00000000000E+00 0. -1.
         11    1    1    2    0    0 -0.92949939243E+02 -0.34456183630E+02 -0.43021381522E+03  0.44148708543E+03  0.00000000000E+00 0.  1.
        -15    1    3    3    0    0  0.75918814867E+02 -0.19498440482E+02  0.13343844467E+03  0.15476702452E+03  0.17770000000E+01 0.  1.
         15    1    3    3    0    0  0.12894033734E+03  0.16997122539E+02  0.68880341040E+02  0.14718074561E+03  0.17770000000E+01 0. -1.
</event>
<event>
 7    1  0.3260141E-006  0.4880333E+03  0.7546771E-02  0.9426992E-01
        -11   -1    0    0    0    0  0.00000000000E+00  0.00000000000E+00  0.50000000000E+03  0.50000000000E+03  0.00000000000E+00 0. -1.
         11   -1    0    0    0    0 -0.00000000000E+00 -0.00000000000E+00 -0.50000000000E+03  0.50000000000E+03  0.00000000000E+00 0. -1.
         23    2    1    2    0    0 -0.11990265154E+03  0.38335905680E+02  0.46975752262E+03  0.49490561317E+03  0.91723216172E+02 0.  0.
        -11    1    1    2    0    0  0.12727181008E+02 -0.28000719147E+02 -0.91794617463E+01  0.32098036187E+02  0.00000000000E+00 0. -1.
         11    1    1    2    0    0  0.10717547053E+03 -0.10335186534E+02 -0.46057806087E+03  0.47299635064E+03  0.00000000000E+00 0. -1.
        -15    1    3    3    0    0 -0.86943684892E+02  0.98082041761E+01  0.41870030319E+03  0.42774818157E+03  0.17770000000E+01 0. -1.
         15    1    3    3    0    0 -0.32958966649E+02  0.28527701504E+02  0.51057219426E+02  0.67157431608E+02  0.17770000000E+01 0.  1.
</event>
<event>
 7    1  0.3260141E-006  0.4027021E+03  0.7546771E-02  0.9648450E-01
        -11   -1    0    0    0    0  0.00000000000E+00  0.00000000000E+00  0.50000000000E+03  0.50000000000E+03  0.00000000000E+00 0.  1.
         11   -1    0    0    0    0 -0.00000000000E+00 -0.00000000000E+00 -0.50000000000E+03  0.50000000000E+03  0.00000000000E+00 0. -1.
         23    2    1    2    0    0  0.11828091172E+03 -0.11633602787E+02  0.85250593040E+02  0.18142230093E+03  0.10733439743E+03 0.  0.
        -11    1    1    2    0    0 -0.59538770773E+02 -0.71475347564E+02  0.35486141896E+03  0.36685176461E+03  0.00000000000E+00 0.  1.
         11    1    1    2    0    0 -0.58742140943E+02  0.83108950350E+02 -0.44011201200E+03  0.45172593445E+03  0.00000000000E+00 0. -1.
        -15    1    3    3    0    0  0.13520009976E+03 -0.26129616325E+02  0.71316533410E+02  0.15508394337E+03  0.17770000000E+01 0.  1.
         15    1    3    3    0    0 -0.16919188042E+02  0.14496013538E+02  0.13934059630E+02  0.26338357566E+02  0.17770000000E+01 0. -1.
</event>
<event>
 7    1  0.3260141E-006  0.5099091E+03  0.7546771E-02  0.9377906E-01
        -11   -1    0    0    0    0  0.00000000000E+00  0.00000000000E+00  0.50000000000E+03  0.50000000000E+03  0.00000000000E+00 0. -1.
         11   -1    0    0    0    0 -0.00000000000E+00 -0.00000000000E+00 -0.50000000000E+03  0.50000000000E+03  0.00000000000E+00 0.  1.
         23    2    1    2    0    0  0.48223342279E+02  0.11151679649E+03 -0.26233413768E+03  0.30310953849E+03  0.91075275929E+02 0.  0.
        -11    1    1    2    0    0 -0.37333448831E+02 -0.14885566673E+03  0.46544314179E+03  0.49009092438E+03  0.00000000000E+00 0. -1.
         11    1    1    2    0    0 -0.10889893448E+02  0.37338870235E+02 -0.20310900411E+03  0.20679953713E+03  0.00000000000E+00 0.  1.
        -15    1    3    3    0    0  0.49330131166E+02  0.27314126016E+02 -0.16506957594E+03  0.17444381890E+03  0.17770000000E+01 0. -1.
         15    1    3    3    0    0 -0.11067888873E+01  0.84202670478E+02 -0.97264561745E+02  0.12866571959E+03  0.17770000000E+01 0.  1.
</event>
<event>
 7    1  0.3260141E-006  0.5170220E+03  0.7546771E-02  0.9362507E-01
        -11   -1    0    0    0    0  0.00000000000E+00  0.00000000000E+00  0.50000000000E+03  0.50000000000E+03  0.00000000000E+00 0.  1.
         11   -1    0    0    0    0 -0.00000000000E+00 -0.00000000000E+00 -0.50000000000E+03  0.50000000000E+03  0.00000000000E+00 0. -1.
         23    2    1    2    0    0  0.26751164544E+02 -0.74280390645E+02  0.23229293951E+03  0.25700063181E+03  0.76525249221E+02 0.  0.
        -11    1    1    2    0    0  0.16522712666E+03 -0.91478649578E+02  0.17872536167E+03  0.26002134839E+03  0.00000000000E+00 0.  1.
         11    1    1    2    0    0 -0.19197829120E+03  0.16575904022E+03 -0.41101830118E+03  0.48297801980E+03  0.00000000000E+00 0. -1.
        -15    1    3    3    0    0 -0.18686356236E+02 -0.13076981952E+02  0.16704859680E+02  0.28326620559E+02  0.17770000000E+01 0. -1.
         15    1    3    3    0    0  0.45437520780E+02 -0.61203408693E+02  0.21558807983E+03  0.22867401125E+03  0.17770000000E+01 0.  1.
</event>
<event>
 7    1  0.3260141E-006  0.3417231E+03  0.7546771E-02  0.9846231E-01
        -11   -1    0    0    0    0  0.00000000000E+00  0.00000000000E+00  0.50000000000E+03  0.50000000000E+03  0.00000000000E+00 0.  1.
         11   -1    0    0    0    0 -0.00000000000E+00 -0.00000000000E+00 -0.50000000000E+03  0.50000000000E+03  0.00000000000E+00 0. -1.
         23    2    1    2    0    0 -0.20008531722E+02 -0.11388925505E+03  0.25225094935E+03  0.29366158304E+03  0.96101405554E+02 0.  0.
        -11    1    1    2    0    0 -0.23383625459E+03  0.21445110667E+03 -0.29105115131E+03  0.43055713186E+03  0.00000000000E+00 0. -1.
         11    1    1    2    0    0  0.25384478632E+03 -0.10056185161E+03  0.38800201968E+02  0.27578128510E+03  0.00000000000E+00 0.  1.
        -15    1    3    3    0    0 -0.20012310311E+02 -0.12709555662E+03  0.24846854231E+03  0.27980984137E+03  0.17770000000E+01 0.  1.
         15    1    3    3    0    0  0.37785896800E-02  0.13206301570E+02  0.37824070331E+01  0.13851741674E+02  0.17770000000E+01 0. -1.
</event>
<event>
 7    1  0.3260141E-006  0.5276098E+03  0.7546771E-02  0.9340065E-01
        -11   -1    0    0    0    0  0.00000000000E+00  0.00000000000E+00  0.50000000000E+03  0.50000000000E+03  0.00000000000E+00 0.  1.
         11   -1    0    0    0    0 -0.00000000000E+00 -0.00000000000E+00 -0.50000000000E+03  0.50000000000E+03  0.00000000000E+00 0. -1.
         23    2    1    2    0    0 -0.69089843166E+01  0.32237458075E+02  0.24032466960E+03  0.26071809679E+03  0.95556221171E+02 0.  0.
        -11    1    1    2    0    0  0.70758152998E+02 -0.14185340285E+03  0.21471393706E+03  0.26689169879E+03  0.00000000000E+00 0.  1.
         11    1    1    2    0    0 -0.63849168681E+02  0.10961594477E+03 -0.45503860666E+03  0.47239020443E+03  0.00000000000E+00 0. -1.
        -15    1    3    3    0    0  0.34085419796E+02 -0.21779868997E+01  0.16369008239E+03  0.16722487935E+03  0.17770000000E+01 0.  1.
         15    1    3    3    0    0 -0.40994404113E+02  0.34415444975E+02  0.76634587211E+02  0.93493217441E+02  0.17770000000E+01 0. -1.
</event>
<event>
 7    1  0.3260141E-006  0.5149097E+03  0.7546771E-02  0.9367053E-01
        -11   -1    0    0    0    0  0.00000000000E+00  0.00000000000E+00  0.50000000000E+03  0.50000000000E+03  0.00000000000E+00 0. -1.
         11   -1    0    0    0    0 -0.00000000000E+00 -0.00000000000E+00 -0.50000000000E+03  0.50000000000E+03  0.00000000000E+00 0. -1.
         23    2    1    2    0    0  0.68451895159E+02 -0.12239887349E+03  0.11359273286E+03  0.20136929395E+03  0.89326017506E+02 0.  0.
        -11    1    1    2    0    0 -0.26901722602E+03  0.24344510965E+03 -0.32198884412E+03  0.48509030607E+03  0.00000000000E+00 0. -1.
         11    1    1    2    0    0  0.20056533086E+03 -0.12104623616E+03  0.20839611126E+03  0.31354039998E+03  0.00000000000E+00 0. -1.
        -15    1    3    3    0    0  0.37959532174E+02 -0.18092200223E+02 -0.27241396712E+01  0.42176207247E+02  0.17770000000E+01 0. -1.
         15    1    3    3    0    0  0.30492362984E+02 -0.10430667327E+03  0.11631687253E+03  0.15919308670E+03  0.17770000000E+01 0.  1.
</event>
<event>
 7    1  0.3260141E-006  0.5186645E+03  0.7546771E-02  0.9358988E-01
        -11   -1    0    0    0    0  0.00000000000E+00  0.00000000000E+00  0.50000000000E+03  0.50000000000E+03  0.00000000000E+00 0.  1.
         11   -1    0    0    0    0 -0.00000000000E+00 -0.00000000000E+00 -0.50000000000E+03  0.50000000000E+03  0.00000000000E+00 0. -1.
         23    2    1    2    0    0 -0.58479012891E+02 -0.64156434805E+02  0.20376589699E+03  0.23890997716E+03  0.89563348174E+02 0.  0.
        -11    1    1    2    0    0 -0.27749545385E+02  0.68713454052E+02  0.26976102395E+03  0.27975451039E+03  0.00000000000E+00 0.  1.
         11    1    1    2    0    0  0.86228558275E+02 -0.45570192473E+01 -0.47352692094E+03  0.48133551245E+03  0.00000000000E+00 0. -1.
        -15    1    3    3    0    0 -0.25632648489E+02 -0.45370848317E+02  0.28149371026E+02  0.59254462817E+02  0.17770000000E+01 0. -1.
         15    1    3    3    0    0 -0.32846364402E+02 -0.18785586488E+02  0.17561652597E+03  0.17965551435E+03  0.17770000000E+01 0.  1.
</event>
<event>
 7    1  0.3260141E-006  0.5278127E+03  0.7546771E-02  0.9339641E-01
        -11   -1    0    0    0    0  0.00000000000E+00  0.00000000000E+00  0.50000000000E+03  0.50000000000E+03  0.00000000000E+00 0. -1.
         11   -1    0    0    0    0 -0.00000000000E+00 -0.00000000000E+00 -0.50000000000E+03  0.50000000000E+03  0.00000000000E+00 0.  1.
         23    2    1    2    0    0  0.69634180076E+02  0.10827796405E+03 -0.13288611151E+02  0.15816547828E+03  0.90921366022E+02 0.  0.
        -11    1    1    2    0    0  0.77614493697E+02  0.29668132269E+03  0.20638615231E+03  0.36964721117E+03  0.00000000000E+00 0. -1.
         11    1    1    2    0    0 -0.14724867377E+03 -0.40495928674E+03 -0.19309754115E+03  0.47218731055E+03  0.00000000000E+00 0.  1.
        -15    1    3    3    0    0  0.54702787374E+02  0.91341553763E+02  0.28852727999E+02  0.11032366941E+03  0.17770000000E+01 0. -1.
         15    1    3    3    0    0  0.14931392702E+02  0.16936410286E+02 -0.42141339150E+02  0.47841808867E+02  0.17770000000E+01 0.  1.
</event>
<event>
 7    1  0.3260141E-006  0.5147552E+03  0.7546771E-02  0.9367386E-01
        -11   -1    0    0    0    0  0.00000000000E+00  0.00000000000E+00  0.50000000000E+03  0.50000000000E+03  0.00000000000E+00 0. -1.
         11   -1    0    0    0    0 -0.00000000000E+00 -0.00000000000E+00 -0.50000000000E+03  0.50000000000E+03  0.00000000000E+00 0.  1.
         23    2    1    2    0    0  0.12366868236E+03 -0.10497707075E+03 -0.19117677437E+03  0.26639930332E+03  0.90032779428E+02 0.  0.
        -11    1    1    2    0    0 -0.14249754963E+03  0.18320219179E+03  0.42613838073E+03  0.48524479828E+03  0.00000000000E+00 0. -1.
         11    1    1    2    0    0  0.18828867274E+02 -0.78225121043E+02 -0.23496160636E+03  0.24835589839E+03  0.00000000000E+00 0.  1.
        -15    1    3    3    0    0  0.11026591865E+03 -0.37763051842E+02 -0.11183117339E+03  0.16153634257E+03  0.17770000000E+01 0.  1.
         15    1    3    3    0    0  0.13402763702E+02 -0.67214018906E+02 -0.79345600989E+02  0.10486296075E+03  0.17770000000E+01 0. -1.
</event>
<event>
 7    1  0.3260141E-006  0.5244046E+03  0.7546771E-02  0.9346799E-01
        -11   -1    0    0    0    0  0.00000000000E+00  0.00000000000E+00  0.50000000000E+03  0.50000000000E+03  0.00000000000E+00 0.  1.
         11   -1    0    0    0    0 -0.00000000000E+00 -0.00000000000E+00 -0.50000000000E+03  0.50000000000E+03  0.00000000000E+00 0. -1.
         23    2    1    2    0    0  0.57807926534E+02 -0.16826242912E+02  0.34329596946E+03  0.36009539321E+03  0.90507959557E+02 0.  0.
        -11    1    1    2    0    0  0.85720395358E+02  0.94650764306E+02  0.10339621334E+03  0.16430925201E+03  0.00000000000E+00 0.  1.
         11    1    1    2    0    0 -0.14352832189E+03 -0.77824521394E+02 -0.44669218280E+03  0.47559535478E+03  0.00000000000E+00 0. -1.
        -15    1    3    3    0    0  0.30025511425E+02  0.28587210686E+02  0.24313871152E+03  0.24665431422E+03  0.17770000000E+01 0. -1.
         15    1    3    3    0    0  0.27782415109E+02 -0.45413453597E+02  0.10015725793E+03  0.11344107899E+03  0.17770000000E+01 0.  1.
</event>
<event>
 7    1  0.3260141E-006  0.5171292E+03  0.7546771E-02  0.9362277E-01
        -11   -1    0    0    0    0  0.00000000000E+00  0.00000000000E+00  0.50000000000E+03  0.50000000000E+03  0.00000000000E+00 0.  1.
         11   -1    0    0    0    0 -0.00000000000E+00 -0.00000000000E+00 -0.50000000000E+03  0.50000000000E+03  0.00000000000E+00 0. -1.
         23    2    1    2    0    0 -0.83196651017E+02  0.55685704655E+02  0.32967307704E+03  0.35586645338E+03  0.89073085011E+02 0.  0.
        -11    1    1    2    0    0 -0.10367224388E+03  0.79468940691E+02  0.94564409584E+02  0.16126274909E+03  0.00000000000E+00 0.  1.
         11    1    1    2    0    0  0.18686889490E+03 -0.13515464535E+03 -0.42423748663E+03  0.48287079752E+03  0.00000000000E+00 0. -1.
        -15    1    3    3    0    0 -0.99196662136E+02  0.36985124195E+02  0.29404762958E+03  0.31253006796E+03  0.17770000000E+01 0.  1.
         15    1    3    3    0    0  0.16000011119E+02  0.18700580460E+02  0.35625447465E+02  0.43336385422E+02  0.17770000000E+01 0. -1.
</event>
<event>
 7    1  0.3260141E-006  0.4093993E+03  0.7546771E-02  0.9629029E-01
        -11   -1    0    0    0    0  0.00000000000E+00  0.00000000000E+00  0.50000000000E+03  0.50000000000E+03  0.00000000000E+00 0. -1.
         11   -1    0    0    0    0 -0.00000000000E+00 -0.00000000000E+00 -0.50000000000E+03  0.50000000000E+03  0.00000000000E+00 0. -1.
         23    2    1    2    0    0 -0.12749855182E+03 -0.58274658288E+02  0.43360350538E+03  0.46492227035E+03  0.92135232545E+02 0.  0.
        -11    1    1    2    0    0  0.32407605805E+02  0.14153892032E+03 -0.94653144424E+02  0.17332840687E+03  0.00000000000E+00 0. -1.
         11    1    1    2    0    0  0.95090946012E+02 -0.83264262031E+02 -0.33895036095E+03  0.36174932278E+03  0.00000000000E+00 0. -1.
        -15    1    3    3    0    0 -0.51565541235E+02  0.21884058455E+02  0.17415033046E+03  0.18294647410E+03  0.17770000000E+01 0.  1.
         15    1    3    3    0    0 -0.75933010582E+02 -0.80158716743E+02  0.25945317491E+03  0.28197579624E+03  0.17770000000E+01 0. -1.
</event>
<event>
 7    1  0.3260141E-006  0.3818397E+03  0.7546771E-02  0.9711635E-01
        -11   -1    0    0    0    0  0.00000000000E+00  0.00000000000E+00  0.50000000000E+03  0.50000000000E+03  0.00000000000E+00 0.  1.
         11   -1    0    0    0    0 -0.00000000000E+00 -0.00000000000E+00 -0.50000000000E+03  0.50000000000E+03  0.00000000000E+00 0. -1.
         23    2    1    2    0    0  0.80740648834E+02 -0.26015672128E+03  0.33401683126E+03  0.43902559210E+03  0.83520386444E+02 0.  0.
        -11    1    1    2    0    0 -0.12410896380E+03  0.17606224038E+03 -0.16639141535E+01  0.21541521765E+03  0.00000000000E+00 0.  1.
         11    1    1    2    0    0  0.43368314971E+02  0.84094480895E+02 -0.33235291711E+03  0.34555919025E+03  0.00000000000E+00 0. -1.
        -15    1    3    3    0    0  0.91342795075E+02 -0.25686210182E+03  0.32713623220E+03  0.42584377148E+03  0.17770000000E+01 0.  1.
         15    1    3    3    0    0 -0.10602146241E+02 -0.32946194561E+01  0.68805990580E+01  0.13181820613E+02  0.17770000000E+01 0. -1.
</event>
<event>
 7    1  0.3260141E-006  0.5166312E+03  0.7546771E-02  0.9363346E-01
        -11   -1    0    0    0    0  0.00000000000E+00  0.00000000000E+00  0.50000000000E+03  0.50000000000E+03  0.00000000000E+00 0.  1.
         11   -1    0    0    0    0 -0.00000000000E+00 -0.00000000000E+00 -0.50000000000E+03  0.50000000000E+03  0.00000000000E+00 0. -1.
         23    2    1    2    0    0 -0.17268908253E+02  0.73594803979E+01  0.32337829351E+03  0.33725932136E+03  0.93903950843E+02 0.  0.
        -11    1    1    2    0    0  0.49458237347E+02  0.85050918147E+02  0.14998160723E+03  0.17937184401E+03  0.00000000000E+00 0.  1.
         11    1    1    2    0    0 -0.32189329093E+02 -0.92410398545E+02 -0.47335990074E+03  0.48336883463E+03  0.00000000000E+00 0. -1.
        -15    1    3    3    0    0 -0.18679593484E+02  0.49779107034E+02  0.17277742852E+03  0.18078186924E+03  0.17770000000E+01 0.  1.
         15    1    3    3    0    0  0.14106852310E+01 -0.42419626636E+02  0.15060086499E+03  0.15647745212E+03  0.17770000000E+01 0. -1.
</event>
<event>
 7    1  0.3260141E-006  0.5184824E+03  0.7546771E-02  0.9359378E-01
        -11   -1    0    0    0    0  0.00000000000E+00  0.00000000000E+00  0.50000000000E+03  0.50000000000E+03  0.00000000000E+00 0.  1.
         11   -1    0    0    0    0 -0.00000000000E+00 -0.00000000000E+00 -0.50000000000E+03  0.50000000000E+03  0.00000000000E+00 0. -1.
         23    2    1    2    0    0  0.10498597719E+03  0.36738500355E+00  0.16361685907E+03  0.21430389599E+03  0.90185879631E+02 0.  0.
        -11    1    1    2    0    0  0.56207079840E+02 -0.11837581481E+03  0.27450411179E+03  0.30417852775E+03  0.00000000000E+00 0.  1.
         11    1    1    2    0    0 -0.16119305703E+03  0.11800842981E+03 -0.43812097086E+03  0.48151757626E+03  0.00000000000E+00 0. -1.
        -15    1    3    3    0    0  0.76561959631E+02  0.75751551129E+01  0.16782363447E+03  0.18462677665E+03  0.17770000000E+01 0.  1.
         15    1    3    3    0    0  0.28424017562E+02 -0.72077701094E+01 -0.42067754009E+01  0.29677119345E+02  0.17770000000E+01 0. -1.
</event>
<event>
 7    1  0.3260141E-006  0.5395910E+03  0.7546771E-02  0.9315334E-01
        -11   -1    0    0    0    0  0.00000000000E+00  0.00000000000E+00  0.50000000000E+03  0.50000000000E+03  0.00000000000E+00 0. -1.
         11   -1    0    0    0    0 -0.00000000000E+00 -0.00000000000E+00 -0.50000000000E+03  0.50000000000E+03  0.00000000000E+00 0. -1.
         23    2    1    2    0    0 -0.83024146270E+00  0.78699292289E+02  0.21247014520E+03  0.24466851950E+03  0.92330135510E+02 0.  0.
        -11    1    1    2    0    0  0.38303183768E+01 -0.17426150968E+03  0.23790230082E+03  0.29492244715E+03  0.00000000000E+00 0. -1.
         11    1    1    2    0    0 -0.30000769141E+01  0.95562217389E+02 -0.45037244603E+03  0.46040903335E+03  0.00000000000E+00 0. -1.
        -15    1    3    3    0    0  0.30477838446E+02  0.84063283922E+02  0.15292512970E+03  0.17715752133E+03  0.17770000000E+01 0.  1.
         15    1    3    3    0    0 -0.31308079908E+02 -0.53639916332E+01  0.59545015502E+02  0.67510998170E+02  0.17770000000E+01 0. -1.
</event>
<event>
 7    1  0.3260141E-006  0.4568961E+03  0.7546771E-02  0.9501785E-01
        -11   -1    0    0    0    0  0.00000000000E+00  0.00000000000E+00  0.50000000000E+03  0.50000000000E+03  0.00000000000E+00 0. -1.
         11   -1    0    0    0    0 -0.00000000000E+00 -0.00000000000E+00 -0.50000000000E+03  0.50000000000E+03  0.00000000000E+00 0.  1.
         23    2    1    2    0    0 -0.10961035403E+02 -0.16708032128E+03  0.39941247902E+03  0.44247402954E+03  0.90647450927E+02 0.  0.
        -11    1    1    2    0    0  0.34590381176E+02  0.63299245935E+02  0.55066208842E+02  0.90750076375E+02  0.00000000000E+00 0. -1.
         11    1    1    2    0    0 -0.23629345773E+02  0.10378107534E+03 -0.45447868786E+03  0.46677589409E+03  0.00000000000E+00 0.  1.
        -15    1    3    3    0    0 -0.36178308836E+02 -0.10059985463E+03  0.31181548583E+03  0.32963806776E+03  0.17770000000E+01 0. -1.
         15    1    3    3    0    0  0.25217273434E+02 -0.66480466648E+02  0.87596993189E+02  0.11283596178E+03  0.17770000000E+01 0.  1.
</event>
<event>
 7    1  0.3260141E-006  0.4710421E+03  0.7546771E-02  0.9467043E-01
        -11   -1    0    0    0    0  0.00000000000E+00  0.00000000000E+00  0.50000000000E+03  0.50000000000E+03  0.00000000000E+00 0.  1.
         11   -1    0    0    0    0 -0.00000000000E+00 -0.00000000000E+00 -0.50000000000E+03  0.50000000000E+03  0.00000000000E+00 0. -1.
         23    2    1    2    0    0  0.42504123456E+02  0.51545351889E+02  0.43612184379E+03  0.45057085919E+03  0.91369101504E+02 0.  0.
        -11    1    1    2    0    0 -0.40343559641E+02  0.27813513358E+02  0.42136091487E+02  0.64626964463E+02  0.00000000000E+00 0.  1.
         11    1    1    2    0    0 -0.21605638157E+01 -0.79358865247E+02 -0.47825793528E+03  0.48480217634E+03  0.00000000000E+00 0. -1.
        -15    1    3    3    0    0 -0.17932904716E+02  0.49456529487E+02  0.20978409910E+03  0.21628699301E+03  0.17770000000E+01 0. -1.
         15    1    3    3    0    0  0.60437028173E+02  0.20888224022E+01  0.22633774469E+03  0.23428386618E+03  0.17770000000E+01 0.  1.
</event>
<event>
 7    1  0.3260141E-006  0.5341132E+03  0.7546771E-02  0.9326556E-01
        -11   -1    0    0    0    0  0.00000000000E+00  0.00000000000E+00  0.50000000000E+03  0.50000000000E+03  0.00000000000E+00 0. -1.
         11   -1    0    0    0    0 -0.00000000000E+00 -0.00000000000E+00 -0.50000000000E+03  0.50000000000E+03  0.00000000000E+00 0.  1.
         23    2    1    2    0    0  0.43982037871E+02 -0.83544411310E+01  0.32876888528E+03  0.34386673532E+03  0.90283638564E+02 0.  0.
        -11    1    1    2    0    0 -0.49925705739E+01 -0.15906524723E+03  0.10424500048E+03  0.19024641590E+03  0.00000000000E+00 0. -1.
         11    1    1    2    0    0 -0.38989467297E+02  0.16741968836E+03 -0.43301388576E+03  0.46588684878E+03  0.00000000000E+00 0.  1.
        -15    1    3    3    0    0 -0.14496638018E+02  0.13615973892E+02  0.18022009231E+02  0.26897914502E+02  0.17770000000E+01 0.  1.
         15    1    3    3    0    0  0.58478675889E+02 -0.21970415023E+02  0.31074687605E+03  0.31696882082E+03  0.17770000000E+01 0. -1.
</event>
<event>
 7    1  0.5123781E-006  0.5199755E+03  0.7546771E-02  0.9356190E-01
        -11   -1    0    0    0    0  0.00000000000E+00  0.00000000000E+00  0.50000000000E+03  0.50000000000E+03  0.00000000000E+00 0. -1.
         11   -1    0    0    0    0 -0.00000000000E+00 -0.00000000000E+00 -0.50000000000E+03  0.50000000000E+03  0.00000000000E+00 0.  1.
         23    2    1    2    0    0 -0.64555067804E+02  0.96134257242E+02 -0.19655437746E+03  0.24005819718E+03  0.74733945021E+02 0.  0.
        -11    1    1    2    0    0  0.68526903809E+02 -0.49467713849E+02  0.47252568118E+03  0.48002448962E+03  0.00000000000E+00 0. -1.
         11    1    1    2    0    0 -0.39718360043E+01 -0.46666543394E+02 -0.27597130372E+03  0.27991731320E+03  0.00000000000E+00 0.  1.
        -15    1    3    3    0    0 -0.23114694288E+02 -0.84109814844E+01 -0.26757102802E+02  0.36388651815E+02  0.17770000000E+01 0. -1.
         15    1    3    3    0    0 -0.41440373516E+02  0.10454523873E+03 -0.16979727466E+03  0.20366954536E+03  0.17770000000E+01 0.  1.
</event>
<event>
 6    1  0.3260141E-006  0.4126858E+03  0.7546771E-02  0.9619643E-01
        -11   -1    0    0    0    0  0.00000000000E+00  0.00000000000E+00  0.50000000000E+03  0.50000000000E+03  0.00000000000E+00 0. -1.
         11   -1    0    0    0    0 -0.00000000000E+00 -0.00000000000E+00 -0.50000000000E+03  0.50000000000E+03  0.00000000000E+00 0.  1.
        -11    1    1    2    0    0  0.76665061668E+01  0.59425173185E+02  0.31006536262E+01  0.59997838109E+02  0.00000000000E+00 0. -1.
         11    1    1    2    0    0 -0.80863703708E+02  0.42936187039E+02 -0.41107761073E+03  0.42114992197E+03  0.00000000000E+00 0.  1.
        -15    1    1    2    0    0  0.10822376921E+02 -0.17579068989E+03  0.37948271173E+03  0.41836560175E+03  0.17770000000E+01 0. -1.
         15    1    1    2    0    0  0.62374820620E+02  0.73429329662E+02  0.28494245370E+02  0.10048663817E+03  0.17770000000E+01 0.  1.
</event>
<event>
 7    1  0.3260141E-006  0.5276425E+03  0.7546771E-02  0.9339997E-01
        -11   -1    0    0    0    0  0.00000000000E+00  0.00000000000E+00  0.50000000000E+03  0.50000000000E+03  0.00000000000E+00 0.  1.
         11   -1    0    0    0    0 -0.00000000000E+00 -0.00000000000E+00 -0.50000000000E+03  0.50000000000E+03  0.00000000000E+00 0. -1.
         23    2    1    2    0    0 -0.29571261464E+02 -0.13102200323E+02  0.29379511676E+03  0.30660445455E+03  0.81514377644E+02 0.  0.
        -11    1    1    2    0    0  0.12823215879E+03  0.74052722525E+02  0.16410519214E+03  0.22103802015E+03  0.00000000000E+00 0.  1.
         11    1    1    2    0    0 -0.98660897328E+02 -0.60950522202E+02 -0.45790030890E+03  0.47235752530E+03  0.00000000000E+00 0. -1.
        -15    1    3    3    0    0 -0.11443793844E+01 -0.44806214943E+02  0.13974747666E+03  0.14676996104E+03  0.17770000000E+01 0. -1.
         15    1    3    3    0    0 -0.28426882080E+02  0.31704014620E+02  0.15404764010E+03  0.15983449351E+03  0.17770000000E+01 0.  1.
</event>
<event>
 7    1  0.3260141E-006  0.4090753E+03  0.7546771E-02  0.9629960E-01
        -11   -1    0    0    0    0  0.00000000000E+00  0.00000000000E+00  0.50000000000E+03  0.50000000000E+03  0.00000000000E+00 0.  1.
         11   -1    0    0    0    0 -0.00000000000E+00 -0.00000000000E+00 -0.50000000000E+03  0.50000000000E+03  0.00000000000E+00 0. -1.
         23    2    1    2    0    0 -0.11717308004E+02  0.12624179274E+03  0.39906639868E+03  0.42831084653E+03  0.90121613131E+02 0.  0.
        -11    1    1    2    0    0  0.94331279823E+02 -0.14525693535E+03 -0.99930022623E+01  0.17348725519E+03  0.00000000000E+00 0.  1.
         11    1    1    2    0    0 -0.82613971820E+02  0.19015142608E+02 -0.38907339642E+03  0.39820189828E+03  0.00000000000E+00 0. -1.
        -15    1    3    3    0    0  0.51694009667E+01 -0.13592787210E+02  0.40471140752E+02  0.43041346787E+02  0.17770000000E+01 0. -1.
         15    1    3    3    0    0 -0.16886708971E+02  0.13983457995E+03  0.35859525793E+03  0.38526949974E+03  0.17770000000E+01 0.  1.
</event>
<event>
 7    1  0.3260141E-006  0.3643880E+03  0.7546771E-02  0.9767901E-01
        -11   -1    0    0    0    0  0.00000000000E+00  0.00000000000E+00  0.50000000000E+03  0.50000000000E+03  0.00000000000E+00 0.  1.
         11   -1    0    0    0    0 -0.00000000000E+00 -0.00000000000E+00 -0.50000000000E+03  0.50000000000E+03  0.00000000000E+00 0.  1.
         23    2    1    2    0    0 -0.12957604693E+03 -0.30500342755E+03  0.87421653990E+02  0.35482248494E+03  0.91866247748E+02 0.  0.
        -11    1    1    2    0    0  0.13508768914E+03  0.34712823727E+03  0.15178645404E+03  0.40222608630E+03  0.00000000000E+00 0.  1.
         11    1    1    2    0    0 -0.55116422112E+01 -0.42124809722E+02 -0.23920810803E+03  0.24295142877E+03  0.00000000000E+00 0.  1.
        -15    1    3    3    0    0 -0.10543058051E+03 -0.30150997371E+03  0.80656422813E+02  0.32944269278E+03  0.17770000000E+01 0.  1.
         15    1    3    3    0    0 -0.24145466413E+02 -0.34934538371E+01  0.67652311769E+01  0.25379792156E+02  0.17770000000E+01 0. -1.
</event>
<event>
 7    1  0.3260141E-006  0.5224373E+03  0.7546771E-02  0.9350958E-01
        -11   -1    0    0    0    0  0.00000000000E+00  0.00000000000E+00  0.50000000000E+03  0.50000000000E+03  0.00000000000E+00 0. -1.
         11   -1    0    0    0    0 -0.00000000000E+00 -0.00000000000E+00 -0.50000000000E+03  0.50000000000E+03  0.00000000000E+00 0. -1.
         23    2    1    2    0    0  0.19286319840E+02 -0.96044228228E+02  0.29590744139E+03  0.32829849827E+03  0.10306422360E+03 0.  0.
        -11    1    1    2    0    0  0.12256260930E+03  0.30906916796E+01  0.15052810615E+03  0.19413875531E+03  0.00000000000E+00 0. -1.
         11    1    1    2    0    0 -0.14184892914E+03  0.92953536548E+02 -0.44643554754E+03  0.47756274642E+03  0.00000000000E+00 0. -1.
        -15    1    3    3    0    0  0.47128318519E+02 -0.96039625563E+02  0.26917285789E+03  0.28965820071E+03  0.17770000000E+01 0. -1.
         15    1    3    3    0    0 -0.27841998680E+02 -0.46026649878E-02  0.26734583506E+02  0.38640297565E+02  0.17770000000E+01 0.  1.
</event>
<event>
 7    1  0.3260141E-006  0.5263148E+03  0.7546771E-02  0.9342780E-01
        -11   -1    0    0    0    0  0.00000000000E+00  0.00000000000E+00  0.50000000000E+03  0.50000000000E+03  0.00000000000E+00 0.  1.
         11   -1    0    0    0    0 -0.00000000000E+00 -0.00000000000E+00 -0.50000000000E+03  0.50000000000E+03  0.00000000000E+00 0. -1.
         23    2    1    2    0    0  0.34027277823E+02  0.45056213344E+01 -0.55367961921E+02  0.11490659173E+03  0.94655994819E+02 0.  0.
        -11    1    1    2    0    0 -0.30455739888E+03  0.74779376096E+02  0.35500779574E+03  0.47368523234E+03  0.00000000000E+00 0.  1.
         11    1    1    2    0    0  0.27053012105E+03 -0.79284997430E+02 -0.29963983382E+03  0.41140817593E+03  0.00000000000E+00 0. -1.
        -15    1    3    3    0    0  0.33148470673E+02 -0.39627297149E+02 -0.12145658127E+02  0.53101963501E+02  0.17770000000E+01 0.  1.
         15    1    3    3    0    0  0.87880715022E+00  0.44132918483E+02 -0.43222303794E+02  0.61804628226E+02  0.17770000000E+01 0. -1.
</event>
<event>
 7    1  0.3260141E-006  0.5158791E+03  0.7546771E-02  0.9364964E-01
        -11   -1    0    0    0    0  0.00000000000E+00  0.00000000000E+00  0.50000000000E+03  0.50000000000E+03  0.00000000000E+00 0. -1.
         11   -1    0    0    0    0 -0.00000000000E+00 -0.00000000000E+00 -0.50000000000E+03  0.50000000000E+03  0.00000000000E+00 0.  1.
         23    2    1    2    0    0  0.15921451227E+03 -0.11596584119E+03 -0.19154190521E+03  0.28652317497E+03  0.81301236785E+02 0.  0.
        -11    1    1    2    0    0 -0.18506507932E+03  0.28343861868E+03  0.34610183555E+03  0.48412086787E+03  0.00000000000E+00 0. -1.
         11    1    1    2    0    0  0.25850567046E+02 -0.16747277749E+03 -0.15455993033E+03  0.22935595716E+03  0.00000000000E+00 0.  1.
        -15    1    3    3    0    0  0.15103782866E+03 -0.12700064912E+03 -0.16781026735E+03  0.25904639376E+03  0.17770000000E+01 0.  1.
         15    1    3    3    0    0  0.81766836127E+01  0.11034807933E+02 -0.23731637867E+02  0.27476781214E+02  0.17770000000E+01 0. -1.
</event>
<event>
 7    1  0.3260141E-006  0.3333760E+03  0.7546771E-02  0.9876737E-01
        -11   -1    0    0    0    0  0.00000000000E+00  0.00000000000E+00  0.50000000000E+03  0.50000000000E+03  0.00000000000E+00 0.  1.
         11   -1    0    0    0    0 -0.00000000000E+00 -0.00000000000E+00 -0.50000000000E+03  0.50000000000E+03  0.00000000000E+00 0. -1.
         23    2    1    2    0    0  0.28926782749E+02 -0.16747990749E+03  0.20589954062E+03  0.28178052948E+03  0.90107534617E+02 0.  0.
        -11    1    1    2    0    0 -0.15009494186E+03  0.23733581610E+03  0.16230581869E+03  0.32434543308E+03  0.00000000000E+00 0.  1.
         11    1    1    2    0    0  0.12116815912E+03 -0.69855908613E+02 -0.36820535930E+03  0.39387403744E+03  0.00000000000E+00 0. -1.
        -15    1    3    3    0    0  0.13707855874E+01 -0.91751233346E+02  0.17073205124E+03  0.19383693901E+03  0.17770000000E+01 0. -1.
         15    1    3    3    0    0  0.27555997161E+02 -0.75728674144E+02  0.35167489374E+02  0.87943590472E+02  0.17770000000E+01 0.  1.
</event>
<event>
 7    1  0.3260141E-006  0.4569767E+03  0.7546771E-02  0.9501583E-01
        -11   -1    0    0    0    0  0.00000000000E+00  0.00000000000E+00  0.50000000000E+03  0.50000000000E+03  0.00000000000E+00 0. -1.
         11   -1    0    0    0    0 -0.00000000000E+00 -0.00000000000E+00 -0.50000000000E+03  0.50000000000E+03  0.00000000000E+00 0.  1.
         23    2    1    2    0    0 -0.37731250940E+02  0.56177846605E+02  0.43871950909E+03  0.45304248229E+03  0.90515663589E+02 0.  0.
        -11    1    1    2    0    0 -0.30647100908E+02  0.84644283413E+02 -0.10029390207E+02  0.90578629800E+02  0.00000000000E+00 0. -1.
         11    1    1    2    0    0  0.68378351847E+02 -0.14082213002E+03 -0.42869011888E+03  0.45637888791E+03  0.00000000000E+00 0.  1.
        -15    1    3    3    0    0  0.20178198262E+01 -0.23660230916E+02  0.92029236212E+02  0.95060066119E+02  0.17770000000E+01 0.  1.
         15    1    3    3    0    0 -0.39749070766E+02  0.79838077521E+02  0.34669027288E+03  0.35798241617E+03  0.17770000000E+01 0. -1.
</event>
<event>
 7    1  0.3260141E-006  0.5285736E+03  0.7546771E-02  0.9338050E-01
        -11   -1    0    0    0    0  0.00000000000E+00  0.00000000000E+00  0.50000000000E+03  0.50000000000E+03  0.00000000000E+00 0. -1.
         11   -1    0    0    0    0 -0.00000000000E+00 -0.00000000000E+00 -0.50000000000E+03  0.50000000000E+03  0.00000000000E+00 0.  1.
         23    2    1    2    0    0  0.31497565032E+02  0.72073741928E+02  0.24221914995E+03  0.27184243644E+03  0.95086659266E+02 0.  0.
        -11    1    1    2    0    0 -0.15888403992E+03  0.75223464598E+02  0.18710478203E+03  0.25673119645E+03  0.00000000000E+00 0. -1.
         11    1    1    2    0    0  0.12738647489E+03 -0.14729720653E+03 -0.42932393198E+03  0.47142636711E+03  0.00000000000E+00 0.  1.
        -15    1    3    3    0    0  0.64159805225E+02  0.61681751427E+02  0.17088405939E+03  0.19268014570E+03  0.17770000000E+01 0. -1.
         15    1    3    3    0    0 -0.32662240192E+02  0.10391990500E+02  0.71335090556E+02  0.79162290736E+02  0.17770000000E+01 0.  1.
</event>
<event>
 7    1  0.3260141E-006  0.3742405E+03  0.7546771E-02  0.9735732E-01
        -11   -1    0    0    0    0  0.00000000000E+00  0.00000000000E+00  0.50000000000E+03  0.50000000000E+03  0.00000000000E+00 0.  1.
         11   -1    0    0    0    0 -0.00000000000E+00 -0.00000000000E+00 -0.50000000000E+03  0.50000000000E+03  0.00000000000E+00 0.  1.
         23    2    1    2    0    0  0.16077551601E+03  0.32139917760E+02  0.41511852568E+03  0.45561153530E+03  0.91524531506E+02 0.  0.
        -11    1    1    2    0    0 -0.16996014556E+03 -0.10735071047E+03 -0.10827609122E+03  0.22832945068E+03  0.00000000000E+00 0.  1.
         11    1    1    2    0    0  0.91846295508E+01  0.75210792710E+02 -0.30684243447E+03  0.31605901403E+03  0.00000000000E+00 0.  1.
        -15    1    3    3    0    0  0.95980672039E+02  0.62006801521E+02  0.22121337418E+03  0.24898925174E+03  0.17770000000E+01 0.  1.
         15    1    3    3    0    0  0.64794843968E+02 -0.29866883761E+02  0.19390515151E+03  0.20662228355E+03  0.17770000000E+01 0. -1.
</event>
<event>
 7    1  0.3260141E-006  0.5226180E+03  0.7546771E-02  0.9350575E-01
        -11   -1    0    0    0    0  0.00000000000E+00  0.00000000000E+00  0.50000000000E+03  0.50000000000E+03  0.00000000000E+00 0. -1.
         11   -1    0    0    0    0 -0.00000000000E+00 -0.00000000000E+00 -0.50000000000E+03  0.50000000000E+03  0.00000000000E+00 0.  1.
         23    2    1    2    0    0  0.46171748606E+02  0.34529549500E+01  0.28308837151E+03  0.30063546571E+03  0.89993910273E+02 0.  0.
        -11    1    1    2    0    0 -0.87498524862E+02 -0.85005485035E+02  0.18545708025E+03  0.22198255101E+03  0.00000000000E+00 0. -1.
         11    1    1    2    0    0  0.41326776256E+02  0.81552530085E+02 -0.46854545176E+03  0.47738198328E+03  0.00000000000E+00 0.  1.
        -15    1    3    3    0    0  0.30972543970E+02  0.42224046812E+02  0.10036902822E+03  0.11322220703E+03  0.17770000000E+01 0.  1.
         15    1    3    3    0    0  0.15199204635E+02 -0.38771091862E+02  0.18271934330E+03  0.18741325868E+03  0.17770000000E+01 0. -1.
</event>
<event>
 7    1  0.3260141E-006  0.4910480E+03  0.7546771E-02  0.9420066E-01
        -11   -1    0    0    0    0  0.00000000000E+00  0.00000000000E+00  0.50000000000E+03  0.50000000000E+03  0.00000000000E+00 0. -1.
         11   -1    0    0    0    0 -0.00000000000E+00 -0.00000000000E+00 -0.50000000000E+03  0.50000000000E+03  0.00000000000E+00 0.  1.
         23    2    1    2    0    0 -0.85936982441E+01  0.32955348068E+03 -0.35023533755E+03  0.48933307913E+03  0.90015123100E+02 0.  0.
        -11    1    1    2    0    0  0.36818355627E+01 -0.31339544920E+03  0.36984722461E+03  0.48478575994E+03  0.00000000000E+00 0. -1.
         11    1    1    2    0    0  0.49118626814E+01 -0.16158031485E+02 -0.19611887063E+02  0.25881160922E+02  0.00000000000E+00 0.  1.
        -15    1    3    3    0    0 -0.26556635318E+02  0.21074135157E+03 -0.27525042966E+03  0.34768251164E+03  0.17770000000E+01 0.  1.
         15    1    3    3    0    0  0.17962937074E+02  0.11881212911E+03 -0.74984907893E+02  0.14165056750E+03  0.17770000000E+01 0. -1.
</event>
<event>
 7    1  0.3260141E-006  0.3499177E+03  0.7546771E-02  0.9817178E-01
        -11   -1    0    0    0    0  0.00000000000E+00  0.00000000000E+00  0.50000000000E+03  0.50000000000E+03  0.00000000000E+00 0.  1.
         11   -1    0    0    0    0 -0.00000000000E+00 -0.00000000000E+00 -0.50000000000E+03  0.50000000000E+03  0.00000000000E+00 0. -1.
         23    2    1    2    0    0 -0.19557853787E+03 -0.40073430172E+02  0.19466032519E+03  0.29333699619E+03  0.91088456160E+02 0.  0.
        -11    1    1    2    0    0  0.11500120204E+03 -0.43952466170E+02  0.23295347589E+03  0.26348513750E+03  0.00000000000E+00 0.  1.
         11    1    1    2    0    0  0.80577335835E+02  0.84025896342E+02 -0.42761380109E+03  0.44317786631E+03  0.00000000000E+00 0. -1.
        -15    1    3    3    0    0 -0.77724364870E+02  0.28620474052E+02  0.67982697898E+02  0.10716815465E+03  0.17770000000E+01 0.  1.
         15    1    3    3    0    0 -0.11785417300E+03 -0.68693904224E+02  0.12667762730E+03  0.18616884153E+03  0.17770000000E+01 0. -1.
</event>
<event>
 7    1  0.3260141E-006  0.4500006E+03  0.7546771E-02  0.9519209E-01
        -11   -1    0    0    0    0  0.00000000000E+00  0.00000000000E+00  0.50000000000E+03  0.50000000000E+03  0.00000000000E+00 0.  1.
         11   -1    0    0    0    0 -0.00000000000E+00 -0.00000000000E+00 -0.50000000000E+03  0.50000000000E+03  0.00000000000E+00 0. -1.
         23    2    1    2    0    0  0.99847549266E+02  0.22843279347E+02 -0.41794143738E+03  0.44046200985E+03  0.94023340394E+02 0.  0.
        -11    1    1    2    0    0 -0.20030300599E+03  0.21785933375E+01  0.40925586950E+03  0.45564943454E+03  0.00000000000E+00 0.  1.
         11    1    1    2    0    0  0.10045545672E+03 -0.25021872684E+02  0.86855678776E+01  0.10388855561E+03  0.00000000000E+00 0. -1.
        -15    1    3    3    0    0  0.33936915440E+02 -0.19771433395E+02 -0.46869908931E+02  0.61176546979E+02  0.17770000000E+01 0.  1.
         15    1    3    3    0    0  0.65910633826E+02  0.42614712742E+02 -0.37107152844E+03  0.37928546287E+03  0.17770000000E+01 0. -1.
</event>
<event>
 7    1  0.3260141E-006  0.5110557E+03  0.7546771E-02  0.9375406E-01
        -11   -1    0    0    0    0  0.00000000000E+00  0.00000000000E+00  0.50000000000E+03  0.50000000000E+03  0.00000000000E+00 0.  1.
         11   -1    0    0    0    0 -0.00000000000E+00 -0.00000000000E+00 -0.50000000000E+03  0.50000000000E+03  0.00000000000E+00 0. -1.
         23    2    1    2    0    0  0.23404698548E+02  0.12310073918E+02  0.32265456414E+03  0.33734919809E+03  0.94864091508E+02 0.  0.
        -11    1    1    2    0    0  0.68678107091E+02 -0.26546551084E+02  0.15732941182E+03  0.17370649266E+03  0.00000000000E+00 0.  1.
         11    1    1    2    0    0 -0.92082805639E+02  0.14236477166E+02 -0.47998397596E+03  0.48894430925E+03  0.00000000000E+00 0. -1.
        -15    1    3    3    0    0  0.58857142506E+02  0.84546182494E+01  0.15704657108E+03  0.16793578240E+03  0.17770000000E+01 0.  1.
         15    1    3    3    0    0 -0.35452443958E+02  0.38554556686E+01  0.16560799305E+03  0.16941341568E+03  0.17770000000E+01 0. -1.
</event>
<event>
 7    1  0.3260141E-006  0.5118851E+03  0.7546771E-02  0.9373602E-01
        -11   -1    0    0    0    0  0.00000000000E+00  0.00000000000E+00  0.50000000000E+03  0.50000000000E+03  0.00000000000E+00 0. -1.
         11   -1    0    0    0    0 -0.00000000000E+00 -0.00000000000E+00 -0.50000000000E+03  0.50000000000E+03  0.00000000000E+00 0. -1.
         23    2    1    2    0    0  0.88189790793E+02  0.25163896699E+02 -0.25040201830E+03  0.28344177351E+03  0.96059394689E+02 0.  0.
        -11    1    1    2    0    0 -0.19818563285E+03 -0.10742009125E+03  0.43294290479E+03  0.48811492487E+03  0.00000000000E+00 0. -1.
         11    1    1    2    0    0  0.10999584206E+03  0.82256194554E+02 -0.18254088649E+03  0.22844330162E+03  0.00000000000E+00 0. -1.
        -15    1    3    3    0    0 -0.11188786954E+01  0.26739886475E+02 -0.13041769924E+02  0.29824803604E+02  0.17770000000E+01 0.  1.
         15    1    3    3    0    0  0.89308669488E+02 -0.15759897760E+01 -0.23736024837E+03  0.25361696991E+03  0.17770000000E+01 0. -1.
</event>
<event>
 7    1  0.3260141E-006  0.5149029E+03  0.7546771E-02  0.9367067E-01
        -11   -1    0    0    0    0  0.00000000000E+00  0.00000000000E+00  0.50000000000E+03  0.50000000000E+03  0.00000000000E+00 0. -1.
         11   -1    0    0    0    0 -0.00000000000E+00 -0.00000000000E+00 -0.50000000000E+03  0.50000000000E+03  0.00000000000E+00 0.  1.
         23    2    1    2    0    0  0.33711013008E+02 -0.47111784488E+02 -0.14268810888E+03  0.17924396375E+03  0.91719951436E+02 0.  0.
        -11    1    1    2    0    0 -0.12849153984E+02  0.12577580314E+03  0.46833162428E+03  0.48509706628E+03  0.00000000000E+00 0. -1.
         11    1    1    2    0    0 -0.20861859024E+02 -0.78664018649E+02 -0.32564351541E+03  0.33565896996E+03  0.00000000000E+00 0.  1.
        -15    1    3    3    0    0  0.32182176906E+02 -0.21768540023E+02 -0.49888811171E+01  0.39212351485E+02  0.17770000000E+01 0. -1.
         15    1    3    3    0    0  0.15288361021E+01 -0.25343244464E+02 -0.13769922776E+03  0.14003161227E+03  0.17770000000E+01 0.  1.
</event>
<event>
 7    1  0.3260141E-006  0.3695367E+03  0.7546771E-02  0.9750956E-01
        -11   -1    0    0    0    0  0.00000000000E+00  0.00000000000E+00  0.50000000000E+03  0.50000000000E+03  0.00000000000E+00 0.  1.
         11   -1    0    0    0    0 -0.00000000000E+00 -0.00000000000E+00 -0.50000000000E+03  0.50000000000E+03  0.00000000000E+00 0. -1.
         23    2    1    2    0    0  0.87353389064E+02  0.11080051002E+02  0.19291261837E+03  0.23110591436E+03  0.91876456262E+02 0.  0.
        -11    1    1    2    0    0 -0.21713907135E+03  0.68333107362E+02  0.22747832227E+03  0.32181543930E+03  0.00000000000E+00 0.  1.
         11    1    1    2    0    0  0.12978568229E+03 -0.79413158365E+02 -0.42039094064E+03  0.44707864634E+03  0.00000000000E+00 0. -1.
        -15    1    3    3    0    0 -0.75968313673E+01  0.14442625395E+02  0.88153029795E+02  0.89668364913E+02  0.17770000000E+01 0.  1.
         15    1    3    3    0    0  0.94950220431E+02 -0.33625743929E+01  0.10475958857E+03  0.14143754945E+03  0.17770000000E+01 0. -1.
</event>
<event>
 7    1  0.3260141E-006  0.5357416E+03  0.7546771E-02  0.9323205E-01
        -11   -1    0    0    0    0  0.00000000000E+00  0.00000000000E+00  0.50000000000E+03  0.50000000000E+03  0.00000000000E+00 0. -1.
         11   -1    0    0    0    0 -0.00000000000E+00 -0.00000000000E+00 -0.50000000000E+03  0.50000000000E+03  0.00000000000E+00 0. -1.
         23    2    1    2    0    0  0.12350204000E+03 -0.77848871623E+02  0.17375280535E+03  0.24740147205E+03  0.98510153315E+02 0.  0.
        -11    1    1    2    0    0 -0.75391895250E+02 -0.19517365926E+02  0.27762411010E+03  0.28834009772E+03  0.00000000000E+00 0. -1.
         11    1    1    2    0    0 -0.48110144752E+02  0.97366237549E+02 -0.45137691545E+03  0.46425843024E+03  0.00000000000E+00 0. -1.
        -15    1    3    3    0    0  0.21756916607E+02 -0.35560198739E+02  0.11539050443E+03  0.12270296409E+03  0.17770000000E+01 0.  1.
         15    1    3    3    0    0  0.10174512339E+03 -0.42288672884E+02  0.58362300919E+02  0.12469850796E+03  0.17770000000E+01 0. -1.
</event>
<event>
 7    1  0.3260141E-006  0.5250165E+03  0.7546771E-02  0.9345510E-01
        -11   -1    0    0    0    0  0.00000000000E+00  0.00000000000E+00  0.50000000000E+03  0.50000000000E+03  0.00000000000E+00 0. -1.
         11   -1    0    0    0    0 -0.00000000000E+00 -0.00000000000E+00 -0.50000000000E+03  0.50000000000E+03  0.00000000000E+00 0. -1.
         23    2    1    2    0    0  0.33370774810E+02  0.62424920747E+02 -0.15527359696E+03  0.19478259658E+03  0.93914273012E+02 0.  0.
        -11    1    1    2    0    0  0.92040827050E+02 -0.70153255195E+02  0.46066944997E+03  0.47498351044E+03  0.00000000000E+00 0. -1.
         11    1    1    2    0    0 -0.12541160186E+03  0.77283344478E+01 -0.30539585301E+03  0.33023389298E+03  0.00000000000E+00 0. -1.
        -15    1    3    3    0    0  0.36414559860E+02  0.86178166846E+02 -0.12486868831E+03  0.15603859670E+03  0.17770000000E+01 0. -1.
         15    1    3    3    0    0 -0.30437850494E+01 -0.23753246098E+02 -0.30404908646E+02  0.38743999876E+02  0.17770000000E+01 0.  1.
</event>
<event>
 7    1  0.3260141E-006  0.4619194E+03  0.7546771E-02  0.9489297E-01
        -11   -1    0    0    0    0  0.00000000000E+00  0.00000000000E+00  0.50000000000E+03  0.50000000000E+03  0.00000000000E+00 0. -1.
         11   -1    0    0    0    0 -0.00000000000E+00 -0.00000000000E+00 -0.50000000000E+03  0.50000000000E+03  0.00000000000E+00 0.  1.
         23    2    1    2    0    0 -0.52091306423E+02 -0.39435974586E+02  0.43001652294E+03  0.44446987868E+03  0.91490779622E+02 0.  0.
        -11    1    1    2    0    0 -0.18745778546E+02 -0.75739411135E+02  0.24138693004E+02  0.81673368439E+02  0.00000000000E+00 0. -1.
         11    1    1    2    0    0  0.70837084969E+02  0.11517538572E+03 -0.45415521594E+03  0.47385675288E+03  0.00000000000E+00 0.  1.
        -15    1    3    3    0    0 -0.27860037396E+02  0.28547180319E+02  0.16905205288E+03  0.17370341822E+03  0.17770000000E+01 0.  1.
         15    1    3    3    0    0 -0.24231269027E+02 -0.67983154906E+02  0.26096447006E+03  0.27076646046E+03  0.17770000000E+01 0. -1.
</event>
<event>
 7    1  0.3260141E-006  0.5176434E+03  0.7546771E-02  0.9361174E-01
        -11   -1    0    0    0    0  0.00000000000E+00  0.00000000000E+00  0.50000000000E+03  0.50000000000E+03  0.00000000000E+00 0.  1.
         11   -1    0    0    0    0 -0.00000000000E+00 -0.00000000000E+00 -0.50000000000E+03  0.50000000000E+03  0.00000000000E+00 0. -1.
         23    2    1    2    0    0 -0.26593265183E+02  0.93907685107E+02  0.37960529983E+03  0.40257970967E+03  0.91893328941E+02 0.  0.
        -11    1    1    2    0    0 -0.53468873538E+02 -0.41295532976E+02  0.93141888912E+02  0.11506369085E+03  0.00000000000E+00 0.  1.
         11    1    1    2    0    0  0.80062138721E+02 -0.52612152131E+02 -0.47274718874E+03  0.48235659949E+03  0.00000000000E+00 0. -1.
        -15    1    3    3    0    0 -0.39671328719E+02  0.14026134214E+02  0.62961467765E+02  0.75748603389E+02  0.17770000000E+01 0. -1.
         15    1    3    3    0    0  0.13078063536E+02  0.79881550893E+02  0.31664383206E+03  0.32683110628E+03  0.17770000000E+01 0.  1.
</event>
<event>
 7    1  0.3260141E-006  0.4580716E+03  0.7546771E-02  0.9498847E-01
        -11   -1    0    0    0    0  0.00000000000E+00  0.00000000000E+00  0.50000000000E+03  0.50000000000E+03  0.00000000000E+00 0. -1.
         11   -1    0    0    0    0 -0.00000000000E+00 -0.00000000000E+00 -0.50000000000E+03  0.50000000000E+03  0.00000000000E+00 0.  1.
         23    2    1    2    0    0  0.11672601180E+02 -0.21770813476E+01  0.45495959365E+03  0.46424726426E+03  0.91631333183E+02 0.  0.
        -11    1    1    2    0    0 -0.28500606399E+02  0.82619731011E+02 -0.15607345560E+02  0.88780030147E+02  0.00000000000E+00 0. -1.
         11    1    1    2    0    0  0.16828005219E+02 -0.80442649663E+02 -0.43935224809E+03  0.44697270559E+03  0.00000000000E+00 0.  1.
        -15    1    3    3    0    0  0.45330961850E+02 -0.24897526900E+02  0.25396835888E+03  0.25918693638E+03  0.17770000000E+01 0. -1.
         15    1    3    3    0    0 -0.33658360670E+02  0.22720445553E+02  0.20099123477E+03  0.20506032788E+03  0.17770000000E+01 0.  1.
</event>
<event>
 7    1  0.3260141E-006  0.5157343E+03  0.7546771E-02  0.9365275E-01
        -11   -1    0    0    0    0  0.00000000000E+00  0.00000000000E+00  0.50000000000E+03  0.50000000000E+03  0.00000000000E+00 0.  1.
         11   -1    0    0    0    0 -0.00000000000E+00 -0.00000000000E+00 -0.50000000000E+03  0.50000000000E+03  0.00000000000E+00 0. -1.
         23    2    1    2    0    0 -0.17113495672E+03  0.42003879194E+02 -0.19570290175E+03  0.27883114971E+03  0.91627970724E+02 0.  0.
        -11    1    1    2    0    0  0.22753948532E+03 -0.38271930895E+02  0.42576316263E+03  0.48426565925E+03  0.00000000000E+00 0.  1.
         11    1    1    2    0    0 -0.56404528604E+02 -0.37319482996E+01 -0.23006026088E+03  0.23690319104E+03  0.00000000000E+00 0. -1.
        -15    1    3    3    0    0 -0.35173303298E+02  0.29211084770E+02 -0.10594298580E+03  0.11540157152E+03  0.17770000000E+01 0.  1.
         15    1    3    3    0    0 -0.13596165342E+03  0.12792794425E+02 -0.89759915944E+02  0.16342957820E+03  0.17770000000E+01 0. -1.
</event>
<event>
 7    1  0.3260141E-006  0.4274394E+03  0.7546771E-02  0.9578629E-01
        -11   -1    0    0    0    0  0.00000000000E+00  0.00000000000E+00  0.50000000000E+03  0.50000000000E+03  0.00000000000E+00 0. -1.
         11   -1    0    0    0    0 -0.00000000000E+00 -0.00000000000E+00 -0.50000000000E+03  0.50000000000E+03  0.00000000000E+00 0.  1.
         23    2    1    2    0    0  0.53720962712E+02 -0.86156292472E+02  0.21751336006E+02  0.13883806583E+03  0.92163112672E+02 0.  0.
        -11    1    1    2    0    0  0.15232191666E+02  0.26368382820E+03  0.35295257454E+03  0.44083636510E+03  0.00000000000E+00 0. -1.
         11    1    1    2    0    0 -0.68953154379E+02 -0.17752753573E+03 -0.37470391055E+03  0.42032556908E+03  0.00000000000E+00 0.  1.
        -15    1    3    3    0    0  0.43526658650E+02 -0.36980308290E+02  0.54411606513E+02  0.78904333638E+02  0.17770000000E+01 0. -1.
         15    1    3    3    0    0  0.10194304062E+02 -0.49175984182E+02 -0.32660270507E+02  0.59933732190E+02  0.17770000000E+01 0.  1.
</event>
<event>
 7    1  0.3260141E-006  0.4335961E+03  0.7546771E-02  0.9562033E-01
        -11   -1    0    0    0    0  0.00000000000E+00  0.00000000000E+00  0.50000000000E+03  0.50000000000E+03  0.00000000000E+00 0.  1.
         11   -1    0    0    0    0 -0.00000000000E+00 -0.00000000000E+00 -0.50000000000E+03  0.50000000000E+03  0.00000000000E+00 0. -1.
         23    2    1    2    0    0 -0.24293243641E+02 -0.17040638486E+03  0.36238212489E+03  0.41162440911E+03  0.92115970670E+02 0.  0.
        -11    1    1    2    0    0 -0.11419753858E+02  0.99715806178E+02  0.86537513485E+02  0.13252318295E+03  0.00000000000E+00 0.  1.
         11    1    1    2    0    0  0.35712997499E+02  0.70690578682E+02 -0.44891963837E+03  0.45585240793E+03  0.00000000000E+00 0. -1.
        -15    1    3    3    0    0  0.13065850274E+02 -0.12464042984E+03  0.17579975710E+03  0.21590429713E+03  0.17770000000E+01 0.  1.
         15    1    3    3    0    0 -0.37359093915E+02 -0.45765955023E+02  0.18658236778E+03  0.19572011198E+03  0.17770000000E+01 0. -1.
</event>
<event>
 7    1  0.3260141E-006  0.5144498E+03  0.7546771E-02  0.9368045E-01
        -11   -1    0    0    0    0  0.00000000000E+00  0.00000000000E+00  0.50000000000E+03  0.50000000000E+03  0.00000000000E+00 0.  1.
         11   -1    0    0    0    0 -0.00000000000E+00 -0.00000000000E+00 -0.50000000000E+03  0.50000000000E+03  0.00000000000E+00 0. -1.
         23    2    1    2    0    0 -0.17709829207E+02  0.54353759669E+01  0.15043490807E+03  0.17699660096E+03  0.91399966203E+02 0.  0.
        -11    1    1    2    0    0 -0.64700258231E+02  0.93373186892E+02  0.31775779040E+03  0.33745323943E+03  0.00000000000E+00 0.  1.
         11    1    1    2    0    0  0.82410087438E+02 -0.98808562858E+02 -0.46819269846E+03  0.48555015961E+03  0.00000000000E+00 0. -1.
        -15    1    3    3    0    0  0.25169597596E+02  0.31997076338E+02  0.49245804177E+02  0.63918921263E+02  0.17770000000E+01 0.  1.
         15    1    3    3    0    0 -0.42879426803E+02 -0.26561700371E+02  0.10118910389E+03  0.11307767969E+03  0.17770000000E+01 0. -1.
</event>
<event>
 7    1  0.3260141E-006  0.4242919E+03  0.7546771E-02  0.9587229E-01
        -11   -1    0    0    0    0  0.00000000000E+00  0.00000000000E+00  0.50000000000E+03  0.50000000000E+03  0.00000000000E+00 0. -1.
         11   -1    0    0    0    0 -0.00000000000E+00 -0.00000000000E+00 -0.50000000000E+03  0.50000000000E+03  0.00000000000E+00 0.  1.
         23    2    1    2    0    0  0.68771582033E+02  0.87198263143E+02  0.10568220618E+02  0.14411491229E+03  0.91237892714E+02 0.  0.
        -11    1    1    2    0    0 -0.81481178890E+02  0.19929304794E+03  0.34032486781E+03  0.40271319462E+03  0.00000000000E+00 0. -1.
         11    1    1    2    0    0  0.12709596857E+02 -0.28649131109E+03 -0.35089308843E+03  0.45317189309E+03  0.00000000000E+00 0.  1.
        -15    1    3    3    0    0  0.45239661373E+02  0.18583775963E+02 -0.33420654204E+02  0.59262817572E+02  0.17770000000E+01 0.  1.
         15    1    3    3    0    0  0.23531920660E+02  0.68614487180E+02  0.43988874822E+02  0.84852094718E+02  0.17770000000E+01 0. -1.
</event>
<event>
 7    1  0.3260141E-006  0.3554628E+03  0.7546771E-02  0.9797998E-01
        -11   -1    0    0    0    0  0.00000000000E+00  0.00000000000E+00  0.50000000000E+03  0.50000000000E+03  0.00000000000E+00 0.  1.
         11   -1    0    0    0    0 -0.00000000000E+00 -0.00000000000E+00 -0.50000000000E+03  0.50000000000E+03  0.00000000000E+00 0.  1.
         23    2    1    2    0    0 -0.13548941620E+03 -0.62433016973E+02  0.25421268928E+03  0.30945858723E+03  0.94261669346E+02 0.  0.
        -11    1    1    2    0    0  0.61269400290E+02  0.19703594958E+03  0.15195844841E+03  0.25625860938E+03  0.00000000000E+00 0.  1.
         11    1    1    2    0    0  0.74220015910E+02 -0.13460293261E+03 -0.40617113769E+03  0.43428280339E+03  0.00000000000E+00 0.  1.
        -15    1    3    3    0    0 -0.12314118703E+03 -0.16441745635E+02  0.21235483552E+03  0.24603214595E+03  0.17770000000E+01 0.  1.
         15    1    3    3    0    0 -0.12348229172E+02 -0.45991271338E+02  0.41857853757E+02  0.63426441278E+02  0.17770000000E+01 0. -1.
</event>
<event>
 7    1  0.3260141E-006  0.4190552E+03  0.7546771E-02  0.9601716E-01
        -11   -1    0    0    0    0  0.00000000000E+00  0.00000000000E+00  0.50000000000E+03  0.50000000000E+03  0.00000000000E+00 0. -1.
         11   -1    0    0    0    0 -0.00000000000E+00 -0.00000000000E+00 -0.50000000000E+03  0.50000000000E+03  0.00000000000E+00 0.  1.
         23    2    1    2    0    0 -0.30300705113E+03 -0.11302006774E+02  0.31058220212E+03  0.44327009847E+03  0.89922564065E+02 0.  0.
        -11    1    1    2    0    0  0.12239661198E+03 -0.93371542259E+02  0.30404559916E+02  0.15691912819E+03  0.00000000000E+00 0. -1.
         11    1    1    2    0    0  0.18061043915E+03  0.10467354903E+03 -0.34098676204E+03  0.39981077335E+03  0.00000000000E+00 0.  1.
        -15    1    3    3    0    0 -0.39531782187E+02 -0.26182825794E+02  0.22272587405E+02  0.52416867974E+02  0.17770000000E+01 0.  1.
         15    1    3    3    0    0 -0.26347526894E+03  0.14880819020E+02  0.28830961472E+03  0.39085323049E+03  0.17770000000E+01 0. -1.
</event>
<event>
 7    1  0.3260141E-006  0.3269912E+03  0.7546771E-02  0.9900726E-01
        -11   -1    0    0    0    0  0.00000000000E+00  0.00000000000E+00  0.50000000000E+03  0.50000000000E+03  0.00000000000E+00 0. -1.
         11   -1    0    0    0    0 -0.00000000000E+00 -0.00000000000E+00 -0.50000000000E+03  0.50000000000E+03  0.00000000000E+00 0. -1.
         23    2    1    2    0    0 -0.11373036127E+03  0.42935687457E+02  0.24819613897E+03  0.29001945495E+03  0.87931180556E+02 0.  0.
        -11    1    1    2    0    0  0.33118645672E+03 -0.11168271248E+03  0.29363363443E+02  0.35074164922E+03  0.00000000000E+00 0. -1.
         11    1    1    2    0    0 -0.21745609545E+03  0.68747025023E+02 -0.27755950242E+03  0.35923889584E+03  0.00000000000E+00 0. -1.
        -15    1    3    3    0    0 -0.21207279632E+02 -0.22233120448E+02  0.24569407240E+02  0.39381135781E+02  0.17770000000E+01 0.  1.
         15    1    3    3    0    0 -0.92523081635E+02  0.65168807905E+02  0.22362673173E+03  0.25063831917E+03  0.17770000000E+01 0. -1.
</event>
<event>
 7    1  0.3260141E-006  0.5206696E+03  0.7546771E-02  0.9354712E-01
        -11   -1    0    0    0    0  0.00000000000E+00  0.00000000000E+00  0.50000000000E+03  0.50000000000E+03  0.00000000000E+00 0.  1.
         11   -1    0    0    0    0 -0.00000000000E+00 -0.00000000000E+00 -0.50000000000E+03  0.50000000000E+03  0.00000000000E+00 0. -1.
         23    2    1    2    0    0  0.39889922241E+02 -0.12375352690E+03 -0.14678612545E+03  0.21833716465E+03  0.96014631832E+02 0.  0.
        -11    1    1    2    0    0  0.27881862891E+02  0.21818463150E+03  0.42588226144E+03  0.47933039994E+03  0.00000000000E+00 0.  1.
         11    1    1    2    0    0 -0.67771785132E+02 -0.94431104608E+02 -0.27909613599E+03  0.30233243541E+03  0.00000000000E+00 0. -1.
        -15    1    3    3    0    0  0.25424387282E+01 -0.19533841853E+02  0.13195616542E+02  0.23776395798E+02  0.17770000000E+01 0.  1.
         15    1    3    3    0    0  0.37347483513E+02 -0.10421968504E+03 -0.15998174199E+03  0.19456076885E+03  0.17770000000E+01 0. -1.
</event>
<event>
 7    1  0.3260141E-006  0.5207548E+03  0.7546771E-02  0.9354530E-01
        -11   -1    0    0    0    0  0.00000000000E+00  0.00000000000E+00  0.50000000000E+03  0.50000000000E+03  0.00000000000E+00 0. -1.
         11   -1    0    0    0    0 -0.00000000000E+00 -0.00000000000E+00 -0.50000000000E+03  0.50000000000E+03  0.00000000000E+00 0.  1.
         23    2    1    2    0    0 -0.26318292846E+02 -0.18604971785E+01  0.37430300062E+03  0.38585308077E+03  0.89909675106E+02 0.  0.
        -11    1    1    2    0    0 -0.10203317077E+03  0.12877595975E+02  0.87303388115E+02  0.13490174940E+03  0.00000000000E+00 0. -1.
         11    1    1    2    0    0  0.12835146362E+03 -0.11017098797E+02 -0.46160638874E+03  0.47924516983E+03  0.00000000000E+00 0.  1.
        -15    1    3    3    0    0 -0.46835679549E+02 -0.23922756093E+02  0.31443736069E+03  0.31881011694E+03  0.17770000000E+01 0. -1.
         15    1    3    3    0    0  0.20517386702E+02  0.22062258915E+02  0.59865639934E+02  0.67042963831E+02  0.17770000000E+01 0.  1.
</event>
<event>
 7    1  0.3260141E-006  0.3952564E+03  0.7546771E-02  0.9670521E-01
        -11   -1    0    0    0    0  0.00000000000E+00  0.00000000000E+00  0.50000000000E+03  0.50000000000E+03  0.00000000000E+00 0. -1.
         11   -1    0    0    0    0 -0.00000000000E+00 -0.00000000000E+00 -0.50000000000E+03  0.50000000000E+03  0.00000000000E+00 0.  1.
         23    2    1    2    0    0 -0.18490914979E+03  0.14638337895E+03  0.28228481801E+03  0.37867820496E+03  0.89960975551E+02 0.  0.
        -11    1    1    2    0    0  0.14400905058E+03 -0.37391468794E+02  0.12711597844E+03  0.19569159553E+03  0.00000000000E+00 0. -1.
         11    1    1    2    0    0  0.40900099214E+02 -0.10899191015E+03 -0.40940079646E+03  0.42563019951E+03  0.00000000000E+00 0.  1.
        -15    1    3    3    0    0 -0.13750665290E+03  0.14720752183E+03  0.25102978966E+03  0.32186526234E+03  0.17770000000E+01 0.  1.
         15    1    3    3    0    0 -0.47402496889E+02 -0.82414287948E+00  0.31255028350E+02  0.56812942619E+02  0.17770000000E+01 0. -1.
</event>
<event>
 7    1  0.3260141E-006  0.5231495E+03  0.7546771E-02  0.9349451E-01
        -11   -1    0    0    0    0  0.00000000000E+00  0.00000000000E+00  0.50000000000E+03  0.50000000000E+03  0.00000000000E+00 0.  1.
         11   -1    0    0    0    0 -0.00000000000E+00 -0.00000000000E+00 -0.50000000000E+03  0.50000000000E+03  0.00000000000E+00 0.  1.
         23    2    1    2    0    0 -0.13464655406E+03  0.36902651027E+01  0.44876560931E+03  0.47685051867E+03  0.88614516170E+02 0.  0.
        -11    1    1    2    0    0  0.16470048181E+03  0.50196983625E+02 -0.18693491107E+03  0.25414690014E+03  0.00000000000E+00 0.  1.
         11    1    1    2    0    0 -0.30053927748E+02 -0.53887248728E+02 -0.26183069824E+03  0.26900258119E+03  0.00000000000E+00 0.  1.
        -15    1    3    3    0    0  0.62116171149E+01 -0.11922637389E+02  0.13681782870E+02  0.19263498670E+02  0.17770000000E+01 0. -1.
         15    1    3    3    0    0 -0.14085817118E+03  0.15612902491E+02  0.43508382644E+03  0.45758702000E+03  0.17770000000E+01 0.  1.
</event>
<event>
 7    1  0.3820886E-006  0.5117079E+03  0.7546771E-02  0.9373987E-01
        -11   -1    0    0    0    0  0.00000000000E+00  0.00000000000E+00  0.50000000000E+03  0.50000000000E+03  0.00000000000E+00 0.  1.
         11   -1    0    0    0    0 -0.00000000000E+00 -0.00000000000E+00 -0.50000000000E+03  0.50000000000E+03  0.00000000000E+00 0.  1.
         23    2    1    2    0    0  0.32679180406E+02 -0.66900276821E+02 -0.25125323978E+03  0.27725525359E+03  0.90546724239E+02 0.  0.
        -11    1    1    2    0    0 -0.72834988746E+02  0.42531926617E+02  0.48095246975E+03  0.48829210369E+03  0.00000000000E+00 0.  1.
         11    1    1    2    0    0  0.40155808340E+02  0.24368350204E+02 -0.22969922996E+03  0.23445264273E+03  0.00000000000E+00 0.  1.
        -15    1    3    3    0    0  0.13981035014E+01 -0.68688515989E+02 -0.91426920229E+02  0.11437703613E+03  0.17770000000E+01 0.  1.
         15    1    3    3    0    0  0.31281076905E+02  0.17882391683E+01 -0.15982631955E+03  0.16287821746E+03  0.17770000000E+01 0. -1.
</event>
<event>
 7    1  0.3260141E-006  0.5143144E+03  0.7546771E-02  0.9368338E-01
        -11   -1    0    0    0    0  0.00000000000E+00  0.00000000000E+00  0.50000000000E+03  0.50000000000E+03  0.00000000000E+00 0.  1.
         11   -1    0    0    0    0 -0.00000000000E+00 -0.00000000000E+00 -0.50000000000E+03  0.50000000000E+03  0.00000000000E+00 0. -1.
         23    2    1    2    0    0 -0.31780454512E+02 -0.13182217789E+02  0.40742222150E+03  0.41956374141E+03  0.94112158502E+02 0.  0.
        -11    1    1    2    0    0  0.18386380807E+00 -0.62395304158E+02  0.71305494629E+02  0.94750627181E+02  0.00000000000E+00 0.  1.
         11    1    1    2    0    0  0.31596590704E+02  0.75577521947E+02 -0.47872771613E+03  0.48568563141E+03  0.00000000000E+00 0. -1.
        -15    1    3    3    0    0  0.32493909260E+02  0.18723333892E+01  0.17166058552E+03  0.17472800039E+03  0.17770000000E+01 0.  1.
         15    1    3    3    0    0 -0.64274363773E+02 -0.15054551178E+02  0.23576163598E+03  0.24483574102E+03  0.17770000000E+01 0. -1.
</event>
<event>
 7    1  0.3260141E-006  0.4670396E+03  0.7546771E-02  0.9476740E-01
        -11   -1    0    0    0    0  0.00000000000E+00  0.00000000000E+00  0.50000000000E+03  0.50000000000E+03  0.00000000000E+00 0.  1.
         11   -1    0    0    0    0 -0.00000000000E+00 -0.00000000000E+00 -0.50000000000E+03  0.50000000000E+03  0.00000000000E+00 0. -1.
         23    2    1    2    0    0 -0.13638072205E+02  0.27859012978E+03 -0.35183217931E+03  0.45800756859E+03  0.90479793641E+02 0.  0.
        -11    1    1    2    0    0  0.59452892079E+02 -0.24548125245E+03  0.39638592175E+03  0.47001860670E+03  0.00000000000E+00 0.  1.
         11    1    1    2    0    0 -0.45814819875E+02 -0.33108877336E+02 -0.44553742441E+02  0.71973824715E+02  0.00000000000E+00 0. -1.
        -15    1    3    3    0    0  0.24855519484E+02  0.22861621870E+03 -0.28211559745E+03  0.36397189501E+03  0.17770000000E+01 0. -1.
         15    1    3    3    0    0 -0.38493591688E+02  0.49973911080E+02 -0.69716581863E+02  0.94035673579E+02  0.17770000000E+01 0.  1.
</event>
<event>
 7    1  0.3260141E-006  0.4027702E+03  0.7546771E-02  0.9648251E-01
        -11   -1    0    0    0    0  0.00000000000E+00  0.00000000000E+00  0.50000000000E+03  0.50000000000E+03  0.00000000000E+00 0. -1.
         11   -1    0    0    0    0 -0.00000000000E+00 -0.00000000000E+00 -0.50000000000E+03  0.50000000000E+03  0.00000000000E+00 0. -1.
         23    2    1    2    0    0  0.51601372506E+02  0.41727009346E+02  0.14016456874E+03  0.17966764256E+03  0.90722161018E+02 0.  0.
        -11    1    1    2    0    0 -0.17216961201E+03 -0.28007146234E+03  0.20230410883E+03  0.38601729465E+03  0.00000000000E+00 0. -1.
         11    1    1    2    0    0  0.12056823950E+03  0.23834445300E+03 -0.34246867757E+03  0.43431506279E+03  0.00000000000E+00 0. -1.
        -15    1    3    3    0    0  0.70361066151E+01  0.41410527265E+02  0.11638929004E+02  0.43622940777E+02  0.17770000000E+01 0.  1.
         15    1    3    3    0    0  0.44565265891E+02  0.31648208066E+00  0.12852563974E+03  0.13604470178E+03  0.17770000000E+01 0. -1.
</event>
<event>
 7    1  0.3260141E-006  0.4155317E+03  0.7546771E-02  0.9611591E-01
        -11   -1    0    0    0    0  0.00000000000E+00  0.00000000000E+00  0.50000000000E+03  0.50000000000E+03  0.00000000000E+00 0. -1.
         11   -1    0    0    0    0 -0.00000000000E+00 -0.00000000000E+00 -0.50000000000E+03  0.50000000000E+03  0.00000000000E+00 0.  1.
         23    2    1    2    0    0 -0.13424501707E+02 -0.12745374072E+03 -0.16054260839E+02  0.15895972006E+03  0.92659484359E+02 0.  0.
        -11    1    1    2    0    0 -0.12499391212E+03  0.59966076482E+02  0.40214571664E+03  0.42537111539E+03  0.00000000000E+00 0. -1.
         11    1    1    2    0    0  0.13841841383E+03  0.67487664235E+02 -0.38609145580E+03  0.41566916455E+03  0.00000000000E+00 0.  1.
        -15    1    3    3    0    0  0.22052729883E+02 -0.10200967798E+02  0.19703117999E+02  0.31332941566E+02  0.17770000000E+01 0.  1.
         15    1    3    3    0    0 -0.35477231590E+02 -0.11725277292E+03 -0.35757378837E+02  0.12762677849E+03  0.17770000000E+01 0. -1.
</event>
<event>
 7    1  0.3260141E-006  0.4195746E+03  0.7546771E-02  0.9600269E-01
        -11   -1    0    0    0    0  0.00000000000E+00  0.00000000000E+00  0.50000000000E+03  0.50000000000E+03  0.00000000000E+00 0.  1.
         11   -1    0    0    0    0 -0.00000000000E+00 -0.00000000000E+00 -0.50000000000E+03  0.50000000000E+03  0.00000000000E+00 0. -1.
         23    2    1    2    0    0 -0.14643894727E+03  0.12487424704E+03  0.34824118459E+03  0.40881636684E+03  0.93919946222E+02 0.  0.
        -11    1    1    2    0    0  0.13458450173E+03 -0.28605203030E+02  0.75182841525E+02  0.15679191754E+03  0.00000000000E+00 0.  1.
         11    1    1    2    0    0  0.11854445540E+02 -0.96269044008E+02 -0.42342402611E+03  0.43439171562E+03  0.00000000000E+00 0. -1.
        -15    1    3    3    0    0 -0.93982784878E+02  0.56629873836E+02  0.27390612804E+03  0.29507190848E+03  0.17770000000E+01 0.  1.
         15    1    3    3    0    0 -0.52456162391E+02  0.68244373202E+02  0.74335056546E+02  0.11374445836E+03  0.17770000000E+01 0. -1.
</event>
<event>
 7    1  0.3260141E-006  0.5160142E+03  0.7546771E-02  0.9364673E-01
        -11   -1    0    0    0    0  0.00000000000E+00  0.00000000000E+00  0.50000000000E+03  0.50000000000E+03  0.00000000000E+00 0.  1.
         11   -1    0    0    0    0 -0.00000000000E+00 -0.00000000000E+00 -0.50000000000E+03  0.50000000000E+03  0.00000000000E+00 0. -1.
         23    2    1    2    0    0 -0.33205482323E+02  0.33913869032E+02 -0.10290148040E+03  0.13613589038E+03  0.75442106348E+02 0.  0.
        -11    1    1    2    0    0 -0.55815951631E+01 -0.23194910063E+03  0.42474787878E+03  0.48398584691E+03  0.00000000000E+00 0.  1.
         11    1    1    2    0    0  0.38787077486E+02  0.19803523160E+03 -0.32184639837E+03  0.37987826271E+03  0.00000000000E+00 0. -1.
        -15    1    3    3    0    0 -0.54869340202E+02  0.36829725573E+02 -0.85863356708E+02  0.10836395588E+03  0.17770000000E+01 0. -1.
         15    1    3    3    0    0  0.21663857878E+02 -0.29158565417E+01 -0.17038123696E+02  0.27771934495E+02  0.17770000000E+01 0.  1.
</event>
<event>
 7    1  0.3260141E-006  0.3866766E+03  0.7546771E-02  0.9696607E-01
        -11   -1    0    0    0    0  0.00000000000E+00  0.00000000000E+00  0.50000000000E+03  0.50000000000E+03  0.00000000000E+00 0. -1.
         11   -1    0    0    0    0 -0.00000000000E+00 -0.00000000000E+00 -0.50000000000E+03  0.50000000000E+03  0.00000000000E+00 0.  1.
         23    2    1    2    0    0  0.65586996815E+02  0.77836966381E+02  0.36953000721E+03  0.39386487716E+03  0.90646940050E+02 0.  0.
        -11    1    1    2    0    0  0.13280005944E+03  0.13020428805E+03 -0.95870909554E+02  0.20923729044E+03  0.00000000000E+00 0. -1.
         11    1    1    2    0    0 -0.19838705625E+03 -0.20804125443E+03 -0.27365909766E+03  0.39689783240E+03  0.00000000000E+00 0.  1.
        -15    1    3    3    0    0 -0.59491181087E+01  0.59552848050E+02  0.20399417283E+03  0.21259989180E+03  0.17770000000E+01 0.  1.
         15    1    3    3    0    0  0.71536114923E+02  0.18284118331E+02  0.16553583439E+03  0.18126498536E+03  0.17770000000E+01 0. -1.
</event>
<event>
 7    1  0.3260141E-006  0.3687718E+03  0.7546771E-02  0.9753455E-01
        -11   -1    0    0    0    0  0.00000000000E+00  0.00000000000E+00  0.50000000000E+03  0.50000000000E+03  0.00000000000E+00 0. -1.
         11   -1    0    0    0    0 -0.00000000000E+00 -0.00000000000E+00 -0.50000000000E+03  0.50000000000E+03  0.00000000000E+00 0.  1.
         23    2    1    2    0    0 -0.50574413860E+02  0.63560433813E+01  0.20708848133E+03  0.23224068491E+03  0.91934357031E+02 0.  0.
        -11    1    1    2    0    0 -0.11866276440E+03  0.30171388329E+03 -0.25571249276E+03  0.41291766489E+03  0.00000000000E+00 0.  1.
         11    1    1    2    0    0  0.16923717826E+03 -0.30806992667E+03  0.48624011427E+02  0.35484165020E+03  0.00000000000E+00 0. -1.
        -15    1    3    3    0    0 -0.63037483033E+02 -0.27473326028E+02  0.12827487402E+03  0.14555448788E+03  0.17770000000E+01 0.  1.
         15    1    3    3    0    0  0.12463069173E+02  0.33829369410E+02  0.78813607317E+02  0.86686197028E+02  0.17770000000E+01 0. -1.
</event>
<event>
 7    1  0.3260141E-006  0.3153967E+03  0.7546771E-02  0.9945831E-01
        -11   -1    0    0    0    0  0.00000000000E+00  0.00000000000E+00  0.50000000000E+03  0.50000000000E+03  0.00000000000E+00 0. -1.
         11   -1    0    0    0    0 -0.00000000000E+00 -0.00000000000E+00 -0.50000000000E+03  0.50000000000E+03  0.00000000000E+00 0. -1.
         23    2    1    2    0    0  0.15813344335E+02 -0.72784891825E+02  0.28791264707E+03  0.31081015777E+03  0.90341349849E+02 0.  0.
        -11    1    1    2    0    0 -0.11212006620E+03  0.33135526719E+03 -0.14815533303E+03  0.37989106998E+03  0.00000000000E+00 0. -1.
         11    1    1    2    0    0  0.96306721863E+02 -0.25857037537E+03 -0.13975731404E+03  0.30929877226E+03  0.00000000000E+00 0. -1.
        -15    1    3    3    0    0 -0.23692349731E+02 -0.70996688035E+02  0.21761102560E+03  0.23012947082E+03  0.17770000000E+01 0. -1.
         15    1    3    3    0    0  0.39505694066E+02 -0.17882037903E+01  0.70301621469E+02  0.80680686949E+02  0.17770000000E+01 0.  1.
</event>
<event>
 7    1  0.3260141E-006  0.4937453E+03  0.7546771E-02  0.9413915E-01
        -11   -1    0    0    0    0  0.00000000000E+00  0.00000000000E+00  0.50000000000E+03  0.50000000000E+03  0.00000000000E+00 0.  1.
         11   -1    0    0    0    0 -0.00000000000E+00 -0.00000000000E+00 -0.50000000000E+03  0.50000000000E+03  0.00000000000E+00 0. -1.
         23    2    1    2    0    0 -0.10224317937E+03  0.18384297028E+03 -0.43619798996E+03  0.49303847541E+03  0.92554558715E+02 0.  0.
        -11    1    1    2    0    0  0.82711836812E+02 -0.18079538386E+03  0.44339109265E+03  0.48592579662E+03  0.00000000000E+00 0.  1.
         11    1    1    2    0    0  0.19531342559E+02 -0.30475864203E+01 -0.71931026962E+01  0.21035727977E+02  0.00000000000E+00 0. -1.
        -15    1    3    3    0    0 -0.17523124506E+02  0.11760302380E+03 -0.18682683258E+03  0.22146095412E+03  0.17770000000E+01 0.  1.
         15    1    3    3    0    0 -0.84720054865E+02  0.66239946477E+02 -0.24937115738E+03  0.27157752129E+03  0.17770000000E+01 0. -1.
</event>
<event>
 7    1  0.3260141E-006  0.3347247E+03  0.7546771E-02  0.9871743E-01
        -11   -1    0    0    0    0  0.00000000000E+00  0.00000000000E+00  0.50000000000E+03  0.50000000000E+03  0.00000000000E+00 0.  1.
         11   -1    0    0    0    0 -0.00000000000E+00 -0.00000000000E+00 -0.50000000000E+03  0.50000000000E+03  0.00000000000E+00 0.  1.
         23    2    1    2    0    0  0.13121876056E+03  0.11535282575E+03  0.19955788821E+03  0.27992336765E+03  0.89493594627E+02 0.  0.
        -11    1    1    2    0    0 -0.32201133533E+03 -0.11097632069E+03  0.10870144741E+03  0.35752349364E+03  0.00000000000E+00 0.  1.
         11    1    1    2    0    0  0.19079257477E+03 -0.43765050621E+01 -0.30825933563E+03  0.36255313871E+03  0.00000000000E+00 0.  1.
        -15    1    3    3    0    0  0.61235512025E+01  0.36052735951E+02  0.74853345560E+01  0.37369581364E+02  0.17770000000E+01 0. -1.
         15    1    3    3    0    0  0.12509520935E+03  0.79300089799E+02  0.19207255366E+03  0.24255378629E+03  0.17770000000E+01 0.  1.
</event>
<event>
 7    1  0.4453208E-006  0.4829609E+03  0.7546771E-02  0.9438764E-01
        -11   -1    0    0    0    0  0.00000000000E+00  0.00000000000E+00  0.50000000000E+03  0.50000000000E+03  0.00000000000E+00 0. -1.
         11   -1    0    0    0    0 -0.00000000000E+00 -0.00000000000E+00 -0.50000000000E+03  0.50000000000E+03  0.00000000000E+00 0. -1.
         23    2    1    2    0    0  0.92281470717E+02  0.91623493859E+01 -0.44471947910E+03  0.46363858564E+03  0.92657997591E+02 0.  0.
        -11    1    1    2    0    0 -0.10438810902E+03 -0.23242265444E+02  0.48252898482E+03  0.49423810193E+03  0.00000000000E+00 0. -1.
         11    1    1    2    0    0  0.12106638300E+02  0.14079916058E+02 -0.37809505720E+02  0.42123312428E+02  0.00000000000E+00 0. -1.
        -15    1    3    3    0    0  0.76534187343E+02 -0.30398895167E+02 -0.22001312977E+03  0.23492660484E+03  0.17770000000E+01 0. -1.
         15    1    3    3    0    0  0.15747283374E+02  0.39561244552E+02 -0.22470634933E+03  0.22871198080E+03  0.17770000000E+01 0.  1.
</event>
<event>
 7    1  0.3260141E-006  0.4036108E+03  0.7546771E-02  0.9645792E-01
        -11   -1    0    0    0    0  0.00000000000E+00  0.00000000000E+00  0.50000000000E+03  0.50000000000E+03  0.00000000000E+00 0.  1.
         11   -1    0    0    0    0 -0.00000000000E+00 -0.00000000000E+00 -0.50000000000E+03  0.50000000000E+03  0.00000000000E+00 0.  1.
         23    2    1    2    0    0  0.82246768041E+02 -0.29148025568E+02  0.10199521317E+03  0.18169453660E+03  0.12245710626E+03 0.  0.
        -11    1    1    2    0    0 -0.12105038836E+03  0.11332426705E+03  0.33382406016E+03  0.37273863385E+03  0.00000000000E+00 0.  1.
         11    1    1    2    0    0  0.38803620316E+02 -0.84176241486E+02 -0.43581927333E+03  0.44556682954E+03  0.00000000000E+00 0.  1.
        -15    1    3    3    0    0  0.57853684333E+02 -0.60888696673E+02  0.11237061765E+03  0.14030251464E+03  0.17770000000E+01 0.  1.
         15    1    3    3    0    0  0.24393083708E+02  0.31740671106E+02 -0.10375404483E+02  0.41392021963E+02  0.17770000000E+01 0. -1.
</event>
<event>
 7    1  0.3260141E-006  0.3390866E+03  0.7546771E-02  0.9855764E-01
        -11   -1    0    0    0    0  0.00000000000E+00  0.00000000000E+00  0.50000000000E+03  0.50000000000E+03  0.00000000000E+00 0. -1.
         11   -1    0    0    0    0 -0.00000000000E+00 -0.00000000000E+00 -0.50000000000E+03  0.50000000000E+03  0.00000000000E+00 0.  1.
         23    2    1    2    0    0  0.20757315764E+03  0.25027530545E+03  0.98564987254E+02  0.35908738860E+03  0.11620822540E+03 0.  0.
        -11    1    1    2    0    0 -0.14843400275E+03 -0.10021248602E+03  0.22009579817E+03  0.28375580328E+03  0.00000000000E+00 0. -1.
         11    1    1    2    0    0 -0.59139154894E+02 -0.15006281943E+03 -0.31866078542E+03  0.35715680812E+03  0.00000000000E+00 0.  1.
        -15    1    3    3    0    0  0.78919780116E+02  0.39323178999E+02  0.65361334294E+02  0.10977206316E+03  0.17770000000E+01 0. -1.
         15    1    3    3    0    0  0.12865337752E+03  0.21095212645E+03  0.33203652960E+02  0.24931532544E+03  0.17770000000E+01 0.  1.
</event>
<event>
 7    1  0.3260141E-006  0.4585478E+03  0.7546771E-02  0.9497660E-01
        -11   -1    0    0    0    0  0.00000000000E+00  0.00000000000E+00  0.50000000000E+03  0.50000000000E+03  0.00000000000E+00 0.  1.
         11   -1    0    0    0    0 -0.00000000000E+00 -0.00000000000E+00 -0.50000000000E+03  0.50000000000E+03  0.00000000000E+00 0.  1.
         23    2    1    2    0    0  0.38115842058E+01 -0.33623151686E+02  0.43960416388E+03  0.45028391500E+03  0.91426137995E+02 0.  0.
        -11    1    1    2    0    0 -0.86681534129E+02 -0.61858534644E+01  0.13000055111E+02  0.87868962524E+02  0.00000000000E+00 0.  1.
         11    1    1    2    0    0  0.82869949924E+02  0.39809005151E+02 -0.45260421899E+03  0.46184712247E+03  0.00000000000E+00 0.  1.
        -15    1    3    3    0    0  0.45060240815E+02 -0.31143805044E+02  0.28629531143E+03  0.29149361052E+03  0.17770000000E+01 0.  1.
         15    1    3    3    0    0 -0.41248656609E+02 -0.24793466421E+01  0.15330885244E+03  0.15879030448E+03  0.17770000000E+01 0. -1.
</event>
<event>
 7    1  0.3260141E-006  0.4081757E+03  0.7546771E-02  0.9632548E-01
        -11   -1    0    0    0    0  0.00000000000E+00  0.00000000000E+00  0.50000000000E+03  0.50000000000E+03  0.00000000000E+00 0. -1.
         11   -1    0    0    0    0 -0.00000000000E+00 -0.00000000000E+00 -0.50000000000E+03  0.50000000000E+03  0.00000000000E+00 0.  1.
         23    2    1    2    0    0 -0.28364773099E+03  0.24444177802E+03 -0.62670022265E+02  0.39063632047E+03  0.91985787151E+02 0.  0.
        -11    1    1    2    0    0  0.29960114458E+03 -0.20976735139E+03  0.23376610197E+03  0.43406195177E+03  0.00000000000E+00 0. -1.
         11    1    1    2    0    0 -0.15953413594E+02 -0.34674426634E+02 -0.17109607970E+03  0.17530172776E+03  0.00000000000E+00 0.  1.
        -15    1    3    3    0    0 -0.28033698397E+03  0.22421702767E+03 -0.74894143746E+02  0.36670750003E+03  0.17770000000E+01 0.  1.
         15    1    3    3    0    0 -0.33107470192E+01  0.20224750354E+02  0.12224121481E+02  0.23928820440E+02  0.17770000000E+01 0. -1.
</event>
<event>
 6    1  0.3260141E-006  0.5304704E+03  0.7546771E-02  0.9334098E-01
        -11   -1    0    0    0    0  0.00000000000E+00  0.00000000000E+00  0.50000000000E+03  0.50000000000E+03  0.00000000000E+00 0.  1.
         11   -1    0    0    0    0 -0.00000000000E+00 -0.00000000000E+00 -0.50000000000E+03  0.50000000000E+03  0.00000000000E+00 0.  1.
        -11    1    1    2    0    0 -0.97531579817E+02 -0.75451425490E+01  0.45922620873E+03  0.46952960399E+03  0.00000000000E+00 0.  1.
         11    1    1    2    0    0 -0.47405671515E+02 -0.92405921857E+01 -0.16597704533E+03  0.17286140637E+03  0.00000000000E+00 0.  1.
        -15    1    1    2    0    0  0.97547813215E+02 -0.24384518600E+02 -0.62357699939E+02  0.11832929088E+03  0.17770000000E+01 0.  1.
         15    1    1    2    0    0  0.47389438117E+02  0.41170253334E+02 -0.23089146347E+03  0.23927969875E+03  0.17770000000E+01 0. -1.
</event>
<event>
 7    1  0.3260141E-006  0.4891751E+03  0.7546771E-02  0.9424363E-01
        -11   -1    0    0    0    0  0.00000000000E+00  0.00000000000E+00  0.50000000000E+03  0.50000000000E+03  0.00000000000E+00 0.  1.
         11   -1    0    0    0    0 -0.00000000000E+00 -0.00000000000E+00 -0.50000000000E+03  0.50000000000E+03  0.00000000000E+00 0. -1.
         23    2    1    2    0    0  0.87723031072E+02  0.10060596269E+02  0.46219792026E+03  0.47956028504E+03  0.92491100744E+02 0.  0.
        -11    1    1    2    0    0 -0.75615987320E+01 -0.19471843546E+02  0.21545607548E+02  0.30009059817E+02  0.00000000000E+00 0.  1.
         11    1    1    2    0    0 -0.80161432340E+02  0.94112472779E+01 -0.48374352781E+03  0.49043065514E+03  0.00000000000E+00 0. -1.
        -15    1    3    3    0    0  0.43018884640E+02  0.47980392906E+02  0.30595564593E+03  0.31267356387E+03  0.17770000000E+01 0.  1.
         15    1    3    3    0    0  0.44704146431E+02 -0.37919796637E+02  0.15624227433E+03  0.16688672117E+03  0.17770000000E+01 0. -1.
</event>
<event>
 7    1  0.3260141E-006  0.3377821E+03  0.7546771E-02  0.9860516E-01
        -11   -1    0    0    0    0  0.00000000000E+00  0.00000000000E+00  0.50000000000E+03  0.50000000000E+03  0.00000000000E+00 0.  1.
         11   -1    0    0    0    0 -0.00000000000E+00 -0.00000000000E+00 -0.50000000000E+03  0.50000000000E+03  0.00000000000E+00 0.  1.
         23    2    1    2    0    0  0.53254684013E+02  0.28325044663E+02 -0.25209390461E+03  0.27641403797E+03  0.95994865059E+02 0.  0.
        -11    1    1    2    0    0  0.30099692367E+03  0.15398722248E+00  0.20708263732E+03  0.36535241952E+03  0.00000000000E+00 0.  1.
         11    1    1    2    0    0 -0.35425160768E+03 -0.28479031886E+02  0.45011267286E+02  0.35823354251E+03  0.00000000000E+00 0.  1.
        -15    1    3    3    0    0  0.12124062988E+02 -0.34393602418E+02 -0.10723578948E+03  0.11328100046E+03  0.17770000000E+01 0. -1.
         15    1    3    3    0    0  0.41130621026E+02  0.62718647081E+02 -0.14485811513E+03  0.16313303751E+03  0.17770000000E+01 0.  1.
</event>
<event>
 7    1  0.3260141E-006  0.5364250E+03  0.7546771E-02  0.9321803E-01
        -11   -1    0    0    0    0  0.00000000000E+00  0.00000000000E+00  0.50000000000E+03  0.50000000000E+03  0.00000000000E+00 0.  1.
         11   -1    0    0    0    0 -0.00000000000E+00 -0.00000000000E+00 -0.50000000000E+03  0.50000000000E+03  0.00000000000E+00 0. -1.
         23    2    1    2    0    0  0.54096331500E+02 -0.20563371994E+02 -0.25120350264E+02  0.11034267432E+03  0.90527390489E+02 0.  0.
        -11    1    1    2    0    0  0.38218839010E+03  0.87222685625E+02  0.16694416221E+03  0.42608228749E+03  0.00000000000E+00 0.  1.
         11    1    1    2    0    0 -0.43628472160E+03 -0.66659313631E+02 -0.14182381195E+03  0.46357503819E+03  0.00000000000E+00 0. -1.
        -15    1    3    3    0    0  0.11236086950E+02  0.33416276326E+02 -0.21429437385E+02  0.41294983824E+02  0.17770000000E+01 0. -1.
         15    1    3    3    0    0  0.42860244551E+02 -0.53979648320E+02 -0.36909128794E+01  0.69047690494E+02  0.17770000000E+01 0.  1.
</event>
<event>
 6    1  0.3260141E-006  0.5144702E+03  0.7546771E-02  0.9368001E-01
        -11   -1    0    0    0    0  0.00000000000E+00  0.00000000000E+00  0.50000000000E+03  0.50000000000E+03  0.00000000000E+00 0.  1.
         11   -1    0    0    0    0 -0.00000000000E+00 -0.00000000000E+00 -0.50000000000E+03  0.50000000000E+03  0.00000000000E+00 0.  1.
        -11    1    1    2    0    0 -0.72945839280E+02 -0.16682709141E+03 -0.14757310298E+03  0.23437191517E+03  0.00000000000E+00 0.  1.
         11    1    1    2    0    0 -0.43069220022E+02  0.57110403939E+02 -0.27081080003E+03  0.28009827805E+03  0.00000000000E+00 0.  1.
        -15    1    1    2    0    0  0.14532339767E+03  0.80331550931E+02  0.41107850389E+03  0.44335171374E+03  0.17770000000E+01 0.  1.
         15    1    1    2    0    0 -0.29308338364E+02  0.29385136541E+02  0.73053991192E+01  0.42178093040E+02  0.17770000000E+01 0. -1.
</event>
<event>
 7    1  0.3260141E-006  0.5192051E+03  0.7546771E-02  0.9357833E-01
        -11   -1    0    0    0    0  0.00000000000E+00  0.00000000000E+00  0.50000000000E+03  0.50000000000E+03  0.00000000000E+00 0. -1.
         11   -1    0    0    0    0 -0.00000000000E+00 -0.00000000000E+00 -0.50000000000E+03  0.50000000000E+03  0.00000000000E+00 0.  1.
         23    2    1    2    0    0  0.14029366721E+02 -0.67646112130E+02  0.35823814177E+03  0.37599001460E+03  0.90890622416E+02 0.  0.
        -11    1    1    2    0    0 -0.74517648565E+02 -0.74343230639E+02  0.97112166363E+02  0.14321511354E+03  0.00000000000E+00 0. -1.
         11    1    1    2    0    0  0.60488281843E+02  0.14198934277E+03 -0.45535030813E+03  0.48079487187E+03  0.00000000000E+00 0.  1.
        -15    1    3    3    0    0  0.48707306792E+02 -0.34225242097E+02  0.13411685579E+03  0.14674555417E+03  0.17770000000E+01 0.  1.
         15    1    3    3    0    0 -0.34677940071E+02 -0.33420870033E+02  0.22412128597E+03  0.22924446043E+03  0.17770000000E+01 0. -1.
</event>
<event>
 7    1  0.3260141E-006  0.5252682E+03  0.7546771E-02  0.9344980E-01
        -11   -1    0    0    0    0  0.00000000000E+00  0.00000000000E+00  0.50000000000E+03  0.50000000000E+03  0.00000000000E+00 0.  1.
         11   -1    0    0    0    0 -0.00000000000E+00 -0.00000000000E+00 -0.50000000000E+03  0.50000000000E+03  0.00000000000E+00 0.  1.
         23    2    1    2    0    0 -0.11009467124E+03 -0.94135343320E+01  0.23343625062E+03  0.27666224807E+03  0.99197102464E+02 0.  0.
        -11    1    1    2    0    0  0.35506651358E+02 -0.11068811014E+03  0.21975519820E+03  0.24860596765E+03  0.00000000000E+00 0.  1.
         11    1    1    2    0    0  0.74588019886E+02  0.12010164447E+03 -0.45319144883E+03  0.47473178428E+03  0.00000000000E+00 0.  1.
        -15    1    3    3    0    0 -0.12478969654E+03  0.18144423501E+01  0.22246090011E+03  0.25508384969E+03  0.17770000000E+01 0.  1.
         15    1    3    3    0    0  0.14695025299E+02 -0.11227976682E+02  0.10975350514E+02  0.21578398384E+02  0.17770000000E+01 0. -1.
</event>
<event>
 7    1  0.3260141E-006  0.5409839E+03  0.7546771E-02  0.9312504E-01
        -11   -1    0    0    0    0  0.00000000000E+00  0.00000000000E+00  0.50000000000E+03  0.50000000000E+03  0.00000000000E+00 0.  1.
         11   -1    0    0    0    0 -0.00000000000E+00 -0.00000000000E+00 -0.50000000000E+03  0.50000000000E+03  0.00000000000E+00 0. -1.
         23    2    1    2    0    0 -0.51134964203E+02 -0.13932819036E+03 -0.89512832557E+02  0.19482368560E+03  0.88975232989E+02 0.  0.
        -11    1    1    2    0    0 -0.50879296431E+02  0.18454033703E+03  0.41719535003E+03  0.45901612050E+03  0.00000000000E+00 0.  1.
         11    1    1    2    0    0  0.10201426063E+03 -0.45212146670E+02 -0.32768251747E+03  0.34616019389E+03  0.00000000000E+00 0. -1.
        -15    1    3    3    0    0 -0.37935433297E+02 -0.46065470247E+02 -0.80446597670E+02  0.10017952612E+03  0.17770000000E+01 0. -1.
         15    1    3    3    0    0 -0.13199530906E+02 -0.93262720115E+02 -0.90662348866E+01  0.94644159479E+02  0.17770000000E+01 0.  1.
</event>
<event>
 7    1  0.3260141E-006  0.5332572E+03  0.7546771E-02  0.9328322E-01
        -11   -1    0    0    0    0  0.00000000000E+00  0.00000000000E+00  0.50000000000E+03  0.50000000000E+03  0.00000000000E+00 0.  1.
         11   -1    0    0    0    0 -0.00000000000E+00 -0.00000000000E+00 -0.50000000000E+03  0.50000000000E+03  0.00000000000E+00 0. -1.
         23    2    1    2    0    0 -0.12526205987E+03  0.15243021854E+02 -0.14699083174E+03  0.21781870604E+03  0.99577862624E+02 0.  0.
        -11    1    1    2    0    0  0.95939591578E+02 -0.14377490420E+03  0.43355878067E+03  0.46674280348E+03  0.00000000000E+00 0.  1.
         11    1    1    2    0    0  0.29322468295E+02  0.12853188235E+03 -0.28656794892E+03  0.31543849048E+03  0.00000000000E+00 0. -1.
        -15    1    3    3    0    0 -0.96253820453E+02 -0.14823134482E+02 -0.44427351680E+02  0.10705825785E+03  0.17770000000E+01 0.  1.
         15    1    3    3    0    0 -0.29008239420E+02  0.30066156336E+02 -0.10256348006E+03  0.11076044819E+03  0.17770000000E+01 0. -1.
</event>
<event>
 7    1  0.3260141E-006  0.4287226E+03  0.7546771E-02  0.9575146E-01
        -11   -1    0    0    0    0  0.00000000000E+00  0.00000000000E+00  0.50000000000E+03  0.50000000000E+03  0.00000000000E+00 0. -1.
         11   -1    0    0    0    0 -0.00000000000E+00 -0.00000000000E+00 -0.50000000000E+03  0.50000000000E+03  0.00000000000E+00 0.  1.
         23    2    1    2    0    0  0.77342248273E+02 -0.50791374511E+02  0.20809511885E+02  0.13732580298E+03  0.99316430097E+02 0.  0.
        -11    1    1    2    0    0 -0.15378266675E+03  0.44285545301E+02  0.40214552663E+03  0.43281790941E+03  0.00000000000E+00 0. -1.
         11    1    1    2    0    0  0.76440418481E+02  0.65058292093E+01 -0.42295503852E+03  0.42985628761E+03  0.00000000000E+00 0.  1.
        -15    1    3    3    0    0  0.32880621775E+02  0.24685838124E+02  0.27431135104E+02  0.49458576549E+02  0.17770000000E+01 0. -1.
         15    1    3    3    0    0  0.44461626498E+02 -0.75477212635E+02 -0.66216232185E+01  0.87867226433E+02  0.17770000000E+01 0.  1.
</event>
<event>
 7    1  0.3260141E-006  0.4154072E+03  0.7546771E-02  0.9611942E-01
        -11   -1    0    0    0    0  0.00000000000E+00  0.00000000000E+00  0.50000000000E+03  0.50000000000E+03  0.00000000000E+00 0.  1.
         11   -1    0    0    0    0 -0.00000000000E+00 -0.00000000000E+00 -0.50000000000E+03  0.50000000000E+03  0.00000000000E+00 0.  1.
         23    2    1    2    0    0  0.58805600423E+02  0.72005393915E+02  0.91932464598E+02  0.15896079269E+03  0.90410619793E+02 0.  0.
        -11    1    1    2    0    0  0.23210101712E+02 -0.14645131598E+03  0.35281428952E+03  0.38270696318E+03  0.00000000000E+00 0.  1.
         11    1    1    2    0    0 -0.82015702135E+02  0.74445922069E+02 -0.44474675412E+03  0.45833224413E+03  0.00000000000E+00 0.  1.
        -15    1    3    3    0    0  0.41739149116E+02  0.78427564728E+02  0.29088216465E+02  0.93500382589E+02  0.17770000000E+01 0.  1.
         15    1    3    3    0    0  0.17066451308E+02 -0.64221708133E+01  0.62844248132E+02  0.65460410100E+02  0.17770000000E+01 0. -1.
</event>
<event>
 7    1  0.3260141E-006  0.5063645E+03  0.7546771E-02  0.9385680E-01
        -11   -1    0    0    0    0  0.00000000000E+00  0.00000000000E+00  0.50000000000E+03  0.50000000000E+03  0.00000000000E+00 0. -1.
         11   -1    0    0    0    0 -0.00000000000E+00 -0.00000000000E+00 -0.50000000000E+03  0.50000000000E+03  0.00000000000E+00 0. -1.
         23    2    1    2    0    0  0.67972896138E+02  0.12260770987E+03 -0.31346789298E+03  0.35528568579E+03  0.91174741371E+02 0.  0.
        -11    1    1    2    0    0 -0.79096135384E+02 -0.17875723047E+03  0.45328318804E+03  0.49363548762E+03  0.00000000000E+00 0. -1.
         11    1    1    2    0    0  0.11123239246E+02  0.56149520600E+02 -0.13981529505E+03  0.15107882660E+03  0.00000000000E+00 0. -1.
        -15    1    3    3    0    0 -0.10519298149E+02  0.34251601323E+02 -0.25530000238E+02  0.44031425912E+02  0.17770000000E+01 0.  1.
         15    1    3    3    0    0  0.78492194287E+02  0.88356108544E+02 -0.28793789275E+03  0.31125425987E+03  0.17770000000E+01 0. -1.
</event>
<event>
 7    1  0.3260141E-006  0.5302497E+03  0.7546771E-02  0.9334557E-01
        -11   -1    0    0    0    0  0.00000000000E+00  0.00000000000E+00  0.50000000000E+03  0.50000000000E+03  0.00000000000E+00 0. -1.
         11   -1    0    0    0    0 -0.00000000000E+00 -0.00000000000E+00 -0.50000000000E+03  0.50000000000E+03  0.00000000000E+00 0.  1.
         23    2    1    2    0    0 -0.20541716447E+03 -0.51541578586E+02 -0.10892685835E+03  0.25519374759E+03  0.91684472824E+02 0.  0.
        -11    1    1    2    0    0  0.26475791442E+03  0.20343385965E+03  0.33042893809E+03  0.46975032904E+03  0.00000000000E+00 0. -1.
         11    1    1    2    0    0 -0.59340749955E+02 -0.15189228106E+03 -0.22150207975E+03  0.27505592337E+03  0.00000000000E+00 0.  1.
        -15    1    3    3    0    0 -0.20045747105E+03 -0.24407548217E+02 -0.86897582943E+02  0.21984829715E+03  0.17770000000E+01 0.  1.
         15    1    3    3    0    0 -0.49596934218E+01 -0.27134030370E+02 -0.22029275406E+02  0.35345450441E+02  0.17770000000E+01 0. -1.
</event>
<event>
 7    1  0.3260141E-006  0.3547033E+03  0.7546771E-02  0.9800603E-01
        -11   -1    0    0    0    0  0.00000000000E+00  0.00000000000E+00  0.50000000000E+03  0.50000000000E+03  0.00000000000E+00 0. -1.
         11   -1    0    0    0    0 -0.00000000000E+00 -0.00000000000E+00 -0.50000000000E+03  0.50000000000E+03  0.00000000000E+00 0. -1.
         23    2    1    2    0    0 -0.59387778844E+01  0.22113941998E+03 -0.57889290338E+02  0.25464979997E+03  0.11205997740E+03 0.  0.
        -11    1    1    2    0    0  0.11149970128E+02 -0.15098570886E+03  0.38346050727E+03  0.41226565070E+03  0.00000000000E+00 0. -1.
         11    1    1    2    0    0 -0.52111922436E+01 -0.70153711121E+02 -0.32557121693E+03  0.33308454933E+03  0.00000000000E+00 0. -1.
        -15    1    3    3    0    0  0.18987782634E+02  0.21955333285E+03 -0.40262501202E+02  0.22402774067E+03  0.17770000000E+01 0.  1.
         15    1    3    3    0    0 -0.24926560519E+02  0.15860871288E+01 -0.17626789136E+02  0.30622059302E+02  0.17770000000E+01 0. -1.
</event>
<event>
 7    1  0.3260141E-006  0.5141368E+03  0.7546771E-02  0.9368721E-01
        -11   -1    0    0    0    0  0.00000000000E+00  0.00000000000E+00  0.50000000000E+03  0.50000000000E+03  0.00000000000E+00 0. -1.
         11   -1    0    0    0    0 -0.00000000000E+00 -0.00000000000E+00 -0.50000000000E+03  0.50000000000E+03  0.00000000000E+00 0.  1.
         23    2    1    2    0    0 -0.11639872154E+02  0.66773366977E+02 -0.24162497359E+03  0.26644083994E+03  0.89520523705E+02 0.  0.
        -11    1    1    2    0    0  0.10051507718E+03 -0.52835450984E+02  0.47240676719E+03  0.48586316932E+03  0.00000000000E+00 0. -1.
         11    1    1    2    0    0 -0.88875205024E+02 -0.13937915994E+02 -0.23078179360E+03  0.24769599074E+03  0.00000000000E+00 0.  1.
        -15    1    3    3    0    0  0.67980736697E+01 -0.15598853876E+02 -0.10083402854E+03  0.10227510493E+03  0.17770000000E+01 0. -1.
         15    1    3    3    0    0 -0.18437945824E+02  0.82372220853E+02 -0.14079094505E+03  0.16416573501E+03  0.17770000000E+01 0.  1.
</event>
<event>
 7    1  0.3260141E-006  0.5121295E+03  0.7546771E-02  0.9373071E-01
        -11   -1    0    0    0    0  0.00000000000E+00  0.00000000000E+00  0.50000000000E+03  0.50000000000E+03  0.00000000000E+00 0. -1.
         11   -1    0    0    0    0 -0.00000000000E+00 -0.00000000000E+00 -0.50000000000E+03  0.50000000000E+03  0.00000000000E+00 0.  1.
         23    2    1    2    0    0 -0.12520245585E+03 -0.64516606314E+01 -0.23578517852E+03  0.28873208699E+03  0.10979202507E+03 0.  0.
        -11    1    1    2    0    0  0.21755091678E+03  0.56004216021E+02  0.43307359070E+03  0.48787048339E+03  0.00000000000E+00 0. -1.
         11    1    1    2    0    0 -0.92348460937E+02 -0.49552555390E+02 -0.19728841217E+03  0.22339742962E+03  0.00000000000E+00 0.  1.
        -15    1    3    3    0    0 -0.96712641404E+02 -0.36294856823E+02 -0.89370684140E+02  0.13660500925E+03  0.17770000000E+01 0. -1.
         15    1    3    3    0    0 -0.28489814443E+02  0.29843196191E+02 -0.14641449438E+03  0.15212707774E+03  0.17770000000E+01 0.  1.
</event>
<event>
 7    1  0.3260141E-006  0.4661976E+03  0.7546771E-02  0.9478793E-01
        -11   -1    0    0    0    0  0.00000000000E+00  0.00000000000E+00  0.50000000000E+03  0.50000000000E+03  0.00000000000E+00 0. -1.
         11   -1    0    0    0    0 -0.00000000000E+00 -0.00000000000E+00 -0.50000000000E+03  0.50000000000E+03  0.00000000000E+00 0. -1.
         23    2    1    2    0    0  0.29040341368E+02  0.10104158085E+02  0.47407376886E+03  0.48380700910E+03  0.91530586673E+02 0.  0.
        -11    1    1    2    0    0  0.56709641748E+02  0.22788371527E+02 -0.41256349818E+02  0.73738590605E+02  0.00000000000E+00 0. -1.
         11    1    1    2    0    0 -0.85749983116E+02 -0.32892529612E+02 -0.43281741904E+03  0.44245440029E+03  0.00000000000E+00 0. -1.
        -15    1    3    3    0    0 -0.72321974290E+01 -0.35870165614E+02  0.14486067269E+03  0.14942136957E+03  0.17770000000E+01 0. -1.
         15    1    3    3    0    0  0.36272538797E+02  0.45974323699E+02  0.32921309617E+03  0.33438563954E+03  0.17770000000E+01 0.  1.
</event>
<event>
 7    1  0.3260141E-006  0.5275493E+03  0.7546771E-02  0.9340192E-01
        -11   -1    0    0    0    0  0.00000000000E+00  0.00000000000E+00  0.50000000000E+03  0.50000000000E+03  0.00000000000E+00 0. -1.
         11   -1    0    0    0    0 -0.00000000000E+00 -0.00000000000E+00 -0.50000000000E+03  0.50000000000E+03  0.00000000000E+00 0.  1.
         23    2    1    2    0    0 -0.67534170437E+02  0.21789888678E+02  0.11823221945E+03  0.16479471149E+03  0.90237330386E+02 0.  0.
        -11    1    1    2    0    0  0.16670269408E+02 -0.12595568038E+03  0.33977658093E+03  0.36275453995E+03  0.00000000000E+00 0. -1.
         11    1    1    2    0    0  0.50863901028E+02  0.10416579170E+03 -0.45800880038E+03  0.47245074856E+03  0.00000000000E+00 0.  1.
        -15    1    3    3    0    0 -0.39498172884E+02  0.34249648869E+01 -0.22256447926E+01  0.39748550532E+02  0.17770000000E+01 0.  1.
         15    1    3    3    0    0 -0.28035997553E+02  0.18364923791E+02  0.12045786424E+03  0.12504616096E+03  0.17770000000E+01 0. -1.
</event>
<event>
 7    1  0.3260141E-006  0.3323225E+03  0.7546771E-02  0.9880655E-01
        -11   -1    0    0    0    0  0.00000000000E+00  0.00000000000E+00  0.50000000000E+03  0.50000000000E+03  0.00000000000E+00 0. -1.
         11   -1    0    0    0    0 -0.00000000000E+00 -0.00000000000E+00 -0.50000000000E+03  0.50000000000E+03  0.00000000000E+00 0. -1.
         23    2    1    2    0    0 -0.14950675768E+01 -0.71783546368E+02  0.25838325164E+03  0.28329218862E+03  0.91309619682E+02 0.  0.
        -11    1    1    2    0    0  0.15711937825E+02  0.29502115907E+03  0.84522239076E+02  0.30729197547E+03  0.00000000000E+00 0. -1.
         11    1    1    2    0    0 -0.14216870248E+02 -0.22323761271E+03 -0.34290549072E+03  0.40941583591E+03  0.00000000000E+00 0. -1.
        -15    1    3    3    0    0 -0.37316818269E+02 -0.67714054870E+02  0.20249903795E+03  0.21676428731E+03  0.17770000000E+01 0. -1.
         15    1    3    3    0    0  0.35821750692E+02 -0.40694914984E+01  0.55884213695E+02  0.66527901312E+02  0.17770000000E+01 0.  1.
</event>
<event>
 7    1  0.3260141E-006  0.4480458E+03  0.7546771E-02  0.9524209E-01
        -11   -1    0    0    0    0  0.00000000000E+00  0.00000000000E+00  0.50000000000E+03  0.50000000000E+03  0.00000000000E+00 0.  1.
         11   -1    0    0    0    0 -0.00000000000E+00 -0.00000000000E+00 -0.50000000000E+03  0.50000000000E+03  0.00000000000E+00 0. -1.
         23    2    1    2    0    0 -0.26217019963E+02 -0.15102704587E+03  0.38237923173E+03  0.42908334686E+03  0.12000892040E+03 0.  0.
        -11    1    1    2    0    0 -0.43738530225E+02  0.81677402277E+02  0.64769929167E+02  0.11304601184E+03  0.00000000000E+00 0.  1.
         11    1    1    2    0    0  0.69955550188E+02  0.69349643596E+02 -0.44714916090E+03  0.45787064130E+03  0.00000000000E+00 0. -1.
        -15    1    3    3    0    0 -0.35212329920E+02 -0.10798159930E+03  0.36413386654E+03  0.38144011910E+03  0.17770000000E+01 0.  1.
         15    1    3    3    0    0  0.89953099577E+01 -0.43045446574E+02  0.18245365189E+02  0.47643227765E+02  0.17770000000E+01 0. -1.
</event>
<event>
 7    1  0.3260141E-006  0.5407466E+03  0.7546771E-02  0.9312985E-01
        -11   -1    0    0    0    0  0.00000000000E+00  0.00000000000E+00  0.50000000000E+03  0.50000000000E+03  0.00000000000E+00 0. -1.
         11   -1    0    0    0    0 -0.00000000000E+00 -0.00000000000E+00 -0.50000000000E+03  0.50000000000E+03  0.00000000000E+00 0.  1.
         23    2    1    2    0    0  0.66276116184E+02  0.81572476382E+02  0.22778188465E+03  0.26640420238E+03  0.89666156340E+02 0.  0.
        -11    1    1    2    0    0 -0.32380388619E+01 -0.16454800928E+03  0.21949311952E+03  0.27434241701E+03  0.00000000000E+00 0. -1.
         11    1    1    2    0    0 -0.63038077322E+02  0.82975532894E+02 -0.44727500417E+03  0.45925338061E+03  0.00000000000E+00 0.  1.
        -15    1    3    3    0    0  0.14853109574E+02  0.32901776747E+02  0.10155020161E+02  0.37542295356E+02  0.17770000000E+01 0.  1.
         15    1    3    3    0    0  0.51423006610E+02  0.48670699635E+02  0.21762686449E+03  0.22886190702E+03  0.17770000000E+01 0. -1.
</event>
<event>
 7    1  0.3260141E-006  0.4243719E+03  0.7546771E-02  0.9587010E-01
        -11   -1    0    0    0    0  0.00000000000E+00  0.00000000000E+00  0.50000000000E+03  0.50000000000E+03  0.00000000000E+00 0. -1.
         11   -1    0    0    0    0 -0.00000000000E+00 -0.00000000000E+00 -0.50000000000E+03  0.50000000000E+03  0.00000000000E+00 0.  1.
         23    2    1    2    0    0  0.34281538899E+02 -0.58452128259E+02 -0.88299354515E+02  0.14398903630E+03  0.91346545412E+02 0.  0.
        -11    1    1    2    0    0  0.67219247194E+02 -0.79841887764E+02  0.44666831778E+03  0.45870005487E+03  0.00000000000E+00 0. -1.
         11    1    1    2    0    0 -0.10150078609E+03  0.13829401602E+03 -0.35836896326E+03  0.39731090883E+03  0.00000000000E+00 0.  1.
        -15    1    3    3    0    0 -0.18144907198E+02 -0.31120286837E+02 -0.75205612164E+02  0.83407144418E+02  0.17770000000E+01 0. -1.
         15    1    3    3    0    0  0.52426446097E+02 -0.27331841423E+02 -0.13093742351E+02  0.60581891879E+02  0.17770000000E+01 0.  1.
</event>
<event>
 7    1  0.3260141E-006  0.5155818E+03  0.7546771E-02  0.9365604E-01
        -11   -1    0    0    0    0  0.00000000000E+00  0.00000000000E+00  0.50000000000E+03  0.50000000000E+03  0.00000000000E+00 0.  1.
         11   -1    0    0    0    0 -0.00000000000E+00 -0.00000000000E+00 -0.50000000000E+03  0.50000000000E+03  0.00000000000E+00 0. -1.
         23    2    1    2    0    0 -0.29196017121E+02 -0.77497848568E+02 -0.23812477822E+03  0.26661544277E+03  0.86729812483E+02 0.  0.
        -11    1    1    2    0    0 -0.53333145774E+02  0.20353081649E+03  0.43633902869E+03  0.48441817231E+03  0.00000000000E+00 0.  1.
         11    1    1    2    0    0  0.82529162895E+02 -0.12603296793E+03 -0.19821425047E+03  0.24896638493E+03  0.00000000000E+00 0. -1.
        -15    1    3    3    0    0  0.31067302036E+02 -0.27692607931E+02 -0.78734952706E+02  0.89075295657E+02  0.17770000000E+01 0.  1.
         15    1    3    3    0    0 -0.60263319157E+02 -0.49805240637E+02 -0.15938982551E+03  0.17754014711E+03  0.17770000000E+01 0. -1.
</event>
<event>
 7    1  0.3260141E-006  0.5258321E+03  0.7546771E-02  0.9343794E-01
        -11   -1    0    0    0    0  0.00000000000E+00  0.00000000000E+00  0.50000000000E+03  0.50000000000E+03  0.00000000000E+00 0. -1.
         11   -1    0    0    0    0 -0.00000000000E+00 -0.00000000000E+00 -0.50000000000E+03  0.50000000000E+03  0.00000000000E+00 0. -1.
         23    2    1    2    0    0  0.13012989934E+03  0.45948984844E+01  0.34546957944E+03  0.38036402294E+03  0.91502217648E+02 0.  0.
        -11    1    1    2    0    0 -0.52518624031E+02 -0.66616251128E+02  0.11817368370E+03  0.14546803877E+03  0.00000000000E+00 0. -1.
         11    1    1    2    0    0 -0.77611275308E+02  0.62021352643E+02 -0.46364326314E+03  0.47416793829E+03  0.00000000000E+00 0. -1.
        -15    1    3    3    0    0  0.93780254769E+02  0.27988381285E+02  0.30783389397E+03  0.32302159321E+03  0.17770000000E+01 0. -1.
         15    1    3    3    0    0  0.36349644570E+02 -0.23393482801E+02  0.37635685468E+02  0.57342429732E+02  0.17770000000E+01 0.  1.
</event>
<event>
 7    1  0.3260141E-006  0.5268280E+03  0.7546771E-02  0.9341703E-01
        -11   -1    0    0    0    0  0.00000000000E+00  0.00000000000E+00  0.50000000000E+03  0.50000000000E+03  0.00000000000E+00 0.  1.
         11   -1    0    0    0    0 -0.00000000000E+00 -0.00000000000E+00 -0.50000000000E+03  0.50000000000E+03  0.00000000000E+00 0.  1.
         23    2    1    2    0    0 -0.26686471130E+02 -0.16938470715E+02  0.13350797641E+03  0.16525309188E+03  0.92114738662E+02 0.  0.
        -11    1    1    2    0    0  0.17096416502E+03  0.33642530164E+02  0.31682150409E+03  0.36157493139E+03  0.00000000000E+00 0.  1.
         11    1    1    2    0    0 -0.14427769389E+03 -0.16704059449E+02 -0.45032948050E+03  0.47317197673E+03  0.00000000000E+00 0.  1.
        -15    1    3    3    0    0 -0.54142620664E+02 -0.80887525683E+01  0.41233050925E+02  0.68557811430E+02  0.17770000000E+01 0. -1.
         15    1    3    3    0    0  0.27456149534E+02 -0.88497181470E+01  0.92274925490E+02  0.96695280452E+02  0.17770000000E+01 0.  1.
</event>
<event>
 7    1  0.3260141E-006  0.3992926E+03  0.7546771E-02  0.9658493E-01
        -11   -1    0    0    0    0  0.00000000000E+00  0.00000000000E+00  0.50000000000E+03  0.50000000000E+03  0.00000000000E+00 0.  1.
         11   -1    0    0    0    0 -0.00000000000E+00 -0.00000000000E+00 -0.50000000000E+03  0.50000000000E+03  0.00000000000E+00 0. -1.
         23    2    1    2    0    0 -0.25328504869E+01  0.11109946537E+03  0.11335458280E+03  0.18579046851E+03  0.96536678067E+02 0.  0.
        -11    1    1    2    0    0 -0.57517868388E+02 -0.19828265608E+03  0.31297282314E+03  0.37493506759E+03  0.00000000000E+00 0.  1.
         11    1    1    2    0    0  0.60050718875E+02  0.87183190708E+02 -0.42632740594E+03  0.43927446390E+03  0.00000000000E+00 0. -1.
        -15    1    3    3    0    0 -0.78747210395E+01  0.12207203531E+03  0.12034959910E+03  0.17161228618E+03  0.17770000000E+01 0.  1.
         15    1    3    3    0    0  0.53418705526E+01 -0.10972569943E+02 -0.69950163001E+01  0.14178182331E+02  0.17770000000E+01 0. -1.
</event>
<event>
 7    1  0.3260141E-006  0.5322767E+03  0.7546771E-02  0.9330350E-01
        -11   -1    0    0    0    0  0.00000000000E+00  0.00000000000E+00  0.50000000000E+03  0.50000000000E+03  0.00000000000E+00 0. -1.
         11   -1    0    0    0    0 -0.00000000000E+00 -0.00000000000E+00 -0.50000000000E+03  0.50000000000E+03  0.00000000000E+00 0. -1.
         23    2    1    2    0    0 -0.39617037259E+02 -0.26281990332E+02 -0.13271341813E+03  0.16777360419E+03  0.90966357821E+02 0.  0.
        -11    1    1    2    0    0 -0.13938311117E+03 -0.27726218884E+02  0.44561047121E+03  0.46772330169E+03  0.00000000000E+00 0. -1.
         11    1    1    2    0    0  0.17900014843E+03  0.54008209216E+02 -0.31289705307E+03  0.36450309412E+03  0.00000000000E+00 0. -1.
        -15    1    3    3    0    0 -0.40285594825E+02 -0.48595249431E+02 -0.45764049162E+02  0.77986751069E+02  0.17770000000E+01 0.  1.
         15    1    3    3    0    0  0.66855756626E+00  0.22313259099E+02 -0.86949368970E+02  0.89786853125E+02  0.17770000000E+01 0. -1.
</event>
<event>
 7    1  0.3260141E-006  0.5221973E+03  0.7546771E-02  0.9351467E-01
        -11   -1    0    0    0    0  0.00000000000E+00  0.00000000000E+00  0.50000000000E+03  0.50000000000E+03  0.00000000000E+00 0.  1.
         11   -1    0    0    0    0 -0.00000000000E+00 -0.00000000000E+00 -0.50000000000E+03  0.50000000000E+03  0.00000000000E+00 0.  1.
         23    2    1    2    0    0 -0.15481742540E+02 -0.24335378650E+01  0.95324213210E+02  0.13488854009E+03  0.94141415782E+02 0.  0.
        -11    1    1    2    0    0  0.74508394007E+02  0.59942864024E+02  0.37531781002E+03  0.38730879959E+03  0.00000000000E+00 0.  1.
         11    1    1    2    0    0 -0.59026651466E+02 -0.57509326159E+02 -0.47064202323E+03  0.47780266032E+03  0.00000000000E+00 0.  1.
        -15    1    3    3    0    0 -0.46170697520E+02 -0.21465794901E+02  0.27174074796E+02  0.57741681048E+02  0.17770000000E+01 0. -1.
         15    1    3    3    0    0  0.30688954979E+02  0.19032257036E+02  0.68150138413E+02  0.77146859044E+02  0.17770000000E+01 0.  1.
</event>
<event>
 7    1  0.3260141E-006  0.5223562E+03  0.7546771E-02  0.9351130E-01
        -11   -1    0    0    0    0  0.00000000000E+00  0.00000000000E+00  0.50000000000E+03  0.50000000000E+03  0.00000000000E+00 0.  1.
         11   -1    0    0    0    0 -0.00000000000E+00 -0.00000000000E+00 -0.50000000000E+03  0.50000000000E+03  0.00000000000E+00 0. -1.
         23    2    1    2    0    0  0.62510240301E+02 -0.44705102980E+02  0.37408028543E+03  0.39231857929E+03  0.89842814599E+02 0.  0.
        -11    1    1    2    0    0 -0.77061889410E+02 -0.44091740145E+02  0.95011376581E+02  0.13003760236E+03  0.00000000000E+00 0.  1.
         11    1    1    2    0    0  0.14551649109E+02  0.88796843125E+02 -0.46909166201E+03  0.47764381835E+03  0.00000000000E+00 0. -1.
        -15    1    3    3    0    0  0.67903727899E+02 -0.57246556311E+02  0.36540062034E+03  0.37604368835E+03  0.17770000000E+01 0.  1.
         15    1    3    3    0    0 -0.53934875978E+01  0.12541453332E+02  0.86796650872E+01  0.16274890942E+02  0.17770000000E+01 0. -1.
</event>
<event>
 7    1  0.3260141E-006  0.5336019E+03  0.7546771E-02  0.9327611E-01
        -11   -1    0    0    0    0  0.00000000000E+00  0.00000000000E+00  0.50000000000E+03  0.50000000000E+03  0.00000000000E+00 0.  1.
         11   -1    0    0    0    0 -0.00000000000E+00 -0.00000000000E+00 -0.50000000000E+03  0.50000000000E+03  0.00000000000E+00 0. -1.
         23    2    1    2    0    0  0.23622252637E+03 -0.22753692630E+02 -0.14627545839E+03  0.29314804872E+03  0.90666731749E+02 0.  0.
        -11    1    1    2    0    0 -0.28080249886E+03 -0.60317171465E+02  0.36747651705E+03  0.46639810797E+03  0.00000000000E+00 0.  1.
         11    1    1    2    0    0  0.44579972487E+02  0.83070864095E+02 -0.22120105866E+03  0.24045384331E+03  0.00000000000E+00 0. -1.
        -15    1    3    3    0    0  0.27743527766E+02  0.24623063492E+02 -0.39322426253E+02  0.54087055051E+02  0.17770000000E+01 0. -1.
         15    1    3    3    0    0  0.20847899861E+03 -0.47376756123E+02 -0.10695303213E+03  0.23906099367E+03  0.17770000000E+01 0.  1.
</event>
<event>
 7    1  0.3260141E-006  0.4875970E+03  0.7546771E-02  0.9427998E-01
        -11   -1    0    0    0    0  0.00000000000E+00  0.00000000000E+00  0.50000000000E+03  0.50000000000E+03  0.00000000000E+00 0.  1.
         11   -1    0    0    0    0 -0.00000000000E+00 -0.00000000000E+00 -0.50000000000E+03  0.50000000000E+03  0.00000000000E+00 0. -1.
         23    2    1    2    0    0  0.18111266783E+03 -0.15509637695E+03  0.40507116028E+03  0.47884464503E+03  0.91394007391E+02 0.  0.
        -11    1    1    2    0    0  0.39004985508E+01 -0.32061879677E+02  0.62029755157E+01  0.32888522658E+02  0.00000000000E+00 0.  1.
         11    1    1    2    0    0 -0.18501316638E+03  0.18715825663E+03 -0.41127413580E+03  0.48826683231E+03  0.00000000000E+00 0. -1.
        -15    1    3    3    0    0  0.12233977855E+03 -0.47417542555E+02  0.23477005206E+03  0.26895274646E+03  0.17770000000E+01 0.  1.
         15    1    3    3    0    0  0.58772889276E+02 -0.10767883440E+03  0.17030110823E+03  0.20989189857E+03  0.17770000000E+01 0. -1.
</event>
<event>
 7    1  0.3260141E-006  0.4627908E+03  0.7546771E-02  0.9487147E-01
        -11   -1    0    0    0    0  0.00000000000E+00  0.00000000000E+00  0.50000000000E+03  0.50000000000E+03  0.00000000000E+00 0. -1.
         11   -1    0    0    0    0 -0.00000000000E+00 -0.00000000000E+00 -0.50000000000E+03  0.50000000000E+03  0.00000000000E+00 0. -1.
         23    2    1    2    0    0 -0.33257705444E+03 -0.26996300063E+03  0.20306941993E+03  0.48265740245E+03  0.90738415126E+02 0.  0.
        -11    1    1    2    0    0  0.31462078035E+03  0.27677142465E+03 -0.12548773941E+03  0.43741951222E+03  0.00000000000E+00 0. -1.
         11    1    1    2    0    0  0.17956274090E+02 -0.68084240218E+01 -0.77581680519E+02  0.79923085332E+02  0.00000000000E+00 0. -1.
        -15    1    3    3    0    0 -0.13690194823E+02  0.45858115398E+01 -0.17678861707E+01  0.14653813575E+02  0.17770000000E+01 0.  1.
         15    1    3    3    0    0 -0.31888685961E+03 -0.27454881217E+03  0.20483730610E+03  0.46800358887E+03  0.17770000000E+01 0. -1.
</event>
<event>
 7    1  0.3260141E-006  0.5196996E+03  0.7546771E-02  0.9356778E-01
        -11   -1    0    0    0    0  0.00000000000E+00  0.00000000000E+00  0.50000000000E+03  0.50000000000E+03  0.00000000000E+00 0.  1.
         11   -1    0    0    0    0 -0.00000000000E+00 -0.00000000000E+00 -0.50000000000E+03  0.50000000000E+03  0.00000000000E+00 0.  1.
         23    2    1    2    0    0 -0.25913827287E+02 -0.23336003175E+02  0.32542292578E+03  0.33904341923E+03  0.88511377879E+02 0.  0.
        -11    1    1    2    0    0  0.98222213222E+02 -0.46930575056E+02  0.14417543838E+03  0.18065613490E+03  0.00000000000E+00 0.  1.
         11    1    1    2    0    0 -0.72308385935E+02  0.70266578231E+02 -0.46959836415E+03  0.48030044587E+03  0.00000000000E+00 0.  1.
        -15    1    3    3    0    0  0.20238661101E+02  0.20193668154E+02  0.14448802980E+03  0.14730015656E+03  0.17770000000E+01 0. -1.
         15    1    3    3    0    0 -0.46152488388E+02 -0.43529671329E+02  0.18093489597E+03  0.19174326267E+03  0.17770000000E+01 0.  1.
</event>
<event>
 7    1  0.4084849E-006  0.5281587E+03  0.7546771E-02  0.9338917E-01
        -11   -1    0    0    0    0  0.00000000000E+00  0.00000000000E+00  0.50000000000E+03  0.50000000000E+03  0.00000000000E+00 0. -1.
         11   -1    0    0    0    0 -0.00000000000E+00 -0.00000000000E+00 -0.50000000000E+03  0.50000000000E+03  0.00000000000E+00 0. -1.
         23    2    1    2    0    0 -0.11966204731E+03  0.39027789863E+02 -0.13538826522E+03  0.20103027796E+03  0.79000103475E+02 0.  0.
        -11    1    1    2    0    0  0.11254162202E+03  0.14762651786E+02  0.45798540319E+03  0.47184126792E+03  0.00000000000E+00 0. -1.
         11    1    1    2    0    0  0.71204252915E+01 -0.53790441649E+02 -0.32259713797E+03  0.32712845412E+03  0.00000000000E+00 0. -1.
        -15    1    3    3    0    0 -0.79757050250E+02 -0.11261323838E+02 -0.52460603979E+02  0.96141963669E+02  0.17770000000E+01 0.  1.
         15    1    3    3    0    0 -0.39904997064E+02  0.50289113700E+02 -0.82927661239E+02  0.10488831429E+03  0.17770000000E+01 0. -1.
</event>
<event>
 7    1  0.3260141E-006  0.4080558E+03  0.7546771E-02  0.9632893E-01
        -11   -1    0    0    0    0  0.00000000000E+00  0.00000000000E+00  0.50000000000E+03  0.50000000000E+03  0.00000000000E+00 0. -1.
         11   -1    0    0    0    0 -0.00000000000E+00 -0.00000000000E+00 -0.50000000000E+03  0.50000000000E+03  0.00000000000E+00 0.  1.
         23    2    1    2    0    0  0.99364122969E+02 -0.67358571054E+02  0.79131461217E+02  0.17132007988E+03  0.93157799390E+02 0.  0.
        -11    1    1    2    0    0 -0.20800132947E+03  0.14089831333E+03  0.32098099248E+03  0.40760972178E+03  0.00000000000E+00 0. -1.
         11    1    1    2    0    0  0.10863720650E+03 -0.73539742276E+02 -0.40011245369E+03  0.42107019834E+03  0.00000000000E+00 0.  1.
        -15    1    3    3    0    0  0.93007378162E+02 -0.10588192591E+02  0.38680538165E+02  0.10130066128E+03  0.17770000000E+01 0.  1.
         15    1    3    3    0    0  0.63567448068E+01 -0.56770378464E+02  0.40450923052E+02  0.70019418594E+02  0.17770000000E+01 0. -1.
</event>
<event>
 7    1  0.3260141E-006  0.5193145E+03  0.7546771E-02  0.9357600E-01
        -11   -1    0    0    0    0  0.00000000000E+00  0.00000000000E+00  0.50000000000E+03  0.50000000000E+03  0.00000000000E+00 0.  1.
         11   -1    0    0    0    0 -0.00000000000E+00 -0.00000000000E+00 -0.50000000000E+03  0.50000000000E+03  0.00000000000E+00 0. -1.
         23    2    1    2    0    0 -0.69780424009E+01 -0.53365473918E+02  0.17293686192E+03  0.20470968312E+03  0.95406128052E+02 0.  0.
        -11    1    1    2    0    0  0.99818317806E+02  0.21169907852E+02  0.29759759749E+03  0.31460481814E+03  0.00000000000E+00 0.  1.
         11    1    1    2    0    0 -0.92840275405E+02  0.32195566066E+02 -0.47053445941E+03  0.48068549874E+03  0.00000000000E+00 0. -1.
        -15    1    3    3    0    0 -0.48819147533E+02 -0.44742888699E+02  0.95028779479E+02  0.11583981143E+03  0.17770000000E+01 0.  1.
         15    1    3    3    0    0  0.41841105133E+02 -0.86225852188E+01  0.77908082439E+02  0.88869871683E+02  0.17770000000E+01 0. -1.
</event>
<event>
 7    1  0.3260141E-006  0.3483187E+03  0.7546771E-02  0.9822779E-01
        -11   -1    0    0    0    0  0.00000000000E+00  0.00000000000E+00  0.50000000000E+03  0.50000000000E+03  0.00000000000E+00 0. -1.
         11   -1    0    0    0    0 -0.00000000000E+00 -0.00000000000E+00 -0.50000000000E+03  0.50000000000E+03  0.00000000000E+00 0. -1.
         23    2    1    2    0    0  0.61361308494E+02  0.10632749521E+03  0.23175159058E+03  0.27761023161E+03  0.91037874192E+02 0.  0.
        -11    1    1    2    0    0 -0.13939905200E+03 -0.65906238437E+02  0.21639258526E+03  0.26570938809E+03  0.00000000000E+00 0. -1.
         11    1    1    2    0    0  0.78037743511E+02 -0.40421256777E+02 -0.44814417584E+03  0.45668038030E+03  0.00000000000E+00 0. -1.
        -15    1    3    3    0    0  0.30614995858E+02  0.95898731208E+02  0.99997215141E+02  0.14190294353E+03  0.17770000000E+01 0.  1.
         15    1    3    3    0    0  0.30746312636E+02  0.10428764006E+02  0.13175437544E+03  0.13570728808E+03  0.17770000000E+01 0. -1.
</event>
<event>
 7    1  0.3260141E-006  0.5326731E+03  0.7546771E-02  0.9329530E-01
        -11   -1    0    0    0    0  0.00000000000E+00  0.00000000000E+00  0.50000000000E+03  0.50000000000E+03  0.00000000000E+00 0. -1.
         11   -1    0    0    0    0 -0.00000000000E+00 -0.00000000000E+00 -0.50000000000E+03  0.50000000000E+03  0.00000000000E+00 0. -1.
         23    2    1    2    0    0  0.28726561229E+02  0.62837081417E+02  0.61413912439E+02  0.13041780294E+03  0.91996850820E+02 0.  0.
        -11    1    1    2    0    0 -0.67454081164E+02  0.26374157982E+02  0.39568125261E+03  0.40225527087E+03  0.00000000000E+00 0. -1.
         11    1    1    2    0    0  0.38727519935E+02 -0.89211239399E+02 -0.45709516505E+03  0.46732692619E+03  0.00000000000E+00 0. -1.
        -15    1    3    3    0    0  0.24797202089E+02 -0.14051651774E+02 -0.46755253715E+01  0.28937318735E+02  0.17770000000E+01 0. -1.
         15    1    3    3    0    0  0.39293591394E+01  0.76888733191E+02  0.66089437810E+02  0.10148048420E+03  0.17770000000E+01 0.  1.
</event>
<event>
 7    1  0.3260141E-006  0.5106115E+03  0.7546771E-02  0.9376374E-01
        -11   -1    0    0    0    0  0.00000000000E+00  0.00000000000E+00  0.50000000000E+03  0.50000000000E+03  0.00000000000E+00 0. -1.
         11   -1    0    0    0    0 -0.00000000000E+00 -0.00000000000E+00 -0.50000000000E+03  0.50000000000E+03  0.00000000000E+00 0.  1.
         23    2    1    2    0    0  0.12626782271E+02  0.19926972015E+01  0.23600075534E+03  0.25286205923E+03  0.89885805355E+02 0.  0.
        -11    1    1    2    0    0  0.83445155712E+02  0.54249677734E+01  0.24380781466E+03  0.25774944186E+03  0.00000000000E+00 0. -1.
         11    1    1    2    0    0 -0.96071937983E+02 -0.74176649749E+01 -0.47980857000E+03  0.48938849891E+03  0.00000000000E+00 0.  1.
        -15    1    3    3    0    0 -0.11633347530E+01  0.43297621186E+02  0.15417575817E+03  0.16015417411E+03  0.17770000000E+01 0.  1.
         15    1    3    3    0    0  0.13790117024E+02 -0.41304923984E+02  0.81824997172E+02  0.92707885124E+02  0.17770000000E+01 0. -1.
</event>
<event>
 7    1  0.3260141E-006  0.5265177E+03  0.7546771E-02  0.9342354E-01
        -11   -1    0    0    0    0  0.00000000000E+00  0.00000000000E+00  0.50000000000E+03  0.50000000000E+03  0.00000000000E+00 0.  1.
         11   -1    0    0    0    0 -0.00000000000E+00 -0.00000000000E+00 -0.50000000000E+03  0.50000000000E+03  0.00000000000E+00 0.  1.
         23    2    1    2    0    0  0.90012872321E+02  0.11295864356E+03 -0.27227493175E+03  0.32177375360E+03  0.92426931753E+02 0.  0.
        -11    1    1    2    0    0 -0.56408630610E+02 -0.57748877210E+02  0.46654974342E+03  0.47348234340E+03  0.00000000000E+00 0.  1.
         11    1    1    2    0    0 -0.33604241712E+02 -0.55209766350E+02 -0.19427481168E+03  0.20474390299E+03  0.00000000000E+00 0.  1.
        -15    1    3    3    0    0  0.15482814608E+02  0.43743897082E+02 -0.17487612991E+03  0.18093663150E+03  0.17770000000E+01 0.  1.
         15    1    3    3    0    0  0.74530057714E+02  0.69214746477E+02 -0.97398801840E+02  0.14083712210E+03  0.17770000000E+01 0. -1.
</event>
<event>
 7    1  0.3260141E-006  0.4468390E+03  0.7546771E-02  0.9527309E-01
        -11   -1    0    0    0    0  0.00000000000E+00  0.00000000000E+00  0.50000000000E+03  0.50000000000E+03  0.00000000000E+00 0. -1.
         11   -1    0    0    0    0 -0.00000000000E+00 -0.00000000000E+00 -0.50000000000E+03  0.50000000000E+03  0.00000000000E+00 0. -1.
         23    2    1    2    0    0 -0.12534836936E+03 -0.54443787930E+02  0.39524033912E+03  0.42664085440E+03  0.84446155792E+02 0.  0.
        -11    1    1    2    0    0  0.84860883522E+02 -0.24962110097E+02  0.61672942111E+02  0.10783333567E+03  0.00000000000E+00 0. -1.
         11    1    1    2    0    0  0.40487485833E+02  0.79405898027E+02 -0.45691328123E+03  0.46552580994E+03  0.00000000000E+00 0. -1.
        -15    1    3    3    0    0 -0.62661074553E+02 -0.51378906625E+02  0.12335749942E+03  0.14760227878E+03  0.17770000000E+01 0.  1.
         15    1    3    3    0    0 -0.62687294802E+02 -0.30648813055E+01  0.27188283970E+03  0.27903857562E+03  0.17770000000E+01 0. -1.
</event>
<event>
 7    1  0.3260141E-006  0.5181292E+03  0.7546771E-02  0.9360134E-01
        -11   -1    0    0    0    0  0.00000000000E+00  0.00000000000E+00  0.50000000000E+03  0.50000000000E+03  0.00000000000E+00 0.  1.
         11   -1    0    0    0    0 -0.00000000000E+00 -0.00000000000E+00 -0.50000000000E+03  0.50000000000E+03  0.00000000000E+00 0. -1.
         23    2    1    2    0    0 -0.19192018488E+02  0.27229309635E+02 -0.98041264751E+02  0.13819906644E+03  0.91526627248E+02 0.  0.
        -11    1    1    2    0    0  0.11092496100E+03 -0.55229860299E+02  0.46566597633E+03  0.48187081874E+03  0.00000000000E+00 0.  1.
         11    1    1    2    0    0 -0.91732942512E+02  0.28000550663E+02 -0.36762471158E+03  0.37993011482E+03  0.00000000000E+00 0. -1.
        -15    1    3    3    0    0 -0.45030300261E+02  0.19756833043E+02 -0.99711383462E+02  0.11119162790E+03  0.17770000000E+01 0. -1.
         15    1    3    3    0    0  0.25838281773E+02  0.74724765918E+01  0.16701187108E+01  0.27007438548E+02  0.17770000000E+01 0.  1.
</event>
<event>
 7    1  0.3260141E-006  0.5181470E+03  0.7546771E-02  0.9360096E-01
        -11   -1    0    0    0    0  0.00000000000E+00  0.00000000000E+00  0.50000000000E+03  0.50000000000E+03  0.00000000000E+00 0.  1.
         11   -1    0    0    0    0 -0.00000000000E+00 -0.00000000000E+00 -0.50000000000E+03  0.50000000000E+03  0.00000000000E+00 0.  1.
         23    2    1    2    0    0  0.24460700794E+02 -0.27545527844E+02  0.32302724470E+03  0.33865171001E+03  0.94769709745E+02 0.  0.
        -11    1    1    2    0    0  0.43972633495E+02  0.88090736205E+02  0.15008322056E+03  0.17949524617E+03  0.00000000000E+00 0.  1.
         11    1    1    2    0    0 -0.68433334289E+02 -0.60545208361E+02 -0.47311046527E+03  0.48185304382E+03  0.00000000000E+00 0.  1.
        -15    1    3    3    0    0  0.25605061971E+02 -0.58580569727E+02  0.26715251295E+03  0.27470152029E+03  0.17770000000E+01 0.  1.
         15    1    3    3    0    0 -0.11443611764E+01  0.31035041883E+02  0.55874731755E+02  0.63950189717E+02  0.17770000000E+01 0. -1.
</event>
<event>
 7    1  0.3260141E-006  0.5137746E+03  0.7546771E-02  0.9369505E-01
        -11   -1    0    0    0    0  0.00000000000E+00  0.00000000000E+00  0.50000000000E+03  0.50000000000E+03  0.00000000000E+00 0. -1.
         11   -1    0    0    0    0 -0.00000000000E+00 -0.00000000000E+00 -0.50000000000E+03  0.50000000000E+03  0.00000000000E+00 0.  1.
         23    2    1    2    0    0 -0.13902315325E+03  0.27334290070E+02 -0.30368634629E+03  0.34800763950E+03  0.93857976082E+02 0.  0.
        -11    1    1    2    0    0  0.18827148040E+03  0.41106322175E+02  0.44640700352E+03  0.48622535192E+03  0.00000000000E+00 0. -1.
         11    1    1    2    0    0 -0.49248327158E+02 -0.68440612245E+02 -0.14272065723E+03  0.16576700858E+03  0.00000000000E+00 0.  1.
        -15    1    3    3    0    0 -0.72397785600E+02  0.25994486361E+02 -0.25249206899E+03  0.26395559345E+03  0.17770000000E+01 0.  1.
         15    1    3    3    0    0 -0.66625367646E+02  0.13398037088E+01 -0.51194277302E+02  0.84052046051E+02  0.17770000000E+01 0. -1.
</event>
<event>
 7    1  0.3260141E-006  0.5190944E+03  0.7546771E-02  0.9358070E-01
        -11   -1    0    0    0    0  0.00000000000E+00  0.00000000000E+00  0.50000000000E+03  0.50000000000E+03  0.00000000000E+00 0. -1.
         11   -1    0    0    0    0 -0.00000000000E+00 -0.00000000000E+00 -0.50000000000E+03  0.50000000000E+03  0.00000000000E+00 0. -1.
         23    2    1    2    0    0 -0.54051008132E+02 -0.11427667790E+01  0.13162216480E+03  0.16800429759E+03  0.89320951322E+02 0.  0.
        -11    1    1    2    0    0 -0.27702208849E+02  0.13439340471E+03  0.32316445461E+03  0.35109010856E+03  0.00000000000E+00 0. -1.
         11    1    1    2    0    0  0.81753216981E+02 -0.13325063794E+03 -0.45478661941E+03  0.48090559385E+03  0.00000000000E+00 0. -1.
        -15    1    3    3    0    0 -0.70064098573E+02 -0.23732224788E+02  0.11112920961E+03  0.13351050655E+03  0.17770000000E+01 0. -1.
         15    1    3    3    0    0  0.16013090441E+02  0.22589458009E+02  0.20492955194E+02  0.34493791038E+02  0.17770000000E+01 0.  1.
</event>
<event>
 7    1  0.3260141E-006  0.5131943E+03  0.7546771E-02  0.9370761E-01
        -11   -1    0    0    0    0  0.00000000000E+00  0.00000000000E+00  0.50000000000E+03  0.50000000000E+03  0.00000000000E+00 0.  1.
         11   -1    0    0    0    0 -0.00000000000E+00 -0.00000000000E+00 -0.50000000000E+03  0.50000000000E+03  0.00000000000E+00 0. -1.
         23    2    1    2    0    0  0.23731995452E+02 -0.43161217168E+02  0.19563839878E+03  0.22018033702E+03  0.88198069463E+02 0.  0.
        -11    1    1    2    0    0 -0.69586617712E+02 -0.40252409779E+02  0.28177054050E+03  0.29301397808E+03  0.00000000000E+00 0.  1.
         11    1    1    2    0    0  0.45854622260E+02  0.83413626947E+02 -0.47740893928E+03  0.48680568490E+03  0.00000000000E+00 0. -1.
        -15    1    3    3    0    0 -0.62937613421E+01  0.12421353701E+02 -0.56541455505E+00  0.14049159484E+02  0.17770000000E+01 0. -1.
         15    1    3    3    0    0  0.30025756794E+02 -0.55582570869E+02  0.19620381334E+03  0.20613117754E+03  0.17770000000E+01 0.  1.
</event>
<event>
 7    1  0.3260141E-006  0.5216972E+03  0.7546771E-02  0.9352528E-01
        -11   -1    0    0    0    0  0.00000000000E+00  0.00000000000E+00  0.50000000000E+03  0.50000000000E+03  0.00000000000E+00 0.  1.
         11   -1    0    0    0    0 -0.00000000000E+00 -0.00000000000E+00 -0.50000000000E+03  0.50000000000E+03  0.00000000000E+00 0.  1.
         23    2    1    2    0    0 -0.15939118984E+03 -0.96747998982E+02  0.28652531215E+03  0.35383043080E+03  0.91287965011E+02 0.  0.
        -11    1    1    2    0    0  0.44392704039E+02 -0.47737354931E+02  0.15469221683E+03  0.16786676019E+03  0.00000000000E+00 0.  1.
         11    1    1    2    0    0  0.11499848580E+03  0.14448535391E+03 -0.44121752898E+03  0.47830280901E+03  0.00000000000E+00 0.  1.
        -15    1    3    3    0    0 -0.17899030044E+02 -0.32679482415E+02  0.13422450298E+02  0.39643962319E+02  0.17770000000E+01 0. -1.
         15    1    3    3    0    0 -0.14149215979E+03 -0.64068516568E+02  0.27310286185E+03  0.31418646848E+03  0.17770000000E+01 0.  1.
</event>
<event>
 7    1  0.3260141E-006  0.5218341E+03  0.7546771E-02  0.9352237E-01
        -11   -1    0    0    0    0  0.00000000000E+00  0.00000000000E+00  0.50000000000E+03  0.50000000000E+03  0.00000000000E+00 0.  1.
         11   -1    0    0    0    0 -0.00000000000E+00 -0.00000000000E+00 -0.50000000000E+03  0.50000000000E+03  0.00000000000E+00 0.  1.
         23    2    1    2    0    0  0.63892117985E+01 -0.12859944250E+01  0.40211724637E+03  0.41202146231E+03  0.89559643614E+02 0.  0.
        -11    1    1    2    0    0  0.15512608233E+02  0.84643952100E+02  0.68217103179E+02  0.10981262590E+03  0.00000000000E+00 0.  1.
         11    1    1    2    0    0 -0.21901820031E+02 -0.83357957675E+02 -0.47033434955E+03  0.47816591179E+03  0.00000000000E+00 0.  1.
        -15    1    3    3    0    0  0.40647108031E+02  0.20923613908E+02  0.26586390086E+03  0.26977167479E+03  0.17770000000E+01 0.  1.
         15    1    3    3    0    0 -0.34257896232E+02 -0.22209608333E+02  0.13625334551E+03  0.14224978752E+03  0.17770000000E+01 0. -1.
</event>
<event>
 7    1  0.3260141E-006  0.5119831E+03  0.7546771E-02  0.9373389E-01
        -11   -1    0    0    0    0  0.00000000000E+00  0.00000000000E+00  0.50000000000E+03  0.50000000000E+03  0.00000000000E+00 0. -1.
         11   -1    0    0    0    0 -0.00000000000E+00 -0.00000000000E+00 -0.50000000000E+03  0.50000000000E+03  0.00000000000E+00 0.  1.
         23    2    1    2    0    0  0.67345042604E+02  0.54802679914E+02 -0.38392440453E+03  0.40392178943E+03  0.90643119401E+02 0.  0.
        -11    1    1    2    0    0 -0.12562782948E+03 -0.10521023578E+03  0.45968352208E+03  0.48801689082E+03  0.00000000000E+00 0. -1.
         11    1    1    2    0    0  0.58282786876E+02  0.50407555863E+02 -0.75759117556E+02  0.10806131975E+03  0.00000000000E+00 0.  1.
        -15    1    3    3    0    0  0.45453211255E+02  0.73392591123E+02 -0.34423385573E+03  0.35489797408E+03  0.17770000000E+01 0.  1.
         15    1    3    3    0    0  0.21891831349E+02 -0.18589911209E+02 -0.39690548790E+02  0.49023815344E+02  0.17770000000E+01 0. -1.
</event>
<event>
 7    1  0.3260141E-006  0.5108440E+03  0.7546771E-02  0.9375867E-01
        -11   -1    0    0    0    0  0.00000000000E+00  0.00000000000E+00  0.50000000000E+03  0.50000000000E+03  0.00000000000E+00 0. -1.
         11   -1    0    0    0    0 -0.00000000000E+00 -0.00000000000E+00 -0.50000000000E+03  0.50000000000E+03  0.00000000000E+00 0.  1.
         23    2    1    2    0    0 -0.57588192010E+02  0.25231665693E+02  0.27799884302E+03  0.30248909770E+03  0.10130775238E+03 0.  0.
        -11    1    1    2    0    0 -0.58680601645E+02  0.68611752304E+02  0.18777854085E+03  0.20835490387E+03  0.00000000000E+00 0. -1.
         11    1    1    2    0    0  0.11626879365E+03 -0.93843417997E+02 -0.46577738387E+03  0.48915599843E+03  0.00000000000E+00 0.  1.
        -15    1    3    3    0    0 -0.56175705069E+02  0.21398919492E+00  0.27049413989E+03  0.27627159296E+03  0.17770000000E+01 0. -1.
         15    1    3    3    0    0 -0.14124869407E+01  0.25017676498E+02  0.75047031288E+01  0.26217504740E+02  0.17770000000E+01 0.  1.
</event>
<event>
 7    1  0.3260141E-006  0.4358373E+03  0.7546771E-02  0.9556064E-01
        -11   -1    0    0    0    0  0.00000000000E+00  0.00000000000E+00  0.50000000000E+03  0.50000000000E+03  0.00000000000E+00 0.  1.
         11   -1    0    0    0    0 -0.00000000000E+00 -0.00000000000E+00 -0.50000000000E+03  0.50000000000E+03  0.00000000000E+00 0. -1.
         23    2    1    2    0    0 -0.69206832373E+02 -0.24536492637E+02  0.42848183833E+02  0.12418934520E+03  0.90528456776E+02 0.  0.
        -11    1    1    2    0    0  0.14023550109E+03 -0.71459738072E+02  0.39329245999E+03  0.42361710190E+03  0.00000000000E+00 0.  1.
         11    1    1    2    0    0 -0.71028668721E+02  0.95996230709E+02 -0.43614064382E+03  0.45219355290E+03  0.00000000000E+00 0. -1.
        -15    1    3    3    0    0  0.19881358806E+02  0.63394091468E+01  0.86071022611E+00  0.20960798825E+02  0.17770000000E+01 0.  1.
         15    1    3    3    0    0 -0.89088191178E+02 -0.30875901784E+02  0.41987473607E+02  0.10322854638E+03  0.17770000000E+01 0. -1.
</event>
<event>
 6    1  0.3260141E-006  0.3569037E+03  0.7546771E-02  0.9793075E-01
        -11   -1    0    0    0    0  0.00000000000E+00  0.00000000000E+00  0.50000000000E+03  0.50000000000E+03  0.00000000000E+00 0. -1.
         11   -1    0    0    0    0 -0.00000000000E+00 -0.00000000000E+00 -0.50000000000E+03  0.50000000000E+03  0.00000000000E+00 0.  1.
        -11    1    1    2    0    0  0.15411826489E+03 -0.14617578391E+03  0.33269983734E+03  0.39472646369E+03  0.00000000000E+00 0. -1.
         11    1    1    2    0    0  0.46570766666E+02 -0.70565308522E+02 -0.25296529535E+03  0.26672033992E+03  0.00000000000E+00 0.  1.
        -15    1    1    2    0    0 -0.10541894696E+03  0.35563490066E+02 -0.74257534034E+02  0.13377314863E+03  0.17770000000E+01 0. -1.
         15    1    1    2    0    0 -0.95270084598E+02  0.18117760236E+03 -0.54770079527E+01  0.20478004776E+03  0.17770000000E+01 0.  1.
</event>
<event>
 7    1  0.3260141E-006  0.4221971E+03  0.7546771E-02  0.9592998E-01
        -11   -1    0    0    0    0  0.00000000000E+00  0.00000000000E+00  0.50000000000E+03  0.50000000000E+03  0.00000000000E+00 0.  1.
         11   -1    0    0    0    0 -0.00000000000E+00 -0.00000000000E+00 -0.50000000000E+03  0.50000000000E+03  0.00000000000E+00 0. -1.
         23    2    1    2    0    0 -0.63411568859E+00 -0.43351797246E+02  0.41273624148E+03  0.42394666867E+03  0.86601341895E+02 0.  0.
        -11    1    1    2    0    0  0.14929534159E+03 -0.13305614851E+02 -0.18621215146E+02  0.15103935931E+03  0.00000000000E+00 0.  1.
         11    1    1    2    0    0 -0.14866122590E+03  0.56657412097E+02 -0.39411502634E+03  0.42501397202E+03  0.00000000000E+00 0. -1.
        -15    1    3    3    0    0 -0.27425623576E+00  0.26682402262E+02  0.12006102407E+03  0.12300338628E+03  0.17770000000E+01 0. -1.
         15    1    3    3    0    0 -0.35985945283E+00 -0.70034199509E+02  0.29267521742E+03  0.30094328239E+03  0.17770000000E+01 0.  1.
</event>
<event>
 7    1  0.3260141E-006  0.3091818E+03  0.7546771E-02  0.9970876E-01
        -11   -1    0    0    0    0  0.00000000000E+00  0.00000000000E+00  0.50000000000E+03  0.50000000000E+03  0.00000000000E+00 0.  1.
         11   -1    0    0    0    0 -0.00000000000E+00 -0.00000000000E+00 -0.50000000000E+03  0.50000000000E+03  0.00000000000E+00 0. -1.
         23    2    1    2    0    0  0.26480387903E+02  0.30708902831E+03  0.61765002575E+02  0.33103696935E+03  0.10375778181E+03 0.  0.
        -11    1    1    2    0    0 -0.35162772609E+02 -0.17861975044E+03  0.26285358820E+03  0.31973965136E+03  0.00000000000E+00 0.  1.
         11    1    1    2    0    0  0.86823847055E+01 -0.12846927787E+03 -0.32461859078E+03  0.34922337928E+03  0.00000000000E+00 0. -1.
        -15    1    3    3    0    0 -0.37246736700E+02  0.16246270463E+03  0.40712255374E+02  0.17158699035E+03  0.17770000000E+01 0.  1.
         15    1    3    3    0    0  0.63727124604E+02  0.14462632367E+03  0.21052747201E+02  0.15944997900E+03  0.17770000000E+01 0. -1.
</event>
<event>
 7    1  0.3260141E-006  0.4403746E+03  0.7546771E-02  0.9544097E-01
        -11   -1    0    0    0    0  0.00000000000E+00  0.00000000000E+00  0.50000000000E+03  0.50000000000E+03  0.00000000000E+00 0. -1.
         11   -1    0    0    0    0 -0.00000000000E+00 -0.00000000000E+00 -0.50000000000E+03  0.50000000000E+03  0.00000000000E+00 0.  1.
         23    2    1    2    0    0  0.28318176619E+03 -0.33075387981E+03 -0.36256205703E+02  0.44569039308E+03  0.87950965427E+02 0.  0.
        -11    1    1    2    0    0 -0.32840050073E+03  0.25778811170E+03  0.11998733313E+03  0.43439447456E+03  0.00000000000E+00 0. -1.
         11    1    1    2    0    0  0.45218734538E+02  0.72965768107E+02 -0.83731127429E+02  0.11991513236E+03  0.00000000000E+00 0.  1.
        -15    1    3    3    0    0  0.19514201592E+03 -0.27086996947E+03 -0.20927181039E+01  0.33385398595E+03  0.17770000000E+01 0.  1.
         15    1    3    3    0    0  0.88039750274E+02 -0.59883910343E+02 -0.34163487599E+02  0.11183640713E+03  0.17770000000E+01 0. -1.
</event>
<event>
 7    1  0.3260141E-006  0.5147441E+03  0.7546771E-02  0.9367410E-01
        -11   -1    0    0    0    0  0.00000000000E+00  0.00000000000E+00  0.50000000000E+03  0.50000000000E+03  0.00000000000E+00 0.  1.
         11   -1    0    0    0    0 -0.00000000000E+00 -0.00000000000E+00 -0.50000000000E+03  0.50000000000E+03  0.00000000000E+00 0.  1.
         23    2    1    2    0    0 -0.36659065118E+01 -0.31697652556E+02  0.13515845750E+03  0.16613322346E+03  0.91182560054E+02 0.  0.
        -11    1    1    2    0    0 -0.73161071395E+02 -0.42817632242E+02  0.33814735954E+03  0.34861085577E+03  0.00000000000E+00 0.  1.
         11    1    1    2    0    0  0.76826977907E+02  0.74515284798E+02 -0.47330581703E+03  0.48525592077E+03  0.00000000000E+00 0.  1.
        -15    1    3    3    0    0 -0.22625975973E+02 -0.59052837564E+02  0.89635328971E+02  0.10971245299E+03  0.17770000000E+01 0.  1.
         15    1    3    3    0    0  0.18960069462E+02  0.27355185009E+02  0.45523128524E+02  0.56420770470E+02  0.17770000000E+01 0. -1.
</event>
<event>
 7    1  0.3260141E-006  0.5245637E+03  0.7546771E-02  0.9346464E-01
        -11   -1    0    0    0    0  0.00000000000E+00  0.00000000000E+00  0.50000000000E+03  0.50000000000E+03  0.00000000000E+00 0. -1.
         11   -1    0    0    0    0 -0.00000000000E+00 -0.00000000000E+00 -0.50000000000E+03  0.50000000000E+03  0.00000000000E+00 0. -1.
         23    2    1    2    0    0 -0.94137770072E+02  0.12096679145E+03 -0.29403983234E+03  0.34261320000E+03  0.86194532433E+02 0.  0.
        -11    1    1    2    0    0  0.81248432699E+02 -0.59173956417E+02  0.46469002975E+03  0.47543631401E+03  0.00000000000E+00 0. -1.
         11    1    1    2    0    0  0.12889337373E+02 -0.61792835033E+02 -0.17065019740E+03  0.18195048599E+03  0.00000000000E+00 0. -1.
        -15    1    3    3    0    0 -0.73500106687E+02  0.25731826324E+02 -0.14349993054E+03  0.16327822991E+03  0.17770000000E+01 0.  1.
         15    1    3    3    0    0 -0.20637663385E+02  0.95234965126E+02 -0.15053990181E+03  0.17933497009E+03  0.17770000000E+01 0. -1.
</event>
<event>
 7    1  0.3260141E-006  0.3065247E+03  0.7546771E-02  0.9981777E-01
        -11   -1    0    0    0    0  0.00000000000E+00  0.00000000000E+00  0.50000000000E+03  0.50000000000E+03  0.00000000000E+00 0.  1.
         11   -1    0    0    0    0 -0.00000000000E+00 -0.00000000000E+00 -0.50000000000E+03  0.50000000000E+03  0.00000000000E+00 0.  1.
         23    2    1    2    0    0  0.20193163729E+03  0.16172483281E+03  0.15833971434E+03  0.31601728890E+03  0.88680065753E+02 0.  0.
        -11    1    1    2    0    0 -0.24474042828E+03 -0.92122188523E+02  0.19188479403E+03  0.32435189075E+03  0.00000000000E+00 0.  1.
         11    1    1    2    0    0  0.42808790995E+02 -0.69602644289E+02 -0.35022450837E+03  0.35963082034E+03  0.00000000000E+00 0.  1.
        -15    1    3    3    0    0  0.23940746468E+02 -0.12689302025E+01 -0.50443310970E+01  0.24563642452E+02  0.17770000000E+01 0. -1.
         15    1    3    3    0    0  0.17799089082E+03  0.16299376301E+03  0.16338404544E+03  0.29145364645E+03  0.17770000000E+01 0.  1.
</event>
<event>
 7    1  0.3260141E-006  0.5232037E+03  0.7546771E-02  0.9349336E-01
        -11   -1    0    0    0    0  0.00000000000E+00  0.00000000000E+00  0.50000000000E+03  0.50000000000E+03  0.00000000000E+00 0.  1.
         11   -1    0    0    0    0 -0.00000000000E+00 -0.00000000000E+00 -0.50000000000E+03  0.50000000000E+03  0.00000000000E+00 0. -1.
         23    2    1    2    0    0 -0.11900018180E+02  0.49763674522E+02  0.35472661952E+03  0.37006552309E+03  0.92192640971E+02 0.  0.
        -11    1    1    2    0    0 -0.49089666121E+02  0.11488202715E+03  0.88564226395E+02  0.15313816533E+03  0.00000000000E+00 0.  1.
         11    1    1    2    0    0  0.60989684301E+02 -0.16464570167E+03 -0.44329084591E+03  0.47679631159E+03  0.00000000000E+00 0. -1.
        -15    1    3    3    0    0  0.11550071467E+02  0.56327376534E+02  0.33120069609E+03  0.33615953998E+03  0.17770000000E+01 0.  1.
         15    1    3    3    0    0 -0.23450089647E+02 -0.65637020121E+01  0.23525923427E+02  0.33905983110E+02  0.17770000000E+01 0. -1.
</event>
<event>
 7    1  0.3260141E-006  0.5346052E+03  0.7546771E-02  0.9325542E-01
        -11   -1    0    0    0    0  0.00000000000E+00  0.00000000000E+00  0.50000000000E+03  0.50000000000E+03  0.00000000000E+00 0.  1.
         11   -1    0    0    0    0 -0.00000000000E+00 -0.00000000000E+00 -0.50000000000E+03  0.50000000000E+03  0.00000000000E+00 0. -1.
         23    2    1    2    0    0  0.68790741419E+01 -0.32632734819E+02  0.20164243529E+03  0.22300240284E+03  0.89208648231E+02 0.  0.
        -11    1    1    2    0    0 -0.23085992606E+03  0.35209298534E+02  0.20630149724E+03  0.31160280475E+03  0.00000000000E+00 0.  1.
         11    1    1    2    0    0  0.22398085192E+03 -0.25765637151E+01 -0.40794393254E+03  0.46539479241E+03  0.00000000000E+00 0. -1.
        -15    1    3    3    0    0  0.44543477702E+02 -0.27208830555E+02  0.14998423771E+03  0.15881709970E+03  0.17770000000E+01 0. -1.
         15    1    3    3    0    0 -0.37664403560E+02 -0.54239042635E+01  0.51658197578E+02  0.64185303138E+02  0.17770000000E+01 0.  1.
</event>
<event>
 7    1  0.3260141E-006  0.5268967E+03  0.7546771E-02  0.9341559E-01
        -11   -1    0    0    0    0  0.00000000000E+00  0.00000000000E+00  0.50000000000E+03  0.50000000000E+03  0.00000000000E+00 0.  1.
         11   -1    0    0    0    0 -0.00000000000E+00 -0.00000000000E+00 -0.50000000000E+03  0.50000000000E+03  0.00000000000E+00 0. -1.
         23    2    1    2    0    0 -0.23685830029E+02  0.20247784276E+02 -0.58292199985E+02  0.11370441370E+03  0.92518764598E+02 0.  0.
        -11    1    1    2    0    0  0.80843456843E+02  0.16607879397E+02  0.46584896753E+03  0.47310331506E+03  0.00000000000E+00 0.  1.
         11    1    1    2    0    0 -0.57157626814E+02 -0.36855663673E+02 -0.40755676754E+03  0.41319227125E+03  0.00000000000E+00 0. -1.
        -15    1    3    3    0    0 -0.29216432184E+02  0.49176610989E+02 -0.61519311031E+02  0.84022153845E+02  0.17770000000E+01 0.  1.
         15    1    3    3    0    0  0.55306021556E+01 -0.28928826713E+02  0.32271110461E+01  0.29682259852E+02  0.17770000000E+01 0. -1.
</event>
<event>
 7    1  0.3260141E-006  0.5291500E+03  0.7546771E-02  0.9336847E-01
        -11   -1    0    0    0    0  0.00000000000E+00  0.00000000000E+00  0.50000000000E+03  0.50000000000E+03  0.00000000000E+00 0. -1.
         11   -1    0    0    0    0 -0.00000000000E+00 -0.00000000000E+00 -0.50000000000E+03  0.50000000000E+03  0.00000000000E+00 0.  1.
         23    2    1    2    0    0  0.29510854385E+02 -0.77945163797E+02  0.22214977323E+03  0.25435653836E+03  0.91653629347E+02 0.  0.
        -11    1    1    2    0    0 -0.17392393934E+03 -0.74114925611E+02  0.19942143036E+03  0.27479349658E+03  0.00000000000E+00 0. -1.
         11    1    1    2    0    0  0.14441308496E+03  0.15206008941E+03 -0.42157120360E+03  0.47084996506E+03  0.00000000000E+00 0.  1.
        -15    1    3    3    0    0 -0.32146884883E+02 -0.30153208463E+02  0.10151312469E+03  0.11068292732E+03  0.17770000000E+01 0. -1.
         15    1    3    3    0    0  0.61657739268E+02 -0.47791955334E+02  0.12063664855E+03  0.14367361103E+03  0.17770000000E+01 0.  1.
</event>
<event>
 6    1  0.3260141E-006  0.5446923E+03  0.7546771E-02  0.9305010E-01
        -11   -1    0    0    0    0  0.00000000000E+00  0.00000000000E+00  0.50000000000E+03  0.50000000000E+03  0.00000000000E+00 0.  1.
         11   -1    0    0    0    0 -0.00000000000E+00 -0.00000000000E+00 -0.50000000000E+03  0.50000000000E+03  0.00000000000E+00 0. -1.
        -11    1    1    2    0    0  0.84820725825E+02  0.19295295708E+02  0.15577270431E+03  0.17841524423E+03  0.00000000000E+00 0.  1.
         11    1    1    2    0    0  0.92132691041E+02 -0.55766422929E+02 -0.44238758225E+03  0.45530769773E+03  0.00000000000E+00 0. -1.
        -15    1    1    2    0    0 -0.13509192048E+03  0.69139770329E+02  0.27149925087E+03  0.31103880107E+03  0.17770000000E+01 0.  1.
         15    1    1    2    0    0 -0.41861496390E+02 -0.32668643108E+02  0.15115627066E+02  0.55238256970E+02  0.17770000000E+01 0. -1.
</event>
<event>
 7    1  0.3260141E-006  0.4378348E+03  0.7546771E-02  0.9550776E-01
        -11   -1    0    0    0    0  0.00000000000E+00  0.00000000000E+00  0.50000000000E+03  0.50000000000E+03  0.00000000000E+00 0.  1.
         11   -1    0    0    0    0 -0.00000000000E+00 -0.00000000000E+00 -0.50000000000E+03  0.50000000000E+03  0.00000000000E+00 0. -1.
         23    2    1    2    0    0 -0.10352575397E+02 -0.62673437397E+02  0.42412564618E+03  0.43843255693E+03  0.91134009308E+02 0.  0.
        -11    1    1    2    0    0 -0.11528611206E+03 -0.43936118493E+02 -0.19796920586E+02  0.12495274389E+03  0.00000000000E+00 0.  1.
         11    1    1    2    0    0  0.12563868746E+03  0.10660955589E+03 -0.40432872560E+03  0.43661469918E+03  0.00000000000E+00 0. -1.
        -15    1    3    3    0    0  0.16542641146E+02 -0.67720918079E+02  0.38098181761E+03  0.38731135382E+03  0.17770000000E+01 0.  1.
         15    1    3    3    0    0 -0.26895216544E+02  0.50474806813E+01  0.43143828577E+02  0.51121203110E+02  0.17770000000E+01 0. -1.
</event>
<event>
 7    1  0.3260141E-006  0.3479981E+03  0.7546771E-02  0.9823906E-01
        -11   -1    0    0    0    0  0.00000000000E+00  0.00000000000E+00  0.50000000000E+03  0.50000000000E+03  0.00000000000E+00 0.  1.
         11   -1    0    0    0    0 -0.00000000000E+00 -0.00000000000E+00 -0.50000000000E+03  0.50000000000E+03  0.00000000000E+00 0. -1.
         23    2    1    2    0    0  0.89722341674E+02 -0.11206028036E+03  0.26507440909E+03  0.31468347756E+03  0.90297528569E+02 0.  0.
        -11    1    1    2    0    0  0.64379787645E+01 -0.25287062951E+03 -0.82348401548E+02  0.26601928892E+03  0.00000000000E+00 0.  1.
         11    1    1    2    0    0 -0.96160320438E+02  0.36493090987E+03 -0.18272600754E+03  0.41929723352E+03  0.00000000000E+00 0. -1.
        -15    1    3    3    0    0 -0.77726622425E+01 -0.22317322561E+02  0.72308655988E+01  0.24777415340E+02  0.17770000000E+01 0. -1.
         15    1    3    3    0    0  0.97495003916E+02 -0.89742957794E+02  0.25784354349E+03  0.28990606222E+03  0.17770000000E+01 0.  1.
</event>
<event>
 7    1  0.3260141E-006  0.5080814E+03  0.7546771E-02  0.9381906E-01
        -11   -1    0    0    0    0  0.00000000000E+00  0.00000000000E+00  0.50000000000E+03  0.50000000000E+03  0.00000000000E+00 0. -1.
         11   -1    0    0    0    0 -0.00000000000E+00 -0.00000000000E+00 -0.50000000000E+03  0.50000000000E+03  0.00000000000E+00 0.  1.
         23    2    1    2    0    0 -0.73345356796E+02 -0.10095875545E+03 -0.28572163331E+03  0.32477918311E+03  0.90953033918E+02 0.  0.
        -11    1    1    2    0    0  0.82355967661E+02  0.13703425553E+03  0.46521282267E+03  0.49191855320E+03  0.00000000000E+00 0. -1.
         11    1    1    2    0    0 -0.90106108651E+01 -0.36075500080E+02 -0.17949118937E+03  0.18330226369E+03  0.00000000000E+00 0.  1.
        -15    1    3    3    0    0 -0.57483890748E+02 -0.61608824092E+01 -0.95606396728E+02  0.11174119649E+03  0.17770000000E+01 0.  1.
         15    1    3    3    0    0 -0.15861466048E+02 -0.94797873041E+02 -0.19011523658E+03  0.21303798663E+03  0.17770000000E+01 0. -1.
</event>
<event>
 7    1  0.3260141E-006  0.4065542E+03  0.7546771E-02  0.9637231E-01
        -11   -1    0    0    0    0  0.00000000000E+00  0.00000000000E+00  0.50000000000E+03  0.50000000000E+03  0.00000000000E+00 0.  1.
         11   -1    0    0    0    0 -0.00000000000E+00 -0.00000000000E+00 -0.50000000000E+03  0.50000000000E+03  0.00000000000E+00 0. -1.
         23    2    1    2    0    0  0.11053330920E+03  0.24496429982E+02 -0.94211495860E+02  0.17365947960E+03  0.92000659656E+02 0.  0.
        -11    1    1    2    0    0  0.76243658122E+02  0.25636071910E+03  0.32255955462E+03  0.41902097797E+03  0.00000000000E+00 0.  1.
         11    1    1    2    0    0 -0.18677696732E+03 -0.28085714908E+03 -0.22834805876E+03  0.40731954244E+03  0.00000000000E+00 0. -1.
        -15    1    3    3    0    0  0.19861194185E+02  0.43927127195E+02 -0.11978316717E+02  0.49706109669E+02  0.17770000000E+01 0.  1.
         15    1    3    3    0    0  0.90672115015E+02 -0.19430697213E+02 -0.82233179143E+02  0.12395336993E+03  0.17770000000E+01 0. -1.
</event>
<event>
 7    1  0.3260141E-006  0.5100706E+03  0.7546771E-02  0.9377554E-01
        -11   -1    0    0    0    0  0.00000000000E+00  0.00000000000E+00  0.50000000000E+03  0.50000000000E+03  0.00000000000E+00 0. -1.
         11   -1    0    0    0    0 -0.00000000000E+00 -0.00000000000E+00 -0.50000000000E+03  0.50000000000E+03  0.00000000000E+00 0.  1.
         23    2    1    2    0    0  0.19726635187E+02  0.29269651441E+02  0.23306366991E+03  0.24697501759E+03  0.73703001645E+02 0.  0.
        -11    1    1    2    0    0  0.76613490253E+02 -0.48892778290E+02  0.24689912638E+03  0.26309562760E+03  0.00000000000E+00 0. -1.
         11    1    1    2    0    0 -0.96340125440E+02  0.19623126849E+02 -0.47996279629E+03  0.48992935480E+03  0.00000000000E+00 0.  1.
        -15    1    3    3    0    0  0.65782200048E+01  0.53479539489E+02  0.14577903706E+03  0.15542850284E+03  0.17770000000E+01 0.  1.
         15    1    3    3    0    0  0.13148415182E+02 -0.24209888048E+02  0.87284632857E+02  0.91546514751E+02  0.17770000000E+01 0. -1.
</event>
<event>
 7    1  0.3260141E-006  0.5280908E+03  0.7546771E-02  0.9339059E-01
        -11   -1    0    0    0    0  0.00000000000E+00  0.00000000000E+00  0.50000000000E+03  0.50000000000E+03  0.00000000000E+00 0.  1.
         11   -1    0    0    0    0 -0.00000000000E+00 -0.00000000000E+00 -0.50000000000E+03  0.50000000000E+03  0.00000000000E+00 0. -1.
         23    2    1    2    0    0 -0.13633661917E+02  0.18881012493E+02  0.32858799170E+03  0.34223320771E+03  0.92796178784E+02 0.  0.
        -11    1    1    2    0    0 -0.96801756036E+02  0.11371705063E+03  0.11063864114E+03  0.18585762425E+03  0.00000000000E+00 0.  1.
         11    1    1    2    0    0  0.11043541795E+03 -0.13259806313E+03 -0.43922663285E+03  0.47190916804E+03  0.00000000000E+00 0. -1.
        -15    1    3    3    0    0 -0.14693035264E+02 -0.36252983692E+02  0.10900612166E+03  0.11582597463E+03  0.17770000000E+01 0.  1.
         15    1    3    3    0    0  0.10593733472E+01  0.55133996185E+02  0.21958187005E+03  0.22640723308E+03  0.17770000000E+01 0. -1.
</event>
<event>
 7    1  0.3260141E-006  0.5215944E+03  0.7546771E-02  0.9352746E-01
        -11   -1    0    0    0    0  0.00000000000E+00  0.00000000000E+00  0.50000000000E+03  0.50000000000E+03  0.00000000000E+00 0. -1.
         11   -1    0    0    0    0 -0.00000000000E+00 -0.00000000000E+00 -0.50000000000E+03  0.50000000000E+03  0.00000000000E+00 0. -1.
         23    2    1    2    0    0  0.27685020549E+02 -0.10454933139E+02  0.19780456981E+03  0.21901512755E+03  0.89248037898E+02 0.  0.
        -11    1    1    2    0    0 -0.11602385553E+03  0.83619099538E+02  0.26664686550E+03  0.30257931149E+03  0.00000000000E+00 0. -1.
         11    1    1    2    0    0  0.88338834982E+02 -0.73164166400E+02 -0.46445143530E+03  0.47840556097E+03  0.00000000000E+00 0. -1.
        -15    1    3    3    0    0  0.34724214654E+02 -0.34665053012E+02  0.53907353184E+02  0.72915001475E+02  0.17770000000E+01 0.  1.
         15    1    3    3    0    0 -0.70391941053E+01  0.24210119873E+02  0.14389721662E+03  0.14610012607E+03  0.17770000000E+01 0. -1.
</event>
<event>
 7    1  0.3260141E-006  0.5120133E+03  0.7546771E-02  0.9373323E-01
        -11   -1    0    0    0    0  0.00000000000E+00  0.00000000000E+00  0.50000000000E+03  0.50000000000E+03  0.00000000000E+00 0.  1.
         11   -1    0    0    0    0 -0.00000000000E+00 -0.00000000000E+00 -0.50000000000E+03  0.50000000000E+03  0.00000000000E+00 0. -1.
         23    2    1    2    0    0 -0.17225298874E+02  0.19994377383E+02  0.19167822591E+03  0.21520387505E+03  0.94210824759E+02 0.  0.
        -11    1    1    2    0    0 -0.73541102585E+02  0.63267208766E+02  0.28050813927E+03  0.29680945011E+03  0.00000000000E+00 0.  1.
         11    1    1    2    0    0  0.90766401459E+02 -0.83261586149E+02 -0.47218636518E+03  0.48798667484E+03  0.00000000000E+00 0. -1.
        -15    1    3    3    0    0  0.62345596539E+01 -0.80110662305E+01 -0.74677668737E+01  0.12726829429E+02  0.17770000000E+01 0. -1.
         15    1    3    3    0    0 -0.23459858528E+02  0.28005443613E+02  0.19914599278E+03  0.20247704562E+03  0.17770000000E+01 0.  1.
</event>
<event>
 7    1  0.3260141E-006  0.5335690E+03  0.7546771E-02  0.9327679E-01
        -11   -1    0    0    0    0  0.00000000000E+00  0.00000000000E+00  0.50000000000E+03  0.50000000000E+03  0.00000000000E+00 0.  1.
         11   -1    0    0    0    0 -0.00000000000E+00 -0.00000000000E+00 -0.50000000000E+03  0.50000000000E+03  0.00000000000E+00 0.  1.
         23    2    1    2    0    0  0.28802685220E+02 -0.11114803757E+03  0.48393220172E+02  0.14784408144E+03  0.79576929607E+02 0.  0.
        -11    1    1    2    0    0  0.18746663532E+03  0.42709660448E+03 -0.16192691116E+01  0.46643099270E+03  0.00000000000E+00 0.  1.
         11    1    1    2    0    0 -0.21626932054E+03 -0.31594856690E+03 -0.46773951060E+02  0.38572492587E+03  0.00000000000E+00 0.  1.
        -15    1    3    3    0    0  0.41012154090E+02 -0.11458556828E+03  0.54845129561E+02  0.13350279101E+03  0.17770000000E+01 0. -1.
         15    1    3    3    0    0 -0.12209468870E+02  0.34375307081E+01 -0.64519093892E+01  0.14341290431E+02  0.17770000000E+01 0.  1.
</event>
<event>
 7    1  0.3260141E-006  0.4731257E+03  0.7546771E-02  0.9462036E-01
        -11   -1    0    0    0    0  0.00000000000E+00  0.00000000000E+00  0.50000000000E+03  0.50000000000E+03  0.00000000000E+00 0. -1.
         11   -1    0    0    0    0 -0.00000000000E+00 -0.00000000000E+00 -0.50000000000E+03  0.50000000000E+03  0.00000000000E+00 0.  1.
         23    2    1    2    0    0  0.70279881283E+02  0.20113923671E+02  0.43173284756E+03  0.44783881694E+03  0.93928284671E+02 0.  0.
        -11    1    1    2    0    0  0.29832580704E+02 -0.21370470269E+02  0.48940912434E+02  0.61171012586E+02  0.00000000000E+00 0. -1.
         11    1    1    2    0    0 -0.10011246199E+03  0.12565465982E+01 -0.48067375999E+03  0.49099017047E+03  0.00000000000E+00 0.  1.
        -15    1    3    3    0    0 -0.51665626304E+01  0.37092523727E+02  0.90710148101E+02  0.98153132315E+02  0.17770000000E+01 0.  1.
         15    1    3    3    0    0  0.75446443914E+02 -0.16978600056E+02  0.34102269946E+03  0.34968568463E+03  0.17770000000E+01 0. -1.
</event>
<event>
 6    1  0.3260141E-006  0.4033113E+03  0.7546771E-02  0.9646667E-01
        -11   -1    0    0    0    0  0.00000000000E+00  0.00000000000E+00  0.50000000000E+03  0.50000000000E+03  0.00000000000E+00 0.  1.
         11   -1    0    0    0    0 -0.00000000000E+00 -0.00000000000E+00 -0.50000000000E+03  0.50000000000E+03  0.00000000000E+00 0.  1.
        -11    1    1    2    0    0  0.13315552913E+03 -0.31031021977E+03  0.23117662219E+03  0.40922543674E+03  0.00000000000E+00 0.  1.
         11    1    1    2    0    0 -0.86502698180E+02  0.79023977537E+02 -0.21336974000E+03  0.24342175697E+03  0.00000000000E+00 0.  1.
        -15    1    1    2    0    0  0.27093751101E+02 -0.38486290913E+02 -0.46526898459E+02  0.66205558272E+02  0.17770000000E+01 0.  1.
         15    1    1    2    0    0 -0.73746582056E+02  0.26977253314E+03  0.28720016277E+02  0.28114724801E+03  0.17770000000E+01 0. -1.
</event>
<event>
 7    1  0.3260141E-006  0.3202182E+03  0.7546771E-02  0.9926825E-01
        -11   -1    0    0    0    0  0.00000000000E+00  0.00000000000E+00  0.50000000000E+03  0.50000000000E+03  0.00000000000E+00 0. -1.
         11   -1    0    0    0    0 -0.00000000000E+00 -0.00000000000E+00 -0.50000000000E+03  0.50000000000E+03  0.00000000000E+00 0.  1.
         23    2    1    2    0    0 -0.18515677493E+03  0.10386708019E+03  0.30519440066E+03  0.37759105899E+03  0.66030174842E+02 0.  0.
        -11    1    1    2    0    0  0.28984838754E+03  0.94502688118E+02 -0.10702242616E+03  0.32310469746E+03  0.00000000000E+00 0. -1.
         11    1    1    2    0    0 -0.10469161261E+03 -0.19836976830E+03 -0.19817197450E+03  0.29930424354E+03  0.00000000000E+00 0.  1.
        -15    1    3    3    0    0 -0.11612681417E+03  0.64992370519E+02  0.24220800298E+03  0.27636446883E+03  0.17770000000E+01 0.  1.
         15    1    3    3    0    0 -0.69029960765E+02  0.38874709667E+02  0.62986397673E+02  0.10122659016E+03  0.17770000000E+01 0. -1.
</event>
<event>
 7    1  0.3260141E-006  0.5299140E+03  0.7546771E-02  0.9335255E-01
        -11   -1    0    0    0    0  0.00000000000E+00  0.00000000000E+00  0.50000000000E+03  0.50000000000E+03  0.00000000000E+00 0.  1.
         11   -1    0    0    0    0 -0.00000000000E+00 -0.00000000000E+00 -0.50000000000E+03  0.50000000000E+03  0.00000000000E+00 0. -1.
         23    2    1    2    0    0 -0.57500343091E+02  0.32088003417E+01  0.24784760714E+03  0.27043550973E+03  0.91598813847E+02 0.  0.
        -11    1    1    2    0    0  0.53632016013E+02 -0.16385083902E+03  0.19392160218E+03  0.25947847383E+03  0.00000000000E+00 0.  1.
         11    1    1    2    0    0  0.38683270778E+01  0.16064203868E+03 -0.44176920932E+03  0.47008601644E+03  0.00000000000E+00 0. -1.
        -15    1    3    3    0    0 -0.42997158442E+02  0.44489266848E+02  0.17273774180E+03  0.18349260386E+03  0.17770000000E+01 0.  1.
         15    1    3    3    0    0 -0.14503184649E+02 -0.41280466506E+02  0.75109865341E+02  0.86942905866E+02  0.17770000000E+01 0. -1.
</event>
<event>
 7    1  0.3260141E-006  0.5368720E+03  0.7546771E-02  0.9320887E-01
        -11   -1    0    0    0    0  0.00000000000E+00  0.00000000000E+00  0.50000000000E+03  0.50000000000E+03  0.00000000000E+00 0. -1.
         11   -1    0    0    0    0 -0.00000000000E+00 -0.00000000000E+00 -0.50000000000E+03  0.50000000000E+03  0.00000000000E+00 0.  1.
         23    2    1    2    0    0  0.58210206813E+02 -0.69663120325E+02  0.33405137875E+03  0.35799746468E+03  0.91271477276E+02 0.  0.
        -11    1    1    2    0    0  0.17725148982E+02  0.13289261148E+03  0.11841231034E+03  0.17887454355E+03  0.00000000000E+00 0. -1.
         11    1    1    2    0    0 -0.75935355795E+02 -0.63229491151E+02 -0.45246368909E+03  0.46312799176E+03  0.00000000000E+00 0.  1.
        -15    1    3    3    0    0  0.75195339237E+02 -0.25763308093E+02  0.23968949724E+03  0.25253177998E+03  0.17770000000E+01 0. -1.
         15    1    3    3    0    0 -0.16985132424E+02 -0.43899812232E+02  0.94361881511E+02  0.10546568470E+03  0.17770000000E+01 0.  1.
</event>
<event>
 7    1  0.3260141E-006  0.4247356E+03  0.7546771E-02  0.9586012E-01
        -11   -1    0    0    0    0  0.00000000000E+00  0.00000000000E+00  0.50000000000E+03  0.50000000000E+03  0.00000000000E+00 0. -1.
         11   -1    0    0    0    0 -0.00000000000E+00 -0.00000000000E+00 -0.50000000000E+03  0.50000000000E+03  0.00000000000E+00 0.  1.
         23    2    1    2    0    0 -0.45990607550E+02 -0.37530437758E+02  0.37374860571E+03  0.38859618111E+03  0.88291007239E+02 0.  0.
        -11    1    1    2    0    0  0.11629922004E+03 -0.45311295168E+02  0.77726671676E+02  0.14703760588E+03  0.00000000000E+00 0. -1.
         11    1    1    2    0    0 -0.70308612490E+02  0.82841732926E+02 -0.45147527738E+03  0.46436621302E+03  0.00000000000E+00 0.  1.
        -15    1    3    3    0    0 -0.63615414829E+02 -0.53037612400E+02  0.29246721751E+03  0.30397391398E+03  0.17770000000E+01 0. -1.
         15    1    3    3    0    0  0.17624807279E+02  0.15507174642E+02  0.81281388203E+02  0.84622267130E+02  0.17770000000E+01 0.  1.
</event>
<event>
 7    1  0.3260141E-006  0.3949279E+03  0.7546771E-02  0.9671507E-01
        -11   -1    0    0    0    0  0.00000000000E+00  0.00000000000E+00  0.50000000000E+03  0.50000000000E+03  0.00000000000E+00 0.  1.
         11   -1    0    0    0    0 -0.00000000000E+00 -0.00000000000E+00 -0.50000000000E+03  0.50000000000E+03  0.00000000000E+00 0.  1.
         23    2    1    2    0    0  0.40052179749E+01 -0.69596743826E+01 -0.34770075283E+03  0.35932928621E+03  0.90317459926E+02 0.  0.
        -11    1    1    2    0    0  0.81647842013E+02  0.17565140318E+03  0.39995868094E+03  0.44439479295E+03  0.00000000000E+00 0.  1.
         11    1    1    2    0    0 -0.85653059988E+02 -0.16869172880E+03 -0.52257928108E+02  0.19627592084E+03  0.00000000000E+00 0.  1.
        -15    1    3    3    0    0  0.42754301153E+02 -0.21924892109E+02 -0.15942900083E+03  0.16652145566E+03  0.17770000000E+01 0.  1.
         15    1    3    3    0    0 -0.38749083178E+02  0.14965217726E+02 -0.18827175200E+03  0.19280783054E+03  0.17770000000E+01 0. -1.
</event>
<event>
 7    1  0.3260141E-006  0.4397785E+03  0.7546771E-02  0.9545660E-01
        -11   -1    0    0    0    0  0.00000000000E+00  0.00000000000E+00  0.50000000000E+03  0.50000000000E+03  0.00000000000E+00 0.  1.
         11   -1    0    0    0    0 -0.00000000000E+00 -0.00000000000E+00 -0.50000000000E+03  0.50000000000E+03  0.00000000000E+00 0. -1.
         23    2    1    2    0    0  0.10335579003E+03  0.13509465971E+02  0.38598407927E+03  0.41003463557E+03  0.90993230017E+02 0.  0.
        -11    1    1    2    0    0 -0.62681536576E+02  0.74959807277E+02  0.72235009241E+02  0.12151479044E+03  0.00000000000E+00 0.  1.
         11    1    1    2    0    0 -0.40674253456E+02 -0.88469273248E+02 -0.45821908851E+03  0.46845057400E+03  0.00000000000E+00 0. -1.
        -15    1    3    3    0    0  0.69786922143E+02  0.20290135067E+02  0.35930576736E+03  0.36658654677E+03  0.17770000000E+01 0.  1.
         15    1    3    3    0    0  0.33568867889E+02 -0.67806690953E+01  0.26678311906E+02  0.43448088795E+02  0.17770000000E+01 0. -1.
</event>
<event>
 7    1  0.3260141E-006  0.3455054E+03  0.7546771E-02  0.9832714E-01
        -11   -1    0    0    0    0  0.00000000000E+00  0.00000000000E+00  0.50000000000E+03  0.50000000000E+03  0.00000000000E+00 0. -1.
         11   -1    0    0    0    0 -0.00000000000E+00 -0.00000000000E+00 -0.50000000000E+03  0.50000000000E+03  0.00000000000E+00 0.  1.
         23    2    1    2    0    0  0.18813093292E+03 -0.86358266671E+02  0.32833760588E+03  0.39886214046E+03  0.91839128436E+02 0.  0.
        -11    1    1    2    0    0 -0.21449158032E+03  0.16344699137E+03 -0.71347593531E+01  0.26976371477E+03  0.00000000000E+00 0. -1.
         11    1    1    2    0    0  0.26360647395E+02 -0.77088724701E+02 -0.32120284653E+03  0.33137414477E+03  0.00000000000E+00 0.  1.
        -15    1    3    3    0    0  0.81792384698E+02 -0.37532976019E+02  0.22650293279E+03  0.24373234249E+03  0.17770000000E+01 0. -1.
         15    1    3    3    0    0  0.10633854822E+03 -0.48825290652E+02  0.10183467308E+03  0.15512979797E+03  0.17770000000E+01 0.  1.
</event>
<event>
 7    1  0.3260141E-006  0.5147008E+03  0.7546771E-02  0.9367503E-01
        -11   -1    0    0    0    0  0.00000000000E+00  0.00000000000E+00  0.50000000000E+03  0.50000000000E+03  0.00000000000E+00 0. -1.
         11   -1    0    0    0    0 -0.00000000000E+00 -0.00000000000E+00 -0.50000000000E+03  0.50000000000E+03  0.00000000000E+00 0. -1.
         23    2    1    2    0    0 -0.68396021346E+01 -0.38951948002E+02  0.47523398763E+03  0.48529920593E+03  0.90021896598E+02 0.  0.
        -11    1    1    2    0    0 -0.50028138483E+02  0.94530295839E+02 -0.18419170480E+03  0.21299149182E+03  0.00000000000E+00 0. -1.
         11    1    1    2    0    0  0.56867740618E+02 -0.55578347837E+02 -0.29104228283E+03  0.30170930225E+03  0.00000000000E+00 0. -1.
        -15    1    3    3    0    0 -0.32376842197E+02 -0.57775217678E+02  0.30298194667E+03  0.31014102184E+03  0.17770000000E+01 0. -1.
         15    1    3    3    0    0  0.25537240062E+02  0.18823269676E+02  0.17225204096E+03  0.17515818409E+03  0.17770000000E+01 0.  1.
</event>
<event>
 7    1  0.3260141E-006  0.4573376E+03  0.7546771E-02  0.9500681E-01
        -11   -1    0    0    0    0  0.00000000000E+00  0.00000000000E+00  0.50000000000E+03  0.50000000000E+03  0.00000000000E+00 0.  1.
         11   -1    0    0    0    0 -0.00000000000E+00 -0.00000000000E+00 -0.50000000000E+03  0.50000000000E+03  0.00000000000E+00 0. -1.
         23    2    1    2    0    0 -0.15369931728E+03 -0.56206654300E+02  0.40700034284E+03  0.44814052679E+03  0.91640518111E+02 0.  0.
        -11    1    1    2    0    0  0.77205449095E+02 -0.20145038456E+02  0.41906307417E+02  0.90125704134E+02  0.00000000000E+00 0.  1.
         11    1    1    2    0    0  0.76493868189E+02  0.76351692755E+02 -0.44890665026E+03  0.46173376907E+03  0.00000000000E+00 0. -1.
        -15    1    3    3    0    0 -0.13679282784E+03 -0.55512611891E+02  0.40492529346E+03  0.43100067151E+03  0.17770000000E+01 0.  1.
         15    1    3    3    0    0 -0.16906489446E+02 -0.69404240883E+00  0.20750493805E+01  0.17139855284E+02  0.17770000000E+01 0. -1.
</event>
<event>
 7    1  0.3260141E-006  0.4607744E+03  0.7546771E-02  0.9492128E-01
        -11   -1    0    0    0    0  0.00000000000E+00  0.00000000000E+00  0.50000000000E+03  0.50000000000E+03  0.00000000000E+00 0. -1.
         11   -1    0    0    0    0 -0.00000000000E+00 -0.00000000000E+00 -0.50000000000E+03  0.50000000000E+03  0.00000000000E+00 0.  1.
         23    2    1    2    0    0  0.14131807213E+02 -0.25961421087E+02  0.42992772413E+03  0.44040494474E+03  0.90801784177E+02 0.  0.
        -11    1    1    2    0    0  0.59205428652E+02 -0.48016761715E+02  0.34468007636E+02  0.83659642229E+02  0.00000000000E+00 0. -1.
         11    1    1    2    0    0 -0.73337235865E+02  0.73978182802E+02 -0.46439573177E+03  0.47593541303E+03  0.00000000000E+00 0.  1.
        -15    1    3    3    0    0 -0.37632110985E+02 -0.31279025120E+01  0.20555791602E+03  0.20900520117E+03  0.17770000000E+01 0.  1.
         15    1    3    3    0    0  0.51763918198E+02 -0.22833518575E+02  0.22436980812E+03  0.23139974356E+03  0.17770000000E+01 0. -1.
</event>
<event>
 7    1  0.3260141E-006  0.3621185E+03  0.7546771E-02  0.9775466E-01
        -11   -1    0    0    0    0  0.00000000000E+00  0.00000000000E+00  0.50000000000E+03  0.50000000000E+03  0.00000000000E+00 0.  1.
         11   -1    0    0    0    0 -0.00000000000E+00 -0.00000000000E+00 -0.50000000000E+03  0.50000000000E+03  0.00000000000E+00 0. -1.
         23    2    1    2    0    0  0.24395120012E+02 -0.12800308251E+03  0.25098589245E+03  0.29762385412E+03  0.92769226149E+02 0.  0.
        -11    1    1    2    0    0 -0.13793358265E+03  0.79781365807E+02  0.18796759982E+03  0.24641947596E+03  0.00000000000E+00 0.  1.
         11    1    1    2    0    0  0.11353846264E+03  0.48221716707E+02 -0.43895349227E+03  0.45595666991E+03  0.00000000000E+00 0. -1.
        -15    1    3    3    0    0  0.32486324945E+02 -0.13804438014E+03  0.20119132329E+03  0.24615588251E+03  0.17770000000E+01 0. -1.
         15    1    3    3    0    0 -0.80912049334E+01  0.10041297627E+02  0.49794569158E+02  0.51467971613E+02  0.17770000000E+01 0.  1.
</event>
<event>
 7    1  0.3260141E-006  0.5166020E+03  0.7546771E-02  0.9363409E-01
        -11   -1    0    0    0    0  0.00000000000E+00  0.00000000000E+00  0.50000000000E+03  0.50000000000E+03  0.00000000000E+00 0. -1.
         11   -1    0    0    0    0 -0.00000000000E+00 -0.00000000000E+00 -0.50000000000E+03  0.50000000000E+03  0.00000000000E+00 0.  1.
         23    2    1    2    0    0 -0.11431858773E+03 -0.59422324207E+01 -0.35373214723E+03  0.38288000875E+03  0.91469227032E+02 0.  0.
        -11    1    1    2    0    0  0.78997490934E+02 -0.36577389872E+02  0.47549455784E+03  0.48339795568E+03  0.00000000000E+00 0. -1.
         11    1    1    2    0    0  0.35321096795E+02  0.42519622293E+02 -0.12176241061E+03  0.13372203557E+03  0.00000000000E+00 0.  1.
        -15    1    3    3    0    0  0.71362974735E+01 -0.15150751333E+02 -0.10014921721E+03  0.10155538117E+03  0.17770000000E+01 0.  1.
         15    1    3    3    0    0 -0.12145488520E+03  0.92085189119E+01 -0.25358293002E+03  0.28132462758E+03  0.17770000000E+01 0. -1.
</event>
<event>
 7    1  0.3260141E-006  0.5127353E+03  0.7546771E-02  0.9371756E-01
        -11   -1    0    0    0    0  0.00000000000E+00  0.00000000000E+00  0.50000000000E+03  0.50000000000E+03  0.00000000000E+00 0.  1.
         11   -1    0    0    0    0 -0.00000000000E+00 -0.00000000000E+00 -0.50000000000E+03  0.50000000000E+03  0.00000000000E+00 0. -1.
         23    2    1    2    0    0  0.48023459159E+01  0.67006240915E+02  0.39197800439E+03  0.40875794858E+03  0.94463780104E+02 0.  0.
        -11    1    1    2    0    0  0.56014186073E+02 -0.48557009266E+01  0.87464964505E+02  0.10397733834E+03  0.00000000000E+00 0.  1.
         11    1    1    2    0    0 -0.60816531989E+02 -0.62150539988E+02 -0.47944296890E+03  0.48726471308E+03  0.00000000000E+00 0. -1.
        -15    1    3    3    0    0  0.36626483282E+02  0.74342547632E+02  0.29415899266E+03  0.30561574626E+03  0.17770000000E+01 0.  1.
         15    1    3    3    0    0 -0.31824137367E+02 -0.73363067176E+01  0.97819011729E+02  0.10314220232E+03  0.17770000000E+01 0. -1.
</event>
<event>
 7    1  0.3260141E-006  0.3455407E+03  0.7546771E-02  0.9832588E-01
        -11   -1    0    0    0    0  0.00000000000E+00  0.00000000000E+00  0.50000000000E+03  0.50000000000E+03  0.00000000000E+00 0. -1.
         11   -1    0    0    0    0 -0.00000000000E+00 -0.00000000000E+00 -0.50000000000E+03  0.50000000000E+03  0.00000000000E+00 0.  1.
         23    2    1    2    0    0 -0.76260922783E+01 -0.15129230447E+03  0.20016109152E+03  0.26474113108E+03  0.84118281308E+02 0.  0.
        -11    1    1    2    0    0 -0.10058796973E+03  0.16096468088E+03  0.22619229052E+03  0.29528040984E+03  0.00000000000E+00 0. -1.
         11    1    1    2    0    0  0.10821406200E+03 -0.96723764115E+01 -0.42635338204E+03  0.43997845908E+03  0.00000000000E+00 0.  1.
        -15    1    3    3    0    0  0.18370627664E+02 -0.19439359112E+01  0.40607532782E+02  0.44647377250E+02  0.17770000000E+01 0.  1.
         15    1    3    3    0    0 -0.25996719942E+02 -0.14934836856E+03  0.15955355874E+03  0.22009375383E+03  0.17770000000E+01 0. -1.
</event>
<event>
 6    1  0.3260141E-006  0.3677131E+03  0.7546771E-02  0.9756924E-01
        -11   -1    0    0    0    0  0.00000000000E+00  0.00000000000E+00  0.50000000000E+03  0.50000000000E+03  0.00000000000E+00 0.  1.
         11   -1    0    0    0    0 -0.00000000000E+00 -0.00000000000E+00 -0.50000000000E+03  0.50000000000E+03  0.00000000000E+00 0. -1.
        -11    1    1    2    0    0  0.13428089759E+03  0.14005271148E+03  0.15463272698E+03  0.24810764136E+03  0.00000000000E+00 0.  1.
         11    1    1    2    0    0  0.78298631607E+02 -0.21883025109E+03 -0.35242478392E+03  0.42216179697E+03  0.00000000000E+00 0. -1.
        -15    1    1    2    0    0 -0.11961342334E+02 -0.58171694892E+01 -0.18482440270E+02  0.22840129129E+02  0.17770000000E+01 0.  1.
         15    1    1    2    0    0 -0.20061818686E+03  0.84594709101E+02  0.21627449721E+03  0.30689043253E+03  0.17770000000E+01 0. -1.
</event>
<event>
 7    1  0.3260141E-006  0.5286061E+03  0.7546771E-02  0.9337982E-01
        -11   -1    0    0    0    0  0.00000000000E+00  0.00000000000E+00  0.50000000000E+03  0.50000000000E+03  0.00000000000E+00 0. -1.
         11   -1    0    0    0    0 -0.00000000000E+00 -0.00000000000E+00 -0.50000000000E+03  0.50000000000E+03  0.00000000000E+00 0.  1.
         23    2    1    2    0    0  0.80217102692E+02  0.11860098936E+03 -0.27570700854E+03  0.33024405270E+03  0.11200804232E+03 0.  0.
        -11    1    1    2    0    0  0.33382715633E+01 -0.12096414754E+03  0.45559707462E+03  0.47139385173E+03  0.00000000000E+00 0. -1.
         11    1    1    2    0    0 -0.83555374255E+02  0.23631581759E+01 -0.17989006608E+03  0.19836209557E+03  0.00000000000E+00 0.  1.
        -15    1    3    3    0    0  0.45555675884E+02  0.44547338684E+02 -0.28430792429E+02  0.69794359917E+02  0.17770000000E+01 0. -1.
         15    1    3    3    0    0  0.34661426808E+02  0.74053650676E+02 -0.24727621612E+03  0.26044969279E+03  0.17770000000E+01 0.  1.
</event>
<event>
 7    1  0.3260141E-006  0.5074043E+03  0.7546771E-02  0.9383393E-01
        -11   -1    0    0    0    0  0.00000000000E+00  0.00000000000E+00  0.50000000000E+03  0.50000000000E+03  0.00000000000E+00 0.  1.
         11   -1    0    0    0    0 -0.00000000000E+00 -0.00000000000E+00 -0.50000000000E+03  0.50000000000E+03  0.00000000000E+00 0. -1.
         23    2    1    2    0    0 -0.84639603419E+02 -0.74761303422E+02  0.36629134840E+03  0.39429951764E+03  0.92464278193E+02 0.  0.
        -11    1    1    2    0    0 -0.54829011017E+02 -0.10804511321E+02  0.98334837587E+02  0.11310481067E+03  0.00000000000E+00 0.  1.
         11    1    1    2    0    0  0.13946861444E+03  0.85565814743E+02 -0.46462618598E+03  0.49259567169E+03  0.00000000000E+00 0. -1.
        -15    1    3    3    0    0 -0.11117586208E+02 -0.44214454375E+02  0.48111276208E+02  0.66305138007E+02  0.17770000000E+01 0. -1.
         15    1    3    3    0    0 -0.73522017211E+02 -0.30546849047E+02  0.31818007219E+03  0.32799437963E+03  0.17770000000E+01 0.  1.
</event>
<event>
 7    1  0.3260141E-006  0.4378979E+03  0.7546771E-02  0.9550610E-01
        -11   -1    0    0    0    0  0.00000000000E+00  0.00000000000E+00  0.50000000000E+03  0.50000000000E+03  0.00000000000E+00 0.  1.
         11   -1    0    0    0    0 -0.00000000000E+00 -0.00000000000E+00 -0.50000000000E+03  0.50000000000E+03  0.00000000000E+00 0. -1.
         23    2    1    2    0    0  0.25133469140E+02  0.20843841829E+03  0.37706408181E+03  0.44093063954E+03  0.90356192955E+02 0.  0.
        -11    1    1    2    0    0 -0.10717948175E+03 -0.59571704303E+02  0.22666157245E+02  0.12469957476E+03  0.00000000000E+00 0.  1.
         11    1    1    2    0    0  0.82046012606E+02 -0.14886671399E+03 -0.39973023905E+03  0.43436978570E+03  0.00000000000E+00 0. -1.
        -15    1    3    3    0    0 -0.15716743817E+02  0.33304668959E+02  0.22044166701E+02  0.42957188283E+02  0.17770000000E+01 0. -1.
         15    1    3    3    0    0  0.40850212957E+02  0.17513374933E+03  0.35501991511E+03  0.39797345126E+03  0.17770000000E+01 0.  1.
</event>
<event>
 7    1  0.3260141E-006  0.3461166E+03  0.7546771E-02  0.9830547E-01
        -11   -1    0    0    0    0  0.00000000000E+00  0.00000000000E+00  0.50000000000E+03  0.50000000000E+03  0.00000000000E+00 0. -1.
         11   -1    0    0    0    0 -0.00000000000E+00 -0.00000000000E+00 -0.50000000000E+03  0.50000000000E+03  0.00000000000E+00 0. -1.
         23    2    1    2    0    0 -0.22836802438E+03  0.21845811144E+03  0.22246132874E+03  0.39712061059E+03  0.91322700129E+02 0.  0.
        -11    1    1    2    0    0  0.20542775141E+03 -0.26003627873E+03  0.42132808038E+02  0.33405778065E+03  0.00000000000E+00 0. -1.
         11    1    1    2    0    0  0.22940272966E+02  0.41578167284E+02 -0.26459413678E+03  0.26882160876E+03  0.00000000000E+00 0. -1.
        -15    1    3    3    0    0 -0.10081499594E+03  0.15450071942E+03  0.14568281978E+03  0.23507610984E+03  0.17770000000E+01 0. -1.
         15    1    3    3    0    0 -0.12755302844E+03  0.63957392023E+02  0.76778508955E+02  0.16204450075E+03  0.17770000000E+01 0.  1.
</event>
<event>
 7    1  0.3260141E-006  0.5069430E+03  0.7546771E-02  0.9384407E-01
        -11   -1    0    0    0    0  0.00000000000E+00  0.00000000000E+00  0.50000000000E+03  0.50000000000E+03  0.00000000000E+00 0.  1.
         11   -1    0    0    0    0 -0.00000000000E+00 -0.00000000000E+00 -0.50000000000E+03  0.50000000000E+03  0.00000000000E+00 0. -1.
         23    2    1    2    0    0  0.96828437920E+02  0.11236069593E+03  0.46114963455E+03  0.49305704527E+03  0.91899902403E+02 0.  0.
        -11    1    1    2    0    0 -0.43708702620E+02 -0.75841318445E+02 -0.74469003560E+02  0.11492601428E+03  0.00000000000E+00 0.  1.
         11    1    1    2    0    0 -0.53119735300E+02 -0.36519377484E+02 -0.38668063099E+03  0.39201694045E+03  0.00000000000E+00 0. -1.
        -15    1    3    3    0    0  0.74068196832E+02  0.10302659903E+03  0.44691014389E+03  0.46457767093E+03  0.17770000000E+01 0.  1.
         15    1    3    3    0    0  0.22760241088E+02  0.93340968963E+01  0.14239490666E+02  0.28479374338E+02  0.17770000000E+01 0. -1.
</event>
<event>
 7    1  0.3260141E-006  0.3865491E+03  0.7546771E-02  0.9697001E-01
        -11   -1    0    0    0    0  0.00000000000E+00  0.00000000000E+00  0.50000000000E+03  0.50000000000E+03  0.00000000000E+00 0.  1.
         11   -1    0    0    0    0 -0.00000000000E+00 -0.00000000000E+00 -0.50000000000E+03  0.50000000000E+03  0.00000000000E+00 0.  1.
         23    2    1    2    0    0 -0.45389959848E+02 -0.15321340942E+03  0.31498300770E+03  0.36440940833E+03  0.89695732630E+02 0.  0.
        -11    1    1    2    0    0  0.12161497157E+03  0.13479128526E+03  0.10407262686E+03  0.20926061157E+03  0.00000000000E+00 0.  1.
         11    1    1    2    0    0 -0.76225011726E+02  0.18422124159E+02 -0.41905563457E+03  0.42632998010E+03  0.00000000000E+00 0.  1.
        -15    1    3    3    0    0 -0.46931949575E+01 -0.68972644576E+02  0.22188760794E+03  0.23241454357E+03  0.17770000000E+01 0. -1.
         15    1    3    3    0    0 -0.40696764890E+02 -0.84240764845E+02  0.93095399765E+02  0.13199486475E+03  0.17770000000E+01 0.  1.
</event>
<event>
 7    1  0.3260141E-006  0.5136978E+03  0.7546771E-02  0.9369671E-01
        -11   -1    0    0    0    0  0.00000000000E+00  0.00000000000E+00  0.50000000000E+03  0.50000000000E+03  0.00000000000E+00 0.  1.
         11   -1    0    0    0    0 -0.00000000000E+00 -0.00000000000E+00 -0.50000000000E+03  0.50000000000E+03  0.00000000000E+00 0. -1.
         23    2    1    2    0    0 -0.95845902734E+01  0.73545612518E+02  0.35476488022E+03  0.37394090037E+03  0.92048113700E+02 0.  0.
        -11    1    1    2    0    0 -0.75921097282E+02  0.70770793779E+01  0.11712342671E+03  0.13975691449E+03  0.00000000000E+00 0.  1.
         11    1    1    2    0    0  0.85505687556E+02 -0.80622691896E+02 -0.47188830693E+03  0.48630218514E+03  0.00000000000E+00 0. -1.
        -15    1    3    3    0    0 -0.27613168900E+02  0.68781158723E+02  0.34488401702E+03  0.35276263666E+03  0.17770000000E+01 0.  1.
         15    1    3    3    0    0  0.18028578627E+02  0.47644537949E+01  0.98808631979E+01  0.21178263711E+02  0.17770000000E+01 0. -1.
</event>
<event>
 7    1  0.3260141E-006  0.4176135E+03  0.7546771E-02  0.9605744E-01
        -11   -1    0    0    0    0  0.00000000000E+00  0.00000000000E+00  0.50000000000E+03  0.50000000000E+03  0.00000000000E+00 0.  1.
         11   -1    0    0    0    0 -0.00000000000E+00 -0.00000000000E+00 -0.50000000000E+03  0.50000000000E+03  0.00000000000E+00 0. -1.
         23    2    1    2    0    0 -0.99379161938E+01  0.11605588385E+03  0.37022070755E+02  0.15587760844E+03  0.96744326634E+02 0.  0.
        -11    1    1    2    0    0  0.18718093888E+03 -0.13449094875E+03  0.34940928945E+03  0.41858257337E+03  0.00000000000E+00 0.  1.
         11    1    1    2    0    0 -0.17724302268E+03  0.18435064892E+02 -0.38643136021E+03  0.42553981818E+03  0.00000000000E+00 0. -1.
        -15    1    3    3    0    0 -0.25296616709E+02  0.12880122877E+03  0.30120666086E+02  0.13468514247E+03  0.17770000000E+01 0.  1.
         15    1    3    3    0    0  0.15358700516E+02 -0.12745344913E+02  0.69014046682E+01  0.21192465970E+02  0.17770000000E+01 0. -1.
</event>
<event>
 7    1  0.3260141E-006  0.4311962E+03  0.7546771E-02  0.9568467E-01
        -11   -1    0    0    0    0  0.00000000000E+00  0.00000000000E+00  0.50000000000E+03  0.50000000000E+03  0.00000000000E+00 0. -1.
         11   -1    0    0    0    0 -0.00000000000E+00 -0.00000000000E+00 -0.50000000000E+03  0.50000000000E+03  0.00000000000E+00 0. -1.
         23    2    1    2    0    0  0.78626333846E+02  0.21149051957E-01  0.41568303589E+03  0.43281027418E+03  0.91379682048E+02 0.  0.
        -11    1    1    2    0    0 -0.47670054660E+02 -0.12782341113E+03 -0.55985666358E+01  0.13653791595E+03  0.00000000000E+00 0. -1.
         11    1    1    2    0    0 -0.30956279186E+02  0.12780226208E+03 -0.41008446925E+03  0.43065180986E+03  0.00000000000E+00 0. -1.
        -15    1    3    3    0    0 -0.17339139443E+01  0.18628754451E+02  0.15944255247E+02  0.24645769502E+02  0.17770000000E+01 0.  1.
         15    1    3    3    0    0  0.80360247790E+02 -0.18607605399E+02  0.39973878064E+03  0.40816450468E+03  0.17770000000E+01 0. -1.
</event>
<event>
 7    1  0.3260141E-006  0.4069542E+03  0.7546771E-02  0.9636074E-01
        -11   -1    0    0    0    0  0.00000000000E+00  0.00000000000E+00  0.50000000000E+03  0.50000000000E+03  0.00000000000E+00 0. -1.
         11   -1    0    0    0    0 -0.00000000000E+00 -0.00000000000E+00 -0.50000000000E+03  0.50000000000E+03  0.00000000000E+00 0.  1.
         23    2    1    2    0    0  0.23082242230E+02  0.12967888531E+03  0.65756066501E+02  0.17288452514E+03  0.90641025749E+02 0.  0.
        -11    1    1    2    0    0 -0.18228470423E+03 -0.19435996934E+02  0.33508368954E+03  0.38195097901E+03  0.00000000000E+00 0. -1.
         11    1    1    2    0    0  0.15920246200E+03 -0.11024288837E+03 -0.40083975604E+03  0.44516449585E+03  0.00000000000E+00 0.  1.
        -15    1    3    3    0    0  0.31862725711E+02  0.23408319804E+02 -0.11477843329E+02  0.41207782545E+02  0.17770000000E+01 0.  1.
         15    1    3    3    0    0 -0.87804834819E+01  0.10627056550E+03  0.77233909830E+02  0.13167674259E+03  0.17770000000E+01 0. -1.
</event>
<event>
 7    1  0.3260141E-006  0.5132328E+03  0.7546771E-02  0.9370678E-01
        -11   -1    0    0    0    0  0.00000000000E+00  0.00000000000E+00  0.50000000000E+03  0.50000000000E+03  0.00000000000E+00 0. -1.
         11   -1    0    0    0    0 -0.00000000000E+00 -0.00000000000E+00 -0.50000000000E+03  0.50000000000E+03  0.00000000000E+00 0.  1.
         23    2    1    2    0    0 -0.51712225130E+02  0.12119643110E+03 -0.21252469831E+03  0.26561343421E+03  0.89560146837E+02 0.  0.
        -11    1    1    2    0    0  0.37334698456E+02 -0.16841948620E+03  0.45517389747E+03  0.48676717225E+03  0.00000000000E+00 0. -1.
         11    1    1    2    0    0  0.14377526674E+02  0.47223055102E+02 -0.24264919916E+03  0.24761939354E+03  0.00000000000E+00 0.  1.
        -15    1    3    3    0    0 -0.76037361630E+02  0.82342291510E+02 -0.13434015253E+03  0.17496390384E+03  0.17770000000E+01 0.  1.
         15    1    3    3    0    0  0.24325136500E+02  0.38854139585E+02 -0.78184545783E+02  0.90649530373E+02  0.17770000000E+01 0. -1.
</event>
<event>
 7    1  0.3260141E-006  0.5157334E+03  0.7546771E-02  0.9365277E-01
        -11   -1    0    0    0    0  0.00000000000E+00  0.00000000000E+00  0.50000000000E+03  0.50000000000E+03  0.00000000000E+00 0. -1.
         11   -1    0    0    0    0 -0.00000000000E+00 -0.00000000000E+00 -0.50000000000E+03  0.50000000000E+03  0.00000000000E+00 0.  1.
         23    2    1    2    0    0 -0.38416178511E+02  0.29816782766E+02  0.13353425381E+03  0.16906970677E+03  0.91587802140E+02 0.  0.
        -11    1    1    2    0    0 -0.90364726429E+02  0.16929289459E+03  0.28870375796E+03  0.34666370996E+03  0.00000000000E+00 0. -1.
         11    1    1    2    0    0  0.12878090494E+03 -0.19910967736E+03 -0.42223801177E+03  0.48426658327E+03  0.00000000000E+00 0.  1.
        -15    1    3    3    0    0 -0.42044556160E+02  0.27926670964E+01  0.11082671362E+02  0.43606502104E+02  0.17770000000E+01 0.  1.
         15    1    3    3    0    0  0.36283776496E+01  0.27024115670E+02  0.12245158244E+03  0.12546320466E+03  0.17770000000E+01 0. -1.
</event>
<event>
 7    1  0.3260141E-006  0.3749752E+03  0.7546771E-02  0.9733375E-01
        -11   -1    0    0    0    0  0.00000000000E+00  0.00000000000E+00  0.50000000000E+03  0.50000000000E+03  0.00000000000E+00 0.  1.
         11   -1    0    0    0    0 -0.00000000000E+00 -0.00000000000E+00 -0.50000000000E+03  0.50000000000E+03  0.00000000000E+00 0. -1.
         23    2    1    2    0    0  0.14996141569E+03 -0.17226639715E+03  0.27517569965E+03  0.36904837748E+03  0.91164145701E+02 0.  0.
        -11    1    1    2    0    0  0.44255425292E+02  0.20911153168E+03  0.76916339372E+02  0.22716139331E+03  0.00000000000E+00 0.  1.
         11    1    1    2    0    0 -0.19421684098E+03 -0.36845134528E+02 -0.35209203902E+03  0.40379022920E+03  0.00000000000E+00 0. -1.
        -15    1    3    3    0    0  0.41193835716E+01  0.10529945044E+02  0.19039881197E+02  0.22215397108E+02  0.17770000000E+01 0. -1.
         15    1    3    3    0    0  0.14584203212E+03 -0.18279634220E+03  0.25613581845E+03  0.34683298037E+03  0.17770000000E+01 0.  1.
</event>
<event>
 7    1  0.3260141E-006  0.3939483E+03  0.7546771E-02  0.9674453E-01
        -11   -1    0    0    0    0  0.00000000000E+00  0.00000000000E+00  0.50000000000E+03  0.50000000000E+03  0.00000000000E+00 0.  1.
         11   -1    0    0    0    0 -0.00000000000E+00 -0.00000000000E+00 -0.50000000000E+03  0.50000000000E+03  0.00000000000E+00 0. -1.
         23    2    1    2    0    0 -0.77159963496E+02  0.14604780819E+03 -0.42767766006E+02  0.19384017797E+03  0.91985382212E+02 0.  0.
        -11    1    1    2    0    0  0.17566258301E+03 -0.31190309423E+02  0.38918990640E+03  0.42813428000E+03  0.00000000000E+00 0.  1.
         11    1    1    2    0    0 -0.98502619514E+02 -0.11485749877E+03 -0.34642214039E+03  0.37802554203E+03  0.00000000000E+00 0. -1.
        -15    1    3    3    0    0 -0.76807600042E+02  0.70667031588E+02  0.51283164740E+01  0.10451169378E+03  0.17770000000E+01 0. -1.
         15    1    3    3    0    0 -0.35236345424E+00  0.75380776602E+02 -0.47896082480E+02  0.89328484187E+02  0.17770000000E+01 0.  1.
</event>
<event>
 7    1  0.3260141E-006  0.4669183E+03  0.7546771E-02  0.9477036E-01
        -11   -1    0    0    0    0  0.00000000000E+00  0.00000000000E+00  0.50000000000E+03  0.50000000000E+03  0.00000000000E+00 0.  1.
         11   -1    0    0    0    0 -0.00000000000E+00 -0.00000000000E+00 -0.50000000000E+03  0.50000000000E+03  0.00000000000E+00 0.  1.
         23    2    1    2    0    0  0.36356015687E+02 -0.13591781859E+03  0.42519251019E+03  0.45718003890E+03  0.91812330080E+02 0.  0.
        -11    1    1    2    0    0 -0.61647773443E+02  0.22585754914E+02  0.30623490208E+02  0.72445582667E+02  0.00000000000E+00 0.  1.
         11    1    1    2    0    0  0.25291757756E+02  0.11333206368E+03 -0.45581600040E+03  0.47037437844E+03  0.00000000000E+00 0.  1.
        -15    1    3    3    0    0  0.66238804246E+02 -0.10906126812E+03  0.31422987362E+03  0.33915411039E+03  0.17770000000E+01 0.  1.
         15    1    3    3    0    0 -0.29882788559E+02 -0.26856550474E+02  0.11096263658E+03  0.11802592851E+03  0.17770000000E+01 0. -1.
</event>
<event>
 7    1  0.3260141E-006  0.4002729E+03  0.7546771E-02  0.9655595E-01
        -11   -1    0    0    0    0  0.00000000000E+00  0.00000000000E+00  0.50000000000E+03  0.50000000000E+03  0.00000000000E+00 0.  1.
         11   -1    0    0    0    0 -0.00000000000E+00 -0.00000000000E+00 -0.50000000000E+03  0.50000000000E+03  0.00000000000E+00 0.  1.
         23    2    1    2    0    0  0.57553009443E+02 -0.27589010784E+03  0.34878943863E+03  0.45770325459E+03  0.91708757838E+02 0.  0.
        -11    1    1    2    0    0 -0.98060125896E+02  0.15957227745E+03 -0.16623914260E+02  0.18803046175E+03  0.00000000000E+00 0.  1.
         11    1    1    2    0    0  0.40507116453E+02  0.11631783039E+03 -0.33216552437E+03  0.35426628365E+03  0.00000000000E+00 0.  1.
        -15    1    3    3    0    0  0.60136204631E+02 -0.79345397713E+02  0.12588675469E+03  0.16050759478E+03  0.17770000000E+01 0. -1.
         15    1    3    3    0    0 -0.25831951875E+01 -0.19654471013E+03  0.22290268394E+03  0.29719565981E+03  0.17770000000E+01 0.  1.
</event>
<event>
 7    1  0.3260141E-006  0.4221829E+03  0.7546771E-02  0.9593037E-01
        -11   -1    0    0    0    0  0.00000000000E+00  0.00000000000E+00  0.50000000000E+03  0.50000000000E+03  0.00000000000E+00 0.  1.
         11   -1    0    0    0    0 -0.00000000000E+00 -0.00000000000E+00 -0.50000000000E+03  0.50000000000E+03  0.00000000000E+00 0. -1.
         23    2    1    2    0    0  0.15583013406E+03 -0.67777994045E+02  0.35450425809E+03  0.40327925654E+03  0.89911081626E+02 0.  0.
        -11    1    1    2    0    0  0.13986517476E+03  0.54281964777E+02 -0.22139210314E+02  0.15165402548E+03  0.00000000000E+00 0.  1.
         11    1    1    2    0    0 -0.29569530882E+03  0.13496029269E+02 -0.33236504777E+03  0.44506671797E+03  0.00000000000E+00 0. -1.
        -15    1    3    3    0    0  0.15316516378E+02 -0.19302824150E+02  0.75686428899E+01  0.25838668277E+02  0.17770000000E+01 0. -1.
         15    1    3    3    0    0  0.14051361768E+03 -0.48475169895E+02  0.34693561520E+03  0.37744058827E+03  0.17770000000E+01 0.  1.
</event>
<event>
 7    1  0.3260141E-006  0.4892688E+03  0.7546771E-02  0.9424147E-01
        -11   -1    0    0    0    0  0.00000000000E+00  0.00000000000E+00  0.50000000000E+03  0.50000000000E+03  0.00000000000E+00 0. -1.
         11   -1    0    0    0    0 -0.00000000000E+00 -0.00000000000E+00 -0.50000000000E+03  0.50000000000E+03  0.00000000000E+00 0. -1.
         23    2    1    2    0    0  0.20240257151E+03  0.66157935510E+02 -0.42270544160E+03  0.48191783873E+03  0.90671051261E+02 0.  0.
        -11    1    1    2    0    0 -0.18755919264E+03 -0.80189115562E+02  0.44397553316E+03  0.48859289704E+03  0.00000000000E+00 0. -1.
         11    1    1    2    0    0 -0.14843378874E+02  0.14031180052E+02 -0.21270091554E+02  0.29489264229E+02  0.00000000000E+00 0. -1.
        -15    1    3    3    0    0  0.20514053794E+03  0.45939036578E+02 -0.39504342932E+03  0.44749916666E+03  0.17770000000E+01 0. -1.
         15    1    3    3    0    0 -0.27379664227E+01  0.20218898931E+02 -0.27662012286E+02  0.34418672067E+02  0.17770000000E+01 0.  1.
</event>
<event>
 7    1  0.3260141E-006  0.3949556E+03  0.7546771E-02  0.9671424E-01
        -11   -1    0    0    0    0  0.00000000000E+00  0.00000000000E+00  0.50000000000E+03  0.50000000000E+03  0.00000000000E+00 0.  1.
         11   -1    0    0    0    0 -0.00000000000E+00 -0.00000000000E+00 -0.50000000000E+03  0.50000000000E+03  0.00000000000E+00 0.  1.
         23    2    1    2    0    0  0.12507723975E+03  0.69354764704E+02 -0.89482787733E+02  0.19227410711E+03  0.92237539397E+02 0.  0.
        -11    1    1    2    0    0  0.29947124085E+03 -0.81380265097E+02  0.19958057259E+03  0.36896907269E+03  0.00000000000E+00 0.  1.
         11    1    1    2    0    0 -0.42454848060E+03  0.12025500393E+02 -0.11009778485E+03  0.43875682020E+03  0.00000000000E+00 0.  1.
        -15    1    3    3    0    0  0.25699027992E+01 -0.16368304528E+02  0.22990329474E+01  0.16821684666E+02  0.17770000000E+01 0. -1.
         15    1    3    3    0    0  0.12250733695E+03  0.85723069231E+02 -0.91781820680E+02  0.17545242245E+03  0.17770000000E+01 0.  1.
</event>
<event>
 7    1  0.3260141E-006  0.3134056E+03  0.7546771E-02  0.9953787E-01
        -11   -1    0    0    0    0  0.00000000000E+00  0.00000000000E+00  0.50000000000E+03  0.50000000000E+03  0.00000000000E+00 0. -1.
         11   -1    0    0    0    0 -0.00000000000E+00 -0.00000000000E+00 -0.50000000000E+03  0.50000000000E+03  0.00000000000E+00 0.  1.
         23    2    1    2    0    0  0.20806853901E+03 -0.17717965120E+03  0.10163321414E+03  0.30869202702E+03  0.10137214411E+03 0.  0.
        -11    1    1    2    0    0 -0.28158584161E+03  0.31178204237E+02  0.20098751974E+03  0.34735953954E+03  0.00000000000E+00 0. -1.
         11    1    1    2    0    0  0.73517302600E+02  0.14600144697E+03 -0.30262073388E+03  0.34394843345E+03  0.00000000000E+00 0.  1.
        -15    1    3    3    0    0  0.23823902489E+02 -0.42161654710E+02 -0.16924802556E+02  0.51330206782E+02  0.17770000000E+01 0. -1.
         15    1    3    3    0    0  0.18424463652E+03 -0.13501799649E+03  0.11855801669E+03  0.25736182024E+03  0.17770000000E+01 0.  1.
</event>
<event>
 7    1  0.3260141E-006  0.5120705E+03  0.7546771E-02  0.9373199E-01
        -11   -1    0    0    0    0  0.00000000000E+00  0.00000000000E+00  0.50000000000E+03  0.50000000000E+03  0.00000000000E+00 0.  1.
         11   -1    0    0    0    0 -0.00000000000E+00 -0.00000000000E+00 -0.50000000000E+03  0.50000000000E+03  0.00000000000E+00 0. -1.
         23    2    1    2    0    0  0.34192305869E+02  0.28442337898E+02  0.28973280009E+03  0.30705804452E+03  0.91441056922E+02 0.  0.
        -11    1    1    2    0    0  0.96276820468E+02 -0.16223039281E+02  0.18027114693E+03  0.20501243762E+03  0.00000000000E+00 0.  1.
         11    1    1    2    0    0 -0.13046912634E+03 -0.12219298617E+02 -0.47000394702E+03  0.48792951786E+03  0.00000000000E+00 0. -1.
        -15    1    3    3    0    0 -0.23788636280E+02 -0.49295977704E+01  0.28996282427E+02  0.37870070951E+02  0.17770000000E+01 0.  1.
         15    1    3    3    0    0  0.57980942148E+02  0.33371935669E+02  0.26073651766E+03  0.26918797357E+03  0.17770000000E+01 0. -1.
</event>
<event>
 7    1  0.3260141E-006  0.5217455E+03  0.7546771E-02  0.9352425E-01
        -11   -1    0    0    0    0  0.00000000000E+00  0.00000000000E+00  0.50000000000E+03  0.50000000000E+03  0.00000000000E+00 0.  1.
         11   -1    0    0    0    0 -0.00000000000E+00 -0.00000000000E+00 -0.50000000000E+03  0.50000000000E+03  0.00000000000E+00 0. -1.
         23    2    1    2    0    0  0.78980898942E+02 -0.68820298131E+02  0.22194056051E+03  0.26374808424E+03  0.96598259347E+02 0.  0.
        -11    1    1    2    0    0 -0.75713470687E+02 -0.46082862729E+02  0.24229425039E+03  0.25799741017E+03  0.00000000000E+00 0.  1.
         11    1    1    2    0    0 -0.32674282553E+01  0.11490316086E+03 -0.46423481090E+03  0.47825450559E+03  0.00000000000E+00 0. -1.
        -15    1    3    3    0    0 -0.72349208654E+01  0.13255878121E+02  0.45123567647E+01  0.15861320161E+02  0.17770000000E+01 0. -1.
         15    1    3    3    0    0  0.86215819808E+02 -0.82076176252E+02  0.21742820375E+03  0.24788676408E+03  0.17770000000E+01 0.  1.
</event>
<event>
 7    1  0.3260141E-006  0.5179326E+03  0.7546771E-02  0.9360555E-01
        -11   -1    0    0    0    0  0.00000000000E+00  0.00000000000E+00  0.50000000000E+03  0.50000000000E+03  0.00000000000E+00 0. -1.
         11   -1    0    0    0    0 -0.00000000000E+00 -0.00000000000E+00 -0.50000000000E+03  0.50000000000E+03  0.00000000000E+00 0.  1.
         23    2    1    2    0    0  0.23104561510E+02 -0.39892427286E+02 -0.10602450832E+03  0.13501554119E+03  0.69733589327E+02 0.  0.
        -11    1    1    2    0    0 -0.21716304634E+03 -0.25200482963E+02  0.42964418186E+03  0.48206739782E+03  0.00000000000E+00 0. -1.
         11    1    1    2    0    0  0.19405848483E+03  0.65092910249E+02 -0.32361967354E+03  0.38291706099E+03  0.00000000000E+00 0.  1.
        -15    1    3    3    0    0  0.12423218298E+02  0.19204472695E+02 -0.22556997980E+02  0.32173343178E+02  0.17770000000E+01 0.  1.
         15    1    3    3    0    0  0.10681343211E+02 -0.59096899981E+02 -0.83467510339E+02  0.10284219801E+03  0.17770000000E+01 0. -1.
</event>
<event>
 7    1  0.3260141E-006  0.5222030E+03  0.7546771E-02  0.9351455E-01
        -11   -1    0    0    0    0  0.00000000000E+00  0.00000000000E+00  0.50000000000E+03  0.50000000000E+03  0.00000000000E+00 0.  1.
         11   -1    0    0    0    0 -0.00000000000E+00 -0.00000000000E+00 -0.50000000000E+03  0.50000000000E+03  0.00000000000E+00 0.  1.
         23    2    1    2    0    0  0.45182028950E+02  0.18785269273E+01  0.32492458244E+03  0.34134258814E+03  0.94307123827E+02 0.  0.
        -11    1    1    2    0    0 -0.54529372817E+02  0.97299287482E+02  0.14237231145E+03  0.18086038514E+03  0.00000000000E+00 0.  1.
         11    1    1    2    0    0  0.93473438665E+01 -0.99177814409E+02 -0.46729689389E+03  0.47779702672E+03  0.00000000000E+00 0.  1.
        -15    1    3    3    0    0  0.43697620503E+01 -0.30991218964E+02  0.36161310842E+02  0.47857586693E+02  0.17770000000E+01 0. -1.
         15    1    3    3    0    0  0.40812266900E+02  0.32869745892E+02  0.28876327159E+03  0.29348500145E+03  0.17770000000E+01 0.  1.
</event>
<event>
 7    1  0.3260141E-006  0.5376531E+03  0.7546771E-02  0.9319288E-01
        -11   -1    0    0    0    0  0.00000000000E+00  0.00000000000E+00  0.50000000000E+03  0.50000000000E+03  0.00000000000E+00 0.  1.
         11   -1    0    0    0    0 -0.00000000000E+00 -0.00000000000E+00 -0.50000000000E+03  0.50000000000E+03  0.00000000000E+00 0. -1.
         23    2    1    2    0    0 -0.49089696846E+02 -0.61967733623E+02 -0.40679573737E+02  0.12772582952E+03  0.91702025384E+02 0.  0.
        -11    1    1    2    0    0  0.11684316110E+03  0.48203689938E+02  0.44473447980E+03  0.46234692336E+03  0.00000000000E+00 0.  1.
         11    1    1    2    0    0 -0.67753464251E+02  0.13764043685E+02 -0.40405490606E+03  0.40992724712E+03  0.00000000000E+00 0. -1.
        -15    1    3    3    0    0 -0.50903734807E+02 -0.81796820308E+02 -0.46377045091E+02  0.10693875850E+03  0.17770000000E+01 0. -1.
         15    1    3    3    0    0  0.18140379609E+01  0.19829086685E+02  0.56974713534E+01  0.20787071013E+02  0.17770000000E+01 0.  1.
</event>
<event>
 7    1  0.3260141E-006  0.5058676E+03  0.7546771E-02  0.9386775E-01
        -11   -1    0    0    0    0  0.00000000000E+00  0.00000000000E+00  0.50000000000E+03  0.50000000000E+03  0.00000000000E+00 0.  1.
         11   -1    0    0    0    0 -0.00000000000E+00 -0.00000000000E+00 -0.50000000000E+03  0.50000000000E+03  0.00000000000E+00 0. -1.
         23    2    1    2    0    0 -0.18150189830E+03 -0.15443358241E+03  0.41680840436E+03  0.49413235923E+03  0.11681126670E+03 0.  0.
        -11    1    1    2    0    0  0.14514608722E+02  0.96492569381E+02 -0.82799343226E+02  0.12797351699E+03  0.00000000000E+00 0.  1.
         11    1    1    2    0    0  0.16698728957E+03  0.57941013029E+02 -0.33400906113E+03  0.37789412378E+03  0.00000000000E+00 0. -1.
        -15    1    3    3    0    0 -0.75724861519E+02 -0.13667026597E+03  0.21781475195E+03  0.26806611153E+03  0.17770000000E+01 0.  1.
         15    1    3    3    0    0 -0.10577703678E+03 -0.17763316435E+02  0.19899365241E+03  0.22606624770E+03  0.17770000000E+01 0. -1.
</event>
<event>
 7    1  0.3260141E-006  0.5370737E+03  0.7546771E-02  0.9320474E-01
        -11   -1    0    0    0    0  0.00000000000E+00  0.00000000000E+00  0.50000000000E+03  0.50000000000E+03  0.00000000000E+00 0.  1.
         11   -1    0    0    0    0 -0.00000000000E+00 -0.00000000000E+00 -0.50000000000E+03  0.50000000000E+03  0.00000000000E+00 0. -1.
         23    2    1    2    0    0  0.51159013184E+02 -0.60969948677E+02  0.14705558505E+03  0.19060203619E+03  0.91483396485E+02 0.  0.
        -11    1    1    2    0    0 -0.88455372313E+02  0.12837430800E+03  0.30941607734E+03  0.34647167959E+03  0.00000000000E+00 0.  1.
         11    1    1    2    0    0  0.37296359129E+02 -0.67404359326E+02 -0.45647166239E+03  0.46292628422E+03  0.00000000000E+00 0. -1.
        -15    1    3    3    0    0 -0.17372000665E+02 -0.35341017172E+02  0.88465455723E+02  0.96850753673E+02  0.17770000000E+01 0.  1.
         15    1    3    3    0    0  0.68531013850E+02 -0.25628931505E+02  0.58590129328E+02  0.93751282514E+02  0.17770000000E+01 0. -1.
</event>
<event>
 7    1  0.3260141E-006  0.3574388E+03  0.7546771E-02  0.9791254E-01
        -11   -1    0    0    0    0  0.00000000000E+00  0.00000000000E+00  0.50000000000E+03  0.50000000000E+03  0.00000000000E+00 0. -1.
         11   -1    0    0    0    0 -0.00000000000E+00 -0.00000000000E+00 -0.50000000000E+03  0.50000000000E+03  0.00000000000E+00 0.  1.
         23    2    1    2    0    0  0.47333009812E+02  0.14233437470E+03  0.23999573147E+03  0.29823868332E+03  0.94068448828E+02 0.  0.
        -11    1    1    2    0    0  0.34583794684E+02 -0.15073997149E+03  0.20073532598E+03  0.25340333257E+03  0.00000000000E+00 0. -1.
         11    1    1    2    0    0 -0.81916804496E+02  0.84055967897E+01 -0.44073105745E+03  0.44835798411E+03  0.00000000000E+00 0.  1.
        -15    1    3    3    0    0 -0.20182179348E+01  0.34573859413E+02  0.49970436515E+01  0.35036454338E+02  0.17770000000E+01 0.  1.
         15    1    3    3    0    0  0.49351227746E+02  0.10776051529E+03  0.23499868782E+03  0.26320222898E+03  0.17770000000E+01 0. -1.
</event>
<event>
 7    1  0.3260141E-006  0.3079343E+03  0.7546771E-02  0.9975979E-01
        -11   -1    0    0    0    0  0.00000000000E+00  0.00000000000E+00  0.50000000000E+03  0.50000000000E+03  0.00000000000E+00 0.  1.
         11   -1    0    0    0    0 -0.00000000000E+00 -0.00000000000E+00 -0.50000000000E+03  0.50000000000E+03  0.00000000000E+00 0. -1.
         23    2    1    2    0    0 -0.14706764233E+03  0.16756738137E+03  0.21031382059E+03  0.32043692185E+03  0.93489031633E+02 0.  0.
        -11    1    1    2    0    0  0.26416012804E+03 -0.23183293102E+03  0.79595013944E+02  0.36036432592E+03  0.00000000000E+00 0.  1.
         11    1    1    2    0    0 -0.11709248571E+03  0.64265549649E+02 -0.28990883454E+03  0.31919875223E+03  0.00000000000E+00 0. -1.
        -15    1    3    3    0    0 -0.54292685402E+02  0.42907769176E+02  0.12567581791E+03  0.14347941065E+03  0.17770000000E+01 0.  1.
         15    1    3    3    0    0 -0.92774956929E+02  0.12465961219E+03  0.84638002684E+02  0.17695751121E+03  0.17770000000E+01 0. -1.
</event>
<event>
 7    1  0.3260141E-006  0.3724200E+03  0.7546771E-02  0.9741595E-01
        -11   -1    0    0    0    0  0.00000000000E+00  0.00000000000E+00  0.50000000000E+03  0.50000000000E+03  0.00000000000E+00 0.  1.
         11   -1    0    0    0    0 -0.00000000000E+00 -0.00000000000E+00 -0.50000000000E+03  0.50000000000E+03  0.00000000000E+00 0.  1.
         23    2    1    2    0    0 -0.42932616386E+02  0.24580167451E+03  0.38416099098E+03  0.46729364662E+03  0.92314746616E+02 0.  0.
        -11    1    1    2    0    0  0.14408965611E+03 -0.19081628870E+03 -0.18367262192E+03  0.30151006131E+03  0.00000000000E+00 0.  1.
         11    1    1    2    0    0 -0.10115703973E+03 -0.54985385807E+02 -0.20048836906E+03  0.23119629207E+03  0.00000000000E+00 0.  1.
        -15    1    3    3    0    0 -0.14604124786E+01  0.20662341461E+03  0.32466117366E+03  0.38484205030E+03  0.17770000000E+01 0.  1.
         15    1    3    3    0    0 -0.41472203908E+02  0.39178259893E+02  0.59499817317E+02  0.82451596316E+02  0.17770000000E+01 0. -1.
</event>
<event>
 6    1  0.3260141E-006  0.3677112E+03  0.7546771E-02  0.9756930E-01
        -11   -1    0    0    0    0  0.00000000000E+00  0.00000000000E+00  0.50000000000E+03  0.50000000000E+03  0.00000000000E+00 0. -1.
         11   -1    0    0    0    0 -0.00000000000E+00 -0.00000000000E+00 -0.50000000000E+03  0.50000000000E+03  0.00000000000E+00 0. -1.
        -11    1    1    2    0    0 -0.95425972699E+02  0.77211076886E+02  0.34439922388E+03  0.36562069426E+03  0.00000000000E+00 0. -1.
         11    1    1    2    0    0 -0.75906412375E+02  0.12960749178E+02 -0.38858694871E+03  0.39614338461E+03  0.00000000000E+00 0. -1.
        -15    1    1    2    0    0  0.94210487173E+02 -0.88020284592E+02 -0.28684058412E+02  0.13209511471E+03  0.17770000000E+01 0.  1.
         15    1    1    2    0    0  0.77121897902E+02 -0.21515414711E+01  0.72871783248E+02  0.10614080643E+03  0.17770000000E+01 0. -1.
</event>
<event>
 7    1  0.3260141E-006  0.4635908E+03  0.7546771E-02  0.9485179E-01
        -11   -1    0    0    0    0  0.00000000000E+00  0.00000000000E+00  0.50000000000E+03  0.50000000000E+03  0.00000000000E+00 0. -1.
         11   -1    0    0    0    0 -0.00000000000E+00 -0.00000000000E+00 -0.50000000000E+03  0.50000000000E+03  0.00000000000E+00 0.  1.
         23    2    1    2    0    0  0.67182551623E+01 -0.59419627579E+02  0.43494921577E+03  0.44592269991E+03  0.78041059053E+02 0.  0.
        -11    1    1    2    0    0  0.68770654705E+02 -0.76511868442E+00  0.32993196405E+02  0.76279350838E+02  0.00000000000E+00 0. -1.
         11    1    1    2    0    0 -0.75488909867E+02  0.60184746263E+02 -0.46794241218E+03  0.47779794925E+03  0.00000000000E+00 0.  1.
        -15    1    3    3    0    0  0.34688053027E+02 -0.32773255795E+01  0.13116311272E+03  0.13572369635E+03  0.17770000000E+01 0.  1.
         15    1    3    3    0    0 -0.27969797865E+02 -0.56142301999E+02  0.30378610306E+03  0.31019900355E+03  0.17770000000E+01 0. -1.
</event>
<event>
 7    1  0.3260141E-006  0.4459399E+03  0.7546771E-02  0.9529626E-01
        -11   -1    0    0    0    0  0.00000000000E+00  0.00000000000E+00  0.50000000000E+03  0.50000000000E+03  0.00000000000E+00 0.  1.
         11   -1    0    0    0    0 -0.00000000000E+00 -0.00000000000E+00 -0.50000000000E+03  0.50000000000E+03  0.00000000000E+00 0. -1.
         23    2    1    2    0    0  0.68625146695E+02 -0.16385715983E+03  0.39456276883E+03  0.44235432480E+03  0.91863978459E+02 0.  0.
        -11    1    1    2    0    0 -0.30929459821E+01  0.10196714356E+03  0.43138085511E+02  0.11075991649E+03  0.00000000000E+00 0.  1.
         11    1    1    2    0    0 -0.65532200713E+02  0.61890016268E+02 -0.43770085434E+03  0.44688575871E+03  0.00000000000E+00 0. -1.
        -15    1    3    3    0    0  0.69593733861E+02 -0.57774417837E+02  0.14149215056E+03  0.16794153015E+03  0.17770000000E+01 0. -1.
         15    1    3    3    0    0 -0.96858716633E+00 -0.10608274199E+03  0.25307061827E+03  0.27441279465E+03  0.17770000000E+01 0.  1.
</event>
<event>
 7    1  0.3260141E-006  0.5202257E+03  0.7546771E-02  0.9355657E-01
        -11   -1    0    0    0    0  0.00000000000E+00  0.00000000000E+00  0.50000000000E+03  0.50000000000E+03  0.00000000000E+00 0.  1.
         11   -1    0    0    0    0 -0.00000000000E+00 -0.00000000000E+00 -0.50000000000E+03  0.50000000000E+03  0.00000000000E+00 0. -1.
         23    2    1    2    0    0  0.41445399865E+02 -0.37117334864E+02  0.78124222831E+02  0.13294967530E+03  0.92069562023E+02 0.  0.
        -11    1    1    2    0    0  0.22468702650E+03 -0.20981297301E+03  0.23553543137E+03  0.38727597776E+03  0.00000000000E+00 0.  1.
         11    1    1    2    0    0 -0.26613242636E+03  0.24693030787E+03 -0.31365965420E+03  0.47977434694E+03  0.00000000000E+00 0. -1.
        -15    1    3    3    0    0  0.61309296839E+02  0.27454367792E+01  0.33781949757E+02  0.70076709115E+02  0.17770000000E+01 0.  1.
         15    1    3    3    0    0 -0.19863896974E+02 -0.39862771643E+02  0.44342273075E+02  0.62872966182E+02  0.17770000000E+01 0. -1.
</event>
<event>
 7    1  0.3260141E-006  0.3669772E+03  0.7546771E-02  0.9759343E-01
        -11   -1    0    0    0    0  0.00000000000E+00  0.00000000000E+00  0.50000000000E+03  0.50000000000E+03  0.00000000000E+00 0.  1.
         11   -1    0    0    0    0 -0.00000000000E+00 -0.00000000000E+00 -0.50000000000E+03  0.50000000000E+03  0.00000000000E+00 0. -1.
         23    2    1    2    0    0 -0.13718136033E+03  0.21844710340E+03  0.24912495039E+03  0.37076794561E+03  0.94168816396E+02 0.  0.
        -11    1    1    2    0    0  0.20101645755E+03 -0.74255955993E+02  0.10717280001E+03  0.23959877351E+03  0.00000000000E+00 0.  1.
         11    1    1    2    0    0 -0.63835097222E+02 -0.14419114741E+03 -0.35629775040E+03  0.38963328088E+03  0.00000000000E+00 0. -1.
        -15    1    3    3    0    0 -0.39744665025E+02  0.89582314804E+02  0.15613734463E+03  0.18435470605E+03  0.17770000000E+01 0.  1.
         15    1    3    3    0    0 -0.97436695304E+02  0.12886478859E+03  0.92987605753E+02  0.18641323956E+03  0.17770000000E+01 0. -1.
</event>
<event>
 7    1  0.3260141E-006  0.3262621E+03  0.7546771E-02  0.9903503E-01
        -11   -1    0    0    0    0  0.00000000000E+00  0.00000000000E+00  0.50000000000E+03  0.50000000000E+03  0.00000000000E+00 0. -1.
         11   -1    0    0    0    0 -0.00000000000E+00 -0.00000000000E+00 -0.50000000000E+03  0.50000000000E+03  0.00000000000E+00 0.  1.
         23    2    1    2    0    0  0.15252916322E+03  0.13753333321E+03  0.22390918580E+03  0.31733113366E+03  0.91559606407E+02 0.  0.
        -11    1    1    2    0    0 -0.14280840999E+03 -0.20571544012E+03  0.15700837986E+03  0.29557522835E+03  0.00000000000E+00 0. -1.
         11    1    1    2    0    0 -0.97207532322E+01  0.68182106916E+02 -0.38091756566E+03  0.38709363799E+03  0.00000000000E+00 0.  1.
        -15    1    3    3    0    0  0.76148858753E+02  0.31147597851E+02  0.39866772926E+02  0.91440356811E+02  0.17770000000E+01 0. -1.
         15    1    3    3    0    0  0.76380304472E+02  0.10638573536E+03  0.18404241287E+03  0.22589077685E+03  0.17770000000E+01 0.  1.
</event>
<event>
 7    1  0.3260141E-006  0.4169563E+03  0.7546771E-02  0.9607586E-01
        -11   -1    0    0    0    0  0.00000000000E+00  0.00000000000E+00  0.50000000000E+03  0.50000000000E+03  0.00000000000E+00 0.  1.
         11   -1    0    0    0    0 -0.00000000000E+00 -0.00000000000E+00 -0.50000000000E+03  0.50000000000E+03  0.00000000000E+00 0.  1.
         23    2    1    2    0    0 -0.60088425919E+02 -0.24388347898E+02  0.42277555802E+03  0.43590740445E+03  0.84087349500E+02 0.  0.
        -11    1    1    2    0    0  0.10847312775E+03  0.11266606657E+03 -0.30805807528E+02  0.15940219502E+03  0.00000000000E+00 0.  1.
         11    1    1    2    0    0 -0.48384701829E+02 -0.88277718668E+02 -0.39196975050E+03  0.40469040054E+03  0.00000000000E+00 0.  1.
        -15    1    3    3    0    0 -0.71455645546E+02 -0.32122555627E+02  0.40872287999E+03  0.41616741609E+03  0.17770000000E+01 0.  1.
         15    1    3    3    0    0  0.11367219628E+02  0.77342077293E+01  0.14052678031E+02  0.19739988351E+02  0.17770000000E+01 0. -1.
</event>
<event>
 7    1  0.3260141E-006  0.5088153E+03  0.7546771E-02  0.9380298E-01
        -11   -1    0    0    0    0  0.00000000000E+00  0.00000000000E+00  0.50000000000E+03  0.50000000000E+03  0.00000000000E+00 0.  1.
         11   -1    0    0    0    0 -0.00000000000E+00 -0.00000000000E+00 -0.50000000000E+03  0.50000000000E+03  0.00000000000E+00 0. -1.
         23    2    1    2    0    0  0.15071429278E+02  0.99504629910E+02 -0.36635052957E+03  0.38988885585E+03  0.87591609464E+02 0.  0.
        -11    1    1    2    0    0 -0.34424627516E+02 -0.17156525388E+03  0.45895834774E+03  0.49118474760E+03  0.00000000000E+00 0.  1.
         11    1    1    2    0    0  0.19353198238E+02  0.72060623975E+02 -0.92607818169E+02  0.11892639655E+03  0.00000000000E+00 0. -1.
        -15    1    3    3    0    0  0.98779556647E+01 -0.14572231164E+02 -0.31940256303E+02  0.36513855328E+02  0.17770000000E+01 0. -1.
         15    1    3    3    0    0  0.51934736136E+01  0.11407686107E+03 -0.33441027326E+03  0.35337500052E+03  0.17770000000E+01 0.  1.
</event>
<event>
 7    1  0.3260141E-006  0.3576759E+03  0.7546771E-02  0.9790448E-01
        -11   -1    0    0    0    0  0.00000000000E+00  0.00000000000E+00  0.50000000000E+03  0.50000000000E+03  0.00000000000E+00 0. -1.
         11   -1    0    0    0    0 -0.00000000000E+00 -0.00000000000E+00 -0.50000000000E+03  0.50000000000E+03  0.00000000000E+00 0.  1.
         23    2    1    2    0    0  0.15009724092E+03  0.86953162781E+01  0.17510365029E+03  0.24833896196E+03  0.91685121067E+02 0.  0.
        -11    1    1    2    0    0 -0.20137093215E+03  0.11296539166E+03  0.22981031183E+03  0.32576711230E+03  0.00000000000E+00 0. -1.
         11    1    1    2    0    0  0.51273691233E+02 -0.12166070794E+03 -0.40491396212E+03  0.42589392575E+03  0.00000000000E+00 0.  1.
        -15    1    3    3    0    0  0.15817523802E+03 -0.25482707530E+01  0.14269170273E+03  0.21304924164E+03  0.17770000000E+01 0.  1.
         15    1    3    3    0    0 -0.80779971024E+01  0.11243587031E+02  0.32411947555E+02  0.35289720314E+02  0.17770000000E+01 0. -1.
</event>
<event>
 7    1  0.3260141E-006  0.5285589E+03  0.7546771E-02  0.9338081E-01
        -11   -1    0    0    0    0  0.00000000000E+00  0.00000000000E+00  0.50000000000E+03  0.50000000000E+03  0.00000000000E+00 0.  1.
         11   -1    0    0    0    0 -0.00000000000E+00 -0.00000000000E+00 -0.50000000000E+03  0.50000000000E+03  0.00000000000E+00 0.  1.
         23    2    1    2    0    0  0.10626878944E+03  0.17878717997E+03  0.41320865317E+03  0.47144114847E+03  0.90870534735E+02 0.  0.
        -11    1    1    2    0    0 -0.15689372043E+03 -0.14897078738E+03 -0.16122771967E+03  0.26981903675E+03  0.00000000000E+00 0.  1.
         11    1    1    2    0    0  0.50624930992E+02 -0.29816392587E+02 -0.25198093350E+03  0.25873981478E+03  0.00000000000E+00 0.  1.
        -15    1    3    3    0    0  0.18232561581E+02  0.86580161447E+02  0.10148289088E+03  0.13464949138E+03  0.17770000000E+01 0. -1.
         15    1    3    3    0    0  0.88036227861E+02  0.92207018525E+02  0.31172576229E+03  0.33679165709E+03  0.17770000000E+01 0.  1.
</event>
<event>
 7    1  0.3260141E-006  0.4464025E+03  0.7546771E-02  0.9528433E-01
        -11   -1    0    0    0    0  0.00000000000E+00  0.00000000000E+00  0.50000000000E+03  0.50000000000E+03  0.00000000000E+00 0.  1.
         11   -1    0    0    0    0 -0.00000000000E+00 -0.00000000000E+00 -0.50000000000E+03  0.50000000000E+03  0.00000000000E+00 0. -1.
         23    2    1    2    0    0 -0.38221367363E+02  0.20828708418E+02 -0.32692796122E+02  0.10553689850E+03  0.90412996909E+02 0.  0.
        -11    1    1    2    0    0 -0.89414994859E+02 -0.19544056982E+03  0.40808400616E+03  0.46122078630E+03  0.00000000000E+00 0.  1.
         11    1    1    2    0    0  0.12763636222E+03  0.17461186140E+03 -0.37539121004E+03  0.43324231519E+03  0.00000000000E+00 0. -1.
        -15    1    3    3    0    0  0.98777851715E+01 -0.22512843738E+01 -0.48727336631E+02  0.49801104258E+02  0.17770000000E+01 0.  1.
         15    1    3    3    0    0 -0.48099152535E+02  0.23079992792E+02  0.16034540509E+02  0.55735794245E+02  0.17770000000E+01 0. -1.
</event>
<event>
 7    1  0.3260141E-006  0.4168490E+03  0.7546771E-02  0.9607887E-01
        -11   -1    0    0    0    0  0.00000000000E+00  0.00000000000E+00  0.50000000000E+03  0.50000000000E+03  0.00000000000E+00 0.  1.
         11   -1    0    0    0    0 -0.00000000000E+00 -0.00000000000E+00 -0.50000000000E+03  0.50000000000E+03  0.00000000000E+00 0.  1.
         23    2    1    2    0    0 -0.98381895427E+02 -0.38545248674E+02  0.38240138014E+03  0.40717165490E+03  0.91614450137E+02 0.  0.
        -11    1    1    2    0    0  0.15269400403E+03 -0.30720150934E+02  0.40444020896E+02  0.16091894036E+03  0.00000000000E+00 0.  1.
         11    1    1    2    0    0 -0.54312108608E+02  0.69265399608E+02 -0.42284540104E+03  0.43190940474E+03  0.00000000000E+00 0.  1.
        -15    1    3    3    0    0 -0.88311748543E+02  0.10837378724E+02  0.22847117628E+03  0.24519104761E+03  0.17770000000E+01 0. -1.
         15    1    3    3    0    0 -0.10070146884E+02 -0.49382627398E+02  0.15393020386E+03  0.16198060729E+03  0.17770000000E+01 0.  1.
</event>
<event>
 7    1  0.3260141E-006  0.5129104E+03  0.7546771E-02  0.9371376E-01
        -11   -1    0    0    0    0  0.00000000000E+00  0.00000000000E+00  0.50000000000E+03  0.50000000000E+03  0.00000000000E+00 0.  1.
         11   -1    0    0    0    0 -0.00000000000E+00 -0.00000000000E+00 -0.50000000000E+03  0.50000000000E+03  0.00000000000E+00 0. -1.
         23    2    1    2    0    0  0.12161361183E+03 -0.73919979728E+02  0.31029904534E+03  0.35378282422E+03  0.92858791636E+02 0.  0.
        -11    1    1    2    0    0 -0.15713826392E+02 -0.65023996642E+02  0.14438333406E+03  0.15912759545E+03  0.00000000000E+00 0.  1.
         11    1    1    2    0    0 -0.10589978544E+03  0.13894397637E+03 -0.45468237941E+03  0.48708958033E+03  0.00000000000E+00 0. -1.
        -15    1    3    3    0    0  0.85221130502E+02 -0.77352881088E+02  0.28982967370E+03  0.31185013513E+03  0.17770000000E+01 0.  1.
         15    1    3    3    0    0  0.36392481332E+02  0.34329013602E+01  0.20469371641E+02  0.41932689082E+02  0.17770000000E+01 0. -1.
</event>
<event>
 7    1  0.3260141E-006  0.5257395E+03  0.7546771E-02  0.9343989E-01
        -11   -1    0    0    0    0  0.00000000000E+00  0.00000000000E+00  0.50000000000E+03  0.50000000000E+03  0.00000000000E+00 0.  1.
         11   -1    0    0    0    0 -0.00000000000E+00 -0.00000000000E+00 -0.50000000000E+03  0.50000000000E+03  0.00000000000E+00 0.  1.
         23    2    1    2    0    0 -0.16943698599E+03 -0.13358451150E+03  0.41358030930E+03  0.47426051388E+03  0.85560790417E+02 0.  0.
        -11    1    1    2    0    0  0.90341921164E+02  0.16035390991E+03 -0.11809271807E+03  0.21867996983E+03  0.00000000000E+00 0.  1.
         11    1    1    2    0    0  0.79095064828E+02 -0.26769398414E+02 -0.29548759123E+03  0.30705951629E+03  0.00000000000E+00 0.  1.
        -15    1    3    3    0    0 -0.74458320087E+02 -0.10442718109E+03  0.18607050829E+03  0.22599661362E+03  0.17770000000E+01 0.  1.
         15    1    3    3    0    0 -0.94978665905E+02 -0.29157330405E+02  0.22750980100E+03  0.24826390027E+03  0.17770000000E+01 0. -1.
</event>
<event>
 7    1  0.3260141E-006  0.5132706E+03  0.7546771E-02  0.9370596E-01
        -11   -1    0    0    0    0  0.00000000000E+00  0.00000000000E+00  0.50000000000E+03  0.50000000000E+03  0.00000000000E+00 0.  1.
         11   -1    0    0    0    0 -0.00000000000E+00 -0.00000000000E+00 -0.50000000000E+03  0.50000000000E+03  0.00000000000E+00 0. -1.
         23    2    1    2    0    0 -0.10960647062E+03 -0.29104577588E+02 -0.38461179457E+03  0.41064382582E+03  0.88552043035E+02 0.  0.
        -11    1    1    2    0    0  0.83259012893E+02  0.40254591712E+00  0.47955527434E+03  0.48672937698E+03  0.00000000000E+00 0.  1.
         11    1    1    2    0    0  0.26347457729E+02  0.28702031671E+02 -0.94943479770E+02  0.10262679719E+03  0.00000000000E+00 0. -1.
        -15    1    3    3    0    0 -0.13359037164E+02 -0.38003195840E+02 -0.17833771977E+03  0.18283929225E+03  0.17770000000E+01 0.  1.
         15    1    3    3    0    0 -0.96247433458E+02  0.88986182516E+01 -0.20627407480E+03  0.22780453358E+03  0.17770000000E+01 0. -1.
</event>
<event>
 7    1  0.3260141E-006  0.4277738E+03  0.7546771E-02  0.9577720E-01
        -11   -1    0    0    0    0  0.00000000000E+00  0.00000000000E+00  0.50000000000E+03  0.50000000000E+03  0.00000000000E+00 0.  1.
         11   -1    0    0    0    0 -0.00000000000E+00 -0.00000000000E+00 -0.50000000000E+03  0.50000000000E+03  0.00000000000E+00 0. -1.
         23    2    1    2    0    0 -0.73206132991E+02  0.38515003208E+02 -0.61054724905E+02  0.13829711350E+03  0.92497939375E+02 0.  0.
        -11    1    1    2    0    0 -0.89339651187E+02  0.38989488269E+03  0.52348835740E+02  0.40341045280E+03  0.00000000000E+00 0.  1.
         11    1    1    2    0    0  0.16254578418E+03 -0.42840988590E+03  0.87058891654E+01  0.45829243371E+03  0.00000000000E+00 0. -1.
        -15    1    3    3    0    0 -0.79615302046E+02 -0.44284873729E+01 -0.47241194460E+02  0.92698953625E+02  0.17770000000E+01 0.  1.
         15    1    3    3    0    0  0.64091690546E+01  0.42943490581E+02 -0.13813530446E+02  0.45598159871E+02  0.17770000000E+01 0. -1.
</event>
<event>
 7    1  0.3260141E-006  0.5207517E+03  0.7546771E-02  0.9354537E-01
        -11   -1    0    0    0    0  0.00000000000E+00  0.00000000000E+00  0.50000000000E+03  0.50000000000E+03  0.00000000000E+00 0.  1.
         11   -1    0    0    0    0 -0.00000000000E+00 -0.00000000000E+00 -0.50000000000E+03  0.50000000000E+03  0.00000000000E+00 0.  1.
         23    2    1    2    0    0 -0.86780024563E+01 -0.26125335865E+02  0.36706751964E+03  0.37679008791E+03  0.80463441853E+02 0.  0.
        -11    1    1    2    0    0 -0.10595808701E+03 -0.15555972989E+01  0.97444360559E+02  0.14396159033E+03  0.00000000000E+00 0.  1.
         11    1    1    2    0    0  0.11463608946E+03  0.27680933164E+02 -0.46451188019E+03  0.47924832176E+03  0.00000000000E+00 0.  1.
        -15    1    3    3    0    0 -0.86963159789E+01 -0.55169222401E+02  0.23426889293E+03  0.24084090378E+03  0.17770000000E+01 0. -1.
         15    1    3    3    0    0  0.18313522576E-01  0.29043886536E+02  0.13279862670E+03  0.13594918412E+03  0.17770000000E+01 0.  1.
</event>
<event>
 7    1  0.3260141E-006  0.4638594E+03  0.7546771E-02  0.9484519E-01
        -11   -1    0    0    0    0  0.00000000000E+00  0.00000000000E+00  0.50000000000E+03  0.50000000000E+03  0.00000000000E+00 0. -1.
         11   -1    0    0    0    0 -0.00000000000E+00 -0.00000000000E+00 -0.50000000000E+03  0.50000000000E+03  0.00000000000E+00 0.  1.
         23    2    1    2    0    0  0.10524980716E+03 -0.24635793620E+03 -0.37242281968E+03  0.46773347521E+03  0.91137767003E+02 0.  0.
        -11    1    1    2    0    0 -0.69778541423E+02  0.18676556800E+03  0.40815828480E+03  0.45425060009E+03  0.00000000000E+00 0. -1.
         11    1    1    2    0    0 -0.35471265733E+02  0.59592368204E+02 -0.35735465114E+02  0.78015924706E+02  0.00000000000E+00 0.  1.
        -15    1    3    3    0    0 -0.10273439592E+02 -0.14470183123E+02 -0.56039580859E+02  0.58809200917E+02  0.17770000000E+01 0. -1.
         15    1    3    3    0    0  0.11552324675E+03 -0.23188775308E+03 -0.31638323882E+03  0.40892427429E+03  0.17770000000E+01 0.  1.
</event>
<event>
 7    1  0.3260141E-006  0.3101639E+03  0.7546771E-02  0.9966876E-01
        -11   -1    0    0    0    0  0.00000000000E+00  0.00000000000E+00  0.50000000000E+03  0.50000000000E+03  0.00000000000E+00 0. -1.
         11   -1    0    0    0    0 -0.00000000000E+00 -0.00000000000E+00 -0.50000000000E+03  0.50000000000E+03  0.00000000000E+00 0.  1.
         23    2    1    2    0    0  0.14235661960E+03  0.16117920998E+03  0.20662467976E+03  0.31170892959E+03  0.90689324761E+02 0.  0.
        -11    1    1    2    0    0 -0.10132492192E+03 -0.28105710879E+03  0.13208396232E+03  0.32665886075E+03  0.00000000000E+00 0. -1.
         11    1    1    2    0    0 -0.41031697680E+02  0.11987789881E+03 -0.33870864209E+03  0.36163220966E+03  0.00000000000E+00 0.  1.
        -15    1    3    3    0    0  0.61423959512E+01  0.19769460841E+02  0.68654723109E+02  0.71729975214E+02  0.17770000000E+01 0.  1.
         15    1    3    3    0    0  0.13621422365E+03  0.14140974914E+03  0.13796995665E+03  0.23997895438E+03  0.17770000000E+01 0. -1.
</event>
<event>
 7    1  0.3260141E-006  0.3736838E+03  0.7546771E-02  0.9737521E-01
        -11   -1    0    0    0    0  0.00000000000E+00  0.00000000000E+00  0.50000000000E+03  0.50000000000E+03  0.00000000000E+00 0.  1.
         11   -1    0    0    0    0 -0.00000000000E+00 -0.00000000000E+00 -0.50000000000E+03  0.50000000000E+03  0.00000000000E+00 0. -1.
         23    2    1    2    0    0 -0.16168256195E+03 -0.76189656151E+02  0.10147947426E+03  0.22488543448E+03  0.91264781820E+02 0.  0.
        -11    1    1    2    0    0  0.10699812095E+03 -0.13829369282E+03  0.28230848999E+03  0.33207202063E+03  0.00000000000E+00 0.  1.
         11    1    1    2    0    0  0.54684441000E+02  0.21448334897E+03 -0.38378796426E+03  0.44304254489E+03  0.00000000000E+00 0. -1.
        -15    1    3    3    0    0 -0.15899102028E+03 -0.65803493135E+02  0.11542100046E+03  0.20720378692E+03  0.17770000000E+01 0.  1.
         15    1    3    3    0    0 -0.26915416743E+01 -0.10386163017E+02 -0.13941526196E+02  0.17681647561E+02  0.17770000000E+01 0. -1.
</event>
<event>
 7    1  0.3260141E-006  0.4152243E+03  0.7546771E-02  0.9612457E-01
        -11   -1    0    0    0    0  0.00000000000E+00  0.00000000000E+00  0.50000000000E+03  0.50000000000E+03  0.00000000000E+00 0.  1.
         11   -1    0    0    0    0 -0.00000000000E+00 -0.00000000000E+00 -0.50000000000E+03  0.50000000000E+03  0.00000000000E+00 0.  1.
         23    2    1    2    0    0  0.31096957879E+03 -0.29433888218E+02 -0.19442964671E+03  0.38444502238E+03  0.11147490749E+03 0.  0.
        -11    1    1    2    0    0 -0.26854684569E+03  0.36116664831E+02  0.35655854803E+03  0.44783458998E+03  0.00000000000E+00 0.  1.
         11    1    1    2    0    0 -0.42422733104E+02 -0.66827766134E+01 -0.16212890132E+03  0.16772038764E+03  0.00000000000E+00 0.  1.
        -15    1    3    3    0    0  0.26989286206E+03 -0.20858166452E+02 -0.11403784697E+03  0.29374309927E+03  0.17770000000E+01 0.  1.
         15    1    3    3    0    0  0.41076716735E+02 -0.85757217659E+01 -0.80391799735E+02  0.90701923106E+02  0.17770000000E+01 0. -1.
</event>
<event>
 7    1  0.3260141E-006  0.5143656E+03  0.7546771E-02  0.9368227E-01
        -11   -1    0    0    0    0  0.00000000000E+00  0.00000000000E+00  0.50000000000E+03  0.50000000000E+03  0.00000000000E+00 0.  1.
         11   -1    0    0    0    0 -0.00000000000E+00 -0.00000000000E+00 -0.50000000000E+03  0.50000000000E+03  0.00000000000E+00 0. -1.
         23    2    1    2    0    0  0.28699073255E+02  0.55551812794E+01  0.29318437915E+03  0.30960736374E+03  0.95105954911E+02 0.  0.
        -11    1    1    2    0    0 -0.24063524261E+02  0.87929904432E+02  0.18334453731E+03  0.20475824930E+03  0.00000000000E+00 0.  1.
         11    1    1    2    0    0 -0.46355489945E+01 -0.93485085711E+02 -0.47652891647E+03  0.48563438696E+03  0.00000000000E+00 0. -1.
        -15    1    3    3    0    0 -0.35010014192E+02  0.29592328698E+01  0.11995906419E+03  0.12501117136E+03  0.17770000000E+01 0.  1.
         15    1    3    3    0    0  0.63709087447E+02  0.25959484095E+01  0.17322531496E+03  0.18459619239E+03  0.17770000000E+01 0. -1.
</event>
<event>
 7    1  0.3260141E-006  0.3863462E+03  0.7546771E-02  0.9697627E-01
        -11   -1    0    0    0    0  0.00000000000E+00  0.00000000000E+00  0.50000000000E+03  0.50000000000E+03  0.00000000000E+00 0. -1.
         11   -1    0    0    0    0 -0.00000000000E+00 -0.00000000000E+00 -0.50000000000E+03  0.50000000000E+03  0.00000000000E+00 0.  1.
         23    2    1    2    0    0 -0.28877870404E+03  0.24648012979E+02 -0.15796484141E+03  0.34595273739E+03  0.10358446282E+03 0.  0.
        -11    1    1    2    0    0  0.25059095879E+03 -0.12202805269E+03  0.34271168686E+03  0.44174424114E+03  0.00000000000E+00 0. -1.
         11    1    1    2    0    0  0.38187745251E+02  0.97380039713E+02 -0.18474684545E+03  0.21230302147E+03  0.00000000000E+00 0.  1.
        -15    1    3    3    0    0 -0.40651465981E+02 -0.22407600009E+02  0.28566291913E+01  0.46539878426E+02  0.17770000000E+01 0. -1.
         15    1    3    3    0    0 -0.24812723806E+03  0.47055612988E+02 -0.16082147060E+03  0.29941285897E+03  0.17770000000E+01 0.  1.
</event>
<event>
 7    1  0.3260141E-006  0.5372442E+03  0.7546771E-02  0.9320125E-01
        -11   -1    0    0    0    0  0.00000000000E+00  0.00000000000E+00  0.50000000000E+03  0.50000000000E+03  0.00000000000E+00 0.  1.
         11   -1    0    0    0    0 -0.00000000000E+00 -0.00000000000E+00 -0.50000000000E+03  0.50000000000E+03  0.00000000000E+00 0. -1.
         23    2    1    2    0    0 -0.14931429351E+02  0.83919946244E+01  0.29290680142E+03  0.30716824992E+03  0.90909660020E+02 0.  0.
        -11    1    1    2    0    0 -0.12927553585E+03  0.14983978781E+03  0.11734917023E+03  0.23007597426E+03  0.00000000000E+00 0.  1.
         11    1    1    2    0    0  0.14420696520E+03 -0.15823178244E+03 -0.41025597164E+03  0.46275577582E+03  0.00000000000E+00 0. -1.
        -15    1    3    3    0    0 -0.26531818176E+02 -0.36089085713E+02  0.11550617015E+03  0.12389992960E+03  0.17770000000E+01 0. -1.
         15    1    3    3    0    0  0.11600388825E+02  0.44481080338E+02  0.17740063127E+03  0.18326832032E+03  0.17770000000E+01 0.  1.
</event>
<event>
 7    1  0.3260141E-006  0.4552809E+03  0.7546771E-02  0.9505837E-01
        -11   -1    0    0    0    0  0.00000000000E+00  0.00000000000E+00  0.50000000000E+03  0.50000000000E+03  0.00000000000E+00 0.  1.
         11   -1    0    0    0    0 -0.00000000000E+00 -0.00000000000E+00 -0.50000000000E+03  0.50000000000E+03  0.00000000000E+00 0. -1.
         23    2    1    2    0    0  0.90708878417E+02 -0.11282099075E+02  0.42021788869E+03  0.43938671909E+03  0.90123407363E+02 0.  0.
        -11    1    1    2    0    0 -0.28624785222E+02 -0.82786245786E+02  0.32989291718E+02  0.93601464671E+02  0.00000000000E+00 0.  1.
         11    1    1    2    0    0 -0.62084093195E+02  0.94068344861E+02 -0.45320718041E+03  0.46701181624E+03  0.00000000000E+00 0. -1.
        -15    1    3    3    0    0  0.77553694497E+02 -0.46377120883E+02  0.27932102347E+03  0.29357929892E+03  0.17770000000E+01 0.  1.
         15    1    3    3    0    0  0.13155183921E+02  0.35095021808E+02  0.14089686522E+03  0.14580742018E+03  0.17770000000E+01 0. -1.
</event>
<event>
 7    1  0.3260141E-006  0.2984202E+03  0.7546771E-02  0.1001578E+00
        -11   -1    0    0    0    0  0.00000000000E+00  0.00000000000E+00  0.50000000000E+03  0.50000000000E+03  0.00000000000E+00 0. -1.
         11   -1    0    0    0    0 -0.00000000000E+00 -0.00000000000E+00 -0.50000000000E+03  0.50000000000E+03  0.00000000000E+00 0.  1.
         23    2    1    2    0    0  0.13023264844E+03 -0.20143798441E+03  0.21336566616E+03  0.33476363211E+03  0.94889291304E+02 0.  0.
        -11    1    1    2    0    0 -0.26327557151E+03  0.17812570428E+03  0.92346971287E+02  0.33101473711E+03  0.00000000000E+00 0. -1.
         11    1    1    2    0    0  0.13304292307E+03  0.23312280134E+02 -0.30571263745E+03  0.33422163078E+03  0.00000000000E+00 0.  1.
        -15    1    3    3    0    0  0.12330207803E+03 -0.10783782044E+03  0.14292230504E+03  0.21739903627E+03  0.17770000000E+01 0.  1.
         15    1    3    3    0    0  0.69305704039E+01 -0.93600163967E+02  0.70443361121E+02  0.11736459584E+03  0.17770000000E+01 0. -1.
</event>
<event>
 7    1  0.3260141E-006  0.4485039E+03  0.7546771E-02  0.9523035E-01
        -11   -1    0    0    0    0  0.00000000000E+00  0.00000000000E+00  0.50000000000E+03  0.50000000000E+03  0.00000000000E+00 0.  1.
         11   -1    0    0    0    0 -0.00000000000E+00 -0.00000000000E+00 -0.50000000000E+03  0.50000000000E+03  0.00000000000E+00 0.  1.
         23    2    1    2    0    0 -0.22855533883E+01  0.38709444321E+02  0.40915450249E+03  0.42163155234E+03  0.94138802813E+02 0.  0.
        -11    1    1    2    0    0 -0.75280360061E+02 -0.50554516180E+02  0.56042518599E+02  0.10660044844E+03  0.00000000000E+00 0.  1.
         11    1    1    2    0    0  0.77565913449E+02  0.11845071859E+02 -0.46519702108E+03  0.47176799921E+03  0.00000000000E+00 0.  1.
        -15    1    3    3    0    0  0.13232598170E+02  0.67632372771E+02  0.27872123690E+03  0.28712005352E+03  0.17770000000E+01 0.  1.
         15    1    3    3    0    0 -0.15518151559E+02 -0.28922928450E+02  0.13043326558E+03  0.13451149883E+03  0.17770000000E+01 0. -1.
</event>
<event>
 7    1  0.3260141E-006  0.5382541E+03  0.7546771E-02  0.9318060E-01
        -11   -1    0    0    0    0  0.00000000000E+00  0.00000000000E+00  0.50000000000E+03  0.50000000000E+03  0.00000000000E+00 0. -1.
         11   -1    0    0    0    0 -0.00000000000E+00 -0.00000000000E+00 -0.50000000000E+03  0.50000000000E+03  0.00000000000E+00 0.  1.
         23    2    1    2    0    0  0.44543201587E+02 -0.97886899615E+02  0.20393931636E+03  0.24821554791E+03  0.91944393761E+02 0.  0.
        -11    1    1    2    0    0 -0.15377220204E+03  0.45635819270E+02  0.24164812604E+03  0.29003850596E+03  0.00000000000E+00 0. -1.
         11    1    1    2    0    0  0.10922900046E+03  0.52251080345E+02 -0.44558744240E+03  0.46174594613E+03  0.00000000000E+00 0.  1.
        -15    1    3    3    0    0  0.76314099598E+01 -0.11949159628E+02 -0.81231886551E+01  0.16436689348E+02  0.17770000000E+01 0.  1.
         15    1    3    3    0    0  0.36911791627E+02 -0.85937739987E+02  0.21206250501E+03  0.23177885856E+03  0.17770000000E+01 0. -1.
</event>
<event>
 7    1  0.3260141E-006  0.5365213E+03  0.7546771E-02  0.9321605E-01
        -11   -1    0    0    0    0  0.00000000000E+00  0.00000000000E+00  0.50000000000E+03  0.50000000000E+03  0.00000000000E+00 0.  1.
         11   -1    0    0    0    0 -0.00000000000E+00 -0.00000000000E+00 -0.50000000000E+03  0.50000000000E+03  0.00000000000E+00 0. -1.
         23    2    1    2    0    0  0.10067201505E+03  0.10388836521E+03  0.27205817272E+03  0.32626538378E+03  0.10726511207E+03 0.  0.
        -11    1    1    2    0    0 -0.11450983608E+03  0.10592458304E+03  0.14097881693E+03  0.21025590759E+03  0.00000000000E+00 0.  1.
         11    1    1    2    0    0  0.13837821031E+02 -0.20981294825E+03 -0.41303698965E+03  0.46347870864E+03  0.00000000000E+00 0. -1.
        -15    1    3    3    0    0  0.10820140706E+03  0.11921291382E+03  0.25781727474E+03  0.30396080043E+03  0.17770000000E+01 0.  1.
         15    1    3    3    0    0 -0.75293920123E+01 -0.15324548612E+02  0.14240897978E+02  0.22304583351E+02  0.17770000000E+01 0. -1.
</event>
<event>
 7    1  0.3260141E-006  0.3579963E+03  0.7546771E-02  0.9789359E-01
        -11   -1    0    0    0    0  0.00000000000E+00  0.00000000000E+00  0.50000000000E+03  0.50000000000E+03  0.00000000000E+00 0.  1.
         11   -1    0    0    0    0 -0.00000000000E+00 -0.00000000000E+00 -0.50000000000E+03  0.50000000000E+03  0.00000000000E+00 0. -1.
         23    2    1    2    0    0 -0.78457122303E+02 -0.26593054943E+03 -0.16722530507E+03  0.33619265840E+03  0.90479963229E+02 0.  0.
        -11    1    1    2    0    0  0.15870655654E+03  0.12399404964E+03  0.35927621023E+03  0.41187581948E+03  0.00000000000E+00 0.  1.
         11    1    1    2    0    0 -0.80249434234E+02  0.14193649979E+03 -0.19205090516E+03  0.25193152212E+03  0.00000000000E+00 0. -1.
        -15    1    3    3    0    0 -0.85148886685E+02 -0.13018159495E+03 -0.94816674574E+02  0.18218380848E+03  0.17770000000E+01 0.  1.
         15    1    3    3    0    0  0.66917643820E+01 -0.13574895448E+03 -0.72408630497E+02  0.15400884992E+03  0.17770000000E+01 0. -1.
</event>
<event>
 7    1  0.3260141E-006  0.5234696E+03  0.7546771E-02  0.9348774E-01
        -11   -1    0    0    0    0  0.00000000000E+00  0.00000000000E+00  0.50000000000E+03  0.50000000000E+03  0.00000000000E+00 0.  1.
         11   -1    0    0    0    0 -0.00000000000E+00 -0.00000000000E+00 -0.50000000000E+03  0.50000000000E+03  0.00000000000E+00 0. -1.
         23    2    1    2    0    0  0.61485315308E+01 -0.14673863794E+02 -0.84177467520E+02  0.12477320121E+03  0.90715924646E+02 0.  0.
        -11    1    1    2    0    0  0.64935429424E+02 -0.75133892066E+02  0.46606812027E+03  0.47653038147E+03  0.00000000000E+00 0.  1.
         11    1    1    2    0    0 -0.71083960955E+02  0.89807755860E+02 -0.38189065275E+03  0.39869641731E+03  0.00000000000E+00 0. -1.
        -15    1    3    3    0    0 -0.12902679660E+02 -0.29689407167E+02 -0.93318524253E+02  0.98789902004E+02  0.17770000000E+01 0. -1.
         15    1    3    3    0    0  0.19051211191E+02  0.15015543372E+02  0.91410567333E+01  0.25983299209E+02  0.17770000000E+01 0.  1.
</event>
<event>
 7    1  0.3260141E-006  0.4428730E+03  0.7546771E-02  0.9537573E-01
        -11   -1    0    0    0    0  0.00000000000E+00  0.00000000000E+00  0.50000000000E+03  0.50000000000E+03  0.00000000000E+00 0. -1.
         11   -1    0    0    0    0 -0.00000000000E+00 -0.00000000000E+00 -0.50000000000E+03  0.50000000000E+03  0.00000000000E+00 0.  1.
         23    2    1    2    0    0 -0.50538090703E+02 -0.25541717745E+03  0.36303526539E+03  0.45594140234E+03  0.91081970249E+02 0.  0.
        -11    1    1    2    0    0  0.81971170040E+02  0.78192087683E+02  0.25267873724E+02  0.11606782817E+03  0.00000000000E+00 0. -1.
         11    1    1    2    0    0 -0.31433079336E+02  0.17722508977E+03 -0.38830313912E+03  0.42799076949E+03  0.00000000000E+00 0.  1.
        -15    1    3    3    0    0  0.14013925049E+02 -0.13414726119E+03  0.14338743084E+03  0.19686287317E+03  0.17770000000E+01 0. -1.
         15    1    3    3    0    0 -0.64552015753E+02 -0.12126991626E+03  0.21964783455E+03  0.25907852917E+03  0.17770000000E+01 0.  1.
</event>
<event>
 7    1  0.3260141E-006  0.5295427E+03  0.7546771E-02  0.9336029E-01
        -11   -1    0    0    0    0  0.00000000000E+00  0.00000000000E+00  0.50000000000E+03  0.50000000000E+03  0.00000000000E+00 0.  1.
         11   -1    0    0    0    0 -0.00000000000E+00 -0.00000000000E+00 -0.50000000000E+03  0.50000000000E+03  0.00000000000E+00 0.  1.
         23    2    1    2    0    0  0.40459115177E+02 -0.66598965263E+02  0.37494966230E+03  0.39353176539E+03  0.90596020528E+02 0.  0.
        -11    1    1    2    0    0  0.31470803143E+02  0.97993200779E+02  0.88915128447E+02  0.13601095146E+03  0.00000000000E+00 0.  1.
         11    1    1    2    0    0 -0.71929918320E+02 -0.31394235516E+02 -0.46386479075E+03  0.47045728315E+03  0.00000000000E+00 0.  1.
        -15    1    3    3    0    0 -0.25047670778E+02 -0.35743401558E+02  0.98513628998E+02  0.10776395220E+03  0.17770000000E+01 0. -1.
         15    1    3    3    0    0  0.65506785955E+02 -0.30855563704E+02  0.27643603331E+03  0.28576781319E+03  0.17770000000E+01 0.  1.
</event>
<event>
 7    1  0.3260141E-006  0.3565306E+03  0.7546771E-02  0.9794348E-01
        -11   -1    0    0    0    0  0.00000000000E+00  0.00000000000E+00  0.50000000000E+03  0.50000000000E+03  0.00000000000E+00 0.  1.
         11   -1    0    0    0    0 -0.00000000000E+00 -0.00000000000E+00 -0.50000000000E+03  0.50000000000E+03  0.00000000000E+00 0. -1.
         23    2    1    2    0    0 -0.20361624394E+03  0.10924556852E+03  0.21163609648E+02  0.25013440605E+03  0.93408531089E+02 0.  0.
        -11    1    1    2    0    0  0.60832920920E+02 -0.45559822631E+02  0.34418205626E+03  0.35247358704E+03  0.00000000000E+00 0.  1.
         11    1    1    2    0    0  0.14278332302E+03 -0.63685745893E+02 -0.36534566591E+03  0.39739200691E+03  0.00000000000E+00 0. -1.
        -15    1    3    3    0    0 -0.18905246538E+03  0.96906478478E+02  0.47367973044E+02  0.21766621886E+03  0.17770000000E+01 0.  1.
         15    1    3    3    0    0 -0.14563778560E+02  0.12339090046E+02 -0.26204363396E+02  0.32468187186E+02  0.17770000000E+01 0. -1.
</event>
<event>
 7    1  0.3260141E-006  0.5317775E+03  0.7546771E-02  0.9331384E-01
        -11   -1    0    0    0    0  0.00000000000E+00  0.00000000000E+00  0.50000000000E+03  0.50000000000E+03  0.00000000000E+00 0.  1.
         11   -1    0    0    0    0 -0.00000000000E+00 -0.00000000000E+00 -0.50000000000E+03  0.50000000000E+03  0.00000000000E+00 0. -1.
         23    2    1    2    0    0 -0.16315722008E+02  0.15598332937E+03  0.35040404508E+03  0.39435779027E+03  0.90211252699E+02 0.  0.
        -11    1    1    2    0    0 -0.33109388820E+02 -0.77503821830E+02  0.10854083312E+03  0.13741974560E+03  0.00000000000E+00 0.  1.
         11    1    1    2    0    0  0.49425110828E+02 -0.78479507536E+02 -0.45894487820E+03  0.46822246413E+03  0.00000000000E+00 0. -1.
        -15    1    3    3    0    0  0.16893750543E+02  0.14457661675E+03  0.28931672726E+03  0.32387516626E+03  0.17770000000E+01 0.  1.
         15    1    3    3    0    0 -0.33209472551E+02  0.11406712612E+02  0.61087317818E+02  0.70482624007E+02  0.17770000000E+01 0. -1.
</event>
<event>
 7    1  0.3260141E-006  0.5159588E+03  0.7546771E-02  0.9364792E-01
        -11   -1    0    0    0    0  0.00000000000E+00  0.00000000000E+00  0.50000000000E+03  0.50000000000E+03  0.00000000000E+00 0.  1.
         11   -1    0    0    0    0 -0.00000000000E+00 -0.00000000000E+00 -0.50000000000E+03  0.50000000000E+03  0.00000000000E+00 0.  1.
         23    2    1    2    0    0 -0.15334544264E+02  0.23475718199E+01  0.20851422706E+03  0.22840541014E+03  0.91924910405E+02 0.  0.
        -11    1    1    2    0    0  0.78545202466E+01 -0.12118166039E+03  0.26065353516E+03  0.28755339278E+03  0.00000000000E+00 0.  1.
         11    1    1    2    0    0  0.74800240174E+01  0.11883408857E+03 -0.46916776222E+03  0.48404119709E+03  0.00000000000E+00 0.  1.
        -15    1    3    3    0    0 -0.37646817193E+02 -0.84259763855E+01  0.19748598526E+03  0.20122661858E+03  0.17770000000E+01 0. -1.
         15    1    3    3    0    0  0.22312272929E+02  0.10773548205E+02  0.11028241797E+02  0.27178791554E+02  0.17770000000E+01 0.  1.
</event>
<event>
 7    1  0.3260141E-006  0.5095698E+03  0.7546771E-02  0.9378648E-01
        -11   -1    0    0    0    0  0.00000000000E+00  0.00000000000E+00  0.50000000000E+03  0.50000000000E+03  0.00000000000E+00 0.  1.
         11   -1    0    0    0    0 -0.00000000000E+00 -0.00000000000E+00 -0.50000000000E+03  0.50000000000E+03  0.00000000000E+00 0. -1.
         23    2    1    2    0    0  0.10685064017E+02 -0.12528781802E+03 -0.36567688516E+03  0.39735482616E+03  0.91433394332E+02 0.  0.
        -11    1    1    2    0    0 -0.16916096568E+02  0.20351303057E+03  0.44589024237E+03  0.49043023579E+03  0.00000000000E+00 0.  1.
         11    1    1    2    0    0  0.62310325509E+01 -0.78225212554E+02 -0.80213357212E+02  0.11221493805E+03  0.00000000000E+00 0. -1.
        -15    1    3    3    0    0  0.39714918982E+02 -0.65711737551E+02 -0.11671500096E+03  0.13971705844E+03  0.17770000000E+01 0.  1.
         15    1    3    3    0    0 -0.29029854964E+02 -0.59576080464E+02 -0.24896188420E+03  0.25763776772E+03  0.17770000000E+01 0. -1.
</event>
<event>
 7    1  0.3260141E-006  0.4487545E+03  0.7546771E-02  0.9522393E-01
        -11   -1    0    0    0    0  0.00000000000E+00  0.00000000000E+00  0.50000000000E+03  0.50000000000E+03  0.00000000000E+00 0.  1.
         11   -1    0    0    0    0 -0.00000000000E+00 -0.00000000000E+00 -0.50000000000E+03  0.50000000000E+03  0.00000000000E+00 0.  1.
         23    2    1    2    0    0  0.59775626548E+02  0.12256771238E+03  0.44250428355E+03  0.47261990268E+03  0.94676088866E+02 0.  0.
        -11    1    1    2    0    0  0.34494598231E+02 -0.94927042632E+02 -0.32996195494E+02  0.10625332770E+03  0.00000000000E+00 0.  1.
         11    1    1    2    0    0 -0.94270224779E+02 -0.27640669751E+02 -0.40950808806E+03  0.42112676962E+03  0.00000000000E+00 0.  1.
        -15    1    3    3    0    0  0.52492536153E+02  0.11756499142E+02  0.11971193453E+03  0.13125466324E+03  0.17770000000E+01 0.  1.
         15    1    3    3    0    0  0.72830903951E+01  0.11081121324E+03  0.32279234902E+03  0.34136523945E+03  0.17770000000E+01 0. -1.
</event>
<event>
 7    1  0.3260141E-006  0.5324886E+03  0.7546771E-02  0.9329911E-01
        -11   -1    0    0    0    0  0.00000000000E+00  0.00000000000E+00  0.50000000000E+03  0.50000000000E+03  0.00000000000E+00 0.  1.
         11   -1    0    0    0    0 -0.00000000000E+00 -0.00000000000E+00 -0.50000000000E+03  0.50000000000E+03  0.00000000000E+00 0.  1.
         23    2    1    2    0    0 -0.63341129817E+02 -0.62692856479E+01  0.17546092664E+03  0.20287525492E+03  0.79501129640E+02 0.  0.
        -11    1    1    2    0    0  0.45496946022E+02  0.22307160560E+03  0.23835696667E+03  0.32961334452E+03  0.00000000000E+00 0.  1.
         11    1    1    2    0    0  0.17844183795E+02 -0.21680231995E+03 -0.41381789331E+03  0.46751140056E+03  0.00000000000E+00 0.  1.
        -15    1    3    3    0    0 -0.71639638853E+02 -0.23044173243E+02  0.16500316865E+03  0.18136282742E+03  0.17770000000E+01 0. -1.
         15    1    3    3    0    0  0.82985090357E+01  0.16774887595E+02  0.10457757990E+02  0.21512427507E+02  0.17770000000E+01 0.  1.
</event>
<event>
 7    1  0.3260141E-006  0.5149610E+03  0.7546771E-02  0.9366942E-01
        -11   -1    0    0    0    0  0.00000000000E+00  0.00000000000E+00  0.50000000000E+03  0.50000000000E+03  0.00000000000E+00 0.  1.
         11   -1    0    0    0    0 -0.00000000000E+00 -0.00000000000E+00 -0.50000000000E+03  0.50000000000E+03  0.00000000000E+00 0. -1.
         23    2    1    2    0    0 -0.17797073615E+02  0.98097617091E+02  0.30382548224E+03  0.33248712657E+03  0.91092740468E+02 0.  0.
        -11    1    1    2    0    0 -0.19235931414E+02  0.13729536464E+03  0.11864522420E+03  0.18247390891E+03  0.00000000000E+00 0.  1.
         11    1    1    2    0    0  0.37033005029E+02 -0.23539298173E+03 -0.42247070644E+03  0.48503896452E+03  0.00000000000E+00 0. -1.
        -15    1    3    3    0    0 -0.40832143652E+02  0.86813044737E+02  0.28472042014E+03  0.30045406315E+03  0.17770000000E+01 0.  1.
         15    1    3    3    0    0  0.23035070038E+02  0.11284572354E+02  0.19105062103E+02  0.32033063416E+02  0.17770000000E+01 0. -1.
</event>
<event>
 7    1  0.3260141E-006  0.5226788E+03  0.7546771E-02  0.9350447E-01
        -11   -1    0    0    0    0  0.00000000000E+00  0.00000000000E+00  0.50000000000E+03  0.50000000000E+03  0.00000000000E+00 0.  1.
         11   -1    0    0    0    0 -0.00000000000E+00 -0.00000000000E+00 -0.50000000000E+03  0.50000000000E+03  0.00000000000E+00 0. -1.
         23    2    1    2    0    0 -0.13176142261E+02  0.12871288343E+03  0.36310517125E+03  0.39676941565E+03  0.94021203551E+02 0.  0.
        -11    1    1    2    0    0 -0.40486863750E+02 -0.55516741386E+02  0.10550777200E+03  0.12590943040E+03  0.00000000000E+00 0.  1.
         11    1    1    2    0    0  0.53663006010E+02 -0.73196142039E+02 -0.46861294326E+03  0.47732115395E+03  0.00000000000E+00 0. -1.
        -15    1    3    3    0    0  0.10697153970E+02  0.12822678327E+03  0.33982207339E+03  0.36337134772E+03  0.17770000000E+01 0.  1.
         15    1    3    3    0    0 -0.23873296230E+02  0.48610015994E+00  0.23283097859E+02  0.33398067926E+02  0.17770000000E+01 0. -1.
</event>
<event>
 7    1  0.3260141E-006  0.5162871E+03  0.7546771E-02  0.9364086E-01
        -11   -1    0    0    0    0  0.00000000000E+00  0.00000000000E+00  0.50000000000E+03  0.50000000000E+03  0.00000000000E+00 0.  1.
         11   -1    0    0    0    0 -0.00000000000E+00 -0.00000000000E+00 -0.50000000000E+03  0.50000000000E+03  0.00000000000E+00 0. -1.
         23    2    1    2    0    0 -0.11630584085E+02 -0.81340950914E+02 -0.26140623827E+03  0.28862058926E+03  0.90647682606E+02 0.  0.
        -11    1    1    2    0    0  0.12261640642E+03  0.84845355022E+02  0.46015715590E+03  0.48371285441E+03  0.00000000000E+00 0.  1.
         11    1    1    2    0    0 -0.11098582233E+03 -0.35044041080E+01 -0.19875091764E+03  0.22766655633E+03  0.00000000000E+00 0. -1.
        -15    1    3    3    0    0  0.22741960973E+02 -0.27199709478E+02 -0.18715692131E+03  0.19049381068E+03  0.17770000000E+01 0. -1.
         15    1    3    3    0    0 -0.34372545057E+02 -0.54141241437E+02 -0.74249316958E+02  0.98126778586E+02  0.17770000000E+01 0.  1.
</event>
<event>
 7    1  0.3260141E-006  0.5393599E+03  0.7546771E-02  0.9315805E-01
        -11   -1    0    0    0    0  0.00000000000E+00  0.00000000000E+00  0.50000000000E+03  0.50000000000E+03  0.00000000000E+00 0.  1.
         11   -1    0    0    0    0 -0.00000000000E+00 -0.00000000000E+00 -0.50000000000E+03  0.50000000000E+03  0.00000000000E+00 0. -1.
         23    2    1    2    0    0  0.11641629765E+03 -0.19544878668E+02  0.20740755788E+03  0.25858802836E+03  0.99574679042E+02 0.  0.
        -11    1    1    2    0    0 -0.11958782759E+03 -0.67211685337E+02  0.24497787717E+03  0.28077182810E+03  0.00000000000E+00 0.  1.
         11    1    1    2    0    0  0.31715299395E+01  0.86756564005E+02 -0.45238543504E+03  0.46064014354E+03  0.00000000000E+00 0. -1.
        -15    1    3    3    0    0  0.13390345848E+03 -0.19522806104E+02  0.17026415542E+03  0.21749555513E+03  0.17770000000E+01 0.  1.
         15    1    3    3    0    0 -0.17487160831E+02 -0.22072563963E-01  0.37143402457E+02  0.41092473230E+02  0.17770000000E+01 0. -1.
</event>
<event>
 7    1  0.3260141E-006  0.4342724E+03  0.7546771E-02  0.9560228E-01
        -11   -1    0    0    0    0  0.00000000000E+00  0.00000000000E+00  0.50000000000E+03  0.50000000000E+03  0.00000000000E+00 0. -1.
         11   -1    0    0    0    0 -0.00000000000E+00 -0.00000000000E+00 -0.50000000000E+03  0.50000000000E+03  0.00000000000E+00 0.  1.
         23    2    1    2    0    0  0.77742598691E+02  0.24884819082E+02  0.32481954588E+02  0.12702328637E+03  0.91742422218E+02 0.  0.
        -11    1    1    2    0    0 -0.13795852496E+03  0.42983784573E+02  0.40301073302E+03  0.42813293645E+03  0.00000000000E+00 0. -1.
         11    1    1    2    0    0  0.60215926268E+02 -0.67868603655E+02 -0.43549268761E+03  0.44484377718E+03  0.00000000000E+00 0.  1.
        -15    1    3    3    0    0  0.83130153792E+02  0.37971210473E+02  0.50193094027E+02  0.10428297901E+03  0.17770000000E+01 0. -1.
         15    1    3    3    0    0 -0.53875551005E+01 -0.13086391391E+02 -0.17711139439E+02  0.22740307360E+02  0.17770000000E+01 0.  1.
</event>
<event>
 7    1  0.3260141E-006  0.4621719E+03  0.7546771E-02  0.9488673E-01
        -11   -1    0    0    0    0  0.00000000000E+00  0.00000000000E+00  0.50000000000E+03  0.50000000000E+03  0.00000000000E+00 0.  1.
         11   -1    0    0    0    0 -0.00000000000E+00 -0.00000000000E+00 -0.50000000000E+03  0.50000000000E+03  0.00000000000E+00 0.  1.
         23    2    1    2    0    0  0.94515291242E+02 -0.10918885858E+03 -0.39973845832E+03  0.43458501181E+03  0.90652911237E+02 0.  0.
        -11    1    1    2    0    0 -0.54667884820E+02  0.15007753181E+03  0.45726931716E+03  0.48436254149E+03  0.00000000000E+00 0.  1.
         11    1    1    2    0    0 -0.39847406421E+02 -0.40888673233E+02 -0.57530858835E+02  0.81052446697E+02  0.00000000000E+00 0.  1.
        -15    1    3    3    0    0  0.54227943145E+02 -0.34798487641E+01 -0.17028852949E+03  0.17875715418E+03  0.17770000000E+01 0.  1.
         15    1    3    3    0    0  0.40287348096E+02 -0.10570900981E+03 -0.22944992883E+03  0.25582785764E+03  0.17770000000E+01 0. -1.
</event>
<event>
 7    1  0.3260141E-006  0.3723641E+03  0.7546771E-02  0.9741776E-01
        -11   -1    0    0    0    0  0.00000000000E+00  0.00000000000E+00  0.50000000000E+03  0.50000000000E+03  0.00000000000E+00 0.  1.
         11   -1    0    0    0    0 -0.00000000000E+00 -0.00000000000E+00 -0.50000000000E+03  0.50000000000E+03  0.00000000000E+00 0. -1.
         23    2    1    2    0    0 -0.21248843516E+03  0.25779296797E+03  0.28004613794E+03  0.44521303741E+03  0.90444789193E+02 0.  0.
        -11    1    1    2    0    0  0.24726070019E+03 -0.20065232354E+03 -0.59013037972E+02  0.32385451588E+03  0.00000000000E+00 0.  1.
         11    1    1    2    0    0 -0.34772265037E+02 -0.57140644433E+02 -0.22103309997E+03  0.23093244671E+03  0.00000000000E+00 0. -1.
        -15    1    3    3    0    0 -0.11590398616E+03  0.19586504263E+03  0.15423682834E+03  0.27493454835E+03  0.17770000000E+01 0.  1.
         15    1    3    3    0    0 -0.96584448992E+02  0.61927925348E+02  0.12580930960E+03  0.17027848906E+03  0.17770000000E+01 0. -1.
</event>
<event>
 7    1  0.3260141E-006  0.5113614E+03  0.7546771E-02  0.9374740E-01
        -11   -1    0    0    0    0  0.00000000000E+00  0.00000000000E+00  0.50000000000E+03  0.50000000000E+03  0.00000000000E+00 0. -1.
         11   -1    0    0    0    0 -0.00000000000E+00 -0.00000000000E+00 -0.50000000000E+03  0.50000000000E+03  0.00000000000E+00 0.  1.
         23    2    1    2    0    0 -0.50505930980E+02 -0.40758102911E+02  0.29762116936E+03  0.31852871494E+03  0.93113424243E+02 0.  0.
        -11    1    1    2    0    0 -0.74677432612E+02  0.33241933897E+02  0.17465024668E+03  0.19283270930E+03  0.00000000000E+00 0. -1.
         11    1    1    2    0    0  0.12518336359E+03  0.75161690141E+01 -0.47227141604E+03  0.48863857576E+03  0.00000000000E+00 0.  1.
        -15    1    3    3    0    0 -0.18007468139E+02  0.29315318539E+02  0.11962789541E+03  0.12448954935E+03  0.17770000000E+01 0.  1.
         15    1    3    3    0    0 -0.32498462841E+02 -0.70073421450E+02  0.17799327396E+03  0.19403916559E+03  0.17770000000E+01 0. -1.
</event>
<event>
 7    1  0.3260141E-006  0.4323483E+03  0.7546771E-02  0.9565373E-01
        -11   -1    0    0    0    0  0.00000000000E+00  0.00000000000E+00  0.50000000000E+03  0.50000000000E+03  0.00000000000E+00 0. -1.
         11   -1    0    0    0    0 -0.00000000000E+00 -0.00000000000E+00 -0.50000000000E+03  0.50000000000E+03  0.00000000000E+00 0. -1.
         23    2    1    2    0    0  0.49264653788E+01  0.57146713125E+02 -0.72581799800E+02  0.13036892157E+03  0.91858157868E+02 0.  0.
        -11    1    1    2    0    0  0.35791440594E+02  0.35736296272E+03  0.22762069937E+03  0.42520641708E+03  0.00000000000E+00 0. -1.
         11    1    1    2    0    0 -0.40717905973E+02 -0.41450967585E+03 -0.15503889957E+03  0.44442466135E+03  0.00000000000E+00 0. -1.
        -15    1    3    3    0    0 -0.20681179350E+02  0.65044046508E+02 -0.77262827874E+02  0.10310742682E+03  0.17770000000E+01 0. -1.
         15    1    3    3    0    0  0.25607644729E+02 -0.78973333822E+01  0.46810280749E+01  0.27261494749E+02  0.17770000000E+01 0.  1.
</event>
<event>
 7    1  0.3260141E-006  0.3468382E+03  0.7546771E-02  0.9827995E-01
        -11   -1    0    0    0    0  0.00000000000E+00  0.00000000000E+00  0.50000000000E+03  0.50000000000E+03  0.00000000000E+00 0.  1.
         11   -1    0    0    0    0 -0.00000000000E+00 -0.00000000000E+00 -0.50000000000E+03  0.50000000000E+03  0.00000000000E+00 0. -1.
         23    2    1    2    0    0 -0.16633074512E+02  0.20408127984E+03  0.29822145843E+03  0.37317273521E+03  0.91629820949E+02 0.  0.
        -11    1    1    2    0    0 -0.35815220595E+02 -0.26024977296E+03  0.52404392313E+02  0.26787850733E+03  0.00000000000E+00 0.  1.
         11    1    1    2    0    0  0.52448295108E+02  0.56168493125E+02 -0.35062585074E+03  0.35894875747E+03  0.00000000000E+00 0. -1.
        -15    1    3    3    0    0  0.29784144392E+02  0.13168601296E+03  0.15016240899E+03  0.20194110049E+03  0.17770000000E+01 0. -1.
         15    1    3    3    0    0 -0.46417218904E+02  0.72395266882E+02  0.14805904944E+03  0.17123163471E+03  0.17770000000E+01 0.  1.
</event>
<event>
 7    1  0.3260141E-006  0.3866471E+03  0.7546771E-02  0.9696699E-01
        -11   -1    0    0    0    0  0.00000000000E+00  0.00000000000E+00  0.50000000000E+03  0.50000000000E+03  0.00000000000E+00 0.  1.
         11   -1    0    0    0    0 -0.00000000000E+00 -0.00000000000E+00 -0.50000000000E+03  0.50000000000E+03  0.00000000000E+00 0. -1.
         23    2    1    2    0    0  0.47666465389E+02  0.11148364688E+03 -0.13197802939E+03  0.20620993845E+03  0.10199825013E+03 0.  0.
        -11    1    1    2    0    0  0.56022412488E+02 -0.51846783847E+02  0.44874515352E+03  0.45519096268E+03  0.00000000000E+00 0.  1.
         11    1    1    2    0    0 -0.10368887788E+03 -0.59636863032E+02 -0.31676712413E+03  0.33859909888E+03  0.00000000000E+00 0. -1.
        -15    1    3    3    0    0 -0.98951399682E+01  0.78351373634E+02 -0.30000904417E+02  0.84498896680E+02  0.17770000000E+01 0.  1.
         15    1    3    3    0    0  0.57561605358E+02  0.33132273245E+02 -0.10197712497E+03  0.12171104177E+03  0.17770000000E+01 0. -1.
</event>
<event>
 7    1  0.3260141E-006  0.5160023E+03  0.7546771E-02  0.9364699E-01
        -11   -1    0    0    0    0  0.00000000000E+00  0.00000000000E+00  0.50000000000E+03  0.50000000000E+03  0.00000000000E+00 0. -1.
         11   -1    0    0    0    0 -0.00000000000E+00 -0.00000000000E+00 -0.50000000000E+03  0.50000000000E+03  0.00000000000E+00 0.  1.
         23    2    1    2    0    0  0.95253158016E+02 -0.29223650734E+01  0.39268337237E+03  0.41510677846E+03  0.95035268495E+02 0.  0.
        -11    1    1    2    0    0 -0.13199716012E+02  0.58630512697E+02  0.81044010365E+02  0.10089549612E+03  0.00000000000E+00 0. -1.
         11    1    1    2    0    0 -0.82053442003E+02 -0.55708147623E+02 -0.47372738273E+03  0.48399772542E+03  0.00000000000E+00 0.  1.
        -15    1    3    3    0    0  0.43281844511E+02 -0.30010295837E+02  0.30568533340E+03  0.31019448207E+03  0.17770000000E+01 0. -1.
         15    1    3    3    0    0  0.51971313505E+02  0.27087930763E+02  0.86998038966E+02  0.10491229639E+03  0.17770000000E+01 0.  1.
</event>
<event>
 7    1  0.3260141E-006  0.5396971E+03  0.7546771E-02  0.9315118E-01
        -11   -1    0    0    0    0  0.00000000000E+00  0.00000000000E+00  0.50000000000E+03  0.50000000000E+03  0.00000000000E+00 0.  1.
         11   -1    0    0    0    0 -0.00000000000E+00 -0.00000000000E+00 -0.50000000000E+03  0.50000000000E+03  0.00000000000E+00 0.  1.
         23    2    1    2    0    0  0.37060057888E+02 -0.17989828286E+01  0.16945628943E+03  0.19520055990E+03  0.89504973760E+02 0.  0.
        -11    1    1    2    0    0  0.24304171091E+03  0.20328712350E+03  0.13521446680E+03  0.34449656001E+03  0.00000000000E+00 0.  1.
         11    1    1    2    0    0 -0.28010176880E+03 -0.20148814067E+03 -0.30467075623E+03  0.46030288009E+03  0.00000000000E+00 0.  1.
        -15    1    3    3    0    0  0.17881177759E+02 -0.22569863046E+02  0.62041636923E+01  0.29509059831E+02  0.17770000000E+01 0. -1.
         15    1    3    3    0    0  0.19178880129E+02  0.20770880218E+02  0.16325212574E+03  0.16569150007E+03  0.17770000000E+01 0.  1.
</event>
<event>
 7    1  0.3260141E-006  0.5155845E+03  0.7546771E-02  0.9365598E-01
        -11   -1    0    0    0    0  0.00000000000E+00  0.00000000000E+00  0.50000000000E+03  0.50000000000E+03  0.00000000000E+00 0. -1.
         11   -1    0    0    0    0 -0.00000000000E+00 -0.00000000000E+00 -0.50000000000E+03  0.50000000000E+03  0.00000000000E+00 0. -1.
         23    2    1    2    0    0  0.20443559095E+03  0.75620248460E+02 -0.27865385566E+03  0.36546976046E+03  0.91694283972E+02 0.  0.
        -11    1    1    2    0    0 -0.20711398547E+03 -0.13424548610E+03  0.41682167667E+03  0.48441548660E+03  0.00000000000E+00 0. -1.
         11    1    1    2    0    0  0.26783945260E+01  0.58625237642E+02 -0.13816782102E+03  0.15011475294E+03  0.00000000000E+00 0. -1.
        -15    1    3    3    0    0  0.11933934345E+03  0.90334190623E+02 -0.18696486386E+03  0.23950190591E+03  0.17770000000E+01 0.  1.
         15    1    3    3    0    0  0.85096247493E+02 -0.14713942163E+02 -0.91688991802E+02  0.12596785454E+03  0.17770000000E+01 0. -1.
</event>
<event>
 7    1  0.3260141E-006  0.4494823E+03  0.7546771E-02  0.9520532E-01
        -11   -1    0    0    0    0  0.00000000000E+00  0.00000000000E+00  0.50000000000E+03  0.50000000000E+03  0.00000000000E+00 0.  1.
         11   -1    0    0    0    0 -0.00000000000E+00 -0.00000000000E+00 -0.50000000000E+03  0.50000000000E+03  0.00000000000E+00 0. -1.
         23    2    1    2    0    0 -0.16738309930E+01  0.31011253440E+02  0.43629246098E+03  0.44690989842E+03  0.91721569142E+02 0.  0.
        -11    1    1    2    0    0  0.89685849209E+02 -0.53326425220E+02  0.31261669143E+01  0.10438885043E+03  0.00000000000E+00 0.  1.
         11    1    1    2    0    0 -0.88012018216E+02  0.22315171780E+02 -0.43941862789E+03  0.44870125115E+03  0.00000000000E+00 0. -1.
        -15    1    3    3    0    0  0.91433723426E+00  0.63074086962E+02  0.32395581996E+03  0.33004500826E+03  0.17770000000E+01 0.  1.
         15    1    3    3    0    0 -0.25881682273E+01 -0.32062833522E+02  0.11233664102E+03  0.11686489016E+03  0.17770000000E+01 0. -1.
</event>
<event>
 7    1  0.4740142E-006  0.5103882E+03  0.7546771E-02  0.9376861E-01
        -11   -1    0    0    0    0  0.00000000000E+00  0.00000000000E+00  0.50000000000E+03  0.50000000000E+03  0.00000000000E+00 0.  1.
         11   -1    0    0    0    0 -0.00000000000E+00 -0.00000000000E+00 -0.50000000000E+03  0.50000000000E+03  0.00000000000E+00 0. -1.
         23    2    1    2    0    0 -0.10114435613E+01 -0.22198414146E+02 -0.28322854928E+03  0.29851878028E+03  0.91658379026E+02 0.  0.
        -11    1    1    2    0    0 -0.36489790980E+02  0.93319665091E+02  0.47924909776E+03  0.48961184875E+03  0.00000000000E+00 0.  1.
         11    1    1    2    0    0  0.37501234541E+02 -0.71121250945E+02 -0.19602054848E+03  0.21186937097E+03  0.00000000000E+00 0. -1.
        -15    1    3    3    0    0 -0.45434549207E+01  0.25762449112E+02 -0.26355688703E+02  0.37176966295E+02  0.17770000000E+01 0.  1.
         15    1    3    3    0    0  0.35320113594E+01 -0.47960863258E+02 -0.25687286058E+03  0.26134181399E+03  0.17770000000E+01 0. -1.
</event>
<event>
 7    1  0.3260141E-006  0.5212964E+03  0.7546771E-02  0.9353379E-01
        -11   -1    0    0    0    0  0.00000000000E+00  0.00000000000E+00  0.50000000000E+03  0.50000000000E+03  0.00000000000E+00 0.  1.
         11   -1    0    0    0    0 -0.00000000000E+00 -0.00000000000E+00 -0.50000000000E+03  0.50000000000E+03  0.00000000000E+00 0. -1.
         23    2    1    2    0    0 -0.79047867171E+02 -0.13889854405E+03 -0.32812405208E+03  0.37704974823E+03  0.94655946672E+02 0.  0.
        -11    1    1    2    0    0  0.42714164580E+02  0.10831449256E+03  0.46432817003E+03  0.47870364385E+03  0.00000000000E+00 0.  1.
         11    1    1    2    0    0  0.36333702591E+02  0.30584051496E+02 -0.13620411795E+03  0.14424660792E+03  0.00000000000E+00 0. -1.
        -15    1    3    3    0    0  0.25217423520E+01 -0.74823233193E+02 -0.19060651852E+03  0.20478983871E+03  0.17770000000E+01 0.  1.
         15    1    3    3    0    0 -0.81569609523E+02 -0.64075310861E+02 -0.13751753356E+03  0.17225990951E+03  0.17770000000E+01 0. -1.
</event>
<event>
 7    1  0.3260141E-006  0.5195180E+03  0.7546771E-02  0.9357165E-01
        -11   -1    0    0    0    0  0.00000000000E+00  0.00000000000E+00  0.50000000000E+03  0.50000000000E+03  0.00000000000E+00 0. -1.
         11   -1    0    0    0    0 -0.00000000000E+00 -0.00000000000E+00 -0.50000000000E+03  0.50000000000E+03  0.00000000000E+00 0.  1.
         23    2    1    2    0    0  0.14032852272E+02 -0.43615705486E+02  0.36804674263E+03  0.38130193447E+03  0.88507117017E+02 0.  0.
        -11    1    1    2    0    0  0.98823577187E+02 -0.41877818211E+01  0.96540384274E+02  0.13821607258E+03  0.00000000000E+00 0. -1.
         11    1    1    2    0    0 -0.11285642946E+03  0.47803487308E+02 -0.46458712690E+03  0.48048199295E+03  0.00000000000E+00 0.  1.
        -15    1    3    3    0    0 -0.29352122897E+02  0.85743278078E+01  0.14269848428E+03  0.14594889983E+03  0.17770000000E+01 0.  1.
         15    1    3    3    0    0  0.43384975168E+02 -0.52190033294E+02  0.22534825835E+03  0.23535303464E+03  0.17770000000E+01 0. -1.
</event>
<event>
 7    1  0.3260141E-006  0.4098915E+03  0.7546771E-02  0.9627618E-01
        -11   -1    0    0    0    0  0.00000000000E+00  0.00000000000E+00  0.50000000000E+03  0.50000000000E+03  0.00000000000E+00 0. -1.
         11   -1    0    0    0    0 -0.00000000000E+00 -0.00000000000E+00 -0.50000000000E+03  0.50000000000E+03  0.00000000000E+00 0. -1.
         23    2    1    2    0    0  0.38302848129E+02  0.19222117954E+03  0.39662807028E+03  0.45173623617E+03  0.91300114403E+02 0.  0.
        -11    1    1    2    0    0 -0.82328391894E+02 -0.14921968209E+03 -0.25802988168E+02  0.17236667843E+03  0.00000000000E+00 0. -1.
         11    1    1    2    0    0  0.44025543764E+02 -0.43001497446E+02 -0.37082508212E+03  0.37589708540E+03  0.00000000000E+00 0. -1.
        -15    1    3    3    0    0 -0.18326391531E+02  0.87401738775E+01  0.69330139396E+02  0.72263913702E+02  0.17770000000E+01 0.  1.
         15    1    3    3    0    0  0.56629239661E+02  0.18348100566E+03  0.32729793089E+03  0.37947232246E+03  0.17770000000E+01 0. -1.
</event>
<event>
 7    1  0.3260141E-006  0.5244554E+03  0.7546771E-02  0.9346692E-01
        -11   -1    0    0    0    0  0.00000000000E+00  0.00000000000E+00  0.50000000000E+03  0.50000000000E+03  0.00000000000E+00 0.  1.
         11   -1    0    0    0    0 -0.00000000000E+00 -0.00000000000E+00 -0.50000000000E+03  0.50000000000E+03  0.00000000000E+00 0. -1.
         23    2    1    2    0    0  0.16781659877E+02  0.27794992554E+02 -0.19644791179E+03  0.22018942172E+03  0.94007519233E+02 0.  0.
        -11    1    1    2    0    0 -0.21913490054E+03 -0.11645962554E+03  0.40565960860E+03  0.47554460050E+03  0.00000000000E+00 0.  1.
         11    1    1    2    0    0  0.20235324067E+03  0.88664632990E+02 -0.20921169681E+03  0.30426597778E+03  0.00000000000E+00 0. -1.
        -15    1    3    3    0    0 -0.51308172192E+01  0.41194689138E+02 -0.18881897996E+03  0.19333673376E+03  0.17770000000E+01 0.  1.
         15    1    3    3    0    0  0.21912477096E+02 -0.13399696584E+02 -0.76289318305E+01  0.26852687964E+02  0.17770000000E+01 0. -1.
</event>
<event>
 7    1  0.3260141E-006  0.5133131E+03  0.7546771E-02  0.9370504E-01
        -11   -1    0    0    0    0  0.00000000000E+00  0.00000000000E+00  0.50000000000E+03  0.50000000000E+03  0.00000000000E+00 0.  1.
         11   -1    0    0    0    0 -0.00000000000E+00 -0.00000000000E+00 -0.50000000000E+03  0.50000000000E+03  0.00000000000E+00 0. -1.
         23    2    1    2    0    0  0.17495825618E+02 -0.89381457248E+02  0.30161358042E+03  0.32866982501E+03  0.93583936457E+02 0.  0.
        -11    1    1    2    0    0 -0.55697040655E+02  0.39852147410E+01  0.17599743737E+03  0.18464327833E+03  0.00000000000E+00 0.  1.
         11    1    1    2    0    0  0.38201215037E+02  0.85396242507E+02 -0.47761101779E+03  0.48668689666E+03  0.00000000000E+00 0. -1.
        -15    1    3    3    0    0  0.36917805407E+01 -0.84963813928E+02  0.30231166980E+03  0.31405092318E+03  0.17770000000E+01 0.  1.
         15    1    3    3    0    0  0.13804045078E+02 -0.44176433200E+01 -0.69808937973E+00  0.14618901833E+02  0.17770000000E+01 0. -1.
</event>
<event>
 7    1  0.3260141E-006  0.5102858E+03  0.7546771E-02  0.9377084E-01
        -11   -1    0    0    0    0  0.00000000000E+00  0.00000000000E+00  0.50000000000E+03  0.50000000000E+03  0.00000000000E+00 0. -1.
         11   -1    0    0    0    0 -0.00000000000E+00 -0.00000000000E+00 -0.50000000000E+03  0.50000000000E+03  0.00000000000E+00 0. -1.
         23    2    1    2    0    0  0.13517129594E+02  0.35052210796E+02  0.36728621402E+03  0.37824630995E+03  0.82217624046E+02 0.  0.
        -11    1    1    2    0    0 -0.38088824918E+01  0.72305399893E+02  0.11041671136E+03  0.13203949631E+03  0.00000000000E+00 0. -1.
         11    1    1    2    0    0 -0.97082471023E+01 -0.10735761069E+03 -0.47770292538E+03  0.48971419374E+03  0.00000000000E+00 0. -1.
        -15    1    3    3    0    0 -0.32604930459E+02  0.41923219672E+00  0.12783685207E+03  0.13194194072E+03  0.17770000000E+01 0.  1.
         15    1    3    3    0    0  0.46122060053E+02  0.34632978599E+02  0.23944936196E+03  0.24630436923E+03  0.17770000000E+01 0. -1.
</event>
<event>
 7    1  0.3260141E-006  0.4724478E+03  0.7546771E-02  0.9463662E-01
        -11   -1    0    0    0    0  0.00000000000E+00  0.00000000000E+00  0.50000000000E+03  0.50000000000E+03  0.00000000000E+00 0.  1.
         11   -1    0    0    0    0 -0.00000000000E+00 -0.00000000000E+00 -0.50000000000E+03  0.50000000000E+03  0.00000000000E+00 0. -1.
         23    2    1    2    0    0 -0.38579478732E+02  0.24245172651E+03 -0.35736146128E+03  0.44441307404E+03  0.97593803611E+02 0.  0.
        -11    1    1    2    0    0  0.53204661375E+02 -0.25593749620E+03  0.41730929715E+03  0.49242439769E+03  0.00000000000E+00 0.  1.
         11    1    1    2    0    0 -0.14625182643E+02  0.13485769690E+02 -0.59947835878E+02  0.63162528273E+02  0.00000000000E+00 0. -1.
        -15    1    3    3    0    0 -0.23742982834E+01  0.72367024833E+02 -0.40541408156E+02  0.83002331773E+02  0.17770000000E+01 0.  1.
         15    1    3    3    0    0 -0.36205180449E+02  0.17008470167E+03 -0.31682005312E+03  0.36141074226E+03  0.17770000000E+01 0. -1.
</event>
<event>
 7    1  0.3260141E-006  0.5188695E+03  0.7546771E-02  0.9358550E-01
        -11   -1    0    0    0    0  0.00000000000E+00  0.00000000000E+00  0.50000000000E+03  0.50000000000E+03  0.00000000000E+00 0.  1.
         11   -1    0    0    0    0 -0.00000000000E+00 -0.00000000000E+00 -0.50000000000E+03  0.50000000000E+03  0.00000000000E+00 0. -1.
         23    2    1    2    0    0  0.32471657343E+02  0.85806459717E+02  0.32731649156E+03  0.35215818116E+03  0.91989900789E+02 0.  0.
        -11    1    1    2    0    0 -0.77077905605E+02 -0.17258070708E+02  0.14681216371E+03  0.16671129521E+03  0.00000000000E+00 0.  1.
         11    1    1    2    0    0  0.44606248262E+02 -0.68548389009E+02 -0.47412865527E+03  0.48113052363E+03  0.00000000000E+00 0. -1.
        -15    1    3    3    0    0 -0.23564216010E+02  0.12635717709E+02  0.27112234909E+02  0.38120396758E+02  0.17770000000E+01 0. -1.
         15    1    3    3    0    0  0.56035873353E+02  0.73170742008E+02  0.30020425665E+03  0.31403778440E+03  0.17770000000E+01 0.  1.
</event>
<event>
 7    1  0.3260141E-006  0.5131909E+03  0.7546771E-02  0.9370768E-01
        -11   -1    0    0    0    0  0.00000000000E+00  0.00000000000E+00  0.50000000000E+03  0.50000000000E+03  0.00000000000E+00 0.  1.
         11   -1    0    0    0    0 -0.00000000000E+00 -0.00000000000E+00 -0.50000000000E+03  0.50000000000E+03  0.00000000000E+00 0. -1.
         23    2    1    2    0    0 -0.92699899032E+01 -0.24099593722E+02 -0.28242284723E+03  0.29683794378E+03  0.87654874924E+02 0.  0.
        -11    1    1    2    0    0  0.89431232023E+02 -0.22002678184E+02  0.47801777626E+03  0.48680905654E+03  0.00000000000E+00 0.  1.
         11    1    1    2    0    0 -0.80161242119E+02  0.46102271906E+02 -0.19559492903E+03  0.21635299969E+03  0.00000000000E+00 0. -1.
        -15    1    3    3    0    0  0.33589728926E+02  0.78652685575E+01 -0.74106744930E+02  0.81762459063E+02  0.17770000000E+01 0.  1.
         15    1    3    3    0    0 -0.42859718830E+02 -0.31964862280E+02 -0.20831610230E+03  0.21507548471E+03  0.17770000000E+01 0. -1.
</event>
<event>
 7    1  0.3260141E-006  0.5251337E+03  0.7546771E-02  0.9345263E-01
        -11   -1    0    0    0    0  0.00000000000E+00  0.00000000000E+00  0.50000000000E+03  0.50000000000E+03  0.00000000000E+00 0.  1.
         11   -1    0    0    0    0 -0.00000000000E+00 -0.00000000000E+00 -0.50000000000E+03  0.50000000000E+03  0.00000000000E+00 0. -1.
         23    2    1    2    0    0 -0.38803995159E+02  0.57508827829E+02  0.38976546355E+03  0.40770786804E+03  0.97445234721E+02 0.  0.
        -11    1    1    2    0    0  0.87373759546E+02  0.80887007016E+01  0.78033542471E+02  0.11742586890E+03  0.00000000000E+00 0.  1.
         11    1    1    2    0    0 -0.48569764387E+02 -0.65597528531E+02 -0.46779900602E+03  0.47486626306E+03  0.00000000000E+00 0. -1.
        -15    1    3    3    0    0 -0.70262944756E+02  0.31153713445E+02  0.22011042673E+03  0.23315057999E+03  0.17770000000E+01 0.  1.
         15    1    3    3    0    0  0.31458949597E+02  0.26355114384E+02  0.16965503682E+03  0.17455728805E+03  0.17770000000E+01 0. -1.
</event>
<event>
 7    1  0.3260141E-006  0.5103064E+03  0.7546771E-02  0.9377039E-01
        -11   -1    0    0    0    0  0.00000000000E+00  0.00000000000E+00  0.50000000000E+03  0.50000000000E+03  0.00000000000E+00 0.  1.
         11   -1    0    0    0    0 -0.00000000000E+00 -0.00000000000E+00 -0.50000000000E+03  0.50000000000E+03  0.00000000000E+00 0. -1.
         23    2    1    2    0    0  0.18653287912E+02  0.90756157323E+02  0.37393739235E+03  0.39576293595E+03  0.90633894504E+02 0.  0.
        -11    1    1    2    0    0 -0.13538224157E+02  0.72344055280E+02  0.87768161056E+02  0.11454342383E+03  0.00000000000E+00 0.  1.
         11    1    1    2    0    0 -0.51150637551E+01 -0.16310021260E+03 -0.46170555340E+03  0.48969364022E+03  0.00000000000E+00 0. -1.
        -15    1    3    3    0    0  0.81435168917E+00  0.29513566893E+02  0.19045300722E+02  0.35179468557E+02  0.17770000000E+01 0. -1.
         15    1    3    3    0    0  0.17838936223E+02  0.61242590430E+02  0.35489209163E+03  0.36058346739E+03  0.17770000000E+01 0.  1.
</event>
<event>
 7    1  0.3260141E-006  0.5263916E+03  0.7546771E-02  0.9342619E-01
        -11   -1    0    0    0    0  0.00000000000E+00  0.00000000000E+00  0.50000000000E+03  0.50000000000E+03  0.00000000000E+00 0.  1.
         11   -1    0    0    0    0 -0.00000000000E+00 -0.00000000000E+00 -0.50000000000E+03  0.50000000000E+03  0.00000000000E+00 0. -1.
         23    2    1    2    0    0 -0.64821174069E+02 -0.22371604281E+02 -0.19372284454E+03  0.22771567797E+03  0.98100031665E+02 0.  0.
        -11    1    1    2    0    0  0.18828722152E+02 -0.98831288511E+02  0.46279881497E+03  0.47360836933E+03  0.00000000000E+00 0.  1.
         11    1    1    2    0    0  0.45992451917E+02  0.12120289279E+03 -0.26907597043E+03  0.29867595270E+03  0.00000000000E+00 0. -1.
        -15    1    3    3    0    0 -0.50897143177E+02 -0.49149804509E+02 -0.67082835613E+02  0.97516598740E+02  0.17770000000E+01 0.  1.
         15    1    3    3    0    0 -0.13924030892E+02  0.26778200227E+02 -0.12664000892E+03  0.13019907923E+03  0.17770000000E+01 0. -1.
</event>
<event>
 7    1  0.3260141E-006  0.5231370E+03  0.7546771E-02  0.9349477E-01
        -11   -1    0    0    0    0  0.00000000000E+00  0.00000000000E+00  0.50000000000E+03  0.50000000000E+03  0.00000000000E+00 0. -1.
         11   -1    0    0    0    0 -0.00000000000E+00 -0.00000000000E+00 -0.50000000000E+03  0.50000000000E+03  0.00000000000E+00 0.  1.
         23    2    1    2    0    0  0.32348772811E+02  0.46604592043E+02 -0.11484299291E+03  0.15729684244E+03  0.91295961137E+02 0.  0.
        -11    1    1    2    0    0  0.54418048251E+02 -0.59339822222E+02  0.47001673898E+03  0.47686295033E+03  0.00000000000E+00 0. -1.
         11    1    1    2    0    0 -0.86766821062E+02  0.12735230179E+02 -0.35517374607E+03  0.36584020723E+03  0.00000000000E+00 0.  1.
        -15    1    3    3    0    0  0.79025601152E+01 -0.12725218777E+02 -0.85314138572E+02  0.86637414658E+02  0.17770000000E+01 0.  1.
         15    1    3    3    0    0  0.24446212696E+02  0.59329810820E+02 -0.29528854334E+02  0.70659427782E+02  0.17770000000E+01 0. -1.
</event>
<event>
 6    1  0.3260141E-006  0.3905301E+03  0.7546771E-02  0.9684803E-01
        -11   -1    0    0    0    0  0.00000000000E+00  0.00000000000E+00  0.50000000000E+03  0.50000000000E+03  0.00000000000E+00 0.  1.
         11   -1    0    0    0    0 -0.00000000000E+00 -0.00000000000E+00 -0.50000000000E+03  0.50000000000E+03  0.00000000000E+00 0.  1.
        -11    1    1    2    0    0  0.13547129502E+03 -0.13611067744E+03 -0.11101241346E+03  0.22181601437E+03  0.00000000000E+00 0.  1.
         11    1    1    2    0    0 -0.79936105134E+02 -0.49324215104E+02 -0.28973879304E+03  0.30458369505E+03  0.00000000000E+00 0.  1.
        -15    1    1    2    0    0  0.10455118318E+02  0.18518115826E+03  0.31230832723E+03  0.36323686467E+03  0.17770000000E+01 0.  1.
         15    1    1    2    0    0 -0.65990308202E+02  0.25373429014E+00  0.88442879261E+02  0.11036342591E+03  0.17770000000E+01 0. -1.
</event>
<event>
 6    1  0.3597416E-006  0.5101993E+03  0.7546771E-02  0.9377273E-01
        -11   -1    0    0    0    0  0.00000000000E+00  0.00000000000E+00  0.50000000000E+03  0.50000000000E+03  0.00000000000E+00 0.  1.
         11   -1    0    0    0    0 -0.00000000000E+00 -0.00000000000E+00 -0.50000000000E+03  0.50000000000E+03  0.00000000000E+00 0.  1.
        -11    1    1    2    0    0 -0.10013782119E+03 -0.95580191415E+02  0.46983138335E+03  0.48980065844E+03  0.00000000000E+00 0.  1.
         11    1    1    2    0    0 -0.23747095419E+02  0.31501014228E+02 -0.18507115148E+03  0.18922888138E+03  0.00000000000E+00 0.  1.
        -15    1    1    2    0    0  0.96106880061E+02  0.68536624033E+02 -0.20756134345E+03  0.23878582507E+03  0.17770000000E+01 0.  1.
         15    1    1    2    0    0  0.27778036543E+02 -0.44574468457E+01 -0.77198888425E+02  0.82184635119E+02  0.17770000000E+01 0. -1.
</event>
<event>
 7    1  0.3260141E-006  0.5231622E+03  0.7546771E-02  0.9349424E-01
        -11   -1    0    0    0    0  0.00000000000E+00  0.00000000000E+00  0.50000000000E+03  0.50000000000E+03  0.00000000000E+00 0.  1.
         11   -1    0    0    0    0 -0.00000000000E+00 -0.00000000000E+00 -0.50000000000E+03  0.50000000000E+03  0.00000000000E+00 0. -1.
         23    2    1    2    0    0 -0.48517366884E+01  0.59556870493E+01 -0.18965975205E+03  0.20987642710E+03  0.89544868888E+02 0.  0.
        -11    1    1    2    0    0 -0.71257821962E+02  0.16251172338E+03  0.44259069307E+03  0.47683777013E+03  0.00000000000E+00 0.  1.
         11    1    1    2    0    0  0.76109558651E+02 -0.16846741043E+03 -0.25293094102E+03  0.31328580277E+03  0.00000000000E+00 0. -1.
        -15    1    3    3    0    0  0.46538375548E+01 -0.38619898219E+02 -0.12368106854E+03  0.12966618367E+03  0.17770000000E+01 0. -1.
         15    1    3    3    0    0 -0.95055742432E+01  0.44575585268E+02 -0.65978683510E+02  0.80210243426E+02  0.17770000000E+01 0.  1.
</event>
<event>
 7    1  0.3260141E-006  0.5099695E+03  0.7546771E-02  0.9377774E-01
        -11   -1    0    0    0    0  0.00000000000E+00  0.00000000000E+00  0.50000000000E+03  0.50000000000E+03  0.00000000000E+00 0. -1.
         11   -1    0    0    0    0 -0.00000000000E+00 -0.00000000000E+00 -0.50000000000E+03  0.50000000000E+03  0.00000000000E+00 0. -1.
         23    2    1    2    0    0  0.85644350859E+02 -0.38507845685E+02 -0.19030433706E+03  0.23043272190E+03  0.89809184410E+02 0.  0.
        -11    1    1    2    0    0 -0.18505626926E+03  0.45287090044E+02  0.45147884415E+03  0.49003049908E+03  0.00000000000E+00 0. -1.
         11    1    1    2    0    0  0.99411918396E+02 -0.67792443592E+01 -0.26117450709E+03  0.27953677902E+03  0.00000000000E+00 0. -1.
        -15    1    3    3    0    0  0.20110829906E+02  0.14047824819E+02 -0.25407954690E+01  0.24726508695E+02  0.17770000000E+01 0.  1.
         15    1    3    3    0    0  0.65533520954E+02 -0.52555670505E+02 -0.18776354159E+03  0.20570621320E+03  0.17770000000E+01 0. -1.
</event>
<event>
 7    1  0.3260141E-006  0.4310317E+03  0.7546771E-02  0.9568910E-01
        -11   -1    0    0    0    0  0.00000000000E+00  0.00000000000E+00  0.50000000000E+03  0.50000000000E+03  0.00000000000E+00 0.  1.
         11   -1    0    0    0    0 -0.00000000000E+00 -0.00000000000E+00 -0.50000000000E+03  0.50000000000E+03  0.00000000000E+00 0. -1.
         23    2    1    2    0    0  0.32004650503E+02 -0.69838985764E+02 -0.47417785552E+02  0.13322231434E+03  0.97969163845E+02 0.  0.
        -11    1    1    2    0    0 -0.59190957372E+02 -0.46938998446E+02  0.44507342696E+03  0.45143902622E+03  0.00000000000E+00 0.  1.
         11    1    1    2    0    0  0.27186306869E+02  0.11677798421E+03 -0.39765564141E+03  0.41533865944E+03  0.00000000000E+00 0. -1.
        -15    1    3    3    0    0  0.50479442958E+02 -0.16672910901E+02  0.84962477877E+01  0.53865611244E+02  0.17770000000E+01 0.  1.
         15    1    3    3    0    0 -0.18474792455E+02 -0.53166074863E+02 -0.55914033340E+02  0.79356703094E+02  0.17770000000E+01 0. -1.
</event>
<event>
 7    1  0.3260141E-006  0.5071299E+03  0.7546771E-02  0.9383996E-01
        -11   -1    0    0    0    0  0.00000000000E+00  0.00000000000E+00  0.50000000000E+03  0.50000000000E+03  0.00000000000E+00 0.  1.
         11   -1    0    0    0    0 -0.00000000000E+00 -0.00000000000E+00 -0.50000000000E+03  0.50000000000E+03  0.00000000000E+00 0. -1.
         23    2    1    2    0    0  0.10247773555E+02  0.14073047277E+03 -0.36325210790E+03  0.39810391247E+03  0.81391328785E+02 0.  0.
        -11    1    1    2    0    0 -0.37260417793E+02 -0.14806961276E+03  0.46862347644E+03  0.49287007581E+03  0.00000000000E+00 0.  1.
         11    1    1    2    0    0  0.27012644238E+02  0.73391399836E+01 -0.10537136854E+03  0.10902601172E+03  0.00000000000E+00 0. -1.
        -15    1    3    3    0    0  0.23615489450E+02  0.94623790248E+02 -0.31603532987E+03  0.33074588505E+03  0.17770000000E+01 0.  1.
         15    1    3    3    0    0 -0.13367715895E+02  0.46106682524E+02 -0.47216778036E+02  0.67358027426E+02  0.17770000000E+01 0. -1.
</event>
<event>
 7    1  0.3260141E-006  0.5212068E+03  0.7546771E-02  0.9353569E-01
        -11   -1    0    0    0    0  0.00000000000E+00  0.00000000000E+00  0.50000000000E+03  0.50000000000E+03  0.00000000000E+00 0.  1.
         11   -1    0    0    0    0 -0.00000000000E+00 -0.00000000000E+00 -0.50000000000E+03  0.50000000000E+03  0.00000000000E+00 0. -1.
         23    2    1    2    0    0  0.18409624833E+02 -0.35816121530E+02  0.31811551069E+03  0.33266361489E+03  0.88577049384E+02 0.  0.
        -11    1    1    2    0    0  0.13182768922E+03 -0.42137860651E+01  0.13473024566E+03  0.18854319063E+03  0.00000000000E+00 0.  1.
         11    1    1    2    0    0 -0.15023731405E+03  0.40029907595E+02 -0.45284575635E+03  0.47879319448E+03  0.00000000000E+00 0. -1.
        -15    1    3    3    0    0  0.38861567846E+02 -0.33837284558E+02  0.30232162431E+03  0.30668665693E+03  0.17770000000E+01 0.  1.
         15    1    3    3    0    0 -0.20451943013E+02 -0.19788369720E+01  0.15793886380E+02  0.25976957958E+02  0.17770000000E+01 0. -1.
</event>
<event>
 7    1  0.3260141E-006  0.5260946E+03  0.7546771E-02  0.9343242E-01
        -11   -1    0    0    0    0  0.00000000000E+00  0.00000000000E+00  0.50000000000E+03  0.50000000000E+03  0.00000000000E+00 0.  1.
         11   -1    0    0    0    0 -0.00000000000E+00 -0.00000000000E+00 -0.50000000000E+03  0.50000000000E+03  0.00000000000E+00 0. -1.
         23    2    1    2    0    0  0.33580917129E+02  0.26560807407E+02 -0.12840814402E+03  0.16312795565E+03  0.91043527936E+02 0.  0.
        -11    1    1    2    0    0  0.62034669752E+02  0.72855339270E+02  0.46414448669E+03  0.47390537582E+03  0.00000000000E+00 0.  1.
         11    1    1    2    0    0 -0.95615586881E+02 -0.99416146678E+02 -0.33573634267E+03  0.36296666853E+03  0.00000000000E+00 0. -1.
        -15    1    3    3    0    0 -0.21411539245E+02 -0.41215728621E+01 -0.82036775847E+02  0.84903661264E+02  0.17770000000E+01 0. -1.
         15    1    3    3    0    0  0.54992456375E+02  0.30682380269E+02 -0.46371368172E+02  0.78224294387E+02  0.17770000000E+01 0.  1.
</event>
<event>
 7    1  0.3260141E-006  0.5241308E+03  0.7546771E-02  0.9347377E-01
        -11   -1    0    0    0    0  0.00000000000E+00  0.00000000000E+00  0.50000000000E+03  0.50000000000E+03  0.00000000000E+00 0.  1.
         11   -1    0    0    0    0 -0.00000000000E+00 -0.00000000000E+00 -0.50000000000E+03  0.50000000000E+03  0.00000000000E+00 0.  1.
         23    2    1    2    0    0  0.34996502419E+02  0.10597256933E+03  0.32109697176E+03  0.35201519765E+03  0.91413858195E+02 0.  0.
        -11    1    1    2    0    0 -0.91695233595E+02 -0.22373637475E+02  0.14392771668E+03  0.17211560983E+03  0.00000000000E+00 0.  1.
         11    1    1    2    0    0  0.56698731175E+02 -0.83598931855E+02 -0.46502468845E+03  0.47586919252E+03  0.00000000000E+00 0.  1.
        -15    1    3    3    0    0 -0.22393786321E+02  0.47014598596E+02  0.19177680699E+03  0.19872935257E+03  0.17770000000E+01 0.  1.
         15    1    3    3    0    0  0.57390288740E+02  0.58957970734E+02  0.12932016478E+03  0.15328584508E+03  0.17770000000E+01 0. -1.
</event>
<event>
 7    1  0.3260141E-006  0.5213447E+03  0.7546771E-02  0.9353276E-01
        -11   -1    0    0    0    0  0.00000000000E+00  0.00000000000E+00  0.50000000000E+03  0.50000000000E+03  0.00000000000E+00 0.  1.
         11   -1    0    0    0    0 -0.00000000000E+00 -0.00000000000E+00 -0.50000000000E+03  0.50000000000E+03  0.00000000000E+00 0. -1.
         23    2    1    2    0    0  0.31501788375E+02 -0.39271328269E+02  0.86635142658E+02  0.14006285286E+03  0.97863961258E+02 0.  0.
        -11    1    1    2    0    0  0.19395339302E+03 -0.18602269909E+03  0.27046906793E+03  0.38128189040E+03  0.00000000000E+00 0.  1.
         11    1    1    2    0    0 -0.22545518139E+03  0.22529402736E+03 -0.35710421059E+03  0.47865525674E+03  0.00000000000E+00 0. -1.
        -15    1    3    3    0    0  0.27439251349E+02 -0.62911147779E+02  0.92605544215E+02  0.11528082919E+03  0.17770000000E+01 0.  1.
         15    1    3    3    0    0  0.40625370259E+01  0.23639819511E+02 -0.59704015574E+01  0.24782023673E+02  0.17770000000E+01 0. -1.
</event>
<event>
 7    1  0.3260141E-006  0.5091772E+03  0.7546771E-02  0.9379506E-01
        -11   -1    0    0    0    0  0.00000000000E+00  0.00000000000E+00  0.50000000000E+03  0.50000000000E+03  0.00000000000E+00 0.  1.
         11   -1    0    0    0    0 -0.00000000000E+00 -0.00000000000E+00 -0.50000000000E+03  0.50000000000E+03  0.00000000000E+00 0. -1.
         23    2    1    2    0    0 -0.14917902441E+03 -0.16748449785E+02 -0.35353548505E+03  0.39562115822E+03  0.94836015036E+02 0.  0.
        -11    1    1    2    0    0  0.18628203947E+03  0.64937786848E+02  0.44943195849E+03  0.49082277831E+03  0.00000000000E+00 0.  1.
         11    1    1    2    0    0 -0.37103015057E+02 -0.48189337063E+02 -0.95896473440E+02  0.11355606347E+03  0.00000000000E+00 0. -1.
        -15    1    3    3    0    0 -0.11811064739E+03 -0.30431566255E+01 -0.15880063584E+03  0.19793985324E+03  0.17770000000E+01 0.  1.
         15    1    3    3    0    0 -0.31068377017E+02 -0.13705293160E+02 -0.19473484922E+03  0.19768130498E+03  0.17770000000E+01 0. -1.
</event>
<event>
 7    1  0.3260141E-006  0.4217822E+03  0.7546771E-02  0.9594144E-01
        -11   -1    0    0    0    0  0.00000000000E+00  0.00000000000E+00  0.50000000000E+03  0.50000000000E+03  0.00000000000E+00 0.  1.
         11   -1    0    0    0    0 -0.00000000000E+00 -0.00000000000E+00 -0.50000000000E+03  0.50000000000E+03  0.00000000000E+00 0.  1.
         23    2    1    2    0    0  0.49799523476E+01 -0.18598270084E+03  0.34596430604E+03  0.40306519636E+03  0.90309946974E+02 0.  0.
        -11    1    1    2    0    0  0.45040070918E+02  0.11450770200E+03  0.89922878595E+02  0.15240323455E+03  0.00000000000E+00 0.  1.
         11    1    1    2    0    0 -0.50020023266E+02  0.71474998836E+02 -0.43588718464E+03  0.44453156909E+03  0.00000000000E+00 0.  1.
        -15    1    3    3    0    0 -0.41736237083E+02 -0.74224744212E+02  0.12924584867E+03  0.15478654097E+03  0.17770000000E+01 0.  1.
         15    1    3    3    0    0  0.46716189430E+02 -0.11175795663E+03  0.21671845737E+03  0.24827865538E+03  0.17770000000E+01 0. -1.
</event>
<event>
 7    1  0.3260141E-006  0.3657858E+03  0.7546771E-02  0.9763271E-01
        -11   -1    0    0    0    0  0.00000000000E+00  0.00000000000E+00  0.50000000000E+03  0.50000000000E+03  0.00000000000E+00 0.  1.
         11   -1    0    0    0    0 -0.00000000000E+00 -0.00000000000E+00 -0.50000000000E+03  0.50000000000E+03  0.00000000000E+00 0.  1.
         23    2    1    2    0    0 -0.12495451130E+02 -0.15399175726E+03  0.15036047169E+03  0.23732386408E+03  0.99220700532E+02 0.  0.
        -11    1    1    2    0    0 -0.32170455761E+02  0.84539409751E+02  0.29560278448E+03  0.30913242505E+03  0.00000000000E+00 0.  1.
         11    1    1    2    0    0  0.44665906890E+02  0.69452347511E+02 -0.44596325617E+03  0.45354371087E+03  0.00000000000E+00 0.  1.
        -15    1    3    3    0    0 -0.50799244954E+02 -0.54939435428E+02  0.43088388661E+02  0.86363602399E+02  0.17770000000E+01 0. -1.
         15    1    3    3    0    0  0.38303793824E+02 -0.99052321835E+02  0.10727208303E+03  0.15096026168E+03  0.17770000000E+01 0.  1.
</event>
<event>
 7    1  0.3260141E-006  0.5390972E+03  0.7546771E-02  0.9316340E-01
        -11   -1    0    0    0    0  0.00000000000E+00  0.00000000000E+00  0.50000000000E+03  0.50000000000E+03  0.00000000000E+00 0.  1.
         11   -1    0    0    0    0 -0.00000000000E+00 -0.00000000000E+00 -0.50000000000E+03  0.50000000000E+03  0.00000000000E+00 0. -1.
         23    2    1    2    0    0 -0.97597423226E+02 -0.16971453755E+03  0.22831440465E+03  0.31411770913E+03  0.90632149591E+02 0.  0.
        -11    1    1    2    0    0  0.65757289473E+02 -0.21362835230E+03  0.25586782985E+02  0.22497950460E+03  0.00000000000E+00 0.  1.
         11    1    1    2    0    0  0.31840133753E+02  0.38334288985E+03 -0.25390118763E+03  0.46090278628E+03  0.00000000000E+00 0. -1.
        -15    1    3    3    0    0 -0.27094092123E+02  0.29874438769E+01  0.44567951671E+02  0.52273078100E+02  0.17770000000E+01 0. -1.
         15    1    3    3    0    0 -0.70503331103E+02 -0.17270198143E+03  0.18374645298E+03  0.26184463103E+03  0.17770000000E+01 0.  1.
</event>
<event>
 6    1  0.3260141E-006  0.4599827E+03  0.7546771E-02  0.9494091E-01
        -11   -1    0    0    0    0  0.00000000000E+00  0.00000000000E+00  0.50000000000E+03  0.50000000000E+03  0.00000000000E+00 0. -1.
         11   -1    0    0    0    0 -0.00000000000E+00 -0.00000000000E+00 -0.50000000000E+03  0.50000000000E+03  0.00000000000E+00 0.  1.
        -11    1    1    2    0    0 -0.10342915804E+03 -0.19008879652E+03  0.43284334579E+03  0.48392634077E+03  0.00000000000E+00 0. -1.
         11    1    1    2    0    0  0.20529977580E+02  0.13964571266E+02 -0.96407335359E+02  0.99553320090E+02  0.00000000000E+00 0.  1.
        -15    1    1    2    0    0  0.30408752738E+02 -0.58139455729E+00 -0.15464119283E+03  0.15761372565E+03  0.17770000000E+01 0. -1.
         15    1    1    2    0    0  0.52490427719E+02  0.17670561981E+03 -0.18179481760E+03  0.25890661349E+03  0.17770000000E+01 0.  1.
</event>
<event>
 7    1  0.3260141E-006  0.5223145E+03  0.7546771E-02  0.9351219E-01
        -11   -1    0    0    0    0  0.00000000000E+00  0.00000000000E+00  0.50000000000E+03  0.50000000000E+03  0.00000000000E+00 0. -1.
         11   -1    0    0    0    0 -0.00000000000E+00 -0.00000000000E+00 -0.50000000000E+03  0.50000000000E+03  0.00000000000E+00 0.  1.
         23    2    1    2    0    0  0.25895435624E+02 -0.24413723135E+03 -0.29023785970E+03  0.39070921152E+03  0.90233649201E+02 0.  0.
        -11    1    1    2    0    0 -0.12732980731E+03  0.27815657077E+03  0.36687799166E+03  0.47768548068E+03  0.00000000000E+00 0. -1.
         11    1    1    2    0    0  0.10143437169E+03 -0.34019339422E+02 -0.76640131958E+02  0.13160530780E+03  0.00000000000E+00 0.  1.
        -15    1    3    3    0    0  0.33434050272E+01 -0.13637126092E+03 -0.93949999967E+02  0.16564437625E+03  0.17770000000E+01 0. -1.
         15    1    3    3    0    0  0.22552030596E+02 -0.10776597043E+03 -0.19628785973E+03  0.22506483527E+03  0.17770000000E+01 0.  1.
</event>
<event>
 7    1  0.3260141E-006  0.5094671E+03  0.7546771E-02  0.9378872E-01
        -11   -1    0    0    0    0  0.00000000000E+00  0.00000000000E+00  0.50000000000E+03  0.50000000000E+03  0.00000000000E+00 0.  1.
         11   -1    0    0    0    0 -0.00000000000E+00 -0.00000000000E+00 -0.50000000000E+03  0.50000000000E+03  0.00000000000E+00 0.  1.
         23    2    1    2    0    0 -0.24997429594E+02 -0.38463226901E+02 -0.20558817955E+03  0.22916024777E+03  0.90242053825E+02 0.  0.
        -11    1    1    2    0    0  0.34989179782E+02  0.90754295007E+02  0.48079305985E+03  0.49053292567E+03  0.00000000000E+00 0.  1.
         11    1    1    2    0    0 -0.99917501886E+01 -0.52291068106E+02 -0.27520488030E+03  0.28030682656E+03  0.00000000000E+00 0.  1.
        -15    1    3    3    0    0  0.28196838049E+02  0.23574532597E+01 -0.10106304444E+03  0.10496435558E+03  0.17770000000E+01 0. -1.
         15    1    3    3    0    0 -0.53194267643E+02 -0.40820680160E+02 -0.10452513511E+03  0.12419589219E+03  0.17770000000E+01 0.  1.
</event>
<event>
 7    1  0.3260141E-006  0.4057581E+03  0.7546771E-02  0.9639539E-01
        -11   -1    0    0    0    0  0.00000000000E+00  0.00000000000E+00  0.50000000000E+03  0.50000000000E+03  0.00000000000E+00 0. -1.
         11   -1    0    0    0    0 -0.00000000000E+00 -0.00000000000E+00 -0.50000000000E+03  0.50000000000E+03  0.00000000000E+00 0.  1.
         23    2    1    2    0    0  0.35333494265E+02 -0.88249724057E+02  0.33311164389E+03  0.35833582267E+03  0.91677286730E+02 0.  0.
        -11    1    1    2    0    0 -0.11981038344E+03  0.56830814446E+02  0.12050461509E+03  0.17918044455E+03  0.00000000000E+00 0. -1.
         11    1    1    2    0    0  0.84476889175E+02  0.31418909611E+02 -0.45361625897E+03  0.46248373278E+03  0.00000000000E+00 0.  1.
        -15    1    3    3    0    0  0.29998095995E+02 -0.40658596578E+02  0.28838797746E+03  0.29278625397E+03  0.17770000000E+01 0.  1.
         15    1    3    3    0    0  0.53353982696E+01 -0.47591127479E+02  0.44723666423E+02  0.65549568700E+02  0.17770000000E+01 0. -1.
</event>
<event>
 7    1  0.3260141E-006  0.5327013E+03  0.7546771E-02  0.9329471E-01
        -11   -1    0    0    0    0  0.00000000000E+00  0.00000000000E+00  0.50000000000E+03  0.50000000000E+03  0.00000000000E+00 0. -1.
         11   -1    0    0    0    0 -0.00000000000E+00 -0.00000000000E+00 -0.50000000000E+03  0.50000000000E+03  0.00000000000E+00 0.  1.
         23    2    1    2    0    0 -0.45754362025E+02  0.51572758106E+01 -0.79251258188E+02  0.12699837788E+03  0.87907718220E+02 0.  0.
        -11    1    1    2    0    0  0.10753350731E+03  0.29138778946E+03  0.34913865004E+03  0.46729872244E+03  0.00000000000E+00 0. -1.
         11    1    1    2    0    0 -0.61779145286E+02 -0.29654506527E+03 -0.26988739185E+03  0.40570289968E+03  0.00000000000E+00 0.  1.
        -15    1    3    3    0    0  0.21070658636E+02 -0.18392937680E+02 -0.27275649097E+02  0.39107436307E+02  0.17770000000E+01 0.  1.
         15    1    3    3    0    0 -0.66825020661E+02  0.23550213490E+02 -0.51975609090E+02  0.87890941576E+02  0.17770000000E+01 0. -1.
</event>
<event>
 7    1  0.3260141E-006  0.5289365E+03  0.7546771E-02  0.9337293E-01
        -11   -1    0    0    0    0  0.00000000000E+00  0.00000000000E+00  0.50000000000E+03  0.50000000000E+03  0.00000000000E+00 0.  1.
         11   -1    0    0    0    0 -0.00000000000E+00 -0.00000000000E+00 -0.50000000000E+03  0.50000000000E+03  0.00000000000E+00 0.  1.
         23    2    1    2    0    0  0.47268694107E+02  0.11695407294E+03  0.25501881976E+03  0.29798414447E+03  0.88585367330E+02 0.  0.
        -11    1    1    2    0    0 -0.85672047910E+02 -0.47067732539E+02  0.20924608011E+03  0.23095236149E+03  0.00000000000E+00 0.  1.
         11    1    1    2    0    0  0.38403353803E+02 -0.69886340397E+02 -0.46426489987E+03  0.47106349403E+03  0.00000000000E+00 0.  1.
        -15    1    3    3    0    0  0.17690979510E+02  0.14634074936E+01  0.10425895288E+03  0.10577428469E+03  0.17770000000E+01 0. -1.
         15    1    3    3    0    0  0.29577714596E+02  0.11549066544E+03  0.15075986688E+03  0.19220985978E+03  0.17770000000E+01 0.  1.
</event>
<event>
 7    1  0.3260141E-006  0.5191295E+03  0.7546771E-02  0.9357995E-01
        -11   -1    0    0    0    0  0.00000000000E+00  0.00000000000E+00  0.50000000000E+03  0.50000000000E+03  0.00000000000E+00 0.  1.
         11   -1    0    0    0    0 -0.00000000000E+00 -0.00000000000E+00 -0.50000000000E+03  0.50000000000E+03  0.00000000000E+00 0. -1.
         23    2    1    2    0    0 -0.30733477237E+02  0.42798613747E+00  0.21212330925E+03  0.23025213825E+03  0.84113132426E+02 0.  0.
        -11    1    1    2    0    0  0.97018860235E+02  0.97784406559E+02  0.25392065759E+03  0.28887739572E+03  0.00000000000E+00 0.  1.
         11    1    1    2    0    0 -0.66285382998E+02 -0.98212392696E+02 -0.46604396684E+03  0.48087046603E+03  0.00000000000E+00 0. -1.
        -15    1    3    3    0    0  0.34314239597E+01  0.32718187562E+02  0.14227076355E+03  0.14603555169E+03  0.17770000000E+01 0. -1.
         15    1    3    3    0    0 -0.34164901197E+02 -0.32290201425E+02  0.69852545700E+02  0.84216586559E+02  0.17770000000E+01 0.  1.
</event>
<event>
 6    1  0.3260141E-006  0.5187630E+03  0.7546771E-02  0.9358778E-01
        -11   -1    0    0    0    0  0.00000000000E+00  0.00000000000E+00  0.50000000000E+03  0.50000000000E+03  0.00000000000E+00 0. -1.
         11   -1    0    0    0    0 -0.00000000000E+00 -0.00000000000E+00 -0.50000000000E+03  0.50000000000E+03  0.00000000000E+00 0. -1.
        -11    1    1    2    0    0  0.62256015284E+02  0.49784625132E+02  0.18428485121E+03  0.20078652027E+03  0.00000000000E+00 0. -1.
         11    1    1    2    0    0 -0.99392796376E+02 -0.52503729220E+02 -0.46792468246E+03  0.48123702893E+03  0.00000000000E+00 0. -1.
        -15    1    1    2    0    0  0.74340008947E+02  0.25438771542E+02  0.25230304823E+03  0.26426039034E+03  0.17770000000E+01 0.  1.
         15    1    1    2    0    0 -0.37203227855E+02 -0.22719667454E+02  0.31336783025E+02  0.53716060461E+02  0.17770000000E+01 0. -1.
</event>
<event>
 7    1  0.3260141E-006  0.4622214E+03  0.7546771E-02  0.9488551E-01
        -11   -1    0    0    0    0  0.00000000000E+00  0.00000000000E+00  0.50000000000E+03  0.50000000000E+03  0.00000000000E+00 0.  1.
         11   -1    0    0    0    0 -0.00000000000E+00 -0.00000000000E+00 -0.50000000000E+03  0.50000000000E+03  0.00000000000E+00 0. -1.
         23    2    1    2    0    0  0.17180554046E+02 -0.19878383660E+02  0.43234872466E+03  0.44267861853E+03  0.91370772207E+02 0.  0.
        -11    1    1    2    0    0  0.54120949048E+02 -0.50423349505E+02  0.33233901092E+02  0.81093054468E+02  0.00000000000E+00 0.  1.
         11    1    1    2    0    0 -0.71301503094E+02  0.70301733165E+02 -0.46558262576E+03  0.47622832700E+03  0.00000000000E+00 0. -1.
        -15    1    3    3    0    0  0.52228412409E+02 -0.27207395771E+02  0.28567812515E+03  0.29169024386E+03  0.17770000000E+01 0.  1.
         15    1    3    3    0    0 -0.35047858363E+02  0.73290121111E+01  0.14667059952E+03  0.15098837467E+03  0.17770000000E+01 0. -1.
</event>
<event>
 7    1  0.3260141E-006  0.5160397E+03  0.7546771E-02  0.9364618E-01
        -11   -1    0    0    0    0  0.00000000000E+00  0.00000000000E+00  0.50000000000E+03  0.50000000000E+03  0.00000000000E+00 0. -1.
         11   -1    0    0    0    0 -0.00000000000E+00 -0.00000000000E+00 -0.50000000000E+03  0.50000000000E+03  0.00000000000E+00 0.  1.
         23    2    1    2    0    0  0.62844220207E+02  0.15491746359E+02  0.20162724923E+03  0.23116564183E+03  0.92707152434E+02 0.  0.
        -11    1    1    2    0    0  0.15368157093E+03  0.11254555482E+03  0.21182236409E+03  0.28487407934E+03  0.00000000000E+00 0. -1.
         11    1    1    2    0    0 -0.21652579114E+03 -0.12803730117E+03 -0.41344961332E+03  0.48396027882E+03  0.00000000000E+00 0.  1.
        -15    1    3    3    0    0  0.33574316834E+02 -0.20644426241E+02  0.21109751577E+02  0.44746021346E+02  0.17770000000E+01 0.  1.
         15    1    3    3    0    0  0.29269903373E+02  0.36136172600E+02  0.18051749765E+03  0.18641962049E+03  0.17770000000E+01 0. -1.
</event>
<event>
 7    1  0.3260141E-006  0.5108456E+03  0.7546771E-02  0.9375864E-01
        -11   -1    0    0    0    0  0.00000000000E+00  0.00000000000E+00  0.50000000000E+03  0.50000000000E+03  0.00000000000E+00 0. -1.
         11   -1    0    0    0    0 -0.00000000000E+00 -0.00000000000E+00 -0.50000000000E+03  0.50000000000E+03  0.00000000000E+00 0. -1.
         23    2    1    2    0    0  0.63221015001E+02 -0.33235775653E+02 -0.17013295498E+03  0.20546867375E+03  0.90391592542E+02 0.  0.
        -11    1    1    2    0    0 -0.16557105918E+03  0.54107523021E+02  0.45708926614E+03  0.48915436920E+03  0.00000000000E+00 0. -1.
         11    1    1    2    0    0  0.10235004418E+03 -0.20871747368E+02 -0.28695631116E+03  0.30537695705E+03  0.00000000000E+00 0. -1.
        -15    1    3    3    0    0  0.42155507223E+02  0.24120818811E+02 -0.45146265306E+02  0.66334332660E+02  0.17770000000E+01 0.  1.
         15    1    3    3    0    0  0.21065507778E+02 -0.57356594464E+02 -0.12498668968E+03  0.13913434109E+03  0.17770000000E+01 0. -1.
</event>
<event>
 7    1  0.3260141E-006  0.5260597E+03  0.7546771E-02  0.9343316E-01
        -11   -1    0    0    0    0  0.00000000000E+00  0.00000000000E+00  0.50000000000E+03  0.50000000000E+03  0.00000000000E+00 0.  1.
         11   -1    0    0    0    0 -0.00000000000E+00 -0.00000000000E+00 -0.50000000000E+03  0.50000000000E+03  0.00000000000E+00 0. -1.
         23    2    1    2    0    0  0.30313832244E+01  0.26039455984E+02  0.34472808695E+03  0.35762288576E+03  0.91484599461E+02 0.  0.
        -11    1    1    2    0    0 -0.12321066646E+03 -0.16704547248E+02  0.11362680404E+03  0.16843681553E+03  0.00000000000E+00 0.  1.
         11    1    1    2    0    0  0.12017928324E+03 -0.93349087354E+01 -0.45835489099E+03  0.47394029871E+03  0.00000000000E+00 0. -1.
        -15    1    3    3    0    0  0.21867644881E+02  0.55441970610E+02  0.19776159873E+03  0.20655462633E+03  0.17770000000E+01 0.  1.
         15    1    3    3    0    0 -0.18836261657E+02 -0.29402514626E+02  0.14696648822E+03  0.15106825943E+03  0.17770000000E+01 0. -1.
</event>
<event>
 7    1  0.3260141E-006  0.5142873E+03  0.7546771E-02  0.9368396E-01
        -11   -1    0    0    0    0  0.00000000000E+00  0.00000000000E+00  0.50000000000E+03  0.50000000000E+03  0.00000000000E+00 0.  1.
         11   -1    0    0    0    0 -0.00000000000E+00 -0.00000000000E+00 -0.50000000000E+03  0.50000000000E+03  0.00000000000E+00 0. -1.
         23    2    1    2    0    0 -0.72236868517E+02 -0.53491668563E+02  0.33927629554E+03  0.36401451894E+03  0.96533110925E+02 0.  0.
        -11    1    1    2    0    0 -0.47461382033E+00 -0.92918648678E+02  0.11810086472E+03  0.15027280119E+03  0.00000000000E+00 0.  1.
         11    1    1    2    0    0  0.72711482338E+02  0.14641031724E+03 -0.45737716026E+03  0.48571267987E+03  0.00000000000E+00 0. -1.
        -15    1    3    3    0    0 -0.58247094082E+02  0.15800616569E+02  0.13633820267E+03  0.14910951240E+03  0.17770000000E+01 0.  1.
         15    1    3    3    0    0 -0.13989774435E+02 -0.69292285132E+02  0.20293809287E+03  0.21490500654E+03  0.17770000000E+01 0. -1.
</event>
<event>
 7    1  0.3260141E-006  0.3253696E+03  0.7546771E-02  0.9906912E-01
        -11   -1    0    0    0    0  0.00000000000E+00  0.00000000000E+00  0.50000000000E+03  0.50000000000E+03  0.00000000000E+00 0. -1.
         11   -1    0    0    0    0 -0.00000000000E+00 -0.00000000000E+00 -0.50000000000E+03  0.50000000000E+03  0.00000000000E+00 0.  1.
         23    2    1    2    0    0 -0.15558327204E+03 -0.16059730088E+03 -0.23380116405E+03  0.33592450414E+03  0.90469003439E+02 0.  0.
        -11    1    1    2    0    0  0.22885780010E+02  0.28273054612E+03 -0.86448733706E+02  0.29653617688E+03  0.00000000000E+00 0. -1.
         11    1    1    2    0    0  0.13269749203E+03 -0.12213324524E+03  0.32024989775E+03  0.36753931898E+03  0.00000000000E+00 0.  1.
        -15    1    3    3    0    0 -0.12838836643E+03 -0.96112957978E+02 -0.20484612823E+03  0.26016603796E+03  0.17770000000E+01 0.  1.
         15    1    3    3    0    0 -0.27194905612E+02 -0.64484342901E+02 -0.28955035821E+02  0.75758466187E+02  0.17770000000E+01 0. -1.
</event>
<event>
 7    1  0.3260141E-006  0.5194730E+03  0.7546771E-02  0.9357262E-01
        -11   -1    0    0    0    0  0.00000000000E+00  0.00000000000E+00  0.50000000000E+03  0.50000000000E+03  0.00000000000E+00 0. -1.
         11   -1    0    0    0    0 -0.00000000000E+00 -0.00000000000E+00 -0.50000000000E+03  0.50000000000E+03  0.00000000000E+00 0.  1.
         23    2    1    2    0    0  0.62715454798E+02  0.54998722599E+02  0.14785368530E+03  0.19133067178E+03  0.88253192277E+02 0.  0.
        -11    1    1    2    0    0  0.30271049735E+02 -0.45901588064E+02  0.32350283333E+03  0.32814230969E+03  0.00000000000E+00 0. -1.
         11    1    1    2    0    0 -0.92986504533E+02 -0.90971345343E+01 -0.47135651863E+03  0.48052701853E+03  0.00000000000E+00 0.  1.
        -15    1    3    3    0    0  0.18068002258E+01  0.17546282264E+02 -0.83006509018E+01  0.19575369287E+02  0.17770000000E+01 0. -1.
         15    1    3    3    0    0  0.60908654572E+02  0.37452440335E+02  0.15615433620E+03  0.17175530249E+03  0.17770000000E+01 0.  1.
</event>
<event>
 7    1  0.3260141E-006  0.4813944E+03  0.7546771E-02  0.9442431E-01
        -11   -1    0    0    0    0  0.00000000000E+00  0.00000000000E+00  0.50000000000E+03  0.50000000000E+03  0.00000000000E+00 0.  1.
         11   -1    0    0    0    0 -0.00000000000E+00 -0.00000000000E+00 -0.50000000000E+03  0.50000000000E+03  0.00000000000E+00 0.  1.
         23    2    1    2    0    0  0.14198860586E+03  0.11318709864E+03  0.42335441150E+03  0.46956093491E+03  0.91029832268E+02 0.  0.
        -11    1    1    2    0    0  0.42278698962E+02  0.12667192680E+02  0.79341002963E+01  0.44843016221E+02  0.00000000000E+00 0.  1.
         11    1    1    2    0    0 -0.18426730482E+03 -0.12585429132E+03 -0.43128851180E+03  0.48559604887E+03  0.00000000000E+00 0.  1.
        -15    1    3    3    0    0  0.94484654523E+02  0.17338114569E+02  0.19493202647E+03  0.21732375118E+03  0.17770000000E+01 0.  1.
         15    1    3    3    0    0  0.47503951340E+02  0.95848984072E+02  0.22842238503E+03  0.25223718372E+03  0.17770000000E+01 0. -1.
</event>
<event>
 7    1  0.3260141E-006  0.3916385E+03  0.7546771E-02  0.9681434E-01
        -11   -1    0    0    0    0  0.00000000000E+00  0.00000000000E+00  0.50000000000E+03  0.50000000000E+03  0.00000000000E+00 0. -1.
         11   -1    0    0    0    0 -0.00000000000E+00 -0.00000000000E+00 -0.50000000000E+03  0.50000000000E+03  0.00000000000E+00 0.  1.
         23    2    1    2    0    0 -0.52800000940E+02 -0.56823227801E+02  0.36002924498E+03  0.37966599584E+03  0.92241486552E+02 0.  0.
        -11    1    1    2    0    0  0.14164439765E+02  0.19878502657E+03  0.31784878154E+02  0.20180782101E+03  0.00000000000E+00 0. -1.
         11    1    1    2    0    0  0.38635561175E+02 -0.14196179877E+03 -0.39181412313E+03  0.41852618315E+03  0.00000000000E+00 0.  1.
        -15    1    3    3    0    0 -0.15737611818E+02 -0.66741423553E+01  0.32715161569E+01  0.17495060700E+02  0.17770000000E+01 0.  1.
         15    1    3    3    0    0 -0.37062389122E+02 -0.50149085445E+02  0.35675772882E+03  0.36217093514E+03  0.17770000000E+01 0. -1.
</event>
<event>
 7    1  0.3260141E-006  0.4120402E+03  0.7546771E-02  0.9621480E-01
        -11   -1    0    0    0    0  0.00000000000E+00  0.00000000000E+00  0.50000000000E+03  0.50000000000E+03  0.00000000000E+00 0.  1.
         11   -1    0    0    0    0 -0.00000000000E+00 -0.00000000000E+00 -0.50000000000E+03  0.50000000000E+03  0.00000000000E+00 0.  1.
         23    2    1    2    0    0  0.32431335591E+02  0.14549370701E+03  0.39497078750E+03  0.43208112647E+03  0.92043286379E+02 0.  0.
        -11    1    1    2    0    0 -0.15813209194E+03 -0.52596417995E+02 -0.27917624280E+02  0.16897199601E+03  0.00000000000E+00 0.  1.
         11    1    1    2    0    0  0.12570075635E+03 -0.92897289010E+02 -0.36705316322E+03  0.39894687752E+03  0.00000000000E+00 0.  1.
        -15    1    3    3    0    0 -0.14477937857E+02  0.10365296404E+03  0.18128179684E+03  0.20933178267E+03  0.17770000000E+01 0.  1.
         15    1    3    3    0    0  0.46909273448E+02  0.41840742961E+02  0.21368899066E+03  0.22274934380E+03  0.17770000000E+01 0. -1.
</event>
<event>
 7    1  0.3260141E-006  0.5234160E+03  0.7546771E-02  0.9348887E-01
        -11   -1    0    0    0    0  0.00000000000E+00  0.00000000000E+00  0.50000000000E+03  0.50000000000E+03  0.00000000000E+00 0.  1.
         11   -1    0    0    0    0 -0.00000000000E+00 -0.00000000000E+00 -0.50000000000E+03  0.50000000000E+03  0.00000000000E+00 0.  1.
         23    2    1    2    0    0 -0.22964438485E+02 -0.13602174952E+02  0.37559567590E+03  0.38734901231E+03  0.90855715178E+02 0.  0.
        -11    1    1    2    0    0 -0.23310657750E+01 -0.10624116197E+03  0.84980059489E+02  0.13606700142E+03  0.00000000000E+00 0.  1.
         11    1    1    2    0    0  0.25295504259E+02  0.11984333692E+03 -0.46057573539E+03  0.47658398627E+03  0.00000000000E+00 0.  1.
        -15    1    3    3    0    0  0.17566785997E+02  0.28801246261E+02  0.99286635616E+02  0.10487658222E+03  0.17770000000E+01 0. -1.
         15    1    3    3    0    0 -0.40531224481E+02 -0.42403421213E+02  0.27630904029E+03  0.28247243009E+03  0.17770000000E+01 0.  1.
</event>
<event>
 7    1  0.3260141E-006  0.4137806E+03  0.7546771E-02  0.9616537E-01
        -11   -1    0    0    0    0  0.00000000000E+00  0.00000000000E+00  0.50000000000E+03  0.50000000000E+03  0.00000000000E+00 0.  1.
         11   -1    0    0    0    0 -0.00000000000E+00 -0.00000000000E+00 -0.50000000000E+03  0.50000000000E+03  0.00000000000E+00 0. -1.
         23    2    1    2    0    0 -0.91933591420E+02  0.87417636228E+00  0.39256292899E+03  0.41348115139E+03  0.91697654912E+02 0.  0.
        -11    1    1    2    0    0  0.15951774216E+03 -0.41244886036E+02  0.20488261091E+02  0.16603258575E+03  0.00000000000E+00 0.  1.
         11    1    1    2    0    0 -0.67584150737E+02  0.40370709674E+02 -0.41305119008E+03  0.42048626287E+03  0.00000000000E+00 0. -1.
        -15    1    3    3    0    0 -0.93670511957E+02  0.14422402441E+02  0.38730727043E+03  0.39873832266E+03  0.17770000000E+01 0.  1.
         15    1    3    3    0    0  0.17369205367E+01 -0.13548226079E+02  0.52556585617E+01  0.14742828723E+02  0.17770000000E+01 0. -1.
</event>
<event>
 7    1  0.3260141E-006  0.5355104E+03  0.7546771E-02  0.9323680E-01
        -11   -1    0    0    0    0  0.00000000000E+00  0.00000000000E+00  0.50000000000E+03  0.50000000000E+03  0.00000000000E+00 0. -1.
         11   -1    0    0    0    0 -0.00000000000E+00 -0.00000000000E+00 -0.50000000000E+03  0.50000000000E+03  0.00000000000E+00 0.  1.
         23    2    1    2    0    0  0.16091766656E+03  0.13179146784E+03 -0.66668181406E+02  0.23840882590E+03  0.95554358602E+02 0.  0.
        -11    1    1    2    0    0 -0.32114990126E+03 -0.11260750957E+03  0.31612154666E+03  0.46448955053E+03  0.00000000000E+00 0. -1.
         11    1    1    2    0    0  0.16023223471E+03 -0.19183958270E+02 -0.24945336525E+03  0.29710162357E+03  0.00000000000E+00 0.  1.
        -15    1    3    3    0    0  0.13779274317E+03  0.83041928982E+02 -0.84272491908E+02  0.18162547360E+03  0.17770000000E+01 0.  1.
         15    1    3    3    0    0  0.23124923386E+02  0.48749538863E+02  0.17604310501E+02  0.56783352298E+02  0.17770000000E+01 0. -1.
</event>
<event>
 7    1  0.3260141E-006  0.3529060E+03  0.7546771E-02  0.9806795E-01
        -11   -1    0    0    0    0  0.00000000000E+00  0.00000000000E+00  0.50000000000E+03  0.50000000000E+03  0.00000000000E+00 0.  1.
         11   -1    0    0    0    0 -0.00000000000E+00 -0.00000000000E+00 -0.50000000000E+03  0.50000000000E+03  0.00000000000E+00 0. -1.
         23    2    1    2    0    0 -0.12594060688E+03  0.43514972291E+02  0.19681218252E+03  0.25524482239E+03  0.93060705425E+02 0.  0.
        -11    1    1    2    0    0  0.40375194173E+02 -0.17843147267E+03  0.22716812534E+03  0.29167328282E+03  0.00000000000E+00 0.  1.
         11    1    1    2    0    0  0.85565412704E+02  0.13491650038E+03 -0.42398030786E+03  0.45308189478E+03  0.00000000000E+00 0. -1.
        -15    1    3    3    0    0 -0.64756643399E+02  0.19330887163E+02  0.26418220311E+02  0.72582271638E+02  0.17770000000E+01 0.  1.
         15    1    3    3    0    0 -0.61183963478E+02  0.24184085128E+02  0.17039396221E+03  0.18266255075E+03  0.17770000000E+01 0. -1.
</event>
<event>
 7    1  0.3260141E-006  0.5109096E+03  0.7546771E-02  0.9375724E-01
        -11   -1    0    0    0    0  0.00000000000E+00  0.00000000000E+00  0.50000000000E+03  0.50000000000E+03  0.00000000000E+00 0.  1.
         11   -1    0    0    0    0 -0.00000000000E+00 -0.00000000000E+00 -0.50000000000E+03  0.50000000000E+03  0.00000000000E+00 0. -1.
         23    2    1    2    0    0  0.52875727336E+02 -0.45588190909E+02 -0.17111750011E+03  0.20641472873E+03  0.91933213271E+02 0.  0.
        -11    1    1    2    0    0 -0.15393622483E+03  0.10840078002E+03  0.45140038399E+03  0.48909037722E+03  0.00000000000E+00 0.  1.
         11    1    1    2    0    0  0.10106049749E+03 -0.62812589114E+02 -0.28028288388E+03  0.30449489405E+03  0.00000000000E+00 0. -1.
        -15    1    3    3    0    0  0.75063753328E+02 -0.37568428982E+02 -0.95384957890E+02  0.12707242754E+03  0.17770000000E+01 0. -1.
         15    1    3    3    0    0 -0.22188025992E+02 -0.80197619275E+01 -0.75732542220E+02  0.79342301195E+02  0.17770000000E+01 0.  1.
</event>
<event>
 7    1  0.3260141E-006  0.5021248E+03  0.7546771E-02  0.9395068E-01
        -11   -1    0    0    0    0  0.00000000000E+00  0.00000000000E+00  0.50000000000E+03  0.50000000000E+03  0.00000000000E+00 0.  1.
         11   -1    0    0    0    0 -0.00000000000E+00 -0.00000000000E+00 -0.50000000000E+03  0.50000000000E+03  0.00000000000E+00 0.  1.
         23    2    1    2    0    0  0.46033918431E+02 -0.42797702198E+02  0.48543472699E+03  0.49787521331E+03  0.91005982798E+02 0.  0.
        -11    1    1    2    0    0 -0.81607764818E+02  0.41149554623E+02 -0.38007259867E+03  0.39090701373E+03  0.00000000000E+00 0.  1.
         11    1    1    2    0    0  0.35573846387E+02  0.16481475752E+01 -0.10536212832E+03  0.11121777296E+03  0.00000000000E+00 0.  1.
        -15    1    3    3    0    0  0.28580191570E+02 -0.69980748756E+02  0.38511487165E+03  0.39246752049E+03  0.17770000000E+01 0.  1.
         15    1    3    3    0    0  0.17453726861E+02  0.27183046557E+02  0.10031985534E+03  0.10540769282E+03  0.17770000000E+01 0. -1.
</event>
<event>
 7    1  0.3260141E-006  0.4073709E+03  0.7546771E-02  0.9634869E-01
        -11   -1    0    0    0    0  0.00000000000E+00  0.00000000000E+00  0.50000000000E+03  0.50000000000E+03  0.00000000000E+00 0.  1.
         11   -1    0    0    0    0 -0.00000000000E+00 -0.00000000000E+00 -0.50000000000E+03  0.50000000000E+03  0.00000000000E+00 0.  1.
         23    2    1    2    0    0 -0.35616405385E+02  0.86158243872E+02  0.34453258921E+03  0.36805958902E+03  0.89852015701E+02 0.  0.
        -11    1    1    2    0    0  0.14602532114E+03 -0.29873312599E+02  0.94012089509E+02  0.17622168480E+03  0.00000000000E+00 0.  1.
         11    1    1    2    0    0 -0.11040891575E+03 -0.56284931272E+02 -0.43854467871E+03  0.45571872618E+03  0.00000000000E+00 0.  1.
        -15    1    3    3    0    0 -0.44141646398E+02  0.86005588071E+01  0.75122703599E+02  0.87573014585E+02  0.17770000000E+01 0. -1.
         15    1    3    3    0    0  0.85252410127E+01  0.77557685064E+02  0.26940988561E+03  0.28048657444E+03  0.17770000000E+01 0.  1.
</event>
<event>
 7    1  0.3260141E-006  0.5289592E+03  0.7546771E-02  0.9337245E-01
        -11   -1    0    0    0    0  0.00000000000E+00  0.00000000000E+00  0.50000000000E+03  0.50000000000E+03  0.00000000000E+00 0.  1.
         11   -1    0    0    0    0 -0.00000000000E+00 -0.00000000000E+00 -0.50000000000E+03  0.50000000000E+03  0.00000000000E+00 0. -1.
         23    2    1    2    0    0  0.79208995397E+02 -0.53296461651E+01  0.29642180779E+03  0.31977333989E+03  0.89925695364E+02 0.  0.
        -11    1    1    2    0    0  0.37434033168E+02  0.15585785099E+03  0.13440889246E+03  0.20918586693E+03  0.00000000000E+00 0.  1.
         11    1    1    2    0    0 -0.11664302856E+03 -0.15052820482E+03 -0.43083070025E+03  0.47104079318E+03  0.00000000000E+00 0. -1.
        -15    1    3    3    0    0  0.26945189019E+02  0.24632275979E+02  0.21708474565E+03  0.22014026609E+03  0.17770000000E+01 0.  1.
         15    1    3    3    0    0  0.52263806378E+02 -0.29961922144E+02  0.79337062145E+02  0.99633073799E+02  0.17770000000E+01 0. -1.
</event>
<event>
 7    1  0.3260141E-006  0.3688018E+03  0.7546771E-02  0.9753357E-01
        -11   -1    0    0    0    0  0.00000000000E+00  0.00000000000E+00  0.50000000000E+03  0.50000000000E+03  0.00000000000E+00 0. -1.
         11   -1    0    0    0    0 -0.00000000000E+00 -0.00000000000E+00 -0.50000000000E+03  0.50000000000E+03  0.00000000000E+00 0. -1.
         23    2    1    2    0    0 -0.99475300255E+02 -0.16337396390E+03  0.41621681598E+03  0.46707074018E+03  0.91281164473E+02 0.  0.
        -11    1    1    2    0    0  0.12528369918E+03  0.19633811695E+03 -0.18358538749E+03  0.29656071208E+03  0.00000000000E+00 0. -1.
         11    1    1    2    0    0 -0.25808398927E+02 -0.32964153048E+02 -0.23263142848E+03  0.23636854774E+03  0.00000000000E+00 0. -1.
        -15    1    3    3    0    0 -0.24175664236E+02 -0.96917713395E+02  0.13143478026E+03  0.16509320126E+03  0.17770000000E+01 0.  1.
         15    1    3    3    0    0 -0.75299636019E+02 -0.66456250508E+02  0.28478203572E+03  0.30197753892E+03  0.17770000000E+01 0. -1.
</event>
<event>
 7    1  0.6643634E-006  0.5059534E+03  0.7546771E-02  0.9386586E-01
        -11   -1    0    0    0    0  0.00000000000E+00  0.00000000000E+00  0.50000000000E+03  0.50000000000E+03  0.00000000000E+00 0. -1.
         11   -1    0    0    0    0 -0.00000000000E+00 -0.00000000000E+00 -0.50000000000E+03  0.50000000000E+03  0.00000000000E+00 0. -1.
         23    2    1    2    0    0  0.93843511629E+01  0.61319304202E+02 -0.25569303020E+03  0.27061387932E+03  0.63283669869E+02 0.  0.
        -11    1    1    2    0    0  0.44440146378E+02 -0.11387139333E+03  0.47868610130E+03  0.49404656097E+03  0.00000000000E+00 0. -1.
         11    1    1    2    0    0 -0.53824497541E+02  0.52552089131E+02 -0.22299307110E+03  0.23533955971E+03  0.00000000000E+00 0. -1.
        -15    1    3    3    0    0  0.31407515582E+02  0.24427412952E+02 -0.75505212177E+02  0.85365832354E+02  0.17770000000E+01 0.  1.
         15    1    3    3    0    0 -0.22023164419E+02  0.36891891249E+02 -0.18018781802E+03  0.18524804696E+03  0.17770000000E+01 0. -1.
</event>
<event>
 7    1  0.3260141E-006  0.5158470E+03  0.7546771E-02  0.9365033E-01
        -11   -1    0    0    0    0  0.00000000000E+00  0.00000000000E+00  0.50000000000E+03  0.50000000000E+03  0.00000000000E+00 0.  1.
         11   -1    0    0    0    0 -0.00000000000E+00 -0.00000000000E+00 -0.50000000000E+03  0.50000000000E+03  0.00000000000E+00 0. -1.
         23    2    1    2    0    0 -0.71036365953E+01  0.16602931426E+03 -0.20169902318E+03  0.27649858979E+03  0.90292742550E+02 0.  0.
        -11    1    1    2    0    0 -0.42175171092E+02 -0.21854939985E+03  0.42995525971E+03  0.48415298262E+03  0.00000000000E+00 0.  1.
         11    1    1    2    0    0  0.49278807687E+02  0.52520085591E+02 -0.22825623653E+03  0.23934842759E+03  0.00000000000E+00 0. -1.
        -15    1    3    3    0    0 -0.18791104656E+02  0.50322302247E+02 -0.12794729497E+03  0.13877718738E+03  0.17770000000E+01 0. -1.
         15    1    3    3    0    0  0.11687468061E+02  0.11570701201E+03 -0.73751728206E+02  0.13772140241E+03  0.17770000000E+01 0.  1.
</event>
<event>
 7    1  0.3260141E-006  0.5166036E+03  0.7546771E-02  0.9363406E-01
        -11   -1    0    0    0    0  0.00000000000E+00  0.00000000000E+00  0.50000000000E+03  0.50000000000E+03  0.00000000000E+00 0.  1.
         11   -1    0    0    0    0 -0.00000000000E+00 -0.00000000000E+00 -0.50000000000E+03  0.50000000000E+03  0.00000000000E+00 0. -1.
         23    2    1    2    0    0  0.44227359339E+02  0.60916204159E+02 -0.20684708102E+03  0.24241976211E+03  0.10156171961E+03 0.  0.
        -11    1    1    2    0    0 -0.11775205476E+03 -0.23089381511E+02  0.46826636477E+03  0.48339637392E+03  0.00000000000E+00 0.  1.
         11    1    1    2    0    0  0.73524695419E+02 -0.37826822648E+02 -0.26141928375E+03  0.27418386397E+03  0.00000000000E+00 0. -1.
        -15    1    3    3    0    0 -0.18831263782E+02 -0.15168698000E+02 -0.21675182791E+02  0.32521949091E+02  0.17770000000E+01 0.  1.
         15    1    3    3    0    0  0.63058623121E+02  0.76084902159E+02 -0.18517189823E+03  0.20989781302E+03  0.17770000000E+01 0. -1.
</event>
<event>
 7    1  0.3260141E-006  0.3752100E+03  0.7546771E-02  0.9732624E-01
        -11   -1    0    0    0    0  0.00000000000E+00  0.00000000000E+00  0.50000000000E+03  0.50000000000E+03  0.00000000000E+00 0.  1.
         11   -1    0    0    0    0 -0.00000000000E+00 -0.00000000000E+00 -0.50000000000E+03  0.50000000000E+03  0.00000000000E+00 0. -1.
         23    2    1    2    0    0 -0.21212020465E+02  0.29344987374E+03 -0.11133943305E+03  0.32737911321E+03  0.90652281833E+02 0.  0.
        -11    1    1    2    0    0  0.67680988877E+02 -0.28851181402E+03  0.33318564249E+03  0.44590633035E+03  0.00000000000E+00 0.  1.
         11    1    1    2    0    0 -0.46468968412E+02 -0.49380597244E+01 -0.22184620944E+03  0.22671455644E+03  0.00000000000E+00 0. -1.
        -15    1    3    3    0    0  0.17753383258E+02  0.24464239630E+03 -0.91961058334E+02  0.26196388809E+03  0.17770000000E+01 0. -1.
         15    1    3    3    0    0 -0.38965403723E+02  0.48807477440E+02 -0.19378374719E+02  0.65415225117E+02  0.17770000000E+01 0.  1.
</event>
<event>
 7    1  0.3260141E-006  0.4078710E+03  0.7546771E-02  0.9633426E-01
        -11   -1    0    0    0    0  0.00000000000E+00  0.00000000000E+00  0.50000000000E+03  0.50000000000E+03  0.00000000000E+00 0.  1.
         11   -1    0    0    0    0 -0.00000000000E+00 -0.00000000000E+00 -0.50000000000E+03  0.50000000000E+03  0.00000000000E+00 0. -1.
         23    2    1    2    0    0  0.39294916429E+02  0.20416777087E+02  0.41028706978E+03  0.42216128422E+03  0.89015363966E+02 0.  0.
        -11    1    1    2    0    0 -0.81771191356E+02  0.14772092345E+03 -0.46969715701E+02  0.17525453818E+03  0.00000000000E+00 0.  1.
         11    1    1    2    0    0  0.42476274927E+02 -0.16813770054E+03 -0.36331735408E+03  0.40258417759E+03  0.00000000000E+00 0. -1.
        -15    1    3    3    0    0  0.33503912870E+02 -0.29664930839E+02  0.13341802061E+03  0.14073395557E+03  0.17770000000E+01 0.  1.
         15    1    3    3    0    0  0.57910035582E+01  0.50081707926E+02  0.27686904917E+03  0.28142732865E+03  0.17770000000E+01 0. -1.
</event>
<event>
 7    1  0.3260141E-006  0.5242346E+03  0.7546771E-02  0.9347158E-01
        -11   -1    0    0    0    0  0.00000000000E+00  0.00000000000E+00  0.50000000000E+03  0.50000000000E+03  0.00000000000E+00 0.  1.
         11   -1    0    0    0    0 -0.00000000000E+00 -0.00000000000E+00 -0.50000000000E+03  0.50000000000E+03  0.00000000000E+00 0.  1.
         23    2    1    2    0    0  0.26506179965E+02 -0.23023675018E+02  0.46569772690E+03  0.47576543110E+03  0.90805866545E+02 0.  0.
        -11    1    1    2    0    0  0.44592005537E+02 -0.93792278320E+02 -0.20919288194E+03  0.23355320654E+03  0.00000000000E+00 0.  1.
         11    1    1    2    0    0 -0.71098185502E+02  0.11681595334E+03 -0.25650484496E+03  0.29068136236E+03  0.00000000000E+00 0.  1.
        -15    1    3    3    0    0  0.58041054097E+02 -0.29296952134E+02  0.32216923419E+03  0.32866890414E+03  0.17770000000E+01 0.  1.
         15    1    3    3    0    0 -0.31534874132E+02  0.62732771157E+01  0.14352849271E+03  0.14709652695E+03  0.17770000000E+01 0. -1.
</event>
<event>
 7    1  0.3260141E-006  0.5172294E+03  0.7546771E-02  0.9362062E-01
        -11   -1    0    0    0    0  0.00000000000E+00  0.00000000000E+00  0.50000000000E+03  0.50000000000E+03  0.00000000000E+00 0.  1.
         11   -1    0    0    0    0 -0.00000000000E+00 -0.00000000000E+00 -0.50000000000E+03  0.50000000000E+03  0.00000000000E+00 0. -1.
         23    2    1    2    0    0 -0.52095202829E+02 -0.45849982299E+02  0.14574008714E+03  0.18501900617E+03  0.90419735718E+02 0.  0.
        -11    1    1    2    0    0 -0.21932010413E+03 -0.12630857824E+02  0.24920448118E+03  0.33221035517E+03  0.00000000000E+00 0.  1.
         11    1    1    2    0    0  0.27141530696E+03  0.58480840122E+02 -0.39494456832E+03  0.48277063866E+03  0.00000000000E+00 0. -1.
        -15    1    3    3    0    0 -0.13230351147E+02  0.22698413311E+02  0.10223812573E+02  0.28247906662E+02  0.17770000000E+01 0. -1.
         15    1    3    3    0    0 -0.38864851683E+02 -0.68548395609E+02  0.13551627457E+03  0.15677109950E+03  0.17770000000E+01 0.  1.
</event>
<event>
 7    1  0.3260141E-006  0.5305550E+03  0.7546771E-02  0.9333922E-01
        -11   -1    0    0    0    0  0.00000000000E+00  0.00000000000E+00  0.50000000000E+03  0.50000000000E+03  0.00000000000E+00 0. -1.
         11   -1    0    0    0    0 -0.00000000000E+00 -0.00000000000E+00 -0.50000000000E+03  0.50000000000E+03  0.00000000000E+00 0. -1.
         23    2    1    2    0    0 -0.29587650176E+02  0.11517946496E+02  0.27182810136E+03  0.28834284662E+03  0.90790904689E+02 0.  0.
        -11    1    1    2    0    0 -0.19046864892E+03  0.61642532855E+02  0.13634016673E+03  0.24221219858E+03  0.00000000000E+00 0. -1.
         11    1    1    2    0    0  0.22005629910E+03 -0.73160479351E+02 -0.40816826809E+03  0.46944495480E+03  0.00000000000E+00 0. -1.
        -15    1    3    3    0    0 -0.40398436157E+02  0.22527941923E+02  0.26849629593E+03  0.27245726356E+03  0.17770000000E+01 0. -1.
         15    1    3    3    0    0  0.10810785981E+02 -0.11009995427E+02  0.33318054360E+01  0.15885583064E+02  0.17770000000E+01 0.  1.
</event>
<event>
 7    1  0.3260141E-006  0.3691877E+03  0.7546771E-02  0.9752096E-01
        -11   -1    0    0    0    0  0.00000000000E+00  0.00000000000E+00  0.50000000000E+03  0.50000000000E+03  0.00000000000E+00 0.  1.
         11   -1    0    0    0    0 -0.00000000000E+00 -0.00000000000E+00 -0.50000000000E+03  0.50000000000E+03  0.00000000000E+00 0.  1.
         23    2    1    2    0    0 -0.27627893992E+02  0.37586426383E+02  0.20401906133E+03  0.23253797645E+03  0.10136120131E+03 0.  0.
        -11    1    1    2    0    0 -0.12125753020E+03  0.31756316225E+03 -0.19612423430E+02  0.34049140636E+03  0.00000000000E+00 0.  1.
         11    1    1    2    0    0  0.14888542419E+03 -0.35514958863E+03 -0.18440663790E+03  0.42697061719E+03  0.00000000000E+00 0.  1.
        -15    1    3    3    0    0 -0.66138369895E+02  0.19645981979E+02  0.12929567652E+03  0.14656322279E+03  0.17770000000E+01 0.  1.
         15    1    3    3    0    0  0.38510475903E+02  0.17940444404E+02  0.74723384812E+02  0.85974753657E+02  0.17770000000E+01 0. -1.
</event>
<event>
 7    1  0.3260141E-006  0.4520536E+03  0.7546771E-02  0.9513987E-01
        -11   -1    0    0    0    0  0.00000000000E+00  0.00000000000E+00  0.50000000000E+03  0.50000000000E+03  0.00000000000E+00 0.  1.
         11   -1    0    0    0    0 -0.00000000000E+00 -0.00000000000E+00 -0.50000000000E+03  0.50000000000E+03  0.00000000000E+00 0. -1.
         23    2    1    2    0    0 -0.27503552785E+03 -0.57788508754E+02  0.31673223794E+03  0.43299981913E+03  0.90473639783E+02 0.  0.
        -11    1    1    2    0    0  0.27429898388E+02 -0.77594684212E+02  0.55958521160E+02  0.99522311237E+02  0.00000000000E+00 0.  1.
         11    1    1    2    0    0  0.24760562946E+03  0.13538319297E+03 -0.37269075910E+03  0.46747786963E+03  0.00000000000E+00 0. -1.
        -15    1    3    3    0    0 -0.26889005652E+03 -0.46966914550E+02  0.31939723586E+03  0.42014938482E+03  0.17770000000E+01 0.  1.
         15    1    3    3    0    0 -0.61454713313E+01 -0.10821594204E+02 -0.26649979297E+01  0.12850434311E+02  0.17770000000E+01 0. -1.
</event>
<event>
 7    1  0.3260141E-006  0.5123724E+03  0.7546771E-02  0.9372543E-01
        -11   -1    0    0    0    0  0.00000000000E+00  0.00000000000E+00  0.50000000000E+03  0.50000000000E+03  0.00000000000E+00 0. -1.
         11   -1    0    0    0    0 -0.00000000000E+00 -0.00000000000E+00 -0.50000000000E+03  0.50000000000E+03  0.00000000000E+00 0. -1.
         23    2    1    2    0    0 -0.22775678075E+03 -0.23054635453E+03  0.35186179278E+03  0.48762764003E+03  0.94600324187E+02 0.  0.
        -11    1    1    2    0    0  0.13932152801E+03  0.14261251439E+03 -0.82929971230E+02  0.21593100184E+03  0.00000000000E+00 0. -1.
         11    1    1    2    0    0  0.88435252738E+02  0.87933840141E+02 -0.26893182155E+03  0.29644135813E+03  0.00000000000E+00 0. -1.
        -15    1    3    3    0    0 -0.19722055331E+03 -0.18671294314E+03  0.23509350717E+03  0.35920716115E+03  0.17770000000E+01 0. -1.
         15    1    3    3    0    0 -0.30536227440E+02 -0.43833411393E+02  0.11676828561E+03  0.12842047887E+03  0.17770000000E+01 0.  1.
</event>
<event>
 7    1  0.3260141E-006  0.4009140E+03  0.7546771E-02  0.9653704E-01
        -11   -1    0    0    0    0  0.00000000000E+00  0.00000000000E+00  0.50000000000E+03  0.50000000000E+03  0.00000000000E+00 0.  1.
         11   -1    0    0    0    0 -0.00000000000E+00 -0.00000000000E+00 -0.50000000000E+03  0.50000000000E+03  0.00000000000E+00 0.  1.
         23    2    1    2    0    0 -0.66423723017E+02 -0.47359454524E+02  0.33351647322E+03  0.35400542685E+03  0.86206585699E+02 0.  0.
        -11    1    1    2    0    0  0.14223661519E+02  0.14754283323E+03  0.11237913367E+03  0.18601147778E+03  0.00000000000E+00 0.  1.
         11    1    1    2    0    0  0.52200061498E+02 -0.10018337870E+03 -0.44589560688E+03  0.45998309537E+03  0.00000000000E+00 0.  1.
        -15    1    3    3    0    0  0.77177965785E-02 -0.51180118296E+02  0.12364526296E+03  0.13383091329E+03  0.17770000000E+01 0. -1.
         15    1    3    3    0    0 -0.66431440814E+02  0.38206637715E+01  0.20987121025E+03  0.22017451356E+03  0.17770000000E+01 0.  1.
</event>
<event>
 7    1  0.3260141E-006  0.4073086E+03  0.7546771E-02  0.9635049E-01
        -11   -1    0    0    0    0  0.00000000000E+00  0.00000000000E+00  0.50000000000E+03  0.50000000000E+03  0.00000000000E+00 0.  1.
         11   -1    0    0    0    0 -0.00000000000E+00 -0.00000000000E+00 -0.50000000000E+03  0.50000000000E+03  0.00000000000E+00 0. -1.
         23    2    1    2    0    0  0.52815719695E+02 -0.64019224764E+02  0.39986252742E+03  0.41855136576E+03  0.91691022217E+02 0.  0.
        -11    1    1    2    0    0 -0.14518229754E+03  0.10037931442E+03 -0.74352021251E+01  0.17666122527E+03  0.00000000000E+00 0.  1.
         11    1    1    2    0    0  0.92366577846E+02 -0.36360089654E+02 -0.39242732530E+03  0.40478740897E+03  0.00000000000E+00 0. -1.
        -15    1    3    3    0    0  0.56304339366E+02 -0.34467464927E+01  0.26050583371E+03  0.26654925590E+03  0.17770000000E+01 0.  1.
         15    1    3    3    0    0 -0.34886196711E+01 -0.60572478271E+02  0.13935669371E+03  0.15200210986E+03  0.17770000000E+01 0. -1.
</event>
<event>
 7    1  0.3260141E-006  0.3668289E+03  0.7546771E-02  0.9759831E-01
        -11   -1    0    0    0    0  0.00000000000E+00  0.00000000000E+00  0.50000000000E+03  0.50000000000E+03  0.00000000000E+00 0. -1.
         11   -1    0    0    0    0 -0.00000000000E+00 -0.00000000000E+00 -0.50000000000E+03  0.50000000000E+03  0.00000000000E+00 0. -1.
         23    2    1    2    0    0  0.75072926675E+02  0.97730917606E+02  0.27329290116E+03  0.31273280501E+03  0.89025394849E+02 0.  0.
        -11    1    1    2    0    0  0.19950685712E+03 -0.10325491306E+03  0.81172277296E+02  0.23885874845E+03  0.00000000000E+00 0. -1.
         11    1    1    2    0    0 -0.27457978380E+03  0.55239954505E+01 -0.35446517846E+03  0.44840844654E+03  0.00000000000E+00 0. -1.
        -15    1    3    3    0    0  0.13436489525E+02 -0.13838810729E+02  0.71254936876E+02  0.73840880896E+02  0.17770000000E+01 0.  1.
         15    1    3    3    0    0  0.61636437150E+02  0.11156972834E+03  0.20203796428E+03  0.23889192411E+03  0.17770000000E+01 0. -1.
</event>
<event>
 6    1  0.3260141E-006  0.3904758E+03  0.7546771E-02  0.9684968E-01
        -11   -1    0    0    0    0  0.00000000000E+00  0.00000000000E+00  0.50000000000E+03  0.50000000000E+03  0.00000000000E+00 0.  1.
         11   -1    0    0    0    0 -0.00000000000E+00 -0.00000000000E+00 -0.50000000000E+03  0.50000000000E+03  0.00000000000E+00 0. -1.
        -11    1    1    2    0    0 -0.18802252246E+03  0.65082743654E+02  0.34851578402E+03  0.40131220289E+03  0.00000000000E+00 0.  1.
         11    1    1    2    0    0  0.10472589182E+03 -0.45137945008E+01 -0.37228360848E+03  0.38675957894E+03  0.00000000000E+00 0. -1.
        -15    1    1    2    0    0  0.12587131811E+03 -0.93438061648E+02  0.18230519879E+02  0.15782829173E+03  0.17770000000E+01 0.  1.
         15    1    1    2    0    0 -0.42574687474E+02  0.32869112495E+02  0.55373045796E+01  0.54099926439E+02  0.17770000000E+01 0. -1.
</event>
<event>
 7    1  0.3260141E-006  0.3129248E+03  0.7546771E-02  0.9955717E-01
        -11   -1    0    0    0    0  0.00000000000E+00  0.00000000000E+00  0.50000000000E+03  0.50000000000E+03  0.00000000000E+00 0.  1.
         11   -1    0    0    0    0 -0.00000000000E+00 -0.00000000000E+00 -0.50000000000E+03  0.50000000000E+03  0.00000000000E+00 0. -1.
         23    2    1    2    0    0  0.27627862793E+03 -0.10131984850E+03  0.69903601987E+01  0.30838438186E+03  0.91959066354E+02 0.  0.
        -11    1    1    2    0    0 -0.13900506656E+03  0.17225048363E+03  0.28524202928E+03  0.36104799252E+03  0.00000000000E+00 0.  1.
         11    1    1    2    0    0 -0.13727356138E+03 -0.70930635129E+02 -0.29223238947E+03  0.33056762562E+03  0.00000000000E+00 0. -1.
        -15    1    3    3    0    0  0.26694608135E+03 -0.85642576176E+02 -0.13767301812E+02  0.28069121385E+03  0.17770000000E+01 0.  1.
         15    1    3    3    0    0  0.93325465800E+01 -0.15677272320E+02  0.20757662011E+02  0.27693168006E+02  0.17770000000E+01 0. -1.
</event>
<event>
 7    1  0.3260141E-006  0.3901459E+03  0.7546771E-02  0.9685973E-01
        -11   -1    0    0    0    0  0.00000000000E+00  0.00000000000E+00  0.50000000000E+03  0.50000000000E+03  0.00000000000E+00 0.  1.
         11   -1    0    0    0    0 -0.00000000000E+00 -0.00000000000E+00 -0.50000000000E+03  0.50000000000E+03  0.00000000000E+00 0. -1.
         23    2    1    2    0    0  0.12845837615E+03  0.43570234049E+02  0.11503418474E+03  0.19969508090E+03  0.90803865453E+02 0.  0.
        -11    1    1    2    0    0  0.14252988672E+03 -0.24163570199E+03  0.19637436931E+03  0.34244046783E+03  0.00000000000E+00 0.  1.
         11    1    1    2    0    0 -0.27098826287E+03  0.19806546794E+03 -0.31140855405E+03  0.45786445127E+03  0.00000000000E+00 0. -1.
        -15    1    3    3    0    0  0.19452291130E+02  0.22478479980E+02  0.76607466319E+02  0.82192063591E+02  0.17770000000E+01 0.  1.
         15    1    3    3    0    0  0.10900608502E+03  0.21091754069E+02  0.38426718422E+02  0.11750301731E+03  0.17770000000E+01 0. -1.
</event>
<event>
 7    1  0.3260141E-006  0.5093683E+03  0.7546771E-02  0.9379088E-01
        -11   -1    0    0    0    0  0.00000000000E+00  0.00000000000E+00  0.50000000000E+03  0.50000000000E+03  0.00000000000E+00 0.  1.
         11   -1    0    0    0    0 -0.00000000000E+00 -0.00000000000E+00 -0.50000000000E+03  0.50000000000E+03  0.00000000000E+00 0. -1.
         23    2    1    2    0    0  0.45861614781E+02  0.29630325302E+02  0.30402347991E+03  0.32210336358E+03  0.91318435164E+02 0.  0.
        -11    1    1    2    0    0 -0.95532993248E+01  0.60984006686E+02  0.17679891531E+03  0.18726497552E+03  0.00000000000E+00 0.  1.
         11    1    1    2    0    0 -0.36308315456E+02 -0.90614331988E+02 -0.48082239523E+03  0.49063166091E+03  0.00000000000E+00 0. -1.
        -15    1    3    3    0    0 -0.11488832429E+02 -0.11095468786E+02  0.82279985543E+01  0.18054373082E+02  0.17770000000E+01 0. -1.
         15    1    3    3    0    0  0.57350447210E+02  0.40725794088E+02  0.29579548136E+03  0.30404899050E+03  0.17770000000E+01 0.  1.
</event>
<event>
 7    1  0.3260141E-006  0.3604216E+03  0.7546771E-02  0.9781161E-01
        -11   -1    0    0    0    0  0.00000000000E+00  0.00000000000E+00  0.50000000000E+03  0.50000000000E+03  0.00000000000E+00 0.  1.
         11   -1    0    0    0    0 -0.00000000000E+00 -0.00000000000E+00 -0.50000000000E+03  0.50000000000E+03  0.00000000000E+00 0.  1.
         23    2    1    2    0    0  0.13364486807E+03 -0.11920291202E+03  0.13920805372E+03  0.24431212175E+03  0.90770290389E+02 0.  0.
        -11    1    1    2    0    0 -0.34217888667E+03  0.46783559045E+02  0.16263172078E+03  0.38173835081E+03  0.00000000000E+00 0.  1.
         11    1    1    2    0    0  0.20853401860E+03  0.72419352978E+02 -0.30183977450E+03  0.37394952744E+03  0.00000000000E+00 0.  1.
        -15    1    3    3    0    0  0.13860789341E+02 -0.49494382831E+02  0.76508681732E+02  0.92187588765E+02  0.17770000000E+01 0.  1.
         15    1    3    3    0    0  0.11978407873E+03 -0.69708529191E+02  0.62699371987E+02  0.15212453298E+03  0.17770000000E+01 0. -1.
</event>
<event>
 7    1  0.3260141E-006  0.5147463E+03  0.7546771E-02  0.9367405E-01
        -11   -1    0    0    0    0  0.00000000000E+00  0.00000000000E+00  0.50000000000E+03  0.50000000000E+03  0.00000000000E+00 0.  1.
         11   -1    0    0    0    0 -0.00000000000E+00 -0.00000000000E+00 -0.50000000000E+03  0.50000000000E+03  0.00000000000E+00 0. -1.
         23    2    1    2    0    0 -0.15949295298E+02  0.90188562501E+02  0.39007450494E+03  0.41049758484E+03  0.89228868229E+02 0.  0.
        -11    1    1    2    0    0 -0.48125229111E+02 -0.30686586037E+02  0.87235812572E+02  0.10424869896E+03  0.00000000000E+00 0.  1.
         11    1    1    2    0    0  0.64074524409E+02 -0.59501976465E+02 -0.47731031751E+03  0.48525371620E+03  0.00000000000E+00 0. -1.
        -15    1    3    3    0    0  0.34114913834E+02  0.44700553279E+02  0.12780621398E+03  0.13964079944E+03  0.17770000000E+01 0.  1.
         15    1    3    3    0    0 -0.50064209132E+02  0.45488009223E+02  0.26226829097E+03  0.27085678539E+03  0.17770000000E+01 0. -1.
</event>
<event>
 7    1  0.3260141E-006  0.4817577E+03  0.7546771E-02  0.9441580E-01
        -11   -1    0    0    0    0  0.00000000000E+00  0.00000000000E+00  0.50000000000E+03  0.50000000000E+03  0.00000000000E+00 0. -1.
         11   -1    0    0    0    0 -0.00000000000E+00 -0.00000000000E+00 -0.50000000000E+03  0.50000000000E+03  0.00000000000E+00 0.  1.
         23    2    1    2    0    0  0.69761697547E+02  0.67898414469E+02  0.44968206096E+03  0.46892632546E+03  0.90559668878E+02 0.  0.
        -11    1    1    2    0    0  0.18667091254E+01 -0.31576072636E+02  0.30667192990E+02  0.44056891538E+02  0.00000000000E+00 0. -1.
         11    1    1    2    0    0 -0.71628406672E+02 -0.36322341833E+02 -0.48034925395E+03  0.48701678300E+03  0.00000000000E+00 0.  1.
        -15    1    3    3    0    0 -0.14588454929E+02  0.39823460072E+02  0.18109707708E+03  0.18600548391E+03  0.17770000000E+01 0.  1.
         15    1    3    3    0    0  0.84350152476E+02  0.28074954397E+02  0.26858498388E+03  0.28292084155E+03  0.17770000000E+01 0. -1.
</event>
<event>
 6    1  0.3260141E-006  0.2560189E+03  0.7546771E-02  0.1021486E+00
        -11   -1    0    0    0    0  0.00000000000E+00  0.00000000000E+00  0.50000000000E+03  0.50000000000E+03  0.00000000000E+00 0.  1.
         11   -1    0    0    0    0 -0.00000000000E+00 -0.00000000000E+00 -0.50000000000E+03  0.50000000000E+03  0.00000000000E+00 0. -1.
        -11    1    1    2    0    0  0.21035878168E+03 -0.17026898320E+02  0.10441282114E+03  0.23546288352E+03  0.00000000000E+00 0.  1.
         11    1    1    2    0    0 -0.11776136695E+03 -0.67288010044E+01 -0.20264152524E+03  0.23447090238E+03  0.00000000000E+00 0. -1.
        -15    1    1    2    0    0 -0.27311070431E+03  0.13783554547E+03  0.76986954458E+02  0.31546512214E+03  0.17770000000E+01 0.  1.
         15    1    1    2    0    0  0.18051328959E+03 -0.11407984615E+03  0.21241749640E+02  0.21460109196E+03  0.17770000000E+01 0. -1.
</event>
<event>
 7    1  0.3260141E-006  0.5242395E+03  0.7546771E-02  0.9347148E-01
        -11   -1    0    0    0    0  0.00000000000E+00  0.00000000000E+00  0.50000000000E+03  0.50000000000E+03  0.00000000000E+00 0. -1.
         11   -1    0    0    0    0 -0.00000000000E+00 -0.00000000000E+00 -0.50000000000E+03  0.50000000000E+03  0.00000000000E+00 0. -1.
         23    2    1    2    0    0  0.24068788257E+01 -0.71139719723E+00  0.41005859591E+03  0.42045160782E+03  0.92871972525E+02 0.  0.
        -11    1    1    2    0    0 -0.21005353719E+02  0.83403436162E+02  0.58091103507E+02  0.10378792972E+03  0.00000000000E+00 0. -1.
         11    1    1    2    0    0  0.18598474893E+02 -0.82692038965E+02 -0.46814969942E+03  0.47576046247E+03  0.00000000000E+00 0. -1.
        -15    1    3    3    0    0 -0.38804852939E+02  0.21375489906E+02  0.24062134335E+03  0.24467226403E+03  0.17770000000E+01 0. -1.
         15    1    3    3    0    0  0.41211731765E+02 -0.22086887103E+02  0.16943725257E+03  0.17577934379E+03  0.17770000000E+01 0.  1.
</event>
<event>
 7    1  0.3260141E-006  0.5101750E+03  0.7546771E-02  0.9377326E-01
        -11   -1    0    0    0    0  0.00000000000E+00  0.00000000000E+00  0.50000000000E+03  0.50000000000E+03  0.00000000000E+00 0.  1.
         11   -1    0    0    0    0 -0.00000000000E+00 -0.00000000000E+00 -0.50000000000E+03  0.50000000000E+03  0.00000000000E+00 0. -1.
         23    2    1    2    0    0 -0.94472737674E+01 -0.95906653959E+02  0.38966821097E+03  0.41163195247E+03  0.91171335384E+02 0.  0.
        -11    1    1    2    0    0 -0.86897171064E+01 -0.66688375272E+02  0.72026959479E+02  0.98543053898E+02  0.00000000000E+00 0.  1.
         11    1    1    2    0    0  0.18136990874E+02  0.16259502923E+03 -0.46169517045E+03  0.48982499363E+03  0.00000000000E+00 0. -1.
        -15    1    3    3    0    0  0.25729317062E+02 -0.10666899390E+01  0.39861773573E+02  0.47489517846E+02  0.17770000000E+01 0. -1.
         15    1    3    3    0    0 -0.35176590829E+02 -0.94839964020E+02  0.34980643740E+03  0.36414243462E+03  0.17770000000E+01 0.  1.
</event>
<event>
 7    1  0.3260141E-006  0.3583844E+03  0.7546771E-02  0.9788043E-01
        -11   -1    0    0    0    0  0.00000000000E+00  0.00000000000E+00  0.50000000000E+03  0.50000000000E+03  0.00000000000E+00 0. -1.
         11   -1    0    0    0    0 -0.00000000000E+00 -0.00000000000E+00 -0.50000000000E+03  0.50000000000E+03  0.00000000000E+00 0.  1.
         23    2    1    2    0    0  0.24209474027E+02 -0.95874703207E+02  0.29874997726E+03  0.32716479365E+03  0.89482936585E+02 0.  0.
        -11    1    1    2    0    0 -0.22996125730E+03  0.74186912571E+02  0.68643727925E+02  0.25119283278E+03  0.00000000000E+00 0. -1.
         11    1    1    2    0    0  0.20575178327E+03  0.21687790637E+02 -0.36739370519E+03  0.42164237358E+03  0.00000000000E+00 0.  1.
        -15    1    3    3    0    0  0.13873777671E+02 -0.10563663294E+03  0.29291384530E+03  0.31169417451E+03  0.17770000000E+01 0. -1.
         15    1    3    3    0    0  0.10335696356E+02  0.97619297340E+01  0.58361319679E+01  0.15470619142E+02  0.17770000000E+01 0.  1.
</event>
<event>
 7    1  0.3260141E-006  0.5159741E+03  0.7546771E-02  0.9364759E-01
        -11   -1    0    0    0    0  0.00000000000E+00  0.00000000000E+00  0.50000000000E+03  0.50000000000E+03  0.00000000000E+00 0.  1.
         11   -1    0    0    0    0 -0.00000000000E+00 -0.00000000000E+00 -0.50000000000E+03  0.50000000000E+03  0.00000000000E+00 0. -1.
         23    2    1    2    0    0  0.17873069945E+02  0.26040962493E+02  0.13485281840E+03  0.16590735867E+03  0.91336688529E+02 0.  0.
        -11    1    1    2    0    0  0.95650538640E+02 -0.26880216044E+02  0.33567114769E+03  0.35006669500E+03  0.00000000000E+00 0.  1.
         11    1    1    2    0    0 -0.11352360859E+03  0.83925355061E+00 -0.47052396610E+03  0.48402594633E+03  0.00000000000E+00 0. -1.
        -15    1    3    3    0    0  0.20770215125E+02  0.58218162463E+02  0.10514743321E+03  0.12198318210E+03  0.17770000000E+01 0.  1.
         15    1    3    3    0    0 -0.28971451805E+01 -0.32177199970E+02  0.29705385195E+02  0.43924176562E+02  0.17770000000E+01 0. -1.
</event>
<event>
 7    1  0.3260141E-006  0.5283371E+03  0.7546771E-02  0.9338544E-01
        -11   -1    0    0    0    0  0.00000000000E+00  0.00000000000E+00  0.50000000000E+03  0.50000000000E+03  0.00000000000E+00 0.  1.
         11   -1    0    0    0    0 -0.00000000000E+00 -0.00000000000E+00 -0.50000000000E+03  0.50000000000E+03  0.00000000000E+00 0.  1.
         23    2    1    2    0    0  0.37409130659E+02  0.16765697036E+03 -0.18648619977E+03  0.26255396191E+03  0.68184876920E+02 0.  0.
        -11    1    1    2    0    0  0.85484515386E+01 -0.14857447579E+03  0.44756943796E+03  0.47166285912E+03  0.00000000000E+00 0.  1.
         11    1    1    2    0    0 -0.45957582198E+02 -0.19082494570E+02 -0.26108323819E+03  0.26578317897E+03  0.00000000000E+00 0.  1.
        -15    1    3    3    0    0  0.79169313925E+01  0.14870949957E+03 -0.14089073554E+03  0.20501353651E+03  0.17770000000E+01 0.  1.
         15    1    3    3    0    0  0.29492199267E+02  0.18947470798E+02 -0.45595464227E+02  0.57540425392E+02  0.17770000000E+01 0. -1.
</event>
<event>
 7    1  0.3260141E-006  0.4402593E+03  0.7546771E-02  0.9544399E-01
        -11   -1    0    0    0    0  0.00000000000E+00  0.00000000000E+00  0.50000000000E+03  0.50000000000E+03  0.00000000000E+00 0. -1.
         11   -1    0    0    0    0 -0.00000000000E+00 -0.00000000000E+00 -0.50000000000E+03  0.50000000000E+03  0.00000000000E+00 0.  1.
         23    2    1    2    0    0 -0.53131658976E+02 -0.43660395943E+02  0.24504716553E+02  0.11646008444E+03  0.90737350493E+02 0.  0.
        -11    1    1    2    0    0  0.72791634471E+02 -0.10392160712E+03  0.40739646112E+03  0.42669684673E+03  0.00000000000E+00 0. -1.
         11    1    1    2    0    0 -0.19659975495E+02  0.14758200306E+03 -0.43190117768E+03  0.45684306883E+03  0.00000000000E+00 0.  1.
        -15    1    3    3    0    0  0.48655031941E+01 -0.53960550847E+02  0.52474317632E+01  0.54461981585E+02  0.17770000000E+01 0.  1.
         15    1    3    3    0    0 -0.57997162170E+02  0.10300154904E+02  0.19257284790E+02  0.61998102852E+02  0.17770000000E+01 0. -1.
</event>
<event>
 7    1  0.3260141E-006  0.5238010E+03  0.7546771E-02  0.9348074E-01
        -11   -1    0    0    0    0  0.00000000000E+00  0.00000000000E+00  0.50000000000E+03  0.50000000000E+03  0.00000000000E+00 0.  1.
         11   -1    0    0    0    0 -0.00000000000E+00 -0.00000000000E+00 -0.50000000000E+03  0.50000000000E+03  0.00000000000E+00 0. -1.
         23    2    1    2    0    0 -0.22184734438E+02  0.25599100096E+02  0.13225823780E+03  0.16477157086E+03  0.92249405049E+02 0.  0.
        -11    1    1    2    0    0  0.15035519629E+03 -0.64188483586E+01  0.32596657912E+03  0.35902938232E+03  0.00000000000E+00 0.  1.
         11    1    1    2    0    0 -0.12817046186E+03 -0.19180251738E+02 -0.45822481692E+03  0.47619904681E+03  0.00000000000E+00 0. -1.
        -15    1    3    3    0    0 -0.66028487120E+01  0.37009376243E+02  0.13918008950E+03  0.14417887010E+03  0.17770000000E+01 0.  1.
         15    1    3    3    0    0 -0.15581885726E+02 -0.11410276147E+02 -0.69218517075E+01  0.20592700760E+02  0.17770000000E+01 0. -1.
</event>
<event>
 7    1  0.3260141E-006  0.4217454E+03  0.7546771E-02  0.9594246E-01
        -11   -1    0    0    0    0  0.00000000000E+00  0.00000000000E+00  0.50000000000E+03  0.50000000000E+03  0.00000000000E+00 0.  1.
         11   -1    0    0    0    0 -0.00000000000E+00 -0.00000000000E+00 -0.50000000000E+03  0.50000000000E+03  0.00000000000E+00 0. -1.
         23    2    1    2    0    0 -0.12521468677E+03 -0.13790675146E+03  0.32687044119E+03  0.38726566172E+03  0.91833640589E+02 0.  0.
        -11    1    1    2    0    0 -0.28035906906E+02 -0.15012851077E+03 -0.26191344380E+01  0.15274633117E+03  0.00000000000E+00 0.  1.
         11    1    1    2    0    0  0.15325059368E+03  0.28803526223E+03 -0.32425130675E+03  0.45998800710E+03  0.00000000000E+00 0. -1.
        -15    1    3    3    0    0 -0.13181056832E+03 -0.11716782566E+03  0.24086716045E+03  0.29853387078E+03  0.17770000000E+01 0.  1.
         15    1    3    3    0    0  0.65958815492E+01 -0.20738925797E+02  0.86003280736E+02  0.88731790938E+02  0.17770000000E+01 0. -1.
</event>
<event>
 7    1  0.3260141E-006  0.5204524E+03  0.7546771E-02  0.9355174E-01
        -11   -1    0    0    0    0  0.00000000000E+00  0.00000000000E+00  0.50000000000E+03  0.50000000000E+03  0.00000000000E+00 0.  1.
         11   -1    0    0    0    0 -0.00000000000E+00 -0.00000000000E+00 -0.50000000000E+03  0.50000000000E+03  0.00000000000E+00 0. -1.
         23    2    1    2    0    0 -0.75538661826E+02  0.12751433840E+02  0.21589200883E+03  0.24739245864E+03  0.93407604729E+02 0.  0.
        -11    1    1    2    0    0 -0.21887318347E+03 -0.14319744410E+02  0.16263821956E+03  0.27305991281E+03  0.00000000000E+00 0.  1.
         11    1    1    2    0    0  0.29441184530E+03  0.15683105701E+01 -0.37853022838E+03  0.47954762855E+03  0.00000000000E+00 0. -1.
        -15    1    3    3    0    0 -0.65793767734E+02  0.36208145188E+02  0.20734567672E+03  0.22053398159E+03  0.17770000000E+01 0.  1.
         15    1    3    3    0    0 -0.97448940919E+01 -0.23456711348E+02  0.85463321055E+01  0.26858477053E+02  0.17770000000E+01 0. -1.
</event>
<event>
 7    1  0.3260141E-006  0.5152151E+03  0.7546771E-02  0.9366394E-01
        -11   -1    0    0    0    0  0.00000000000E+00  0.00000000000E+00  0.50000000000E+03  0.50000000000E+03  0.00000000000E+00 0. -1.
         11   -1    0    0    0    0 -0.00000000000E+00 -0.00000000000E+00 -0.50000000000E+03  0.50000000000E+03  0.00000000000E+00 0. -1.
         23    2    1    2    0    0 -0.55300086393E+02 -0.30665831226E+02  0.32206342370E+03  0.34004676281E+03  0.88929518445E+02 0.  0.
        -11    1    1    2    0    0 -0.11914645637E+02  0.79705791802E+02  0.15552807508E+03  0.17516835949E+03  0.00000000000E+00 0. -1.
         11    1    1    2    0    0  0.67214732030E+02 -0.49039960577E+02 -0.47759149878E+03  0.48478487770E+03  0.00000000000E+00 0. -1.
        -15    1    3    3    0    0 -0.28187210835E+02 -0.58725922161E+02  0.24671922224E+03  0.25517990740E+03  0.17770000000E+01 0. -1.
         15    1    3    3    0    0 -0.27112875558E+02  0.28060090935E+02  0.75344201459E+02  0.84866855408E+02  0.17770000000E+01 0.  1.
</event>
<event>
 7    1  0.3260141E-006  0.5364634E+03  0.7546771E-02  0.9321724E-01
        -11   -1    0    0    0    0  0.00000000000E+00  0.00000000000E+00  0.50000000000E+03  0.50000000000E+03  0.00000000000E+00 0.  1.
         11   -1    0    0    0    0 -0.00000000000E+00 -0.00000000000E+00 -0.50000000000E+03  0.50000000000E+03  0.00000000000E+00 0.  1.
         23    2    1    2    0    0  0.11088451136E+03 -0.19374656178E+03 -0.24530512471E+03  0.34364010691E+03  0.89893346836E+02 0.  0.
        -11    1    1    2    0    0 -0.26485602868E+03  0.14620709080E+03  0.35119933440E+03  0.46353662402E+03  0.00000000000E+00 0.  1.
         11    1    1    2    0    0  0.15397151732E+03  0.47539470982E+02 -0.10589420969E+03  0.19282326907E+03  0.00000000000E+00 0.  1.
        -15    1    3    3    0    0  0.11293067959E+03 -0.16799380395E+03 -0.17112501079E+03  0.26507014846E+03  0.17770000000E+01 0.  1.
         15    1    3    3    0    0 -0.20461682292E+01 -0.25752757832E+02 -0.74180113919E+02  0.78569958448E+02  0.17770000000E+01 0. -1.
</event>
<event>
 7    1  0.3260141E-006  0.4789604E+03  0.7546771E-02  0.9448159E-01
        -11   -1    0    0    0    0  0.00000000000E+00  0.00000000000E+00  0.50000000000E+03  0.50000000000E+03  0.00000000000E+00 0.  1.
         11   -1    0    0    0    0 -0.00000000000E+00 -0.00000000000E+00 -0.50000000000E+03  0.50000000000E+03  0.00000000000E+00 0. -1.
         23    2    1    2    0    0  0.16665168606E+02  0.26869076509E+03 -0.38312028191E+03  0.47700516609E+03  0.90996280039E+02 0.  0.
        -11    1    1    2    0    0 -0.34570387313E+02 -0.23208906811E+03  0.41124838200E+03  0.47348250117E+03  0.00000000000E+00 0.  1.
         11    1    1    2    0    0  0.17905218707E+02 -0.36601696974E+02 -0.28128100089E+02  0.49512332736E+02  0.00000000000E+00 0. -1.
        -15    1    3    3    0    0 -0.12124765840E+02  0.19870053022E+01 -0.37451168917E+02  0.39455112710E+02  0.17770000000E+01 0.  1.
         15    1    3    3    0    0  0.28789934446E+02  0.26670375978E+03 -0.34566911300E+03  0.43755005338E+03  0.17770000000E+01 0. -1.
</event>
<event>
 7    1  0.3260141E-006  0.4593770E+03  0.7546771E-02  0.9495596E-01
        -11   -1    0    0    0    0  0.00000000000E+00  0.00000000000E+00  0.50000000000E+03  0.50000000000E+03  0.00000000000E+00 0.  1.
         11   -1    0    0    0    0 -0.00000000000E+00 -0.00000000000E+00 -0.50000000000E+03  0.50000000000E+03  0.00000000000E+00 0. -1.
         23    2    1    2    0    0  0.82109401965E+02 -0.61221766264E+02 -0.39951568987E+03  0.42237182517E+03  0.91077514727E+02 0.  0.
        -11    1    1    2    0    0 -0.61466679233E+02  0.83442263221E+02  0.48029163723E+03  0.49134592777E+03  0.00000000000E+00 0.  1.
         11    1    1    2    0    0 -0.20642722732E+02 -0.22220496957E+02 -0.80775947353E+02  0.86282247060E+02  0.00000000000E+00 0. -1.
        -15    1    3    3    0    0  0.15446281096E+02  0.14506000611E+02 -0.18385475833E+02  0.28110409176E+02  0.17770000000E+01 0.  1.
         15    1    3    3    0    0  0.66663120868E+02 -0.75727766875E+02 -0.38113021404E+03  0.39426141599E+03  0.17770000000E+01 0. -1.
</event>
<event>
 7    1  0.3260141E-006  0.4151740E+03  0.7546771E-02  0.9612599E-01
        -11   -1    0    0    0    0  0.00000000000E+00  0.00000000000E+00  0.50000000000E+03  0.50000000000E+03  0.00000000000E+00 0. -1.
         11   -1    0    0    0    0 -0.00000000000E+00 -0.00000000000E+00 -0.50000000000E+03  0.50000000000E+03  0.00000000000E+00 0. -1.
         23    2    1    2    0    0 -0.22570391391E+03 -0.26040617779E+02  0.38914446605E+03  0.46255309292E+03  0.10441062101E+03 0.  0.
        -11    1    1    2    0    0 -0.43525388161E+01  0.12112733972E+03 -0.11379289581E+03  0.16625161701E+03  0.00000000000E+00 0. -1.
         11    1    1    2    0    0  0.23005645273E+03 -0.95086721942E+02 -0.27535157024E+03  0.37119529006E+03  0.00000000000E+00 0. -1.
        -15    1    3    3    0    0 -0.16395185255E+03 -0.54339788246E+02  0.32997644413E+03  0.37245219016E+03  0.17770000000E+01 0. -1.
         15    1    3    3    0    0 -0.61752061363E+02  0.28299170467E+02  0.59168021920E+02  0.90100902763E+02  0.17770000000E+01 0.  1.
</event>
<event>
 7    1  0.3260141E-006  0.5113459E+03  0.7546771E-02  0.9374774E-01
        -11   -1    0    0    0    0  0.00000000000E+00  0.00000000000E+00  0.50000000000E+03  0.50000000000E+03  0.00000000000E+00 0.  1.
         11   -1    0    0    0    0 -0.00000000000E+00 -0.00000000000E+00 -0.50000000000E+03  0.50000000000E+03  0.00000000000E+00 0. -1.
         23    2    1    2    0    0 -0.25595430500E+02 -0.22859343880E+02 -0.19377833191E+03  0.21684635434E+03  0.91074825344E+02 0.  0.
        -11    1    1    2    0    0  0.11824466493E+03  0.28673134697E+02  0.47326409109E+03  0.48865412037E+03  0.00000000000E+00 0.  1.
         11    1    1    2    0    0 -0.92649234428E+02 -0.58137908175E+01 -0.27948575919E+03  0.29449952528E+03  0.00000000000E+00 0. -1.
        -15    1    3    3    0    0  0.60905464230E+01  0.24523187731E+02 -0.15564679076E+02  0.29730429798E+02  0.17770000000E+01 0.  1.
         15    1    3    3    0    0 -0.31685976923E+02 -0.47382531610E+02 -0.17821365283E+03  0.18711592455E+03  0.17770000000E+01 0. -1.
</event>
<event>
 7    1  0.3260141E-006  0.4630111E+03  0.7546771E-02  0.9486605E-01
        -11   -1    0    0    0    0  0.00000000000E+00  0.00000000000E+00  0.50000000000E+03  0.50000000000E+03  0.00000000000E+00 0. -1.
         11   -1    0    0    0    0 -0.00000000000E+00 -0.00000000000E+00 -0.50000000000E+03  0.50000000000E+03  0.00000000000E+00 0.  1.
         23    2    1    2    0    0 -0.11562543201E+03  0.15418144763E+03 -0.38731467130E+03  0.44219367438E+03  0.91550159675E+02 0.  0.
        -11    1    1    2    0    0  0.11031381402E+03 -0.10855221190E+03  0.45240099519E+03  0.47814159066E+03  0.00000000000E+00 0. -1.
         11    1    1    2    0    0  0.53116179983E+01 -0.45629235735E+02 -0.65086323886E+02  0.79664734961E+02  0.00000000000E+00 0.  1.
        -15    1    3    3    0    0 -0.12433287004E+03  0.10477314183E+03 -0.30898923770E+03  0.34916125295E+03  0.17770000000E+01 0. -1.
         15    1    3    3    0    0  0.87074380223E+01  0.49408305805E+02 -0.78325433603E+02  0.93032421432E+02  0.17770000000E+01 0.  1.
</event>
<event>
 7    1  0.3260141E-006  0.5149551E+03  0.7546771E-02  0.9366955E-01
        -11   -1    0    0    0    0  0.00000000000E+00  0.00000000000E+00  0.50000000000E+03  0.50000000000E+03  0.00000000000E+00 0. -1.
         11   -1    0    0    0    0 -0.00000000000E+00 -0.00000000000E+00 -0.50000000000E+03  0.50000000000E+03  0.00000000000E+00 0.  1.
         23    2    1    2    0    0  0.79428795168E+02 -0.32782282928E+02 -0.15811378846E+03  0.20385182422E+03  0.95770478531E+02 0.  0.
        -11    1    1    2    0    0 -0.14203314401E+03  0.29622049287E+02  0.46283654775E+03  0.48504489455E+03  0.00000000000E+00 0. -1.
         11    1    1    2    0    0  0.62604348837E+02  0.31602336414E+01 -0.30472275928E+03  0.31110328123E+03  0.00000000000E+00 0.  1.
        -15    1    3    3    0    0  0.12893296237E+02 -0.53447916880E+02 -0.45368270074E+02  0.71304660193E+02  0.17770000000E+01 0. -1.
         15    1    3    3    0    0  0.66535498932E+02  0.20665633952E+02 -0.11274551839E+03  0.13254716402E+03  0.17770000000E+01 0.  1.
</event>
<event>
 7    1  0.3260141E-006  0.3937549E+03  0.7546771E-02  0.9675035E-01
        -11   -1    0    0    0    0  0.00000000000E+00  0.00000000000E+00  0.50000000000E+03  0.50000000000E+03  0.00000000000E+00 0.  1.
         11   -1    0    0    0    0 -0.00000000000E+00 -0.00000000000E+00 -0.50000000000E+03  0.50000000000E+03  0.00000000000E+00 0. -1.
         23    2    1    2    0    0 -0.33647345070E+02 -0.14364089082E+03 -0.86368303420E+02  0.19414895818E+03  0.92029803761E+02 0.  0.
        -11    1    1    2    0    0  0.10289246578E+02  0.89989890950E+02  0.43907666168E+03  0.44832171919E+03  0.00000000000E+00 0.  1.
         11    1    1    2    0    0  0.23358098492E+02  0.53650999870E+02 -0.35270835826E+03  0.35752932263E+03  0.00000000000E+00 0. -1.
        -15    1    3    3    0    0 -0.52801911810E+02 -0.63866302989E+02 -0.74092504945E+02  0.11117465343E+03  0.17770000000E+01 0.  1.
         15    1    3    3    0    0  0.19154566740E+02 -0.79774587831E+02 -0.12275798476E+02  0.82974304745E+02  0.17770000000E+01 0. -1.
</event>
<event>
 6    1  0.3260141E-006  0.3775273E+03  0.7546771E-02  0.9725235E-01
        -11   -1    0    0    0    0  0.00000000000E+00  0.00000000000E+00  0.50000000000E+03  0.50000000000E+03  0.00000000000E+00 0.  1.
         11   -1    0    0    0    0 -0.00000000000E+00 -0.00000000000E+00 -0.50000000000E+03  0.50000000000E+03  0.00000000000E+00 0. -1.
        -11    1    1    2    0    0  0.70623903484E+02  0.10179196499E+03  0.33642746888E+03  0.35851468826E+03  0.00000000000E+00 0.  1.
         11    1    1    2    0    0 -0.12319788266E+03 -0.35105056919E+02 -0.38172831842E+03  0.40264946591E+03  0.00000000000E+00 0. -1.
        -15    1    1    2    0    0  0.38559446181E+02 -0.57106602056E+02  0.13283453449E+03  0.14965348699E+03  0.17770000000E+01 0.  1.
         15    1    1    2    0    0  0.14014533000E+02 -0.95803060188E+01 -0.87533684945E+02  0.89182358837E+02  0.17770000000E+01 0. -1.
</event>
<event>
 7    1  0.3260141E-006  0.5386149E+03  0.7546771E-02  0.9317324E-01
        -11   -1    0    0    0    0  0.00000000000E+00  0.00000000000E+00  0.50000000000E+03  0.50000000000E+03  0.00000000000E+00 0. -1.
         11   -1    0    0    0    0 -0.00000000000E+00 -0.00000000000E+00 -0.50000000000E+03  0.50000000000E+03  0.00000000000E+00 0.  1.
         23    2    1    2    0    0 -0.49483642118E+02 -0.16065871702E+02  0.23502175840E+03  0.25467675522E+03  0.83176196458E+02 0.  0.
        -11    1    1    2    0    0 -0.22225507282E+03 -0.14470402778E+03  0.10141149100E+03  0.28393813333E+03  0.00000000000E+00 0. -1.
         11    1    1    2    0    0  0.27173871494E+03  0.16076989948E+03 -0.33643324940E+03  0.46138511146E+03  0.00000000000E+00 0.  1.
        -15    1    3    3    0    0 -0.73428794710E+00 -0.19994981956E+02  0.67094321534E+01  0.21178118212E+02  0.17770000000E+01 0.  1.
         15    1    3    3    0    0 -0.48749354171E+02  0.39291102534E+01  0.22831232624E+03  0.23349863700E+03  0.17770000000E+01 0. -1.
</event>
<event>
 7    1  0.3260141E-006  0.4721732E+03  0.7546771E-02  0.9464322E-01
        -11   -1    0    0    0    0  0.00000000000E+00  0.00000000000E+00  0.50000000000E+03  0.50000000000E+03  0.00000000000E+00 0.  1.
         11   -1    0    0    0    0 -0.00000000000E+00 -0.00000000000E+00 -0.50000000000E+03  0.50000000000E+03  0.00000000000E+00 0. -1.
         23    2    1    2    0    0 -0.16891900775E+03  0.68663680911E+02 -0.39991019980E+03  0.44864003477E+03  0.90007669898E+02 0.  0.
        -11    1    1    2    0    0  0.15856869423E+03 -0.10230297404E+03  0.45124791619E+03  0.48911615303E+03  0.00000000000E+00 0.  1.
         11    1    1    2    0    0  0.10350313526E+02  0.33639293124E+02 -0.51337716396E+02  0.62243812197E+02  0.00000000000E+00 0. -1.
        -15    1    3    3    0    0 -0.25970514048E+02  0.25998992142E+02 -0.23280346877E+02  0.43537885479E+02  0.17770000000E+01 0.  1.
         15    1    3    3    0    0 -0.14294849371E+03  0.42664688769E+02 -0.37662985292E+03  0.40510214929E+03  0.17770000000E+01 0. -1.
</event>
<event>
 7    1  0.3260141E-006  0.4759388E+03  0.7546771E-02  0.9455319E-01
        -11   -1    0    0    0    0  0.00000000000E+00  0.00000000000E+00  0.50000000000E+03  0.50000000000E+03  0.00000000000E+00 0. -1.
         11   -1    0    0    0    0 -0.00000000000E+00 -0.00000000000E+00 -0.50000000000E+03  0.50000000000E+03  0.00000000000E+00 0. -1.
         23    2    1    2    0    0  0.21057243721E+03  0.16106173399E+03 -0.36448977037E+03  0.46001516460E+03  0.92084339029E+02 0.  0.
        -11    1    1    2    0    0 -0.20436049096E+03 -0.14127839015E+03  0.41595399844E+03  0.48450028132E+03  0.00000000000E+00 0. -1.
         11    1    1    2    0    0 -0.62119462563E+01 -0.19783343841E+02 -0.51464228072E+02  0.55484554074E+02  0.00000000000E+00 0. -1.
        -15    1    3    3    0    0  0.15078955750E+03  0.15798481746E+03 -0.25979202583E+03  0.33939909784E+03  0.17770000000E+01 0. -1.
         15    1    3    3    0    0  0.59782879717E+02  0.30769165276E+01 -0.10469774453E+03  0.12061606677E+03  0.17770000000E+01 0.  1.
</event>
<event>
 7    1  0.3260141E-006  0.5321833E+03  0.7546771E-02  0.9330544E-01
        -11   -1    0    0    0    0  0.00000000000E+00  0.00000000000E+00  0.50000000000E+03  0.50000000000E+03  0.00000000000E+00 0. -1.
         11   -1    0    0    0    0 -0.00000000000E+00 -0.00000000000E+00 -0.50000000000E+03  0.50000000000E+03  0.00000000000E+00 0. -1.
         23    2    1    2    0    0  0.78002394257E+01 -0.45354896764E+02  0.27895347889E+03  0.29801948555E+03  0.94247864658E+02 0.  0.
        -11    1    1    2    0    0 -0.61345539430E+02  0.14228586687E+03  0.17556801885E+03  0.23416377252E+03  0.00000000000E+00 0. -1.
         11    1    1    2    0    0  0.53545300004E+02 -0.96930970104E+02 -0.45452149774E+03  0.46781674192E+03  0.00000000000E+00 0. -1.
        -15    1    3    3    0    0 -0.26281832793E+02 -0.32052493112E+02  0.24361490470E+03  0.24712239188E+03  0.17770000000E+01 0. -1.
         15    1    3    3    0    0  0.34082072219E+02 -0.13302403652E+02  0.35338574186E+02  0.50897093671E+02  0.17770000000E+01 0.  1.
</event>
<event>
 7    1  0.3260141E-006  0.5346914E+03  0.7546771E-02  0.9325365E-01
        -11   -1    0    0    0    0  0.00000000000E+00  0.00000000000E+00  0.50000000000E+03  0.50000000000E+03  0.00000000000E+00 0. -1.
         11   -1    0    0    0    0 -0.00000000000E+00 -0.00000000000E+00 -0.50000000000E+03  0.50000000000E+03  0.00000000000E+00 0.  1.
         23    2    1    2    0    0  0.19408188695E+01 -0.89611051887E+02  0.34476486360E+03  0.37125984844E+03  0.10458086103E+03 0.  0.
        -11    1    1    2    0    0 -0.11119219067E+03 -0.10004904357E+03  0.65850917735E+02  0.16343150783E+03  0.00000000000E+00 0. -1.
         11    1    1    2    0    0  0.10925137180E+03  0.18966009545E+03 -0.41061578133E+03  0.46530864373E+03  0.00000000000E+00 0.  1.
        -15    1    3    3    0    0  0.38242150352E+02 -0.87273937782E+02  0.29190463539E+03  0.30706786899E+03  0.17770000000E+01 0. -1.
         15    1    3    3    0    0 -0.36301331483E+02 -0.23371141052E+01  0.52860228212E+02  0.64191979448E+02  0.17770000000E+01 0.  1.
</event>
<event>
 7    1  0.3260141E-006  0.4276064E+03  0.7546771E-02  0.9578175E-01
        -11   -1    0    0    0    0  0.00000000000E+00  0.00000000000E+00  0.50000000000E+03  0.50000000000E+03  0.00000000000E+00 0.  1.
         11   -1    0    0    0    0 -0.00000000000E+00 -0.00000000000E+00 -0.50000000000E+03  0.50000000000E+03  0.00000000000E+00 0.  1.
         23    2    1    2    0    0 -0.98903781389E+02  0.19685640069E+02  0.15570455423E+02  0.13872137969E+03  0.93977123289E+02 0.  0.
        -11    1    1    2    0    0  0.12637970109E+03 -0.85893835801E+02  0.40592379643E+03  0.43373230037E+03  0.00000000000E+00 0.  1.
         11    1    1    2    0    0 -0.27475919698E+02  0.66208195732E+02 -0.42149425186E+03  0.42754631994E+03  0.00000000000E+00 0.  1.
        -15    1    3    3    0    0 -0.20463850337E+02 -0.95471364170E+01  0.44665979568E+02  0.50081178542E+02  0.17770000000E+01 0.  1.
         15    1    3    3    0    0 -0.78439931052E+02  0.29232776486E+02 -0.29095524144E+02  0.88640201144E+02  0.17770000000E+01 0. -1.
</event>
<event>
 7    1  0.3260141E-006  0.4339626E+03  0.7546771E-02  0.9561054E-01
        -11   -1    0    0    0    0  0.00000000000E+00  0.00000000000E+00  0.50000000000E+03  0.50000000000E+03  0.00000000000E+00 0. -1.
         11   -1    0    0    0    0 -0.00000000000E+00 -0.00000000000E+00 -0.50000000000E+03  0.50000000000E+03  0.00000000000E+00 0. -1.
         23    2    1    2    0    0  0.23965058816E+02 -0.32360594403E+02  0.43205188383E+03  0.44349974965E+03  0.91660599542E+02 0.  0.
        -11    1    1    2    0    0 -0.12195609280E+03  0.46215457580E+02 -0.19045868228E+02  0.13180251207E+03  0.00000000000E+00 0. -1.
         11    1    1    2    0    0  0.97991033988E+02 -0.13854863177E+02 -0.41300601560E+03  0.42469773828E+03  0.00000000000E+00 0. -1.
        -15    1    3    3    0    0  0.50399208090E+02 -0.37980834665E+02  0.37581589037E+03  0.38108183526E+03  0.17770000000E+01 0. -1.
         15    1    3    3    0    0 -0.26434149274E+02  0.56202402623E+01  0.56235993454E+02  0.62417914393E+02  0.17770000000E+01 0.  1.
</event>
<event>
 7    1  0.3260141E-006  0.5157562E+03  0.7546771E-02  0.9365228E-01
        -11   -1    0    0    0    0  0.00000000000E+00  0.00000000000E+00  0.50000000000E+03  0.50000000000E+03  0.00000000000E+00 0. -1.
         11   -1    0    0    0    0 -0.00000000000E+00 -0.00000000000E+00 -0.50000000000E+03  0.50000000000E+03  0.00000000000E+00 0. -1.
         23    2    1    2    0    0 -0.61874024382E+02  0.70269035207E+02 -0.28368451701E+03  0.31236277370E+03  0.91254945057E+02 0.  0.
        -11    1    1    2    0    0 -0.35566220061E+01 -0.97216752841E+02  0.47437150991E+03  0.48424381876E+03  0.00000000000E+00 0. -1.
         11    1    1    2    0    0  0.65430646388E+02  0.26947717635E+02 -0.19068699290E+03  0.20339340755E+03  0.00000000000E+00 0. -1.
        -15    1    3    3    0    0 -0.56791733650E+02  0.38274779259E+02 -0.26744731480E+03  0.27608238564E+03  0.17770000000E+01 0.  1.
         15    1    3    3    0    0 -0.50822907321E+01  0.31994255948E+02 -0.16237202209E+02  0.36280388053E+02  0.17770000000E+01 0. -1.
</event>
<event>
 7    1  0.3260141E-006  0.5172549E+03  0.7546771E-02  0.9362007E-01
        -11   -1    0    0    0    0  0.00000000000E+00  0.00000000000E+00  0.50000000000E+03  0.50000000000E+03  0.00000000000E+00 0. -1.
         11   -1    0    0    0    0 -0.00000000000E+00 -0.00000000000E+00 -0.50000000000E+03  0.50000000000E+03  0.00000000000E+00 0. -1.
         23    2    1    2    0    0 -0.16488435949E+02  0.52674232707E+02  0.46942851530E+03  0.48274513307E+03  0.98149321028E+02 0.  0.
        -11    1    1    2    0    0  0.89117954244E+02  0.16504185326E+01 -0.88235292968E+02  0.12542009638E+03  0.00000000000E+00 0. -1.
         11    1    1    2    0    0 -0.72629518295E+02 -0.54324651239E+02 -0.38119322233E+03  0.39183477055E+03  0.00000000000E+00 0. -1.
        -15    1    3    3    0    0 -0.21571361128E+02  0.72362846530E+02  0.44278888643E+03  0.44918466231E+03  0.17770000000E+01 0. -1.
         15    1    3    3    0    0  0.50829251791E+01 -0.19688613823E+02  0.26639628874E+02  0.33560470769E+02  0.17770000000E+01 0.  1.
</event>
<event>
 7    1  0.3260141E-006  0.5126685E+03  0.7546771E-02  0.9371901E-01
        -11   -1    0    0    0    0  0.00000000000E+00  0.00000000000E+00  0.50000000000E+03  0.50000000000E+03  0.00000000000E+00 0.  1.
         11   -1    0    0    0    0 -0.00000000000E+00 -0.00000000000E+00 -0.50000000000E+03  0.50000000000E+03  0.00000000000E+00 0.  1.
         23    2    1    2    0    0  0.78216916204E+02  0.10152586800E+03  0.36077963421E+03  0.39298470470E+03  0.88598226944E+02 0.  0.
        -11    1    1    2    0    0 -0.40250227782E+02  0.88649573887E+01  0.11236344971E+03  0.11968380482E+03  0.00000000000E+00 0.  1.
         11    1    1    2    0    0 -0.37966688422E+02 -0.11039082538E+03 -0.47314308391E+03  0.48733149048E+03  0.00000000000E+00 0.  1.
        -15    1    3    3    0    0 -0.13779653844E+02  0.46301491004E+02  0.12014276258E+03  0.12950346736E+03  0.17770000000E+01 0. -1.
         15    1    3    3    0    0  0.91996570048E+02  0.55224376992E+02  0.24063687163E+03  0.26348123734E+03  0.17770000000E+01 0.  1.
</event>
<event>
 7    1  0.3260141E-006  0.5077106E+03  0.7546771E-02  0.9382720E-01
        -11   -1    0    0    0    0  0.00000000000E+00  0.00000000000E+00  0.50000000000E+03  0.50000000000E+03  0.00000000000E+00 0.  1.
         11   -1    0    0    0    0 -0.00000000000E+00 -0.00000000000E+00 -0.50000000000E+03  0.50000000000E+03  0.00000000000E+00 0.  1.
         23    2    1    2    0    0  0.27847747730E+02 -0.20255545917E+02  0.35137745032E+03  0.36457248286E+03  0.90891135270E+02 0.  0.
        -11    1    1    2    0    0  0.49809895646E+02 -0.45524108102E+01  0.13411477490E+03  0.14313812558E+03  0.00000000000E+00 0.  1.
         11    1    1    2    0    0 -0.77657643377E+02  0.24807956727E+02 -0.48549222522E+03  0.49228939156E+03  0.00000000000E+00 0.  1.
        -15    1    3    3    0    0  0.32789627859E+02 -0.53418339061E+02  0.25165371153E+03  0.25934808058E+03  0.17770000000E+01 0.  1.
         15    1    3    3    0    0 -0.49418801288E+01  0.33162793144E+02  0.99723738787E+02  0.10522440228E+03  0.17770000000E+01 0. -1.
</event>
<event>
 7    1  0.3260141E-006  0.4253787E+03  0.7546771E-02  0.9584251E-01
        -11   -1    0    0    0    0  0.00000000000E+00  0.00000000000E+00  0.50000000000E+03  0.50000000000E+03  0.00000000000E+00 0.  1.
         11   -1    0    0    0    0 -0.00000000000E+00 -0.00000000000E+00 -0.50000000000E+03  0.50000000000E+03  0.00000000000E+00 0. -1.
         23    2    1    2    0    0  0.29029460869E+02  0.13371425178E+03  0.43007556677E+03  0.46009987437E+03  0.89468936185E+02 0.  0.
        -11    1    1    2    0    0  0.11417447317E+03 -0.56730061479E+02 -0.71466330577E+02  0.14615589829E+03  0.00000000000E+00 0.  1.
         11    1    1    2    0    0 -0.14320393404E+03 -0.76984190297E+02 -0.35860923619E+03  0.39374422734E+03  0.00000000000E+00 0. -1.
        -15    1    3    3    0    0  0.23010737271E+02 -0.14039744133E+01  0.11360819423E+03  0.11593724466E+03  0.17770000000E+01 0. -1.
         15    1    3    3    0    0  0.60187235972E+01  0.13511822619E+03  0.31646737253E+03  0.34416262971E+03  0.17770000000E+01 0.  1.
</event>
<event>
 7    1  0.3260141E-006  0.5232436E+03  0.7546771E-02  0.9349252E-01
        -11   -1    0    0    0    0  0.00000000000E+00  0.00000000000E+00  0.50000000000E+03  0.50000000000E+03  0.00000000000E+00 0.  1.
         11   -1    0    0    0    0 -0.00000000000E+00 -0.00000000000E+00 -0.50000000000E+03  0.50000000000E+03  0.00000000000E+00 0.  1.
         23    2    1    2    0    0  0.35471806722E+02 -0.87557403282E+02 -0.99243315935E+02  0.16151506031E+03  0.85518015683E+02 0.  0.
        -11    1    1    2    0    0 -0.20904024204E+03  0.10142823881E+03  0.41630658833E+03  0.47675642199E+03  0.00000000000E+00 0.  1.
         11    1    1    2    0    0  0.17356843532E+03 -0.13870835528E+02 -0.31706327240E+03  0.36172851770E+03  0.00000000000E+00 0.  1.
        -15    1    3    3    0    0 -0.16432700062E+01 -0.89271623821E+02 -0.78635570300E+02  0.11899089798E+03  0.17770000000E+01 0.  1.
         15    1    3    3    0    0  0.37115076728E+02  0.17142205395E+01 -0.20607745634E+02  0.42524162328E+02  0.17770000000E+01 0. -1.
</event>
<event>
 7    1  0.3260141E-006  0.4604212E+03  0.7546771E-02  0.9493004E-01
        -11   -1    0    0    0    0  0.00000000000E+00  0.00000000000E+00  0.50000000000E+03  0.50000000000E+03  0.00000000000E+00 0. -1.
         11   -1    0    0    0    0 -0.00000000000E+00 -0.00000000000E+00 -0.50000000000E+03  0.50000000000E+03  0.00000000000E+00 0. -1.
         23    2    1    2    0    0 -0.25860889179E+03  0.73847059623E+02  0.35817008997E+03  0.45728297871E+03  0.92140990545E+02 0.  0.
        -11    1    1    2    0    0  0.32582409644E+03 -0.89670288963E+02 -0.30936639934E+03  0.45815900251E+03  0.00000000000E+00 0. -1.
         11    1    1    2    0    0 -0.67215204643E+02  0.15823229340E+02 -0.48803690628E+02  0.84558018785E+02  0.00000000000E+00 0. -1.
        -15    1    3    3    0    0 -0.62676060636E+02 -0.10647518385E+02  0.43370884619E+02  0.76979540049E+02  0.17770000000E+01 0.  1.
         15    1    3    3    0    0 -0.19593283116E+03  0.84494578008E+02  0.31479920535E+03  0.38030343866E+03  0.17770000000E+01 0. -1.
</event>
<event>
 7    1  0.3260141E-006  0.5187894E+03  0.7546771E-02  0.9358721E-01
        -11   -1    0    0    0    0  0.00000000000E+00  0.00000000000E+00  0.50000000000E+03  0.50000000000E+03  0.00000000000E+00 0.  1.
         11   -1    0    0    0    0 -0.00000000000E+00 -0.00000000000E+00 -0.50000000000E+03  0.50000000000E+03  0.00000000000E+00 0. -1.
         23    2    1    2    0    0  0.21139579284E+01 -0.92684185787E+01  0.33989199485E+03  0.35202280694E+03  0.91121435660E+02 0.  0.
        -11    1    1    2    0    0 -0.86254420262E+02 -0.62132492929E+02  0.12849449510E+03  0.16676662425E+03  0.00000000000E+00 0.  1.
         11    1    1    2    0    0  0.84140462334E+02  0.71400911508E+02 -0.46838648995E+03  0.48121056881E+03  0.00000000000E+00 0. -1.
        -15    1    3    3    0    0 -0.37715681209E+02  0.19399426131E+02  0.16397718405E+03  0.16938265838E+03  0.17770000000E+01 0. -1.
         15    1    3    3    0    0  0.39829639138E+02 -0.28667844710E+02  0.17591481081E+03  0.18264014856E+03  0.17770000000E+01 0.  1.
</event>
<event>
 6    1  0.3260141E-006  0.3841372E+03  0.7546771E-02  0.9704468E-01
        -11   -1    0    0    0    0  0.00000000000E+00  0.00000000000E+00  0.50000000000E+03  0.50000000000E+03  0.00000000000E+00 0.  1.
         11   -1    0    0    0    0 -0.00000000000E+00 -0.00000000000E+00 -0.50000000000E+03  0.50000000000E+03  0.00000000000E+00 0. -1.
        -11    1    1    2    0    0 -0.10924875590E+03  0.22756134295E+02  0.35785757850E+03  0.37485354314E+03  0.00000000000E+00 0.  1.
         11    1    1    2    0    0  0.97573502650E+02  0.35279278338E+02 -0.38225315260E+03  0.39608419379E+03  0.00000000000E+00 0. -1.
        -15    1    1    2    0    0 -0.46517140166E+02 -0.92435655666E+02  0.88282079756E+02  0.13603337128E+03  0.17770000000E+01 0.  1.
         15    1    1    2    0    0  0.58192393419E+02  0.34400243033E+02 -0.63886505660E+02  0.93028891786E+02  0.17770000000E+01 0. -1.
</event>
<event>
 7    1  0.3260141E-006  0.4462309E+03  0.7546771E-02  0.9528876E-01
        -11   -1    0    0    0    0  0.00000000000E+00  0.00000000000E+00  0.50000000000E+03  0.50000000000E+03  0.00000000000E+00 0.  1.
         11   -1    0    0    0    0 -0.00000000000E+00 -0.00000000000E+00 -0.50000000000E+03  0.50000000000E+03  0.00000000000E+00 0.  1.
         23    2    1    2    0    0 -0.14505548376E+02  0.37265167640E+02  0.40616111519E+03  0.41840808925E+03  0.92192049584E+02 0.  0.
        -11    1    1    2    0    0  0.83143046447E+02  0.50786531498E+02  0.51714747755E+02  0.11030164591E+03  0.00000000000E+00 0.  1.
         11    1    1    2    0    0 -0.68637498071E+02 -0.88051699138E+02 -0.45787586295E+03  0.47129026484E+03  0.00000000000E+00 0.  1.
        -15    1    3    3    0    0  0.33655768269E+01  0.65923747202E+02  0.24549191994E+03  0.25421783580E+03  0.17770000000E+01 0.  1.
         15    1    3    3    0    0 -0.17871125203E+02 -0.28658579561E+02  0.16066919525E+03  0.16419025346E+03  0.17770000000E+01 0. -1.
</event>
<event>
 7    1  0.3260141E-006  0.3553199E+03  0.7546771E-02  0.9798487E-01
        -11   -1    0    0    0    0  0.00000000000E+00  0.00000000000E+00  0.50000000000E+03  0.50000000000E+03  0.00000000000E+00 0.  1.
         11   -1    0    0    0    0 -0.00000000000E+00 -0.00000000000E+00 -0.50000000000E+03  0.50000000000E+03  0.00000000000E+00 0. -1.
         23    2    1    2    0    0 -0.60217791671E+02  0.21888338837E+03 -0.59346944710E+02  0.25162365383E+03  0.90864091823E+02 0.  0.
        -11    1    1    2    0    0  0.20744088183E+03 -0.11069007005E+02  0.32156926974E+03  0.38283291082E+03  0.00000000000E+00 0.  1.
         11    1    1    2    0    0 -0.14722309016E+03 -0.20781438137E+03 -0.26222232503E+03  0.36554343534E+03  0.00000000000E+00 0. -1.
        -15    1    3    3    0    0 -0.37562319187E+02  0.19637156647E+03 -0.77975779947E+02  0.21460684967E+03  0.17770000000E+01 0.  1.
         15    1    3    3    0    0 -0.22655472483E+02  0.22511821908E+02  0.18628835237E+02  0.37016804162E+02  0.17770000000E+01 0. -1.
</event>
<event>
 7    1  0.3260141E-006  0.4550690E+03  0.7546771E-02  0.9506370E-01
        -11   -1    0    0    0    0  0.00000000000E+00  0.00000000000E+00  0.50000000000E+03  0.50000000000E+03  0.00000000000E+00 0.  1.
         11   -1    0    0    0    0 -0.00000000000E+00 -0.00000000000E+00 -0.50000000000E+03  0.50000000000E+03  0.00000000000E+00 0.  1.
         23    2    1    2    0    0 -0.68340232280E+02 -0.11446344281E+03  0.41338519167E+03  0.44350787686E+03  0.89664112439E+02 0.  0.
        -11    1    1    2    0    0 -0.38074204929E+02  0.78228180054E+02  0.35336168544E+02  0.93903876613E+02  0.00000000000E+00 0.  1.
         11    1    1    2    0    0  0.10641443721E+03  0.36235262759E+02 -0.44872136021E+03  0.46258824653E+03  0.00000000000E+00 0.  1.
        -15    1    3    3    0    0 -0.84531680597E+02 -0.11598503607E+03  0.38276706257E+03  0.40879324301E+03  0.17770000000E+01 0.  1.
         15    1    3    3    0    0  0.16191448317E+02  0.15215932613E+01  0.30618129102E+02  0.34714633850E+02  0.17770000000E+01 0. -1.
</event>
<event>
 7    1  0.3260141E-006  0.5170193E+03  0.7546771E-02  0.9362513E-01
        -11   -1    0    0    0    0  0.00000000000E+00  0.00000000000E+00  0.50000000000E+03  0.50000000000E+03  0.00000000000E+00 0.  1.
         11   -1    0    0    0    0 -0.00000000000E+00 -0.00000000000E+00 -0.50000000000E+03  0.50000000000E+03  0.00000000000E+00 0.  1.
         23    2    1    2    0    0  0.35227135946E+02 -0.62105530852E+01  0.25414005047E+03  0.27285465046E+03  0.92644335777E+02 0.  0.
        -11    1    1    2    0    0  0.41147576918E+02  0.11887689706E+03  0.20926426645E+03  0.24416464313E+03  0.00000000000E+00 0.  1.
         11    1    1    2    0    0 -0.76374712864E+02 -0.11266634397E+03 -0.46340431692E+03  0.48298070641E+03  0.00000000000E+00 0.  1.
        -15    1    3    3    0    0  0.18812373986E+02 -0.38768318444E+02  0.52530841569E+02  0.67967161004E+02  0.17770000000E+01 0.  1.
         15    1    3    3    0    0  0.16414761960E+02  0.32557765359E+02  0.20160920890E+03  0.20488748946E+03  0.17770000000E+01 0. -1.
</event>
<event>
 7    1  0.3260141E-006  0.5388647E+03  0.7546771E-02  0.9316814E-01
        -11   -1    0    0    0    0  0.00000000000E+00  0.00000000000E+00  0.50000000000E+03  0.50000000000E+03  0.00000000000E+00 0.  1.
         11   -1    0    0    0    0 -0.00000000000E+00 -0.00000000000E+00 -0.50000000000E+03  0.50000000000E+03  0.00000000000E+00 0.  1.
         23    2    1    2    0    0 -0.58765040532E+02  0.39640972811E+01  0.31135168154E+03  0.32985264810E+03  0.91617988430E+02 0.  0.
        -11    1    1    2    0    0  0.15379503464E+03 -0.24375195626E+02  0.13942371501E+03  0.20901204546E+03  0.00000000000E+00 0.  1.
         11    1    1    2    0    0 -0.95029994107E+02  0.20411098344E+02 -0.45077539655E+03  0.46113530644E+03  0.00000000000E+00 0.  1.
        -15    1    3    3    0    0 -0.80024013277E+02  0.14849880469E+02  0.27063663568E+03  0.28261583104E+03  0.17770000000E+01 0.  1.
         15    1    3    3    0    0  0.21258972746E+02 -0.10885783187E+02  0.40715045857E+02  0.47236817060E+02  0.17770000000E+01 0. -1.
</event>
<event>
 7    1  0.3260141E-006  0.4144272E+03  0.7546771E-02  0.9614708E-01
        -11   -1    0    0    0    0  0.00000000000E+00  0.00000000000E+00  0.50000000000E+03  0.50000000000E+03  0.00000000000E+00 0.  1.
         11   -1    0    0    0    0 -0.00000000000E+00 -0.00000000000E+00 -0.50000000000E+03  0.50000000000E+03  0.00000000000E+00 0. -1.
         23    2    1    2    0    0  0.48299089151E+01 -0.11406257975E+03  0.76777419789E+01  0.16328499219E+03  0.11648794288E+03 0.  0.
        -11    1    1    2    0    0 -0.11001991354E+03  0.18853526585E+02  0.39463495317E+03  0.41011776736E+03  0.00000000000E+00 0.  1.
         11    1    1    2    0    0  0.10519000463E+03  0.95209053161E+02 -0.40231269515E+03  0.42659724045E+03  0.00000000000E+00 0. -1.
        -15    1    3    3    0    0 -0.41928921702E+02 -0.39684863514E+02  0.39338413148E+02  0.69882697037E+02  0.17770000000E+01 0.  1.
         15    1    3    3    0    0  0.46758830617E+02 -0.74377716232E+02 -0.31660671170E+02  0.93402295156E+02  0.17770000000E+01 0. -1.
</event>
<event>
 7    1  0.3260141E-006  0.5182151E+03  0.7546771E-02  0.9359950E-01
        -11   -1    0    0    0    0  0.00000000000E+00  0.00000000000E+00  0.50000000000E+03  0.50000000000E+03  0.00000000000E+00 0.  1.
         11   -1    0    0    0    0 -0.00000000000E+00 -0.00000000000E+00 -0.50000000000E+03  0.50000000000E+03  0.00000000000E+00 0. -1.
         23    2    1    2    0    0  0.52475350452E+01  0.55874118952E+02  0.23871026617E+03  0.26262096413E+03  0.94009179519E+02 0.  0.
        -11    1    1    2    0    0  0.10458132943E+03 -0.38264101887E+02  0.23005857829E+03  0.25559410283E+03  0.00000000000E+00 0.  1.
         11    1    1    2    0    0 -0.10982886447E+03 -0.17610017065E+02 -0.46876884446E+03  0.48178493304E+03  0.00000000000E+00 0. -1.
        -15    1    3    3    0    0 -0.23514460183E+02  0.30181939784E+02  0.21257863668E+03  0.21600165237E+03  0.17770000000E+01 0.  1.
         15    1    3    3    0    0  0.28761995228E+02  0.25692179168E+02  0.26131629491E+02  0.46619311758E+02  0.17770000000E+01 0. -1.
</event>
<event>
 7    1  0.3260141E-006  0.5248605E+03  0.7546771E-02  0.9345839E-01
        -11   -1    0    0    0    0  0.00000000000E+00  0.00000000000E+00  0.50000000000E+03  0.50000000000E+03  0.00000000000E+00 0.  1.
         11   -1    0    0    0    0 -0.00000000000E+00 -0.00000000000E+00 -0.50000000000E+03  0.50000000000E+03  0.00000000000E+00 0. -1.
         23    2    1    2    0    0 -0.55254618901E+02 -0.64780199420E+02  0.17611967946E+03  0.21588397989E+03  0.91313767474E+02 0.  0.
        -11    1    1    2    0    0 -0.25228206463E+03 -0.10695094018E+03  0.14276458901E+03  0.30897649039E+03  0.00000000000E+00 0.  1.
         11    1    1    2    0    0  0.30753668353E+03  0.17173113960E+03 -0.31888426847E+03  0.47513952972E+03  0.00000000000E+00 0. -1.
        -15    1    3    3    0    0 -0.17704449728E+02  0.51288849144E+00 -0.60084711420E+01  0.18787497152E+02  0.17770000000E+01 0. -1.
         15    1    3    3    0    0 -0.37550169173E+02 -0.65293087911E+02  0.18212815061E+03  0.19709648273E+03  0.17770000000E+01 0.  1.
</event>
<event>
 7    1  0.3260141E-006  0.3911140E+03  0.7546771E-02  0.9683027E-01
        -11   -1    0    0    0    0  0.00000000000E+00  0.00000000000E+00  0.50000000000E+03  0.50000000000E+03  0.00000000000E+00 0.  1.
         11   -1    0    0    0    0 -0.00000000000E+00 -0.00000000000E+00 -0.50000000000E+03  0.50000000000E+03  0.00000000000E+00 0. -1.
         23    2    1    2    0    0 -0.72737311738E+02  0.39445553794E+02  0.33063413992E+03  0.35154768721E+03  0.86140429949E+02 0.  0.
        -11    1    1    2    0    0  0.92908064181E+02 -0.14628598588E+03  0.10286495257E+03  0.20152592022E+03  0.00000000000E+00 0.  1.
         11    1    1    2    0    0 -0.20170752443E+02  0.10684043208E+03 -0.43349909249E+03  0.44692639257E+03  0.00000000000E+00 0. -1.
        -15    1    3    3    0    0 -0.48705060117E+02  0.59051901257E+01  0.28813275560E+03  0.29228530023E+03  0.17770000000E+01 0.  1.
         15    1    3    3    0    0 -0.24032251621E+02  0.33540363669E+02  0.42501384319E+02  0.59262386984E+02  0.17770000000E+01 0. -1.
</event>
<event>
 7    1  0.3260141E-006  0.5113664E+03  0.7546771E-02  0.9374730E-01
        -11   -1    0    0    0    0  0.00000000000E+00  0.00000000000E+00  0.50000000000E+03  0.50000000000E+03  0.00000000000E+00 0.  1.
         11   -1    0    0    0    0 -0.00000000000E+00 -0.00000000000E+00 -0.50000000000E+03  0.50000000000E+03  0.00000000000E+00 0.  1.
         23    2    1    2    0    0  0.51297323447E+01 -0.11467004583E+02  0.32319689885E+03  0.33612625059E+03  0.91470293323E+02 0.  0.
        -11    1    1    2    0    0  0.40158469527E+02 -0.66631920786E+02  0.15702420766E+03  0.17524017043E+03  0.00000000000E+00 0.  1.
         11    1    1    2    0    0 -0.45288201872E+02  0.78098925369E+02 -0.48022110651E+03  0.48863357898E+03  0.00000000000E+00 0.  1.
        -15    1    3    3    0    0 -0.15468063668E+02 -0.45985338212E+02  0.12966716219E+03  0.13845809114E+03  0.17770000000E+01 0.  1.
         15    1    3    3    0    0  0.20597796013E+02  0.34518333629E+02  0.19352973666E+03  0.19766815945E+03  0.17770000000E+01 0. -1.
</event>
<event>
 7    1  0.3260141E-006  0.4801046E+03  0.7546771E-02  0.9445462E-01
        -11   -1    0    0    0    0  0.00000000000E+00  0.00000000000E+00  0.50000000000E+03  0.50000000000E+03  0.00000000000E+00 0. -1.
         11   -1    0    0    0    0 -0.00000000000E+00 -0.00000000000E+00 -0.50000000000E+03  0.50000000000E+03  0.00000000000E+00 0.  1.
         23    2    1    2    0    0  0.22146672310E+02 -0.49637620283E+02  0.46208348187E+03  0.47416362043E+03  0.91409114857E+02 0.  0.
        -11    1    1    2    0    0 -0.36926693574E+02 -0.28052192525E+02  0.97784041007E+01  0.47393284235E+02  0.00000000000E+00 0. -1.
         11    1    1    2    0    0  0.14780021264E+02  0.77689812808E+02 -0.47186188597E+03  0.47844309534E+03  0.00000000000E+00 0.  1.
        -15    1    3    3    0    0 -0.26254108179E+02 -0.45983467022E+02  0.16984767581E+03  0.17791893700E+03  0.17770000000E+01 0.  1.
         15    1    3    3    0    0  0.48400780489E+02 -0.36541532612E+01  0.29223580606E+03  0.29624468343E+03  0.17770000000E+01 0. -1.
</event>
<event>
 7    1  0.3260141E-006  0.4057320E+03  0.7546771E-02  0.9639614E-01
        -11   -1    0    0    0    0  0.00000000000E+00  0.00000000000E+00  0.50000000000E+03  0.50000000000E+03  0.00000000000E+00 0. -1.
         11   -1    0    0    0    0 -0.00000000000E+00 -0.00000000000E+00 -0.50000000000E+03  0.50000000000E+03  0.00000000000E+00 0.  1.
         23    2    1    2    0    0 -0.21009527960E+03 -0.39924362666E+03  0.67117783176E+02  0.46506871613E+03  0.90821880400E+02 0.  0.
        -11    1    1    2    0    0  0.22558575699E+03  0.26959393944E+03  0.55418581399E+02  0.35586661139E+03  0.00000000000E+00 0. -1.
         11    1    1    2    0    0 -0.15490477386E+02  0.12964968722E+03 -0.12253636457E+03  0.17906467248E+03  0.00000000000E+00 0.  1.
        -15    1    3    3    0    0 -0.21324227934E+03 -0.38873556350E+03  0.52171819581E+02  0.44644446968E+03  0.17770000000E+01 0.  1.
         15    1    3    3    0    0  0.31469997330E+01 -0.10508063167E+02  0.14945963595E+02  0.18624246445E+02  0.17770000000E+01 0. -1.
</event>
<event>
 7    1  0.3260141E-006  0.4154922E+03  0.7546771E-02  0.9611702E-01
        -11   -1    0    0    0    0  0.00000000000E+00  0.00000000000E+00  0.50000000000E+03  0.50000000000E+03  0.00000000000E+00 0.  1.
         11   -1    0    0    0    0 -0.00000000000E+00 -0.00000000000E+00 -0.50000000000E+03  0.50000000000E+03  0.00000000000E+00 0. -1.
         23    2    1    2    0    0 -0.37919693468E+02 -0.16530387599E+03  0.34333727810E+03  0.39344541143E+03  0.90307976781E+02 0.  0.
        -11    1    1    2    0    0  0.11292323791E+03  0.80453647321E+02  0.85581257842E+02  0.16293740737E+03  0.00000000000E+00 0.  1.
         11    1    1    2    0    0 -0.75003544445E+02  0.84850228671E+02 -0.42891853594E+03  0.44361718120E+03  0.00000000000E+00 0. -1.
        -15    1    3    3    0    0 -0.43709109302E+02 -0.49278503913E+02  0.68445890869E+02  0.95009762076E+02  0.17770000000E+01 0. -1.
         15    1    3    3    0    0  0.57894158342E+01 -0.11602537208E+03  0.27489138723E+03  0.29843564935E+03  0.17770000000E+01 0.  1.
</event>
<event>
 7    1  0.3260141E-006  0.3206744E+03  0.7546771E-02  0.9925046E-01
        -11   -1    0    0    0    0  0.00000000000E+00  0.00000000000E+00  0.50000000000E+03  0.50000000000E+03  0.00000000000E+00 0.  1.
         11   -1    0    0    0    0 -0.00000000000E+00 -0.00000000000E+00 -0.50000000000E+03  0.50000000000E+03  0.00000000000E+00 0.  1.
         23    2    1    2    0    0 -0.23490164579E+03  0.16163527959E+03  0.12362898046E+03  0.32092465430E+03  0.80023509828E+02 0.  0.
        -11    1    1    2    0    0  0.29588943038E+03 -0.16228671192E+03  0.17091360465E+03  0.37828427423E+03  0.00000000000E+00 0.  1.
         11    1    1    2    0    0 -0.60987784588E+02  0.65143233565E+00 -0.29454258511E+03  0.30079107147E+03  0.00000000000E+00 0.  1.
        -15    1    3    3    0    0 -0.17853326254E+03  0.14551740445E+03  0.68182488517E+02  0.24021126181E+03  0.17770000000E+01 0.  1.
         15    1    3    3    0    0 -0.56368383253E+02  0.16117875137E+02  0.55446491945E+02  0.80713392491E+02  0.17770000000E+01 0. -1.
</event>
<event>
 7    1  0.3260141E-006  0.4086093E+03  0.7546771E-02  0.9631300E-01
        -11   -1    0    0    0    0  0.00000000000E+00  0.00000000000E+00  0.50000000000E+03  0.50000000000E+03  0.00000000000E+00 0. -1.
         11   -1    0    0    0    0 -0.00000000000E+00 -0.00000000000E+00 -0.50000000000E+03  0.50000000000E+03  0.00000000000E+00 0.  1.
         23    2    1    2    0    0  0.11182153402E+03 -0.10965957115E+03  0.34044624642E+03  0.38583465410E+03  0.91844741749E+02 0.  0.
        -11    1    1    2    0    0 -0.11873002093E+03 -0.12393563625E+03  0.31887224746E+02  0.17456704988E+03  0.00000000000E+00 0. -1.
         11    1    1    2    0    0  0.69084869011E+01  0.23359520740E+03 -0.37233347117E+03  0.43959829602E+03  0.00000000000E+00 0.  1.
        -15    1    3    3    0    0  0.58036452617E+02  0.42735657710E+00  0.12862404335E+03  0.14112304817E+03  0.17770000000E+01 0. -1.
         15    1    3    3    0    0  0.53785081408E+02 -0.11008692772E+03  0.21182220307E+03  0.24471160594E+03  0.17770000000E+01 0.  1.
</event>
<event>
 7    1  0.3260141E-006  0.5222273E+03  0.7546771E-02  0.9351403E-01
        -11   -1    0    0    0    0  0.00000000000E+00  0.00000000000E+00  0.50000000000E+03  0.50000000000E+03  0.00000000000E+00 0. -1.
         11   -1    0    0    0    0 -0.00000000000E+00 -0.00000000000E+00 -0.50000000000E+03  0.50000000000E+03  0.00000000000E+00 0.  1.
         23    2    1    2    0    0  0.21391156092E+02  0.82083040883E+02  0.14151420853E+03  0.18427041440E+03  0.82061606421E+02 0.  0.
        -11    1    1    2    0    0  0.91942199998E+02 -0.49249878776E+02  0.32145908959E+03  0.33795689811E+03  0.00000000000E+00 0. -1.
         11    1    1    2    0    0 -0.11333335609E+03 -0.32833162107E+02 -0.46297329812E+03  0.47777268749E+03  0.00000000000E+00 0.  1.
        -15    1    3    3    0    0 -0.92490124765E+01  0.36381572317E+02  0.11900084856E+03  0.12479392102E+03  0.17770000000E+01 0.  1.
         15    1    3    3    0    0  0.30640168569E+02  0.45701468566E+02  0.22513359968E+02  0.59476493382E+02  0.17770000000E+01 0. -1.
</event>
<event>
 7    1  0.4134947E-006  0.5226901E+03  0.7546771E-02  0.9350423E-01
        -11   -1    0    0    0    0  0.00000000000E+00  0.00000000000E+00  0.50000000000E+03  0.50000000000E+03  0.00000000000E+00 0. -1.
         11   -1    0    0    0    0 -0.00000000000E+00 -0.00000000000E+00 -0.50000000000E+03  0.50000000000E+03  0.00000000000E+00 0.  1.
         23    2    1    2    0    0 -0.97474874901E-01  0.37265860617E+02 -0.25498602010E+03  0.27011003706E+03  0.80949415110E+02 0.  0.
        -11    1    1    2    0    0 -0.16691804491E+03 -0.65837948082E+02  0.44229902694E+03  0.47730985571E+03  0.00000000000E+00 0. -1.
         11    1    1    2    0    0  0.16701551979E+03  0.28572087465E+02 -0.18731300684E+03  0.25258010722E+03  0.00000000000E+00 0.  1.
        -15    1    3    3    0    0 -0.24628712246E+02  0.52939113180E+02 -0.19220059614E+03  0.20088143283E+03  0.17770000000E+01 0.  1.
         15    1    3    3    0    0  0.24531237371E+02 -0.15673252563E+02 -0.62785423965E+02  0.69228604235E+02  0.17770000000E+01 0. -1.
</event>
<event>
 7    1  0.3260141E-006  0.4786180E+03  0.7546771E-02  0.9448967E-01
        -11   -1    0    0    0    0  0.00000000000E+00  0.00000000000E+00  0.50000000000E+03  0.50000000000E+03  0.00000000000E+00 0. -1.
         11   -1    0    0    0    0 -0.00000000000E+00 -0.00000000000E+00 -0.50000000000E+03  0.50000000000E+03  0.00000000000E+00 0.  1.
         23    2    1    2    0    0 -0.11087296034E+03  0.52350066257E+02 -0.43887711577E+03  0.46451372451E+03  0.90147294728E+02 0.  0.
        -11    1    1    2    0    0  0.14016398276E+03 -0.89000958338E+02  0.45619873323E+03  0.48547337399E+03  0.00000000000E+00 0. -1.
         11    1    1    2    0    0 -0.29291022415E+02  0.36650892080E+02 -0.17321617468E+02  0.50012901497E+02  0.00000000000E+00 0.  1.
        -15    1    3    3    0    0 -0.61543484347E+02  0.74601934094E+02 -0.30951590808E+03  0.32427812773E+03  0.17770000000E+01 0.  1.
         15    1    3    3    0    0 -0.49329475997E+02 -0.22251867837E+02 -0.12936120768E+03  0.14023559679E+03  0.17770000000E+01 0. -1.
</event>
<event>
 7    1  0.3260141E-006  0.4204825E+03  0.7546771E-02  0.9597745E-01
        -11   -1    0    0    0    0  0.00000000000E+00  0.00000000000E+00  0.50000000000E+03  0.50000000000E+03  0.00000000000E+00 0.  1.
         11   -1    0    0    0    0 -0.00000000000E+00 -0.00000000000E+00 -0.50000000000E+03  0.50000000000E+03  0.00000000000E+00 0.  1.
         23    2    1    2    0    0  0.15610388763E+03 -0.11133665233E+03  0.37487432113E+03  0.43162438204E+03  0.94892447787E+02 0.  0.
        -11    1    1    2    0    0 -0.14906453665E+03  0.32045295261E+02  0.30303366892E+02  0.15545234344E+03  0.00000000000E+00 0.  1.
         11    1    1    2    0    0 -0.70393509771E+01  0.79291357064E+02 -0.40517768802E+03  0.41292327452E+03  0.00000000000E+00 0.  1.
        -15    1    3    3    0    0  0.11045049970E+03 -0.11794377989E+03  0.32900047944E+03  0.36654402368E+03  0.17770000000E+01 0.  1.
         15    1    3    3    0    0  0.45653387925E+02  0.66071275604E+01  0.45873841696E+02  0.65080358362E+02  0.17770000000E+01 0. -1.
</event>
<event>
 7    1  0.3260141E-006  0.5298504E+03  0.7546771E-02  0.9335388E-01
        -11   -1    0    0    0    0  0.00000000000E+00  0.00000000000E+00  0.50000000000E+03  0.50000000000E+03  0.00000000000E+00 0.  1.
         11   -1    0    0    0    0 -0.00000000000E+00 -0.00000000000E+00 -0.50000000000E+03  0.50000000000E+03  0.00000000000E+00 0. -1.
         23    2    1    2    0    0 -0.50780899443E+02  0.93160030922E+02  0.18144499995E+03  0.22834592427E+03  0.89230499357E+02 0.  0.
        -11    1    1    2    0    0  0.15646564207E+03  0.57154126976E+02  0.25131022192E+03  0.30150442621E+03  0.00000000000E+00 0.  1.
         11    1    1    2    0    0 -0.10568474263E+03 -0.15031415790E+03 -0.43275522187E+03  0.47014964952E+03  0.00000000000E+00 0. -1.
        -15    1    3    3    0    0 -0.44552822636E+02  0.31506486817E+02  0.14833885210E+03  0.15806702847E+03  0.17770000000E+01 0.  1.
         15    1    3    3    0    0 -0.62280768073E+01  0.61653544105E+02  0.33106147848E+02  0.70278895806E+02  0.17770000000E+01 0. -1.
</event>
<event>
 7    1  0.3260141E-006  0.5279602E+03  0.7546771E-02  0.9339332E-01
        -11   -1    0    0    0    0  0.00000000000E+00  0.00000000000E+00  0.50000000000E+03  0.50000000000E+03  0.00000000000E+00 0.  1.
         11   -1    0    0    0    0 -0.00000000000E+00 -0.00000000000E+00 -0.50000000000E+03  0.50000000000E+03  0.00000000000E+00 0.  1.
         23    2    1    2    0    0  0.48928501563E+02  0.24131168299E+02  0.25653139693E+03  0.27819016025E+03  0.92763657225E+02 0.  0.
        -11    1    1    2    0    0  0.81268065222E+02 -0.15550106249E+03  0.17776386974E+03  0.24977003873E+03  0.00000000000E+00 0.  1.
         11    1    1    2    0    0 -0.13019656679E+03  0.13136989419E+03 -0.43429526667E+03  0.47203980102E+03  0.00000000000E+00 0.  1.
        -15    1    3    3    0    0  0.63711046229E+02  0.22623603293E+02  0.25420166698E+03  0.26304480619E+03  0.17770000000E+01 0. -1.
         15    1    3    3    0    0 -0.14782544666E+02  0.15075650056E+01  0.23297299461E+01  0.15145354062E+02  0.17770000000E+01 0.  1.
</event>
<event>
 7    1  0.3260141E-006  0.4104599E+03  0.7546771E-02  0.9625990E-01
        -11   -1    0    0    0    0  0.00000000000E+00  0.00000000000E+00  0.50000000000E+03  0.50000000000E+03  0.00000000000E+00 0.  1.
         11   -1    0    0    0    0 -0.00000000000E+00 -0.00000000000E+00 -0.50000000000E+03  0.50000000000E+03  0.00000000000E+00 0. -1.
         23    2    1    2    0    0  0.15206990397E+03  0.23587277220E+03  0.30808639350E+03  0.42817328134E+03  0.98254326312E+02 0.  0.
        -11    1    1    2    0    0  0.14357167238E+02 -0.16543254087E+03  0.47703013962E+02  0.17277045862E+03  0.00000000000E+00 0.  1.
         11    1    1    2    0    0 -0.16642707121E+03 -0.70440231330E+02 -0.35578940746E+03  0.39905626004E+03  0.00000000000E+00 0. -1.
        -15    1    3    3    0    0 -0.68364287218E+01  0.15501508317E+02  0.52352897329E+02  0.55054673785E+02  0.17770000000E+01 0.  1.
         15    1    3    3    0    0  0.15890633269E+03  0.22037126388E+03  0.25573349617E+03  0.37311860756E+03  0.17770000000E+01 0. -1.
</event>
<event>
 7    1  0.3260141E-006  0.5090706E+03  0.7546771E-02  0.9379739E-01
        -11   -1    0    0    0    0  0.00000000000E+00  0.00000000000E+00  0.50000000000E+03  0.50000000000E+03  0.00000000000E+00 0.  1.
         11   -1    0    0    0    0 -0.00000000000E+00 -0.00000000000E+00 -0.50000000000E+03  0.50000000000E+03  0.00000000000E+00 0. -1.
         23    2    1    2    0    0  0.14780090313E+02  0.50641657191E+02 -0.21334947027E+03  0.23790326016E+03  0.91087519555E+02 0.  0.
        -11    1    1    2    0    0 -0.36951485487E+02 -0.11320328914E+03  0.47626807945E+03  0.49092940476E+03  0.00000000000E+00 0.  1.
         11    1    1    2    0    0  0.22171395173E+02  0.62561631952E+02 -0.26291860919E+03  0.27116733508E+03  0.00000000000E+00 0. -1.
        -15    1    3    3    0    0 -0.35134903907E+02  0.72588965662E+01 -0.10476993528E+03  0.11075671591E+03  0.17770000000E+01 0. -1.
         15    1    3    3    0    0  0.49914994220E+02  0.43382760624E+02 -0.10857953499E+03  0.12714654425E+03  0.17770000000E+01 0.  1.
</event>
<event>
 7    1  0.3260141E-006  0.5224727E+03  0.7546771E-02  0.9350883E-01
        -11   -1    0    0    0    0  0.00000000000E+00  0.00000000000E+00  0.50000000000E+03  0.50000000000E+03  0.00000000000E+00 0.  1.
         11   -1    0    0    0    0 -0.00000000000E+00 -0.00000000000E+00 -0.50000000000E+03  0.50000000000E+03  0.00000000000E+00 0. -1.
         23    2    1    2    0    0  0.11311638797E+03  0.11203751106E+03 -0.26589857626E+03  0.32304516137E+03  0.91150437828E+02 0.  0.
        -11    1    1    2    0    0 -0.83620897562E+02 -0.88566526952E+02  0.46173134512E+03  0.47752729688E+03  0.00000000000E+00 0.  1.
         11    1    1    2    0    0 -0.29495490403E+02 -0.23470984109E+02 -0.19583276886E+03  0.19942754175E+03  0.00000000000E+00 0. -1.
        -15    1    3    3    0    0  0.11234049048E+03  0.53076771420E+02 -0.17309891258E+03  0.21308195778E+03  0.17770000000E+01 0.  1.
         15    1    3    3    0    0  0.77589748645E+00  0.58960739642E+02 -0.92799663673E+02  0.10996320359E+03  0.17770000000E+01 0. -1.
</event>
<event>
 7    1  0.3260141E-006  0.4344415E+03  0.7546771E-02  0.9559777E-01
        -11   -1    0    0    0    0  0.00000000000E+00  0.00000000000E+00  0.50000000000E+03  0.50000000000E+03  0.00000000000E+00 0. -1.
         11   -1    0    0    0    0 -0.00000000000E+00 -0.00000000000E+00 -0.50000000000E+03  0.50000000000E+03  0.00000000000E+00 0.  1.
         23    2    1    2    0    0  0.78330566046E+02 -0.32169290909E+02  0.20529910898E+02  0.12675904384E+03  0.92064309581E+02 0.  0.
        -11    1    1    2    0    0 -0.11691525405E+03 -0.13194366109E+03  0.39078932068E+03  0.42871272373E+03  0.00000000000E+00 0. -1.
         11    1    1    2    0    0  0.38584688003E+02  0.16411295199E+03 -0.41131923158E+03  0.44452823243E+03  0.00000000000E+00 0.  1.
        -15    1    3    3    0    0  0.86283071134E+02 -0.44827121812E+02  0.37360137666E+02  0.10417858143E+03  0.17770000000E+01 0. -1.
         15    1    3    3    0    0 -0.79525050879E+01  0.12657830903E+02 -0.16830226768E+02  0.22580462404E+02  0.17770000000E+01 0.  1.
</event>
<event>
 7    1  0.3260141E-006  0.5224382E+03  0.7546771E-02  0.9350956E-01
        -11   -1    0    0    0    0  0.00000000000E+00  0.00000000000E+00  0.50000000000E+03  0.50000000000E+03  0.00000000000E+00 0.  1.
         11   -1    0    0    0    0 -0.00000000000E+00 -0.00000000000E+00 -0.50000000000E+03  0.50000000000E+03  0.00000000000E+00 0. -1.
         23    2    1    2    0    0 -0.39704747160E+02  0.29650484377E+02 -0.11082654221E+03  0.15133993868E+03  0.90363910997E+02 0.  0.
        -11    1    1    2    0    0  0.64659484777E+01 -0.25541880546E+03  0.40346585596E+03  0.47756179873E+03  0.00000000000E+00 0.  1.
         11    1    1    2    0    0  0.33238798683E+02  0.22576832109E+03 -0.29263931375E+03  0.37109826259E+03  0.00000000000E+00 0. -1.
        -15    1    3    3    0    0  0.24715862473E+02  0.27371885980E+02 -0.53832786553E+02  0.65278025681E+02  0.17770000000E+01 0.  1.
         15    1    3    3    0    0 -0.64420609633E+02  0.22785983970E+01 -0.56993755657E+02  0.86061912999E+02  0.17770000000E+01 0. -1.
</event>
<event>
 7    1  0.3260141E-006  0.3832211E+03  0.7546771E-02  0.9707319E-01
        -11   -1    0    0    0    0  0.00000000000E+00  0.00000000000E+00  0.50000000000E+03  0.50000000000E+03  0.00000000000E+00 0.  1.
         11   -1    0    0    0    0 -0.00000000000E+00 -0.00000000000E+00 -0.50000000000E+03  0.50000000000E+03  0.00000000000E+00 0. -1.
         23    2    1    2    0    0 -0.21668320285E+01 -0.89415910701E+02  0.31863470389E+03  0.34367395820E+03  0.92648878969E+02 0.  0.
        -11    1    1    2    0    0 -0.18030947545E+03 -0.11350781479E+03  0.28285213868E+02  0.21493158046E+03  0.00000000000E+00 0.  1.
         11    1    1    2    0    0  0.18247630748E+03  0.20292372549E+03 -0.34691991776E+03  0.44139446134E+03  0.00000000000E+00 0. -1.
        -15    1    3    3    0    0 -0.17926716276E+02  0.13463560076E+02  0.84508104752E+02  0.87449483156E+02  0.17770000000E+01 0. -1.
         15    1    3    3    0    0  0.15759884248E+02 -0.10287947078E+03  0.23412659914E+03  0.25622447504E+03  0.17770000000E+01 0.  1.
</event>
<event>
 7    1  0.3260141E-006  0.5137004E+03  0.7546771E-02  0.9369665E-01
        -11   -1    0    0    0    0  0.00000000000E+00  0.00000000000E+00  0.50000000000E+03  0.50000000000E+03  0.00000000000E+00 0.  1.
         11   -1    0    0    0    0 -0.00000000000E+00 -0.00000000000E+00 -0.50000000000E+03  0.50000000000E+03  0.00000000000E+00 0. -1.
         23    2    1    2    0    0  0.39635212644E+02  0.73374715903E+01  0.22715192279E+03  0.24862203875E+03  0.92682973383E+02 0.  0.
        -11    1    1    2    0    0  0.76614238622E+02 -0.87542152162E+02  0.23818726796E+03  0.26507837442E+03  0.00000000000E+00 0.  1.
         11    1    1    2    0    0 -0.11624945127E+03  0.80204680572E+02 -0.46533919075E+03  0.48629958683E+03  0.00000000000E+00 0. -1.
        -15    1    3    3    0    0 -0.24789115370E+02 -0.17074140969E+02  0.48155705642E+02  0.56816865855E+02  0.17770000000E+01 0.  1.
         15    1    3    3    0    0  0.64424328013E+02  0.24411612560E+02  0.17899621715E+03  0.19180517290E+03  0.17770000000E+01 0. -1.
</event>
<event>
 7    1  0.3260141E-006  0.5350105E+03  0.7546771E-02  0.9324708E-01
        -11   -1    0    0    0    0  0.00000000000E+00  0.00000000000E+00  0.50000000000E+03  0.50000000000E+03  0.00000000000E+00 0.  1.
         11   -1    0    0    0    0 -0.00000000000E+00 -0.00000000000E+00 -0.50000000000E+03  0.50000000000E+03  0.00000000000E+00 0.  1.
         23    2    1    2    0    0  0.12424825260E+02 -0.34616141089E+02  0.82184668382E+02  0.14316435424E+03  0.11130615032E+03 0.  0.
        -11    1    1    2    0    0 -0.10126450819E+03  0.62057951344E+02  0.37341354727E+03  0.39184610146E+03  0.00000000000E+00 0.  1.
         11    1    1    2    0    0  0.88839682925E+02 -0.27441810255E+02 -0.45559821565E+03  0.46498954431E+03  0.00000000000E+00 0.  1.
        -15    1    3    3    0    0  0.61237740062E+02 -0.11191522019E+02  0.52118123947E+02  0.81208174131E+02  0.17770000000E+01 0.  1.
         15    1    3    3    0    0 -0.48812914801E+02 -0.23424619069E+02  0.30066544435E+02  0.61956180105E+02  0.17770000000E+01 0. -1.
</event>
<event>
 7    1  0.3260141E-006  0.4618485E+03  0.7546771E-02  0.9489472E-01
        -11   -1    0    0    0    0  0.00000000000E+00  0.00000000000E+00  0.50000000000E+03  0.50000000000E+03  0.00000000000E+00 0. -1.
         11   -1    0    0    0    0 -0.00000000000E+00 -0.00000000000E+00 -0.50000000000E+03  0.50000000000E+03  0.00000000000E+00 0. -1.
         23    2    1    2    0    0 -0.46762905193E+02  0.36278659917E+02  0.41357917477E+03  0.42595292227E+03  0.82977392790E+02 0.  0.
        -11    1    1    2    0    0 -0.26820711958E+02  0.27719644988E+02  0.70435896435E+02  0.80305322457E+02  0.00000000000E+00 0. -1.
         11    1    1    2    0    0  0.73583617151E+02 -0.63998304905E+02 -0.48401507121E+03  0.49374175528E+03  0.00000000000E+00 0. -1.
        -15    1    3    3    0    0 -0.82157615098E+01  0.53641825533E+02  0.16244828011E+03  0.17128206451E+03  0.17770000000E+01 0.  1.
         15    1    3    3    0    0 -0.38547143683E+02 -0.17363165616E+02  0.25113089467E+03  0.25467085776E+03  0.17770000000E+01 0. -1.
</event>
<event>
 7    1  0.3260141E-006  0.3718067E+03  0.7546771E-02  0.9743579E-01
        -11   -1    0    0    0    0  0.00000000000E+00  0.00000000000E+00  0.50000000000E+03  0.50000000000E+03  0.00000000000E+00 0. -1.
         11   -1    0    0    0    0 -0.00000000000E+00 -0.00000000000E+00 -0.50000000000E+03  0.50000000000E+03  0.00000000000E+00 0. -1.
         23    2    1    2    0    0  0.77100764779E+02  0.24090151286E+03  0.24067336337E+03  0.36706733802E+03  0.11329914376E+03 0.  0.
        -11    1    1    2    0    0 -0.79295374567E+02 -0.16603211807E+03  0.14860621728E+03  0.23651263914E+03  0.00000000000E+00 0. -1.
         11    1    1    2    0    0  0.21946097882E+01 -0.74869394789E+02 -0.38927958065E+03  0.39642002283E+03  0.00000000000E+00 0. -1.
        -15    1    3    3    0    0  0.15828246390E+02  0.76458638446E+02  0.12318084045E+02  0.79065477298E+02  0.17770000000E+01 0.  1.
         15    1    3    3    0    0  0.61272518389E+02  0.16444287442E+03  0.22835527932E+03  0.28800186072E+03  0.17770000000E+01 0. -1.
</event>
<event>
 7    1  0.6665915E-006  0.5094201E+03  0.7546771E-02  0.9378975E-01
        -11   -1    0    0    0    0  0.00000000000E+00  0.00000000000E+00  0.50000000000E+03  0.50000000000E+03  0.00000000000E+00 0.  1.
         11   -1    0    0    0    0 -0.00000000000E+00 -0.00000000000E+00 -0.50000000000E+03  0.50000000000E+03  0.00000000000E+00 0.  1.
         23    2    1    2    0    0  0.49718267033E+02  0.28581049499E+02 -0.31579757285E+03  0.33350345574E+03  0.90596167171E+02 0.  0.
        -11    1    1    2    0    0 -0.30173459314E+02 -0.78715351339E+02  0.48328258796E+03  0.49057986507E+03  0.00000000000E+00 0.  1.
         11    1    1    2    0    0 -0.19544807719E+02  0.50134301840E+02 -0.16748501511E+03  0.17591667919E+03  0.00000000000E+00 0.  1.
        -15    1    3    3    0    0  0.73158192139E+02  0.33179157070E+02 -0.20582591878E+03  0.22095348857E+03  0.17770000000E+01 0.  1.
         15    1    3    3    0    0 -0.23439925105E+02 -0.45981075708E+01 -0.10997165407E+03  0.11254996717E+03  0.17770000000E+01 0. -1.
</event>
<event>
 7    1  0.3260141E-006  0.4369793E+03  0.7546771E-02  0.9553037E-01
        -11   -1    0    0    0    0  0.00000000000E+00  0.00000000000E+00  0.50000000000E+03  0.50000000000E+03  0.00000000000E+00 0. -1.
         11   -1    0    0    0    0 -0.00000000000E+00 -0.00000000000E+00 -0.50000000000E+03  0.50000000000E+03  0.00000000000E+00 0.  1.
         23    2    1    2    0    0 -0.26481458167E+03  0.12252584988E+03  0.35004183537E+03  0.46469091394E+03  0.90934110438E+02 0.  0.
        -11    1    1    2    0    0  0.95007391626E+02 -0.81051473149E+02  0.19608566279E+02  0.12641298048E+03  0.00000000000E+00 0. -1.
         11    1    1    2    0    0  0.16980719004E+03 -0.41474376732E+02 -0.36965040165E+03  0.40889610557E+03  0.00000000000E+00 0.  1.
        -15    1    3    3    0    0 -0.20750578205E+03  0.66688000762E+02  0.29807362558E+03  0.36926546417E+03  0.17770000000E+01 0. -1.
         15    1    3    3    0    0 -0.57308799615E+02  0.55837849119E+02  0.51968209787E+02  0.95425449776E+02  0.17770000000E+01 0.  1.
</event>
<event>
 7    1  0.3260141E-006  0.3424243E+03  0.7546771E-02  0.9843710E-01
        -11   -1    0    0    0    0  0.00000000000E+00  0.00000000000E+00  0.50000000000E+03  0.50000000000E+03  0.00000000000E+00 0.  1.
         11   -1    0    0    0    0 -0.00000000000E+00 -0.00000000000E+00 -0.50000000000E+03  0.50000000000E+03  0.00000000000E+00 0.  1.
         23    2    1    2    0    0 -0.45814506885E+02  0.13621520479E+03 -0.20893085596E+03  0.26971014773E+03  0.91858097941E+02 0.  0.
        -11    1    1    2    0    0  0.22748393030E+03  0.10215893961E+03  0.32434366478E+03  0.40912614237E+03  0.00000000000E+00 0.  1.
         11    1    1    2    0    0 -0.18166942341E+03 -0.23837414440E+03 -0.11541280882E+03  0.32116370991E+03  0.00000000000E+00 0.  1.
        -15    1    3    3    0    0  0.10860925448E+02  0.10170389413E+03 -0.14576479655E+03  0.17807912687E+03  0.17770000000E+01 0.  1.
         15    1    3    3    0    0 -0.56675432333E+02  0.34511310659E+02 -0.63166059408E+02  0.91631020859E+02  0.17770000000E+01 0. -1.
</event>
<event>
 7    1  0.3260141E-006  0.5151654E+03  0.7546771E-02  0.9366501E-01
        -11   -1    0    0    0    0  0.00000000000E+00  0.00000000000E+00  0.50000000000E+03  0.50000000000E+03  0.00000000000E+00 0.  1.
         11   -1    0    0    0    0 -0.00000000000E+00 -0.00000000000E+00 -0.50000000000E+03  0.50000000000E+03  0.00000000000E+00 0. -1.
         23    2    1    2    0    0 -0.19730342664E+02 -0.71772741302E+02 -0.14783185529E+03  0.18908408143E+03  0.91421658259E+02 0.  0.
        -11    1    1    2    0    0  0.88786270278E+02  0.10621389392E+03  0.46465060484E+03  0.48483458791E+03  0.00000000000E+00 0.  1.
         11    1    1    2    0    0 -0.69055927613E+02 -0.34441152619E+02 -0.31681874956E+03  0.32608133066E+03  0.00000000000E+00 0. -1.
        -15    1    3    3    0    0 -0.15428726042E+02  0.13803423541E+02 -0.32795200020E+01  0.21035519227E+02  0.17770000000E+01 0.  1.
         15    1    3    3    0    0 -0.43016166221E+01 -0.85576164843E+02 -0.14455233528E+03  0.16804856221E+03  0.17770000000E+01 0. -1.
</event>
<event>
 7    1  0.3260141E-006  0.5275847E+03  0.7546771E-02  0.9340118E-01
        -11   -1    0    0    0    0  0.00000000000E+00  0.00000000000E+00  0.50000000000E+03  0.50000000000E+03  0.00000000000E+00 0.  1.
         11   -1    0    0    0    0 -0.00000000000E+00 -0.00000000000E+00 -0.50000000000E+03  0.50000000000E+03  0.00000000000E+00 0. -1.
         23    2    1    2    0    0  0.19588083152E+03  0.12121329325E+03  0.40219766511E+03  0.47241530558E+03  0.91385428307E+02 0.  0.
        -11    1    1    2    0    0 -0.10312044594E+03 -0.14950872730E+03 -0.94034604778E+02  0.20452186388E+03  0.00000000000E+00 0.  1.
         11    1    1    2    0    0 -0.92760385575E+02  0.28295434046E+02 -0.30816306034E+03  0.32306283054E+03  0.00000000000E+00 0. -1.
        -15    1    3    3    0    0  0.26263570775E+02  0.32093491198E+02  0.22754986772E+02  0.47336185726E+02  0.17770000000E+01 0. -1.
         15    1    3    3    0    0  0.16961726074E+03  0.89119802053E+02  0.37944267834E+03  0.42507911985E+03  0.17770000000E+01 0.  1.
</event>
<event>
 7    1  0.3260141E-006  0.5181638E+03  0.7546771E-02  0.9360060E-01
        -11   -1    0    0    0    0  0.00000000000E+00  0.00000000000E+00  0.50000000000E+03  0.50000000000E+03  0.00000000000E+00 0.  1.
         11   -1    0    0    0    0 -0.00000000000E+00 -0.00000000000E+00 -0.50000000000E+03  0.50000000000E+03  0.00000000000E+00 0.  1.
         23    2    1    2    0    0  0.63940102309E+02 -0.44041315673E+00  0.30201058558E+03  0.32158494379E+03  0.90099676063E+02 0.  0.
        -11    1    1    2    0    0 -0.12425611432E+02  0.10550455951E+03  0.16540138866E+03  0.19657880676E+03  0.00000000000E+00 0.  1.
         11    1    1    2    0    0 -0.51514490877E+02 -0.10506414635E+03 -0.46741197424E+03  0.48183624945E+03  0.00000000000E+00 0.  1.
        -15    1    3    3    0    0 -0.12734815380E+02 -0.13881358480E+02  0.14844285256E+02  0.24049494169E+02  0.17770000000E+01 0. -1.
         15    1    3    3    0    0  0.76674917689E+02  0.13440945323E+02  0.28716630032E+03  0.29753544962E+03  0.17770000000E+01 0.  1.
</event>
<event>
 7    1  0.3260141E-006  0.5127521E+03  0.7546771E-02  0.9371719E-01
        -11   -1    0    0    0    0  0.00000000000E+00  0.00000000000E+00  0.50000000000E+03  0.50000000000E+03  0.00000000000E+00 0. -1.
         11   -1    0    0    0    0 -0.00000000000E+00 -0.00000000000E+00 -0.50000000000E+03  0.50000000000E+03  0.00000000000E+00 0. -1.
         23    2    1    2    0    0  0.14132908822E+03 -0.23891383925E+03 -0.23582990792E+03  0.37581875689E+03  0.92575692275E+02 0.  0.
        -11    1    1    2    0    0 -0.20961102712E+03  0.26395838640E+03  0.35185182920E+03  0.48724790626E+03  0.00000000000E+00 0. -1.
         11    1    1    2    0    0  0.68281938909E+02 -0.25044547151E+02 -0.11602192128E+03  0.13693333685E+03  0.00000000000E+00 0. -1.
        -15    1    3    3    0    0  0.60883071058E+02 -0.12112705677E+03 -0.17338920367E+03  0.22010335277E+03  0.17770000000E+01 0. -1.
         15    1    3    3    0    0  0.80446017157E+02 -0.11778678248E+03 -0.62440704248E+02  0.15571540411E+03  0.17770000000E+01 0.  1.
</event>
<event>
 7    1  0.3260141E-006  0.3587214E+03  0.7546771E-02  0.9786901E-01
        -11   -1    0    0    0    0  0.00000000000E+00  0.00000000000E+00  0.50000000000E+03  0.50000000000E+03  0.00000000000E+00 0.  1.
         11   -1    0    0    0    0 -0.00000000000E+00 -0.00000000000E+00 -0.50000000000E+03  0.50000000000E+03  0.00000000000E+00 0. -1.
         23    2    1    2    0    0 -0.26009283859E+02  0.79175226980E+02  0.34789392628E+03  0.37029462137E+03  0.95617588643E+02 0.  0.
        -11    1    1    2    0    0 -0.23310643566E+03 -0.60768675738E+02 -0.73515242618E+02  0.25186491060E+03  0.00000000000E+00 0.  1.
         11    1    1    2    0    0  0.25911571952E+03 -0.18406551241E+02 -0.27437868366E+03  0.37784046803E+03  0.00000000000E+00 0. -1.
        -15    1    3    3    0    0  0.11121516331E+02  0.87820988570E+02  0.23519515959E+03  0.25130884382E+03  0.17770000000E+01 0.  1.
         15    1    3    3    0    0 -0.37130800189E+02 -0.86457615905E+01  0.11269876670E+03  0.11898577755E+03  0.17770000000E+01 0. -1.
</event>
<event>
 7    1  0.3260141E-006  0.5184226E+03  0.7546771E-02  0.9359506E-01
        -11   -1    0    0    0    0  0.00000000000E+00  0.00000000000E+00  0.50000000000E+03  0.50000000000E+03  0.00000000000E+00 0.  1.
         11   -1    0    0    0    0 -0.00000000000E+00 -0.00000000000E+00 -0.50000000000E+03  0.50000000000E+03  0.00000000000E+00 0. -1.
         23    2    1    2    0    0  0.37225256036E+02 -0.27798447647E+02  0.31219222421E+03  0.32899400117E+03  0.92814840230E+02 0.  0.
        -11    1    1    2    0    0  0.11830421986E+03  0.35963743615E+02  0.14350580811E+03  0.18942860464E+03  0.00000000000E+00 0.  1.
         11    1    1    2    0    0 -0.15552947590E+03 -0.81652959680E+01 -0.45569803233E+03  0.48157739419E+03  0.00000000000E+00 0. -1.
        -15    1    3    3    0    0  0.58172081713E+02  0.10042682606E+02  0.20652628684E+03  0.21480482176E+03  0.17770000000E+01 0.  1.
         15    1    3    3    0    0 -0.20946825677E+02 -0.37841130253E+02  0.10566593737E+03  0.11418917941E+03  0.17770000000E+01 0. -1.
</event>
<event>
 7    1  0.3260141E-006  0.4558750E+03  0.7546771E-02  0.9504344E-01
        -11   -1    0    0    0    0  0.00000000000E+00  0.00000000000E+00  0.50000000000E+03  0.50000000000E+03  0.00000000000E+00 0.  1.
         11   -1    0    0    0    0 -0.00000000000E+00 -0.00000000000E+00 -0.50000000000E+03  0.50000000000E+03  0.00000000000E+00 0. -1.
         23    2    1    2    0    0  0.11840843042E+03 -0.38903515635E+02  0.40070427597E+03  0.43036477111E+03  0.95477115078E+02 0.  0.
        -11    1    1    2    0    0  0.29527459073E+01 -0.82847995405E+02  0.43290049224E+02  0.93522924531E+02  0.00000000000E+00 0.  1.
         11    1    1    2    0    0 -0.12136117633E+03  0.12175151104E+03 -0.44399432519E+03  0.47611230436E+03  0.00000000000E+00 0. -1.
        -15    1    3    3    0    0  0.82987015516E+02 -0.40071713705E+02  0.37598581757E+03  0.38711894778E+03  0.17770000000E+01 0.  1.
         15    1    3    3    0    0  0.35421414908E+02  0.11681980701E+01  0.24718458398E+02  0.43245823329E+02  0.17770000000E+01 0. -1.
</event>
<event>
 7    1  0.3260141E-006  0.5416281E+03  0.7546771E-02  0.9311197E-01
        -11   -1    0    0    0    0  0.00000000000E+00  0.00000000000E+00  0.50000000000E+03  0.50000000000E+03  0.00000000000E+00 0. -1.
         11   -1    0    0    0    0 -0.00000000000E+00 -0.00000000000E+00 -0.50000000000E+03  0.50000000000E+03  0.00000000000E+00 0.  1.
         23    2    1    2    0    0  0.17448647302E+03 -0.13128711481E+03 -0.18233090995E+03  0.29892927420E+03  0.91827634554E+02 0.  0.
        -11    1    1    2    0    0 -0.23504963086E+03  0.26369692088E+02  0.39263350258E+03  0.45837185447E+03  0.00000000000E+00 0. -1.
         11    1    1    2    0    0  0.60563157834E+02  0.10491742272E+03 -0.21030259263E+03  0.24269887133E+03  0.00000000000E+00 0.  1.
        -15    1    3    3    0    0  0.12519519976E+03 -0.13863217259E+03 -0.13865177298E+03  0.23263746302E+03  0.17770000000E+01 0.  1.
         15    1    3    3    0    0  0.49291273263E+02  0.73450577888E+01 -0.43679136969E+02  0.66291811177E+02  0.17770000000E+01 0. -1.
</event>
<event>
 7    1  0.3260141E-006  0.3941104E+03  0.7546771E-02  0.9673965E-01
        -11   -1    0    0    0    0  0.00000000000E+00  0.00000000000E+00  0.50000000000E+03  0.50000000000E+03  0.00000000000E+00 0. -1.
         11   -1    0    0    0    0 -0.00000000000E+00 -0.00000000000E+00 -0.50000000000E+03  0.50000000000E+03  0.00000000000E+00 0. -1.
         23    2    1    2    0    0  0.10618591018E+03 -0.66537510234E+02  0.11566584984E+03  0.19354274383E+03  0.91528777350E+02 0.  0.
        -11    1    1    2    0    0 -0.16092214985E+03 -0.35982987486E+01  0.32192020328E+03  0.35991874548E+03  0.00000000000E+00 0. -1.
         11    1    1    2    0    0  0.54736239670E+02  0.70135808982E+02 -0.43758605313E+03  0.44653851068E+03  0.00000000000E+00 0. -1.
        -15    1    3    3    0    0  0.34630984279E+02 -0.49879287261E+02  0.10210807498E+03  0.11881273111E+03  0.17770000000E+01 0.  1.
         15    1    3    3    0    0  0.71554925899E+02 -0.16658222972E+02  0.13557774862E+02  0.74730012721E+02  0.17770000000E+01 0. -1.
</event>
<event>
 7    1  0.3260141E-006  0.3799044E+03  0.7546771E-02  0.9717714E-01
        -11   -1    0    0    0    0  0.00000000000E+00  0.00000000000E+00  0.50000000000E+03  0.50000000000E+03  0.00000000000E+00 0. -1.
         11   -1    0    0    0    0 -0.00000000000E+00 -0.00000000000E+00 -0.50000000000E+03  0.50000000000E+03  0.00000000000E+00 0. -1.
         23    2    1    2    0    0  0.36732937087E+01  0.20673459822E+02  0.31834782406E+03  0.33269843895E+03  0.94350565262E+02 0.  0.
        -11    1    1    2    0    0 -0.13579126676E+03  0.15921884777E+03  0.68921735507E+02  0.22031821359E+03  0.00000000000E+00 0. -1.
         11    1    1    2    0    0  0.13211797305E+03 -0.17989230759E+03 -0.38726955957E+03  0.44698334746E+03  0.00000000000E+00 0. -1.
        -15    1    3    3    0    0 -0.77622114563E+01 -0.26055062210E+02  0.30682388516E+02  0.41032729467E+02  0.17770000000E+01 0. -1.
         15    1    3    3    0    0  0.11435505165E+02  0.46728522032E+02  0.28766543555E+03  0.29166570948E+03  0.17770000000E+01 0.  1.
</event>
<event>
 7    1  0.3260141E-006  0.3842683E+03  0.7546771E-02  0.9704060E-01
        -11   -1    0    0    0    0  0.00000000000E+00  0.00000000000E+00  0.50000000000E+03  0.50000000000E+03  0.00000000000E+00 0. -1.
         11   -1    0    0    0    0 -0.00000000000E+00 -0.00000000000E+00 -0.50000000000E+03  0.50000000000E+03  0.00000000000E+00 0. -1.
         23    2    1    2    0    0 -0.43436817489E+02  0.28165311988E+00  0.32528195237E+03  0.34163585471E+03  0.94973007965E+02 0.  0.
        -11    1    1    2    0    0  0.30845337228E+02 -0.19877232518E+03  0.72348381749E+02  0.21376660270E+03  0.00000000000E+00 0. -1.
         11    1    1    2    0    0  0.12591480261E+02  0.19849067206E+03 -0.39763033412E+03  0.44459754260E+03  0.00000000000E+00 0. -1.
        -15    1    3    3    0    0  0.33941497584E+01 -0.31914451420E+02  0.43009631854E+02  0.53693934696E+02  0.17770000000E+01 0.  1.
         15    1    3    3    0    0 -0.46830967247E+02  0.32196104540E+02  0.28227232052E+03  0.28794192001E+03  0.17770000000E+01 0. -1.
</event>
<event>
 7    1  0.3260141E-006  0.3093257E+03  0.7546771E-02  0.9970289E-01
        -11   -1    0    0    0    0  0.00000000000E+00  0.00000000000E+00  0.50000000000E+03  0.50000000000E+03  0.00000000000E+00 0. -1.
         11   -1    0    0    0    0 -0.00000000000E+00 -0.00000000000E+00 -0.50000000000E+03  0.50000000000E+03  0.00000000000E+00 0.  1.
         23    2    1    2    0    0 -0.23555078499E+03  0.92198526242E+02  0.19537144230E+03  0.32926674086E+03  0.79131824284E+02 0.  0.
        -11    1    1    2    0    0  0.23748757870E+03 -0.25415631589E+03  0.74738699720E+02  0.35578315893E+03  0.00000000000E+00 0. -1.
         11    1    1    2    0    0 -0.19367937031E+01  0.16195778965E+03 -0.27011014202E+03  0.31495010021E+03  0.00000000000E+00 0.  1.
        -15    1    3    3    0    0 -0.14909163913E+03  0.77771322784E+02  0.16729640244E+03  0.23720864129E+03  0.17770000000E+01 0.  1.
         15    1    3    3    0    0 -0.86459145863E+02  0.14427203458E+02  0.28075039866E+02  0.92058099564E+02  0.17770000000E+01 0. -1.
</event>
<event>
 7    1  0.3260141E-006  0.4340916E+03  0.7546771E-02  0.9560710E-01
        -11   -1    0    0    0    0  0.00000000000E+00  0.00000000000E+00  0.50000000000E+03  0.50000000000E+03  0.00000000000E+00 0. -1.
         11   -1    0    0    0    0 -0.00000000000E+00 -0.00000000000E+00 -0.50000000000E+03  0.50000000000E+03  0.00000000000E+00 0. -1.
         23    2    1    2    0    0  0.27509048792E+03 -0.17587715653E+03  0.31152096487E+03  0.46040510107E+03  0.91214005514E+02 0.  0.
        -11    1    1    2    0    0 -0.29814160669E+03  0.20752058788E+03 -0.18598799969E+03  0.40809894396E+03  0.00000000000E+00 0. -1.
         11    1    1    2    0    0  0.23051118771E+02 -0.31643431343E+02 -0.12553296519E+03  0.13149595497E+03  0.00000000000E+00 0. -1.
        -15    1    3    3    0    0  0.84204301031E+01 -0.37656664551E+02  0.36838840217E+02  0.53377766024E+02  0.17770000000E+01 0.  1.
         15    1    3    3    0    0  0.26667005782E+03 -0.13822049198E+03  0.27468212466E+03  0.40702733505E+03  0.17770000000E+01 0. -1.
</event>
<event>
 7    1  0.3260141E-006  0.5150102E+03  0.7546771E-02  0.9366836E-01
        -11   -1    0    0    0    0  0.00000000000E+00  0.00000000000E+00  0.50000000000E+03  0.50000000000E+03  0.00000000000E+00 0.  1.
         11   -1    0    0    0    0 -0.00000000000E+00 -0.00000000000E+00 -0.50000000000E+03  0.50000000000E+03  0.00000000000E+00 0. -1.
         23    2    1    2    0    0 -0.42753884152E+02  0.40997996980E+02  0.22341679878E+03  0.24816884266E+03  0.90354734937E+02 0.  0.
        -11    1    1    2    0    0 -0.19934858500E+02  0.15696064116E+03  0.21487264253E+03  0.26684132731E+03  0.00000000000E+00 0.  1.
         11    1    1    2    0    0  0.62688742652E+02 -0.19795863814E+03 -0.43828944130E+03  0.48498983002E+03  0.00000000000E+00 0. -1.
        -15    1    3    3    0    0 -0.16942410208E+02 -0.79658173379E+01  0.85993650990E+00  0.18825427733E+02  0.17770000000E+01 0. -1.
         15    1    3    3    0    0 -0.25811473944E+02  0.48963814318E+02  0.22255686227E+03  0.22934341493E+03  0.17770000000E+01 0.  1.
</event>
<event>
 7    1  0.3260141E-006  0.4277267E+03  0.7546771E-02  0.9577848E-01
        -11   -1    0    0    0    0  0.00000000000E+00  0.00000000000E+00  0.50000000000E+03  0.50000000000E+03  0.00000000000E+00 0. -1.
         11   -1    0    0    0    0 -0.00000000000E+00 -0.00000000000E+00 -0.50000000000E+03  0.50000000000E+03  0.00000000000E+00 0.  1.
         23    2    1    2    0    0 -0.93912282649E+01 -0.40830271073E+02  0.42818151622E+03  0.43963943200E+03  0.90488193330E+02 0.  0.
        -11    1    1    2    0    0 -0.13430544634E+03  0.30698525227E+02 -0.35760519142E+02  0.14233470096E+03  0.00000000000E+00 0. -1.
         11    1    1    2    0    0  0.14369667461E+03  0.10131745846E+02 -0.39242099708E+03  0.41802586704E+03  0.00000000000E+00 0.  1.
        -15    1    3    3    0    0  0.13072831013E+02  0.25506154226E+02  0.15358335118E+03  0.15624489209E+03  0.17770000000E+01 0.  1.
         15    1    3    3    0    0 -0.22464059278E+02 -0.66336425299E+02  0.27459816504E+03  0.28339453991E+03  0.17770000000E+01 0. -1.
</event>
<event>
 7    1  0.3260141E-006  0.4007380E+03  0.7546771E-02  0.9654223E-01
        -11   -1    0    0    0    0  0.00000000000E+00  0.00000000000E+00  0.50000000000E+03  0.50000000000E+03  0.00000000000E+00 0. -1.
         11   -1    0    0    0    0 -0.00000000000E+00 -0.00000000000E+00 -0.50000000000E+03  0.50000000000E+03  0.00000000000E+00 0.  1.
         23    2    1    2    0    0 -0.19736020600E+03  0.88377188275E+02 -0.28407441566E+03  0.36956623299E+03  0.95495280560E+02 0.  0.
        -11    1    1    2    0    0  0.80807884660E+02 -0.18936051661E+03  0.39160788378E+03  0.44242971658E+03  0.00000000000E+00 0. -1.
         11    1    1    2    0    0  0.11655232134E+03  0.10098332833E+03 -0.10753346812E+03  0.18800405043E+03  0.00000000000E+00 0.  1.
        -15    1    3    3    0    0 -0.11866724791E+02  0.43597302780E+02 -0.62507885018E+02  0.77148800285E+02  0.17770000000E+01 0. -1.
         15    1    3    3    0    0 -0.18549348121E+03  0.44779885495E+02 -0.22156653064E+03  0.29241743270E+03  0.17770000000E+01 0.  1.
</event>
<event>
 7    1  0.3260141E-006  0.3729800E+03  0.7546771E-02  0.9739788E-01
        -11   -1    0    0    0    0  0.00000000000E+00  0.00000000000E+00  0.50000000000E+03  0.50000000000E+03  0.00000000000E+00 0.  1.
         11   -1    0    0    0    0 -0.00000000000E+00 -0.00000000000E+00 -0.50000000000E+03  0.50000000000E+03  0.00000000000E+00 0.  1.
         23    2    1    2    0    0 -0.17111680480E+03 -0.83343811245E+02 -0.79524783070E+02  0.22604410972E+03  0.92436987511E+02 0.  0.
        -11    1    1    2    0    0  0.94836813611E+02  0.83875305711E+02  0.41294678051E+03  0.43191912629E+03  0.00000000000E+00 0.  1.
         11    1    1    2    0    0  0.76279991189E+02 -0.53149446599E+00 -0.33342199744E+03  0.34203676399E+03  0.00000000000E+00 0.  1.
        -15    1    3    3    0    0 -0.36780301679E+02 -0.51950725390E+02  0.56098340649E+01  0.63924145887E+02  0.17770000000E+01 0.  1.
         15    1    3    3    0    0 -0.13433650312E+03 -0.31393085855E+02 -0.85134617135E+02  0.16211996384E+03  0.17770000000E+01 0. -1.
</event>
<event>
 7    1  0.3260141E-006  0.5383919E+03  0.7546771E-02  0.9317779E-01
        -11   -1    0    0    0    0  0.00000000000E+00  0.00000000000E+00  0.50000000000E+03  0.50000000000E+03  0.00000000000E+00 0.  1.
         11   -1    0    0    0    0 -0.00000000000E+00 -0.00000000000E+00 -0.50000000000E+03  0.50000000000E+03  0.00000000000E+00 0. -1.
         23    2    1    2    0    0  0.99141178257E+01  0.15088313165E+02 -0.10268609813E+03  0.13923495913E+03  0.92282133524E+02 0.  0.
        -11    1    1    2    0    0  0.27429777015E+03  0.10392176484E+03  0.35643097798E+03  0.46160810433E+03  0.00000000000E+00 0.  1.
         11    1    1    2    0    0 -0.28421188798E+03 -0.11901007801E+03 -0.25374487985E+03  0.39915693654E+03  0.00000000000E+00 0. -1.
        -15    1    3    3    0    0  0.43638018949E+02 -0.27120295233E+00 -0.18873768348E+02  0.47578641316E+02  0.17770000000E+01 0.  1.
         15    1    3    3    0    0 -0.33723901123E+02  0.15359516117E+02 -0.83812329780E+02  0.91656317810E+02  0.17770000000E+01 0. -1.
</event>
<event>
 7    1  0.3260141E-006  0.5109204E+03  0.7546771E-02  0.9375701E-01
        -11   -1    0    0    0    0  0.00000000000E+00  0.00000000000E+00  0.50000000000E+03  0.50000000000E+03  0.00000000000E+00 0. -1.
         11   -1    0    0    0    0 -0.00000000000E+00 -0.00000000000E+00 -0.50000000000E+03  0.50000000000E+03  0.00000000000E+00 0.  1.
         23    2    1    2    0    0  0.51314209428E+02  0.76587208433E+02 -0.41651179982E+03  0.43275688929E+03  0.72785281846E+02 0.  0.
        -11    1    1    2    0    0 -0.74517422945E+02 -0.13376204533E+03  0.46449293481E+03  0.48907956161E+03  0.00000000000E+00 0. -1.
         11    1    1    2    0    0  0.23203213517E+02  0.57174836902E+02 -0.47981134997E+02  0.78163549100E+02  0.00000000000E+00 0.  1.
        -15    1    3    3    0    0  0.40579148598E+02  0.60270017548E+01 -0.96418640828E+02  0.10479839731E+03  0.17770000000E+01 0.  1.
         15    1    3    3    0    0  0.10735060830E+02  0.70560206678E+02 -0.32009315899E+03  0.32795849197E+03  0.17770000000E+01 0. -1.
</event>
<event>
 7    1  0.3260141E-006  0.5128377E+03  0.7546771E-02  0.9371534E-01
        -11   -1    0    0    0    0  0.00000000000E+00  0.00000000000E+00  0.50000000000E+03  0.50000000000E+03  0.00000000000E+00 0. -1.
         11   -1    0    0    0    0 -0.00000000000E+00 -0.00000000000E+00 -0.50000000000E+03  0.50000000000E+03  0.00000000000E+00 0.  1.
         23    2    1    2    0    0 -0.90284707014E+02 -0.87497087139E+02 -0.15350469431E+03  0.21831996887E+03  0.91065081423E+02 0.  0.
        -11    1    1    2    0    0  0.18220292547E+03  0.14950229391E+03  0.42635462851E+03  0.48716230476E+03  0.00000000000E+00 0. -1.
         11    1    1    2    0    0 -0.91918218454E+02 -0.62005206773E+02 -0.27284993420E+03  0.29451772636E+03  0.00000000000E+00 0.  1.
        -15    1    3    3    0    0 -0.42966440395E+02 -0.79368023606E+02 -0.47653125909E+02  0.10207534624E+03  0.17770000000E+01 0. -1.
         15    1    3    3    0    0 -0.47318266619E+02 -0.81290635333E+01 -0.10585156840E+03  0.11624462264E+03  0.17770000000E+01 0.  1.
</event>
<event>
 7    1  0.3260141E-006  0.3894830E+03  0.7546771E-02  0.9687996E-01
        -11   -1    0    0    0    0  0.00000000000E+00  0.00000000000E+00  0.50000000000E+03  0.50000000000E+03  0.00000000000E+00 0.  1.
         11   -1    0    0    0    0 -0.00000000000E+00 -0.00000000000E+00 -0.50000000000E+03  0.50000000000E+03  0.00000000000E+00 0. -1.
         23    2    1    2    0    0  0.59446781351E+02 -0.29972028469E+01 -0.31887982751E+03  0.33607417123E+03  0.87855569752E+02 0.  0.
        -11    1    1    2    0    0 -0.75532339794E+00  0.16488906979E+03  0.42894997205E+03  0.45955092685E+03  0.00000000000E+00 0.  1.
         11    1    1    2    0    0 -0.58691457954E+02 -0.16189186694E+03 -0.11007014454E+03  0.20437490192E+03  0.00000000000E+00 0. -1.
        -15    1    3    3    0    0  0.38619289713E+02  0.40375594914E+02 -0.20382570446E+03  0.21135210841E+03  0.17770000000E+01 0. -1.
         15    1    3    3    0    0  0.20827491638E+02 -0.43372797761E+02 -0.11505412305E+03  0.12472206282E+03  0.17770000000E+01 0.  1.
</event>
<event>
 7    1  0.3260141E-006  0.5151616E+03  0.7546771E-02  0.9366509E-01
        -11   -1    0    0    0    0  0.00000000000E+00  0.00000000000E+00  0.50000000000E+03  0.50000000000E+03  0.00000000000E+00 0.  1.
         11   -1    0    0    0    0 -0.00000000000E+00 -0.00000000000E+00 -0.50000000000E+03  0.50000000000E+03  0.00000000000E+00 0. -1.
         23    2    1    2    0    0 -0.10282628829E+02 -0.33221450467E+02  0.36906675486E+03  0.39001810877E+03  0.12122070120E+03 0.  0.
        -11    1    1    2    0    0 -0.37441422049E+02 -0.57062199152E+02  0.10489484113E+03  0.12514344711E+03  0.00000000000E+00 0.  1.
         11    1    1    2    0    0  0.47724050878E+02  0.90283649619E+02 -0.47396159600E+03  0.48483844412E+03  0.00000000000E+00 0. -1.
        -15    1    3    3    0    0 -0.38299219756E+02 -0.48447976956E+02  0.34376695097E+03  0.34927483593E+03  0.17770000000E+01 0.  1.
         15    1    3    3    0    0  0.28016590927E+02  0.15226526488E+02  0.25299803894E+02  0.40743272846E+02  0.17770000000E+01 0. -1.
</event>
<event>
 7    1  0.3260141E-006  0.5392148E+03  0.7546771E-02  0.9316101E-01
        -11   -1    0    0    0    0  0.00000000000E+00  0.00000000000E+00  0.50000000000E+03  0.50000000000E+03  0.00000000000E+00 0. -1.
         11   -1    0    0    0    0 -0.00000000000E+00 -0.00000000000E+00 -0.50000000000E+03  0.50000000000E+03  0.00000000000E+00 0. -1.
         23    2    1    2    0    0  0.66591912337E+02  0.13885417828E+03  0.25207536676E+03  0.30940694582E+03  0.92063575730E+02 0.  0.
        -11    1    1    2    0    0  0.20364360952E+03  0.10094915332E+03  0.33914404125E+02  0.22980782854E+03  0.00000000000E+00 0. -1.
         11    1    1    2    0    0 -0.27023552185E+03 -0.23980333159E+03 -0.28598977089E+03  0.46078522564E+03  0.00000000000E+00 0. -1.
        -15    1    3    3    0    0  0.60326040920E+02  0.46262832040E+02  0.62898533828E+02  0.98685683502E+02  0.17770000000E+01 0.  1.
         15    1    3    3    0    0  0.62658714163E+01  0.92591346236E+02  0.18917683294E+03  0.21072126231E+03  0.17770000000E+01 0. -1.
</event>
<event>
 7    1  0.3260141E-006  0.5157511E+03  0.7546771E-02  0.9365239E-01
        -11   -1    0    0    0    0  0.00000000000E+00  0.00000000000E+00  0.50000000000E+03  0.50000000000E+03  0.00000000000E+00 0. -1.
         11   -1    0    0    0    0 -0.00000000000E+00 -0.00000000000E+00 -0.50000000000E+03  0.50000000000E+03  0.00000000000E+00 0.  1.
         23    2    1    2    0    0  0.10022343089E+02  0.12815164516E+02  0.13661282114E+03  0.16471682178E+03  0.90575342540E+02 0.  0.
        -11    1    1    2    0    0  0.47847351607E+02 -0.68675275929E+02  0.34090967652E+03  0.35103428625E+03  0.00000000000E+00 0. -1.
         11    1    1    2    0    0 -0.57869694697E+02  0.55860111414E+02 -0.47752249765E+03  0.48424889197E+03  0.00000000000E+00 0.  1.
        -15    1    3    3    0    0  0.38415396644E+02  0.37062203604E+02  0.93293014417E+02  0.10749927397E+03  0.17770000000E+01 0.  1.
         15    1    3    3    0    0 -0.28393053555E+02 -0.24247039088E+02  0.43319806718E+02  0.57217547814E+02  0.17770000000E+01 0. -1.
</event>
<event>
 7    1  0.3260141E-006  0.5087187E+03  0.7546771E-02  0.9380510E-01
        -11   -1    0    0    0    0  0.00000000000E+00  0.00000000000E+00  0.50000000000E+03  0.50000000000E+03  0.00000000000E+00 0. -1.
         11   -1    0    0    0    0 -0.00000000000E+00 -0.00000000000E+00 -0.50000000000E+03  0.50000000000E+03  0.00000000000E+00 0. -1.
         23    2    1    2    0    0 -0.81092048211E+02  0.38877141427E+02 -0.29024556848E+03  0.31717209578E+03  0.90930170519E+02 0.  0.
        -11    1    1    2    0    0  0.11014112506E+03 -0.18102371581E+02  0.47843342010E+03  0.49128128476E+03  0.00000000000E+00 0. -1.
         11    1    1    2    0    0 -0.29049076845E+02 -0.20774769846E+02 -0.18818785162E+03  0.19154661946E+03  0.00000000000E+00 0. -1.
        -15    1    3    3    0    0 -0.34556126997E+02 -0.25660244340E+02 -0.14839149388E+03  0.15451785410E+03  0.17770000000E+01 0.  1.
         15    1    3    3    0    0 -0.46535921214E+02  0.64537385767E+02 -0.14185407460E+03  0.16265424168E+03  0.17770000000E+01 0. -1.
</event>
<event>
 7    1  0.3260141E-006  0.4723077E+03  0.7546771E-02  0.9463999E-01
        -11   -1    0    0    0    0  0.00000000000E+00  0.00000000000E+00  0.50000000000E+03  0.50000000000E+03  0.00000000000E+00 0. -1.
         11   -1    0    0    0    0 -0.00000000000E+00 -0.00000000000E+00 -0.50000000000E+03  0.50000000000E+03  0.00000000000E+00 0.  1.
         23    2    1    2    0    0  0.81169642051E+01  0.50328263858E+02  0.44816377585E+03  0.46025840987E+03  0.91587196795E+02 0.  0.
        -11    1    1    2    0    0 -0.49642670592E+01  0.59877071361E+02  0.16395241285E+02  0.62279302815E+02  0.00000000000E+00 0. -1.
         11    1    1    2    0    0 -0.31526971459E+01 -0.11020533522E+03 -0.46455901714E+03  0.47746228732E+03  0.00000000000E+00 0.  1.
        -15    1    3    3    0    0 -0.30203153668E+02  0.57240658600E+02  0.24642595545E+03  0.25478938898E+03  0.17770000000E+01 0.  1.
         15    1    3    3    0    0  0.38320117873E+02 -0.69123947417E+01  0.20173782040E+03  0.20546902088E+03  0.17770000000E+01 0. -1.
</event>
<event>
 7    1  0.3260141E-006  0.5168416E+03  0.7546771E-02  0.9362894E-01
        -11   -1    0    0    0    0  0.00000000000E+00  0.00000000000E+00  0.50000000000E+03  0.50000000000E+03  0.00000000000E+00 0. -1.
         11   -1    0    0    0    0 -0.00000000000E+00 -0.00000000000E+00 -0.50000000000E+03  0.50000000000E+03  0.00000000000E+00 0.  1.
         23    2    1    2    0    0  0.83229524882E+02 -0.66370132401E+02  0.30413853365E+03  0.33419873949E+03  0.88636344364E+02 0.  0.
        -11    1    1    2    0    0  0.49788610658E+02  0.71963103413E+02  0.16031479775E+03  0.18264289853E+03  0.00000000000E+00 0. -1.
         11    1    1    2    0    0 -0.13301813554E+03 -0.55929710120E+01 -0.46445333140E+03  0.48315836198E+03  0.00000000000E+00 0.  1.
        -15    1    3    3    0    0  0.27552763711E+02 -0.19497005754E+02  0.16731789038E+02  0.37714698924E+02  0.17770000000E+01 0.  1.
         15    1    3    3    0    0  0.55676761171E+02 -0.46873126647E+02  0.28740674461E+03  0.29648404057E+03  0.17770000000E+01 0. -1.
</event>
<event>
 7    1  0.3260141E-006  0.3565449E+03  0.7546771E-02  0.9794299E-01
        -11   -1    0    0    0    0  0.00000000000E+00  0.00000000000E+00  0.50000000000E+03  0.50000000000E+03  0.00000000000E+00 0.  1.
         11   -1    0    0    0    0 -0.00000000000E+00 -0.00000000000E+00 -0.50000000000E+03  0.50000000000E+03  0.00000000000E+00 0. -1.
         23    2    1    2    0    0 -0.31987996465E+02  0.31618254229E+02  0.22701181979E+03  0.25029710148E+03  0.95348449224E+02 0.  0.
        -11    1    1    2    0    0  0.24656734479E+03 -0.14055591485E+03  0.13556641495E+03  0.31453087858E+03  0.00000000000E+00 0.  1.
         11    1    1    2    0    0 -0.21457934832E+03  0.10893766062E+03 -0.36257823474E+03  0.43517201994E+03  0.00000000000E+00 0. -1.
        -15    1    3    3    0    0  0.31527088340E+02 -0.47845524877E+01  0.77204019436E+02  0.83549192622E+02  0.17770000000E+01 0. -1.
         15    1    3    3    0    0 -0.63515084805E+02  0.36402806717E+02  0.14980780035E+03  0.16674790886E+03  0.17770000000E+01 0.  1.
</event>
<event>
 7    1  0.3260141E-006  0.5142562E+03  0.7546771E-02  0.9368463E-01
        -11   -1    0    0    0    0  0.00000000000E+00  0.00000000000E+00  0.50000000000E+03  0.50000000000E+03  0.00000000000E+00 0. -1.
         11   -1    0    0    0    0 -0.00000000000E+00 -0.00000000000E+00 -0.50000000000E+03  0.50000000000E+03  0.00000000000E+00 0.  1.
         23    2    1    2    0    0  0.33323696103E+02  0.13918071580E+02  0.23635498920E+03  0.25682087015E+03  0.93750183935E+02 0.  0.
        -11    1    1    2    0    0  0.12704803916E+02 -0.88472295866E+02  0.24142119245E+03  0.25743533429E+03  0.00000000000E+00 0. -1.
         11    1    1    2    0    0 -0.46028500019E+02  0.74554224286E+02 -0.47777618165E+03  0.48574379556E+03  0.00000000000E+00 0.  1.
        -15    1    3    3    0    0 -0.29998237735E+02 -0.17910848608E+01  0.41092296464E+02  0.50939540731E+02  0.17770000000E+01 0.  1.
         15    1    3    3    0    0  0.63321933838E+02  0.15709156441E+02  0.19526269273E+03  0.20588132942E+03  0.17770000000E+01 0. -1.
</event>
<event>
 7    1  0.3260141E-006  0.4121992E+03  0.7546771E-02  0.9621027E-01
        -11   -1    0    0    0    0  0.00000000000E+00  0.00000000000E+00  0.50000000000E+03  0.50000000000E+03  0.00000000000E+00 0. -1.
         11   -1    0    0    0    0 -0.00000000000E+00 -0.00000000000E+00 -0.50000000000E+03  0.50000000000E+03  0.00000000000E+00 0.  1.
         23    2    1    2    0    0 -0.87530741997E+02 -0.87066906382E+02 -0.17324611849E+02  0.16622834232E+03  0.10995200150E+03 0.  0.
        -11    1    1    2    0    0  0.15443615288E+03  0.53409763966E+02  0.40615421170E+03  0.43779489705E+03  0.00000000000E+00 0. -1.
         11    1    1    2    0    0 -0.66905410887E+02  0.33657142416E+02 -0.38882959985E+03  0.39597676063E+03  0.00000000000E+00 0.  1.
        -15    1    3    3    0    0  0.85389965489E+01 -0.64181881046E+02  0.49950356096E+01  0.64964116452E+02  0.17770000000E+01 0. -1.
         15    1    3    3    0    0 -0.96069738546E+02 -0.22885025335E+02 -0.22319647458E+02  0.10126422587E+03  0.17770000000E+01 0.  1.
</event>
<event>
 7    1  0.3260141E-006  0.4545697E+03  0.7546771E-02  0.9507627E-01
        -11   -1    0    0    0    0  0.00000000000E+00  0.00000000000E+00  0.50000000000E+03  0.50000000000E+03  0.00000000000E+00 0.  1.
         11   -1    0    0    0    0 -0.00000000000E+00 -0.00000000000E+00 -0.50000000000E+03  0.50000000000E+03  0.00000000000E+00 0. -1.
         23    2    1    2    0    0 -0.35168618197E+02 -0.42696584609E+02  0.43087359612E+03  0.44405733978E+03  0.92059954026E+02 0.  0.
        -11    1    1    2    0    0 -0.89434201566E+02  0.30313856044E+02  0.12473297052E+02  0.95252241010E+02  0.00000000000E+00 0.  1.
         11    1    1    2    0    0  0.12460281976E+03  0.12382728565E+02 -0.44334689318E+03  0.46069041921E+03  0.00000000000E+00 0. -1.
        -15    1    3    3    0    0 -0.44807801733E+02  0.10782302387E+02  0.27807599745E+03  0.28187482191E+03  0.17770000000E+01 0.  1.
         15    1    3    3    0    0  0.96391835367E+01 -0.53478886996E+02  0.15279759868E+03  0.16218251787E+03  0.17770000000E+01 0. -1.
</event>
<event>
 6    1  0.3260141E-006  0.2600697E+03  0.7546771E-02  0.1019409E+00
        -11   -1    0    0    0    0  0.00000000000E+00  0.00000000000E+00  0.50000000000E+03  0.50000000000E+03  0.00000000000E+00 0. -1.
         11   -1    0    0    0    0 -0.00000000000E+00 -0.00000000000E+00 -0.50000000000E+03  0.50000000000E+03  0.00000000000E+00 0. -1.
        -11    1    1    2    0    0 -0.12971491968E+03  0.13031763838E+03  0.16294406460E+03  0.24568153258E+03  0.00000000000E+00 0. -1.
         11    1    1    2    0    0 -0.48070779020E+02 -0.46063746878E+02 -0.34325237399E+03  0.34964962580E+03  0.00000000000E+00 0. -1.
        -15    1    1    2    0    0 -0.12520370312E+02 -0.15687591782E+03  0.62385876520E+02  0.16929846007E+03  0.17770000000E+01 0.  1.
         15    1    1    2    0    0  0.19030606901E+03  0.72622026316E+02  0.11792243287E+03  0.23537038155E+03  0.17770000000E+01 0. -1.
</event>
<event>
 7    1  0.3260141E-006  0.3286702E+03  0.7546771E-02  0.9894361E-01
        -11   -1    0    0    0    0  0.00000000000E+00  0.00000000000E+00  0.50000000000E+03  0.50000000000E+03  0.00000000000E+00 0.  1.
         11   -1    0    0    0    0 -0.00000000000E+00 -0.00000000000E+00 -0.50000000000E+03  0.50000000000E+03  0.00000000000E+00 0. -1.
         23    2    1    2    0    0  0.32193207476E+03 -0.12464609298E+02  0.59566667725E+02  0.34016051395E+03  0.91462342520E+02 0.  0.
        -11    1    1    2    0    0 -0.28433522791E+03  0.42140940779E+02  0.22888502654E+03  0.36743807110E+03  0.00000000000E+00 0.  1.
         11    1    1    2    0    0 -0.37596846848E+02 -0.29676331481E+02 -0.28845169426E+03  0.29240141495E+03  0.00000000000E+00 0. -1.
        -15    1    3    3    0    0  0.27261216630E+03  0.23795561348E+02  0.47690092344E+02  0.27777891316E+03  0.17770000000E+01 0. -1.
         15    1    3    3    0    0  0.49319908458E+02 -0.36260170646E+02  0.11876575381E+02  0.62381600792E+02  0.17770000000E+01 0.  1.
</event>
<event>
 7    1  0.3260141E-006  0.4774207E+03  0.7546771E-02  0.9451800E-01
        -11   -1    0    0    0    0  0.00000000000E+00  0.00000000000E+00  0.50000000000E+03  0.50000000000E+03  0.00000000000E+00 0.  1.
         11   -1    0    0    0    0 -0.00000000000E+00 -0.00000000000E+00 -0.50000000000E+03  0.50000000000E+03  0.00000000000E+00 0. -1.
         23    2    1    2    0    0 -0.89487352441E+02  0.17731921697E+02  0.44250931032E+03  0.46037912081E+03  0.88385733343E+02 0.  0.
        -11    1    1    2    0    0 -0.34884294426E+02  0.27693962303E+02  0.26806109274E+02  0.51984969367E+02  0.00000000000E+00 0.  1.
         11    1    1    2    0    0  0.12437164687E+03 -0.45425884000E+02 -0.46931541960E+03  0.48763590983E+03  0.00000000000E+00 0. -1.
        -15    1    3    3    0    0 -0.68025994700E+02  0.44118632805E+02  0.38576904958E+03  0.39420160712E+03  0.17770000000E+01 0.  1.
         15    1    3    3    0    0 -0.21461357742E+02 -0.26386711108E+02  0.56740260740E+02  0.66177513682E+02  0.17770000000E+01 0. -1.
</event>
<event>
 7    1  0.3260141E-006  0.5389394E+03  0.7546771E-02  0.9316662E-01
        -11   -1    0    0    0    0  0.00000000000E+00  0.00000000000E+00  0.50000000000E+03  0.50000000000E+03  0.00000000000E+00 0.  1.
         11   -1    0    0    0    0 -0.00000000000E+00 -0.00000000000E+00 -0.50000000000E+03  0.50000000000E+03  0.00000000000E+00 0. -1.
         23    2    1    2    0    0  0.12395983260E+03 -0.45139979246E+02 -0.94524200309E+02  0.18706925814E+03  0.93039911185E+02 0.  0.
        -11    1    1    2    0    0 -0.88378901573E+02  0.11678979550E+03  0.43717983523E+03  0.46106061956E+03  0.00000000000E+00 0.  1.
         11    1    1    2    0    0 -0.35580931029E+02 -0.71649816251E+02 -0.34265563492E+03  0.35187012230E+03  0.00000000000E+00 0. -1.
        -15    1    3    3    0    0  0.55801989606E+02 -0.17978415485E+02  0.98497708653E+01  0.59474878583E+02  0.17770000000E+01 0. -1.
         15    1    3    3    0    0  0.68157842996E+02 -0.27161563761E+02 -0.10437397117E+03  0.12759437956E+03  0.17770000000E+01 0.  1.
</event>
<event>
 7    1  0.3260141E-006  0.3923776E+03  0.7546771E-02  0.9679195E-01
        -11   -1    0    0    0    0  0.00000000000E+00  0.00000000000E+00  0.50000000000E+03  0.50000000000E+03  0.00000000000E+00 0.  1.
         11   -1    0    0    0    0 -0.00000000000E+00 -0.00000000000E+00 -0.50000000000E+03  0.50000000000E+03  0.00000000000E+00 0. -1.
         23    2    1    2    0    0  0.92572794487E+02  0.14195772272E+03  0.30859313088E+03  0.36609083606E+03  0.10035468353E+03 0.  0.
        -11    1    1    2    0    0  0.39914051435E+02 -0.17045004100E+03  0.10125713348E+03  0.20223588964E+03  0.00000000000E+00 0.  1.
         11    1    1    2    0    0 -0.13248684592E+03  0.28492318281E+02 -0.40985026436E+03  0.43167327429E+03  0.00000000000E+00 0. -1.
        -15    1    3    3    0    0  0.90402426080E+02  0.56527673999E+02  0.21059056283E+03  0.23604982409E+03  0.17770000000E+01 0.  1.
         15    1    3    3    0    0  0.21703684063E+01  0.85430048721E+02  0.98002568046E+02  0.13004101198E+03  0.17770000000E+01 0. -1.
</event>
<event>
 7    1  0.3260141E-006  0.3213767E+03  0.7546771E-02  0.9922312E-01
        -11   -1    0    0    0    0  0.00000000000E+00  0.00000000000E+00  0.50000000000E+03  0.50000000000E+03  0.00000000000E+00 0. -1.
         11   -1    0    0    0    0 -0.00000000000E+00 -0.00000000000E+00 -0.50000000000E+03  0.50000000000E+03  0.00000000000E+00 0. -1.
         23    2    1    2    0    0  0.22908700260E+03 -0.13085348804E+03  0.19227731885E+03  0.33954557649E+03  0.93365631122E+02 0.  0.
        -11    1    1    2    0    0 -0.35262505266E+03  0.19240383519E+02  0.59981063432E+02  0.35820713015E+03  0.00000000000E+00 0. -1.
         11    1    1    2    0    0  0.12353805005E+03  0.11161310452E+03 -0.25225838229E+03  0.30224729336E+03  0.00000000000E+00 0. -1.
        -15    1    3    3    0    0  0.22366364074E+03 -0.11802897200E+03  0.20097431707E+03  0.32303265511E+03  0.17770000000E+01 0. -1.
         15    1    3    3    0    0  0.54233618659E+01 -0.12824516036E+02 -0.86969982132E+01  0.16512921377E+02  0.17770000000E+01 0.  1.
</event>
<event>
 7    1  0.3260141E-006  0.3858690E+03  0.7546771E-02  0.9699100E-01
        -11   -1    0    0    0    0  0.00000000000E+00  0.00000000000E+00  0.50000000000E+03  0.50000000000E+03  0.00000000000E+00 0.  1.
         11   -1    0    0    0    0 -0.00000000000E+00 -0.00000000000E+00 -0.50000000000E+03  0.50000000000E+03  0.00000000000E+00 0. -1.
         23    2    1    2    0    0  0.30178278782E+02  0.20987917735E+02  0.33748184796E+03  0.35114156013E+03  0.89750634212E+02 0.  0.
        -11    1    1    2    0    0  0.14100356001E+03  0.15379293686E+03  0.26473042162E+02  0.21032140482E+03  0.00000000000E+00 0.  1.
         11    1    1    2    0    0 -0.17118183879E+03 -0.17478085460E+03 -0.36395489013E+03  0.43853703505E+03  0.00000000000E+00 0. -1.
        -15    1    3    3    0    0  0.38339599042E+02 -0.24341999522E+02  0.10968719929E+03  0.11873035506E+03  0.17770000000E+01 0.  1.
         15    1    3    3    0    0 -0.81613202593E+01  0.45329917257E+02  0.22779464868E+03  0.23241120507E+03  0.17770000000E+01 0. -1.
</event>
<event>
 7    1  0.3260141E-006  0.5167418E+03  0.7546771E-02  0.9363109E-01
        -11   -1    0    0    0    0  0.00000000000E+00  0.00000000000E+00  0.50000000000E+03  0.50000000000E+03  0.00000000000E+00 0.  1.
         11   -1    0    0    0    0 -0.00000000000E+00 -0.00000000000E+00 -0.50000000000E+03  0.50000000000E+03  0.00000000000E+00 0. -1.
         23    2    1    2    0    0 -0.42756312160E+02  0.79935442018E+02 -0.10829293379E+03  0.16771857643E+03  0.90467586748E+02 0.  0.
        -11    1    1    2    0    0  0.16482416205E+03 -0.15880792105E+03  0.42561895711E+03  0.48325816789E+03  0.00000000000E+00 0.  1.
         11    1    1    2    0    0 -0.12206784989E+03  0.78872479034E+02 -0.31732602332E+03  0.34902325568E+03  0.00000000000E+00 0. -1.
        -15    1    3    3    0    0 -0.37149413683E+01 -0.10444499243E+02 -0.54241134311E+02  0.55390854247E+02  0.17770000000E+01 0. -1.
         15    1    3    3    0    0 -0.39041370792E+02  0.90379941261E+02 -0.54051799475E+02  0.11232772218E+03  0.17770000000E+01 0.  1.
</event>
<event>
 7    1  0.3260141E-006  0.5269987E+03  0.7546771E-02  0.9341345E-01
        -11   -1    0    0    0    0  0.00000000000E+00  0.00000000000E+00  0.50000000000E+03  0.50000000000E+03  0.00000000000E+00 0.  1.
         11   -1    0    0    0    0 -0.00000000000E+00 -0.00000000000E+00 -0.50000000000E+03  0.50000000000E+03  0.00000000000E+00 0.  1.
         23    2    1    2    0    0 -0.42563776515E+02  0.37675575453E+02  0.12870767416E+03  0.16754209012E+03  0.90959125543E+02 0.  0.
        -11    1    1    2    0    0  0.38604823275E+02 -0.11759399725E+03  0.33747644473E+03  0.35945657779E+03  0.00000000000E+00 0.  1.
         11    1    1    2    0    0  0.39589532395E+01  0.79918421796E+02 -0.46618411889E+03  0.47300133209E+03  0.00000000000E+00 0.  1.
        -15    1    3    3    0    0 -0.35531872807E+02  0.20223800419E+01  0.12613057772E+03  0.13106748022E+03  0.17770000000E+01 0. -1.
         15    1    3    3    0    0 -0.70319037081E+01  0.35653195411E+02  0.25770964384E+01  0.36474609906E+02  0.17770000000E+01 0.  1.
</event>
<event>
 7    1  0.3260141E-006  0.4221952E+03  0.7546771E-02  0.9593003E-01
        -11   -1    0    0    0    0  0.00000000000E+00  0.00000000000E+00  0.50000000000E+03  0.50000000000E+03  0.00000000000E+00 0.  1.
         11   -1    0    0    0    0 -0.00000000000E+00 -0.00000000000E+00 -0.50000000000E+03  0.50000000000E+03  0.00000000000E+00 0. -1.
         23    2    1    2    0    0  0.93965543126E+01  0.18046941581E+03  0.37318799711E+03  0.41872461891E+03  0.58339695102E+02 0.  0.
        -11    1    1    2    0    0  0.44268383347E+02 -0.12894207882E+03  0.54754327157E+02  0.14691421237E+03  0.00000000000E+00 0.  1.
         11    1    1    2    0    0 -0.53664937659E+02 -0.51527336996E+02 -0.42794232426E+03  0.43436116871E+03  0.00000000000E+00 0. -1.
        -15    1    3    3    0    0 -0.19467289041E+02  0.45368204605E+02  0.71511929323E+02  0.86915839156E+02  0.17770000000E+01 0. -1.
         15    1    3    3    0    0  0.28863843354E+02  0.13510121121E+03  0.30167606778E+03  0.33180877976E+03  0.17770000000E+01 0.  1.
</event>
<event>
 7    1  0.3260141E-006  0.5121782E+03  0.7546771E-02  0.9372965E-01
        -11   -1    0    0    0    0  0.00000000000E+00  0.00000000000E+00  0.50000000000E+03  0.50000000000E+03  0.00000000000E+00 0. -1.
         11   -1    0    0    0    0 -0.00000000000E+00 -0.00000000000E+00 -0.50000000000E+03  0.50000000000E+03  0.00000000000E+00 0.  1.
         23    2    1    2    0    0 -0.22850843209E+01  0.20459369842E+02  0.32908172104E+03  0.34230467012E+03  0.91945095777E+02 0.  0.
        -11    1    1    2    0    0  0.27815965908E+02  0.78941577860E+02  0.14782259265E+03  0.16987353994E+03  0.00000000000E+00 0. -1.
         11    1    1    2    0    0 -0.25530881587E+02 -0.99400947702E+02 -0.47690431369E+03  0.48782178994E+03  0.00000000000E+00 0.  1.
        -15    1    3    3    0    0 -0.42271052958E+02  0.31391100595E+02  0.18950243468E+03  0.19668902764E+03  0.17770000000E+01 0.  1.
         15    1    3    3    0    0  0.39985968637E+02 -0.10931730752E+02  0.13957928636E+03  0.14561564248E+03  0.17770000000E+01 0. -1.
</event>
<event>
 7    1  0.3260141E-006  0.3723955E+03  0.7546771E-02  0.9741675E-01
        -11   -1    0    0    0    0  0.00000000000E+00  0.00000000000E+00  0.50000000000E+03  0.50000000000E+03  0.00000000000E+00 0.  1.
         11   -1    0    0    0    0 -0.00000000000E+00 -0.00000000000E+00 -0.50000000000E+03  0.50000000000E+03  0.00000000000E+00 0. -1.
         23    2    1    2    0    0 -0.10340309573E+03  0.17980704079E+03 -0.40461939894E+02  0.22580779535E+03  0.79556393423E+02 0.  0.
        -11    1    1    2    0    0  0.99413708693E+02 -0.11405263170E+03  0.39009471721E+03  0.41840766803E+03  0.00000000000E+00 0.  1.
         11    1    1    2    0    0  0.39893870410E+01 -0.65754409090E+02 -0.34963277731E+03  0.35578453662E+03  0.00000000000E+00 0. -1.
        -15    1    3    3    0    0 -0.39175152192E+02  0.68384028123E+02  0.23365319540E+02  0.82220214897E+02  0.17770000000E+01 0.  1.
         15    1    3    3    0    0 -0.64227943543E+02  0.11142301267E+03 -0.63827259434E+02  0.14358758045E+03  0.17770000000E+01 0. -1.
</event>
<event>
 7    1  0.3260141E-006  0.5197033E+03  0.7546771E-02  0.9356770E-01
        -11   -1    0    0    0    0  0.00000000000E+00  0.00000000000E+00  0.50000000000E+03  0.50000000000E+03  0.00000000000E+00 0.  1.
         11   -1    0    0    0    0 -0.00000000000E+00 -0.00000000000E+00 -0.50000000000E+03  0.50000000000E+03  0.00000000000E+00 0. -1.
         23    2    1    2    0    0 -0.17192101562E+03  0.66593812968E+01  0.35672602423E+03  0.40826589782E+03  0.99128219922E+02 0.  0.
        -11    1    1    2    0    0  0.29006707275E+02 -0.37736854354E+02  0.10076126701E+03  0.11143739127E+03  0.00000000000E+00 0.  1.
         11    1    1    2    0    0  0.14291430835E+03  0.31077473057E+02 -0.45748729124E+03  0.48029671091E+03  0.00000000000E+00 0. -1.
        -15    1    3    3    0    0 -0.13187879868E+03  0.13299401385E+02  0.33889338341E+03  0.36389665383E+03  0.17770000000E+01 0.  1.
         15    1    3    3    0    0 -0.40042216947E+02 -0.66400200880E+01  0.17832640821E+02  0.44369243992E+02  0.17770000000E+01 0. -1.
</event>
<event>
 7    1  0.3260141E-006  0.5392406E+03  0.7546771E-02  0.9316048E-01
        -11   -1    0    0    0    0  0.00000000000E+00  0.00000000000E+00  0.50000000000E+03  0.50000000000E+03  0.00000000000E+00 0. -1.
         11   -1    0    0    0    0 -0.00000000000E+00 -0.00000000000E+00 -0.50000000000E+03  0.50000000000E+03  0.00000000000E+00 0. -1.
         23    2    1    2    0    0 -0.83194310963E+01 -0.10134092174E+03  0.22371124437E+03  0.26030163504E+03  0.85854673698E+02 0.  0.
        -11    1    1    2    0    0 -0.23432282611E+03 -0.13711079569E+02  0.15070427043E+03  0.27893898555E+03  0.00000000000E+00 0. -1.
         11    1    1    2    0    0  0.24264225720E+03  0.11505200131E+03 -0.37441551480E+03  0.46075937940E+03  0.00000000000E+00 0. -1.
        -15    1    3    3    0    0  0.17530566711E+02  0.76661330795E+01  0.19529390613E+02  0.27397904889E+02  0.17770000000E+01 0.  1.
         15    1    3    3    0    0 -0.25849997807E+02 -0.10900705482E+03  0.20418185376E+03  0.23290373016E+03  0.17770000000E+01 0. -1.
</event>
<event>
 7    1  0.3260141E-006  0.4368913E+03  0.7546771E-02  0.9553270E-01
        -11   -1    0    0    0    0  0.00000000000E+00  0.00000000000E+00  0.50000000000E+03  0.50000000000E+03  0.00000000000E+00 0. -1.
         11   -1    0    0    0    0 -0.00000000000E+00 -0.00000000000E+00 -0.50000000000E+03  0.50000000000E+03  0.00000000000E+00 0.  1.
         23    2    1    2    0    0  0.19238966423E+01 -0.77939980439E+01  0.41340056953E+03  0.42351506573E+03  0.91654417418E+02 0.  0.
        -11    1    1    2    0    0  0.10919092502E+03  0.61349713818E+02  0.19140796166E+02  0.12669970628E+03  0.00000000000E+00 0. -1.
         11    1    1    2    0    0 -0.11111482166E+03 -0.53555715774E+02 -0.43254136569E+03  0.44978522799E+03  0.00000000000E+00 0.  1.
        -15    1    3    3    0    0 -0.40007051570E+02 -0.22024851696E+02  0.16599478444E+03  0.17217167148E+03  0.17770000000E+01 0.  1.
         15    1    3    3    0    0  0.41930948213E+02  0.14230853652E+02  0.24740578508E+03  0.25134339426E+03  0.17770000000E+01 0. -1.
</event>
<event>
 7    1  0.3260141E-006  0.4599274E+03  0.7546771E-02  0.9494229E-01
        -11   -1    0    0    0    0  0.00000000000E+00  0.00000000000E+00  0.50000000000E+03  0.50000000000E+03  0.00000000000E+00 0.  1.
         11   -1    0    0    0    0 -0.00000000000E+00 -0.00000000000E+00 -0.50000000000E+03  0.50000000000E+03  0.00000000000E+00 0. -1.
         23    2    1    2    0    0 -0.39668103167E+01  0.80209743542E+02  0.43529838678E+03  0.45273721190E+03  0.95062921083E+02 0.  0.
        -11    1    1    2    0    0  0.85059956834E+02 -0.37029098704E+01  0.12267999310E+02  0.86019832627E+02  0.00000000000E+00 0.  1.
         11    1    1    2    0    0 -0.81093146517E+02 -0.76506833672E+02 -0.44756638609E+03  0.46124295547E+03  0.00000000000E+00 0. -1.
        -15    1    3    3    0    0 -0.44101941142E+02  0.69832749140E+02  0.27361218380E+03  0.28581178933E+03  0.17770000000E+01 0.  1.
         15    1    3    3    0    0  0.40135130826E+02  0.10376994402E+02  0.16168620298E+03  0.16692542258E+03  0.17770000000E+01 0. -1.
</event>
<event>
 7    1  0.3260141E-006  0.4868344E+03  0.7546771E-02  0.9429760E-01
        -11   -1    0    0    0    0  0.00000000000E+00  0.00000000000E+00  0.50000000000E+03  0.50000000000E+03  0.00000000000E+00 0. -1.
         11   -1    0    0    0    0 -0.00000000000E+00 -0.00000000000E+00 -0.50000000000E+03  0.50000000000E+03  0.00000000000E+00 0.  1.
         23    2    1    2    0    0 -0.59350175285E+02 -0.10754935274E+03  0.45752736492E+03  0.48237532400E+03  0.90914008658E+02 0.  0.
        -11    1    1    2    0    0  0.31898129128E+02 -0.23034758049E+01  0.12360285219E+02  0.34286634325E+02  0.00000000000E+00 0. -1.
         11    1    1    2    0    0  0.27452046157E+02  0.10985282855E+03 -0.46988765014E+03  0.48333804168E+03  0.00000000000E+00 0.  1.
        -15    1    3    3    0    0  0.41742946526E+01 -0.72894440280E+02  0.15553624632E+03  0.17183045658E+03  0.17770000000E+01 0.  1.
         15    1    3    3    0    0 -0.63524469937E+02 -0.34654912461E+02  0.30199111860E+03  0.31054486742E+03  0.17770000000E+01 0. -1.
</event>
<event>
 7    1  0.3260141E-006  0.3132136E+03  0.7546771E-02  0.9954557E-01
        -11   -1    0    0    0    0  0.00000000000E+00  0.00000000000E+00  0.50000000000E+03  0.50000000000E+03  0.00000000000E+00 0.  1.
         11   -1    0    0    0    0 -0.00000000000E+00 -0.00000000000E+00 -0.50000000000E+03  0.50000000000E+03  0.00000000000E+00 0. -1.
         23    2    1    2    0    0  0.37390540707E+02 -0.27911963114E+03  0.85082331056E+02  0.30793363710E+03  0.90985167891E+02 0.  0.
        -11    1    1    2    0    0  0.97413135274E+02  0.17700385716E+03  0.24717801757E+03  0.31924388286E+03  0.00000000000E+00 0.  1.
         11    1    1    2    0    0 -0.13480367598E+03  0.10211577398E+03 -0.33226034862E+03  0.37282248004E+03  0.00000000000E+00 0. -1.
        -15    1    3    3    0    0  0.43433911248E+02 -0.18089566158E+03  0.14093244641E+02  0.18657846151E+03  0.17770000000E+01 0. -1.
         15    1    3    3    0    0 -0.60433705415E+01 -0.98223969563E+02  0.70989086415E+02  0.12135517559E+03  0.17770000000E+01 0.  1.
</event>
<event>
 7    1  0.3260141E-006  0.5143821E+03  0.7546771E-02  0.9368192E-01
        -11   -1    0    0    0    0  0.00000000000E+00  0.00000000000E+00  0.50000000000E+03  0.50000000000E+03  0.00000000000E+00 0. -1.
         11   -1    0    0    0    0 -0.00000000000E+00 -0.00000000000E+00 -0.50000000000E+03  0.50000000000E+03  0.00000000000E+00 0. -1.
         23    2    1    2    0    0  0.17313865252E+02 -0.47456623270E+02 -0.23801417909E+03  0.25996821256E+03  0.91546824473E+02 0.  0.
        -11    1    1    2    0    0  0.73583320485E+02  0.11053936907E+03  0.46710953192E+03  0.48561792799E+03  0.00000000000E+00 0. -1.
         11    1    1    2    0    0 -0.90897185737E+02 -0.63082745804E+02 -0.22909535284E+03  0.25441385946E+03  0.00000000000E+00 0. -1.
        -15    1    3    3    0    0  0.14039872359E+02  0.20957563292E+02 -0.22582858078E+02  0.33903992139E+02  0.17770000000E+01 0.  1.
         15    1    3    3    0    0  0.32739928932E+01 -0.68414186562E+02 -0.21543132101E+03  0.22606422042E+03  0.17770000000E+01 0. -1.
</event>
<event>
 7    1  0.3260141E-006  0.5105336E+03  0.7546771E-02  0.9376544E-01
        -11   -1    0    0    0    0  0.00000000000E+00  0.00000000000E+00  0.50000000000E+03  0.50000000000E+03  0.00000000000E+00 0. -1.
         11   -1    0    0    0    0 -0.00000000000E+00 -0.00000000000E+00 -0.50000000000E+03  0.50000000000E+03  0.00000000000E+00 0.  1.
         23    2    1    2    0    0  0.62064731838E+02  0.10391651054E+03  0.19964959260E+03  0.25140122942E+03  0.93230607795E+02 0.  0.
        -11    1    1    2    0    0  0.69706779559E+02  0.16358391579E+03  0.18849623902E+03  0.25913233057E+03  0.00000000000E+00 0. -1.
         11    1    1    2    0    0 -0.13177151140E+03 -0.26750042632E+03 -0.38814583161E+03  0.48946644001E+03  0.00000000000E+00 0.  1.
        -15    1    3    3    0    0  0.65074523041E+02  0.19028413826E+02  0.88764915921E+02  0.11171008061E+03  0.17770000000E+01 0. -1.
         15    1    3    3    0    0 -0.30097912026E+01  0.84888096712E+02  0.11088467667E+03  0.13969114881E+03  0.17770000000E+01 0.  1.
</event>
<event>
 7    1  0.3260141E-006  0.5079028E+03  0.7546771E-02  0.9382298E-01
        -11   -1    0    0    0    0  0.00000000000E+00  0.00000000000E+00  0.50000000000E+03  0.50000000000E+03  0.00000000000E+00 0.  1.
         11   -1    0    0    0    0 -0.00000000000E+00 -0.00000000000E+00 -0.50000000000E+03  0.50000000000E+03  0.00000000000E+00 0. -1.
         23    2    1    2    0    0  0.60763402245E+02  0.65771732325E+01  0.28368699567E+03  0.30392012202E+03  0.90297723106E+02 0.  0.
        -11    1    1    2    0    0  0.75748270938E+02 -0.11024074571E+02  0.18907560963E+03  0.20398263879E+03  0.00000000000E+00 0.  1.
         11    1    1    2    0    0 -0.13651167318E+03  0.44469013385E+01 -0.47276260530E+03  0.49209723919E+03  0.00000000000E+00 0. -1.
        -15    1    3    3    0    0  0.67529755056E+02  0.15121089124E+02  0.28454467241E+03  0.29284423075E+03  0.17770000000E+01 0.  1.
         15    1    3    3    0    0 -0.67663528114E+01 -0.85439158919E+01 -0.85767674398E+00  0.11075891275E+02  0.17770000000E+01 0. -1.
</event>
<event>
 6    1  0.3260141E-006  0.4254140E+03  0.7546771E-02  0.9584154E-01
        -11   -1    0    0    0    0  0.00000000000E+00  0.00000000000E+00  0.50000000000E+03  0.50000000000E+03  0.00000000000E+00 0.  1.
         11   -1    0    0    0    0 -0.00000000000E+00 -0.00000000000E+00 -0.50000000000E+03  0.50000000000E+03  0.00000000000E+00 0.  1.
        -11    1    1    2    0    0  0.54944953431E+02 -0.42040369389E+03  0.13202683683E+03  0.44406001778E+03  0.00000000000E+00 0.  1.
         11    1    1    2    0    0 -0.34929843445E+01  0.75174760305E+02 -0.14958907187E+03  0.16745248863E+03  0.00000000000E+00 0.  1.
        -15    1    1    2    0    0 -0.45374896521E+02  0.30221762162E+01  0.71134355608E+01  0.46062712445E+02  0.17770000000E+01 0. -1.
         15    1    1    2    0    0 -0.60770725655E+01  0.34220675737E+03  0.10448799477E+02  0.34242478114E+03  0.17770000000E+01 0.  1.
</event>
<event>
 7    1  0.3260141E-006  0.5191695E+03  0.7546771E-02  0.9357909E-01
        -11   -1    0    0    0    0  0.00000000000E+00  0.00000000000E+00  0.50000000000E+03  0.50000000000E+03  0.00000000000E+00 0.  1.
         11   -1    0    0    0    0 -0.00000000000E+00 -0.00000000000E+00 -0.50000000000E+03  0.50000000000E+03  0.00000000000E+00 0. -1.
         23    2    1    2    0    0 -0.47697196103E+02  0.36351578571E+02  0.19082777848E+03  0.22085554739E+03  0.93624099415E+02 0.  0.
        -11    1    1    2    0    0 -0.21053241848E+03  0.40283439633E+02  0.20747178269E+03  0.29831392082E+03  0.00000000000E+00 0.  1.
         11    1    1    2    0    0  0.25822961459E+03 -0.76635018204E+02 -0.39829956118E+03  0.48083053179E+03  0.00000000000E+00 0. -1.
        -15    1    3    3    0    0 -0.67966949558E+02  0.19685577538E+02  0.17807155673E+03  0.19162375959E+03  0.17770000000E+01 0.  1.
         15    1    3    3    0    0  0.20269753455E+02  0.16666001032E+02  0.12756221759E+02  0.29231787802E+02  0.17770000000E+01 0. -1.
</event>
<event>
 7    1  0.3260141E-006  0.3330046E+03  0.7546771E-02  0.9878116E-01
        -11   -1    0    0    0    0  0.00000000000E+00  0.00000000000E+00  0.50000000000E+03  0.50000000000E+03  0.00000000000E+00 0.  1.
         11   -1    0    0    0    0 -0.00000000000E+00 -0.00000000000E+00 -0.50000000000E+03  0.50000000000E+03  0.00000000000E+00 0.  1.
         23    2    1    2    0    0  0.13456462263E+03 -0.22410376705E+03  0.58308054197E+02  0.28215726090E+03  0.88784878373E+02 0.  0.
        -11    1    1    2    0    0 -0.16290731895E+03  0.29038904255E+03  0.24032306888E+03  0.41063337424E+03  0.00000000000E+00 0.  1.
         11    1    1    2    0    0  0.28342696326E+02 -0.66285275507E+02 -0.29863112308E+03  0.30720936486E+03  0.00000000000E+00 0.  1.
        -15    1    3    3    0    0  0.22019591030E+02 -0.49136786286E+02  0.50689644606E+02  0.73972183657E+02  0.17770000000E+01 0. -1.
         15    1    3    3    0    0  0.11254503160E+03 -0.17496698076E+03  0.76184095906E+01  0.20818507724E+03  0.17770000000E+01 0.  1.
</event>
<event>
 7    1  0.3260141E-006  0.5224043E+03  0.7546771E-02  0.9351028E-01
        -11   -1    0    0    0    0  0.00000000000E+00  0.00000000000E+00  0.50000000000E+03  0.50000000000E+03  0.00000000000E+00 0.  1.
         11   -1    0    0    0    0 -0.00000000000E+00 -0.00000000000E+00 -0.50000000000E+03  0.50000000000E+03  0.00000000000E+00 0. -1.
         23    2    1    2    0    0  0.11373033046E+02 -0.25074567743E+02  0.37289030711E+03  0.38458320166E+03  0.89994322246E+02 0.  0.
        -11    1    1    2    0    0 -0.88184827824E+02 -0.52318964276E+02  0.92091287766E+02  0.13782105486E+03  0.00000000000E+00 0.  1.
         11    1    1    2    0    0  0.76811794778E+02  0.77393532020E+02 -0.46498159487E+03  0.47759574348E+03  0.00000000000E+00 0. -1.
        -15    1    3    3    0    0 -0.35334701698E+02 -0.29346506503E+02  0.15382510785E+03  0.16054619311E+03  0.17770000000E+01 0.  1.
         15    1    3    3    0    0  0.46707734744E+02  0.42719387592E+01  0.21906519926E+03  0.22403700855E+03  0.17770000000E+01 0. -1.
</event>
<event>
 7    1  0.3260141E-006  0.3464349E+03  0.7546771E-02  0.9829420E-01
        -11   -1    0    0    0    0  0.00000000000E+00  0.00000000000E+00  0.50000000000E+03  0.50000000000E+03  0.00000000000E+00 0.  1.
         11   -1    0    0    0    0 -0.00000000000E+00 -0.00000000000E+00 -0.50000000000E+03  0.50000000000E+03  0.00000000000E+00 0.  1.
         23    2    1    2    0    0  0.51034504064E+02 -0.87193653391E+02  0.22646896727E+03  0.26408965532E+03  0.90817944874E+02 0.  0.
        -11    1    1    2    0    0 -0.24913435426E+03  0.15232471360E+03  0.13257833958E+03  0.32069886338E+03  0.00000000000E+00 0.  1.
         11    1    1    2    0    0  0.19809985020E+03 -0.65131060208E+02 -0.35904730685E+03  0.41521148131E+03  0.00000000000E+00 0.  1.
        -15    1    3    3    0    0  0.76699190943E+02 -0.74585969717E+02  0.17258848688E+03  0.20306594078E+03  0.17770000000E+01 0.  1.
         15    1    3    3    0    0 -0.25664686879E+02 -0.12607683674E+02  0.53880480393E+02  0.61023714543E+02  0.17770000000E+01 0. -1.
</event>
<event>
 7    1  0.3260141E-006  0.5236657E+03  0.7546771E-02  0.9348359E-01
        -11   -1    0    0    0    0  0.00000000000E+00  0.00000000000E+00  0.50000000000E+03  0.50000000000E+03  0.00000000000E+00 0.  1.
         11   -1    0    0    0    0 -0.00000000000E+00 -0.00000000000E+00 -0.50000000000E+03  0.50000000000E+03  0.00000000000E+00 0. -1.
         23    2    1    2    0    0  0.27772787369E+02  0.42198472970E+02  0.12951139818E+03  0.16564008021E+03  0.90063283714E+02 0.  0.
        -11    1    1    2    0    0  0.24830363923E+03 -0.13336866605E+02  0.25758446302E+03  0.35802559245E+03  0.00000000000E+00 0.  1.
         11    1    1    2    0    0 -0.27607642660E+03 -0.28861606364E+02 -0.38709586120E+03  0.47633432734E+03  0.00000000000E+00 0. -1.
        -15    1    3    3    0    0  0.39949980333E+02  0.62068632111E+02  0.11892608245E+03  0.13998245189E+03  0.17770000000E+01 0.  1.
         15    1    3    3    0    0 -0.12177192964E+02 -0.19870159142E+02  0.10585315727E+02  0.25657628317E+02  0.17770000000E+01 0. -1.
</event>
<event>
 7    1  0.3260141E-006  0.5230105E+03  0.7546771E-02  0.9349745E-01
        -11   -1    0    0    0    0  0.00000000000E+00  0.00000000000E+00  0.50000000000E+03  0.50000000000E+03  0.00000000000E+00 0.  1.
         11   -1    0    0    0    0 -0.00000000000E+00 -0.00000000000E+00 -0.50000000000E+03  0.50000000000E+03  0.00000000000E+00 0. -1.
         23    2    1    2    0    0  0.20906211579E+02  0.12063473509E+03  0.29778319385E+03  0.33464907751E+03  0.91243441127E+02 0.  0.
        -11    1    1    2    0    0 -0.94074944150E+02 -0.17820675311E+02  0.16221088062E+03  0.18836146468E+03  0.00000000000E+00 0.  1.
         11    1    1    2    0    0  0.73168732571E+02 -0.10281405978E+03 -0.45999407447E+03  0.47698945781E+03  0.00000000000E+00 0. -1.
        -15    1    3    3    0    0  0.49304212802E+02  0.94444079337E+02  0.25814203657E+03  0.27926879220E+03  0.17770000000E+01 0.  1.
         15    1    3    3    0    0 -0.28398001222E+02  0.26190655750E+02  0.39641157274E+02  0.55380285311E+02  0.17770000000E+01 0. -1.
</event>
<event>
 7    1  0.3260141E-006  0.4513887E+03  0.7546771E-02  0.9515675E-01
        -11   -1    0    0    0    0  0.00000000000E+00  0.00000000000E+00  0.50000000000E+03  0.50000000000E+03  0.00000000000E+00 0.  1.
         11   -1    0    0    0    0 -0.00000000000E+00 -0.00000000000E+00 -0.50000000000E+03  0.50000000000E+03  0.00000000000E+00 0. -1.
         23    2    1    2    0    0 -0.23342767347E+02 -0.22375952993E+02  0.60491441406E+01  0.96623401693E+02  0.90851095481E+02 0.  0.
        -11    1    1    2    0    0  0.18873124650E+03 -0.27276633316E+03  0.29994682459E+03  0.44720135677E+03  0.00000000000E+00 0.  1.
         11    1    1    2    0    0 -0.16538847916E+03  0.29514228615E+03 -0.30599596873E+03  0.45617524154E+03  0.00000000000E+00 0. -1.
        -15    1    3    3    0    0 -0.25733740798E+01 -0.11709345978E+02  0.47496775689E+02  0.49018695079E+02  0.17770000000E+01 0. -1.
         15    1    3    3    0    0 -0.20769393267E+02 -0.10666607015E+02 -0.41447631548E+02  0.47604706614E+02  0.17770000000E+01 0.  1.
</event>
<event>
 7    1  0.3260141E-006  0.4141822E+03  0.7546771E-02  0.9615401E-01
        -11   -1    0    0    0    0  0.00000000000E+00  0.00000000000E+00  0.50000000000E+03  0.50000000000E+03  0.00000000000E+00 0.  1.
         11   -1    0    0    0    0 -0.00000000000E+00 -0.00000000000E+00 -0.50000000000E+03  0.50000000000E+03  0.00000000000E+00 0. -1.
         23    2    1    2    0    0  0.18682807199E+03  0.15648720296E+03  0.33900719831E+03  0.42708047991E+03  0.89882604782E+02 0.  0.
        -11    1    1    2    0    0 -0.13125978292E+02 -0.16175141431E+03  0.30005831593E+02  0.16503381856E+03  0.00000000000E+00 0.  1.
         11    1    1    2    0    0 -0.17370209369E+03  0.52642113534E+01 -0.36901302990E+03  0.40788570153E+03  0.00000000000E+00 0. -1.
        -15    1    3    3    0    0  0.14360675671E+02  0.76743269540E+01  0.82119409744E+02  0.83736966065E+02  0.17770000000E+01 0.  1.
         15    1    3    3    0    0  0.17246739632E+03  0.14881287601E+03  0.25688778856E+03  0.34334351385E+03  0.17770000000E+01 0. -1.
</event>
<event>
 7    1  0.3260141E-006  0.3690204E+03  0.7546771E-02  0.9752642E-01
        -11   -1    0    0    0    0  0.00000000000E+00  0.00000000000E+00  0.50000000000E+03  0.50000000000E+03  0.00000000000E+00 0.  1.
         11   -1    0    0    0    0 -0.00000000000E+00 -0.00000000000E+00 -0.50000000000E+03  0.50000000000E+03  0.00000000000E+00 0. -1.
         23    2    1    2    0    0  0.28694921166E+02  0.55801803795E+02  0.20348564419E+03  0.23185422102E+03  0.91720949659E+02 0.  0.
        -11    1    1    2    0    0 -0.23999190227E+03 -0.11567430777E+03  0.18328517826E+03  0.32337302795E+03  0.00000000000E+00 0.  1.
         11    1    1    2    0    0  0.21129698110E+03  0.59872503975E+02 -0.38677082246E+03  0.44477275103E+03  0.00000000000E+00 0. -1.
        -15    1    3    3    0    0 -0.69896733730E+01  0.29958349371E+02  0.17856400590E+03  0.18120325649E+03  0.17770000000E+01 0.  1.
         15    1    3    3    0    0  0.35684594539E+02  0.25843454424E+02  0.24921638295E+02  0.50650964535E+02  0.17770000000E+01 0. -1.
</event>
<event>
 7    1  0.3260141E-006  0.5066171E+03  0.7546771E-02  0.9385124E-01
        -11   -1    0    0    0    0  0.00000000000E+00  0.00000000000E+00  0.50000000000E+03  0.50000000000E+03  0.00000000000E+00 0.  1.
         11   -1    0    0    0    0 -0.00000000000E+00 -0.00000000000E+00 -0.50000000000E+03  0.50000000000E+03  0.00000000000E+00 0. -1.
         23    2    1    2    0    0  0.70589198966E+02 -0.76011336841E+02 -0.33440910870E+03  0.36185967863E+03  0.91391557026E+02 0.  0.
        -11    1    1    2    0    0 -0.75172842681E+02  0.10737996208E+03  0.47565251249E+03  0.49338293968E+03  0.00000000000E+00 0.  1.
         11    1    1    2    0    0  0.45836437154E+01 -0.31368625239E+02 -0.14124340379E+03  0.14475738169E+03  0.00000000000E+00 0. -1.
        -15    1    3    3    0    0  0.92106268357E+02 -0.51340149598E+02 -0.25592687936E+03  0.27680516784E+03  0.17770000000E+01 0.  1.
         15    1    3    3    0    0 -0.21517069391E+02 -0.24671187243E+02 -0.78482229341E+02  0.85054510794E+02  0.17770000000E+01 0. -1.
</event>
<event>
 7    1  0.3260141E-006  0.5179419E+03  0.7546771E-02  0.9360535E-01
        -11   -1    0    0    0    0  0.00000000000E+00  0.00000000000E+00  0.50000000000E+03  0.50000000000E+03  0.00000000000E+00 0.  1.
         11   -1    0    0    0    0 -0.00000000000E+00 -0.00000000000E+00 -0.50000000000E+03  0.50000000000E+03  0.00000000000E+00 0. -1.
         23    2    1    2    0    0 -0.70679052607E+02  0.25434848625E+02  0.18444225900E+03  0.21757223830E+03  0.87614336547E+02 0.  0.
        -11    1    1    2    0    0 -0.53111465452E+02 -0.11318623459E+03  0.27311167692E+03  0.30036967145E+03  0.00000000000E+00 0.  1.
         11    1    1    2    0    0  0.12379051806E+03  0.87751385960E+02 -0.45755393592E+03  0.48205809025E+03  0.00000000000E+00 0. -1.
        -15    1    3    3    0    0 -0.24871762488E+01 -0.14987491582E+02 -0.15587270421E+01  0.15375249871E+02  0.17770000000E+01 0. -1.
         15    1    3    3    0    0 -0.68191876358E+02  0.40422340207E+02  0.18600098605E+03  0.20219698842E+03  0.17770000000E+01 0.  1.
</event>
<event>
 7    1  0.3260141E-006  0.5339921E+03  0.7546771E-02  0.9326806E-01
        -11   -1    0    0    0    0  0.00000000000E+00  0.00000000000E+00  0.50000000000E+03  0.50000000000E+03  0.00000000000E+00 0. -1.
         11   -1    0    0    0    0 -0.00000000000E+00 -0.00000000000E+00 -0.50000000000E+03  0.50000000000E+03  0.00000000000E+00 0. -1.
         23    2    1    2    0    0 -0.13440112310E+01 -0.90784029769E+02 -0.41763803621E+02  0.13146043010E+03  0.85405403592E+02 0.  0.
        -11    1    1    2    0    0  0.20162676547E+00  0.15676060387E+03  0.43885011722E+03  0.46600788938E+03  0.00000000000E+00 0. -1.
         11    1    1    2    0    0  0.11423844655E+01 -0.65976574104E+02 -0.39708631360E+03  0.40253168052E+03  0.00000000000E+00 0. -1.
        -15    1    3    3    0    0  0.35685461715E+02 -0.38118306565E+02 -0.42032437768E+02  0.67054761404E+02  0.17770000000E+01 0.  1.
         15    1    3    3    0    0 -0.37029472946E+02 -0.52665723205E+02  0.26863414691E+00  0.64405668700E+02  0.17770000000E+01 0. -1.
</event>
<event>
 7    1  0.3260141E-006  0.3773829E+03  0.7546771E-02  0.9725694E-01
        -11   -1    0    0    0    0  0.00000000000E+00  0.00000000000E+00  0.50000000000E+03  0.50000000000E+03  0.00000000000E+00 0.  1.
         11   -1    0    0    0    0 -0.00000000000E+00 -0.00000000000E+00 -0.50000000000E+03  0.50000000000E+03  0.00000000000E+00 0. -1.
         23    2    1    2    0    0 -0.11908907439E+03  0.10279549787E+03  0.26824192350E+03  0.32505444925E+03  0.94644299499E+02 0.  0.
        -11    1    1    2    0    0 -0.22385839400E+03 -0.86497452149E+01  0.87058809210E+01  0.22419453834E+03  0.00000000000E+00 0.  1.
         11    1    1    2    0    0  0.34294746840E+03 -0.94145752658E+02 -0.27694780442E+03  0.45075101242E+03  0.00000000000E+00 0. -1.
        -15    1    3    3    0    0 -0.95296846024E+02  0.20051271077E+02  0.14711390015E+03  0.17643468956E+03  0.17770000000E+01 0.  1.
         15    1    3    3    0    0 -0.23792228371E+02  0.82744226796E+02  0.12112802335E+03  0.14861975968E+03  0.17770000000E+01 0. -1.
</event>
<event>
 7    1  0.3260141E-006  0.5362365E+03  0.7546771E-02  0.9322189E-01
        -11   -1    0    0    0    0  0.00000000000E+00  0.00000000000E+00  0.50000000000E+03  0.50000000000E+03  0.00000000000E+00 0.  1.
         11   -1    0    0    0    0 -0.00000000000E+00 -0.00000000000E+00 -0.50000000000E+03  0.50000000000E+03  0.00000000000E+00 0. -1.
         23    2    1    2    0    0 -0.94649782371E+02  0.15490780452E+03 -0.61810098830E+02  0.21230484546E+03  0.91092534737E+02 0.  0.
        -11    1    1    2    0    0  0.32488279148E+02 -0.32172025925E+03  0.33244128911E+03  0.46376354341E+03  0.00000000000E+00 0.  1.
         11    1    1    2    0    0  0.62161503223E+02  0.16681245472E+03 -0.27063119028E+03  0.32393161113E+03  0.00000000000E+00 0. -1.
        -15    1    3    3    0    0 -0.46446085241E+02  0.77006315796E+02  0.16891150341E+02  0.91518742319E+02  0.17770000000E+01 0.  1.
         15    1    3    3    0    0 -0.48203697130E+02  0.77901488725E+02 -0.78701249171E+02  0.12078610314E+03  0.17770000000E+01 0. -1.
</event>
<event>
 7    1  0.3260141E-006  0.3729773E+03  0.7546771E-02  0.9739797E-01
        -11   -1    0    0    0    0  0.00000000000E+00  0.00000000000E+00  0.50000000000E+03  0.50000000000E+03  0.00000000000E+00 0.  1.
         11   -1    0    0    0    0 -0.00000000000E+00 -0.00000000000E+00 -0.50000000000E+03  0.50000000000E+03  0.00000000000E+00 0.  1.
         23    2    1    2    0    0 -0.14194756805E+01  0.15812693418E+03  0.42638964085E+03  0.46379618464E+03  0.91063894249E+02 0.  0.
        -11    1    1    2    0    0 -0.72695228532E+02 -0.17548019429E+03 -0.12993447801E+03  0.23013227373E+03  0.00000000000E+00 0.  1.
         11    1    1    2    0    0  0.74114704213E+02  0.17353260110E+02 -0.29645516284E+03  0.30607154163E+03  0.00000000000E+00 0.  1.
        -15    1    3    3    0    0  0.18658623537E+02  0.47319163502E+02  0.51711902269E+02  0.72557053634E+02  0.17770000000E+01 0. -1.
         15    1    3    3    0    0 -0.20078099217E+02  0.11080777067E+03  0.37467773858E+03  0.39123913101E+03  0.17770000000E+01 0.  1.
</event>
<event>
 7    1  0.3260141E-006  0.4428958E+03  0.7546771E-02  0.9537513E-01
        -11   -1    0    0    0    0  0.00000000000E+00  0.00000000000E+00  0.50000000000E+03  0.50000000000E+03  0.00000000000E+00 0.  1.
         11   -1    0    0    0    0 -0.00000000000E+00 -0.00000000000E+00 -0.50000000000E+03  0.50000000000E+03  0.00000000000E+00 0. -1.
         23    2    1    2    0    0  0.97106583291E+02 -0.13111491597E+03  0.38233615542E+03  0.42552367398E+03  0.90932126723E+02 0.  0.
        -11    1    1    2    0    0 -0.72319802687E+02  0.58133655720E+02  0.69615238018E+02  0.11599981531E+03  0.00000000000E+00 0.  1.
         11    1    1    2    0    0 -0.24786780604E+02  0.72981260250E+02 -0.45195139344E+03  0.45847651071E+03  0.00000000000E+00 0. -1.
        -15    1    3    3    0    0 -0.11149277086E+02 -0.18454729123E+02  0.10494546691E+03  0.10715219158E+03  0.17770000000E+01 0. -1.
         15    1    3    3    0    0  0.10825586038E+03 -0.11266018685E+03  0.27739068851E+03  0.31837148240E+03  0.17770000000E+01 0.  1.
</event>
<event>
 7    1  0.3260141E-006  0.4838432E+03  0.7546771E-02  0.9436706E-01
        -11   -1    0    0    0    0  0.00000000000E+00  0.00000000000E+00  0.50000000000E+03  0.50000000000E+03  0.00000000000E+00 0.  1.
         11   -1    0    0    0    0 -0.00000000000E+00 -0.00000000000E+00 -0.50000000000E+03  0.50000000000E+03  0.00000000000E+00 0. -1.
         23    2    1    2    0    0 -0.11731457899E+03 -0.20501608689E+03 -0.39257133265E+03  0.46652590787E+03  0.87976503510E+02 0.  0.
        -11    1    1    2    0    0  0.10942685528E+03  0.22195075473E+03  0.42744691404E+03  0.49391015226E+03  0.00000000000E+00 0.  1.
         11    1    1    2    0    0  0.78877237070E+01 -0.16934667840E+02 -0.34875581394E+02  0.39563939865E+02  0.00000000000E+00 0. -1.
        -15    1    3    3    0    0 -0.39507820479E+02 -0.16026584173E+02 -0.10831749996E+03  0.11641974835E+03  0.17770000000E+01 0.  1.
         15    1    3    3    0    0 -0.77806758512E+02 -0.18898950272E+03 -0.28425383269E+03  0.35010615952E+03  0.17770000000E+01 0. -1.
</event>
<event>
 7    1  0.3260141E-006  0.5157276E+03  0.7546771E-02  0.9365290E-01
        -11   -1    0    0    0    0  0.00000000000E+00  0.00000000000E+00  0.50000000000E+03  0.50000000000E+03  0.00000000000E+00 0.  1.
         11   -1    0    0    0    0 -0.00000000000E+00 -0.00000000000E+00 -0.50000000000E+03  0.50000000000E+03  0.00000000000E+00 0. -1.
         23    2    1    2    0    0 -0.96054106154E+02  0.13094429745E+03  0.35975953502E+03  0.40528774238E+03  0.91969727323E+02 0.  0.
        -11    1    1    2    0    0 -0.80195616333E+02  0.56830295472E+02  0.50358132007E+02  0.11043985160E+03  0.00000000000E+00 0.  1.
         11    1    1    2    0    0  0.17624972249E+03 -0.18777459292E+03 -0.41011766703E+03  0.48427240602E+03  0.00000000000E+00 0. -1.
        -15    1    3    3    0    0 -0.54008999531E+02  0.12499236623E+03  0.31694445065E+03  0.34495942685E+03  0.17770000000E+01 0.  1.
         15    1    3    3    0    0 -0.42045106623E+02  0.59519312181E+01  0.42815084367E+02  0.60328315529E+02  0.17770000000E+01 0. -1.
</event>
<event>
 7    1  0.3260141E-006  0.5288674E+03  0.7546771E-02  0.9337437E-01
        -11   -1    0    0    0    0  0.00000000000E+00  0.00000000000E+00  0.50000000000E+03  0.50000000000E+03  0.00000000000E+00 0.  1.
         11   -1    0    0    0    0 -0.00000000000E+00 -0.00000000000E+00 -0.50000000000E+03  0.50000000000E+03  0.00000000000E+00 0. -1.
         23    2    1    2    0    0  0.37604396133E+01  0.37008590134E+02  0.36866770716E+03  0.38181680614E+03  0.92110903272E+02 0.  0.
        -11    1    1    2    0    0  0.86488668155E+02 -0.75163052889E+02  0.92163391395E+02  0.14705055237E+03  0.00000000000E+00 0.  1.
         11    1    1    2    0    0 -0.90249107768E+02  0.38154462755E+02 -0.46083109855E+03  0.47113264149E+03  0.00000000000E+00 0. -1.
        -15    1    3    3    0    0  0.44998387364E+02  0.67872240994E+01  0.21783746102E+03  0.22254716001E+03  0.17770000000E+01 0. -1.
         15    1    3    3    0    0 -0.41237947751E+02  0.30221366034E+02  0.15083024614E+03  0.15926964613E+03  0.17770000000E+01 0.  1.
</event>
<event>
 7    1  0.3260141E-006  0.4548808E+03  0.7546771E-02  0.9506843E-01
        -11   -1    0    0    0    0  0.00000000000E+00  0.00000000000E+00  0.50000000000E+03  0.50000000000E+03  0.00000000000E+00 0.  1.
         11   -1    0    0    0    0 -0.00000000000E+00 -0.00000000000E+00 -0.50000000000E+03  0.50000000000E+03  0.00000000000E+00 0.  1.
         23    2    1    2    0    0 -0.40450574995E+01 -0.93679135324E+02  0.41773620063E+03  0.43781140926E+03  0.91559564615E+02 0.  0.
        -11    1    1    2    0    0 -0.76841853698E+02  0.38515549141E+02  0.39494136271E+02  0.94593365545E+02  0.00000000000E+00 0.  1.
         11    1    1    2    0    0  0.80886911198E+02  0.55163586183E+02 -0.45723033690E+03  0.46759522520E+03  0.00000000000E+00 0.  1.
        -15    1    3    3    0    0  0.16884600976E+01  0.18300065940E+02  0.47394409945E+02  0.50863848989E+02  0.17770000000E+01 0.  1.
         15    1    3    3    0    0 -0.57335175971E+01 -0.11197920126E+03  0.37034179069E+03  0.38694756027E+03  0.17770000000E+01 0. -1.
</event>
<event>
 7    1  0.3260141E-006  0.4809432E+03  0.7546771E-02  0.9443490E-01
        -11   -1    0    0    0    0  0.00000000000E+00  0.00000000000E+00  0.50000000000E+03  0.50000000000E+03  0.00000000000E+00 0.  1.
         11   -1    0    0    0    0 -0.00000000000E+00 -0.00000000000E+00 -0.50000000000E+03  0.50000000000E+03  0.00000000000E+00 0. -1.
         23    2    1    2    0    0 -0.31585580663E+02  0.76576281432E+02  0.45804387867E+03  0.47465776197E+03  0.92920505918E+02 0.  0.
        -11    1    1    2    0    0 -0.51338449010E+01  0.45605449607E+02  0.39434269048E+01  0.46062609708E+02  0.00000000000E+00 0.  1.
         11    1    1    2    0    0  0.36719425564E+02 -0.12218173104E+03 -0.46198730558E+03  0.47927962833E+03  0.00000000000E+00 0. -1.
        -15    1    3    3    0    0 -0.55775379398E+02  0.52426159869E+02  0.40009376055E+03  0.40735435452E+03  0.17770000000E+01 0.  1.
         15    1    3    3    0    0  0.24189798735E+02  0.24150121563E+02  0.57950118121E+02  0.67303407444E+02  0.17770000000E+01 0. -1.
</event>
<event>
 7    1  0.3260141E-006  0.5388005E+03  0.7546771E-02  0.9316945E-01
        -11   -1    0    0    0    0  0.00000000000E+00  0.00000000000E+00  0.50000000000E+03  0.50000000000E+03  0.00000000000E+00 0. -1.
         11   -1    0    0    0    0 -0.00000000000E+00 -0.00000000000E+00 -0.50000000000E+03  0.50000000000E+03  0.00000000000E+00 0.  1.
         23    2    1    2    0    0  0.10832866588E+03 -0.19155279642E+02  0.21602856104E+03  0.25876786986E+03  0.90501086730E+02 0.  0.
        -11    1    1    2    0    0 -0.10526196523E+03  0.10579982964E+03  0.23694854350E+03  0.28003267228E+03  0.00000000000E+00 0. -1.
         11    1    1    2    0    0 -0.30667006469E+01 -0.86644550002E+02 -0.45297710453E+03  0.46119945786E+03  0.00000000000E+00 0.  1.
        -15    1    3    3    0    0  0.10560910698E+03  0.12453374013E+02  0.18979390946E+03  0.21756207344E+03  0.17770000000E+01 0.  1.
         15    1    3    3    0    0  0.27195588995E+01 -0.31608653655E+02  0.26234651577E+02  0.41205796423E+02  0.17770000000E+01 0. -1.
</event>
<event>
 7    1  0.3260141E-006  0.5112836E+03  0.7546771E-02  0.9374910E-01
        -11   -1    0    0    0    0  0.00000000000E+00  0.00000000000E+00  0.50000000000E+03  0.50000000000E+03  0.00000000000E+00 0.  1.
         11   -1    0    0    0    0 -0.00000000000E+00 -0.00000000000E+00 -0.50000000000E+03  0.50000000000E+03  0.00000000000E+00 0. -1.
         23    2    1    2    0    0  0.37969150475E+02 -0.11666961719E+03 -0.21564889396E+03  0.26511422575E+03  0.93421899276E+02 0.  0.
        -11    1    1    2    0    0 -0.64521153045E+01  0.25441671290E+03  0.41722208785E+03  0.48871644558E+03  0.00000000000E+00 0.  1.
         11    1    1    2    0    0 -0.31517035171E+02 -0.13774709571E+03 -0.20157319389E+03  0.24616932867E+03  0.00000000000E+00 0. -1.
        -15    1    3    3    0    0 -0.17205189481E+02  0.56063207184E+01 -0.14154904291E+02  0.23042752040E+02  0.17770000000E+01 0.  1.
         15    1    3    3    0    0  0.55174339956E+02 -0.12227593791E+03 -0.20149398967E+03  0.24207147371E+03  0.17770000000E+01 0. -1.
</event>
<event>
 7    1  0.3260141E-006  0.4676376E+03  0.7546771E-02  0.9475285E-01
        -11   -1    0    0    0    0  0.00000000000E+00  0.00000000000E+00  0.50000000000E+03  0.50000000000E+03  0.00000000000E+00 0. -1.
         11   -1    0    0    0    0 -0.00000000000E+00 -0.00000000000E+00 -0.50000000000E+03  0.50000000000E+03  0.00000000000E+00 0.  1.
         23    2    1    2    0    0  0.82888145801E+02 -0.64436203806E+00  0.42551118743E+03  0.44267629326E+03  0.89619585310E+02 0.  0.
        -11    1    1    2    0    0  0.78397904482E+01  0.49261679018E+02  0.50102148461E+02  0.70699367850E+02  0.00000000000E+00 0. -1.
         11    1    1    2    0    0 -0.90727936249E+02 -0.48617316980E+02 -0.47561333589E+03  0.48662433889E+03  0.00000000000E+00 0.  1.
        -15    1    3    3    0    0  0.31923147701E+02  0.40260516995E+02  0.25350353576E+03  0.25866425528E+03  0.17770000000E+01 0. -1.
         15    1    3    3    0    0  0.50964998100E+02 -0.40904879033E+02  0.17200765167E+03  0.18401203798E+03  0.17770000000E+01 0.  1.
</event>
<event>
 7    1  0.3260141E-006  0.5178581E+03  0.7546771E-02  0.9360714E-01
        -11   -1    0    0    0    0  0.00000000000E+00  0.00000000000E+00  0.50000000000E+03  0.50000000000E+03  0.00000000000E+00 0.  1.
         11   -1    0    0    0    0 -0.00000000000E+00 -0.00000000000E+00 -0.50000000000E+03  0.50000000000E+03  0.00000000000E+00 0. -1.
         23    2    1    2    0    0  0.44968658263E+02  0.26355739677E+02  0.13693107177E+03  0.17107282164E+03  0.88311871515E+02 0.  0.
        -11    1    1    2    0    0  0.25062444764E+02 -0.75317294329E+02  0.33757841507E+03  0.34678524664E+03  0.00000000000E+00 0.  1.
         11    1    1    2    0    0 -0.70031103027E+02  0.48961554651E+02 -0.47450948684E+03  0.48214193172E+03  0.00000000000E+00 0. -1.
        -15    1    3    3    0    0  0.21486175214E+02 -0.66187311494E+01 -0.53129075615E+01  0.23169981508E+02  0.17770000000E+01 0. -1.
         15    1    3    3    0    0  0.23482483050E+02  0.32974470827E+02  0.14224397933E+03  0.14790284014E+03  0.17770000000E+01 0.  1.
</event>
<event>
 7    1  0.3260141E-006  0.5092580E+03  0.7546771E-02  0.9379329E-01
        -11   -1    0    0    0    0  0.00000000000E+00  0.00000000000E+00  0.50000000000E+03  0.50000000000E+03  0.00000000000E+00 0. -1.
         11   -1    0    0    0    0 -0.00000000000E+00 -0.00000000000E+00 -0.50000000000E+03  0.50000000000E+03  0.00000000000E+00 0. -1.
         23    2    1    2    0    0  0.55483189863E+02 -0.10874542629E+03 -0.28786567677E+03  0.32580624617E+03  0.91537479140E+02 0.  0.
        -11    1    1    2    0    0 -0.84279492933E+02  0.11811102333E+03  0.46880106392E+03  0.49074197324E+03  0.00000000000E+00 0. -1.
         11    1    1    2    0    0  0.28796303071E+02 -0.93655970432E+01 -0.18093538716E+03  0.18345178060E+03  0.00000000000E+00 0. -1.
        -15    1    3    3    0    0 -0.10666421263E+02 -0.28278917802E+02 -0.14988335697E+03  0.15291058878E+03  0.17770000000E+01 0.  1.
         15    1    3    3    0    0  0.66149611126E+02 -0.80466508484E+02 -0.13798231980E+03  0.17289565739E+03  0.17770000000E+01 0. -1.
</event>
<event>
 7    1  0.3260141E-006  0.3719381E+03  0.7546771E-02  0.9743154E-01
        -11   -1    0    0    0    0  0.00000000000E+00  0.00000000000E+00  0.50000000000E+03  0.50000000000E+03  0.00000000000E+00 0.  1.
         11   -1    0    0    0    0 -0.00000000000E+00 -0.00000000000E+00 -0.50000000000E+03  0.50000000000E+03  0.00000000000E+00 0. -1.
         23    2    1    2    0    0 -0.10242236963E+03  0.27843381498E+03  0.30036595881E+03  0.43161102927E+03  0.89736504547E+02 0.  0.
        -11    1    1    2    0    0  0.46284514413E+02 -0.22508014769E+03  0.27564643203E+02  0.23143711611E+03  0.00000000000E+00 0.  1.
         11    1    1    2    0    0  0.56137855215E+02 -0.53353667298E+02 -0.32793060201E+03  0.33695185463E+03  0.00000000000E+00 0. -1.
        -15    1    3    3    0    0 -0.74198705241E+02  0.17335960446E+03  0.12851258021E+03  0.22820526137E+03  0.17770000000E+01 0. -1.
         15    1    3    3    0    0 -0.28223664388E+02  0.10507421053E+03  0.17185337859E+03  0.20340576789E+03  0.17770000000E+01 0.  1.
</event>
<event>
 7    1  0.3260141E-006  0.3389665E+03  0.7546771E-02  0.9856201E-01
        -11   -1    0    0    0    0  0.00000000000E+00  0.00000000000E+00  0.50000000000E+03  0.50000000000E+03  0.00000000000E+00 0.  1.
         11   -1    0    0    0    0 -0.00000000000E+00 -0.00000000000E+00 -0.50000000000E+03  0.50000000000E+03  0.00000000000E+00 0. -1.
         23    2    1    2    0    0  0.10599226392E+03 -0.37773014448E+03 -0.12964969662E+03  0.42385880137E+03  0.94513584198E+02 0.  0.
        -11    1    1    2    0    0 -0.24813464687E+03  0.14288345253E+03  0.78560556461E+02  0.29691454161E+03  0.00000000000E+00 0.  1.
         11    1    1    2    0    0  0.14214238295E+03  0.23484669195E+03  0.51089140161E+02  0.27922665703E+03  0.00000000000E+00 0. -1.
        -15    1    3    3    0    0  0.70696395534E+02 -0.24081652299E+03 -0.12957065786E+03  0.28245759185E+03  0.17770000000E+01 0.  1.
         15    1    3    3    0    0  0.35295868386E+02 -0.13691362149E+03 -0.79038757952E-01  0.14140120951E+03  0.17770000000E+01 0. -1.
</event>
<event>
 7    1  0.3260141E-006  0.4214976E+03  0.7546771E-02  0.9594932E-01
        -11   -1    0    0    0    0  0.00000000000E+00  0.00000000000E+00  0.50000000000E+03  0.50000000000E+03  0.00000000000E+00 0. -1.
         11   -1    0    0    0    0 -0.00000000000E+00 -0.00000000000E+00 -0.50000000000E+03  0.50000000000E+03  0.00000000000E+00 0.  1.
         23    2    1    2    0    0 -0.19629576494E+03 -0.44766939862E+02  0.31035068241E+03  0.38133877719E+03  0.92550584428E+02 0.  0.
        -11    1    1    2    0    0  0.57066614360E+02 -0.84513103713E+02  0.11446071067E+03  0.15329813260E+03  0.00000000000E+00 0. -1.
         11    1    1    2    0    0  0.13922915058E+03  0.12928004357E+03 -0.42481139308E+03  0.46536309021E+03  0.00000000000E+00 0.  1.
        -15    1    3    3    0    0 -0.14660833136E+02 -0.19166845330E+01 -0.43025692232E+01  0.15501081857E+02  0.17770000000E+01 0.  1.
         15    1    3    3    0    0 -0.18163493180E+03 -0.42850255329E+02  0.31465325163E+03  0.36583769533E+03  0.17770000000E+01 0. -1.
</event>
<event>
 7    1  0.3260141E-006  0.5114353E+03  0.7546771E-02  0.9374580E-01
        -11   -1    0    0    0    0  0.00000000000E+00  0.00000000000E+00  0.50000000000E+03  0.50000000000E+03  0.00000000000E+00 0.  1.
         11   -1    0    0    0    0 -0.00000000000E+00 -0.00000000000E+00 -0.50000000000E+03  0.50000000000E+03  0.00000000000E+00 0. -1.
         23    2    1    2    0    0 -0.31979816745E+02  0.10767342567E+03 -0.31956394438E+03  0.35076449776E+03  0.91095241742E+02 0.  0.
        -11    1    1    2    0    0  0.78756158676E+02 -0.94902692033E+02  0.47274351823E+03  0.48856472193E+03  0.00000000000E+00 0.  1.
         11    1    1    2    0    0 -0.46776341931E+02 -0.12770733639E+02 -0.15317957385E+03  0.16067078031E+03  0.00000000000E+00 0. -1.
        -15    1    3    3    0    0 -0.17476555906E+01  0.10522083982E+03 -0.28942514565E+03  0.30796842711E+03  0.17770000000E+01 0. -1.
         15    1    3    3    0    0 -0.30232161155E+02  0.24525858523E+01 -0.30138798727E+02  0.42796070651E+02  0.17770000000E+01 0.  1.
</event>
<event>
 7    1  0.3260141E-006  0.5227405E+03  0.7546771E-02  0.9350316E-01
        -11   -1    0    0    0    0  0.00000000000E+00  0.00000000000E+00  0.50000000000E+03  0.50000000000E+03  0.00000000000E+00 0. -1.
         11   -1    0    0    0    0 -0.00000000000E+00 -0.00000000000E+00 -0.50000000000E+03  0.50000000000E+03  0.00000000000E+00 0.  1.
         23    2    1    2    0    0  0.14105524382E+02  0.56322259357E+02  0.39961074855E+03  0.41563236781E+03  0.98439586033E+02 0.  0.
        -11    1    1    2    0    0 -0.63219526515E+02  0.62166050437E+02  0.60090182434E+02  0.10710815275E+03  0.00000000000E+00 0. -1.
         11    1    1    2    0    0  0.49114002133E+02 -0.11848830979E+03 -0.45970093099E+03  0.47725947944E+03  0.00000000000E+00 0.  1.
        -15    1    3    3    0    0  0.13403211305E+02 -0.27215505805E+02  0.12126988156E+03  0.12501948541E+03  0.17770000000E+01 0.  1.
         15    1    3    3    0    0  0.70231307703E+00  0.83537765162E+02  0.27834086700E+03  0.29061288241E+03  0.17770000000E+01 0. -1.
</event>
<event>
 7    1  0.3260141E-006  0.4314929E+03  0.7546771E-02  0.9567669E-01
        -11   -1    0    0    0    0  0.00000000000E+00  0.00000000000E+00  0.50000000000E+03  0.50000000000E+03  0.00000000000E+00 0.  1.
         11   -1    0    0    0    0 -0.00000000000E+00 -0.00000000000E+00 -0.50000000000E+03  0.50000000000E+03  0.00000000000E+00 0.  1.
         23    2    1    2    0    0 -0.13949570676E+03  0.13251526630E+03  0.35913665487E+03  0.41734776535E+03  0.90447069370E+02 0.  0.
        -11    1    1    2    0    0 -0.88692415545E+02 -0.10015785686E+03  0.23631630359E+02  0.13585431469E+03  0.00000000000E+00 0.  1.
         11    1    1    2    0    0  0.22818812231E+03 -0.32357409443E+02 -0.38276828523E+03  0.44679791997E+03  0.00000000000E+00 0.  1.
        -15    1    3    3    0    0 -0.51300050209E+02  0.78802664029E+02  0.94729968609E+02  0.13348587825E+03  0.17770000000E+01 0.  1.
         15    1    3    3    0    0 -0.88195656556E+02  0.53712602273E+02  0.26440668626E+03  0.28386188710E+03  0.17770000000E+01 0. -1.
</event>
<event>
 7    1  0.3260141E-006  0.4531824E+03  0.7546771E-02  0.9511128E-01
        -11   -1    0    0    0    0  0.00000000000E+00  0.00000000000E+00  0.50000000000E+03  0.50000000000E+03  0.00000000000E+00 0.  1.
         11   -1    0    0    0    0 -0.00000000000E+00 -0.00000000000E+00 -0.50000000000E+03  0.50000000000E+03  0.00000000000E+00 0.  1.
         23    2    1    2    0    0 -0.17324357012E+02 -0.77802114967E+02  0.44180331375E+03  0.45798049789E+03  0.90568570544E+02 0.  0.
        -11    1    1    2    0    0 -0.59880222550E+02  0.76834322194E+02 -0.40365240112E+01  0.97495885276E+02  0.00000000000E+00 0.  1.
         11    1    1    2    0    0  0.77204579562E+02  0.96779277315E+00 -0.43776678974E+03  0.44452361683E+03  0.00000000000E+00 0.  1.
        -15    1    3    3    0    0 -0.39172449206E+02 -0.88029287106E+02  0.34581662571E+03  0.35899294215E+03  0.17770000000E+01 0.  1.
         15    1    3    3    0    0  0.21848092194E+02  0.10227172140E+02  0.95986688036E+02  0.98987555742E+02  0.17770000000E+01 0. -1.
</event>
<event>
 7    1  0.3260141E-006  0.3241896E+03  0.7546771E-02  0.9911439E-01
        -11   -1    0    0    0    0  0.00000000000E+00  0.00000000000E+00  0.50000000000E+03  0.50000000000E+03  0.00000000000E+00 0.  1.
         11   -1    0    0    0    0 -0.00000000000E+00 -0.00000000000E+00 -0.50000000000E+03  0.50000000000E+03  0.00000000000E+00 0. -1.
         23    2    1    2    0    0  0.26494665457E+02  0.12498192700E+01  0.30888214305E+03  0.32312351293E+03  0.91088401927E+02 0.  0.
        -11    1    1    2    0    0 -0.21809762429E+03  0.19723397733E+03 -0.49459693967E+02  0.29818463552E+03  0.00000000000E+00 0.  1.
         11    1    1    2    0    0  0.19160295883E+03 -0.19848379660E+03 -0.25942244908E+03  0.37869185155E+03  0.00000000000E+00 0. -1.
        -15    1    3    3    0    0  0.59960368605E+02 -0.56800647550E+01  0.21080227456E+03  0.21924476191E+03  0.17770000000E+01 0.  1.
         15    1    3    3    0    0 -0.33465703148E+02  0.69298840250E+01  0.98079868490E+02  0.10387875101E+03  0.17770000000E+01 0. -1.
</event>
<event>
 7    1  0.3260141E-006  0.5214293E+03  0.7546771E-02  0.9353097E-01
        -11   -1    0    0    0    0  0.00000000000E+00  0.00000000000E+00  0.50000000000E+03  0.50000000000E+03  0.00000000000E+00 0.  1.
         11   -1    0    0    0    0 -0.00000000000E+00 -0.00000000000E+00 -0.50000000000E+03  0.50000000000E+03  0.00000000000E+00 0. -1.
         23    2    1    2    0    0  0.96151097403E+02 -0.10371769907E+02 -0.13937481915E+03  0.19275933812E+03  0.91532590243E+02 0.  0.
        -11    1    1    2    0    0 -0.10115614617E+03  0.71804940357E+02  0.46221357805E+03  0.47857069186E+03  0.00000000000E+00 0.  1.
         11    1    1    2    0    0  0.50050487718E+01 -0.61433170450E+02 -0.32283875890E+03  0.32866997002E+03  0.00000000000E+00 0. -1.
        -15    1    3    3    0    0  0.50137813230E+02 -0.20950113450E+02 -0.13472818084E+03  0.14528436946E+03  0.17770000000E+01 0.  1.
         15    1    3    3    0    0  0.46013284173E+02  0.10578343543E+02 -0.46466383123E+01  0.47474968658E+02  0.17770000000E+01 0. -1.
</event>
<event>
 7    1  0.3260141E-006  0.4459613E+03  0.7546771E-02  0.9529571E-01
        -11   -1    0    0    0    0  0.00000000000E+00  0.00000000000E+00  0.50000000000E+03  0.50000000000E+03  0.00000000000E+00 0.  1.
         11   -1    0    0    0    0 -0.00000000000E+00 -0.00000000000E+00 -0.50000000000E+03  0.50000000000E+03  0.00000000000E+00 0. -1.
         23    2    1    2    0    0  0.16625742755E+03  0.71631987973E+02  0.36610295057E+03  0.41961631823E+03  0.96300624048E+02 0.  0.
        -11    1    1    2    0    0  0.57502623402E+02 -0.83984481734E+02  0.45684314706E+02  0.11156613053E+03  0.00000000000E+00 0.  1.
         11    1    1    2    0    0 -0.22376005095E+03  0.12352493761E+02 -0.41178726528E+03  0.46881755124E+03  0.00000000000E+00 0. -1.
        -15    1    3    3    0    0  0.36494868852E+02  0.39142177375E+02  0.19614862586E+03  0.20332591241E+03  0.17770000000E+01 0.  1.
         15    1    3    3    0    0  0.12976255870E+03  0.32489810598E+02  0.16995432472E+03  0.21629040582E+03  0.17770000000E+01 0. -1.
</event>
<event>
 7    1  0.3260141E-006  0.5318669E+03  0.7546771E-02  0.9331199E-01
        -11   -1    0    0    0    0  0.00000000000E+00  0.00000000000E+00  0.50000000000E+03  0.50000000000E+03  0.00000000000E+00 0.  1.
         11   -1    0    0    0    0 -0.00000000000E+00 -0.00000000000E+00 -0.50000000000E+03  0.50000000000E+03  0.00000000000E+00 0. -1.
         23    2    1    2    0    0 -0.51485765004E+01  0.90419042883E+01  0.32447798736E+03  0.33713172782E+03  0.90904200949E+02 0.  0.
        -11    1    1    2    0    0  0.14713606349E+03  0.48886723357E+02  0.11782554567E+03  0.19473518458E+03  0.00000000000E+00 0.  1.
         11    1    1    2    0    0 -0.14198748699E+03 -0.57928627646E+02 -0.44230353304E+03  0.46813308759E+03  0.00000000000E+00 0. -1.
        -15    1    3    3    0    0 -0.39841486904E+02  0.25794466224E+02  0.12017292190E+03  0.12921837119E+03  0.17770000000E+01 0. -1.
         15    1    3    3    0    0  0.34692910404E+02 -0.16752561936E+02  0.20430506546E+03  0.20791335663E+03  0.17770000000E+01 0.  1.
</event>
<event>
 7    1  0.3260141E-006  0.4257573E+03  0.7546771E-02  0.9583215E-01
        -11   -1    0    0    0    0  0.00000000000E+00  0.00000000000E+00  0.50000000000E+03  0.50000000000E+03  0.00000000000E+00 0. -1.
         11   -1    0    0    0    0 -0.00000000000E+00 -0.00000000000E+00 -0.50000000000E+03  0.50000000000E+03  0.00000000000E+00 0. -1.
         23    2    1    2    0    0  0.70054854457E+02 -0.38718482178E+01  0.37107779223E+03  0.38810201925E+03  0.89452644583E+02 0.  0.
        -11    1    1    2    0    0 -0.17733841930E+02  0.12217661863E+03  0.77013448050E+02  0.14550837251E+03  0.00000000000E+00 0. -1.
         11    1    1    2    0    0 -0.52321012527E+02 -0.11830477042E+03 -0.44809124028E+03  0.46638960823E+03  0.00000000000E+00 0. -1.
        -15    1    3    3    0    0  0.26273895428E+02 -0.45849180956E+02  0.18215431287E+03  0.18967291953E+03  0.17770000000E+01 0.  1.
         15    1    3    3    0    0  0.43780959029E+02  0.41977332738E+02  0.18892347936E+03  0.19842909973E+03  0.17770000000E+01 0. -1.
</event>
<event>
 7    1  0.3260141E-006  0.5168576E+03  0.7546771E-02  0.9362860E-01
        -11   -1    0    0    0    0  0.00000000000E+00  0.00000000000E+00  0.50000000000E+03  0.50000000000E+03  0.00000000000E+00 0.  1.
         11   -1    0    0    0    0 -0.00000000000E+00 -0.00000000000E+00 -0.50000000000E+03  0.50000000000E+03  0.00000000000E+00 0. -1.
         23    2    1    2    0    0 -0.83785181247E+02  0.72972041471E+02  0.34661357169E+03  0.37600372561E+03  0.94302482281E+02 0.  0.
        -11    1    1    2    0    0 -0.17595950042E+02 -0.61223134402E+02  0.12562616951E+03  0.14085391052E+03  0.00000000000E+00 0.  1.
         11    1    1    2    0    0  0.10138113129E+03 -0.11748907070E+02 -0.47223974119E+03  0.48314236387E+03  0.00000000000E+00 0. -1.
        -15    1    3    3    0    0 -0.25350850915E+02  0.14456814716E+02  0.12489000428E+02  0.31793049469E+02  0.17770000000E+01 0. -1.
         15    1    3    3    0    0 -0.58434330332E+02  0.58515226755E+02  0.33412457126E+03  0.34421067614E+03  0.17770000000E+01 0.  1.
</event>
<event>
 7    1  0.3260141E-006  0.4457358E+03  0.7546771E-02  0.9530153E-01
        -11   -1    0    0    0    0  0.00000000000E+00  0.00000000000E+00  0.50000000000E+03  0.50000000000E+03  0.00000000000E+00 0.  1.
         11   -1    0    0    0    0 -0.00000000000E+00 -0.00000000000E+00 -0.50000000000E+03  0.50000000000E+03  0.00000000000E+00 0.  1.
         23    2    1    2    0    0  0.10183126843E+03  0.14608080540E+03  0.40925241224E+03  0.45542637201E+03  0.90644550079E+02 0.  0.
        -11    1    1    2    0    0 -0.13398076572E+02 -0.10922985048E+03  0.13707780102E+02  0.11089892663E+03  0.00000000000E+00 0.  1.
         11    1    1    2    0    0 -0.88433191853E+02 -0.36850954919E+02 -0.42296019234E+03  0.43367470137E+03  0.00000000000E+00 0.  1.
        -15    1    3    3    0    0  0.11414255751E+03  0.10519041082E+03  0.34426182884E+03  0.37764124575E+03  0.17770000000E+01 0.  1.
         15    1    3    3    0    0 -0.12311289084E+02  0.40890394577E+02  0.64990583400E+02  0.77785126260E+02  0.17770000000E+01 0. -1.
</event>
<event>
 7    1  0.3260141E-006  0.5095082E+03  0.7546771E-02  0.9378782E-01
        -11   -1    0    0    0    0  0.00000000000E+00  0.00000000000E+00  0.50000000000E+03  0.50000000000E+03  0.00000000000E+00 0. -1.
         11   -1    0    0    0    0 -0.00000000000E+00 -0.00000000000E+00 -0.50000000000E+03  0.50000000000E+03  0.00000000000E+00 0.  1.
         23    2    1    2    0    0 -0.49411956044E+00  0.21547149138E+03  0.20276190168E+03  0.31025132168E+03  0.93355696540E+02 0.  0.
        -11    1    1    2    0    0 -0.36806427459E+02  0.11128972892E+03  0.16113093780E+03  0.19925685931E+03  0.00000000000E+00 0. -1.
         11    1    1    2    0    0  0.37300547019E+02 -0.32676122029E+03 -0.36389283948E+03  0.49049181902E+03  0.00000000000E+00 0.  1.
        -15    1    3    3    0    0 -0.45680328623E+02  0.99881930136E+02  0.82005062059E+02  0.13708056143E+03  0.17770000000E+01 0.  1.
         15    1    3    3    0    0  0.45186209062E+02  0.11558956124E+03  0.12075683963E+03  0.17317076024E+03  0.17770000000E+01 0. -1.
</event>
<event>
 7    1  0.3260141E-006  0.4751992E+03  0.7546771E-02  0.9457080E-01
        -11   -1    0    0    0    0  0.00000000000E+00  0.00000000000E+00  0.50000000000E+03  0.50000000000E+03  0.00000000000E+00 0.  1.
         11   -1    0    0    0    0 -0.00000000000E+00 -0.00000000000E+00 -0.50000000000E+03  0.50000000000E+03  0.00000000000E+00 0. -1.
         23    2    1    2    0    0 -0.11745767427E+03  0.34185376854E+02 -0.41482698116E+03  0.44742217716E+03  0.11463086444E+03 0.  0.
        -11    1    1    2    0    0  0.14280316923E+03 -0.20514208635E+02  0.46929272677E+03  0.49096765809E+03  0.00000000000E+00 0.  1.
         11    1    1    2    0    0 -0.25345494967E+02 -0.13671168219E+02 -0.54465745610E+02  0.61610164749E+02  0.00000000000E+00 0. -1.
        -15    1    3    3    0    0 -0.12620235442E+03 -0.56445075261E+01 -0.29825004845E+03  0.32390607258E+03  0.17770000000E+01 0.  1.
         15    1    3    3    0    0  0.87446801564E+01  0.39829884380E+02 -0.11657693271E+03  0.12351610458E+03  0.17770000000E+01 0. -1.
</event>
<event>
 7    1  0.3260141E-006  0.5112322E+03  0.7546771E-02  0.9375022E-01
        -11   -1    0    0    0    0  0.00000000000E+00  0.00000000000E+00  0.50000000000E+03  0.50000000000E+03  0.00000000000E+00 0. -1.
         11   -1    0    0    0    0 -0.00000000000E+00 -0.00000000000E+00 -0.50000000000E+03  0.50000000000E+03  0.00000000000E+00 0.  1.
         23    2    1    2    0    0  0.11253463784E+02  0.11959534622E+03  0.34038223829E+03  0.37233301717E+03  0.91335208168E+02 0.  0.
        -11    1    1    2    0    0 -0.29935785544E+02  0.91659178883E+02  0.99977184306E+02  0.13889922142E+03  0.00000000000E+00 0. -1.
         11    1    1    2    0    0  0.18682321761E+02 -0.21125452511E+03 -0.44035942259E+03  0.48876776141E+03  0.00000000000E+00 0.  1.
        -15    1    3    3    0    0 -0.12193633428E+02  0.10555741814E+03  0.32266448404E+03  0.33971544006E+03  0.17770000000E+01 0. -1.
         15    1    3    3    0    0  0.23447097212E+02  0.14037928083E+02  0.17717754242E+02  0.32617577116E+02  0.17770000000E+01 0.  1.
</event>
<event>
 7    1  0.3260141E-006  0.5372237E+03  0.7546771E-02  0.9320167E-01
        -11   -1    0    0    0    0  0.00000000000E+00  0.00000000000E+00  0.50000000000E+03  0.50000000000E+03  0.00000000000E+00 0. -1.
         11   -1    0    0    0    0 -0.00000000000E+00 -0.00000000000E+00 -0.50000000000E+03  0.50000000000E+03  0.00000000000E+00 0.  1.
         23    2    1    2    0    0 -0.73867574860E+02 -0.42429177082E+02  0.11810275817E+03  0.17151568113E+03  0.90624023878E+02 0.  0.
        -11    1    1    2    0    0  0.15191390234E+03 -0.44706150269E+02  0.32964507200E+03  0.36570800797E+03  0.00000000000E+00 0. -1.
         11    1    1    2    0    0 -0.78046327479E+02  0.87135327351E+02 -0.44774783017E+03  0.46277631090E+03  0.00000000000E+00 0.  1.
        -15    1    3    3    0    0  0.15232253030E+02  0.95774781999E+01  0.57534997712E+01  0.18973932372E+02  0.17770000000E+01 0.  1.
         15    1    3    3    0    0 -0.89099827890E+02 -0.52006655282E+02  0.11234925840E+03  0.15254174876E+03  0.17770000000E+01 0. -1.
</event>
<event>
 7    1  0.3260141E-006  0.3455228E+03  0.7546771E-02  0.9832652E-01
        -11   -1    0    0    0    0  0.00000000000E+00  0.00000000000E+00  0.50000000000E+03  0.50000000000E+03  0.00000000000E+00 0. -1.
         11   -1    0    0    0    0 -0.00000000000E+00 -0.00000000000E+00 -0.50000000000E+03  0.50000000000E+03  0.00000000000E+00 0.  1.
         23    2    1    2    0    0  0.12207523649E+03  0.27473962203E+02  0.26228914317E+03  0.30475850545E+03  0.91787635659E+02 0.  0.
        -11    1    1    2    0    0 -0.22122983189E+03 -0.29292787428E+02  0.15150437557E+03  0.26973001637E+03  0.00000000000E+00 0. -1.
         11    1    1    2    0    0  0.99154595395E+02  0.18188252251E+01 -0.41379351874E+03  0.42551147818E+03  0.00000000000E+00 0.  1.
        -15    1    3    3    0    0  0.16495991122E+02 -0.29570018961E+02  0.75087650421E+02  0.82388207404E+02  0.17770000000E+01 0.  1.
         15    1    3    3    0    0  0.10557924537E+03  0.57043981163E+02  0.18720149274E+03  0.22237029805E+03  0.17770000000E+01 0. -1.
</event>
<event>
 7    1  0.3260141E-006  0.3778590E+03  0.7546771E-02  0.9724182E-01
        -11   -1    0    0    0    0  0.00000000000E+00  0.00000000000E+00  0.50000000000E+03  0.50000000000E+03  0.00000000000E+00 0. -1.
         11   -1    0    0    0    0 -0.00000000000E+00 -0.00000000000E+00 -0.50000000000E+03  0.50000000000E+03  0.00000000000E+00 0.  1.
         23    2    1    2    0    0  0.15237817803E+03  0.12660241730E+03  0.58897776642E+00  0.21874637247E+03  0.92748840265E+02 0.  0.
        -11    1    1    2    0    0 -0.18197963486E+03 -0.38609671348E+02  0.36198125810E+03  0.40698614895E+03  0.00000000000E+00 0. -1.
         11    1    1    2    0    0  0.29601456830E+02 -0.87992745949E+02 -0.36257023586E+03  0.37426747858E+03  0.00000000000E+00 0.  1.
        -15    1    3    3    0    0  0.15657373138E+03  0.10126897679E+03 -0.17483622938E+02  0.18729541858E+03  0.17770000000E+01 0.  1.
         15    1    3    3    0    0 -0.41955533556E+01  0.25333440503E+02  0.18072600704E+02  0.31450953895E+02  0.17770000000E+01 0. -1.
</event>
<event>
 7    1  0.3260141E-006  0.4390067E+03  0.7546771E-02  0.9547688E-01
        -11   -1    0    0    0    0  0.00000000000E+00  0.00000000000E+00  0.50000000000E+03  0.50000000000E+03  0.00000000000E+00 0.  1.
         11   -1    0    0    0    0 -0.00000000000E+00 -0.00000000000E+00 -0.50000000000E+03  0.50000000000E+03  0.00000000000E+00 0. -1.
         23    2    1    2    0    0  0.14223309766E+02 -0.22533241629E+02  0.43741449341E+03  0.44805440444E+03  0.93334135086E+02 0.  0.
        -11    1    1    2    0    0  0.81458166087E+02  0.89149010474E+02 -0.24936992979E+02  0.12330787692E+03  0.00000000000E+00 0.  1.
         11    1    1    2    0    0 -0.95681475853E+02 -0.66615768845E+02 -0.41247750043E+03  0.42863771864E+03  0.00000000000E+00 0. -1.
        -15    1    3    3    0    0  0.54198048055E+02 -0.10111151981E+02  0.25050877892E+03  0.25651017495E+03  0.17770000000E+01 0.  1.
         15    1    3    3    0    0 -0.39974738289E+02 -0.12422089648E+02  0.18690571449E+03  0.19154422949E+03  0.17770000000E+01 0. -1.
</event>
<event>
 7    1  0.3260141E-006  0.3683433E+03  0.7546771E-02  0.9754858E-01
        -11   -1    0    0    0    0  0.00000000000E+00  0.00000000000E+00  0.50000000000E+03  0.50000000000E+03  0.00000000000E+00 0. -1.
         11   -1    0    0    0    0 -0.00000000000E+00 -0.00000000000E+00 -0.50000000000E+03  0.50000000000E+03  0.00000000000E+00 0.  1.
         23    2    1    2    0    0  0.23609833019E+02  0.14019816952E+02  0.21116500372E+03  0.23315473806E+03  0.94955218923E+02 0.  0.
        -11    1    1    2    0    0  0.15736271582E+03  0.24698787867E+03  0.11217520994E+03  0.31360694231E+03  0.00000000000E+00 0. -1.
         11    1    1    2    0    0 -0.18097254884E+03 -0.26100769563E+03 -0.32334021366E+03  0.45323831963E+03  0.00000000000E+00 0.  1.
        -15    1    3    3    0    0  0.59527134602E+01 -0.16398400602E+02 -0.14942929720E+01  0.17599232379E+02  0.17770000000E+01 0.  1.
         15    1    3    3    0    0  0.17657119559E+02  0.30418217554E+02  0.21265929669E+03  0.21555550568E+03  0.17770000000E+01 0. -1.
</event>
<event>
 7    1  0.3260141E-006  0.3464460E+03  0.7546771E-02  0.9829381E-01
        -11   -1    0    0    0    0  0.00000000000E+00  0.00000000000E+00  0.50000000000E+03  0.50000000000E+03  0.00000000000E+00 0. -1.
         11   -1    0    0    0    0 -0.00000000000E+00 -0.00000000000E+00 -0.50000000000E+03  0.50000000000E+03  0.00000000000E+00 0.  1.
         23    2    1    2    0    0 -0.22992804601E+03 -0.47569607875E+02 -0.33622603515E+02  0.26763420938E+03  0.12396699814E+03 0.  0.
        -11    1    1    2    0    0  0.10468630433E+03  0.23745878147E+02  0.36333689779E+03  0.37886249530E+03  0.00000000000E+00 0. -1.
         11    1    1    2    0    0  0.12524174167E+03  0.23823729728E+02 -0.32971429428E+03  0.35350329533E+03  0.00000000000E+00 0.  1.
        -15    1    3    3    0    0 -0.28964227656E+02  0.15545983378E+00 -0.52734128631E+02  0.60191334119E+02  0.17770000000E+01 0.  1.
         15    1    3    3    0    0 -0.20096381835E+03 -0.47725067709E+02  0.19111525117E+02  0.20744287526E+03  0.17770000000E+01 0.  1.
</event>
<event>
 6    1  0.3260141E-006  0.5430677E+03  0.7546771E-02  0.9308285E-01
        -11   -1    0    0    0    0  0.00000000000E+00  0.00000000000E+00  0.50000000000E+03  0.50000000000E+03  0.00000000000E+00 0.  1.
         11   -1    0    0    0    0 -0.00000000000E+00 -0.00000000000E+00 -0.50000000000E+03  0.50000000000E+03  0.00000000000E+00 0.  1.
        -11    1    1    2    0    0  0.72249323624E+02  0.86373409211E+02  0.12826058888E+03  0.17067837954E+03  0.00000000000E+00 0.  1.
         11    1    1    2    0    0 -0.78847427110E+02  0.37988812827E+02 -0.44847195091E+03  0.45693233352E+03  0.00000000000E+00 0.  1.
        -15    1    1    2    0    0 -0.98064331372E+01 -0.12087175844E+03  0.33089718399E+03  0.35242339909E+03  0.17770000000E+01 0.  1.
         15    1    1    2    0    0  0.16404536624E+02 -0.34904635946E+01 -0.10685821961E+02  0.19965887857E+02  0.17770000000E+01 0. -1.
</event>
<event>
 7    1  0.3260141E-006  0.3780681E+03  0.7546771E-02  0.9723519E-01
        -11   -1    0    0    0    0  0.00000000000E+00  0.00000000000E+00  0.50000000000E+03  0.50000000000E+03  0.00000000000E+00 0. -1.
         11   -1    0    0    0    0 -0.00000000000E+00 -0.00000000000E+00 -0.50000000000E+03  0.50000000000E+03  0.00000000000E+00 0.  1.
         23    2    1    2    0    0  0.14307591749E+02  0.93361713041E+02  0.16616575726E+03  0.22008074734E+03  0.10910251978E+03 0.  0.
        -11    1    1    2    0    0  0.30703189922E+03  0.82797876309E+02  0.92717955614E+02  0.33124114291E+03  0.00000000000E+00 0. -1.
         11    1    1    2    0    0 -0.32133949097E+03 -0.17615958935E+03 -0.25888371287E+03  0.44867810975E+03  0.00000000000E+00 0.  1.
        -15    1    3    3    0    0  0.49687311009E+02  0.72852609110E+02  0.15384247842E+03  0.17733301279E+03  0.17770000000E+01 0. -1.
         15    1    3    3    0    0 -0.35379719259E+02  0.20509103931E+02  0.12323278834E+02  0.42747734550E+02  0.17770000000E+01 0.  1.
</event>
<event>
 7    1  0.3260141E-006  0.3884559E+03  0.7546771E-02  0.9691139E-01
        -11   -1    0    0    0    0  0.00000000000E+00  0.00000000000E+00  0.50000000000E+03  0.50000000000E+03  0.00000000000E+00 0.  1.
         11   -1    0    0    0    0 -0.00000000000E+00 -0.00000000000E+00 -0.50000000000E+03  0.50000000000E+03  0.00000000000E+00 0.  1.
         23    2    1    2    0    0 -0.31155686541E+02 -0.15736798380E+03  0.35935335784E+03  0.40394238779E+03  0.91100261968E+02 0.  0.
        -11    1    1    2    0    0 -0.19168442474E+03  0.50074477893E+02 -0.58459345556E+02  0.20656201758E+03  0.00000000000E+00 0.  1.
         11    1    1    2    0    0  0.22284011129E+03  0.10729350590E+03 -0.30089401228E+03  0.38949559463E+03  0.00000000000E+00 0.  1.
        -15    1    3    3    0    0  0.28714162344E+02 -0.56489965394E+02  0.16708362212E+03  0.17870566253E+03  0.17770000000E+01 0.  1.
         15    1    3    3    0    0 -0.59869848885E+02 -0.10087801840E+03  0.19226973572E+03  0.22523672526E+03  0.17770000000E+01 0. -1.
</event>
<event>
 7    1  0.3260141E-006  0.5142404E+03  0.7546771E-02  0.9368498E-01
        -11   -1    0    0    0    0  0.00000000000E+00  0.00000000000E+00  0.50000000000E+03  0.50000000000E+03  0.00000000000E+00 0.  1.
         11   -1    0    0    0    0 -0.00000000000E+00 -0.00000000000E+00 -0.50000000000E+03  0.50000000000E+03  0.00000000000E+00 0.  1.
         23    2    1    2    0    0  0.15985569001E+02 -0.46882098763E+02 -0.13348411693E+03  0.16875561757E+03  0.90592380408E+02 0.  0.
        -11    1    1    2    0    0 -0.15600612369E+02  0.10448524465E+03  0.47413271908E+03  0.48575959152E+03  0.00000000000E+00 0.  1.
         11    1    1    2    0    0 -0.38495663257E+00 -0.57603145885E+02 -0.34064860214E+03  0.34548479091E+03  0.00000000000E+00 0.  1.
        -15    1    3    3    0    0  0.46455201782E+02 -0.11246647716E+02 -0.10080638997E+03  0.11157803926E+03  0.17770000000E+01 0.  1.
         15    1    3    3    0    0 -0.30469632780E+02 -0.35635451046E+02 -0.32677726962E+02  0.57177578311E+02  0.17770000000E+01 0. -1.
</event>
<event>
 7    1  0.3260141E-006  0.5161615E+03  0.7546771E-02  0.9364356E-01
        -11   -1    0    0    0    0  0.00000000000E+00  0.00000000000E+00  0.50000000000E+03  0.50000000000E+03  0.00000000000E+00 0. -1.
         11   -1    0    0    0    0 -0.00000000000E+00 -0.00000000000E+00 -0.50000000000E+03  0.50000000000E+03  0.00000000000E+00 0. -1.
         23    2    1    2    0    0 -0.18936082349E+02 -0.24094951244E+02  0.21608419120E+03  0.23666136802E+03  0.91526408977E+02 0.  0.
        -11    1    1    2    0    0  0.50621369402E+02 -0.13355591325E+03  0.24025115250E+03  0.27950012752E+03  0.00000000000E+00 0. -1.
         11    1    1    2    0    0 -0.31685287053E+02  0.15765086449E+03 -0.45633534370E+03  0.48383850446E+03  0.00000000000E+00 0. -1.
        -15    1    3    3    0    0  0.32246286713E+02  0.10594709069E+00  0.38443839328E+02  0.50208771572E+02  0.17770000000E+01 0.  1.
         15    1    3    3    0    0 -0.51182369061E+02 -0.24200898334E+02  0.17764035187E+03  0.18645259645E+03  0.17770000000E+01 0. -1.
</event>
<event>
 7    1  0.3260141E-006  0.5235848E+03  0.7546771E-02  0.9348530E-01
        -11   -1    0    0    0    0  0.00000000000E+00  0.00000000000E+00  0.50000000000E+03  0.50000000000E+03  0.00000000000E+00 0.  1.
         11   -1    0    0    0    0 -0.00000000000E+00 -0.00000000000E+00 -0.50000000000E+03  0.50000000000E+03  0.00000000000E+00 0.  1.
         23    2    1    2    0    0 -0.19447128112E+03  0.35562324664E+02  0.42102991165E+03  0.47641519047E+03  0.10306060885E+03 0.  0.
        -11    1    1    2    0    0  0.13127103794E+03 -0.75619209391E+02 -0.74039730326E+02  0.16861859891E+03  0.00000000000E+00 0.  1.
         11    1    1    2    0    0  0.63200243175E+02  0.40056884728E+02 -0.34699018132E+03  0.35496621062E+03  0.00000000000E+00 0.  1.
        -15    1    3    3    0    0 -0.17421661880E+03  0.66009579268E+02  0.35441387310E+03  0.40040110639E+03  0.17770000000E+01 0.  1.
         15    1    3    3    0    0 -0.20254662315E+02 -0.30447254604E+02  0.66616038543E+02  0.76014084081E+02  0.17770000000E+01 0. -1.
</event>
<event>
 7    1  0.3260141E-006  0.4017882E+03  0.7546771E-02  0.9651132E-01
        -11   -1    0    0    0    0  0.00000000000E+00  0.00000000000E+00  0.50000000000E+03  0.50000000000E+03  0.00000000000E+00 0.  1.
         11   -1    0    0    0    0 -0.00000000000E+00 -0.00000000000E+00 -0.50000000000E+03  0.50000000000E+03  0.00000000000E+00 0. -1.
         23    2    1    2    0    0  0.10870919878E+03 -0.31528762542E+02  0.33732360613E+03  0.36995848705E+03  0.10134255829E+03 0.  0.
        -11    1    1    2    0    0 -0.61493940545E+02  0.15544270258E+03  0.84897128975E+02  0.18748722894E+03  0.00000000000E+00 0.  1.
         11    1    1    2    0    0 -0.47215258233E+02 -0.12391394003E+03 -0.42222073510E+03  0.44255428401E+03  0.00000000000E+00 0. -1.
        -15    1    3    3    0    0  0.48979399494E+02 -0.40580136964E+02  0.27829602633E+03  0.28547778388E+03  0.17770000000E+01 0.  1.
         15    1    3    3    0    0  0.59729799283E+02  0.90513744224E+01  0.59027579800E+02  0.84480703166E+02  0.17770000000E+01 0. -1.
</event>
<event>
 7    1  0.3260141E-006  0.5157334E+03  0.7546771E-02  0.9365277E-01
        -11   -1    0    0    0    0  0.00000000000E+00  0.00000000000E+00  0.50000000000E+03  0.50000000000E+03  0.00000000000E+00 0. -1.
         11   -1    0    0    0    0 -0.00000000000E+00 -0.00000000000E+00 -0.50000000000E+03  0.50000000000E+03  0.00000000000E+00 0. -1.
         23    2    1    2    0    0  0.69041562651E+01 -0.20819541522E+02  0.37070964200E+03  0.38241686293E+03  0.91301137423E+02 0.  0.
        -11    1    1    2    0    0  0.58703912997E+02 -0.63137846526E+02  0.10168947404E+03  0.13331648883E+03  0.00000000000E+00 0. -1.
         11    1    1    2    0    0 -0.65608069262E+02  0.83957388048E+02 -0.47239911604E+03  0.48426664824E+03  0.00000000000E+00 0. -1.
        -15    1    3    3    0    0 -0.35290381628E+02  0.79510831903E+01  0.88610089691E+02  0.95726362531E+02  0.17770000000E+01 0.  1.
         15    1    3    3    0    0  0.42194537893E+02 -0.28770624712E+02  0.28209955231E+03  0.28669050040E+03  0.17770000000E+01 0. -1.
</event>
<event>
 7    1  0.3260141E-006  0.4736252E+03  0.7546771E-02  0.9460840E-01
        -11   -1    0    0    0    0  0.00000000000E+00  0.00000000000E+00  0.50000000000E+03  0.50000000000E+03  0.00000000000E+00 0. -1.
         11   -1    0    0    0    0 -0.00000000000E+00 -0.00000000000E+00 -0.50000000000E+03  0.50000000000E+03  0.00000000000E+00 0.  1.
         23    2    1    2    0    0  0.96562125301E+02  0.64249981033E+02  0.45400646820E+03  0.47747951268E+03  0.91719723920E+02 0.  0.
        -11    1    1    2    0    0 -0.54981513341E+01 -0.59556642956E+02 -0.37076061572E+00  0.59811042891E+02  0.00000000000E+00 0. -1.
         11    1    1    2    0    0 -0.91063973967E+02 -0.46933380767E+01 -0.45363570758E+03  0.46270944443E+03  0.00000000000E+00 0.  1.
        -15    1    3    3    0    0  0.64959015462E+02  0.85702582145E+02  0.29670614222E+03  0.31559831881E+03  0.17770000000E+01 0. -1.
         15    1    3    3    0    0  0.31603109839E+02 -0.21452601113E+02  0.15730032597E+03  0.16188119386E+03  0.17770000000E+01 0.  1.
</event>
<event>
 7    1  0.3260141E-006  0.5170178E+03  0.7546771E-02  0.9362516E-01
        -11   -1    0    0    0    0  0.00000000000E+00  0.00000000000E+00  0.50000000000E+03  0.50000000000E+03  0.00000000000E+00 0.  1.
         11   -1    0    0    0    0 -0.00000000000E+00 -0.00000000000E+00 -0.50000000000E+03  0.50000000000E+03  0.00000000000E+00 0. -1.
         23    2    1    2    0    0  0.28900253078E+02  0.54951006268E+01 -0.11437764212E+03  0.14918927793E+03  0.91157966593E+02 0.  0.
        -11    1    1    2    0    0 -0.99223624037E+02  0.69557303759E+02  0.46753423609E+03  0.48298220256E+03  0.00000000000E+00 0.  1.
         11    1    1    2    0    0  0.70323370959E+02 -0.75052404386E+02 -0.35315659397E+03  0.36782851951E+03  0.00000000000E+00 0. -1.
        -15    1    3    3    0    0  0.12800400868E+02  0.42726519265E+02 -0.93330704061E+02  0.10345619247E+03  0.17770000000E+01 0. -1.
         15    1    3    3    0    0  0.16099852210E+02 -0.37231418638E+02 -0.21046938059E+02  0.45733085460E+02  0.17770000000E+01 0.  1.
</event>
<event>
 7    1  0.3260141E-006  0.4227946E+03  0.7546771E-02  0.9591349E-01
        -11   -1    0    0    0    0  0.00000000000E+00  0.00000000000E+00  0.50000000000E+03  0.50000000000E+03  0.00000000000E+00 0.  1.
         11   -1    0    0    0    0 -0.00000000000E+00 -0.00000000000E+00 -0.50000000000E+03  0.50000000000E+03  0.00000000000E+00 0. -1.
         23    2    1    2    0    0  0.11213303619E+03  0.10599181816E+03  0.34003576543E+03  0.38418852919E+03  0.90379316551E+02 0.  0.
        -11    1    1    2    0    0 -0.18774973130E+02 -0.95005313736E+02  0.11547160778E+03  0.15070567825E+03  0.00000000000E+00 0.  1.
         11    1    1    2    0    0 -0.93358063063E+02 -0.10986504424E+02 -0.45550737322E+03  0.46510579256E+03  0.00000000000E+00 0. -1.
        -15    1    3    3    0    0  0.42694906481E+02 -0.38848860518E+00  0.14707325113E+03  0.15315581899E+03  0.17770000000E+01 0. -1.
         15    1    3    3    0    0  0.69438129712E+02  0.10638030677E+03  0.19296251430E+03  0.23103271019E+03  0.17770000000E+01 0.  1.
</event>
<event>
 7    1  0.3260141E-006  0.4577323E+03  0.7546771E-02  0.9499694E-01
        -11   -1    0    0    0    0  0.00000000000E+00  0.00000000000E+00  0.50000000000E+03  0.50000000000E+03  0.00000000000E+00 0.  1.
         11   -1    0    0    0    0 -0.00000000000E+00 -0.00000000000E+00 -0.50000000000E+03  0.50000000000E+03  0.00000000000E+00 0. -1.
         23    2    1    2    0    0  0.68706339834E+02 -0.13026658120E+03  0.38491542626E+03  0.42229966805E+03  0.92125897320E+02 0.  0.
        -11    1    1    2    0    0 -0.32935167602E+02 -0.47353547210E+02  0.68425001883E+02  0.89493377303E+02  0.00000000000E+00 0.  1.
         11    1    1    2    0    0 -0.35771172231E+02  0.17762012841E+03 -0.45334042814E+03  0.48820695464E+03  0.00000000000E+00 0. -1.
        -15    1    3    3    0    0  0.45948473480E+02 -0.45356687831E+02  0.69585659790E+02  0.94941103446E+02  0.17770000000E+01 0. -1.
         15    1    3    3    0    0  0.22757866353E+02 -0.84909893365E+02  0.31532976647E+03  0.32735856461E+03  0.17770000000E+01 0.  1.
</event>
<event>
 7    1  0.3260141E-006  0.5232589E+03  0.7546771E-02  0.9349219E-01
        -11   -1    0    0    0    0  0.00000000000E+00  0.00000000000E+00  0.50000000000E+03  0.50000000000E+03  0.00000000000E+00 0.  1.
         11   -1    0    0    0    0 -0.00000000000E+00 -0.00000000000E+00 -0.50000000000E+03  0.50000000000E+03  0.00000000000E+00 0. -1.
         23    2    1    2    0    0 -0.39533668198E+02  0.14613911725E+02 -0.11804941886E+03  0.15511394096E+03  0.91368441214E+02 0.  0.
        -11    1    1    2    0    0 -0.62719900246E+02 -0.52173532906E+02  0.46970863348E+03  0.47674108674E+03  0.00000000000E+00 0.  1.
         11    1    1    2    0    0  0.10225356844E+03  0.37559621181E+02 -0.35165921462E+03  0.36814497230E+03  0.00000000000E+00 0. -1.
        -15    1    3    3    0    0 -0.53400552107E+02 -0.15045924096E+02 -0.34488545483E+02  0.65349952531E+02  0.17770000000E+01 0.  1.
         15    1    3    3    0    0  0.13866883908E+02  0.29659835822E+02 -0.83560873375E+02  0.89763988428E+02  0.17770000000E+01 0. -1.
</event>
<event>
 7    1  0.3260141E-006  0.4349852E+03  0.7546771E-02  0.9558329E-01
        -11   -1    0    0    0    0  0.00000000000E+00  0.00000000000E+00  0.50000000000E+03  0.50000000000E+03  0.00000000000E+00 0.  1.
         11   -1    0    0    0    0 -0.00000000000E+00 -0.00000000000E+00 -0.50000000000E+03  0.50000000000E+03  0.00000000000E+00 0.  1.
         23    2    1    2    0    0 -0.31267325349E+02 -0.40384901257E+02  0.70830739894E+02  0.12565785115E+03  0.90356604389E+02 0.  0.
        -11    1    1    2    0    0  0.33849118914E+03  0.10727520711E+03  0.24286582750E+03  0.43019538044E+03  0.00000000000E+00 0.  1.
         11    1    1    2    0    0 -0.30722386379E+03 -0.66890305852E+02 -0.31369656740E+03  0.44414676841E+03  0.00000000000E+00 0.  1.
        -15    1    3    3    0    0 -0.21022510760E+02 -0.44435795788E+02  0.90522465291E+02  0.10302407659E+03  0.17770000000E+01 0.  1.
         15    1    3    3    0    0 -0.10244814589E+02  0.40508945316E+01 -0.19691725397E+02  0.22633774555E+02  0.17770000000E+01 0. -1.
</event>
<event>
 7    1  0.3260141E-006  0.5292256E+03  0.7546771E-02  0.9336690E-01
        -11   -1    0    0    0    0  0.00000000000E+00  0.00000000000E+00  0.50000000000E+03  0.50000000000E+03  0.00000000000E+00 0.  1.
         11   -1    0    0    0    0 -0.00000000000E+00 -0.00000000000E+00 -0.50000000000E+03  0.50000000000E+03  0.00000000000E+00 0.  1.
         23    2    1    2    0    0 -0.31926426486E+02 -0.21554938536E+02  0.37623039313E+03  0.38928524204E+03  0.92248462671E+02 0.  0.
        -11    1    1    2    0    0 -0.89997711546E+01  0.11152452647E+03  0.84051102705E+02  0.13994035783E+03  0.00000000000E+00 0.  1.
         11    1    1    2    0    0  0.40926197640E+02 -0.89969587933E+02 -0.46028149584E+03  0.47077440013E+03  0.00000000000E+00 0.  1.
        -15    1    3    3    0    0 -0.37669030319E+02 -0.52122394620E+02  0.19339577780E+03  0.20381556483E+03  0.17770000000E+01 0.  1.
         15    1    3    3    0    0  0.57426038330E+01  0.30567456084E+02  0.18283461533E+03  0.18546967720E+03  0.17770000000E+01 0. -1.
</event>
<event>
 7    1  0.3260141E-006  0.5237747E+03  0.7546771E-02  0.9348129E-01
        -11   -1    0    0    0    0  0.00000000000E+00  0.00000000000E+00  0.50000000000E+03  0.50000000000E+03  0.00000000000E+00 0.  1.
         11   -1    0    0    0    0 -0.00000000000E+00 -0.00000000000E+00 -0.50000000000E+03  0.50000000000E+03  0.00000000000E+00 0. -1.
         23    2    1    2    0    0  0.58433266650E+02 -0.48902738569E+02 -0.10874942584E+03  0.16054390223E+03  0.90232934284E+02 0.  0.
        -11    1    1    2    0    0 -0.12129149256E+02  0.10105092043E+03  0.46522262336E+03  0.47622525560E+03  0.00000000000E+00 0.  1.
         11    1    1    2    0    0 -0.46304117394E+02 -0.52148181861E+02 -0.35647319752E+03  0.36323084218E+03  0.00000000000E+00 0. -1.
        -15    1    3    3    0    0 -0.24317787273E+02 -0.11159739066E+02 -0.29849363916E+02  0.40125263975E+02  0.17770000000E+01 0.  1.
         15    1    3    3    0    0  0.82751053923E+02 -0.37742999503E+02 -0.78900061928E+02  0.12041863825E+03  0.17770000000E+01 0. -1.
</event>
<event>
 7    1  0.3260141E-006  0.4054860E+03  0.7546771E-02  0.9640329E-01
        -11   -1    0    0    0    0  0.00000000000E+00  0.00000000000E+00  0.50000000000E+03  0.50000000000E+03  0.00000000000E+00 0.  1.
         11   -1    0    0    0    0 -0.00000000000E+00 -0.00000000000E+00 -0.50000000000E+03  0.50000000000E+03  0.00000000000E+00 0. -1.
         23    2    1    2    0    0 -0.34904741441E+03 -0.18386453807E+02 -0.16873480906E+03  0.39840325301E+03  0.89897480662E+02 0.  0.
        -11    1    1    2    0    0  0.26552291308E+03  0.35360011257E+02  0.32647554719E+03  0.42230206095E+03  0.00000000000E+00 0.  1.
         11    1    1    2    0    0  0.83524501338E+02 -0.16973557451E+02 -0.15774073813E+03  0.17929468604E+03  0.00000000000E+00 0. -1.
        -15    1    3    3    0    0 -0.17948525205E+03 -0.45872220496E+02 -0.58451486972E+02  0.19426515481E+03  0.17770000000E+01 0. -1.
         15    1    3    3    0    0 -0.16956216237E+03  0.27485766689E+02 -0.11028332209E+03  0.20413809820E+03  0.17770000000E+01 0.  1.
</event>
<event>
 6    1  0.3260141E-006  0.5420229E+03  0.7546771E-02  0.9310398E-01
        -11   -1    0    0    0    0  0.00000000000E+00  0.00000000000E+00  0.50000000000E+03  0.50000000000E+03  0.00000000000E+00 0.  1.
         11   -1    0    0    0    0 -0.00000000000E+00 -0.00000000000E+00 -0.50000000000E+03  0.50000000000E+03  0.00000000000E+00 0. -1.
        -11    1    1    2    0    0  0.15419382823E+03 -0.33889062194E+02  0.42990559145E+03  0.45797709851E+03  0.00000000000E+00 0.  1.
         11    1    1    2    0    0 -0.69560674360E+02  0.31239742489E+02 -0.32554730455E+03  0.33435857463E+03  0.00000000000E+00 0. -1.
        -15    1    1    2    0    0 -0.83016614997E+02 -0.32525291664E+02  0.83516964147E+01  0.89568753064E+02  0.17770000000E+01 0.  1.
         15    1    1    2    0    0 -0.16165388730E+01  0.35174611369E+02 -0.11270998331E+03  0.11809557380E+03  0.17770000000E+01 0. -1.
</event>
<event>
 7    1  0.3260141E-006  0.3674603E+03  0.7546771E-02  0.9757754E-01
        -11   -1    0    0    0    0  0.00000000000E+00  0.00000000000E+00  0.50000000000E+03  0.50000000000E+03  0.00000000000E+00 0.  1.
         11   -1    0    0    0    0 -0.00000000000E+00 -0.00000000000E+00 -0.50000000000E+03  0.50000000000E+03  0.00000000000E+00 0. -1.
         23    2    1    2    0    0  0.93520948170E+02 -0.35852239950E+02  0.28750590542E+03  0.31799190300E+03  0.91802254158E+02 0.  0.
        -11    1    1    2    0    0 -0.39333564338E+02 -0.22549692032E+03  0.66770508315E+02  0.23844137883E+03  0.00000000000E+00 0.  1.
         11    1    1    2    0    0 -0.54187383833E+02  0.26134916027E+03 -0.35427641373E+03  0.44356671817E+03  0.00000000000E+00 0. -1.
        -15    1    3    3    0    0 -0.86438412336E-01 -0.13517952390E+02 -0.11776500799E+01  0.13685287616E+02  0.17770000000E+01 0. -1.
         15    1    3    3    0    0  0.93607386583E+02 -0.22334287560E+02  0.28868355550E+03  0.30430661538E+03  0.17770000000E+01 0.  1.
</event>
<event>
 7    1  0.3260141E-006  0.3350443E+03  0.7546771E-02  0.9870564E-01
        -11   -1    0    0    0    0  0.00000000000E+00  0.00000000000E+00  0.50000000000E+03  0.50000000000E+03  0.00000000000E+00 0.  1.
         11   -1    0    0    0    0 -0.00000000000E+00 -0.00000000000E+00 -0.50000000000E+03  0.50000000000E+03  0.00000000000E+00 0. -1.
         23    2    1    2    0    0  0.18450701892E+03 -0.18911743294E+03 -0.46068798560E+00  0.27970346669E+03  0.91790923148E+02 0.  0.
        -11    1    1    2    0    0 -0.15491152311E+03  0.20343396128E+02  0.32090331605E+03  0.35691787853E+03  0.00000000000E+00 0.  1.
         11    1    1    2    0    0 -0.29595495810E+02  0.16877403681E+03 -0.32044262807E+03  0.36337865479E+03  0.00000000000E+00 0. -1.
        -15    1    3    3    0    0  0.99262739333E+02 -0.38364387579E+02  0.29793156310E+01  0.10647512247E+03  0.17770000000E+01 0.  1.
         15    1    3    3    0    0  0.85244279589E+02 -0.15075304536E+03 -0.34400036166E+01  0.17322834422E+03  0.17770000000E+01 0. -1.
</event>
<event>
 7    1  0.3260141E-006  0.5181270E+03  0.7546771E-02  0.9360138E-01
        -11   -1    0    0    0    0  0.00000000000E+00  0.00000000000E+00  0.50000000000E+03  0.50000000000E+03  0.00000000000E+00 0.  1.
         11   -1    0    0    0    0 -0.00000000000E+00 -0.00000000000E+00 -0.50000000000E+03  0.50000000000E+03  0.00000000000E+00 0. -1.
         23    2    1    2    0    0  0.18538860040E+02 -0.48605128568E+02  0.10645919358E+03  0.14566017918E+03  0.84718239170E+02 0.  0.
        -11    1    1    2    0    0  0.64946783627E+02  0.10646968920E+02  0.36660621391E+03  0.37246685588E+03  0.00000000000E+00 0.  1.
         11    1    1    2    0    0 -0.83485643667E+02  0.37958159647E+02 -0.47306540748E+03  0.48187296494E+03  0.00000000000E+00 0. -1.
        -15    1    3    3    0    0 -0.14891531075E+02 -0.63321706119E+01 -0.87313191483E+01  0.18472892180E+02  0.17770000000E+01 0.  1.
         15    1    3    3    0    0  0.33430391115E+02 -0.42272957956E+02  0.11519051273E+03  0.12718728700E+03  0.17770000000E+01 0. -1.
</event>
<event>
 7    1  0.3260141E-006  0.5106640E+03  0.7546771E-02  0.9376259E-01
        -11   -1    0    0    0    0  0.00000000000E+00  0.00000000000E+00  0.50000000000E+03  0.50000000000E+03  0.00000000000E+00 0.  1.
         11   -1    0    0    0    0 -0.00000000000E+00 -0.00000000000E+00 -0.50000000000E+03  0.50000000000E+03  0.00000000000E+00 0.  1.
         23    2    1    2    0    0  0.30695491869E+03 -0.31307429976E+02  0.36857676362E+03  0.48933597854E+03  0.91648196541E+02 0.  0.
        -11    1    1    2    0    0 -0.20492456399E+03  0.80901831194E+02 -0.15680431772E+03  0.27041963182E+03  0.00000000000E+00 0.  1.
         11    1    1    2    0    0 -0.10203035470E+03 -0.49594401217E+02 -0.21177244590E+03  0.24024438965E+03  0.00000000000E+00 0.  1.
        -15    1    3    3    0    0  0.64978146829E+02 -0.44732486392E+01  0.28560311969E+02  0.71140836848E+02  0.17770000000E+01 0. -1.
         15    1    3    3    0    0  0.24197677186E+03 -0.26834181337E+02  0.34001645166E+03  0.41819514169E+03  0.17770000000E+01 0.  1.
</event>
<event>
 7    1  0.3260141E-006  0.5144801E+03  0.7546771E-02  0.9367980E-01
        -11   -1    0    0    0    0  0.00000000000E+00  0.00000000000E+00  0.50000000000E+03  0.50000000000E+03  0.00000000000E+00 0.  1.
         11   -1    0    0    0    0 -0.00000000000E+00 -0.00000000000E+00 -0.50000000000E+03  0.50000000000E+03  0.00000000000E+00 0. -1.
         23    2    1    2    0    0  0.53570942907E+02  0.79135761058E+02  0.33629461395E+03  0.36145667201E+03  0.91785313487E+02 0.  0.
        -11    1    1    2    0    0  0.94912249056E+02 -0.47480437851E+01  0.11993866534E+03  0.15302340470E+03  0.00000000000E+00 0.  1.
         11    1    1    2    0    0 -0.14848319196E+03 -0.74387717273E+02 -0.45623327929E+03  0.48551992329E+03  0.00000000000E+00 0. -1.
        -15    1    3    3    0    0 -0.19047690207E+02  0.31559715608E+02  0.16884778529E+03  0.17283391588E+03  0.17770000000E+01 0.  1.
         15    1    3    3    0    0  0.72618633115E+02  0.47576045450E+02  0.16744682866E+03  0.18862275614E+03  0.17770000000E+01 0. -1.
</event>
<event>
 7    1  0.3260141E-006  0.3859225E+03  0.7546771E-02  0.9698935E-01
        -11   -1    0    0    0    0  0.00000000000E+00  0.00000000000E+00  0.50000000000E+03  0.50000000000E+03  0.00000000000E+00 0.  1.
         11   -1    0    0    0    0 -0.00000000000E+00 -0.00000000000E+00 -0.50000000000E+03  0.50000000000E+03  0.00000000000E+00 0. -1.
         23    2    1    2    0    0  0.95334273569E+02 -0.46079329404E+02  0.35953566379E+03  0.38595037710E+03  0.92086219007E+02 0.  0.
        -11    1    1    2    0    0  0.99145313069E+02 -0.16841339089E+03 -0.78669254031E+02  0.21066968188E+03  0.00000000000E+00 0.  1.
         11    1    1    2    0    0 -0.19447958664E+03  0.21449272029E+03 -0.28086640976E+03  0.40337994101E+03  0.00000000000E+00 0. -1.
        -15    1    3    3    0    0  0.74355213697E+02 -0.26369501704E+02  0.34450708676E+03  0.35342939745E+03  0.17770000000E+01 0.  1.
         15    1    3    3    0    0  0.20979059871E+02 -0.19709827700E+02  0.15028577035E+02  0.32520979656E+02  0.17770000000E+01 0. -1.
</event>
<event>
 7    1  0.3260141E-006  0.3474805E+03  0.7546771E-02  0.9825729E-01
        -11   -1    0    0    0    0  0.00000000000E+00  0.00000000000E+00  0.50000000000E+03  0.50000000000E+03  0.00000000000E+00 0. -1.
         11   -1    0    0    0    0 -0.00000000000E+00 -0.00000000000E+00 -0.50000000000E+03  0.50000000000E+03  0.00000000000E+00 0.  1.
         23    2    1    2    0    0 -0.87610603796E+02 -0.40032491289E+02  0.22658739252E+03  0.26271392437E+03  0.91643555954E+02 0.  0.
        -11    1    1    2    0    0  0.78492596570E+01 -0.27053936106E+03  0.91426720828E+02  0.28567814415E+03  0.00000000000E+00 0. -1.
         11    1    1    2    0    0  0.79761344139E+02  0.31057185235E+03 -0.31801411335E+03  0.45160793149E+03  0.00000000000E+00 0.  1.
        -15    1    3    3    0    0 -0.90436676641E+00  0.14293302761E+02  0.38143174209E+00  0.14436744863E+02  0.17770000000E+01 0.  1.
         15    1    3    3    0    0 -0.86706237030E+02 -0.54325794050E+02  0.22620596078E+03  0.24827717950E+03  0.17770000000E+01 0. -1.
</event>
<event>
 7    1  0.3260141E-006  0.5165278E+03  0.7546771E-02  0.9363569E-01
        -11   -1    0    0    0    0  0.00000000000E+00  0.00000000000E+00  0.50000000000E+03  0.50000000000E+03  0.00000000000E+00 0. -1.
         11   -1    0    0    0    0 -0.00000000000E+00 -0.00000000000E+00 -0.50000000000E+03  0.50000000000E+03  0.00000000000E+00 0. -1.
         23    2    1    2    0    0  0.88514861963E+02  0.87422088781E+02  0.26038149857E+03  0.30249273919E+03  0.90696361922E+02 0.  0.
        -11    1    1    2    0    0  0.39785064750E+02  0.16318794672E+03  0.13265684018E+03  0.21403503119E+03  0.00000000000E+00 0. -1.
         11    1    1    2    0    0 -0.12829992671E+03 -0.25061003550E+03 -0.39303833875E+03  0.48347222962E+03  0.00000000000E+00 0. -1.
        -15    1    3    3    0    0  0.20436192728E+02 -0.85220536388E+01  0.10646319608E+03  0.10875584223E+03  0.17770000000E+01 0.  1.
         15    1    3    3    0    0  0.68078669235E+02  0.95944142419E+02  0.15391830250E+03  0.19373689696E+03  0.17770000000E+01 0. -1.
</event>
<event>
 7    1  0.3260141E-006  0.5154914E+03  0.7546771E-02  0.9365799E-01
        -11   -1    0    0    0    0  0.00000000000E+00  0.00000000000E+00  0.50000000000E+03  0.50000000000E+03  0.00000000000E+00 0.  1.
         11   -1    0    0    0    0 -0.00000000000E+00 -0.00000000000E+00 -0.50000000000E+03  0.50000000000E+03  0.00000000000E+00 0.  1.
         23    2    1    2    0    0 -0.49063101405E+02 -0.38369023091E+02  0.23682620249E+03  0.27044257063E+03  0.11477440470E+03 0.  0.
        -11    1    1    2    0    0 -0.54206570233E+02  0.34120394467E+02  0.23652983168E+03  0.24504880095E+03  0.00000000000E+00 0.  1.
         11    1    1    2    0    0  0.10326967164E+03  0.42486286245E+01 -0.47335603417E+03  0.48450862841E+03  0.00000000000E+00 0.  1.
        -15    1    3    3    0    0 -0.32637397395E+02  0.39299922240E+02  0.88682230532E+02  0.10235907062E+03  0.17770000000E+01 0.  1.
         15    1    3    3    0    0 -0.16425704010E+02 -0.77668945331E+02  0.14814397196E+03  0.16808350001E+03  0.17770000000E+01 0. -1.
</event>
<event>
 6    1  0.3260141E-006  0.4375571E+03  0.7546771E-02  0.9551510E-01
        -11   -1    0    0    0    0  0.00000000000E+00  0.00000000000E+00  0.50000000000E+03  0.50000000000E+03  0.00000000000E+00 0. -1.
         11   -1    0    0    0    0 -0.00000000000E+00 -0.00000000000E+00 -0.50000000000E+03  0.50000000000E+03  0.00000000000E+00 0. -1.
        -11    1    1    2    0    0  0.13532621264E+03 -0.76005544224E+02  0.70202302944E+01  0.15536830505E+03  0.00000000000E+00 0. -1.
         11    1    1    2    0    0 -0.35256951751E+02 -0.75099048446E+02 -0.37902922389E+03  0.38800267047E+03  0.00000000000E+00 0. -1.
        -15    1    1    2    0    0  0.20197424007E+02  0.48056254485E+02  0.25351123836E+03  0.25882126118E+03  0.17770000000E+01 0.  1.
         15    1    1    2    0    0 -0.12026668490E+03  0.10304833819E+03  0.11849775524E+03  0.19780776331E+03  0.17770000000E+01 0. -1.
</event>
<event>
 7    1  0.3260141E-006  0.4421998E+03  0.7546771E-02  0.9539326E-01
        -11   -1    0    0    0    0  0.00000000000E+00  0.00000000000E+00  0.50000000000E+03  0.50000000000E+03  0.00000000000E+00 0.  1.
         11   -1    0    0    0    0 -0.00000000000E+00 -0.00000000000E+00 -0.50000000000E+03  0.50000000000E+03  0.00000000000E+00 0. -1.
         23    2    1    2    0    0  0.11029542111E+01 -0.57949546831E+02  0.34962983222E+02  0.11301393663E+03  0.90500680610E+02 0.  0.
        -11    1    1    2    0    0  0.30832027316E+03  0.19765428610E+03  0.25026110059E+03  0.44357550216E+03  0.00000000000E+00 0.  1.
         11    1    1    2    0    0 -0.30942322737E+03 -0.13970473926E+03 -0.28522408381E+03  0.44341056121E+03  0.00000000000E+00 0. -1.
        -15    1    3    3    0    0  0.12577574722E+02  0.22056862150E+02  0.14375423669E+01  0.25493622945E+02  0.17770000000E+01 0. -1.
         15    1    3    3    0    0 -0.11474620511E+02 -0.80006408982E+02  0.33525440855E+02  0.87520313685E+02  0.17770000000E+01 0.  1.
</event>
<event>
 7    1  0.3260141E-006  0.5277731E+03  0.7546771E-02  0.9339724E-01
        -11   -1    0    0    0    0  0.00000000000E+00  0.00000000000E+00  0.50000000000E+03  0.50000000000E+03  0.00000000000E+00 0. -1.
         11   -1    0    0    0    0 -0.00000000000E+00 -0.00000000000E+00 -0.50000000000E+03  0.50000000000E+03  0.00000000000E+00 0.  1.
         23    2    1    2    0    0  0.76009323742E+02  0.28184652265E+02  0.17658973370E+03  0.21419739610E+03  0.90137664330E+02 0.  0.
        -11    1    1    2    0    0 -0.11254772754E+03  0.78132064804E+02  0.28206043643E+03  0.31357566922E+03  0.00000000000E+00 0. -1.
         11    1    1    2    0    0  0.36538403795E+02 -0.10631671707E+03 -0.45865017013E+03  0.47222693468E+03  0.00000000000E+00 0.  1.
        -15    1    3    3    0    0  0.79053527849E+02 -0.27187281050E+01  0.16103274691E+03  0.17942005199E+03  0.17770000000E+01 0.  1.
         15    1    3    3    0    0 -0.30442041072E+01  0.30903380370E+02  0.15556986785E+02  0.34777344116E+02  0.17770000000E+01 0. -1.
</event>
<event>
 7    1  0.3260141E-006  0.5237361E+03  0.7546771E-02  0.9348211E-01
        -11   -1    0    0    0    0  0.00000000000E+00  0.00000000000E+00  0.50000000000E+03  0.50000000000E+03  0.00000000000E+00 0.  1.
         11   -1    0    0    0    0 -0.00000000000E+00 -0.00000000000E+00 -0.50000000000E+03  0.50000000000E+03  0.00000000000E+00 0. -1.
         23    2    1    2    0    0 -0.48490239744E+02  0.23284313183E+02  0.32884849007E+03  0.34758274857E+03  0.98888700553E+02 0.  0.
        -11    1    1    2    0    0  0.31623593850E+02 -0.10115614602E+03  0.14070319625E+03  0.17615336216E+03  0.00000000000E+00 0.  1.
         11    1    1    2    0    0  0.16866645894E+02  0.77871832838E+02 -0.46955168632E+03  0.47626388926E+03  0.00000000000E+00 0. -1.
        -15    1    3    3    0    0 -0.50872967302E+02  0.39082788109E+02  0.32469850367E+03  0.33098005853E+03  0.17770000000E+01 0. -1.
         15    1    3    3    0    0  0.23827275578E+01 -0.15798474926E+02  0.41499863916E+01  0.16602690042E+02  0.17770000000E+01 0.  1.
</event>
<event>
 7    1  0.3260141E-006  0.3982964E+03  0.7546771E-02  0.9661448E-01
        -11   -1    0    0    0    0  0.00000000000E+00  0.00000000000E+00  0.50000000000E+03  0.50000000000E+03  0.00000000000E+00 0. -1.
         11   -1    0    0    0    0 -0.00000000000E+00 -0.00000000000E+00 -0.50000000000E+03  0.50000000000E+03  0.00000000000E+00 0.  1.
         23    2    1    2    0    0  0.89396306320E+02 -0.12387348656E+03  0.57134335481E+02  0.18688216889E+03  0.91237451203E+02 0.  0.
        -11    1    1    2    0    0  0.14707419266E+03  0.25909975216E+03  0.25973459234E+03  0.39525378957E+03  0.00000000000E+00 0. -1.
         11    1    1    2    0    0 -0.23647049898E+03 -0.13522626560E+03 -0.31686892782E+03  0.41786404154E+03  0.00000000000E+00 0.  1.
        -15    1    3    3    0    0  0.48125453280E+02 -0.12422401885E+03  0.58590094509E+02  0.14554594813E+03  0.17770000000E+01 0. -1.
         15    1    3    3    0    0  0.41270853040E+02  0.35053229040E+00 -0.14557590287E+01  0.41336220762E+02  0.17770000000E+01 0.  1.
</event>
<event>
 7    1  0.3260141E-006  0.4725442E+03  0.7546771E-02  0.9463431E-01
        -11   -1    0    0    0    0  0.00000000000E+00  0.00000000000E+00  0.50000000000E+03  0.50000000000E+03  0.00000000000E+00 0.  1.
         11   -1    0    0    0    0 -0.00000000000E+00 -0.00000000000E+00 -0.50000000000E+03  0.50000000000E+03  0.00000000000E+00 0. -1.
         23    2    1    2    0    0  0.93865245958E+01 -0.12578341677E+03 -0.42359888307E+03  0.45127138604E+03  0.91105846914E+02 0.  0.
        -11    1    1    2    0    0 -0.46255766656E+01  0.95910621807E+02  0.47742461159E+03  0.48698511588E+03  0.00000000000E+00 0.  1.
         11    1    1    2    0    0 -0.47609479302E+01  0.29872794964E+02 -0.53825728518E+02  0.61743498076E+02  0.00000000000E+00 0. -1.
        -15    1    3    3    0    0 -0.37008821043E+02 -0.65850280585E+02 -0.15924769321E+03  0.17626371666E+03  0.17770000000E+01 0.  1.
         15    1    3    3    0    0  0.46395345639E+02 -0.59933136187E+02 -0.26435118986E+03  0.27500766939E+03  0.17770000000E+01 0. -1.
</event>
<event>
 7    1  0.3260141E-006  0.5185741E+03  0.7546771E-02  0.9359182E-01
        -11   -1    0    0    0    0  0.00000000000E+00  0.00000000000E+00  0.50000000000E+03  0.50000000000E+03  0.00000000000E+00 0.  1.
         11   -1    0    0    0    0 -0.00000000000E+00 -0.00000000000E+00 -0.50000000000E+03  0.50000000000E+03  0.00000000000E+00 0. -1.
         23    2    1    2    0    0  0.12910541413E+03  0.53624609124E+02 -0.34016569229E+03  0.37857239266E+03  0.89780574803E+02 0.  0.
        -11    1    1    2    0    0 -0.78682185742E+02 -0.71296510955E+02  0.46957084131E+03  0.48142585497E+03  0.00000000000E+00 0.  1.
         11    1    1    2    0    0 -0.50423228385E+02  0.17671901831E+02 -0.12940514902E+03  0.14000175237E+03  0.00000000000E+00 0. -1.
        -15    1    3    3    0    0  0.41761379558E+01 -0.14710780868E+02 -0.84767451256E+02  0.86154081293E+02  0.17770000000E+01 0.  1.
         15    1    3    3    0    0  0.12492927617E+03  0.68335389992E+02 -0.25539824103E+03  0.29241831137E+03  0.17770000000E+01 0. -1.
</event>
<event>
 7    1  0.3260141E-006  0.5130186E+03  0.7546771E-02  0.9371142E-01
        -11   -1    0    0    0    0  0.00000000000E+00  0.00000000000E+00  0.50000000000E+03  0.50000000000E+03  0.00000000000E+00 0. -1.
         11   -1    0    0    0    0 -0.00000000000E+00 -0.00000000000E+00 -0.50000000000E+03  0.50000000000E+03  0.00000000000E+00 0.  1.
         23    2    1    2    0    0 -0.70298171658E+02  0.46802286906E+02  0.35062804566E+03  0.37091549982E+03  0.86637143320E+02 0.  0.
        -11    1    1    2    0    0  0.87102436178E+01  0.83755035369E+02  0.11446617629E+03  0.14210306052E+03  0.00000000000E+00 0. -1.
         11    1    1    2    0    0  0.61587928040E+02 -0.13055732228E+03 -0.46509422196E+03  0.48698143966E+03  0.00000000000E+00 0.  1.
        -15    1    3    3    0    0 -0.54738604894E+02  0.44643308901E+02  0.34773893226E+03  0.35484484305E+03  0.17770000000E+01 0. -1.
         15    1    3    3    0    0 -0.15559566763E+02  0.21589780046E+01  0.28891133994E+01  0.16070656773E+02  0.17770000000E+01 0.  1.
</event>
<event>
 7    1  0.3260141E-006  0.4726880E+03  0.7546771E-02  0.9463086E-01
        -11   -1    0    0    0    0  0.00000000000E+00  0.00000000000E+00  0.50000000000E+03  0.50000000000E+03  0.00000000000E+00 0. -1.
         11   -1    0    0    0    0 -0.00000000000E+00 -0.00000000000E+00 -0.50000000000E+03  0.50000000000E+03  0.00000000000E+00 0.  1.
         23    2    1    2    0    0 -0.11933944021E+03 -0.71692327529E+02 -0.41367355704E+03  0.44530201172E+03  0.88240455757E+02 0.  0.
        -11    1    1    2    0    0  0.11939637092E+03  0.96819874937E+02  0.46920622645E+03  0.49374493872E+03  0.00000000000E+00 0. -1.
         11    1    1    2    0    0 -0.56930709000E-01 -0.25127547408E+02 -0.55532669402E+02  0.60953049561E+02  0.00000000000E+00 0.  1.
        -15    1    3    3    0    0 -0.15634562685E+02 -0.51470316589E+02 -0.19719929654E+03  0.20441221422E+03  0.17770000000E+01 0. -1.
         15    1    3    3    0    0 -0.10370487753E+03 -0.20222010940E+02 -0.21647426051E+03  0.24088979750E+03  0.17770000000E+01 0.  1.
</event>
<event>
 7    1  0.3260141E-006  0.5092728E+03  0.7546771E-02  0.9379297E-01
        -11   -1    0    0    0    0  0.00000000000E+00  0.00000000000E+00  0.50000000000E+03  0.50000000000E+03  0.00000000000E+00 0.  1.
         11   -1    0    0    0    0 -0.00000000000E+00 -0.00000000000E+00 -0.50000000000E+03  0.50000000000E+03  0.00000000000E+00 0. -1.
         23    2    1    2    0    0 -0.17972886481E+02 -0.40049308123E+02 -0.26094983756E+03  0.27962014845E+03  0.90363919614E+02 0.  0.
        -11    1    1    2    0    0  0.76374588696E+02  0.40507816206E+02  0.48305199517E+03  0.49072720631E+03  0.00000000000E+00 0.  1.
         11    1    1    2    0    0 -0.58401702216E+02 -0.45850808276E+00 -0.22210215761E+03  0.22965264525E+03  0.00000000000E+00 0. -1.
        -15    1    3    3    0    0  0.17572652218E+02  0.21691151428E+02 -0.55288972414E+02  0.61962346275E+02  0.17770000000E+01 0.  1.
         15    1    3    3    0    0 -0.35545538698E+02 -0.61740459551E+02 -0.20566086514E+03  0.21765780217E+03  0.17770000000E+01 0. -1.
</event>
<event>
 7    1  0.3260141E-006  0.3718013E+03  0.7546771E-02  0.9743596E-01
        -11   -1    0    0    0    0  0.00000000000E+00  0.00000000000E+00  0.50000000000E+03  0.50000000000E+03  0.00000000000E+00 0.  1.
         11   -1    0    0    0    0 -0.00000000000E+00 -0.00000000000E+00 -0.50000000000E+03  0.50000000000E+03  0.00000000000E+00 0.  1.
         23    2    1    2    0    0 -0.19111367503E+03  0.30185175094E+03 -0.35042818707E+02  0.36860462244E+03  0.83680656115E+02 0.  0.
        -11    1    1    2    0    0  0.16502795324E+03 -0.25688141998E+03  0.25968098599E+03  0.40081978964E+03  0.00000000000E+00 0.  1.
         11    1    1    2    0    0  0.26085721786E+02 -0.44970330964E+02 -0.22463816728E+03  0.23057558793E+03  0.00000000000E+00 0.  1.
        -15    1    3    3    0    0 -0.16904325275E+03  0.21222881944E+03 -0.47481092068E+02  0.27545290875E+03  0.17770000000E+01 0.  1.
         15    1    3    3    0    0 -0.22070422275E+02  0.89622931502E+02  0.12438273361E+02  0.93151713691E+02  0.17770000000E+01 0. -1.
</event>
<event>
 7    1  0.3260141E-006  0.4606492E+03  0.7546771E-02  0.9492438E-01
        -11   -1    0    0    0    0  0.00000000000E+00  0.00000000000E+00  0.50000000000E+03  0.50000000000E+03  0.00000000000E+00 0.  1.
         11   -1    0    0    0    0 -0.00000000000E+00 -0.00000000000E+00 -0.50000000000E+03  0.50000000000E+03  0.00000000000E+00 0. -1.
         23    2    1    2    0    0 -0.30735116691E+02  0.10369071881E+03  0.45086575995E+03  0.47235419572E+03  0.90233808286E+02 0.  0.
        -11    1    1    2    0    0  0.65224967245E+02  0.41166320809E+02 -0.32729474700E+02  0.83786519412E+02  0.00000000000E+00 0.  1.
         11    1    1    2    0    0 -0.34489850554E+02 -0.14485703962E+03 -0.41813628525E+03  0.44385928486E+03  0.00000000000E+00 0. -1.
        -15    1    3    3    0    0  0.30580274571E+02  0.38571283238E+02  0.20130333746E+03  0.20724161862E+03  0.17770000000E+01 0.  1.
         15    1    3    3    0    0 -0.61315391263E+02  0.65119435575E+02  0.24956242248E+03  0.26511257711E+03  0.17770000000E+01 0. -1.
</event>
<event>
 7    1  0.3260141E-006  0.4916512E+03  0.7546771E-02  0.9418687E-01
        -11   -1    0    0    0    0  0.00000000000E+00  0.00000000000E+00  0.50000000000E+03  0.50000000000E+03  0.00000000000E+00 0.  1.
         11   -1    0    0    0    0 -0.00000000000E+00 -0.00000000000E+00 -0.50000000000E+03  0.50000000000E+03  0.00000000000E+00 0.  1.
         23    2    1    2    0    0  0.71890054026E+02 -0.66419073446E+02  0.46971698925E+03  0.48835220491E+03  0.90962370599E+02 0.  0.
        -11    1    1    2    0    0 -0.63049653180E+02  0.89193443861E+02 -0.47436629737E+03  0.48677932709E+03  0.00000000000E+00 0.  1.
         11    1    1    2    0    0 -0.88404008459E+01 -0.22774370415E+02  0.46493081254E+01  0.24868468006E+02  0.00000000000E+00 0.  1.
        -15    1    3    3    0    0  0.15705481763E+02 -0.16401427006E+02  0.14595695096E+02  0.27052929778E+02  0.17770000000E+01 0. -1.
         15    1    3    3    0    0  0.56184572263E+02 -0.50017646440E+02  0.45512129415E+03  0.46129927513E+03  0.17770000000E+01 0.  1.
</event>
<event>
 7    1  0.3260141E-006  0.3433687E+03  0.7546771E-02  0.9840327E-01
        -11   -1    0    0    0    0  0.00000000000E+00  0.00000000000E+00  0.50000000000E+03  0.50000000000E+03  0.00000000000E+00 0. -1.
         11   -1    0    0    0    0 -0.00000000000E+00 -0.00000000000E+00 -0.50000000000E+03  0.50000000000E+03  0.00000000000E+00 0.  1.
         23    2    1    2    0    0  0.14692527487E+03 -0.15369695392E+03 -0.11478365862E+03  0.27199365815E+03  0.12488183115E+03 0.  0.
        -11    1    1    2    0    0  0.19910821305E+03  0.25579734074E+03  0.16502334002E+03  0.36374312748E+03  0.00000000000E+00 0. -1.
         11    1    1    2    0    0 -0.34603348792E+03 -0.10210038682E+03 -0.50239681407E+02  0.36426321437E+03  0.00000000000E+00 0.  1.
        -15    1    3    3    0    0  0.10221072616E+03 -0.10439488092E+03 -0.82239007725E+01  0.14634245446E+03  0.17770000000E+01 0. -1.
         15    1    3    3    0    0  0.44714548709E+02 -0.49302072997E+02 -0.10655975785E+03  0.12565120369E+03  0.17770000000E+01 0.  1.
</event>
<event>
 7    1  0.3260141E-006  0.4355815E+03  0.7546771E-02  0.9556743E-01
        -11   -1    0    0    0    0  0.00000000000E+00  0.00000000000E+00  0.50000000000E+03  0.50000000000E+03  0.00000000000E+00 0.  1.
         11   -1    0    0    0    0 -0.00000000000E+00 -0.00000000000E+00 -0.50000000000E+03  0.50000000000E+03  0.00000000000E+00 0. -1.
         23    2    1    2    0    0  0.21980319458E+03  0.11023548113E+03 -0.31226372538E+03  0.40785767515E+03  0.91509252771E+02 0.  0.
        -11    1    1    2    0    0 -0.15754432027E+03 -0.97607827164E+02  0.42448985128E+03  0.46318369424E+03  0.00000000000E+00 0.  1.
         11    1    1    2    0    0 -0.62258874310E+02 -0.12627653964E+02 -0.11222612590E+03  0.12895863061E+03  0.00000000000E+00 0. -1.
        -15    1    3    3    0    0  0.18322946134E+03  0.10500549721E+03 -0.20471793243E+03  0.29412884853E+03  0.17770000000E+01 0. -1.
         15    1    3    3    0    0  0.36573733235E+02  0.52299839204E+01 -0.10754579295E+03  0.11372882662E+03  0.17770000000E+01 0.  1.
</event>
<event>
 7    1  0.3260141E-006  0.5252595E+03  0.7546771E-02  0.9344998E-01
        -11   -1    0    0    0    0  0.00000000000E+00  0.00000000000E+00  0.50000000000E+03  0.50000000000E+03  0.00000000000E+00 0. -1.
         11   -1    0    0    0    0 -0.00000000000E+00 -0.00000000000E+00 -0.50000000000E+03  0.50000000000E+03  0.00000000000E+00 0.  1.
         23    2    1    2    0    0  0.52528749755E+02  0.15518287961E+03  0.43638204727E+03  0.47474054649E+03  0.90046097238E+02 0.  0.
        -11    1    1    2    0    0 -0.41093431474E+02 -0.21376739675E+03 -0.26024130728E+03  0.33927968999E+03  0.00000000000E+00 0. -1.
         11    1    1    2    0    0 -0.11435318281E+02  0.58584517143E+02 -0.17614073999E+03  0.18597976352E+03  0.00000000000E+00 0.  1.
        -15    1    3    3    0    0  0.64604998647E+02  0.15355275730E+03  0.42939532284E+03  0.46058197547E+03  0.17770000000E+01 0. -1.
         15    1    3    3    0    0 -0.12076248891E+02  0.16301223109E+01  0.69867244319E+01  0.14158571020E+02  0.17770000000E+01 0.  1.
</event>
<event>
 7    1  0.3260141E-006  0.3531419E+03  0.7546771E-02  0.9805980E-01
        -11   -1    0    0    0    0  0.00000000000E+00  0.00000000000E+00  0.50000000000E+03  0.50000000000E+03  0.00000000000E+00 0.  1.
         11   -1    0    0    0    0 -0.00000000000E+00 -0.00000000000E+00 -0.50000000000E+03  0.50000000000E+03  0.00000000000E+00 0. -1.
         23    2    1    2    0    0  0.22008434471E+03 -0.14659895116E+03  0.21499013208E+03  0.35249529973E+03  0.90021154018E+02 0.  0.
        -11    1    1    2    0    0 -0.12830873799E+03  0.15500213614E+03  0.16267926570E+03  0.25875343078E+03  0.00000000000E+00 0.  1.
         11    1    1    2    0    0 -0.91775606728E+02 -0.84031849775E+01 -0.37766939778E+03  0.38875126949E+03  0.00000000000E+00 0. -1.
        -15    1    3    3    0    0  0.52028480537E+02 -0.60766543323E+01  0.11852720084E+02  0.53735772231E+02  0.17770000000E+01 0.  1.
         15    1    3    3    0    0  0.16805586418E+03 -0.14052229683E+03  0.20313741200E+03  0.29875952750E+03  0.17770000000E+01 0. -1.
</event>
<event>
 7    1  0.3260141E-006  0.3564890E+03  0.7546771E-02  0.9794490E-01
        -11   -1    0    0    0    0  0.00000000000E+00  0.00000000000E+00  0.50000000000E+03  0.50000000000E+03  0.00000000000E+00 0.  1.
         11   -1    0    0    0    0 -0.00000000000E+00 -0.00000000000E+00 -0.50000000000E+03  0.50000000000E+03  0.00000000000E+00 0. -1.
         23    2    1    2    0    0 -0.78415856135E+01 -0.33172123592E+02  0.27958517777E+03  0.29444843568E+03  0.85849457741E+02 0.  0.
        -11    1    1    2    0    0  0.84164286111E+02 -0.22316729421E+03  0.85155731128E+02  0.25325632629E+03  0.00000000000E+00 0.  1.
         11    1    1    2    0    0 -0.76322700497E+02  0.25633941780E+03 -0.36474090890E+03  0.45229523804E+03  0.00000000000E+00 0. -1.
        -15    1    3    3    0    0 -0.34438687120E+02 -0.36183697400E+02  0.24809882939E+03  0.25308391890E+03  0.17770000000E+01 0.  1.
         15    1    3    3    0    0  0.26597101506E+02  0.30115738080E+01  0.31486348376E+02  0.41364516779E+02  0.17770000000E+01 0. -1.
</event>
<event>
 7    1  0.3260141E-006  0.5172101E+03  0.7546771E-02  0.9362103E-01
        -11   -1    0    0    0    0  0.00000000000E+00  0.00000000000E+00  0.50000000000E+03  0.50000000000E+03  0.00000000000E+00 0.  1.
         11   -1    0    0    0    0 -0.00000000000E+00 -0.00000000000E+00 -0.50000000000E+03  0.50000000000E+03  0.00000000000E+00 0. -1.
         23    2    1    2    0    0 -0.77424991022E+02  0.11431303564E+03  0.33428092841E+03  0.37629663226E+03  0.10389088988E+03 0.  0.
        -11    1    1    2    0    0 -0.98475192199E+02  0.62437984705E+02  0.79124810353E+02  0.14091345225E+03  0.00000000000E+00 0.  1.
         11    1    1    2    0    0  0.17590018322E+03 -0.17675102034E+03 -0.41340573877E+03  0.48278991548E+03  0.00000000000E+00 0. -1.
        -15    1    3    3    0    0 -0.10245102303E+03  0.84238366755E+02  0.27383264217E+03  0.30426926923E+03  0.17770000000E+01 0.  1.
         15    1    3    3    0    0  0.25026032006E+02  0.30074668883E+02  0.60448286244E+02  0.72027363031E+02  0.17770000000E+01 0. -1.
</event>
<event>
 7    1  0.3260141E-006  0.5088859E+03  0.7546771E-02  0.9380143E-01
        -11   -1    0    0    0    0  0.00000000000E+00  0.00000000000E+00  0.50000000000E+03  0.50000000000E+03  0.00000000000E+00 0.  1.
         11   -1    0    0    0    0 -0.00000000000E+00 -0.00000000000E+00 -0.50000000000E+03  0.50000000000E+03  0.00000000000E+00 0. -1.
         23    2    1    2    0    0  0.88542091724E+02 -0.59119320228E+02  0.28811309809E+03  0.32230138898E+03  0.97643392094E+02 0.  0.
        -11    1    1    2    0    0  0.43994555894E+02 -0.73211526555E+02  0.16588650504E+03  0.18658451469E+03  0.00000000000E+00 0.  1.
         11    1    1    2    0    0 -0.13253664762E+03  0.13233084678E+03 -0.45399960313E+03  0.49111409633E+03  0.00000000000E+00 0. -1.
        -15    1    3    3    0    0  0.46174828057E+02 -0.33085997120E+02  0.25790214121E+03  0.26408989023E+03  0.17770000000E+01 0.  1.
         15    1    3    3    0    0  0.42367263667E+02 -0.26033323108E+02  0.30210956877E+02  0.58211498753E+02  0.17770000000E+01 0. -1.
</event>
<event>
 7    1  0.3260141E-006  0.5205423E+03  0.7546771E-02  0.9354983E-01
        -11   -1    0    0    0    0  0.00000000000E+00  0.00000000000E+00  0.50000000000E+03  0.50000000000E+03  0.00000000000E+00 0. -1.
         11   -1    0    0    0    0 -0.00000000000E+00 -0.00000000000E+00 -0.50000000000E+03  0.50000000000E+03  0.00000000000E+00 0. -1.
         23    2    1    2    0    0  0.99037158348E+01  0.20204721712E+02  0.35481133232E+03  0.36634248054E+03  0.88370906637E+02 0.  0.
        -11    1    1    2    0    0 -0.68611658650E+02  0.84220478107E+02  0.10943912274E+03  0.15419977374E+03  0.00000000000E+00 0. -1.
         11    1    1    2    0    0  0.58707942816E+02 -0.10442519982E+03 -0.46425045506E+03  0.47945774572E+03  0.00000000000E+00 0. -1.
        -15    1    3    3    0    0  0.38635261176E+02 -0.16604848124E+02  0.12716588924E+03  0.13395045914E+03  0.17770000000E+01 0.  1.
         15    1    3    3    0    0 -0.28731545341E+02  0.36809569836E+02  0.22764544308E+03  0.23239202141E+03  0.17770000000E+01 0. -1.
</event>
<event>
 7    1  0.3260141E-006  0.3525419E+03  0.7546771E-02  0.9808054E-01
        -11   -1    0    0    0    0  0.00000000000E+00  0.00000000000E+00  0.50000000000E+03  0.50000000000E+03  0.00000000000E+00 0.  1.
         11   -1    0    0    0    0 -0.00000000000E+00 -0.00000000000E+00 -0.50000000000E+03  0.50000000000E+03  0.00000000000E+00 0.  1.
         23    2    1    2    0    0 -0.14487195581E+03  0.69509459249E+02  0.24975212475E+03  0.31056007322E+03  0.90840446690E+02 0.  0.
        -11    1    1    2    0    0  0.93390986759E+02 -0.18004665419E+03  0.16227159315E+03  0.25975131191E+03  0.00000000000E+00 0.  1.
         11    1    1    2    0    0  0.51480969047E+02  0.11053719494E+03 -0.41202371790E+03  0.42968861488E+03  0.00000000000E+00 0.  1.
        -15    1    3    3    0    0 -0.12419854392E+03  0.81271502432E+02  0.16242792380E+03  0.22003709592E+03  0.17770000000E+01 0. -1.
         15    1    3    3    0    0 -0.20673411884E+02 -0.11762043183E+02  0.87324200952E+02  0.90522977302E+02  0.17770000000E+01 0.  1.
</event>
<event>
 7    1  0.3260141E-006  0.5151739E+03  0.7546771E-02  0.9366483E-01
        -11   -1    0    0    0    0  0.00000000000E+00  0.00000000000E+00  0.50000000000E+03  0.50000000000E+03  0.00000000000E+00 0.  1.
         11   -1    0    0    0    0 -0.00000000000E+00 -0.00000000000E+00 -0.50000000000E+03  0.50000000000E+03  0.00000000000E+00 0. -1.
         23    2    1    2    0    0  0.11133060483E+03  0.47249166557E+02 -0.22851844167E+03  0.27413959489E+03  0.91130960654E+02 0.  0.
        -11    1    1    2    0    0 -0.10141794310E+03 -0.10477731123E+03  0.46237694524E+03  0.48482607564E+03  0.00000000000E+00 0.  1.
         11    1    1    2    0    0 -0.99126617353E+01  0.57528144670E+02 -0.23385850357E+03  0.24103432948E+03  0.00000000000E+00 0. -1.
        -15    1    3    3    0    0  0.81387817011E+02  0.49537632386E+02 -0.22437499040E+03  0.24377294318E+03  0.17770000000E+01 0.  1.
         15    1    3    3    0    0  0.29942787823E+02 -0.22884658295E+01 -0.41434512656E+01  0.30366651707E+02  0.17770000000E+01 0. -1.
</event>
<event>
 7    1  0.3260141E-006  0.5161526E+03  0.7546771E-02  0.9364375E-01
        -11   -1    0    0    0    0  0.00000000000E+00  0.00000000000E+00  0.50000000000E+03  0.50000000000E+03  0.00000000000E+00 0. -1.
         11   -1    0    0    0    0 -0.00000000000E+00 -0.00000000000E+00 -0.50000000000E+03  0.50000000000E+03  0.00000000000E+00 0. -1.
         23    2    1    2    0    0 -0.74335575177E+02  0.12303176480E+03 -0.28195484404E+03  0.33241617074E+03  0.10168275961E+03 0.  0.
        -11    1    1    2    0    0  0.14416073389E+03 -0.10162677894E+03  0.45055300579E+03  0.48384742473E+03  0.00000000000E+00 0. -1.
         11    1    1    2    0    0 -0.69825158708E+02 -0.21404985860E+02 -0.16859816174E+03  0.18373640454E+03  0.00000000000E+00 0. -1.
        -15    1    3    3    0    0 -0.39577750685E+02  0.91568110298E+02 -0.88541441986E+02  0.13339363497E+03  0.17770000000E+01 0.  1.
         15    1    3    3    0    0 -0.34757824492E+02  0.31463654497E+02 -0.19341340206E+03  0.19902253576E+03  0.17770000000E+01 0. -1.
</event>
<event>
 7    1  0.3260141E-006  0.4357808E+03  0.7546771E-02  0.9556214E-01
        -11   -1    0    0    0    0  0.00000000000E+00  0.00000000000E+00  0.50000000000E+03  0.50000000000E+03  0.00000000000E+00 0. -1.
         11   -1    0    0    0    0 -0.00000000000E+00 -0.00000000000E+00 -0.50000000000E+03  0.50000000000E+03  0.00000000000E+00 0.  1.
         23    2    1    2    0    0 -0.13986902539E+02 -0.68873070155E+01  0.46638832784E+03  0.47552959702E+03  0.91472711001E+02 0.  0.
        -11    1    1    2    0    0  0.56405984156E+02  0.83158918479E+02 -0.80262698287E+02  0.12860459365E+03  0.00000000000E+00 0. -1.
         11    1    1    2    0    0 -0.42419081616E+02 -0.76271611464E+02 -0.38612562955E+03  0.39586580933E+03  0.00000000000E+00 0.  1.
        -15    1    3    3    0    0 -0.52681206402E+02  0.97903003800E+00  0.29164717330E+03  0.29637391827E+03  0.17770000000E+01 0. -1.
         15    1    3    3    0    0  0.38694303863E+02 -0.78663370536E+01  0.17474115454E+03  0.17915567875E+03  0.17770000000E+01 0.  1.
</event>
<event>
 7    1  0.3260141E-006  0.5189576E+03  0.7546771E-02  0.9358362E-01
        -11   -1    0    0    0    0  0.00000000000E+00  0.00000000000E+00  0.50000000000E+03  0.50000000000E+03  0.00000000000E+00 0. -1.
         11   -1    0    0    0    0 -0.00000000000E+00 -0.00000000000E+00 -0.50000000000E+03  0.50000000000E+03  0.00000000000E+00 0. -1.
         23    2    1    2    0    0 -0.67196345528E+01 -0.68820764566E+02  0.32684295001E+03  0.34602480166E+03  0.90140991059E+02 0.  0.
        -11    1    1    2    0    0  0.69530296527E+02 -0.10743011675E+03  0.11631873103E+03  0.17293275950E+03  0.00000000000E+00 0. -1.
         11    1    1    2    0    0 -0.62810661974E+02  0.17625088132E+03 -0.44316168104E+03  0.48104243884E+03  0.00000000000E+00 0. -1.
        -15    1    3    3    0    0 -0.12604796862E+02 -0.89937216775E+02  0.27788140150E+03  0.29235050008E+03  0.17770000000E+01 0. -1.
         15    1    3    3    0    0  0.58851623088E+01  0.21116452208E+02  0.48961548508E+02  0.53674301584E+02  0.17770000000E+01 0.  1.
</event>
<event>
 7    1  0.3260141E-006  0.5159755E+03  0.7546771E-02  0.9364756E-01
        -11   -1    0    0    0    0  0.00000000000E+00  0.00000000000E+00  0.50000000000E+03  0.50000000000E+03  0.00000000000E+00 0. -1.
         11   -1    0    0    0    0 -0.00000000000E+00 -0.00000000000E+00 -0.50000000000E+03  0.50000000000E+03  0.00000000000E+00 0.  1.
         23    2    1    2    0    0 -0.32691573077E+02  0.38226571865E+02  0.14118963776E+03  0.17620194965E+03  0.92642341843E+02 0.  0.
        -11    1    1    2    0    0  0.11166579413E+02  0.15605365111E+03  0.30161007016E+03  0.33977355539E+03  0.00000000000E+00 0. -1.
         11    1    1    2    0    0  0.21524993664E+02 -0.19428022297E+03 -0.44279970792E+03  0.48402449496E+03  0.00000000000E+00 0.  1.
        -15    1    3    3    0    0 -0.37541606720E+02 -0.35427593809E+01  0.10913637441E+02  0.39296165084E+02  0.17770000000E+01 0.  1.
         15    1    3    3    0    0  0.48500336425E+01  0.41769331246E+02  0.13027600032E+03  0.13690578456E+03  0.17770000000E+01 0. -1.
</event>
<event>
 7    1  0.3260141E-006  0.5125773E+03  0.7546771E-02  0.9372099E-01
        -11   -1    0    0    0    0  0.00000000000E+00  0.00000000000E+00  0.50000000000E+03  0.50000000000E+03  0.00000000000E+00 0.  1.
         11   -1    0    0    0    0 -0.00000000000E+00 -0.00000000000E+00 -0.50000000000E+03  0.50000000000E+03  0.00000000000E+00 0. -1.
         23    2    1    2    0    0  0.22915060649E+01 -0.33045029051E+02 -0.18037824007E+03  0.20428869749E+03  0.90001874904E+02 0.  0.
        -11    1    1    2    0    0  0.61047895142E+02  0.13474854974E+03  0.46443174420E+03  0.48742267302E+03  0.00000000000E+00 0.  1.
         11    1    1    2    0    0 -0.63339401207E+02 -0.10170352069E+03 -0.28405350412E+03  0.30828862948E+03  0.00000000000E+00 0. -1.
        -15    1    3    3    0    0  0.12655292982E+02  0.29546617484E+02 -0.53976749937E+02  0.62847484500E+02  0.17770000000E+01 0.  1.
         15    1    3    3    0    0 -0.10363786917E+02 -0.62591646535E+02 -0.12640149014E+03  0.14144121299E+03  0.17770000000E+01 0. -1.
</event>
<event>
 7    1  0.3260141E-006  0.5255301E+03  0.7546771E-02  0.9344429E-01
        -11   -1    0    0    0    0  0.00000000000E+00  0.00000000000E+00  0.50000000000E+03  0.50000000000E+03  0.00000000000E+00 0. -1.
         11   -1    0    0    0    0 -0.00000000000E+00 -0.00000000000E+00 -0.50000000000E+03  0.50000000000E+03  0.00000000000E+00 0. -1.
         23    2    1    2    0    0 -0.26479291248E+02  0.48710133593E+02  0.11118800673E+03  0.15401660519E+03  0.91019293858E+02 0.  0.
        -11    1    1    2    0    0 -0.36196776424E+02 -0.97930375372E+02  0.35654134160E+03  0.37151351700E+03  0.00000000000E+00 0. -1.
         11    1    1    2    0    0  0.62676067673E+02  0.49220241779E+02 -0.46772934833E+03  0.47446987781E+03  0.00000000000E+00 0. -1.
        -15    1    3    3    0    0  0.25928787638E+02  0.46899238380E+02  0.48837471679E+02  0.72526525892E+02  0.17770000000E+01 0.  1.
         15    1    3    3    0    0 -0.52408078886E+02  0.18108952133E+01  0.62350535051E+02  0.81490079299E+02  0.17770000000E+01 0. -1.
</event>
<event>
 7    1  0.3260141E-006  0.5267472E+03  0.7546771E-02  0.9341873E-01
        -11   -1    0    0    0    0  0.00000000000E+00  0.00000000000E+00  0.50000000000E+03  0.50000000000E+03  0.00000000000E+00 0.  1.
         11   -1    0    0    0    0 -0.00000000000E+00 -0.00000000000E+00 -0.50000000000E+03  0.50000000000E+03  0.00000000000E+00 0. -1.
         23    2    1    2    0    0 -0.22731570215E+02 -0.18045905098E+02  0.10976568769E+03  0.14348404374E+03  0.87731326438E+02 0.  0.
        -11    1    1    2    0    0  0.19251456058E+03 -0.54068579206E+01  0.33136010398E+03  0.38326310631E+03  0.00000000000E+00 0.  1.
         11    1    1    2    0    0 -0.16978299036E+03  0.23452763018E+02 -0.44112579167E+03  0.47325284995E+03  0.00000000000E+00 0. -1.
        -15    1    3    3    0    0  0.65035515803E+01  0.31312368444E+02  0.57693032820E+02  0.65987910754E+02  0.17770000000E+01 0. -1.
         15    1    3    3    0    0 -0.29235121795E+02 -0.49358273542E+02  0.52072654872E+02  0.77496132986E+02  0.17770000000E+01 0.  1.
</event>
<event>
 7    1  0.3260141E-006  0.4489490E+03  0.7546771E-02  0.9521895E-01
        -11   -1    0    0    0    0  0.00000000000E+00  0.00000000000E+00  0.50000000000E+03  0.50000000000E+03  0.00000000000E+00 0. -1.
         11   -1    0    0    0    0 -0.00000000000E+00 -0.00000000000E+00 -0.50000000000E+03  0.50000000000E+03  0.00000000000E+00 0.  1.
         23    2    1    2    0    0 -0.69241996361E+01  0.17948635233E+02  0.41470330670E+03  0.42453825321E+03  0.88790752896E+02 0.  0.
        -11    1    1    2    0    0 -0.94873295226E+02  0.55483662993E+01  0.44203763465E+02  0.10481268635E+03  0.00000000000E+00 0. -1.
         11    1    1    2    0    0  0.10179749486E+03 -0.23497001532E+02 -0.45890707017E+03  0.47064906044E+03  0.00000000000E+00 0.  1.
        -15    1    3    3    0    0  0.33156504112E+02 -0.16522515340E+02  0.20044760099E+03  0.20384981175E+03  0.17770000000E+01 0.  1.
         15    1    3    3    0    0 -0.40080703748E+02  0.34471150573E+02  0.21425570572E+03  0.22068844146E+03  0.17770000000E+01 0. -1.
</event>
<event>
 7    1  0.3260141E-006  0.3594372E+03  0.7546771E-02  0.9784480E-01
        -11   -1    0    0    0    0  0.00000000000E+00  0.00000000000E+00  0.50000000000E+03  0.50000000000E+03  0.00000000000E+00 0.  1.
         11   -1    0    0    0    0 -0.00000000000E+00 -0.00000000000E+00 -0.50000000000E+03  0.50000000000E+03  0.00000000000E+00 0.  1.
         23    2    1    2    0    0 -0.38361014721E+02  0.10875295658E+03  0.19183294225E+03  0.24708637946E+03  0.10465671582E+03 0.  0.
        -11    1    1    2    0    0 -0.18391108532E+03  0.20811878747E+03 -0.23452647261E+03  0.36350981192E+03  0.00000000000E+00 0.  1.
         11    1    1    2    0    0  0.22227210005E+03 -0.31687174405E+03  0.42693530364E+02  0.38940380863E+03  0.00000000000E+00 0.  1.
        -15    1    3    3    0    0 -0.17015293477E+02  0.10109535896E+03  0.19847018922E+03  0.22339061205E+03  0.17770000000E+01 0.  1.
         15    1    3    3    0    0 -0.21345721244E+02  0.76575976160E+01 -0.66372469666E+01  0.23695767406E+02  0.17770000000E+01 0. -1.
</event>
<event>
 7    1  0.3260141E-006  0.3198569E+03  0.7546771E-02  0.9928237E-01
        -11   -1    0    0    0    0  0.00000000000E+00  0.00000000000E+00  0.50000000000E+03  0.50000000000E+03  0.00000000000E+00 0.  1.
         11   -1    0    0    0    0 -0.00000000000E+00 -0.00000000000E+00 -0.50000000000E+03  0.50000000000E+03  0.00000000000E+00 0. -1.
         23    2    1    2    0    0  0.17472292628E+03 -0.17381060905E+03  0.17156237841E+03  0.31539400263E+03  0.96444276251E+02 0.  0.
        -11    1    1    2    0    0 -0.73069775395E+02  0.22634487829E+03  0.19060178113E+03  0.30479539854E+03  0.00000000000E+00 0.  1.
         11    1    1    2    0    0 -0.10165315088E+03 -0.52534269240E+02 -0.36216415954E+03  0.37981059883E+03  0.00000000000E+00 0. -1.
        -15    1    3    3    0    0  0.64303876040E+02 -0.85165555428E+02  0.12920099923E+03  0.16758346051E+03  0.17770000000E+01 0.  1.
         15    1    3    3    0    0  0.11041905024E+03 -0.88645053618E+02  0.42361379189E+02  0.14781054212E+03  0.17770000000E+01 0. -1.
</event>
<event>
 7    1  0.3260141E-006  0.4774785E+03  0.7546771E-02  0.9451663E-01
        -11   -1    0    0    0    0  0.00000000000E+00  0.00000000000E+00  0.50000000000E+03  0.50000000000E+03  0.00000000000E+00 0.  1.
         11   -1    0    0    0    0 -0.00000000000E+00 -0.00000000000E+00 -0.50000000000E+03  0.50000000000E+03  0.00000000000E+00 0. -1.
         23    2    1    2    0    0  0.17649393039E+03  0.24938301896E+01 -0.40661562110E+03  0.45299299413E+03  0.93327716932E+02 0.  0.
        -11    1    1    2    0    0 -0.19997339335E+03  0.11328999481E+02  0.45182041377E+03  0.49422605210E+03  0.00000000000E+00 0.  1.
         11    1    1    2    0    0  0.23479462965E+02 -0.13822829671E+02 -0.45204792665E+02  0.52780953772E+02  0.00000000000E+00 0. -1.
        -15    1    3    3    0    0  0.39707759696E+01 -0.19926335427E+02 -0.84144779090E+02  0.86581334492E+02  0.17770000000E+01 0. -1.
         15    1    3    3    0    0  0.17252315442E+03  0.22420165616E+02 -0.32247084201E+03  0.36641165963E+03  0.17770000000E+01 0.  1.
</event>
<event>
 7    1  0.3260141E-006  0.3447531E+03  0.7546771E-02  0.9835387E-01
        -11   -1    0    0    0    0  0.00000000000E+00  0.00000000000E+00  0.50000000000E+03  0.50000000000E+03  0.00000000000E+00 0. -1.
         11   -1    0    0    0    0 -0.00000000000E+00 -0.00000000000E+00 -0.50000000000E+03  0.50000000000E+03  0.00000000000E+00 0. -1.
         23    2    1    2    0    0  0.19614556140E+03 -0.18539245439E+03  0.24049077612E+03  0.37287902736E+03  0.91430368303E+02 0.  0.
        -11    1    1    2    0    0 -0.22389149207E+03  0.10877080027E+03  0.10646233974E+03  0.27072627689E+03  0.00000000000E+00 0. -1.
         11    1    1    2    0    0  0.27745930678E+02  0.76621654116E+02 -0.34695311586E+03  0.35639469575E+03  0.00000000000E+00 0. -1.
        -15    1    3    3    0    0  0.53988247645E+02 -0.64143572003E+02  0.24671691452E+02  0.87412692449E+02  0.17770000000E+01 0.  1.
         15    1    3    3    0    0  0.14215731375E+03 -0.12124888239E+03  0.21581908467E+03  0.28546633491E+03  0.17770000000E+01 0. -1.
</event>
<event>
 7    1  0.3260141E-006  0.5326055E+03  0.7546771E-02  0.9329670E-01
        -11   -1    0    0    0    0  0.00000000000E+00  0.00000000000E+00  0.50000000000E+03  0.50000000000E+03  0.00000000000E+00 0. -1.
         11   -1    0    0    0    0 -0.00000000000E+00 -0.00000000000E+00 -0.50000000000E+03  0.50000000000E+03  0.00000000000E+00 0.  1.
         23    2    1    2    0    0 -0.88300596373E+02  0.49370464678E+02  0.20477312754E+03  0.24802275536E+03  0.96689271956E+02 0.  0.
        -11    1    1    2    0    0  0.12437769272E+03  0.34266662916E+02  0.25365990999E+03  0.28458279036E+03  0.00000000000E+00 0. -1.
         11    1    1    2    0    0 -0.36077096348E+02 -0.83637127594E+02 -0.45843303753E+03  0.46739445428E+03  0.00000000000E+00 0.  1.
        -15    1    3    3    0    0 -0.19504374748E+02  0.79356071280E+00 -0.64395602831E+01  0.20631917956E+02  0.17770000000E+01 0.  1.
         15    1    3    3    0    0 -0.68796221625E+02  0.48576903965E+02  0.21121268782E+03  0.22739083740E+03  0.17770000000E+01 0. -1.
</event>
<event>
 7    1  0.3260141E-006  0.3922815E+03  0.7546771E-02  0.9679485E-01
        -11   -1    0    0    0    0  0.00000000000E+00  0.00000000000E+00  0.50000000000E+03  0.50000000000E+03  0.00000000000E+00 0.  1.
         11   -1    0    0    0    0 -0.00000000000E+00 -0.00000000000E+00 -0.50000000000E+03  0.50000000000E+03  0.00000000000E+00 0. -1.
         23    2    1    2    0    0 -0.93834298377E+02 -0.14068208362E+03 -0.15516408194E+02  0.19726953369E+03  0.10039016782E+03 0.  0.
        -11    1    1    2    0    0  0.40302182560E+02  0.88055574757E+02  0.39970893601E+03  0.41127276070E+03  0.00000000000E+00 0.  1.
         11    1    1    2    0    0  0.53532115817E+02  0.52626508863E+02 -0.38419252781E+03  0.39145770562E+03  0.00000000000E+00 0. -1.
        -15    1    3    3    0    0 -0.10507961648E+03 -0.13719408538E+03  0.57278471291E+01  0.17291590102E+03  0.17770000000E+01 0.  1.
         15    1    3    3    0    0  0.11245318104E+02 -0.34879982409E+01 -0.21244255323E+02  0.24353632670E+02  0.17770000000E+01 0. -1.
</event>
<event>
 7    1  0.3260141E-006  0.3280934E+03  0.7546771E-02  0.9896543E-01
        -11   -1    0    0    0    0  0.00000000000E+00  0.00000000000E+00  0.50000000000E+03  0.50000000000E+03  0.00000000000E+00 0.  1.
         11   -1    0    0    0    0 -0.00000000000E+00 -0.00000000000E+00 -0.50000000000E+03  0.50000000000E+03  0.00000000000E+00 0.  1.
         23    2    1    2    0    0 -0.12191294415E+03  0.16009759503E+03  0.30208778164E+03  0.37444824798E+03  0.91980740974E+02 0.  0.
        -11    1    1    2    0    0  0.13215828583E+03 -0.26140242540E+03  0.14223051422E+02  0.29325643337E+03  0.00000000000E+00 0.  1.
         11    1    1    2    0    0 -0.10245341687E+02  0.10130483037E+03 -0.31631083307E+03  0.33229531865E+03  0.00000000000E+00 0.  1.
        -15    1    3    3    0    0 -0.15828623513E+02 -0.51655410922E+01  0.62249090541E+02  0.64461889045E+02  0.17770000000E+01 0. -1.
         15    1    3    3    0    0 -0.10608432063E+03  0.16526313612E+03  0.23983869110E+03  0.30998635893E+03  0.17770000000E+01 0.  1.
</event>
<event>
 7    1  0.3260141E-006  0.3779844E+03  0.7546771E-02  0.9723784E-01
        -11   -1    0    0    0    0  0.00000000000E+00  0.00000000000E+00  0.50000000000E+03  0.50000000000E+03  0.00000000000E+00 0.  1.
         11   -1    0    0    0    0 -0.00000000000E+00 -0.00000000000E+00 -0.50000000000E+03  0.50000000000E+03  0.00000000000E+00 0. -1.
         23    2    1    2    0    0 -0.20708853522E+03 -0.51348043029E+02  0.25658336599E+03  0.34640864523E+03  0.92960437002E+02 0.  0.
        -11    1    1    2    0    0  0.11575404081E+03  0.10156940960E+03  0.16123859988E+03  0.22296463626E+03  0.00000000000E+00 0.  1.
         11    1    1    2    0    0  0.91334494410E+02 -0.50221366574E+02 -0.41782196587E+03  0.43062671850E+03  0.00000000000E+00 0. -1.
        -15    1    3    3    0    0 -0.14833675308E+03 -0.54308198744E+02  0.23613220407E+03  0.28410341127E+03  0.17770000000E+01 0.  1.
         15    1    3    3    0    0 -0.58751782144E+02  0.29601557153E+01  0.20451161916E+02  0.62305233967E+02  0.17770000000E+01 0. -1.
</event>
<event>
 6    1  0.3260141E-006  0.3521141E+03  0.7546771E-02  0.9809536E-01
        -11   -1    0    0    0    0  0.00000000000E+00  0.00000000000E+00  0.50000000000E+03  0.50000000000E+03  0.00000000000E+00 0. -1.
         11   -1    0    0    0    0 -0.00000000000E+00 -0.00000000000E+00 -0.50000000000E+03  0.50000000000E+03  0.00000000000E+00 0. -1.
        -11    1    1    2    0    0 -0.66059821044E+02  0.34246891890E+03 -0.80765471442E+02  0.35801106372E+03  0.00000000000E+00 0. -1.
         11    1    1    2    0    0 -0.28472951442E+02 -0.18096156399E+03 -0.20265273213E+03  0.27317746328E+03  0.00000000000E+00 0. -1.
        -15    1    1    2    0    0  0.76914239805E+02 -0.36227134448E+01  0.87410268981E+02  0.11650166175E+03  0.17770000000E+01 0. -1.
         15    1    1    2    0    0  0.17618532681E+02 -0.15788464146E+03  0.19600793459E+03  0.25230981125E+03  0.17770000000E+01 0.  1.
</event>
<event>
 7    1  0.3260141E-006  0.3565511E+03  0.7546771E-02  0.9794278E-01
        -11   -1    0    0    0    0  0.00000000000E+00  0.00000000000E+00  0.50000000000E+03  0.50000000000E+03  0.00000000000E+00 0.  1.
         11   -1    0    0    0    0 -0.00000000000E+00 -0.00000000000E+00 -0.50000000000E+03  0.50000000000E+03  0.00000000000E+00 0. -1.
         23    2    1    2    0    0 -0.16940606805E+03  0.14056305251E+03 -0.60193377891E+02  0.25127141577E+03  0.10515557055E+03 0.  0.
        -11    1    1    2    0    0  0.38876906226E+02 -0.16169511921E+03  0.37339695390E+03  0.40875666428E+03  0.00000000000E+00 0.  1.
         11    1    1    2    0    0  0.13052916182E+03  0.21132066698E+02 -0.31320357601E+03  0.33997191995E+03  0.00000000000E+00 0. -1.
        -15    1    3    3    0    0 -0.20732410787E+02  0.57858971060E+01  0.25192094596E+02  0.33182959806E+02  0.17770000000E+01 0.  1.
         15    1    3    3    0    0 -0.14867365726E+03  0.13477715541E+03 -0.85385472487E+02  0.21808845596E+03  0.17770000000E+01 0. -1.
</event>
<event>
 7    1  0.3260141E-006  0.3527155E+03  0.7546771E-02  0.9807453E-01
        -11   -1    0    0    0    0  0.00000000000E+00  0.00000000000E+00  0.50000000000E+03  0.50000000000E+03  0.00000000000E+00 0. -1.
         11   -1    0    0    0    0 -0.00000000000E+00 -0.00000000000E+00 -0.50000000000E+03  0.50000000000E+03  0.00000000000E+00 0.  1.
         23    2    1    2    0    0  0.93691257589E+01 -0.14407371571E+03  0.19078441353E+03  0.25509964259E+03  0.88499260607E+02 0.  0.
        -11    1    1    2    0    0 -0.13573286955E+03  0.11330139835E+03  0.23819244869E+03  0.29664163794E+03  0.00000000000E+00 0. -1.
         11    1    1    2    0    0  0.12636374379E+03  0.30772317362E+02 -0.42897686222E+03  0.44825871947E+03  0.00000000000E+00 0.  1.
        -15    1    3    3    0    0 -0.14411660413E+02 -0.98686343390E+01 -0.33674475547E+01  0.17876893790E+02  0.17770000000E+01 0.  1.
         15    1    3    3    0    0  0.23780786171E+02 -0.13420508137E+03  0.19415186109E+03  0.23722274880E+03  0.17770000000E+01 0. -1.
</event>
<event>
 7    1  0.3260141E-006  0.5141159E+03  0.7546771E-02  0.9368767E-01
        -11   -1    0    0    0    0  0.00000000000E+00  0.00000000000E+00  0.50000000000E+03  0.50000000000E+03  0.00000000000E+00 0. -1.
         11   -1    0    0    0    0 -0.00000000000E+00 -0.00000000000E+00 -0.50000000000E+03  0.50000000000E+03  0.00000000000E+00 0.  1.
         23    2    1    2    0    0  0.85869628687E+01  0.41970363922E+02  0.24585694073E+03  0.26571024309E+03  0.91219792813E+02 0.  0.
        -11    1    1    2    0    0 -0.96144054343E+02  0.59589567673E+02  0.22115776151E+03  0.24840561837E+03  0.00000000000E+00 0. -1.
         11    1    1    2    0    0  0.87557091475E+02 -0.10155993160E+03 -0.46701470224E+03  0.48588413854E+03  0.00000000000E+00 0.  1.
        -15    1    3    3    0    0 -0.17950218269E+02  0.33904717661E+02  0.23104866595E+03  0.23421866702E+03  0.17770000000E+01 0. -1.
         15    1    3    3    0    0  0.26537181138E+02  0.80656462618E+01  0.14808274776E+02  0.31491576067E+02  0.17770000000E+01 0.  1.
</event>
<event>
 7    1  0.3260141E-006  0.5003104E+03  0.7546771E-02  0.9399115E-01
        -11   -1    0    0    0    0  0.00000000000E+00  0.00000000000E+00  0.50000000000E+03  0.50000000000E+03  0.00000000000E+00 0.  1.
         11   -1    0    0    0    0 -0.00000000000E+00 -0.00000000000E+00 -0.50000000000E+03  0.50000000000E+03  0.00000000000E+00 0. -1.
         23    2    1    2    0    0 -0.18175494428E+03  0.40898783317E+02  0.45592153016E+03  0.50031041852E+03  0.87968761337E+02 0.  0.
        -11    1    1    2    0    0  0.17600513445E+03 -0.18253761246E+02 -0.36237964669E+03  0.40327411954E+03  0.00000000000E+00 0. -1.
         11    1    1    2    0    0  0.57498098320E+01 -0.22645022070E+02 -0.93541883472E+02  0.96415461940E+02  0.00000000000E+00 0.  1.
        -15    1    3    3    0    0 -0.16613998282E+03  0.47250101068E+01  0.37975987279E+03  0.41454256515E+03  0.17770000000E+01 0. -1.
         15    1    3    3    0    0 -0.15614961465E+02  0.36173773210E+02  0.76161657373E+02  0.85767853375E+02  0.17770000000E+01 0.  1.
</event>
<event>
 7    1  0.3260141E-006  0.4408940E+03  0.7546771E-02  0.9542736E-01
        -11   -1    0    0    0    0  0.00000000000E+00  0.00000000000E+00  0.50000000000E+03  0.50000000000E+03  0.00000000000E+00 0.  1.
         11   -1    0    0    0    0 -0.00000000000E+00 -0.00000000000E+00 -0.50000000000E+03  0.50000000000E+03  0.00000000000E+00 0. -1.
         23    2    1    2    0    0  0.53410650481E+02 -0.30440195411E+02  0.44040019687E+03  0.45694809663E+03  0.10521371833E+03 0.  0.
        -11    1    1    2    0    0  0.13239617723E+02 -0.11097458128E+03 -0.49852029192E+02  0.12237593710E+03  0.00000000000E+00 0.  1.
         11    1    1    2    0    0 -0.66650268205E+02  0.14141477669E+03 -0.39054816768E+03  0.42067596627E+03  0.00000000000E+00 0. -1.
        -15    1    3    3    0    0  0.81019594322E+02 -0.36505849897E+02  0.37971338448E+03  0.38997726064E+03  0.17770000000E+01 0.  1.
         15    1    3    3    0    0 -0.27608943840E+02  0.60656544867E+01  0.60686812396E+02  0.66970835982E+02  0.17770000000E+01 0. -1.
</event>
<event>
 7    1  0.3260141E-006  0.4572225E+03  0.7546771E-02  0.9500968E-01
        -11   -1    0    0    0    0  0.00000000000E+00  0.00000000000E+00  0.50000000000E+03  0.50000000000E+03  0.00000000000E+00 0. -1.
         11   -1    0    0    0    0 -0.00000000000E+00 -0.00000000000E+00 -0.50000000000E+03  0.50000000000E+03  0.00000000000E+00 0. -1.
         23    2    1    2    0    0  0.30190041200E+03 -0.24360372050E+03  0.20182331268E+03  0.44749526380E+03  0.95040676427E+02 0.  0.
        -11    1    1    2    0    0 -0.32138279118E+03  0.30239872523E+03 -0.13518590990E+03  0.46152694150E+03  0.00000000000E+00 0. -1.
         11    1    1    2    0    0  0.19482379181E+02 -0.58795004735E+02 -0.66637402778E+02  0.90977794705E+02  0.00000000000E+00 0. -1.
        -15    1    3    3    0    0  0.11214539021E+03 -0.80502299594E+02  0.23051789727E+02  0.13997053806E+03  0.17770000000E+01 0.  1.
         15    1    3    3    0    0  0.18975502179E+03 -0.16310142090E+03  0.17877152295E+03  0.30752472574E+03  0.17770000000E+01 0. -1.
</event>
<event>
 7    1  0.3260141E-006  0.4627188E+03  0.7546771E-02  0.9487325E-01
        -11   -1    0    0    0    0  0.00000000000E+00  0.00000000000E+00  0.50000000000E+03  0.50000000000E+03  0.00000000000E+00 0.  1.
         11   -1    0    0    0    0 -0.00000000000E+00 -0.00000000000E+00 -0.50000000000E+03  0.50000000000E+03  0.00000000000E+00 0.  1.
         23    2    1    2    0    0 -0.16978955434E+03 -0.70417018144E+02 -0.37291815251E+03  0.42532035648E+03  0.89679473426E+02 0.  0.
        -11    1    1    2    0    0  0.19877001930E+03  0.95666610197E+02  0.44292366908E+03  0.49481612495E+03  0.00000000000E+00 0.  1.
         11    1    1    2    0    0 -0.28980464955E+02 -0.25249592053E+02 -0.70005516574E+02  0.79863518571E+02  0.00000000000E+00 0.  1.
        -15    1    3    3    0    0 -0.30298281294E+02 -0.38801761474E+02 -0.17041985972E+03  0.17739686824E+03  0.17770000000E+01 0.  1.
         15    1    3    3    0    0 -0.13949127305E+03 -0.31615256670E+02 -0.20249829279E+03  0.24792348824E+03  0.17770000000E+01 0. -1.
</event>
<event>
 7    1  0.3260141E-006  0.5077094E+03  0.7546771E-02  0.9382723E-01
        -11   -1    0    0    0    0  0.00000000000E+00  0.00000000000E+00  0.50000000000E+03  0.50000000000E+03  0.00000000000E+00 0.  1.
         11   -1    0    0    0    0 -0.00000000000E+00 -0.00000000000E+00 -0.50000000000E+03  0.50000000000E+03  0.00000000000E+00 0. -1.
         23    2    1    2    0    0  0.42275261471E+02 -0.16163352038E+02  0.30254848799E+03  0.31936536186E+03  0.91707115818E+02 0.  0.
        -11    1    1    2    0    0  0.17812329913E+02 -0.43318581780E+02  0.18242721895E+03  0.18834401726E+03  0.00000000000E+00 0.  1.
         11    1    1    2    0    0 -0.60087591384E+02  0.59481933818E+02 -0.48497570694E+03  0.49229062088E+03  0.00000000000E+00 0. -1.
        -15    1    3    3    0    0 -0.55921629072E+01 -0.39128005907E+02  0.19998942296E+03  0.20386564241E+03  0.17770000000E+01 0.  1.
         15    1    3    3    0    0  0.47867424378E+02  0.22964653869E+02  0.10255906503E+03  0.11549971945E+03  0.17770000000E+01 0. -1.
</event>
<event>
 7    1  0.3260141E-006  0.4646559E+03  0.7546771E-02  0.9482564E-01
        -11   -1    0    0    0    0  0.00000000000E+00  0.00000000000E+00  0.50000000000E+03  0.50000000000E+03  0.00000000000E+00 0.  1.
         11   -1    0    0    0    0 -0.00000000000E+00 -0.00000000000E+00 -0.50000000000E+03  0.50000000000E+03  0.00000000000E+00 0.  1.
         23    2    1    2    0    0  0.17767045443E+02  0.79931881091E+01  0.47172413624E+03  0.48114832341E+03  0.92738823856E+02 0.  0.
        -11    1    1    2    0    0  0.11706836530E+02  0.66315552611E+02 -0.36995261048E+02  0.76833924016E+02  0.00000000000E+00 0.  1.
         11    1    1    2    0    0 -0.29473881973E+02 -0.74308740720E+02 -0.43472887519E+03  0.44201775257E+03  0.00000000000E+00 0.  1.
        -15    1    3    3    0    0  0.27796796314E+02 -0.38055734649E+02  0.21267020056E+03  0.21783634399E+03  0.17770000000E+01 0. -1.
         15    1    3    3    0    0 -0.10029750871E+02  0.46048922758E+02  0.25905393568E+03  0.26331197942E+03  0.17770000000E+01 0.  1.
</event>
<event>
 7    1  0.3260141E-006  0.5206179E+03  0.7546771E-02  0.9354822E-01
        -11   -1    0    0    0    0  0.00000000000E+00  0.00000000000E+00  0.50000000000E+03  0.50000000000E+03  0.00000000000E+00 0.  1.
         11   -1    0    0    0    0 -0.00000000000E+00 -0.00000000000E+00 -0.50000000000E+03  0.50000000000E+03  0.00000000000E+00 0. -1.
         23    2    1    2    0    0  0.14787994049E+02 -0.40497559950E+02 -0.14870227654E+03  0.18001300903E+03  0.91834520960E+02 0.  0.
        -11    1    1    2    0    0 -0.14624915765E+03 -0.26064171459E+02  0.45578399628E+03  0.47938211106E+03  0.00000000000E+00 0.  1.
         11    1    1    2    0    0  0.13146116360E+03  0.66561731410E+02 -0.30708171973E+03  0.34060487991E+03  0.00000000000E+00 0. -1.
        -15    1    3    3    0    0 -0.23235742613E+01 -0.61284813885E+02 -0.13792788867E+03  0.15095856256E+03  0.17770000000E+01 0.  1.
         15    1    3    3    0    0  0.17111568310E+02  0.20787253935E+02 -0.10774387877E+02  0.29054446464E+02  0.17770000000E+01 0. -1.
</event>
<event>
 7    1  0.3260141E-006  0.4361759E+03  0.7546771E-02  0.9555166E-01
        -11   -1    0    0    0    0  0.00000000000E+00  0.00000000000E+00  0.50000000000E+03  0.50000000000E+03  0.00000000000E+00 0. -1.
         11   -1    0    0    0    0 -0.00000000000E+00 -0.00000000000E+00 -0.50000000000E+03  0.50000000000E+03  0.00000000000E+00 0.  1.
         23    2    1    2    0    0  0.67479722069E+02 -0.47771053850E+02  0.60080256987E+01  0.12371852791E+03  0.91840031023E+02 0.  0.
        -11    1    1    2    0    0 -0.12971429656E+03 -0.18913021001E+03  0.36538181690E+03  0.43139298464E+03  0.00000000000E+00 0. -1.
         11    1    1    2    0    0  0.62234574490E+02  0.23690126386E+03 -0.37138984260E+03  0.44488848745E+03  0.00000000000E+00 0.  1.
        -15    1    3    3    0    0 -0.17374085438E+02 -0.36235127486E+00 -0.16392409570E+02  0.23955353552E+02  0.17770000000E+01 0.  1.
         15    1    3    3    0    0  0.84853807508E+02 -0.47408702575E+02  0.22400435269E+02  0.99763174356E+02  0.17770000000E+01 0. -1.
</event>
<event>
 7    1  0.3260141E-006  0.5114017E+03  0.7546771E-02  0.9374653E-01
        -11   -1    0    0    0    0  0.00000000000E+00  0.00000000000E+00  0.50000000000E+03  0.50000000000E+03  0.00000000000E+00 0. -1.
         11   -1    0    0    0    0 -0.00000000000E+00 -0.00000000000E+00 -0.50000000000E+03  0.50000000000E+03  0.00000000000E+00 0.  1.
         23    2    1    2    0    0  0.15890017499E+02 -0.16291252269E+03  0.31847868722E+03  0.36446188811E+03  0.67902952552E+02 0.  0.
        -11    1    1    2    0    0 -0.71190765395E+02 -0.72992969132E+02  0.10580743467E+03  0.14693982391E+03  0.00000000000E+00 0. -1.
         11    1    1    2    0    0  0.55300747896E+02  0.23590549182E+03 -0.42428612189E+03  0.48859828798E+03  0.00000000000E+00 0.  1.
        -15    1    3    3    0    0 -0.75025486155E+01 -0.86977788332E+02  0.10437705444E+03  0.13608508780E+03  0.17770000000E+01 0.  1.
         15    1    3    3    0    0  0.23392566115E+02 -0.75934734358E+02  0.21410163278E+03  0.22837680031E+03  0.17770000000E+01 0. -1.
</event>
<event>
 7    1  0.3260141E-006  0.3903564E+03  0.7546771E-02  0.9685332E-01
        -11   -1    0    0    0    0  0.00000000000E+00  0.00000000000E+00  0.50000000000E+03  0.50000000000E+03  0.00000000000E+00 0. -1.
         11   -1    0    0    0    0 -0.00000000000E+00 -0.00000000000E+00 -0.50000000000E+03  0.50000000000E+03  0.00000000000E+00 0.  1.
         23    2    1    2    0    0  0.74255133239E+02  0.12531499612E+03  0.10257311158E+03  0.19921820577E+03  0.89157036894E+02 0.  0.
        -11    1    1    2    0    0  0.14826024244E+03 -0.27499102952E+03  0.21940004752E+03  0.38175587311E+03  0.00000000000E+00 0. -1.
         11    1    1    2    0    0 -0.22251537568E+03  0.14967603340E+03 -0.32197315910E+03  0.41902592112E+03  0.00000000000E+00 0.  1.
        -15    1    3    3    0    0  0.32981332215E+02  0.12508336036E+03  0.74808283913E+02  0.14944247182E+03  0.17770000000E+01 0. -1.
         15    1    3    3    0    0  0.41273801024E+02  0.23163576098E+00  0.27764827666E+02  0.49775733952E+02  0.17770000000E+01 0.  1.
</event>
<event>
 7    1  0.3260141E-006  0.4557856E+03  0.7546771E-02  0.9504569E-01
        -11   -1    0    0    0    0  0.00000000000E+00  0.00000000000E+00  0.50000000000E+03  0.50000000000E+03  0.00000000000E+00 0. -1.
         11   -1    0    0    0    0 -0.00000000000E+00 -0.00000000000E+00 -0.50000000000E+03  0.50000000000E+03  0.00000000000E+00 0. -1.
         23    2    1    2    0    0  0.17003421560E+03  0.25225264601E+02  0.40556075777E+03  0.44994971933E+03  0.91800181020E+02 0.  0.
        -11    1    1    2    0    0 -0.78534411632E+02 -0.26358029792E+02  0.42245839352E+02  0.92989840776E+02  0.00000000000E+00 0. -1.
         11    1    1    2    0    0 -0.91499803963E+02  0.11327651907E+01 -0.44780659713E+03  0.45706043989E+03  0.00000000000E+00 0. -1.
        -15    1    3    3    0    0  0.10886835302E+03  0.31485464686E+02  0.34691676042E+03  0.36496307918E+03  0.17770000000E+01 0. -1.
         15    1    3    3    0    0  0.61165862579E+02 -0.62602000848E+01  0.58643997356E+02  0.84986640156E+02  0.17770000000E+01 0.  1.
</event>
<event>
 7    1  0.3260141E-006  0.5205052E+03  0.7546771E-02  0.9355062E-01
        -11   -1    0    0    0    0  0.00000000000E+00  0.00000000000E+00  0.50000000000E+03  0.50000000000E+03  0.00000000000E+00 0.  1.
         11   -1    0    0    0    0 -0.00000000000E+00 -0.00000000000E+00 -0.50000000000E+03  0.50000000000E+03  0.00000000000E+00 0. -1.
         23    2    1    2    0    0 -0.38037391179E+01 -0.48241139932E+02  0.13180194274E+03  0.16967334212E+03  0.95266021770E+02 0.  0.
        -11    1    1    2    0    0 -0.87664133777E+02  0.28749255847E+02  0.33848408791E+03  0.35083186547E+03  0.00000000000E+00 0.  1.
         11    1    1    2    0    0  0.91467872894E+02  0.19491884085E+02 -0.47028603065E+03  0.47949479240E+03  0.00000000000E+00 0. -1.
        -15    1    3    3    0    0  0.75638865995E+01 -0.12686360783E+02 -0.13227408903E+02  0.19906737696E+02  0.17770000000E+01 0.  1.
         15    1    3    3    0    0 -0.11367625717E+02 -0.35554779149E+02  0.14502935164E+03  0.14976660443E+03  0.17770000000E+01 0. -1.
</event>
<event>
 7    1  0.3260141E-006  0.5283194E+03  0.7546771E-02  0.9338581E-01
        -11   -1    0    0    0    0  0.00000000000E+00  0.00000000000E+00  0.50000000000E+03  0.50000000000E+03  0.00000000000E+00 0.  1.
         11   -1    0    0    0    0 -0.00000000000E+00 -0.00000000000E+00 -0.50000000000E+03  0.50000000000E+03  0.00000000000E+00 0. -1.
         23    2    1    2    0    0 -0.61051581386E+01 -0.93784732154E+00  0.10387548516E+03  0.14340805487E+03  0.98679284910E+02 0.  0.
        -11    1    1    2    0    0 -0.52306261957E+02  0.22938052440E+03  0.30463970897E+03  0.38491131744E+03  0.00000000000E+00 0.  1.
         11    1    1    2    0    0  0.58411420096E+02 -0.22844267708E+03 -0.40851519413E+03  0.47168062769E+03  0.00000000000E+00 0. -1.
        -15    1    3    3    0    0  0.32573294731E+02 -0.29337968025E+02  0.23473079335E+02  0.49758206157E+02  0.17770000000E+01 0.  1.
         15    1    3    3    0    0 -0.38678452870E+02  0.28400120703E+02  0.80402405822E+02  0.93649848710E+02  0.17770000000E+01 0. -1.
</event>
<event>
 7    1  0.3260141E-006  0.3706227E+03  0.7546771E-02  0.9747420E-01
        -11   -1    0    0    0    0  0.00000000000E+00  0.00000000000E+00  0.50000000000E+03  0.50000000000E+03  0.00000000000E+00 0. -1.
         11   -1    0    0    0    0 -0.00000000000E+00 -0.00000000000E+00 -0.50000000000E+03  0.50000000000E+03  0.00000000000E+00 0.  1.
         23    2    1    2    0    0  0.22514477504E+02  0.91741369952E+01  0.20911775782E+03  0.22943781037E+03  0.91216257895E+02 0.  0.
        -11    1    1    2    0    0 -0.24914344319E+03  0.16534674793E+03  0.13074202047E+03  0.32635177072E+03  0.00000000000E+00 0. -1.
         11    1    1    2    0    0  0.22662896568E+03 -0.17452088492E+03 -0.33985977830E+03  0.44421041891E+03  0.00000000000E+00 0.  1.
        -15    1    3    3    0    0  0.33207452186E+02  0.45380848605E+02  0.11532865287E+03  0.12831996026E+03  0.17770000000E+01 0.  1.
         15    1    3    3    0    0 -0.10692974681E+02 -0.36206711610E+02  0.93789104956E+02  0.10111785011E+03  0.17770000000E+01 0. -1.
</event>
<event>
 7    1  0.3260141E-006  0.5299672E+03  0.7546771E-02  0.9335145E-01
        -11   -1    0    0    0    0  0.00000000000E+00  0.00000000000E+00  0.50000000000E+03  0.50000000000E+03  0.00000000000E+00 0.  1.
         11   -1    0    0    0    0 -0.00000000000E+00 -0.00000000000E+00 -0.50000000000E+03  0.50000000000E+03  0.00000000000E+00 0. -1.
         23    2    1    2    0    0 -0.15739908189E+03  0.65896897689E+02 -0.20934396880E+03  0.29505462914E+03  0.11880852158E+03 0.  0.
        -11    1    1    2    0    0  0.16433562086E+03 -0.21189436795E+02  0.43985868481E+03  0.47003281919E+03  0.00000000000E+00 0.  1.
         11    1    1    2    0    0 -0.69365389750E+01 -0.44707460894E+02 -0.23051471601E+03  0.23491255167E+03  0.00000000000E+00 0. -1.
        -15    1    3    3    0    0 -0.47821238708E+02  0.20828747662E+02  0.25768420861E+01  0.52254238535E+02  0.17770000000E+01 0.  1.
         15    1    3    3    0    0 -0.10957784318E+03  0.45068150027E+02 -0.21192081089E+03  0.24280039061E+03  0.17770000000E+01 0. -1.
</event>
<event>
 7    1  0.3260141E-006  0.3943448E+03  0.7546771E-02  0.9673259E-01
        -11   -1    0    0    0    0  0.00000000000E+00  0.00000000000E+00  0.50000000000E+03  0.50000000000E+03  0.00000000000E+00 0.  1.
         11   -1    0    0    0    0 -0.00000000000E+00 -0.00000000000E+00 -0.50000000000E+03  0.50000000000E+03  0.00000000000E+00 0. -1.
         23    2    1    2    0    0 -0.37927026887E+03  0.57488681137E+02  0.22174610492E+03  0.45227242214E+03  0.90709004376E+02 0.  0.
        -11    1    1    2    0    0  0.34567632446E+03 -0.50740234421E+02 -0.27476391082E+02  0.35045919127E+03  0.00000000000E+00 0.  1.
         11    1    1    2    0    0  0.33593944411E+02 -0.67484467155E+01 -0.19426971384E+03  0.19726838659E+03  0.00000000000E+00 0. -1.
        -15    1    3    3    0    0 -0.91806821905E+02 -0.20305452408E+02  0.32881519421E+02  0.99625077136E+02  0.17770000000E+01 0.  1.
         15    1    3    3    0    0 -0.28746344696E+03  0.77794133545E+02  0.18886458550E+03  0.35264734500E+03  0.17770000000E+01 0. -1.
</event>
<event>
 7    1  0.3260141E-006  0.3887009E+03  0.7546771E-02  0.9690388E-01
        -11   -1    0    0    0    0  0.00000000000E+00  0.00000000000E+00  0.50000000000E+03  0.50000000000E+03  0.00000000000E+00 0.  1.
         11   -1    0    0    0    0 -0.00000000000E+00 -0.00000000000E+00 -0.50000000000E+03  0.50000000000E+03  0.00000000000E+00 0. -1.
         23    2    1    2    0    0  0.37337588717E+02  0.99247878882E+02  0.14545252331E+03  0.20203123708E+03  0.91738471897E+02 0.  0.
        -11    1    1    2    0    0 -0.13004895902E+03 -0.12110290870E+03  0.29660541729E+03  0.34576497770E+03  0.00000000000E+00 0.  1.
         11    1    1    2    0    0  0.92711370304E+02  0.21855029819E+02 -0.44205794060E+03  0.45220378521E+03  0.00000000000E+00 0. -1.
        -15    1    3    3    0    0  0.22361146680E+02  0.86750472942E+02  0.46101508507E+02  0.10076791281E+03  0.17770000000E+01 0. -1.
         15    1    3    3    0    0  0.14976442037E+02  0.12497405940E+02  0.99351014802E+02  0.10126332427E+03  0.17770000000E+01 0.  1.
</event>
<event>
 7    1  0.3260141E-006  0.3944056E+03  0.7546771E-02  0.9673076E-01
        -11   -1    0    0    0    0  0.00000000000E+00  0.00000000000E+00  0.50000000000E+03  0.50000000000E+03  0.00000000000E+00 0.  1.
         11   -1    0    0    0    0 -0.00000000000E+00 -0.00000000000E+00 -0.50000000000E+03  0.50000000000E+03  0.00000000000E+00 0. -1.
         23    2    1    2    0    0 -0.32998936414E+02  0.57476913831E+02  0.15665165655E+03  0.19305796977E+03  0.91318742675E+02 0.  0.
        -11    1    1    2    0    0  0.23150201987E+03 -0.12632062003E+03  0.24096342214E+03  0.35723025496E+03  0.00000000000E+00 0.  1.
         11    1    1    2    0    0 -0.19850308345E+03  0.68843706204E+02 -0.39761507869E+03  0.44971177528E+03  0.00000000000E+00 0. -1.
        -15    1    3    3    0    0 -0.31480987933E+02  0.67463081281E+02  0.16421751775E+03  0.18031325742E+03  0.17770000000E+01 0.  1.
         15    1    3    3    0    0 -0.15179484808E+01 -0.99861674504E+01 -0.75658612052E+01  0.12744712343E+02  0.17770000000E+01 0. -1.
</event>
<event>
 7    1  0.3260141E-006  0.3885363E+03  0.7546771E-02  0.9690892E-01
        -11   -1    0    0    0    0  0.00000000000E+00  0.00000000000E+00  0.50000000000E+03  0.50000000000E+03  0.00000000000E+00 0.  1.
         11   -1    0    0    0    0 -0.00000000000E+00 -0.00000000000E+00 -0.50000000000E+03  0.50000000000E+03  0.00000000000E+00 0. -1.
         23    2    1    2    0    0 -0.25041306341E+03 -0.17775278845E+03 -0.14904321315E+03  0.35306194883E+03  0.90200355893E+02 0.  0.
        -11    1    1    2    0    0  0.17652608949E+03  0.22385445594E+03  0.33602790221E+03  0.44066657325E+03  0.00000000000E+00 0.  1.
         11    1    1    2    0    0  0.73886973918E+02 -0.46101667489E+02 -0.18698468906E+03  0.20627147792E+03  0.00000000000E+00 0. -1.
        -15    1    3    3    0    0 -0.98326366973E+02 -0.33156978139E+02 -0.83505941168E+02  0.13320607937E+03  0.17770000000E+01 0. -1.
         15    1    3    3    0    0 -0.15208669644E+03 -0.14459581031E+03 -0.65537271980E+02  0.21985586947E+03  0.17770000000E+01 0.  1.
</event>
<event>
 7    1  0.3260141E-006  0.4308994E+03  0.7546771E-02  0.9569266E-01
        -11   -1    0    0    0    0  0.00000000000E+00  0.00000000000E+00  0.50000000000E+03  0.50000000000E+03  0.00000000000E+00 0.  1.
         11   -1    0    0    0    0 -0.00000000000E+00 -0.00000000000E+00 -0.50000000000E+03  0.50000000000E+03  0.00000000000E+00 0. -1.
         23    2    1    2    0    0  0.43362224470E+02 -0.62870798164E+02  0.38275268579E+03  0.40051639260E+03  0.89892950146E+02 0.  0.
        -11    1    1    2    0    0  0.49543038866E+02  0.10764122448E+03  0.68314342911E+02  0.13677717410E+03  0.00000000000E+00 0.  1.
         11    1    1    2    0    0 -0.92905263335E+02 -0.44770426321E+02 -0.45106702871E+03  0.46270643330E+03  0.00000000000E+00 0. -1.
        -15    1    3    3    0    0  0.58520484467E+02 -0.52330303444E+02  0.36941982288E+03  0.37767349792E+03  0.17770000000E+01 0.  1.
         15    1    3    3    0    0 -0.15158259998E+02 -0.10540494720E+02  0.13332862911E+02  0.22842894683E+02  0.17770000000E+01 0. -1.
</event>
<event>
 7    1  0.3260141E-006  0.3906213E+03  0.7546771E-02  0.9684525E-01
        -11   -1    0    0    0    0  0.00000000000E+00  0.00000000000E+00  0.50000000000E+03  0.50000000000E+03  0.00000000000E+00 0.  1.
         11   -1    0    0    0    0 -0.00000000000E+00 -0.00000000000E+00 -0.50000000000E+03  0.50000000000E+03  0.00000000000E+00 0.  1.
         23    2    1    2    0    0 -0.33920346991E+03  0.10471985335E+03  0.66578520335E+01  0.36743087332E+03  0.94529773035E+02 0.  0.
        -11    1    1    2    0    0  0.39297843183E+03 -0.19122497345E+02  0.17034307102E+03  0.42873590896E+03  0.00000000000E+00 0.  1.
         11    1    1    2    0    0 -0.53774961917E+02 -0.85597356001E+02 -0.17700092305E+03  0.20383321772E+03  0.00000000000E+00 0.  1.
        -15    1    3    3    0    0 -0.19953976362E+03  0.61199233969E+02  0.50425181658E+02  0.21472615159E+03  0.17770000000E+01 0.  1.
         15    1    3    3    0    0 -0.13966370629E+03  0.43520619376E+02 -0.43767329625E+02  0.15270472173E+03  0.17770000000E+01 0. -1.
</event>
<event>
 7    1  0.3260141E-006  0.4693906E+03  0.7546771E-02  0.9471032E-01
        -11   -1    0    0    0    0  0.00000000000E+00  0.00000000000E+00  0.50000000000E+03  0.50000000000E+03  0.00000000000E+00 0.  1.
         11   -1    0    0    0    0 -0.00000000000E+00 -0.00000000000E+00 -0.50000000000E+03  0.50000000000E+03  0.00000000000E+00 0.  1.
         23    2    1    2    0    0 -0.15058049243E+02  0.90202268511E+02  0.44921507813E+03  0.46747407013E+03  0.91512981246E+02 0.  0.
        -11    1    1    2    0    0 -0.67743356894E+02 -0.13890506538E+01 -0.59124286004E+00  0.67760175864E+02  0.00000000000E+00 0.  1.
         11    1    1    2    0    0  0.82801406137E+02 -0.88813217858E+02 -0.44862383527E+03  0.46476575400E+03  0.00000000000E+00 0.  1.
        -15    1    3    3    0    0 -0.49918686374E+02  0.26169715522E+02  0.18911359219E+03  0.19734193103E+03  0.17770000000E+01 0. -1.
         15    1    3    3    0    0  0.34860637131E+02  0.64032552989E+02  0.26010148593E+03  0.27013213911E+03  0.17770000000E+01 0.  1.
</event>
<event>
 7    1  0.3260141E-006  0.5124522E+03  0.7546771E-02  0.9372370E-01
        -11   -1    0    0    0    0  0.00000000000E+00  0.00000000000E+00  0.50000000000E+03  0.50000000000E+03  0.00000000000E+00 0.  1.
         11   -1    0    0    0    0 -0.00000000000E+00 -0.00000000000E+00 -0.50000000000E+03  0.50000000000E+03  0.00000000000E+00 0. -1.
         23    2    1    2    0    0 -0.25153992979E+02 -0.14714343465E+03  0.13148390833E+03  0.21903463898E+03  0.91674648613E+02 0.  0.
        -11    1    1    2    0    0 -0.11240245722E+03 -0.21984809544E+03  0.15851307631E+03  0.29341760823E+03  0.00000000000E+00 0.  1.
         11    1    1    2    0    0  0.13755645020E+03  0.36699153009E+03 -0.28999698465E+03  0.48754775279E+03  0.00000000000E+00 0. -1.
        -15    1    3    3    0    0 -0.13032014578E+02 -0.58872649641E+02  0.11289289921E+03  0.12799916680E+03  0.17770000000E+01 0. -1.
         15    1    3    3    0    0 -0.12121978401E+02 -0.88270785007E+02  0.18591009126E+02  0.91035472182E+02  0.17770000000E+01 0.  1.
</event>
<event>
 7    1  0.3260141E-006  0.5018112E+03  0.7546771E-02  0.9395766E-01
        -11   -1    0    0    0    0  0.00000000000E+00  0.00000000000E+00  0.50000000000E+03  0.50000000000E+03  0.00000000000E+00 0.  1.
         11   -1    0    0    0    0 -0.00000000000E+00 -0.00000000000E+00 -0.50000000000E+03  0.50000000000E+03  0.00000000000E+00 0.  1.
         23    2    1    2    0    0 -0.50372934204E+02  0.79747100621E+02  0.48408352080E+03  0.50181122884E+03  0.92631645351E+02 0.  0.
        -11    1    1    2    0    0  0.64249468344E+02 -0.71719788790E+02 -0.45401685383E+03  0.46411531524E+03  0.00000000000E+00 0.  1.
         11    1    1    2    0    0 -0.13876534140E+02 -0.80273118312E+01 -0.30066666977E+02  0.34073455916E+02  0.00000000000E+00 0.  1.
        -15    1    3    3    0    0 -0.55684035130E+02  0.93363545362E+02  0.46588334227E+03  0.47840141065E+03  0.17770000000E+01 0.  1.
         15    1    3    3    0    0  0.53111009258E+01 -0.13616444741E+02  0.18200178528E+02  0.23409818194E+02  0.17770000000E+01 0. -1.
</event>
<event>
 7    1  0.3260141E-006  0.5306789E+03  0.7546771E-02  0.9333664E-01
        -11   -1    0    0    0    0  0.00000000000E+00  0.00000000000E+00  0.50000000000E+03  0.50000000000E+03  0.00000000000E+00 0.  1.
         11   -1    0    0    0    0 -0.00000000000E+00 -0.00000000000E+00 -0.50000000000E+03  0.50000000000E+03  0.00000000000E+00 0. -1.
         23    2    1    2    0    0 -0.19724822606E+02  0.46863035337E+02 -0.48569594535E+02  0.11582226345E+03  0.92035745713E+02 0.  0.
        -11    1    1    2    0    0  0.18588977937E+03 -0.44013223636E+02  0.42868418785E+03  0.46932111272E+03  0.00000000000E+00 0.  1.
         11    1    1    2    0    0 -0.16616495676E+03 -0.28498117017E+01 -0.38011459332E+03  0.41485662383E+03  0.00000000000E+00 0. -1.
        -15    1    3    3    0    0 -0.84231533357E+01  0.73797839916E+02 -0.43579860428E+02  0.86136128613E+02  0.17770000000E+01 0.  1.
         15    1    3    3    0    0 -0.11301669270E+02 -0.26934804579E+02 -0.49897341067E+01  0.29686134835E+02  0.17770000000E+01 0. -1.
</event>
<event>
 7    1  0.3260141E-006  0.4531145E+03  0.7546771E-02  0.9511300E-01
        -11   -1    0    0    0    0  0.00000000000E+00  0.00000000000E+00  0.50000000000E+03  0.50000000000E+03  0.00000000000E+00 0. -1.
         11   -1    0    0    0    0 -0.00000000000E+00 -0.00000000000E+00 -0.50000000000E+03  0.50000000000E+03  0.00000000000E+00 0.  1.
         23    2    1    2    0    0  0.60678011041E+02  0.57655396364E+01  0.44521144814E+03  0.45834769385E+03  0.90301231577E+02 0.  0.
        -11    1    1    2    0    0  0.63034969508E+02  0.69977389789E+02 -0.25488758322E+02  0.97570073606E+02  0.00000000000E+00 0. -1.
         11    1    1    2    0    0 -0.12371298055E+03 -0.75742929426E+02 -0.41972268982E+03  0.44408223255E+03  0.00000000000E+00 0.  1.
        -15    1    3    3    0    0  0.27109225562E+02  0.47193601415E+02  0.19175436528E+03  0.19933650056E+03  0.17770000000E+01 0.  1.
         15    1    3    3    0    0  0.33568785479E+02 -0.41428061778E+02  0.25345708287E+03  0.25901119328E+03  0.17770000000E+01 0. -1.
</event>
<event>
 7    1  0.3260141E-006  0.4631907E+03  0.7546771E-02  0.9486163E-01
        -11   -1    0    0    0    0  0.00000000000E+00  0.00000000000E+00  0.50000000000E+03  0.50000000000E+03  0.00000000000E+00 0.  1.
         11   -1    0    0    0    0 -0.00000000000E+00 -0.00000000000E+00 -0.50000000000E+03  0.50000000000E+03  0.00000000000E+00 0.  1.
         23    2    1    2    0    0 -0.14679089902E+02 -0.51319543825E+01  0.45196901498E+03  0.46117703225E+03  0.90368423336E+02 0.  0.
        -11    1    1    2    0    0 -0.57718874280E+02  0.54104308977E+02 -0.64676158530E+00  0.79114872170E+02  0.00000000000E+00 0.  1.
         11    1    1    2    0    0  0.72397964182E+02 -0.48972354594E+02 -0.45132225339E+03  0.45970809558E+03  0.00000000000E+00 0.  1.
        -15    1    3    3    0    0 -0.49356331788E+02  0.14582812971E+02  0.23682895288E+03  0.24236298515E+03  0.17770000000E+01 0.  1.
         15    1    3    3    0    0  0.34677241886E+02 -0.19714767354E+02  0.21514006210E+03  0.21881404710E+03  0.17770000000E+01 0. -1.
</event>
<event>
 7    1  0.3260141E-006  0.4341341E+03  0.7546771E-02  0.9560596E-01
        -11   -1    0    0    0    0  0.00000000000E+00  0.00000000000E+00  0.50000000000E+03  0.50000000000E+03  0.00000000000E+00 0.  1.
         11   -1    0    0    0    0 -0.00000000000E+00 -0.00000000000E+00 -0.50000000000E+03  0.50000000000E+03  0.00000000000E+00 0. -1.
         23    2    1    2    0    0 -0.10476767284E+03  0.12285438259E+02  0.84851521109E+00  0.12534707714E+03  0.67705040468E+02 0.  0.
        -11    1    1    2    0    0 -0.90359796589E+02  0.38519464644E+02  0.40753453626E+03  0.41920524835E+03  0.00000000000E+00 0.  1.
         11    1    1    2    0    0  0.19512746943E+03 -0.50804902904E+02 -0.40838305147E+03  0.45544767451E+03  0.00000000000E+00 0. -1.
        -15    1    3    3    0    0 -0.43517472136E+02  0.22445628324E+02  0.29233939724E+02  0.57055740927E+02  0.17770000000E+01 0. -1.
         15    1    3    3    0    0 -0.61250200703E+02 -0.10160190065E+02 -0.28385424513E+02  0.68291336215E+02  0.17770000000E+01 0.  1.
</event>
<event>
 7    1  0.3260141E-006  0.4314871E+03  0.7546771E-02  0.9567685E-01
        -11   -1    0    0    0    0  0.00000000000E+00  0.00000000000E+00  0.50000000000E+03  0.50000000000E+03  0.00000000000E+00 0.  1.
         11   -1    0    0    0    0 -0.00000000000E+00 -0.00000000000E+00 -0.50000000000E+03  0.50000000000E+03  0.00000000000E+00 0. -1.
         23    2    1    2    0    0  0.29052885911E+03 -0.90802644422E+02  0.24608800645E+03  0.40162129316E+03  0.89934520560E+02 0.  0.
        -11    1    1    2    0    0 -0.34542137772E+03  0.21269680360E+03 -0.22237385075E+03  0.46260781224E+03  0.00000000000E+00 0.  1.
         11    1    1    2    0    0  0.54892518610E+02 -0.12189415917E+03 -0.23714155701E+02  0.13577089460E+03  0.00000000000E+00 0. -1.
        -15    1    3    3    0    0  0.54160500019E+02 -0.45292465547E+02  0.91320666693E+02  0.11544431165E+03  0.17770000000E+01 0.  1.
         15    1    3    3    0    0  0.23636835909E+03 -0.45510178875E+02  0.15476733976E+03  0.28617698151E+03  0.17770000000E+01 0. -1.
</event>
<event>
 7    1  0.3260141E-006  0.5103557E+03  0.7546771E-02  0.9376932E-01
        -11   -1    0    0    0    0  0.00000000000E+00  0.00000000000E+00  0.50000000000E+03  0.50000000000E+03  0.00000000000E+00 0.  1.
         11   -1    0    0    0    0 -0.00000000000E+00 -0.00000000000E+00 -0.50000000000E+03  0.50000000000E+03  0.00000000000E+00 0.  1.
         23    2    1    2    0    0 -0.81716863470E+02  0.58219860652E+02 -0.34548034195E+03  0.37055623620E+03  0.88814748548E+02 0.  0.
        -11    1    1    2    0    0  0.53917474448E+02 -0.64841230072E+02  0.48232780329E+03  0.48964434950E+03  0.00000000000E+00 0.  1.
         11    1    1    2    0    0  0.27799389022E+02  0.66213694208E+01 -0.13684746134E+03  0.13979941430E+03  0.00000000000E+00 0.  1.
        -15    1    3    3    0    0 -0.66950420886E+01  0.43473607015E+02 -0.21374013109E+03  0.21822644080E+03  0.17770000000E+01 0. -1.
         15    1    3    3    0    0 -0.75021821381E+02  0.14746253637E+02 -0.13174021086E+03  0.15232979540E+03  0.17770000000E+01 0.  1.
</event>
<event>
 7    1  0.3260141E-006  0.4206286E+03  0.7546771E-02  0.9597340E-01
        -11   -1    0    0    0    0  0.00000000000E+00  0.00000000000E+00  0.50000000000E+03  0.50000000000E+03  0.00000000000E+00 0. -1.
         11   -1    0    0    0    0 -0.00000000000E+00 -0.00000000000E+00 -0.50000000000E+03  0.50000000000E+03  0.00000000000E+00 0. -1.
         23    2    1    2    0    0 -0.29606452296E+02 -0.54916778478E+02 -0.36932783772E+03  0.38553922965E+03  0.91351252386E+02 0.  0.
        -11    1    1    2    0    0  0.15613779243E+03  0.13287059872E+03  0.41169750203E+03  0.45992221017E+03  0.00000000000E+00 0. -1.
         11    1    1    2    0    0 -0.12653134014E+03 -0.77953820242E+02 -0.42369664317E+02  0.15453856018E+03  0.00000000000E+00 0. -1.
        -15    1    3    3    0    0 -0.65453821360E+01 -0.77666396348E+02 -0.24946216982E+03  0.26136075269E+03  0.17770000000E+01 0. -1.
         15    1    3    3    0    0 -0.23061070160E+02  0.22749617870E+02 -0.11986566790E+03  0.12417847696E+03  0.17770000000E+01 0.  1.
</event>
<event>
 7    1  0.3260141E-006  0.5199700E+03  0.7546771E-02  0.9356202E-01
        -11   -1    0    0    0    0  0.00000000000E+00  0.00000000000E+00  0.50000000000E+03  0.50000000000E+03  0.00000000000E+00 0. -1.
         11   -1    0    0    0    0 -0.00000000000E+00 -0.00000000000E+00 -0.50000000000E+03  0.50000000000E+03  0.00000000000E+00 0.  1.
         23    2    1    2    0    0  0.10758363992E+03 -0.10717082780E+03 -0.27774417190E+03  0.32676587831E+03  0.81081985000E+02 0.  0.
        -11    1    1    2    0    0 -0.56277122710E+02  0.10939605127E+03  0.46399807034E+03  0.48003001974E+03  0.00000000000E+00 0. -1.
         11    1    1    2    0    0 -0.51306517215E+02 -0.22252234689E+01 -0.18625389843E+03  0.19320410195E+03  0.00000000000E+00 0.  1.
        -15    1    3    3    0    0  0.56311617234E+02 -0.10466187594E+02 -0.59509636107E+02  0.82614126134E+02  0.17770000000E+01 0.  1.
         15    1    3    3    0    0  0.51272022691E+02 -0.96704640211E+02 -0.21823453580E+03  0.24415175218E+03  0.17770000000E+01 0. -1.
</event>
<event>
 7    1  0.3260141E-006  0.3457581E+03  0.7546771E-02  0.9831817E-01
        -11   -1    0    0    0    0  0.00000000000E+00  0.00000000000E+00  0.50000000000E+03  0.50000000000E+03  0.00000000000E+00 0. -1.
         11   -1    0    0    0    0 -0.00000000000E+00 -0.00000000000E+00 -0.50000000000E+03  0.50000000000E+03  0.00000000000E+00 0.  1.
         23    2    1    2    0    0 -0.16844421509E+02  0.15899376174E+02  0.26843450190E+03  0.27994034758E+03  0.75980205932E+02 0.  0.
        -11    1    1    2    0    0  0.86742415042E+02  0.22837976630E+03  0.10702066442E+03  0.26671142989E+03  0.00000000000E+00 0. -1.
         11    1    1    2    0    0 -0.69897993534E+02 -0.24427914247E+03 -0.37545516633E+03  0.45334822253E+03  0.00000000000E+00 0.  1.
        -15    1    3    3    0    0  0.20608070535E+02  0.31804278602E+02  0.14891632804E+03  0.15367314403E+03  0.17770000000E+01 0.  1.
         15    1    3    3    0    0 -0.37452492043E+02 -0.15904902428E+02  0.11951817386E+03  0.12626720356E+03  0.17770000000E+01 0. -1.
</event>
<event>
 7    1  0.3260141E-006  0.4306864E+03  0.7546771E-02  0.9569839E-01
        -11   -1    0    0    0    0  0.00000000000E+00  0.00000000000E+00  0.50000000000E+03  0.50000000000E+03  0.00000000000E+00 0. -1.
         11   -1    0    0    0    0 -0.00000000000E+00 -0.00000000000E+00 -0.50000000000E+03  0.50000000000E+03  0.00000000000E+00 0. -1.
         23    2    1    2    0    0  0.20709442899E+02  0.24411390826E+03  0.32190961997E+03  0.41506878459E+03  0.92929065845E+02 0.  0.
        -11    1    1    2    0    0 -0.12786371981E+03 -0.17062218413E+02  0.48193330093E+02  0.13770565423E+03  0.00000000000E+00 0. -1.
         11    1    1    2    0    0  0.10715427692E+03 -0.22705168985E+03 -0.37010295007E+03  0.44722556118E+03  0.00000000000E+00 0. -1.
        -15    1    3    3    0    0 -0.17274004063E+02  0.10780724090E+03  0.20183123844E+03  0.22947722969E+03  0.17770000000E+01 0. -1.
         15    1    3    3    0    0  0.37983446962E+02  0.13630666736E+03  0.12007838153E+03  0.18559155490E+03  0.17770000000E+01 0.  1.
</event>
<event>
 7    1  0.3260141E-006  0.4022227E+03  0.7546771E-02  0.9649856E-01
        -11   -1    0    0    0    0  0.00000000000E+00  0.00000000000E+00  0.50000000000E+03  0.50000000000E+03  0.00000000000E+00 0. -1.
         11   -1    0    0    0    0 -0.00000000000E+00 -0.00000000000E+00 -0.50000000000E+03  0.50000000000E+03  0.00000000000E+00 0.  1.
         23    2    1    2    0    0 -0.41277528672E+02 -0.21426537811E+02  0.34175636667E+03  0.35697671988E+03  0.92043649881E+02 0.  0.
        -11    1    1    2    0    0 -0.20895285487E+02 -0.17005191870E+03  0.69692148347E+02  0.18496287074E+03  0.00000000000E+00 0. -1.
         11    1    1    2    0    0  0.62172814159E+02  0.19147845652E+03 -0.41144851502E+03  0.45806040938E+03  0.00000000000E+00 0.  1.
        -15    1    3    3    0    0  0.10073281298E+02  0.29195110206E+01  0.11656508922E+00  0.10637944215E+02  0.17770000000E+01 0.  1.
         15    1    3    3    0    0 -0.51350809970E+02 -0.24346048832E+02  0.34163980158E+03  0.34633877567E+03  0.17770000000E+01 0. -1.
</event>
<event>
 7    1  0.3260141E-006  0.4841949E+03  0.7546771E-02  0.9435886E-01
        -11   -1    0    0    0    0  0.00000000000E+00  0.00000000000E+00  0.50000000000E+03  0.50000000000E+03  0.00000000000E+00 0.  1.
         11   -1    0    0    0    0 -0.00000000000E+00 -0.00000000000E+00 -0.50000000000E+03  0.50000000000E+03  0.00000000000E+00 0. -1.
         23    2    1    2    0    0 -0.61482003093E+02 -0.14968894251E+03  0.44352695104E+03  0.48068902603E+03  0.90327001666E+02 0.  0.
        -11    1    1    2    0    0  0.49220466646E+01  0.34105514776E+02  0.18908417747E+02  0.39305736772E+02  0.00000000000E+00 0.  1.
         11    1    1    2    0    0  0.56559956428E+02  0.11558342773E+03 -0.46243536879E+03  0.48000523720E+03  0.00000000000E+00 0. -1.
        -15    1    3    3    0    0 -0.40569517899E+02 -0.75670344126E+02  0.34583881219E+03  0.35634187027E+03  0.17770000000E+01 0.  1.
         15    1    3    3    0    0 -0.20912485194E+02 -0.74018598380E+02  0.97688138850E+02  0.12434715575E+03  0.17770000000E+01 0. -1.
</event>
<event>
 7    1  0.3260141E-006  0.5090818E+03  0.7546771E-02  0.9379715E-01
        -11   -1    0    0    0    0  0.00000000000E+00  0.00000000000E+00  0.50000000000E+03  0.50000000000E+03  0.00000000000E+00 0. -1.
         11   -1    0    0    0    0 -0.00000000000E+00 -0.00000000000E+00 -0.50000000000E+03  0.50000000000E+03  0.00000000000E+00 0.  1.
         23    2    1    2    0    0  0.31119926619E+01  0.57319563360E+02 -0.24964153332E+03  0.27281613964E+03  0.93875098116E+02 0.  0.
        -11    1    1    2    0    0  0.29779268161E+02 -0.10097549675E+03  0.47949750787E+03  0.49091823740E+03  0.00000000000E+00 0. -1.
         11    1    1    2    0    0 -0.32891260823E+02  0.43655933390E+02 -0.22985597455E+03  0.23626562296E+03  0.00000000000E+00 0.  1.
        -15    1    3    3    0    0 -0.33934649045E+02  0.62743684007E+02 -0.14373532043E+03  0.16047221055E+03  0.17770000000E+01 0. -1.
         15    1    3    3    0    0  0.37046641707E+02 -0.54241206474E+01 -0.10590621289E+03  0.11234392909E+03  0.17770000000E+01 0.  1.
</event>
<event>
 7    1  0.3260141E-006  0.5140317E+03  0.7546771E-02  0.9368949E-01
        -11   -1    0    0    0    0  0.00000000000E+00  0.00000000000E+00  0.50000000000E+03  0.50000000000E+03  0.00000000000E+00 0. -1.
         11   -1    0    0    0    0 -0.00000000000E+00 -0.00000000000E+00 -0.50000000000E+03  0.50000000000E+03  0.00000000000E+00 0. -1.
         23    2    1    2    0    0 -0.30307530859E+02 -0.39555159924E+02 -0.25703249677E+03  0.27825421661E+03  0.94215431674E+02 0.  0.
        -11    1    1    2    0    0 -0.43199208760E+02  0.79343748086E+02  0.47749716564E+03  0.48596825533E+03  0.00000000000E+00 0. -1.
         11    1    1    2    0    0  0.73506739619E+02 -0.39788588162E+02 -0.22046466887E+03  0.23577752806E+03  0.00000000000E+00 0. -1.
        -15    1    3    3    0    0  0.27183964953E+02 -0.33118620213E+02 -0.15632045399E+03  0.16209581432E+03  0.17770000000E+01 0. -1.
         15    1    3    3    0    0 -0.57491495812E+02 -0.64365397102E+01 -0.10071204278E+03  0.11615840230E+03  0.17770000000E+01 0.  1.
</event>
<event>
 6    1  0.3260141E-006  0.3967760E+03  0.7546771E-02  0.9665975E-01
        -11   -1    0    0    0    0  0.00000000000E+00  0.00000000000E+00  0.50000000000E+03  0.50000000000E+03  0.00000000000E+00 0. -1.
         11   -1    0    0    0    0 -0.00000000000E+00 -0.00000000000E+00 -0.50000000000E+03  0.50000000000E+03  0.00000000000E+00 0. -1.
        -11    1    1    2    0    0  0.11407113495E+03 -0.48812863960E+02  0.39113498493E+03  0.41034314415E+03  0.00000000000E+00 0. -1.
         11    1    1    2    0    0 -0.64796694105E+02 -0.65221368518E+02 -0.38201777477E+03  0.39292495303E+03  0.00000000000E+00 0. -1.
        -15    1    1    2    0    0 -0.44827550043E+02 -0.11298517548E+02 -0.46762154591E+02  0.65780107727E+02  0.17770000000E+01 0. -1.
         15    1    1    2    0    0 -0.44468908006E+01  0.12533275003E+03  0.37644944427E+02  0.13095179509E+03  0.17770000000E+01 0.  1.
</event>
<event>
 7    1  0.3260141E-006  0.4063418E+03  0.7546771E-02  0.9637846E-01
        -11   -1    0    0    0    0  0.00000000000E+00  0.00000000000E+00  0.50000000000E+03  0.50000000000E+03  0.00000000000E+00 0. -1.
         11   -1    0    0    0    0 -0.00000000000E+00 -0.00000000000E+00 -0.50000000000E+03  0.50000000000E+03  0.00000000000E+00 0. -1.
         23    2    1    2    0    0  0.12717226685E+03 -0.38659569017E+02  0.51879577817E+02  0.17488586886E+03  0.10112481792E+03 0.  0.
        -11    1    1    2    0    0 -0.63855624167E+02  0.83718874851E+02  0.37588196200E+03  0.39035066300E+03  0.00000000000E+00 0. -1.
         11    1    1    2    0    0 -0.63316642681E+02 -0.45059305833E+02 -0.42776153982E+03  0.43476346814E+03  0.00000000000E+00 0. -1.
        -15    1    3    3    0    0  0.86451438389E+02 -0.33124463474E+02  0.82173083027E+02  0.12380086665E+03  0.17770000000E+01 0. -1.
         15    1    3    3    0    0  0.40720828459E+02 -0.55351055429E+01 -0.30293505210E+02  0.51085002209E+02  0.17770000000E+01 0.  1.
</event>
<event>
 7    1  0.3260141E-006  0.4389124E+03  0.7546771E-02  0.9547937E-01
        -11   -1    0    0    0    0  0.00000000000E+00  0.00000000000E+00  0.50000000000E+03  0.50000000000E+03  0.00000000000E+00 0.  1.
         11   -1    0    0    0    0 -0.00000000000E+00 -0.00000000000E+00 -0.50000000000E+03  0.50000000000E+03  0.00000000000E+00 0. -1.
         23    2    1    2    0    0  0.69920631580E+02  0.18880801611E+02  0.20942709190E+02  0.11894361923E+03  0.91997870066E+02 0.  0.
        -11    1    1    2    0    0 -0.10466600970E+03  0.85263834892E+02  0.41244615984E+03  0.43397779885E+03  0.00000000000E+00 0.  1.
         11    1    1    2    0    0  0.34745378124E+02 -0.10414463650E+03 -0.43338886903E+03  0.44707858192E+03  0.00000000000E+00 0. -1.
        -15    1    3    3    0    0  0.29515786267E+02  0.30112293584E+02 -0.30851044367E+02  0.52276921595E+02  0.17770000000E+01 0. -1.
         15    1    3    3    0    0  0.40404845312E+02 -0.11231491973E+02  0.51793753558E+02  0.66666697633E+02  0.17770000000E+01 0.  1.
</event>
<event>
 7    1  0.3260141E-006  0.5298728E+03  0.7546771E-02  0.9335341E-01
        -11   -1    0    0    0    0  0.00000000000E+00  0.00000000000E+00  0.50000000000E+03  0.50000000000E+03  0.00000000000E+00 0. -1.
         11   -1    0    0    0    0 -0.00000000000E+00 -0.00000000000E+00 -0.50000000000E+03  0.50000000000E+03  0.00000000000E+00 0. -1.
         23    2    1    2    0    0  0.17504025336E+02 -0.61174417960E+02  0.27876887279E+03  0.29801045167E+03  0.83960970435E+02 0.  0.
        -11    1    1    2    0    0  0.11745504885E+03  0.10630499927E+03  0.16930354860E+03  0.23186231462E+03  0.00000000000E+00 0. -1.
         11    1    1    2    0    0 -0.13495907419E+03 -0.45130581314E+02 -0.44807242138E+03  0.47012723371E+03  0.00000000000E+00 0. -1.
        -15    1    3    3    0    0 -0.21860128135E+02 -0.16823384862E+02  0.24578587542E+02  0.36988595200E+02  0.17770000000E+01 0.  1.
         15    1    3    3    0    0  0.39364153471E+02 -0.44351033098E+02  0.25419028524E+03  0.26102185647E+03  0.17770000000E+01 0. -1.
</event>
<event>
 7    1  0.3260141E-006  0.4179840E+03  0.7546771E-02  0.9604707E-01
        -11   -1    0    0    0    0  0.00000000000E+00  0.00000000000E+00  0.50000000000E+03  0.50000000000E+03  0.00000000000E+00 0. -1.
         11   -1    0    0    0    0 -0.00000000000E+00 -0.00000000000E+00 -0.50000000000E+03  0.50000000000E+03  0.00000000000E+00 0.  1.
         23    2    1    2    0    0  0.30318366084E+02  0.72484894557E+02  0.38088854738E+03  0.39929086696E+03  0.90464620965E+02 0.  0.
        -11    1    1    2    0    0 -0.13721424748E+03 -0.64095831071E+02  0.47802825309E+02  0.15881163490E+03  0.00000000000E+00 0. -1.
         11    1    1    2    0    0  0.10689588140E+03 -0.83890634862E+01 -0.42869137269E+03  0.44189749814E+03  0.00000000000E+00 0.  1.
        -15    1    3    3    0    0  0.38762656222E+02 -0.68776779022E+01  0.10799759236E+03  0.11496296645E+03  0.17770000000E+01 0.  1.
         15    1    3    3    0    0 -0.84442901381E+01  0.79362572459E+02  0.27289095502E+03  0.28432790050E+03  0.17770000000E+01 0. -1.
</event>
<event>
 7    1  0.3260141E-006  0.5218073E+03  0.7546771E-02  0.9352294E-01
        -11   -1    0    0    0    0  0.00000000000E+00  0.00000000000E+00  0.50000000000E+03  0.50000000000E+03  0.00000000000E+00 0.  1.
         11   -1    0    0    0    0 -0.00000000000E+00 -0.00000000000E+00 -0.50000000000E+03  0.50000000000E+03  0.00000000000E+00 0. -1.
         23    2    1    2    0    0 -0.17481772813E+02 -0.35328489264E+02  0.10494732356E+03  0.14616347963E+03  0.93787565925E+02 0.  0.
        -11    1    1    2    0    0  0.97699880181E+02 -0.38209217381E+02  0.36069798894E+03  0.37564378087E+03  0.00000000000E+00 0.  1.
         11    1    1    2    0    0 -0.80218107368E+02  0.73537706645E+02 -0.46564531250E+03  0.47819273949E+03  0.00000000000E+00 0. -1.
        -15    1    3    3    0    0 -0.55405859849E+02 -0.15951123103E+02  0.48074801623E+02  0.75090558087E+02  0.17770000000E+01 0.  1.
         15    1    3    3    0    0  0.37924087035E+02 -0.19377366161E+02  0.56872521937E+02  0.71072921548E+02  0.17770000000E+01 0. -1.
</event>
<event>
 7    1  0.3260141E-006  0.3346661E+03  0.7546771E-02  0.9871960E-01
        -11   -1    0    0    0    0  0.00000000000E+00  0.00000000000E+00  0.50000000000E+03  0.50000000000E+03  0.00000000000E+00 0. -1.
         11   -1    0    0    0    0 -0.00000000000E+00 -0.00000000000E+00 -0.50000000000E+03  0.50000000000E+03  0.00000000000E+00 0. -1.
         23    2    1    2    0    0  0.17398960273E+03 -0.15690039564E+03 -0.18525748356E+03  0.31282442524E+03  0.92998224713E+02 0.  0.
        -11    1    1    2    0    0 -0.16063524312E+03 -0.64954282997E+02  0.36323196999E+03  0.40244279623E+03  0.00000000000E+00 0. -1.
         11    1    1    2    0    0 -0.13354359604E+02  0.22185467864E+03 -0.17797448643E+03  0.28473277854E+03  0.00000000000E+00 0. -1.
        -15    1    3    3    0    0  0.11003095040E+03 -0.36898864104E+02 -0.86604560762E+02  0.14481658707E+03  0.17770000000E+01 0.  1.
         15    1    3    3    0    0  0.63958652333E+02 -0.12000153154E+03 -0.98652922798E+02  0.16800783817E+03  0.17770000000E+01 0. -1.
</event>
<event>
 7    1  0.3260141E-006  0.4138523E+03  0.7546771E-02  0.9616335E-01
        -11   -1    0    0    0    0  0.00000000000E+00  0.00000000000E+00  0.50000000000E+03  0.50000000000E+03  0.00000000000E+00 0.  1.
         11   -1    0    0    0    0 -0.00000000000E+00 -0.00000000000E+00 -0.50000000000E+03  0.50000000000E+03  0.00000000000E+00 0. -1.
         23    2    1    2    0    0  0.80076000226E+02  0.10024333316E+03  0.29045510257E+02  0.16190730933E+03  0.94389848470E+02 0.  0.
        -11    1    1    2    0    0 -0.18715978881E+03 -0.17015878654E+03  0.35353317998E+03  0.43470508225E+03  0.00000000000E+00 0.  1.
         11    1    1    2    0    0  0.10708378859E+03  0.69915453384E+02 -0.38257869024E+03  0.40338760842E+03  0.00000000000E+00 0. -1.
        -15    1    3    3    0    0  0.64983703822E+02  0.11538780301E+03  0.39272330306E+02  0.13814014805E+03  0.17770000000E+01 0. -1.
         15    1    3    3    0    0  0.15092296404E+02 -0.15144469857E+02 -0.10226820049E+02  0.23767161280E+02  0.17770000000E+01 0.  1.
</event>
<event>
 7    1  0.3260141E-006  0.4634943E+03  0.7546771E-02  0.9485416E-01
        -11   -1    0    0    0    0  0.00000000000E+00  0.00000000000E+00  0.50000000000E+03  0.50000000000E+03  0.00000000000E+00 0.  1.
         11   -1    0    0    0    0 -0.00000000000E+00 -0.00000000000E+00 -0.50000000000E+03  0.50000000000E+03  0.00000000000E+00 0. -1.
         23    2    1    2    0    0  0.91712124369E+02 -0.18794960731E+03 -0.37292713928E+03  0.43690281118E+03  0.89851246877E+02 0.  0.
        -11    1    1    2    0    0 -0.68295907636E+02  0.17512202086E+03  0.44670243954E+03  0.48463916750E+03  0.00000000000E+00 0.  1.
         11    1    1    2    0    0 -0.23416216733E+02  0.12827586447E+02 -0.73775300262E+02  0.78458021316E+02  0.00000000000E+00 0. -1.
        -15    1    3    3    0    0  0.24843373200E+02 -0.36125046268E+02 -0.16587528689E+03  0.17158082844E+03  0.17770000000E+01 0.  1.
         15    1    3    3    0    0  0.66868751169E+02 -0.15182456104E+03 -0.20705185239E+03  0.26532198274E+03  0.17770000000E+01 0. -1.
</event>
<event>
 7    1  0.3260141E-006  0.4041802E+03  0.7546771E-02  0.9644130E-01
        -11   -1    0    0    0    0  0.00000000000E+00  0.00000000000E+00  0.50000000000E+03  0.50000000000E+03  0.00000000000E+00 0. -1.
         11   -1    0    0    0    0 -0.00000000000E+00 -0.00000000000E+00 -0.50000000000E+03  0.50000000000E+03  0.00000000000E+00 0.  1.
         23    2    1    2    0    0 -0.12125954442E+03 -0.85194841292E+02  0.41946473213E+03  0.45499618818E+03  0.95440199399E+02 0.  0.
        -11    1    1    2    0    0  0.90673057593E+02  0.14515698335E+03 -0.63215361989E+02  0.18245091170E+03  0.00000000000E+00 0. -1.
         11    1    1    2    0    0  0.30586486829E+02 -0.59962142056E+02 -0.35624937014E+03  0.36255290012E+03  0.00000000000E+00 0.  1.
        -15    1    3    3    0    0 -0.27124867714E+02  0.18258355185E+02  0.48360601618E+02  0.58404036679E+02  0.17770000000E+01 0.  1.
         15    1    3    3    0    0 -0.94134676707E+02 -0.10345319648E+03  0.37110413052E+03  0.39659215150E+03  0.17770000000E+01 0. -1.
</event>
<event>
 7    1  0.3260141E-006  0.4319392E+03  0.7546771E-02  0.9566470E-01
        -11   -1    0    0    0    0  0.00000000000E+00  0.00000000000E+00  0.50000000000E+03  0.50000000000E+03  0.00000000000E+00 0. -1.
         11   -1    0    0    0    0 -0.00000000000E+00 -0.00000000000E+00 -0.50000000000E+03  0.50000000000E+03  0.00000000000E+00 0.  1.
         23    2    1    2    0    0  0.84099424560E+01 -0.90867841957E+02  0.24710028309E+02  0.13096371284E+03  0.90626799276E+02 0.  0.
        -11    1    1    2    0    0 -0.76764276512E+02  0.48175622271E+02  0.41358251754E+03  0.42339596543E+03  0.00000000000E+00 0. -1.
         11    1    1    2    0    0  0.68354334056E+02  0.42692219686E+02 -0.43829254585E+03  0.44564032173E+03  0.00000000000E+00 0.  1.
        -15    1    3    3    0    0 -0.13564874821E+02  0.33927150826E+01  0.30898535105E+02  0.33961648152E+02  0.17770000000E+01 0.  1.
         15    1    3    3    0    0  0.21974817277E+02 -0.94260557040E+02 -0.61885067963E+01  0.97002064685E+02  0.17770000000E+01 0. -1.
</event>
<event>
 7    1  0.3260141E-006  0.5241549E+03  0.7546771E-02  0.9347326E-01
        -11   -1    0    0    0    0  0.00000000000E+00  0.00000000000E+00  0.50000000000E+03  0.50000000000E+03  0.00000000000E+00 0.  1.
         11   -1    0    0    0    0 -0.00000000000E+00 -0.00000000000E+00 -0.50000000000E+03  0.50000000000E+03  0.00000000000E+00 0. -1.
         23    2    1    2    0    0 -0.12389441110E+03 -0.16422382020E+02  0.33751389471E+03  0.37135533286E+03  0.91485705937E+02 0.  0.
        -11    1    1    2    0    0 -0.14171338739E+03  0.28369684408E+01  0.57070011200E+02  0.15279960319E+03  0.00000000000E+00 0.  1.
         11    1    1    2    0    0  0.26560779849E+03  0.13585413579E+02 -0.39458390591E+03  0.47584506395E+03  0.00000000000E+00 0. -1.
        -15    1    3    3    0    0 -0.10682025313E+03  0.19577198228E+02  0.28784755748E+03  0.30765761366E+03  0.17770000000E+01 0.  1.
         15    1    3    3    0    0 -0.17074157974E+02 -0.35999580247E+02  0.49666337228E+02  0.63697719199E+02  0.17770000000E+01 0. -1.
</event>
<event>
 7    1  0.3260141E-006  0.5242999E+03  0.7546771E-02  0.9347020E-01
        -11   -1    0    0    0    0  0.00000000000E+00  0.00000000000E+00  0.50000000000E+03  0.50000000000E+03  0.00000000000E+00 0.  1.
         11   -1    0    0    0    0 -0.00000000000E+00 -0.00000000000E+00 -0.50000000000E+03  0.50000000000E+03  0.00000000000E+00 0. -1.
         23    2    1    2    0    0 -0.54410103348E+02  0.26322531381E+02 -0.26403260560E+03  0.29165237068E+03  0.10814135887E+03 0.  0.
        -11    1    1    2    0    0  0.16143537292E+03 -0.16729508933E+03  0.41501998413E+03  0.47570013009E+03  0.00000000000E+00 0.  1.
         11    1    1    2    0    0 -0.10702526958E+03  0.14097255795E+03 -0.15098737853E+03  0.23264749923E+03  0.00000000000E+00 0. -1.
        -15    1    3    3    0    0 -0.12667588518E+02 -0.37858310738E+02 -0.48054545269E+02  0.62498932317E+02  0.17770000000E+01 0.  1.
         15    1    3    3    0    0 -0.41742514831E+02  0.64180842118E+02 -0.21597806033E+03  0.22915343836E+03  0.17770000000E+01 0. -1.
</event>
<event>
 7    1  0.3260141E-006  0.3702704E+03  0.7546771E-02  0.9748566E-01
        -11   -1    0    0    0    0  0.00000000000E+00  0.00000000000E+00  0.50000000000E+03  0.50000000000E+03  0.00000000000E+00 0.  1.
         11   -1    0    0    0    0 -0.00000000000E+00 -0.00000000000E+00 -0.50000000000E+03  0.50000000000E+03  0.00000000000E+00 0. -1.
         23    2    1    2    0    0 -0.65321692846E+02  0.54036506932E+02  0.31116569902E+03  0.33543236516E+03  0.92216656383E+02 0.  0.
        -11    1    1    2    0    0  0.21572277752E+03 -0.16457573540E+02  0.90127123341E+02  0.23437164255E+03  0.00000000000E+00 0.  1.
         11    1    1    2    0    0 -0.15040108467E+03 -0.37578933392E+02 -0.40129282236E+03  0.43019599229E+03  0.00000000000E+00 0. -1.
        -15    1    3    3    0    0 -0.84434512519E+02  0.61141668139E+02  0.27069898186E+03  0.29008375859E+03  0.17770000000E+01 0.  1.
         15    1    3    3    0    0  0.19112819673E+02 -0.71051612068E+01  0.40466717155E+02  0.45348606571E+02  0.17770000000E+01 0. -1.
</event>
<event>
 7    1  0.6932405E-006  0.5073482E+03  0.7546771E-02  0.9383516E-01
        -11   -1    0    0    0    0  0.00000000000E+00  0.00000000000E+00  0.50000000000E+03  0.50000000000E+03  0.00000000000E+00 0. -1.
         11   -1    0    0    0    0 -0.00000000000E+00 -0.00000000000E+00 -0.50000000000E+03  0.50000000000E+03  0.00000000000E+00 0.  1.
         23    2    1    2    0    0 -0.10564284073E+03  0.68998507340E+01 -0.35104137550E+03  0.37386200023E+03  0.73039237177E+02 0.  0.
        -11    1    1    2    0    0  0.99751323999E+02 -0.36540899071E+02  0.48106159359E+03  0.49265182510E+03  0.00000000000E+00 0. -1.
         11    1    1    2    0    0  0.58915167260E+01  0.29641048337E+02 -0.13002021809E+03  0.13348617467E+03  0.00000000000E+00 0.  1.
        -15    1    3    3    0    0 -0.71822145023E+02 -0.22375176461E+02 -0.14902645519E+03  0.16694643187E+03  0.17770000000E+01 0. -1.
         15    1    3    3    0    0 -0.33820695702E+02  0.29275027195E+02 -0.20201492031E+03  0.20691556836E+03  0.17770000000E+01 0.  1.
</event>
<event>
 7    1  0.3260141E-006  0.3836830E+03  0.7546771E-02  0.9705880E-01
        -11   -1    0    0    0    0  0.00000000000E+00  0.00000000000E+00  0.50000000000E+03  0.50000000000E+03  0.00000000000E+00 0.  1.
         11   -1    0    0    0    0 -0.00000000000E+00 -0.00000000000E+00 -0.50000000000E+03  0.50000000000E+03  0.00000000000E+00 0. -1.
         23    2    1    2    0    0  0.67338713426E+02  0.12954477645E+03  0.12241725038E+03  0.20933388942E+03  0.86708376991E+02 0.  0.
        -11    1    1    2    0    0 -0.22201534834E+03 -0.24988611171E+03  0.21714735348E+03  0.39860614251E+03  0.00000000000E+00 0.  1.
         11    1    1    2    0    0  0.15467663492E+03  0.12034133526E+03 -0.33956460386E+03  0.39205996806E+03  0.00000000000E+00 0. -1.
        -15    1    3    3    0    0  0.43378193713E+02  0.11652273583E+03  0.53823533691E+02  0.13549666477E+03  0.17770000000E+01 0.  1.
         15    1    3    3    0    0  0.23960519713E+02  0.13022040616E+02  0.68593716688E+02  0.73837224656E+02  0.17770000000E+01 0. -1.
</event>
<event>
 6    1  0.3260141E-006  0.2649979E+03  0.7546771E-02  0.1016938E+00
        -11   -1    0    0    0    0  0.00000000000E+00  0.00000000000E+00  0.50000000000E+03  0.50000000000E+03  0.00000000000E+00 0. -1.
         11   -1    0    0    0    0 -0.00000000000E+00 -0.00000000000E+00 -0.50000000000E+03  0.50000000000E+03  0.00000000000E+00 0. -1.
        -11    1    1    2    0    0 -0.95748556050E+02  0.47110251678E+02  0.25520215108E+03  0.27661399046E+03  0.00000000000E+00 0. -1.
         11    1    1    2    0    0 -0.66848788720E+02  0.55030796588E+02 -0.31682775114E+03  0.32844630158E+03  0.00000000000E+00 0. -1.
        -15    1    1    2    0    0  0.11853276632E+03 -0.13216210203E+02 -0.13165964680E+03  0.17765726900E+03  0.17770000000E+01 0.  1.
         15    1    1    2    0    0  0.44064578446E+02 -0.88924838063E+02  0.19328524686E+03  0.21728243896E+03  0.17770000000E+01 0. -1.
</event>
<event>
 7    1  0.3260141E-006  0.5205104E+03  0.7546771E-02  0.9355051E-01
        -11   -1    0    0    0    0  0.00000000000E+00  0.00000000000E+00  0.50000000000E+03  0.50000000000E+03  0.00000000000E+00 0. -1.
         11   -1    0    0    0    0 -0.00000000000E+00 -0.00000000000E+00 -0.50000000000E+03  0.50000000000E+03  0.00000000000E+00 0.  1.
         23    2    1    2    0    0 -0.66560002300E+02  0.19899881101E+01 -0.19995165693E+03  0.22623993887E+03  0.82277888105E+02 0.  0.
        -11    1    1    2    0    0 -0.87352011070E+01 -0.86824013963E+02  0.47148233309E+03  0.47948962821E+03  0.00000000000E+00 0. -1.
         11    1    1    2    0    0  0.75295203407E+02  0.84834025853E+02 -0.27153067616E+03  0.29427043293E+03  0.00000000000E+00 0.  1.
        -15    1    3    3    0    0 -0.53589987209E+02  0.34511636469E+02 -0.16429554999E+03  0.17623599308E+03  0.17770000000E+01 0.  1.
         15    1    3    3    0    0 -0.12970015091E+02 -0.32521648359E+02 -0.35656106945E+02  0.50003945794E+02  0.17770000000E+01 0. -1.
</event>
<event>
 7    1  0.3260141E-006  0.4111974E+03  0.7546771E-02  0.9623883E-01
        -11   -1    0    0    0    0  0.00000000000E+00  0.00000000000E+00  0.50000000000E+03  0.50000000000E+03  0.00000000000E+00 0.  1.
         11   -1    0    0    0    0 -0.00000000000E+00 -0.00000000000E+00 -0.50000000000E+03  0.50000000000E+03  0.00000000000E+00 0. -1.
         23    2    1    2    0    0 -0.70712994434E+02 -0.11226490748E+03  0.37291147202E+03  0.40688320207E+03  0.94272143990E+02 0.  0.
        -11    1    1    2    0    0  0.13703744576E+03  0.92073294352E+02  0.43695281479E+02  0.17078065083E+03  0.00000000000E+00 0.  1.
         11    1    1    2    0    0 -0.66324451330E+02  0.20191613124E+02 -0.41660675350E+03  0.42233614710E+03  0.00000000000E+00 0. -1.
        -15    1    3    3    0    0 -0.63309407234E+02 -0.74024424058E+02  0.13897790372E+03  0.16972245536E+03  0.17770000000E+01 0.  1.
         15    1    3    3    0    0 -0.74035872003E+01 -0.38240483417E+02  0.23393356830E+03  0.23716074672E+03  0.17770000000E+01 0. -1.
</event>
<event>
 7    1  0.3260141E-006  0.4607574E+03  0.7546771E-02  0.9492170E-01
        -11   -1    0    0    0    0  0.00000000000E+00  0.00000000000E+00  0.50000000000E+03  0.50000000000E+03  0.00000000000E+00 0.  1.
         11   -1    0    0    0    0 -0.00000000000E+00 -0.00000000000E+00 -0.50000000000E+03  0.50000000000E+03  0.00000000000E+00 0. -1.
         23    2    1    2    0    0  0.29876094870E+02  0.91567791061E+02  0.45947316928E+03  0.47951360167E+03  0.97675275739E+02 0.  0.
        -11    1    1    2    0    0 -0.60024870626E+02  0.39611642532E+02 -0.45310123730E+02  0.85000439000E+02  0.00000000000E+00 0.  1.
         11    1    1    2    0    0  0.30148775756E+02 -0.13117943359E+03 -0.41416304555E+03  0.43548595933E+03  0.00000000000E+00 0. -1.
        -15    1    3    3    0    0 -0.21974827609E+02 -0.89457248070E+01  0.91893936593E+02  0.94924034640E+02  0.17770000000E+01 0. -1.
         15    1    3    3    0    0  0.51850922479E+02  0.10051351587E+03  0.36757923269E+03  0.38458956703E+03  0.17770000000E+01 0.  1.
</event>
<event>
 7    1  0.3260141E-006  0.3060118E+03  0.7546771E-02  0.9983895E-01
        -11   -1    0    0    0    0  0.00000000000E+00  0.00000000000E+00  0.50000000000E+03  0.50000000000E+03  0.00000000000E+00 0. -1.
         11   -1    0    0    0    0 -0.00000000000E+00 -0.00000000000E+00 -0.50000000000E+03  0.50000000000E+03  0.00000000000E+00 0.  1.
         23    2    1    2    0    0 -0.29201340220E+03  0.68659036237E+02  0.13930921685E+03  0.34293428150E+03  0.90614420495E+02 0.  0.
        -11    1    1    2    0    0  0.26131045654E+03  0.87230654381E+01  0.18626253598E+03  0.32101865814E+03  0.00000000000E+00 0. -1.
         11    1    1    2    0    0  0.30702945669E+02 -0.77382101675E+02 -0.32557175284E+03  0.33604706036E+03  0.00000000000E+00 0.  1.
        -15    1    3    3    0    0 -0.26934161783E+03  0.57318437832E+02  0.15198517096E+03  0.31453610338E+03  0.17770000000E+01 0.  1.
         15    1    3    3    0    0 -0.22671784377E+02  0.11340598405E+02 -0.12675954102E+02  0.28398178118E+02  0.17770000000E+01 0. -1.
</event>
<event>
 7    1  0.3260141E-006  0.5330896E+03  0.7546771E-02  0.9328669E-01
        -11   -1    0    0    0    0  0.00000000000E+00  0.00000000000E+00  0.50000000000E+03  0.50000000000E+03  0.00000000000E+00 0. -1.
         11   -1    0    0    0    0 -0.00000000000E+00 -0.00000000000E+00 -0.50000000000E+03  0.50000000000E+03  0.00000000000E+00 0.  1.
         23    2    1    2    0    0 -0.15766338064E+03 -0.59388249200E+02 -0.16358741269E+03  0.25205180423E+03  0.91567268647E+02 0.  0.
        -11    1    1    2    0    0  0.17084957019E+03 -0.15041980190E+02  0.43426894214E+03  0.46691043136E+03  0.00000000000E+00 0. -1.
         11    1    1    2    0    0 -0.13186189555E+02  0.74430229390E+02 -0.27068152945E+03  0.28103776441E+03  0.00000000000E+00 0.  1.
        -15    1    3    3    0    0 -0.12614600899E+03 -0.42093779990E+02 -0.66884093979E+02  0.14886685882E+03  0.17770000000E+01 0.  1.
         15    1    3    3    0    0 -0.31517371649E+02 -0.17294469210E+02 -0.96703318714E+02  0.10318494541E+03  0.17770000000E+01 0. -1.
</event>
<event>
 7    1  0.3260141E-006  0.5091047E+03  0.7546771E-02  0.9379665E-01
        -11   -1    0    0    0    0  0.00000000000E+00  0.00000000000E+00  0.50000000000E+03  0.50000000000E+03  0.00000000000E+00 0.  1.
         11   -1    0    0    0    0 -0.00000000000E+00 -0.00000000000E+00 -0.50000000000E+03  0.50000000000E+03  0.00000000000E+00 0. -1.
         23    2    1    2    0    0  0.67049796059E+02 -0.13595119898E+02 -0.25142766465E+03  0.27606811913E+03  0.91198867379E+02 0.  0.
        -11    1    1    2    0    0 -0.85247319472E+02  0.50694051023E+02  0.48077145356E+03  0.49089528705E+03  0.00000000000E+00 0.  1.
         11    1    1    2    0    0  0.18197523413E+02 -0.37098931124E+02 -0.22934378891E+03  0.23303659383E+03  0.00000000000E+00 0. -1.
        -15    1    3    3    0    0 -0.17943987005E+02 -0.21764313941E+02 -0.72113195763E+02  0.77454133286E+02  0.17770000000E+01 0.  1.
         15    1    3    3    0    0  0.84993783064E+02  0.81691940423E+01 -0.17931446889E+03  0.19861398584E+03  0.17770000000E+01 0. -1.
</event>
<event>
 6    1  0.3260141E-006  0.3706657E+03  0.7546771E-02  0.9747280E-01
        -11   -1    0    0    0    0  0.00000000000E+00  0.00000000000E+00  0.50000000000E+03  0.50000000000E+03  0.00000000000E+00 0.  1.
         11   -1    0    0    0    0 -0.00000000000E+00 -0.00000000000E+00 -0.50000000000E+03  0.50000000000E+03  0.00000000000E+00 0. -1.
        -11    1    1    2    0    0 -0.22715917328E+03  0.24493479544E+02  0.18791723394E+03  0.29582783398E+03  0.00000000000E+00 0.  1.
         11    1    1    2    0    0  0.38029502039E+02 -0.64882038821E+02 -0.34079338766E+03  0.34899291549E+03  0.00000000000E+00 0. -1.
        -15    1    1    2    0    0  0.14922851542E+03  0.22298461254E+02  0.22491635660E+03  0.27084478283E+03  0.17770000000E+01 0.  1.
         15    1    1    2    0    0  0.39901155829E+02  0.18090098023E+02 -0.72040202879E+02  0.84334467704E+02  0.17770000000E+01 0. -1.
</event>
<event>
 7    1  0.3260141E-006  0.3470798E+03  0.7546771E-02  0.9827142E-01
        -11   -1    0    0    0    0  0.00000000000E+00  0.00000000000E+00  0.50000000000E+03  0.50000000000E+03  0.00000000000E+00 0. -1.
         11   -1    0    0    0    0 -0.00000000000E+00 -0.00000000000E+00 -0.50000000000E+03  0.50000000000E+03  0.00000000000E+00 0.  1.
         23    2    1    2    0    0  0.18831928961E+02  0.17691087505E+03  0.20223309613E+03  0.28254298138E+03  0.85324157775E+02 0.  0.
        -11    1    1    2    0    0  0.38012739604E+02 -0.10910305517E+03  0.24005175286E+03  0.26640812501E+03  0.00000000000E+00 0. -1.
         11    1    1    2    0    0 -0.56844668565E+02 -0.67807819880E+02 -0.44228484899E+03  0.45104889361E+03  0.00000000000E+00 0.  1.
        -15    1    3    3    0    0 -0.16440676897E+01  0.19448573339E+02  0.79398466031E+02  0.81781563329E+02  0.17770000000E+01 0.  1.
         15    1    3    3    0    0  0.20475996651E+02  0.15746230171E+03  0.12283463010E+03  0.20076141805E+03  0.17770000000E+01 0. -1.
</event>
<event>
 7    1  0.3260141E-006  0.5257914E+03  0.7546771E-02  0.9343880E-01
        -11   -1    0    0    0    0  0.00000000000E+00  0.00000000000E+00  0.50000000000E+03  0.50000000000E+03  0.00000000000E+00 0.  1.
         11   -1    0    0    0    0 -0.00000000000E+00 -0.00000000000E+00 -0.50000000000E+03  0.50000000000E+03  0.00000000000E+00 0. -1.
         23    2    1    2    0    0 -0.21941350529E+01 -0.87241037558E+02 -0.70878290223E+02  0.14380053177E+03  0.89660738625E+02 0.  0.
        -11    1    1    2    0    0 -0.15462445718E+02  0.16410666507E+03  0.44463884423E+03  0.47420858971E+03  0.00000000000E+00 0.  1.
         11    1    1    2    0    0  0.17656580771E+02 -0.76865627513E+02 -0.37376055401E+03  0.38199087852E+03  0.00000000000E+00 0. -1.
        -15    1    3    3    0    0  0.24281849946E+02 -0.23686113619E+02 -0.66640625037E+02  0.74798200844E+02  0.17770000000E+01 0. -1.
         15    1    3    3    0    0 -0.26475984999E+02 -0.63554923939E+02 -0.42376651855E+01  0.69002330930E+02  0.17770000000E+01 0.  1.
</event>
<event>
 7    1  0.3260141E-006  0.3451259E+03  0.7546771E-02  0.9834062E-01
        -11   -1    0    0    0    0  0.00000000000E+00  0.00000000000E+00  0.50000000000E+03  0.50000000000E+03  0.00000000000E+00 0. -1.
         11   -1    0    0    0    0 -0.00000000000E+00 -0.00000000000E+00 -0.50000000000E+03  0.50000000000E+03  0.00000000000E+00 0. -1.
         23    2    1    2    0    0  0.11519547746E+03  0.27171507198E+03  0.23852864497E+03  0.39373683600E+03  0.10504143554E+03 0.  0.
        -11    1    1    2    0    0 -0.17272730632E+03 -0.28369372838E+03  0.28014117690E+02  0.33331913336E+03  0.00000000000E+00 0. -1.
         11    1    1    2    0    0  0.57531828857E+02  0.11978656403E+02 -0.26654276266E+03  0.27294403065E+03  0.00000000000E+00 0. -1.
        -15    1    3    3    0    0  0.11200106466E+03  0.22323288842E+03  0.14623979877E+03  0.28942425163E+03  0.17770000000E+01 0. -1.
         15    1    3    3    0    0  0.31944128023E+01  0.48482183557E+02  0.92288846197E+02  0.10431258437E+03  0.17770000000E+01 0.  1.
</event>
<event>
 7    1  0.3260141E-006  0.5081781E+03  0.7546771E-02  0.9381694E-01
        -11   -1    0    0    0    0  0.00000000000E+00  0.00000000000E+00  0.50000000000E+03  0.50000000000E+03  0.00000000000E+00 0. -1.
         11   -1    0    0    0    0 -0.00000000000E+00 -0.00000000000E+00 -0.50000000000E+03  0.50000000000E+03  0.00000000000E+00 0.  1.
         23    2    1    2    0    0  0.48034657462E+02 -0.89935275121E+01  0.35395409866E+03  0.37009008568E+03  0.96410350619E+02 0.  0.
        -11    1    1    2    0    0  0.34698018003E+02 -0.35736723644E+02  0.12879145648E+03  0.13808803399E+03  0.00000000000E+00 0. -1.
         11    1    1    2    0    0 -0.82732675465E+02  0.44730251156E+02 -0.48274555514E+03  0.49182188032E+03  0.00000000000E+00 0.  1.
        -15    1    3    3    0    0 -0.16895190654E+02 -0.29995283143E+02  0.69764403565E+02  0.77816413512E+02  0.17770000000E+01 0. -1.
         15    1    3    3    0    0  0.64929848116E+02  0.21001755631E+02  0.28418969509E+03  0.29227367217E+03  0.17770000000E+01 0.  1.
</event>
<event>
 7    1  0.3260141E-006  0.5156233E+03  0.7546771E-02  0.9365514E-01
        -11   -1    0    0    0    0  0.00000000000E+00  0.00000000000E+00  0.50000000000E+03  0.50000000000E+03  0.00000000000E+00 0. -1.
         11   -1    0    0    0    0 -0.00000000000E+00 -0.00000000000E+00 -0.50000000000E+03  0.50000000000E+03  0.00000000000E+00 0. -1.
         23    2    1    2    0    0  0.72629354069E+02 -0.13052613172E+02  0.30852294224E+03  0.32987267403E+03  0.90466465606E+02 0.  0.
        -11    1    1    2    0    0  0.12628936923E+03  0.30375212771E+02  0.13278422818E+03  0.18575066510E+03  0.00000000000E+00 0. -1.
         11    1    1    2    0    0 -0.19891872330E+03 -0.17322599599E+02 -0.44130717042E+03  0.48437666087E+03  0.00000000000E+00 0. -1.
        -15    1    3    3    0    0  0.35823065760E+02  0.31629719589E+02  0.21183215666E+03  0.21716296076E+03  0.17770000000E+01 0. -1.
         15    1    3    3    0    0  0.36806288309E+02 -0.44682332761E+02  0.96690785578E+02  0.11270971327E+03  0.17770000000E+01 0.  1.
</event>
<event>
 7    1  0.3260141E-006  0.4777518E+03  0.7546771E-02  0.9451016E-01
        -11   -1    0    0    0    0  0.00000000000E+00  0.00000000000E+00  0.50000000000E+03  0.50000000000E+03  0.00000000000E+00 0.  1.
         11   -1    0    0    0    0 -0.00000000000E+00 -0.00000000000E+00 -0.50000000000E+03  0.50000000000E+03  0.00000000000E+00 0. -1.
         23    2    1    2    0    0  0.27414165305E+03  0.14221413179E+03 -0.33043216390E+03  0.46250250776E+03  0.96667727436E+02 0.  0.
        -11    1    1    2    0    0 -0.29644031852E+03 -0.11106124736E+03  0.36691051957E+03  0.48459755724E+03  0.00000000000E+00 0.  1.
         11    1    1    2    0    0  0.22298665476E+02 -0.31152884436E+02 -0.36478355673E+02  0.52899935003E+02  0.00000000000E+00 0. -1.
        -15    1    3    3    0    0  0.11451812762E+03  0.39590158478E+02 -0.68987800563E+02  0.13944266405E+03  0.17770000000E+01 0.  1.
         15    1    3    3    0    0  0.15962352543E+03  0.10262397331E+03 -0.26144436333E+03  0.32305984371E+03  0.17770000000E+01 0. -1.
</event>
<event>
 6    1  0.3260141E-006  0.3868391E+03  0.7546771E-02  0.9696107E-01
        -11   -1    0    0    0    0  0.00000000000E+00  0.00000000000E+00  0.50000000000E+03  0.50000000000E+03  0.00000000000E+00 0.  1.
         11   -1    0    0    0    0 -0.00000000000E+00 -0.00000000000E+00 -0.50000000000E+03  0.50000000000E+03  0.00000000000E+00 0. -1.
        -11    1    1    2    0    0 -0.38980277888E+01  0.84401969716E+02  0.34223513141E+03  0.35251066974E+03  0.00000000000E+00 0.  1.
         11    1    1    2    0    0 -0.10358481747E+03 -0.35628956037E+02 -0.41991177550E+03  0.43396444109E+03  0.00000000000E+00 0. -1.
        -15    1    1    2    0    0  0.99191252099E+02 -0.19448304299E+02  0.12279105875E+03  0.15905327054E+03  0.17770000000E+01 0.  1.
         15    1    1    2    0    0  0.82915931620E+01 -0.29324709380E+02 -0.45114414653E+02  0.54471618627E+02  0.17770000000E+01 0. -1.
</event>
<event>
 6    1  0.3260141E-006  0.3577065E+03  0.7546771E-02  0.9790344E-01
        -11   -1    0    0    0    0  0.00000000000E+00  0.00000000000E+00  0.50000000000E+03  0.50000000000E+03  0.00000000000E+00 0.  1.
         11   -1    0    0    0    0 -0.00000000000E+00 -0.00000000000E+00 -0.50000000000E+03  0.50000000000E+03  0.00000000000E+00 0. -1.
        -11    1    1    2    0    0 -0.37774651726E+02  0.12479299840E+03  0.33323286199E+03  0.35783286192E+03  0.00000000000E+00 0.  1.
         11    1    1    2    0    0  0.11713400664E+03  0.40420463271E+02 -0.36048601111E+03  0.38118808162E+03  0.00000000000E+00 0. -1.
        -15    1    1    2    0    0 -0.11099398225E+03 -0.83549191542E+02 -0.46456368666E+02  0.14649738367E+03  0.17770000000E+01 0.  1.
         15    1    1    2    0    0  0.31634627336E+02 -0.81664270130E+02  0.73709517792E+02  0.11448167279E+03  0.17770000000E+01 0. -1.
</event>
<event>
 7    1  0.3260141E-006  0.5331147E+03  0.7546771E-02  0.9328617E-01
        -11   -1    0    0    0    0  0.00000000000E+00  0.00000000000E+00  0.50000000000E+03  0.50000000000E+03  0.00000000000E+00 0.  1.
         11   -1    0    0    0    0 -0.00000000000E+00 -0.00000000000E+00 -0.50000000000E+03  0.50000000000E+03  0.00000000000E+00 0. -1.
         23    2    1    2    0    0  0.14572836120E+03 -0.13664791126E+02  0.15390765752E+03  0.23516519419E+03  0.10095355239E+03 0.  0.
        -11    1    1    2    0    0  0.25474376110E+03  0.14779553407E+03  0.45122216110E+02  0.29794952274E+03  0.00000000000E+00 0.  1.
         11    1    1    2    0    0 -0.40047212231E+03 -0.13413074295E+03 -0.19902987363E+03  0.46688528307E+03  0.00000000000E+00 0. -1.
        -15    1    3    3    0    0  0.57888852525E+02 -0.16772143197E+02  0.28193332095E+01  0.60361663353E+02  0.17770000000E+01 0.  1.
         15    1    3    3    0    0  0.87839508677E+02  0.31073520714E+01  0.15108832431E+03  0.17480353084E+03  0.17770000000E+01 0. -1.
</event>
<event>
 7    1  0.3260141E-006  0.5310063E+03  0.7546771E-02  0.9332984E-01
        -11   -1    0    0    0    0  0.00000000000E+00  0.00000000000E+00  0.50000000000E+03  0.50000000000E+03  0.00000000000E+00 0.  1.
         11   -1    0    0    0    0 -0.00000000000E+00 -0.00000000000E+00 -0.50000000000E+03  0.50000000000E+03  0.00000000000E+00 0. -1.
         23    2    1    2    0    0  0.25114613525E+02 -0.10525001056E+02 -0.14090429469E+03  0.16734495441E+03  0.86074351841E+02 0.  0.
        -11    1    1    2    0    0 -0.19280367014E+02  0.30198483676E+03  0.35831339942E+03  0.46899367415E+03  0.00000000000E+00 0.  1.
         11    1    1    2    0    0 -0.58342465112E+01 -0.29145983570E+03 -0.21740910473E+03  0.36366137144E+03  0.00000000000E+00 0. -1.
        -15    1    3    3    0    0  0.45850792126E+02  0.18621007645E+02 -0.10755898376E+03  0.11841085162E+03  0.17770000000E+01 0. -1.
         15    1    3    3    0    0 -0.20736178601E+02 -0.29146008701E+02 -0.33345310931E+02  0.48934102794E+02  0.17770000000E+01 0.  1.
</event>
<event>
 7    1  0.3260141E-006  0.3994922E+03  0.7546771E-02  0.9657902E-01
        -11   -1    0    0    0    0  0.00000000000E+00  0.00000000000E+00  0.50000000000E+03  0.50000000000E+03  0.00000000000E+00 0.  1.
         11   -1    0    0    0    0 -0.00000000000E+00 -0.00000000000E+00 -0.50000000000E+03  0.50000000000E+03  0.00000000000E+00 0.  1.
         23    2    1    2    0    0  0.10699166134E+03  0.70265431085E+02  0.99021727472E+02  0.18479085684E+03  0.89207128968E+02 0.  0.
        -11    1    1    2    0    0 -0.14485032702E+03 -0.13138394062E+03  0.32816483029E+03  0.38201506898E+03  0.00000000000E+00 0.  1.
         11    1    1    2    0    0  0.37858665680E+02  0.61118509536E+02 -0.42718655776E+03  0.43319407418E+03  0.00000000000E+00 0.  1.
        -15    1    3    3    0    0 -0.12259938342E+02  0.25349188579E+02  0.13230098940E+02  0.31162167715E+02  0.17770000000E+01 0.  1.
         15    1    3    3    0    0  0.11925159968E+03  0.44916242506E+02  0.85791628532E+02  0.15362868912E+03  0.17770000000E+01 0. -1.
</event>
<event>
 7    1  0.3260141E-006  0.5242696E+03  0.7546771E-02  0.9347084E-01
        -11   -1    0    0    0    0  0.00000000000E+00  0.00000000000E+00  0.50000000000E+03  0.50000000000E+03  0.00000000000E+00 0.  1.
         11   -1    0    0    0    0 -0.00000000000E+00 -0.00000000000E+00 -0.50000000000E+03  0.50000000000E+03  0.00000000000E+00 0. -1.
         23    2    1    2    0    0  0.63568005625E+02  0.13935709921E+02  0.33050688096E+03  0.34887080487E+03  0.90779649602E+02 0.  0.
        -11    1    1    2    0    0  0.14711729317E+02 -0.12067137432E+03  0.12643861746E+03  0.17539880144E+03  0.00000000000E+00 0.  1.
         11    1    1    2    0    0 -0.78279734942E+02  0.10673566440E+03 -0.45694549842E+03  0.47573039369E+03  0.00000000000E+00 0. -1.
        -15    1    3    3    0    0  0.84828472092E+02  0.63190119625E+01  0.29251795163E+03  0.30464029501E+03  0.17770000000E+01 0.  1.
         15    1    3    3    0    0 -0.21260466466E+02  0.76166979584E+01  0.37988929329E+02  0.44230509863E+02  0.17770000000E+01 0. -1.
</event>
<event>
 7    1  0.3260141E-006  0.5323374E+03  0.7546771E-02  0.9330224E-01
        -11   -1    0    0    0    0  0.00000000000E+00  0.00000000000E+00  0.50000000000E+03  0.50000000000E+03  0.00000000000E+00 0.  1.
         11   -1    0    0    0    0 -0.00000000000E+00 -0.00000000000E+00 -0.50000000000E+03  0.50000000000E+03  0.00000000000E+00 0. -1.
         23    2    1    2    0    0  0.73219463103E+02  0.12359942573E+03  0.33896906099E+03  0.37895850074E+03  0.89842156876E+02 0.  0.
        -11    1    1    2    0    0 -0.11139673352E+03  0.41657388839E+02  0.96853108754E+02  0.15337892606E+03  0.00000000000E+00 0.  1.
         11    1    1    2    0    0  0.38177270414E+02 -0.16525681457E+03 -0.43582216974E+03  0.46766257321E+03  0.00000000000E+00 0. -1.
        -15    1    3    3    0    0  0.20116956742E+02  0.95776796905E+02  0.27191026301E+03  0.28899175703E+03  0.17770000000E+01 0.  1.
         15    1    3    3    0    0  0.53102506362E+02  0.27822628829E+02  0.67058797981E+02  0.89966743703E+02  0.17770000000E+01 0. -1.
</event>
<event>
 7    1  0.3260141E-006  0.5334582E+03  0.7546771E-02  0.9327907E-01
        -11   -1    0    0    0    0  0.00000000000E+00  0.00000000000E+00  0.50000000000E+03  0.50000000000E+03  0.00000000000E+00 0. -1.
         11   -1    0    0    0    0 -0.00000000000E+00 -0.00000000000E+00 -0.50000000000E+03  0.50000000000E+03  0.00000000000E+00 0. -1.
         23    2    1    2    0    0 -0.66676245077E+02 -0.42295303825E+02  0.19495731977E+03  0.22992692213E+03  0.92862363772E+02 0.  0.
        -11    1    1    2    0    0  0.15157830698E+03  0.11165276905E+02  0.26273671288E+03  0.30353126173E+03  0.00000000000E+00 0. -1.
         11    1    1    2    0    0 -0.84902061904E+02  0.31130026920E+02 -0.45769403264E+03  0.46654181614E+03  0.00000000000E+00 0. -1.
        -15    1    3    3    0    0  0.11530163734E+02  0.67614566553E+01 -0.77686351148E+00  0.13506413949E+02  0.17770000000E+01 0.  1.
         15    1    3    3    0    0 -0.78206408811E+02 -0.49056760480E+02  0.19573418328E+03  0.21642050818E+03  0.17770000000E+01 0. -1.
</event>
<event>
 7    1  0.3260141E-006  0.5306388E+03  0.7546771E-02  0.9333748E-01
        -11   -1    0    0    0    0  0.00000000000E+00  0.00000000000E+00  0.50000000000E+03  0.50000000000E+03  0.00000000000E+00 0. -1.
         11   -1    0    0    0    0 -0.00000000000E+00 -0.00000000000E+00 -0.50000000000E+03  0.50000000000E+03  0.00000000000E+00 0. -1.
         23    2    1    2    0    0  0.64808846434E+01 -0.69893281784E+02  0.52372598144E+02  0.11950372435E+03  0.81309153199E+02 0.  0.
        -11    1    1    2    0    0  0.67820301674E+02 -0.17517950242E+01  0.40549888841E+03  0.41113502722E+03  0.00000000000E+00 0. -1.
         11    1    1    2    0    0 -0.74301186317E+02  0.71645076809E+02 -0.45787148656E+03  0.46936124842E+03  0.00000000000E+00 0. -1.
        -15    1    3    3    0    0 -0.13098463587E+02 -0.58279144668E+02  0.68982422531E+02  0.91267523242E+02  0.17770000000E+01 0. -1.
         15    1    3    3    0    0  0.19579348230E+02 -0.11614137117E+02 -0.16609824387E+02  0.28236201112E+02  0.17770000000E+01 0.  1.
</event>
<event>
 7    1  0.3260141E-006  0.5216991E+03  0.7546771E-02  0.9352524E-01
        -11   -1    0    0    0    0  0.00000000000E+00  0.00000000000E+00  0.50000000000E+03  0.50000000000E+03  0.00000000000E+00 0.  1.
         11   -1    0    0    0    0 -0.00000000000E+00 -0.00000000000E+00 -0.50000000000E+03  0.50000000000E+03  0.00000000000E+00 0. -1.
         23    2    1    2    0    0  0.40104521745E+02  0.74673084370E+01  0.11181157086E+03  0.15163917342E+03  0.93959981788E+02 0.  0.
        -11    1    1    2    0    0  0.88833081142E+00 -0.10737211662E+03  0.35413948378E+03  0.37005990668E+03  0.00000000000E+00 0.  1.
         11    1    1    2    0    0 -0.40992852557E+02  0.99904808184E+02 -0.46595105464E+03  0.47830091990E+03  0.00000000000E+00 0. -1.
        -15    1    3    3    0    0  0.55851724500E+02 -0.20506099262E+02  0.36680151342E+02  0.69917855144E+02  0.17770000000E+01 0.  1.
         15    1    3    3    0    0 -0.15747202755E+02  0.27973407699E+02  0.75131419519E+02  0.81721318276E+02  0.17770000000E+01 0. -1.
</event>
<event>
 7    1  0.3260141E-006  0.5327314E+03  0.7546771E-02  0.9329409E-01
        -11   -1    0    0    0    0  0.00000000000E+00  0.00000000000E+00  0.50000000000E+03  0.50000000000E+03  0.00000000000E+00 0.  1.
         11   -1    0    0    0    0 -0.00000000000E+00 -0.00000000000E+00 -0.50000000000E+03  0.50000000000E+03  0.00000000000E+00 0.  1.
         23    2    1    2    0    0  0.20915910478E+02  0.28852724899E+02  0.69660183494E+02  0.12404299154E+03  0.96250545659E+02 0.  0.
        -11    1    1    2    0    0  0.88321978648E+02  0.37227425966E+03  0.14365691093E+03  0.40868839521E+03  0.00000000000E+00 0.  1.
         11    1    1    2    0    0 -0.10923788913E+03 -0.40112698456E+03 -0.21331709442E+03  0.46726861326E+03  0.00000000000E+00 0.  1.
        -15    1    3    3    0    0 -0.86905494580E+01 -0.28078872214E+02  0.18031280231E+00  0.29447223237E+02  0.17770000000E+01 0.  1.
         15    1    3    3    0    0  0.29606459936E+02  0.56931597113E+02  0.69479870692E+02  0.94595768299E+02  0.17770000000E+01 0. -1.
</event>
<event>
 7    1  0.3260141E-006  0.5185823E+03  0.7546771E-02  0.9359164E-01
        -11   -1    0    0    0    0  0.00000000000E+00  0.00000000000E+00  0.50000000000E+03  0.50000000000E+03  0.00000000000E+00 0.  1.
         11   -1    0    0    0    0 -0.00000000000E+00 -0.00000000000E+00 -0.50000000000E+03  0.50000000000E+03  0.00000000000E+00 0. -1.
         23    2    1    2    0    0  0.34637896280E+02  0.44484203594E+00 -0.98984856021E+02  0.13903432327E+03  0.91282854818E+02 0.  0.
        -11    1    1    2    0    0 -0.14227349226E+03 -0.10254613771E+03  0.44833645900E+03  0.48141773693E+03  0.00000000000E+00 0.  1.
         11    1    1    2    0    0  0.10763559598E+03  0.10210129568E+03 -0.34935160298E+03  0.37954793980E+03  0.00000000000E+00 0. -1.
        -15    1    3    3    0    0  0.56257878665E+02 -0.25681168193E+02 -0.50614591276E+02  0.79934134703E+02  0.17770000000E+01 0.  1.
         15    1    3    3    0    0 -0.21619982384E+02  0.26126010229E+02 -0.48370264744E+02  0.59100188572E+02  0.17770000000E+01 0. -1.
</event>
<event>
 7    1  0.3260141E-006  0.5270511E+03  0.7546771E-02  0.9341235E-01
        -11   -1    0    0    0    0  0.00000000000E+00  0.00000000000E+00  0.50000000000E+03  0.50000000000E+03  0.00000000000E+00 0.  1.
         11   -1    0    0    0    0 -0.00000000000E+00 -0.00000000000E+00 -0.50000000000E+03  0.50000000000E+03  0.00000000000E+00 0. -1.
         23    2    1    2    0    0  0.51275259026E+02 -0.10511609018E+03  0.23911905112E+03  0.28055514602E+03  0.88626884993E+02 0.  0.
        -11    1    1    2    0    0  0.58991686218E+02  0.92750935748E+02  0.22062976798E+03  0.24649594245E+03  0.00000000000E+00 0.  1.
         11    1    1    2    0    0 -0.11026694524E+03  0.12365154434E+02 -0.45974881910E+03  0.47294891154E+03  0.00000000000E+00 0. -1.
        -15    1    3    3    0    0  0.19237689787E+02 -0.61935853965E+01  0.53998529497E+00  0.20295283234E+02  0.17770000000E+01 0. -1.
         15    1    3    3    0    0  0.32037569238E+02 -0.98922504786E+02  0.23857906583E+03  0.26025986278E+03  0.17770000000E+01 0.  1.
</event>
<event>
 7    1  0.3260141E-006  0.5193102E+03  0.7546771E-02  0.9357609E-01
        -11   -1    0    0    0    0  0.00000000000E+00  0.00000000000E+00  0.50000000000E+03  0.50000000000E+03  0.00000000000E+00 0.  1.
         11   -1    0    0    0    0 -0.00000000000E+00 -0.00000000000E+00 -0.50000000000E+03  0.50000000000E+03  0.00000000000E+00 0. -1.
         23    2    1    2    0    0 -0.50669086611E+02  0.45908691200E+02 -0.21527794183E+03  0.24437624664E+03  0.93274827366E+02 0.  0.
        -11    1    1    2    0    0 -0.38830376153E+02 -0.13185035825E+03  0.46061959856E+03  0.48068984767E+03  0.00000000000E+00 0.  1.
         11    1    1    2    0    0  0.89499462764E+02  0.85941667045E+02 -0.24534165673E+03  0.27493390569E+03  0.00000000000E+00 0. -1.
        -15    1    3    3    0    0 -0.63818525628E+02 -0.26053687880E+00 -0.91220582646E+02  0.11134282429E+03  0.17770000000E+01 0.  1.
         15    1    3    3    0    0  0.13149439017E+02  0.46169228079E+02 -0.12405735918E+03  0.13303342235E+03  0.17770000000E+01 0. -1.
</event>
<event>
 6    1  0.3260141E-006  0.3414567E+03  0.7546771E-02  0.9847190E-01
        -11   -1    0    0    0    0  0.00000000000E+00  0.00000000000E+00  0.50000000000E+03  0.50000000000E+03  0.00000000000E+00 0. -1.
         11   -1    0    0    0    0 -0.00000000000E+00 -0.00000000000E+00 -0.50000000000E+03  0.50000000000E+03  0.00000000000E+00 0.  1.
        -11    1    1    2    0    0 -0.91806415698E+02 -0.17976475094E+03  0.23614929622E+03  0.31066102708E+03  0.00000000000E+00 0. -1.
         11    1    1    2    0    0  0.11345461101E+03 -0.40998281016E+02 -0.34772887732E+03  0.36806002218E+03  0.00000000000E+00 0.  1.
        -15    1    1    2    0    0 -0.94980828998E+02  0.12596665972E+03  0.12414518240E+03  0.20075891333E+03  0.17770000000E+01 0. -1.
         15    1    1    2    0    0  0.73332633686E+02  0.94796372231E+02 -0.12565601308E+02  0.12052003741E+03  0.17770000000E+01 0.  1.
</event>
<event>
 7    1  0.3260141E-006  0.4796662E+03  0.7546771E-02  0.9446494E-01
        -11   -1    0    0    0    0  0.00000000000E+00  0.00000000000E+00  0.50000000000E+03  0.50000000000E+03  0.00000000000E+00 0.  1.
         11   -1    0    0    0    0 -0.00000000000E+00 -0.00000000000E+00 -0.50000000000E+03  0.50000000000E+03  0.00000000000E+00 0.  1.
         23    2    1    2    0    0 -0.21897736550E+02 -0.38776898856E+02  0.48097610937E+03  0.49127125933E+03  0.89589473224E+02 0.  0.
        -11    1    1    2    0    0 -0.20181962891E+02 -0.33395765789E+02 -0.27786151269E+02  0.47902599106E+02  0.00000000000E+00 0.  1.
         11    1    1    2    0    0  0.42079699441E+02  0.72172664645E+02 -0.45318995810E+03  0.46082614156E+03  0.00000000000E+00 0.  1.
        -15    1    3    3    0    0 -0.55332426745E+02 -0.34781298623E+02  0.34786403442E+03  0.35395474337E+03  0.17770000000E+01 0.  1.
         15    1    3    3    0    0  0.33434690195E+02 -0.39956002329E+01  0.13311207495E+03  0.13731651596E+03  0.17770000000E+01 0. -1.
</event>
<event>
 7    1  0.3260141E-006  0.5149302E+03  0.7546771E-02  0.9367008E-01
        -11   -1    0    0    0    0  0.00000000000E+00  0.00000000000E+00  0.50000000000E+03  0.50000000000E+03  0.00000000000E+00 0.  1.
         11   -1    0    0    0    0 -0.00000000000E+00 -0.00000000000E+00 -0.50000000000E+03  0.50000000000E+03  0.00000000000E+00 0. -1.
         23    2    1    2    0    0 -0.11727907245E+03 -0.21513250316E+02  0.22385700662E+03  0.26010816857E+03  0.57681012186E+02 0.  0.
        -11    1    1    2    0    0  0.32519976296E+02 -0.28747382170E+02  0.25109821499E+03  0.25482204460E+03  0.00000000000E+00 0.  1.
         11    1    1    2    0    0  0.84759096157E+02  0.50260632486E+02 -0.47495522162E+03  0.48506978683E+03  0.00000000000E+00 0. -1.
        -15    1    3    3    0    0 -0.92381413884E+02 -0.38093825447E+02  0.14837971808E+03  0.17889987042E+03  0.17770000000E+01 0.  1.
         15    1    3    3    0    0 -0.24897658568E+02  0.16580575131E+02  0.75477288540E+02  0.81208298148E+02  0.17770000000E+01 0. -1.
</event>
<event>
 7    1  0.3260141E-006  0.4230997E+03  0.7546771E-02  0.9590508E-01
        -11   -1    0    0    0    0  0.00000000000E+00  0.00000000000E+00  0.50000000000E+03  0.50000000000E+03  0.00000000000E+00 0.  1.
         11   -1    0    0    0    0 -0.00000000000E+00 -0.00000000000E+00 -0.50000000000E+03  0.50000000000E+03  0.00000000000E+00 0.  1.
         23    2    1    2    0    0  0.14512710479E+02  0.14917805718E+03  0.35430280180E+03  0.39548932947E+03  0.91742154165E+02 0.  0.
        -11    1    1    2    0    0 -0.13677130425E+03  0.52967583631E+02  0.33472453448E+02  0.15044055212E+03  0.00000000000E+00 0.  1.
         11    1    1    2    0    0  0.12225859377E+03 -0.20214564082E+03 -0.38777525525E+03  0.45407011841E+03  0.00000000000E+00 0.  1.
        -15    1    3    3    0    0  0.38695670349E+02  0.12929922057E+03  0.32755497034E+03  0.35427540088E+03  0.17770000000E+01 0.  1.
         15    1    3    3    0    0 -0.24182959870E+02  0.19878836611E+02  0.26747831459E+02  0.41213928590E+02  0.17770000000E+01 0. -1.
</event>
<event>
 7    1  0.3260141E-006  0.5120336E+03  0.7546771E-02  0.9373279E-01
        -11   -1    0    0    0    0  0.00000000000E+00  0.00000000000E+00  0.50000000000E+03  0.50000000000E+03  0.00000000000E+00 0. -1.
         11   -1    0    0    0    0 -0.00000000000E+00 -0.00000000000E+00 -0.50000000000E+03  0.50000000000E+03  0.00000000000E+00 0.  1.
         23    2    1    2    0    0  0.12509397764E+02 -0.29492831374E+02  0.26137335099E+03  0.27509289143E+03  0.79584911741E+02 0.  0.
        -11    1    1    2    0    0  0.63999012877E+02  0.62404505700E+02  0.21943271094E+03  0.23694073228E+03  0.00000000000E+00 0. -1.
         11    1    1    2    0    0 -0.76508410640E+02 -0.32911674325E+02 -0.48080606193E+03  0.48796637629E+03  0.00000000000E+00 0.  1.
        -15    1    3    3    0    0  0.40622031321E+02  0.27442017948E+01  0.15876496525E+03  0.16391202516E+03  0.17770000000E+01 0.  1.
         15    1    3    3    0    0 -0.28112633557E+02 -0.32237033169E+02  0.10260838573E+03  0.11118086627E+03  0.17770000000E+01 0. -1.
</event>
<event>
 7    1  0.3260141E-006  0.3938895E+03  0.7546771E-02  0.9674630E-01
        -11   -1    0    0    0    0  0.00000000000E+00  0.00000000000E+00  0.50000000000E+03  0.50000000000E+03  0.00000000000E+00 0.  1.
         11   -1    0    0    0    0 -0.00000000000E+00 -0.00000000000E+00 -0.50000000000E+03  0.50000000000E+03  0.00000000000E+00 0. -1.
         23    2    1    2    0    0 -0.71997707856E+01 -0.10056240600E+03  0.33771494308E+03  0.36429742903E+03  0.92177002673E+02 0.  0.
        -11    1    1    2    0    0 -0.62659666019E+02  0.16560708278E+03  0.89188022438E+02  0.19825852557E+03  0.00000000000E+00 0.  1.
         11    1    1    2    0    0  0.69859436805E+02 -0.65044676784E+02 -0.42690296552E+03  0.43744404540E+03  0.00000000000E+00 0. -1.
        -15    1    3    3    0    0 -0.49063380658E+02 -0.66031538494E+02  0.19993739967E+03  0.21620707878E+03  0.17770000000E+01 0.  1.
         15    1    3    3    0    0  0.41863609872E+02 -0.34530867505E+02  0.13777754341E+03  0.14809035026E+03  0.17770000000E+01 0. -1.
</event>
<event>
 7    1  0.3260141E-006  0.5142375E+03  0.7546771E-02  0.9368504E-01
        -11   -1    0    0    0    0  0.00000000000E+00  0.00000000000E+00  0.50000000000E+03  0.50000000000E+03  0.00000000000E+00 0.  1.
         11   -1    0    0    0    0 -0.00000000000E+00 -0.00000000000E+00 -0.50000000000E+03  0.50000000000E+03  0.00000000000E+00 0.  1.
         23    2    1    2    0    0  0.44260192545E+02  0.88935055924E+02  0.33228588784E+03  0.35848024056E+03  0.90695991095E+02 0.  0.
        -11    1    1    2    0    0 -0.61762014510E+02  0.60291645592E+02  0.12965601623E+03  0.15575721977E+03  0.00000000000E+00 0.  1.
         11    1    1    2    0    0  0.17501821965E+02 -0.14922670152E+03 -0.46194190407E+03  0.48576253967E+03  0.00000000000E+00 0.  1.
        -15    1    3    3    0    0  0.43845538764E+02  0.56988584869E+01  0.65828102597E+02  0.79318377934E+02  0.17770000000E+01 0. -1.
         15    1    3    3    0    0  0.41465378140E+00  0.83236197437E+02  0.26645778524E+03  0.27916186263E+03  0.17770000000E+01 0.  1.
</event>
<event>
 7    1  0.3260141E-006  0.5155824E+03  0.7546771E-02  0.9365602E-01
        -11   -1    0    0    0    0  0.00000000000E+00  0.00000000000E+00  0.50000000000E+03  0.50000000000E+03  0.00000000000E+00 0. -1.
         11   -1    0    0    0    0 -0.00000000000E+00 -0.00000000000E+00 -0.50000000000E+03  0.50000000000E+03  0.00000000000E+00 0.  1.
         23    2    1    2    0    0  0.48773697763E+02 -0.10555717047E+02  0.16383682128E+03  0.19421879195E+03  0.91586780600E+02 0.  0.
        -11    1    1    2    0    0  0.17959284380E+03  0.52158632088E+02  0.26134354436E+03  0.32136359568E+03  0.00000000000E+00 0. -1.
         11    1    1    2    0    0 -0.22836654157E+03 -0.41602915041E+02 -0.42518036565E+03  0.48441761238E+03  0.00000000000E+00 0.  1.
        -15    1    3    3    0    0 -0.18909470831E+02  0.10281753076E+02  0.79913015478E+01  0.23028268777E+02  0.17770000000E+01 0. -1.
         15    1    3    3    0    0  0.67683168594E+02 -0.20837470123E+02  0.15584551974E+03  0.17119052317E+03  0.17770000000E+01 0.  1.
</event>
<event>
 7    1  0.3260141E-006  0.3331845E+03  0.7546771E-02  0.9877448E-01
        -11   -1    0    0    0    0  0.00000000000E+00  0.00000000000E+00  0.50000000000E+03  0.50000000000E+03  0.00000000000E+00 0. -1.
         11   -1    0    0    0    0 -0.00000000000E+00 -0.00000000000E+00 -0.50000000000E+03  0.50000000000E+03  0.00000000000E+00 0.  1.
         23    2    1    2    0    0  0.17452052787E+03  0.19865105931E+03 -0.12670633201E+03  0.30738642956E+03  0.92261934166E+02 0.  0.
        -11    1    1    2    0    0  0.13603799324E+02 -0.21848967749E+03  0.34197348504E+03  0.40604022830E+03  0.00000000000E+00 0. -1.
         11    1    1    2    0    0 -0.18812432719E+03  0.19838618185E+02 -0.21526715303E+03  0.28657334214E+03  0.00000000000E+00 0.  1.
        -15    1    3    3    0    0  0.13451287803E+03  0.15652357768E+03 -0.13786520619E+03  0.24820015619E+03  0.17770000000E+01 0. -1.
         15    1    3    3    0    0  0.40007649835E+02  0.42127481630E+02  0.11158874179E+02  0.59186273373E+02  0.17770000000E+01 0.  1.
</event>
<event>
 7    1  0.3260141E-006  0.5371787E+03  0.7546771E-02  0.9320259E-01
        -11   -1    0    0    0    0  0.00000000000E+00  0.00000000000E+00  0.50000000000E+03  0.50000000000E+03  0.00000000000E+00 0. -1.
         11   -1    0    0    0    0 -0.00000000000E+00 -0.00000000000E+00 -0.50000000000E+03  0.50000000000E+03  0.00000000000E+00 0.  1.
         23    2    1    2    0    0  0.54002099767E+02  0.40993955148E+02  0.26757250705E+03  0.29058717264E+03  0.90824706078E+02 0.  0.
        -11    1    1    2    0    0 -0.16457398222E+03  0.80209698285E+02  0.16519432836E+03  0.24659147886E+03  0.00000000000E+00 0. -1.
         11    1    1    2    0    0  0.11057188245E+03 -0.12120365343E+03 -0.43276683541E+03  0.46282134850E+03  0.00000000000E+00 0.  1.
        -15    1    3    3    0    0  0.32515866358E+02  0.66650647290E+02  0.22167202322E+03  0.23375464478E+03  0.17770000000E+01 0. -1.
         15    1    3    3    0    0  0.21486233409E+02 -0.25656692142E+02  0.45900483833E+02  0.56832527859E+02  0.17770000000E+01 0.  1.
</event>
<event>
 7    1  0.3260141E-006  0.3515306E+03  0.7546771E-02  0.9811560E-01
        -11   -1    0    0    0    0  0.00000000000E+00  0.00000000000E+00  0.50000000000E+03  0.50000000000E+03  0.00000000000E+00 0. -1.
         11   -1    0    0    0    0 -0.00000000000E+00 -0.00000000000E+00 -0.50000000000E+03  0.50000000000E+03  0.00000000000E+00 0.  1.
         23    2    1    2    0    0  0.20315537792E+02  0.18682451293E+03 -0.15018754197E+03  0.25692036038E+03  0.90197860880E+02 0.  0.
        -11    1    1    2    0    0 -0.60754314256E+02 -0.10863617617E+03  0.43109407955E+03  0.44870370056E+03  0.00000000000E+00 0. -1.
         11    1    1    2    0    0  0.40438776464E+02 -0.78188336764E+02 -0.28090653757E+03  0.29437593906E+03  0.00000000000E+00 0.  1.
        -15    1    3    3    0    0  0.41671627964E+02  0.44771850873E+02 -0.67732014256E+02  0.91278840330E+02  0.17770000000E+01 0. -1.
         15    1    3    3    0    0 -0.21356090172E+02  0.14205266206E+03 -0.82455527718E+02  0.16564152005E+03  0.17770000000E+01 0.  1.
</event>
<event>
 7    1  0.3260141E-006  0.5472537E+03  0.7546771E-02  0.9299872E-01
        -11   -1    0    0    0    0  0.00000000000E+00  0.00000000000E+00  0.50000000000E+03  0.50000000000E+03  0.00000000000E+00 0.  1.
         11   -1    0    0    0    0 -0.00000000000E+00 -0.00000000000E+00 -0.50000000000E+03  0.50000000000E+03  0.00000000000E+00 0. -1.
         23    2    1    2    0    0 -0.45069746979E+02  0.15408108909E+03 -0.14628815491E+03  0.24907369137E+03  0.12192298946E+03 0.  0.
        -11    1    1    2    0    0  0.72765734045E+02 -0.93586961613E+02  0.43695065407E+03  0.45274633684E+03  0.00000000000E+00 0.  1.
         11    1    1    2    0    0 -0.27695987066E+02 -0.60494127479E+02 -0.29066249915E+03  0.29817997178E+03  0.00000000000E+00 0. -1.
        -15    1    3    3    0    0 -0.85915104067E+02  0.11378199851E+03 -0.89638648921E+02  0.16842206922E+03  0.17770000000E+01 0.  1.
         15    1    3    3    0    0  0.40845357088E+02  0.40299090583E+02 -0.56649505993E+02  0.80651622152E+02  0.17770000000E+01 0. -1.
</event>
<event>
 7    1  0.3260141E-006  0.5159408E+03  0.7546771E-02  0.9364831E-01
        -11   -1    0    0    0    0  0.00000000000E+00  0.00000000000E+00  0.50000000000E+03  0.50000000000E+03  0.00000000000E+00 0.  1.
         11   -1    0    0    0    0 -0.00000000000E+00 -0.00000000000E+00 -0.50000000000E+03  0.50000000000E+03  0.00000000000E+00 0. -1.
         23    2    1    2    0    0  0.99907993948E+02 -0.84458363857E+02 -0.31476647517E+03  0.35323929253E+03  0.92656577833E+02 0.  0.
        -11    1    1    2    0    0 -0.22183502686E+03  0.81457082924E+02  0.42245386386E+03  0.48405919327E+03  0.00000000000E+00 0.  1.
         11    1    1    2    0    0  0.12192703291E+03  0.30012809337E+01 -0.10768738869E+03  0.16270151420E+03  0.00000000000E+00 0. -1.
        -15    1    3    3    0    0  0.43622681370E+02  0.14878050735E+02 -0.90574695903E+02  0.10164264848E+03  0.17770000000E+01 0.  1.
         15    1    3    3    0    0  0.56285312578E+02 -0.99336414592E+02 -0.22419177926E+03  0.25159664404E+03  0.17770000000E+01 0. -1.
</event>
<event>
 7    1  0.3260141E-006  0.3672644E+03  0.7546771E-02  0.9758398E-01
        -11   -1    0    0    0    0  0.00000000000E+00  0.00000000000E+00  0.50000000000E+03  0.50000000000E+03  0.00000000000E+00 0. -1.
         11   -1    0    0    0    0 -0.00000000000E+00 -0.00000000000E+00 -0.50000000000E+03  0.50000000000E+03  0.00000000000E+00 0. -1.
         23    2    1    2    0    0 -0.21249868627E+03  0.36495268476E+02  0.60339096401E+01  0.23445676523E+03  0.91901960863E+02 0.  0.
        -11    1    1    2    0    0  0.34606401963E+03  0.33849359546E+02 -0.28418172320E+03  0.44907163864E+03  0.00000000000E+00 0. -1.
         11    1    1    2    0    0 -0.13356533337E+03 -0.70344628021E+02  0.27814781356E+03  0.31647159613E+03  0.00000000000E+00 0. -1.
        -15    1    3    3    0    0 -0.40716556114E+01 -0.17007066928E+02  0.78654021535E+01  0.19257232017E+02  0.17770000000E+01 0.  1.
         15    1    3    3    0    0 -0.20842703066E+03  0.53502335404E+02 -0.18314925134E+01  0.21519953321E+03  0.17770000000E+01 0. -1.
</event>
<event>
 7    1  0.3260141E-006  0.4834614E+03  0.7546771E-02  0.9437596E-01
        -11   -1    0    0    0    0  0.00000000000E+00  0.00000000000E+00  0.50000000000E+03  0.50000000000E+03  0.00000000000E+00 0. -1.
         11   -1    0    0    0    0 -0.00000000000E+00 -0.00000000000E+00 -0.50000000000E+03  0.50000000000E+03  0.00000000000E+00 0.  1.
         23    2    1    2    0    0  0.12518613369E+03  0.17415440608E+02 -0.43085451560E+03  0.46357672033E+03  0.11529482373E+03 0.  0.
        -11    1    1    2    0    0 -0.14565069883E+03 -0.37176326714E+02  0.46690146112E+03  0.49050298647E+03  0.00000000000E+00 0. -1.
         11    1    1    2    0    0  0.20464565137E+02  0.19760886106E+02 -0.36046945520E+02  0.45920293197E+02  0.00000000000E+00 0.  1.
        -15    1    3    3    0    0 -0.14215334720E+02  0.32139162402E+01 -0.54094002404E+01  0.15646863544E+02  0.17770000000E+01 0. -1.
         15    1    3    3    0    0  0.13940146841E+03  0.14201524368E+02 -0.42544511536E+03  0.44792985679E+03  0.17770000000E+01 0.  1.
</event>
<event>
 7    1  0.6095851E-006  0.5111637E+03  0.7546771E-02  0.9375171E-01
        -11   -1    0    0    0    0  0.00000000000E+00  0.00000000000E+00  0.50000000000E+03  0.50000000000E+03  0.00000000000E+00 0. -1.
         11   -1    0    0    0    0 -0.00000000000E+00 -0.00000000000E+00 -0.50000000000E+03  0.50000000000E+03  0.00000000000E+00 0.  1.
         23    2    1    2    0    0  0.40326069526E+02 -0.11255901362E+02 -0.32365096301E+03  0.33844015560E+03  0.89659945705E+02 0.  0.
        -11    1    1    2    0    0 -0.12507493538E+03 -0.11491409840E+02  0.47242470213E+03  0.48883626210E+03  0.00000000000E+00 0. -1.
         11    1    1    2    0    0  0.84748865854E+02  0.22747311202E+02 -0.14877373912E+03  0.17272358230E+03  0.00000000000E+00 0.  1.
        -15    1    3    3    0    0  0.59134084299E+02 -0.34831327402E+02 -0.23127230263E+03  0.24124696265E+03  0.17770000000E+01 0.  1.
         15    1    3    3    0    0 -0.18808014773E+02  0.23575426041E+02 -0.92378660382E+02  0.97193192949E+02  0.17770000000E+01 0. -1.
</event>
<event>
 7    1  0.3260141E-006  0.4189607E+03  0.7546771E-02  0.9601979E-01
        -11   -1    0    0    0    0  0.00000000000E+00  0.00000000000E+00  0.50000000000E+03  0.50000000000E+03  0.00000000000E+00 0.  1.
         11   -1    0    0    0    0 -0.00000000000E+00 -0.00000000000E+00 -0.50000000000E+03  0.50000000000E+03  0.00000000000E+00 0.  1.
         23    2    1    2    0    0 -0.46189368151E+02  0.62602491815E+02  0.41717103463E+03  0.43378829208E+03  0.89933756186E+02 0.  0.
        -11    1    1    2    0    0 -0.57927732315E+02  0.12791592238E+03 -0.70398148087E+02  0.15707961238E+03  0.00000000000E+00 0.  1.
         11    1    1    2    0    0  0.10411710047E+03 -0.19051841420E+03 -0.34677288654E+03  0.40913209554E+03  0.00000000000E+00 0.  1.
        -15    1    3    3    0    0 -0.40270042589E+02  0.77580655772E+02  0.40264416019E+03  0.41202659131E+03  0.17770000000E+01 0.  1.
         15    1    3    3    0    0 -0.59193255618E+01 -0.14978163957E+02  0.14526874442E+02  0.21761700777E+02  0.17770000000E+01 0. -1.
</event>
<event>
 7    1  0.3260141E-006  0.5318217E+03  0.7546771E-02  0.9331293E-01
        -11   -1    0    0    0    0  0.00000000000E+00  0.00000000000E+00  0.50000000000E+03  0.50000000000E+03  0.00000000000E+00 0. -1.
         11   -1    0    0    0    0 -0.00000000000E+00 -0.00000000000E+00 -0.50000000000E+03  0.50000000000E+03  0.00000000000E+00 0. -1.
         23    2    1    2    0    0 -0.19619560182E+02  0.28467912793E+02 -0.13420778795E+03  0.16610108003E+03  0.91555935027E+02 0.  0.
        -11    1    1    2    0    0 -0.20053623464E+03  0.16702028267E+02  0.42272587523E+03  0.46817828307E+03  0.00000000000E+00 0. -1.
         11    1    1    2    0    0  0.22015579482E+03 -0.45169941059E+02 -0.28851808728E+03  0.36572063690E+03  0.00000000000E+00 0. -1.
        -15    1    3    3    0    0  0.12045268145E+02  0.52999218851E+02 -0.98001671882E+02  0.11207805808E+03  0.17770000000E+01 0. -1.
         15    1    3    3    0    0 -0.31664828327E+02 -0.24531306058E+02 -0.36206116073E+02  0.54023021944E+02  0.17770000000E+01 0.  1.
</event>
<event>
 7    1  0.3260141E-006  0.5363664E+03  0.7546771E-02  0.9321923E-01
        -11   -1    0    0    0    0  0.00000000000E+00  0.00000000000E+00  0.50000000000E+03  0.50000000000E+03  0.00000000000E+00 0. -1.
         11   -1    0    0    0    0 -0.00000000000E+00 -0.00000000000E+00 -0.50000000000E+03  0.50000000000E+03  0.00000000000E+00 0.  1.
         23    2    1    2    0    0 -0.25351672160E+02  0.16080183376E+03  0.26323672295E+03  0.32142392111E+03  0.86716940294E+02 0.  0.
        -11    1    1    2    0    0  0.51315717563E+02 -0.80379152581E+02  0.19262963524E+03  0.21494252118E+03  0.00000000000E+00 0. -1.
         11    1    1    2    0    0 -0.25964045403E+02 -0.80422681175E+02 -0.45586635819E+03  0.46363355771E+03  0.00000000000E+00 0.  1.
        -15    1    3    3    0    0 -0.49360828251E+02  0.95154421892E+02  0.11329532837E+03  0.15598026968E+03  0.17770000000E+01 0. -1.
         15    1    3    3    0    0  0.24009156092E+02  0.65647411865E+02  0.14994139458E+03  0.16544365143E+03  0.17770000000E+01 0.  1.
</event>
<event>
 6    1  0.3260141E-006  0.3553660E+03  0.7546771E-02  0.9798329E-01
        -11   -1    0    0    0    0  0.00000000000E+00  0.00000000000E+00  0.50000000000E+03  0.50000000000E+03  0.00000000000E+00 0. -1.
         11   -1    0    0    0    0 -0.00000000000E+00 -0.00000000000E+00 -0.50000000000E+03  0.50000000000E+03  0.00000000000E+00 0. -1.
        -11    1    1    2    0    0 -0.97552455667E+02  0.10867240531E+02  0.30281429523E+03  0.31832542456E+03  0.00000000000E+00 0. -1.
         11    1    1    2    0    0 -0.73977843884E+02  0.39770339294E+02 -0.41462195131E+03  0.42304345377E+03  0.00000000000E+00 0. -1.
        -15    1    1    2    0    0  0.15536095920E+03  0.21328882958E+02  0.57579519920E+02  0.16706438200E+03  0.17770000000E+01 0. -1.
         15    1    1    2    0    0  0.16169340354E+02 -0.71966462784E+02  0.54228136159E+02  0.91566739668E+02  0.17770000000E+01 0.  1.
</event>
<event>
 7    1  0.3260141E-006  0.5133181E+03  0.7546771E-02  0.9370493E-01
        -11   -1    0    0    0    0  0.00000000000E+00  0.00000000000E+00  0.50000000000E+03  0.50000000000E+03  0.00000000000E+00 0.  1.
         11   -1    0    0    0    0 -0.00000000000E+00 -0.00000000000E+00 -0.50000000000E+03  0.50000000000E+03  0.00000000000E+00 0. -1.
         23    2    1    2    0    0  0.60790956419E+02  0.74903761451E+02  0.33392611704E+03  0.35899768464E+03  0.89814097289E+02 0.  0.
        -11    1    1    2    0    0  0.39589293819E+02 -0.47215120501E+02  0.14148572397E+03  0.15432041303E+03  0.00000000000E+00 0.  1.
         11    1    1    2    0    0 -0.10038025024E+03 -0.27688640951E+02 -0.47541184102E+03  0.48668190233E+03  0.00000000000E+00 0. -1.
        -15    1    3    3    0    0  0.22006426554E+02  0.50941352625E+02  0.61812775687E+02  0.83085986689E+02  0.17770000000E+01 0. -1.
         15    1    3    3    0    0  0.38784529865E+02  0.23962408827E+02  0.27211334136E+03  0.27591169795E+03  0.17770000000E+01 0.  1.
</event>
<event>
 7    1  0.3260141E-006  0.5298554E+03  0.7546771E-02  0.9335377E-01
        -11   -1    0    0    0    0  0.00000000000E+00  0.00000000000E+00  0.50000000000E+03  0.50000000000E+03  0.00000000000E+00 0.  1.
         11   -1    0    0    0    0 -0.00000000000E+00 -0.00000000000E+00 -0.50000000000E+03  0.50000000000E+03  0.00000000000E+00 0. -1.
         23    2    1    2    0    0  0.18789331612E+03  0.82818539899E+02  0.16415571522E+03  0.27848703056E+03  0.91897326172E+02 0.  0.
        -11    1    1    2    0    0 -0.94084551508E+01  0.10286380543E+03  0.22916496386E+03  0.25136837939E+03  0.00000000000E+00 0.  1.
         11    1    1    2    0    0 -0.17848486097E+03 -0.18568234533E+03 -0.39332067908E+03  0.47014459005E+03  0.00000000000E+00 0. -1.
        -15    1    3    3    0    0 -0.37540230507E+01  0.22724722712E+02  0.94556918011E+01  0.24961441221E+02  0.17770000000E+01 0.  1.
         15    1    3    3    0    0  0.19164733917E+03  0.60093817187E+02  0.15470002342E+03  0.25352558934E+03  0.17770000000E+01 0. -1.
</event>
<event>
 7    1  0.3260141E-006  0.5145455E+03  0.7546771E-02  0.9367839E-01
        -11   -1    0    0    0    0  0.00000000000E+00  0.00000000000E+00  0.50000000000E+03  0.50000000000E+03  0.00000000000E+00 0.  1.
         11   -1    0    0    0    0 -0.00000000000E+00 -0.00000000000E+00 -0.50000000000E+03  0.50000000000E+03  0.00000000000E+00 0.  1.
         23    2    1    2    0    0  0.80337452886E+02 -0.96367201112E+01 -0.24746807051E+03  0.27404806729E+03  0.85527332209E+02 0.  0.
        -11    1    1    2    0    0 -0.69827880013E+02  0.10109121382E+03  0.46964958567E+03  0.48545452893E+03  0.00000000000E+00 0.  1.
         11    1    1    2    0    0 -0.10509572873E+02 -0.91454493711E+02 -0.22218151516E+03  0.24049740377E+03  0.00000000000E+00 0.  1.
        -15    1    3    3    0    0  0.65480880323E+02  0.32285970387E+02 -0.16129071781E+03  0.17705361604E+03  0.17770000000E+01 0.  1.
         15    1    3    3    0    0  0.14856572563E+02 -0.41922690498E+02 -0.86177352694E+02  0.96994451250E+02  0.17770000000E+01 0. -1.
</event>
<event>
 7    1  0.3260141E-006  0.5065847E+03  0.7546771E-02  0.9385195E-01
        -11   -1    0    0    0    0  0.00000000000E+00  0.00000000000E+00  0.50000000000E+03  0.50000000000E+03  0.00000000000E+00 0.  1.
         11   -1    0    0    0    0 -0.00000000000E+00 -0.00000000000E+00 -0.50000000000E+03  0.50000000000E+03  0.00000000000E+00 0.  1.
         23    2    1    2    0    0 -0.48610768368E+02  0.87601609112E+02 -0.32284319591E+03  0.35044472869E+03  0.92448526228E+02 0.  0.
        -11    1    1    2    0    0  0.86764362776E+02 -0.13615772993E+03  0.46625277133E+03  0.49341527017E+03  0.00000000000E+00 0.  1.
         11    1    1    2    0    0 -0.38153594408E+02  0.48556120818E+02 -0.14340957542E+03  0.15614000114E+03  0.00000000000E+00 0.  1.
        -15    1    3    3    0    0 -0.42950359880E+02 -0.46298616724E+01 -0.11957933920E+03  0.12715559416E+03  0.17770000000E+01 0.  1.
         15    1    3    3    0    0 -0.56604084880E+01  0.92231470785E+02 -0.20326385671E+03  0.22328913453E+03  0.17770000000E+01 0. -1.
</event>
<event>
 7    1  0.3260141E-006  0.5347065E+03  0.7546771E-02  0.9325334E-01
        -11   -1    0    0    0    0  0.00000000000E+00  0.00000000000E+00  0.50000000000E+03  0.50000000000E+03  0.00000000000E+00 0.  1.
         11   -1    0    0    0    0 -0.00000000000E+00 -0.00000000000E+00 -0.50000000000E+03  0.50000000000E+03  0.00000000000E+00 0. -1.
         23    2    1    2    0    0 -0.93076951094E+02 -0.10730795992E+02  0.18786990815E+03  0.24295495659E+03  0.12228466680E+03 0.  0.
        -11    1    1    2    0    0  0.73389103861E+02 -0.10324459832E+03  0.26281849109E+03  0.29175154996E+03  0.00000000000E+00 0.  1.
         11    1    1    2    0    0  0.19687847233E+02  0.11397539431E+03 -0.45068839924E+03  0.46529349345E+03  0.00000000000E+00 0. -1.
        -15    1    3    3    0    0 -0.25840662336E+01 -0.45845225381E+02  0.22432289971E+02  0.51135383551E+02  0.17770000000E+01 0.  1.
         15    1    3    3    0    0 -0.90492884861E+02  0.35114429390E+02  0.16543761818E+03  0.19181957304E+03  0.17770000000E+01 0. -1.
</event>
<event>
 7    1  0.3260141E-006  0.5153683E+03  0.7546771E-02  0.9366064E-01
        -11   -1    0    0    0    0  0.00000000000E+00  0.00000000000E+00  0.50000000000E+03  0.50000000000E+03  0.00000000000E+00 0.  1.
         11   -1    0    0    0    0 -0.00000000000E+00 -0.00000000000E+00 -0.50000000000E+03  0.50000000000E+03  0.00000000000E+00 0. -1.
         23    2    1    2    0    0 -0.21253040818E+01  0.18509159844E+02  0.25130613442E+03  0.26789698088E+03  0.90922567353E+02 0.  0.
        -11    1    1    2    0    0  0.85992889392E+02 -0.59734312313E+02  0.22422998699E+03  0.24747131583E+03  0.00000000000E+00 0.  1.
         11    1    1    2    0    0 -0.83867585310E+02  0.41225152469E+02 -0.47553612141E+03  0.48463170328E+03  0.00000000000E+00 0. -1.
        -15    1    3    3    0    0  0.14247292345E+02  0.45623158758E+02  0.76394437146E+02  0.90131713120E+02  0.17770000000E+01 0. -1.
         15    1    3    3    0    0 -0.16372596427E+02 -0.27113998913E+02  0.17491169727E+03  0.17776526776E+03  0.17770000000E+01 0.  1.
</event>
<event>
 7    1  0.3260141E-006  0.3918751E+03  0.7546771E-02  0.9680716E-01
        -11   -1    0    0    0    0  0.00000000000E+00  0.00000000000E+00  0.50000000000E+03  0.50000000000E+03  0.00000000000E+00 0.  1.
         11   -1    0    0    0    0 -0.00000000000E+00 -0.00000000000E+00 -0.50000000000E+03  0.50000000000E+03  0.00000000000E+00 0. -1.
         23    2    1    2    0    0  0.62516990992E+02  0.16734540885E+03 -0.27496208657E+01  0.19614370000E+03  0.80943996741E+02 0.  0.
        -11    1    1    2    0    0 -0.85512796697E+02 -0.10768408511E+03  0.38887606630E+03  0.41247169057E+03  0.00000000000E+00 0.  1.
         11    1    1    2    0    0  0.22995805704E+02 -0.59661323745E+02 -0.38612644543E+03  0.39138460942E+03  0.00000000000E+00 0. -1.
        -15    1    3    3    0    0  0.62135139966E+02  0.15282737865E+03  0.22947136316E+02  0.16657344350E+03  0.17770000000E+01 0.  1.
         15    1    3    3    0    0  0.38185102607E+00  0.14518030203E+02 -0.25696757182E+02  0.29570256506E+02  0.17770000000E+01 0. -1.
</event>
<event>
 7    1  0.3260141E-006  0.4002564E+03  0.7546771E-02  0.9655644E-01
        -11   -1    0    0    0    0  0.00000000000E+00  0.00000000000E+00  0.50000000000E+03  0.50000000000E+03  0.00000000000E+00 0. -1.
         11   -1    0    0    0    0 -0.00000000000E+00 -0.00000000000E+00 -0.50000000000E+03  0.50000000000E+03  0.00000000000E+00 0. -1.
         23    2    1    2    0    0  0.10564659071E+03  0.62001938175E+02  0.35591034538E+03  0.38635348791E+03  0.87128647429E+02 0.  0.
        -11    1    1    2    0    0 -0.17504525548E+03 -0.21468551687E+02  0.62866902616E+02  0.18722710173E+03  0.00000000000E+00 0. -1.
         11    1    1    2    0    0  0.69398664771E+02 -0.40533386487E+02 -0.41877724800E+03  0.42641941036E+03  0.00000000000E+00 0. -1.
        -15    1    3    3    0    0  0.14467958590E+01 -0.14949024974E+02  0.81625828265E+02  0.83015059687E+02  0.17770000000E+01 0.  1.
         15    1    3    3    0    0  0.10419979485E+03  0.76950963148E+02  0.27428451712E+03  0.30333842822E+03  0.17770000000E+01 0. -1.
</event>
<event>
 7    1  0.3260141E-006  0.4064785E+03  0.7546771E-02  0.9637450E-01
        -11   -1    0    0    0    0  0.00000000000E+00  0.00000000000E+00  0.50000000000E+03  0.50000000000E+03  0.00000000000E+00 0. -1.
         11   -1    0    0    0    0 -0.00000000000E+00 -0.00000000000E+00 -0.50000000000E+03  0.50000000000E+03  0.00000000000E+00 0.  1.
         23    2    1    2    0    0  0.56556630864E+02  0.34475395738E+02  0.44556755961E+03  0.45944151178E+03  0.90381674939E+02 0.  0.
        -11    1    1    2    0    0 -0.79486592588E+02 -0.12709830975E+03 -0.95553347359E+02  0.17777103513E+03  0.00000000000E+00 0. -1.
         11    1    1    2    0    0  0.22929961724E+02  0.92622914008E+02 -0.35001421225E+03  0.36278745309E+03  0.00000000000E+00 0.  1.
        -15    1    3    3    0    0  0.74913935727E+02  0.76770663115E+01  0.36223229588E+03  0.36998166039E+03  0.17770000000E+01 0. -1.
         15    1    3    3    0    0 -0.18357304863E+02  0.26798329426E+02  0.83335263724E+02  0.89459851391E+02  0.17770000000E+01 0.  1.
</event>
<event>
 7    1  0.3260141E-006  0.4432634E+03  0.7546771E-02  0.9536557E-01
        -11   -1    0    0    0    0  0.00000000000E+00  0.00000000000E+00  0.50000000000E+03  0.50000000000E+03  0.00000000000E+00 0.  1.
         11   -1    0    0    0    0 -0.00000000000E+00 -0.00000000000E+00 -0.50000000000E+03  0.50000000000E+03  0.00000000000E+00 0.  1.
         23    2    1    2    0    0  0.20773728696E+02 -0.80076620743E+02  0.42923246163E+03  0.44689295462E+03  0.92892377400E+02 0.  0.
        -11    1    1    2    0    0  0.88607492539E+02  0.11408861433E+03 -0.41285157135E+03  0.43739446683E+03  0.00000000000E+00 0.  1.
         11    1    1    2    0    0 -0.10938122123E+03 -0.34011993588E+02 -0.16380890285E+02  0.11571257854E+03  0.00000000000E+00 0.  1.
        -15    1    3    3    0    0  0.48325060767E+02 -0.83526919237E+02  0.32774994041E+03  0.34166539027E+03  0.17770000000E+01 0.  1.
         15    1    3    3    0    0 -0.27551332071E+02  0.34502984941E+01  0.10148252122E+03  0.10522756436E+03  0.17770000000E+01 0. -1.
</event>
<event>
 7    1  0.3260141E-006  0.5239316E+03  0.7546771E-02  0.9347798E-01
        -11   -1    0    0    0    0  0.00000000000E+00  0.00000000000E+00  0.50000000000E+03  0.50000000000E+03  0.00000000000E+00 0.  1.
         11   -1    0    0    0    0 -0.00000000000E+00 -0.00000000000E+00 -0.50000000000E+03  0.50000000000E+03  0.00000000000E+00 0. -1.
         23    2    1    2    0    0 -0.35857492853E+02  0.29821039759E+02  0.18714362974E+03  0.21455878383E+03  0.94008932340E+02 0.  0.
        -11    1    1    2    0    0 -0.88768799709E+02  0.22022274100E+03  0.19832691813E+03  0.30937278793E+03  0.00000000000E+00 0.  1.
         11    1    1    2    0    0  0.12462629256E+03 -0.25004378076E+03 -0.38547054787E+03  0.47606842824E+03  0.00000000000E+00 0. -1.
        -15    1    3    3    0    0  0.28725272880E+02 -0.82144877090E+01  0.50746592612E+02  0.58915138132E+02  0.17770000000E+01 0.  1.
         15    1    3    3    0    0 -0.64582765733E+02  0.38035527468E+02  0.13639703712E+03  0.15564364569E+03  0.17770000000E+01 0. -1.
</event>
<event>
 7    1  0.3260141E-006  0.3734980E+03  0.7546771E-02  0.9738119E-01
        -11   -1    0    0    0    0  0.00000000000E+00  0.00000000000E+00  0.50000000000E+03  0.50000000000E+03  0.00000000000E+00 0.  1.
         11   -1    0    0    0    0 -0.00000000000E+00 -0.00000000000E+00 -0.50000000000E+03  0.50000000000E+03  0.00000000000E+00 0. -1.
         23    2    1    2    0    0 -0.85992565828E+02 -0.75193187466E+02  0.29586819806E+03  0.32986161092E+03  0.90674996114E+02 0.  0.
        -11    1    1    2    0    0  0.16615788816E+03  0.77588487965E+02  0.13763076617E+03  0.22928289308E+03  0.00000000000E+00 0.  1.
         11    1    1    2    0    0 -0.80165322331E+02 -0.23953004987E+01 -0.43349896422E+03  0.44085549600E+03  0.00000000000E+00 0. -1.
        -15    1    3    3    0    0 -0.10955783074E+02  0.21000311560E+02  0.44283117211E+02  0.50251313091E+02  0.17770000000E+01 0. -1.
         15    1    3    3    0    0 -0.75036782754E+02 -0.96193499026E+02  0.25158508085E+03  0.27961029783E+03  0.17770000000E+01 0.  1.
</event>
<event>
 7    1  0.3260141E-006  0.3301697E+03  0.7546771E-02  0.9888711E-01
        -11   -1    0    0    0    0  0.00000000000E+00  0.00000000000E+00  0.50000000000E+03  0.50000000000E+03  0.00000000000E+00 0. -1.
         11   -1    0    0    0    0 -0.00000000000E+00 -0.00000000000E+00 -0.50000000000E+03  0.50000000000E+03  0.00000000000E+00 0. -1.
         23    2    1    2    0    0  0.14527248715E+03  0.19990352686E+03  0.28447378691E+03  0.38718087918E+03  0.88984168182E+02 0.  0.
        -11    1    1    2    0    0 -0.18384652168E+03 -0.26535130126E+03 -0.46335819443E+01  0.32285031624E+03  0.00000000000E+00 0. -1.
         11    1    1    2    0    0  0.38574034534E+02  0.65447774398E+02 -0.27984020497E+03  0.28996880458E+03  0.00000000000E+00 0. -1.
        -15    1    3    3    0    0  0.44488268858E+01  0.14413049163E+02 -0.46844932190E+01  0.15894346559E+02  0.17770000000E+01 0.  1.
         15    1    3    3    0    0  0.14082366026E+03  0.18549047770E+03  0.28915828013E+03  0.37128653262E+03  0.17770000000E+01 0. -1.
</event>
<event>
 7    1  0.3260141E-006  0.4675422E+03  0.7546771E-02  0.9475517E-01
        -11   -1    0    0    0    0  0.00000000000E+00  0.00000000000E+00  0.50000000000E+03  0.50000000000E+03  0.00000000000E+00 0.  1.
         11   -1    0    0    0    0 -0.00000000000E+00 -0.00000000000E+00 -0.50000000000E+03  0.50000000000E+03  0.00000000000E+00 0.  1.
         23    2    1    2    0    0  0.12468204084E+03  0.29878109878E+02 -0.42127341897E+03  0.44938616780E+03  0.89656687004E+02 0.  0.
        -11    1    1    2    0    0 -0.96076597853E+02 -0.79299342159E+02  0.46327213455E+03  0.47972926633E+03  0.00000000000E+00 0.  1.
         11    1    1    2    0    0 -0.28605442982E+02  0.49421232281E+02 -0.41998715576E+02  0.70884565869E+02  0.00000000000E+00 0.  1.
        -15    1    3    3    0    0  0.12816308401E+03  0.48271485978E+02 -0.35528813024E+03  0.38077385110E+03  0.17770000000E+01 0.  1.
         15    1    3    3    0    0 -0.34810431702E+01 -0.18393376101E+02 -0.65985288731E+02  0.68612316706E+02  0.17770000000E+01 0. -1.
</event>
<event>
 7    1  0.3260141E-006  0.5216421E+03  0.7546771E-02  0.9352645E-01
        -11   -1    0    0    0    0  0.00000000000E+00  0.00000000000E+00  0.50000000000E+03  0.50000000000E+03  0.00000000000E+00 0. -1.
         11   -1    0    0    0    0 -0.00000000000E+00 -0.00000000000E+00 -0.50000000000E+03  0.50000000000E+03  0.00000000000E+00 0. -1.
         23    2    1    2    0    0 -0.49496237354E+01  0.10364280133E+03  0.33464632363E+03  0.36549616735E+03  0.10408149397E+03 0.  0.
        -11    1    1    2    0    0 -0.10542993088E+03  0.30031048154E+02  0.11119443659E+03  0.15614588342E+03  0.00000000000E+00 0. -1.
         11    1    1    2    0    0  0.11037955462E+03 -0.13367384948E+03 -0.44584076022E+03  0.47835794923E+03  0.00000000000E+00 0. -1.
        -15    1    3    3    0    0 -0.27800645693E+02  0.30766704316E+02  0.29469647924E+02  0.50902690235E+02  0.17770000000E+01 0.  1.
         15    1    3    3    0    0  0.22851021958E+02  0.72876097011E+02  0.30517667571E+03  0.31459347712E+03  0.17770000000E+01 0. -1.
</event>
<event>
 7    1  0.3260141E-006  0.4211800E+03  0.7546771E-02  0.9595811E-01
        -11   -1    0    0    0    0  0.00000000000E+00  0.00000000000E+00  0.50000000000E+03  0.50000000000E+03  0.00000000000E+00 0.  1.
         11   -1    0    0    0    0 -0.00000000000E+00 -0.00000000000E+00 -0.50000000000E+03  0.50000000000E+03  0.00000000000E+00 0.  1.
         23    2    1    2    0    0 -0.68681502209E+02 -0.57182452820E+02  0.42613432016E+03  0.44467515213E+03  0.90324694558E+02 0.  0.
        -11    1    1    2    0    0  0.86203594322E+02  0.12329427923E+03 -0.30093232433E+02  0.15342145092E+03  0.00000000000E+00 0.  1.
         11    1    1    2    0    0 -0.17522092113E+02 -0.66111826410E+02 -0.39604108773E+03  0.40190339694E+03  0.00000000000E+00 0.  1.
        -15    1    3    3    0    0 -0.83598036908E+02 -0.68529569198E+02  0.35554583507E+03  0.37161933775E+03  0.17770000000E+01 0.  1.
         15    1    3    3    0    0  0.14916534699E+02  0.11347116378E+02  0.70588485096E+02  0.73055814380E+02  0.17770000000E+01 0. -1.
</event>
<event>
 7    1  0.3260141E-006  0.5085471E+03  0.7546771E-02  0.9380885E-01
        -11   -1    0    0    0    0  0.00000000000E+00  0.00000000000E+00  0.50000000000E+03  0.50000000000E+03  0.00000000000E+00 0.  1.
         11   -1    0    0    0    0 -0.00000000000E+00 -0.00000000000E+00 -0.50000000000E+03  0.50000000000E+03  0.00000000000E+00 0.  1.
         23    2    1    2    0    0 -0.23722297781E+02  0.53971617668E+02  0.27180287156E+03  0.29277874984E+03  0.91470828386E+02 0.  0.
        -11    1    1    2    0    0 -0.19161911524E+02  0.83136521475E+02  0.19818459921E+03  0.21576838374E+03  0.00000000000E+00 0.  1.
         11    1    1    2    0    0  0.42884209305E+02 -0.13710813914E+03 -0.46998747077E+03  0.49145286642E+03  0.00000000000E+00 0.  1.
        -15    1    3    3    0    0  0.14698777174E+02 -0.52687108217E+01  0.45655865650E+01  0.16365074818E+02  0.17770000000E+01 0. -1.
         15    1    3    3    0    0 -0.38421074954E+02  0.59240328490E+02  0.26723728499E+03  0.27641367502E+03  0.17770000000E+01 0.  1.
</event>
<event>
 7    1  0.3260141E-006  0.4475731E+03  0.7546771E-02  0.9525422E-01
        -11   -1    0    0    0    0  0.00000000000E+00  0.00000000000E+00  0.50000000000E+03  0.50000000000E+03  0.00000000000E+00 0.  1.
         11   -1    0    0    0    0 -0.00000000000E+00 -0.00000000000E+00 -0.50000000000E+03  0.50000000000E+03  0.00000000000E+00 0. -1.
         23    2    1    2    0    0  0.12494034996E+03 -0.21777085428E+01  0.43867479156E+03  0.46506717610E+03  0.90758316863E+02 0.  0.
        -11    1    1    2    0    0 -0.80872151928E+02 -0.68290560907E+02 -0.19540014108E+02  0.10763697235E+03  0.00000000000E+00 0.  1.
         11    1    1    2    0    0 -0.44068198034E+02  0.70468269450E+02 -0.41913477745E+03  0.42729585154E+03  0.00000000000E+00 0. -1.
        -15    1    3    3    0    0  0.66007553074E+02 -0.37240341307E+02  0.31127340128E+03  0.32037185919E+03  0.17770000000E+01 0.  1.
         15    1    3    3    0    0  0.58932796888E+02  0.35062632764E+02  0.12740139027E+03  0.14469531692E+03  0.17770000000E+01 0. -1.
</event>
<event>
 7    1  0.3260141E-006  0.5294169E+03  0.7546771E-02  0.9336291E-01
        -11   -1    0    0    0    0  0.00000000000E+00  0.00000000000E+00  0.50000000000E+03  0.50000000000E+03  0.00000000000E+00 0.  1.
         11   -1    0    0    0    0 -0.00000000000E+00 -0.00000000000E+00 -0.50000000000E+03  0.50000000000E+03  0.00000000000E+00 0. -1.
         23    2    1    2    0    0 -0.28990693167E+02  0.27241777098E+02  0.25668575224E+03  0.27466260285E+03  0.89271469644E+02 0.  0.
        -11    1    1    2    0    0  0.13256731712E+03  0.12958740011E+03  0.17473626001E+03  0.25475429024E+03  0.00000000000E+00 0.  1.
         11    1    1    2    0    0 -0.10357662395E+03 -0.15682917721E+03 -0.43142201225E+03  0.47058310691E+03  0.00000000000E+00 0. -1.
        -15    1    3    3    0    0 -0.15021638357E+02  0.39706219049E+02  0.25162583714E+03  0.25518807396E+03  0.17770000000E+01 0.  1.
         15    1    3    3    0    0 -0.13969054810E+02 -0.12464441951E+02  0.50599151003E+01  0.19474528884E+02  0.17770000000E+01 0. -1.
</event>
<event>
 6    1  0.3260141E-006  0.5195744E+03  0.7546771E-02  0.9357045E-01
        -11   -1    0    0    0    0  0.00000000000E+00  0.00000000000E+00  0.50000000000E+03  0.50000000000E+03  0.00000000000E+00 0. -1.
         11   -1    0    0    0    0 -0.00000000000E+00 -0.00000000000E+00 -0.50000000000E+03  0.50000000000E+03  0.00000000000E+00 0.  1.
        -11    1    1    2    0    0 -0.23689531324E+02  0.65916522138E+02  0.12660827475E+03  0.14469221479E+03  0.00000000000E+00 0. -1.
         11    1    1    2    0    0 -0.41002015349E+02 -0.81322197501E+02 -0.47171417849E+03  0.48042557307E+03  0.00000000000E+00 0.  1.
        -15    1    1    2    0    0  0.47483514707E+02 -0.39332644936E+02  0.28565312704E+03  0.29223724582E+03  0.17770000000E+01 0. -1.
         15    1    1    2    0    0  0.17208031966E+02  0.54738320299E+02  0.59452776697E+02  0.82644966327E+02  0.17770000000E+01 0.  1.
</event>
<event>
 7    1  0.3260141E-006  0.5157199E+03  0.7546771E-02  0.9365306E-01
        -11   -1    0    0    0    0  0.00000000000E+00  0.00000000000E+00  0.50000000000E+03  0.50000000000E+03  0.00000000000E+00 0.  1.
         11   -1    0    0    0    0 -0.00000000000E+00 -0.00000000000E+00 -0.50000000000E+03  0.50000000000E+03  0.00000000000E+00 0. -1.
         23    2    1    2    0    0 -0.49180161575E+02  0.12842124459E+03 -0.14415458694E+03  0.21910948281E+03  0.91201514064E+02 0.  0.
        -11    1    1    2    0    0  0.77905820477E+01 -0.27392773381E+03  0.39928696202E+03  0.48428005798E+03  0.00000000000E+00 0.  1.
         11    1    1    2    0    0  0.41389579527E+02  0.14550648922E+03 -0.25513237508E+03  0.29661045921E+03  0.00000000000E+00 0. -1.
        -15    1    3    3    0    0 -0.20852055175E+02  0.13422876354E+03 -0.11472421181E+03  0.17781161849E+03  0.17770000000E+01 0.  1.
         15    1    3    3    0    0 -0.28328106400E+02 -0.58075189425E+01 -0.29430375127E+02  0.41297864322E+02  0.17770000000E+01 0. -1.
</event>
<event>
 7    1  0.3260141E-006  0.3787951E+03  0.7546771E-02  0.9721217E-01
        -11   -1    0    0    0    0  0.00000000000E+00  0.00000000000E+00  0.50000000000E+03  0.50000000000E+03  0.00000000000E+00 0.  1.
         11   -1    0    0    0    0 -0.00000000000E+00 -0.00000000000E+00 -0.50000000000E+03  0.50000000000E+03  0.00000000000E+00 0. -1.
         23    2    1    2    0    0  0.20944779956E+03 -0.14889532723E+03  0.28735328510E+03  0.39596002633E+03  0.90411463780E+02 0.  0.
        -11    1    1    2    0    0 -0.10627410490E+03  0.17672049932E+03  0.80205327518E+02  0.22126277322E+03  0.00000000000E+00 0.  1.
         11    1    1    2    0    0 -0.10317369466E+03 -0.27825172087E+02 -0.36755861262E+03  0.38277720045E+03  0.00000000000E+00 0. -1.
        -15    1    3    3    0    0  0.18314897687E+03 -0.14952489926E+03  0.21737552082E+03  0.32117988419E+03  0.17770000000E+01 0.  1.
         15    1    3    3    0    0  0.26298822689E+02  0.62957203217E+00  0.69977764283E+02  0.74780142143E+02  0.17770000000E+01 0. -1.
</event>
<event>
 7    1  0.3260141E-006  0.4649215E+03  0.7546771E-02  0.9481914E-01
        -11   -1    0    0    0    0  0.00000000000E+00  0.00000000000E+00  0.50000000000E+03  0.50000000000E+03  0.00000000000E+00 0.  1.
         11   -1    0    0    0    0 -0.00000000000E+00 -0.00000000000E+00 -0.50000000000E+03  0.50000000000E+03  0.00000000000E+00 0. -1.
         23    2    1    2    0    0 -0.17441845881E+01  0.70676764777E+02  0.43056186289E+03  0.44426497886E+03  0.83603865973E+02 0.  0.
        -11    1    1    2    0    0  0.44229038016E+02  0.50339496234E+02  0.33044701491E+02  0.74714289005E+02  0.00000000000E+00 0.  1.
         11    1    1    2    0    0 -0.42484853428E+02 -0.12101626101E+03 -0.46360656439E+03  0.48102073213E+03  0.00000000000E+00 0. -1.
        -15    1    3    3    0    0 -0.29129087592E+02 -0.41670671106E+01  0.10232603384E+03  0.10648776043E+03  0.17770000000E+01 0. -1.
         15    1    3    3    0    0  0.27384903003E+02  0.74843831888E+02  0.32823582906E+03  0.33777721843E+03  0.17770000000E+01 0.  1.
</event>
<event>
 6    1  0.3260141E-006  0.5381265E+03  0.7546771E-02  0.9318321E-01
        -11   -1    0    0    0    0  0.00000000000E+00  0.00000000000E+00  0.50000000000E+03  0.50000000000E+03  0.00000000000E+00 0.  1.
         11   -1    0    0    0    0 -0.00000000000E+00 -0.00000000000E+00 -0.50000000000E+03  0.50000000000E+03  0.00000000000E+00 0. -1.
        -11    1    1    2    0    0  0.97879491154E+02  0.41169384702E+02  0.17723454117E+03  0.20660928248E+03  0.00000000000E+00 0.  1.
         11    1    1    2    0    0 -0.12343412706E+03  0.49121940073E+02 -0.44235527602E+03  0.46187350968E+03  0.00000000000E+00 0. -1.
        -15    1    1    2    0    0 -0.71694213490E+02 -0.68887022867E+02  0.13274461596E+03  0.16586070349E+03  0.17770000000E+01 0.  1.
         15    1    1    2    0    0  0.97248849398E+02 -0.21404301908E+02  0.13237611889E+03  0.16565650435E+03  0.17770000000E+01 0. -1.
</event>
<event>
 7    1  0.3260141E-006  0.3746436E+03  0.7546771E-02  0.9734438E-01
        -11   -1    0    0    0    0  0.00000000000E+00  0.00000000000E+00  0.50000000000E+03  0.50000000000E+03  0.00000000000E+00 0. -1.
         11   -1    0    0    0    0 -0.00000000000E+00 -0.00000000000E+00 -0.50000000000E+03  0.50000000000E+03  0.00000000000E+00 0. -1.
         23    2    1    2    0    0 -0.11255295146E+03  0.28377926831E+02  0.32463272588E+03  0.35643729417E+03  0.90485713503E+02 0.  0.
        -11    1    1    2    0    0  0.19691349823E+03 -0.81989612804E+02  0.79210477794E+02  0.22753356277E+03  0.00000000000E+00 0. -1.
         11    1    1    2    0    0 -0.84360546767E+02  0.53611685973E+02 -0.40384320367E+03  0.41602914306E+03  0.00000000000E+00 0. -1.
        -15    1    3    3    0    0 -0.60848715958E+02 -0.15482858773E+02  0.23944416744E+03  0.24754585878E+03  0.17770000000E+01 0. -1.
         15    1    3    3    0    0 -0.51704235507E+02  0.43860785604E+02  0.85188558444E+02  0.10889143539E+03  0.17770000000E+01 0.  1.
</event>
<event>
 7    1  0.3260141E-006  0.5132137E+03  0.7546771E-02  0.9370719E-01
        -11   -1    0    0    0    0  0.00000000000E+00  0.00000000000E+00  0.50000000000E+03  0.50000000000E+03  0.00000000000E+00 0.  1.
         11   -1    0    0    0    0 -0.00000000000E+00 -0.00000000000E+00 -0.50000000000E+03  0.50000000000E+03  0.00000000000E+00 0. -1.
         23    2    1    2    0    0  0.72929790089E+02 -0.67049992422E+02 -0.31073722688E+03  0.34032138419E+03  0.97193439106E+02 0.  0.
        -11    1    1    2    0    0 -0.12431949384E+03  0.23776692350E+02  0.47004281107E+03  0.48678631029E+03  0.00000000000E+00 0.  1.
         11    1    1    2    0    0  0.51389703748E+02  0.43273300072E+02 -0.15930558419E+03  0.17289230551E+03  0.00000000000E+00 0. -1.
        -15    1    3    3    0    0  0.36934829061E+02 -0.28551308731E+02 -0.31967834287E+02  0.56607941016E+02  0.17770000000E+01 0.  1.
         15    1    3    3    0    0  0.35994961028E+02 -0.38498683691E+02 -0.27876939259E+03  0.28371344318E+03  0.17770000000E+01 0. -1.
</event>
<event>
 7    1  0.3260141E-006  0.5200603E+03  0.7546771E-02  0.9356009E-01
        -11   -1    0    0    0    0  0.00000000000E+00  0.00000000000E+00  0.50000000000E+03  0.50000000000E+03  0.00000000000E+00 0.  1.
         11   -1    0    0    0    0 -0.00000000000E+00 -0.00000000000E+00 -0.50000000000E+03  0.50000000000E+03  0.00000000000E+00 0. -1.
         23    2    1    2    0    0 -0.43008015772E+02 -0.13372324361E+02  0.37264687035E+03  0.38927582942E+03  0.10315751505E+03 0.  0.
        -11    1    1    2    0    0 -0.40446096512E+01 -0.91545170239E+02  0.93315038862E+02  0.13078445450E+03  0.00000000000E+00 0.  1.
         11    1    1    2    0    0  0.47052625423E+02  0.10491749460E+03 -0.46596190921E+03  0.47993971608E+03  0.00000000000E+00 0. -1.
        -15    1    3    3    0    0 -0.61616674276E+02 -0.44652415973E+02  0.25372951793E+03  0.26490050735E+03  0.17770000000E+01 0.  1.
         15    1    3    3    0    0  0.18608658504E+02  0.31280091612E+02  0.11891735242E+03  0.12437532207E+03  0.17770000000E+01 0. -1.
</event>
<event>
 7    1  0.3260141E-006  0.5258659E+03  0.7546771E-02  0.9343723E-01
        -11   -1    0    0    0    0  0.00000000000E+00  0.00000000000E+00  0.50000000000E+03  0.50000000000E+03  0.00000000000E+00 0.  1.
         11   -1    0    0    0    0 -0.00000000000E+00 -0.00000000000E+00 -0.50000000000E+03  0.50000000000E+03  0.00000000000E+00 0. -1.
         23    2    1    2    0    0 -0.25288168036E+02  0.34230378223E+03  0.31522573822E+03  0.47413413351E+03  0.87318610581E+02 0.  0.
        -11    1    1    2    0    0 -0.38968215679E+02 -0.19812051444E+03 -0.35987351829E+02  0.20509838997E+03  0.00000000000E+00 0.  1.
         11    1    1    2    0    0  0.64256383715E+02 -0.14418326779E+03 -0.27923838639E+03  0.32076747652E+03  0.00000000000E+00 0. -1.
        -15    1    3    3    0    0 -0.12591596166E+02  0.33725303539E+03  0.28821680884E+03  0.44381329948E+03  0.17770000000E+01 0.  1.
         15    1    3    3    0    0 -0.12696571870E+02  0.50507468424E+01  0.27008929381E+02  0.30320834029E+02  0.17770000000E+01 0. -1.
</event>
<event>
 7    1  0.3260141E-006  0.5076423E+03  0.7546771E-02  0.9382870E-01
        -11   -1    0    0    0    0  0.00000000000E+00  0.00000000000E+00  0.50000000000E+03  0.50000000000E+03  0.00000000000E+00 0. -1.
         11   -1    0    0    0    0 -0.00000000000E+00 -0.00000000000E+00 -0.50000000000E+03  0.50000000000E+03  0.00000000000E+00 0. -1.
         23    2    1    2    0    0  0.56407946615E+01  0.15780453373E+03 -0.29570318123E+03  0.34818700403E+03  0.94126133227E+02 0.  0.
        -11    1    1    2    0    0 -0.85255345258E+01 -0.20229334276E+03  0.44879929632E+03  0.49235768465E+03  0.00000000000E+00 0. -1.
         11    1    1    2    0    0  0.28847398643E+01  0.44488809025E+02 -0.15309611509E+03  0.15945531132E+03  0.00000000000E+00 0. -1.
        -15    1    3    3    0    0  0.23199572608E+02  0.15646302166E+03 -0.22329539469E+03  0.27364737955E+03  0.17770000000E+01 0.  1.
         15    1    3    3    0    0 -0.17558777947E+02  0.13415120764E+01 -0.72407786535E+02  0.74539624479E+02  0.17770000000E+01 0. -1.
</event>
<event>
 7    1  0.3260141E-006  0.5135180E+03  0.7546771E-02  0.9370060E-01
        -11   -1    0    0    0    0  0.00000000000E+00  0.00000000000E+00  0.50000000000E+03  0.50000000000E+03  0.00000000000E+00 0.  1.
         11   -1    0    0    0    0 -0.00000000000E+00 -0.00000000000E+00 -0.50000000000E+03  0.50000000000E+03  0.00000000000E+00 0. -1.
         23    2    1    2    0    0 -0.14372358307E+03 -0.34186203795E+02 -0.21810638076E+03  0.27898444051E+03  0.91851836454E+02 0.  0.
        -11    1    1    2    0    0  0.18092527878E+03  0.43565156751E+02  0.44948065915E+03  0.48648200618E+03  0.00000000000E+00 0.  1.
         11    1    1    2    0    0 -0.37201695711E+02 -0.93789529556E+01 -0.23137427840E+03  0.23453355331E+03  0.00000000000E+00 0. -1.
        -15    1    3    3    0    0 -0.92965852269E+02  0.21769391603E+01 -0.64560763725E+02  0.11321942719E+03  0.17770000000E+01 0.  1.
         15    1    3    3    0    0 -0.50757730803E+02 -0.36363142955E+02 -0.15354561703E+03  0.16576501332E+03  0.17770000000E+01 0. -1.
</event>
<event>
 7    1  0.3260141E-006  0.3608273E+03  0.7546771E-02  0.9779797E-01
        -11   -1    0    0    0    0  0.00000000000E+00  0.00000000000E+00  0.50000000000E+03  0.50000000000E+03  0.00000000000E+00 0.  1.
         11   -1    0    0    0    0 -0.00000000000E+00 -0.00000000000E+00 -0.50000000000E+03  0.50000000000E+03  0.00000000000E+00 0.  1.
         23    2    1    2    0    0 -0.64813617068E+02 -0.67765862762E+02  0.20537814961E+03  0.24385286744E+03  0.92146728152E+02 0.  0.
        -11    1    1    2    0    0 -0.26063184495E+03 -0.14849966363E+03  0.27563921646E+02  0.30123226666E+03  0.00000000000E+00 0.  1.
         11    1    1    2    0    0  0.32544546202E+03  0.21626552639E+03 -0.23294207126E+03  0.45491486590E+03  0.00000000000E+00 0.  1.
        -15    1    3    3    0    0 -0.84899358568E+02 -0.36545170357E+02  0.16377605389E+03  0.18806702028E+03  0.17770000000E+01 0.  1.
         15    1    3    3    0    0  0.20085741500E+02 -0.31220692405E+02  0.41602095723E+02  0.55785847161E+02  0.17770000000E+01 0. -1.
</event>
<event>
 7    1  0.3260141E-006  0.3385087E+03  0.7546771E-02  0.9857867E-01
        -11   -1    0    0    0    0  0.00000000000E+00  0.00000000000E+00  0.50000000000E+03  0.50000000000E+03  0.00000000000E+00 0. -1.
         11   -1    0    0    0    0 -0.00000000000E+00 -0.00000000000E+00 -0.50000000000E+03  0.50000000000E+03  0.00000000000E+00 0. -1.
         23    2    1    2    0    0  0.13153920323E+03  0.13672245378E+03  0.17647431537E+03  0.27509226112E+03  0.92395761744E+02 0.  0.
        -11    1    1    2    0    0 -0.16929070169E+03 -0.19305577676E+03  0.21050760152E+03  0.33202910252E+03  0.00000000000E+00 0. -1.
         11    1    1    2    0    0  0.37751498454E+02  0.56333322987E+02 -0.38698191689E+03  0.39287863637E+03  0.00000000000E+00 0. -1.
        -15    1    3    3    0    0 -0.98971521473E+01  0.10741363372E+02  0.37139928536E+02  0.39948248126E+02  0.17770000000E+01 0.  1.
         15    1    3    3    0    0  0.14143635538E+03  0.12598109041E+03  0.13933438683E+03  0.23514401299E+03  0.17770000000E+01 0. -1.
</event>
<event>
 7    1  0.3260141E-006  0.5182905E+03  0.7546771E-02  0.9359788E-01
        -11   -1    0    0    0    0  0.00000000000E+00  0.00000000000E+00  0.50000000000E+03  0.50000000000E+03  0.00000000000E+00 0.  1.
         11   -1    0    0    0    0 -0.00000000000E+00 -0.00000000000E+00 -0.50000000000E+03  0.50000000000E+03  0.00000000000E+00 0. -1.
         23    2    1    2    0    0 -0.29077495515E+02  0.57419541680E+02 -0.10464702715E+03  0.15493479067E+03  0.94399600414E+02 0.  0.
        -11    1    1    2    0    0  0.60464741615E+02 -0.13771796398E+03  0.45762630040E+03  0.48170951143E+03  0.00000000000E+00 0.  1.
         11    1    1    2    0    0 -0.31387246100E+02  0.80298422305E+02 -0.35297927326E+03  0.36335569789E+03  0.00000000000E+00 0. -1.
        -15    1    3    3    0    0  0.25363539364E+02  0.15742001525E+02 -0.73998575082E+02  0.79812696886E+02  0.17770000000E+01 0. -1.
         15    1    3    3    0    0 -0.54441034878E+02  0.41677540155E+02 -0.30648452064E+02  0.75122093787E+02  0.17770000000E+01 0.  1.
</event>
