<event>
 6    1  0.3652367E-005  0.1840560E+03  0.7546771E-02  0.1067223E+00
        -11   -1    0    0    0    0  0.00000000000E+00  0.00000000000E+00  0.18250000000E+03  0.18250000000E+03  0.00000000000E+00 0.  1.
         11   -1    0    0    0    0 -0.00000000000E+00 -0.00000000000E+00 -0.18250000000E+03  0.18250000000E+03  0.00000000000E+00 0.  1.
        -11    1    1    2    0    0 -0.78979478489E+01 -0.34982366712E+00 -0.17509134521E+03  0.17526973248E+03  0.00000000000E+00 0.  1.
         11    1    1    2    0    0 -0.72515381735E+01 -0.75485528076E+00 -0.49034479779E+01  0.87862628260E+01  0.00000000000E+00 0.  1.
        -15    1    1    2    0    0  0.49728466424E+01  0.92696088167E+00  0.11571347630E+03  0.11583762250E+03  0.17770000000E+01 0.  1.
         15    1    1    2    0    0  0.10176639380E+02  0.17771806621E+00  0.64281316887E+02  0.65106382195E+02  0.17770000000E+01 0. -1.
</event>
<event>
 6    1  0.3652367E-005  0.1822388E+03  0.7546771E-02  0.1068663E+00
        -11   -1    0    0    0    0  0.00000000000E+00  0.00000000000E+00  0.18250000000E+03  0.18250000000E+03  0.00000000000E+00 0. -1.
         11   -1    0    0    0    0 -0.00000000000E+00 -0.00000000000E+00 -0.18250000000E+03  0.18250000000E+03  0.00000000000E+00 0. -1.
        -11    1    1    2    0    0  0.52262448997E+01 -0.73152420544E+00 -0.17951407705E+03  0.17959162737E+03  0.00000000000E+00 0. -1.
         11    1    1    2    0    0  0.22513946501E+01  0.66417290671E+00 -0.10863876129E+01  0.25865307974E+01  0.00000000000E+00 0. -1.
        -15    1    1    2    0    0 -0.88925518669E+01 -0.11899891581E+02  0.12564323573E+03  0.12653088679E+03  0.17770000000E+01 0. -1.
         15    1    1    2    0    0  0.14149123171E+01  0.11967242880E+02  0.54957228930E+02  0.56290955043E+02  0.17770000000E+01 0.  1.
</event>
<event>
 6    1  0.3652367E-005  0.1853915E+03  0.7546771E-02  0.1066176E+00
        -11   -1    0    0    0    0  0.00000000000E+00  0.00000000000E+00  0.18250000000E+03  0.18250000000E+03  0.00000000000E+00 0.  1.
         11   -1    0    0    0    0 -0.00000000000E+00 -0.00000000000E+00 -0.18250000000E+03  0.18250000000E+03  0.00000000000E+00 0.  1.
        -11    1    1    2    0    0 -0.65471178457E+01  0.20803716311E+02 -0.44295138092E+02  0.49373258177E+02  0.00000000000E+00 0.  1.
         11    1    1    2    0    0  0.12604426605E+02 -0.14420265216E+02 -0.13466309304E+03  0.13601824968E+03  0.00000000000E+00 0.  1.
        -15    1    1    2    0    0 -0.78383991728E+01 -0.22544885915E+01  0.15135304312E+03  0.15158306176E+03  0.17770000000E+01 0.  1.
         15    1    1    2    0    0  0.17810904132E+01 -0.41289625038E+01  0.27605188010E+02  0.28025430389E+02  0.17770000000E+01 0. -1.
</event>
<event>
 6    1  0.3652367E-005  0.1905658E+03  0.7546771E-02  0.1062210E+00
        -11   -1    0    0    0    0  0.00000000000E+00  0.00000000000E+00  0.18250000000E+03  0.18250000000E+03  0.00000000000E+00 0. -1.
         11   -1    0    0    0    0 -0.00000000000E+00 -0.00000000000E+00 -0.18250000000E+03  0.18250000000E+03  0.00000000000E+00 0.  1.
        -11    1    1    2    0    0 -0.41491129136E+00  0.14291042088E+01  0.66049597575E+01  0.67705231420E+01  0.00000000000E+00 0.  1.
         11    1    1    2    0    0  0.16594925047E+02  0.20354219791E+01  0.16682800628E+03  0.16766370555E+03  0.00000000000E+00 0. -1.
        -15    1    1    2    0    0  0.99608913189E+01  0.29327496881E+02 -0.39602751632E+02  0.50307624621E+02  0.17770000000E+01 0.  1.
         15    1    1    2    0    0 -0.26140905075E+02 -0.32792023069E+02 -0.13383021441E+03  0.14025814669E+03  0.17770000000E+01 0. -1.
</event>
<event>
 6    1  0.3652367E-005  0.1870169E+03  0.7546771E-02  0.1064915E+00
        -11   -1    0    0    0    0  0.00000000000E+00  0.00000000000E+00  0.18250000000E+03  0.18250000000E+03  0.00000000000E+00 0. -1.
         11   -1    0    0    0    0 -0.00000000000E+00 -0.00000000000E+00 -0.18250000000E+03  0.18250000000E+03  0.00000000000E+00 0. -1.
        -11    1    1    2    0    0 -0.50097027821E+01 -0.80489108627E+01 -0.60877384252E+02  0.61611184061E+02  0.00000000000E+00 0. -1.
         11    1    1    2    0    0 -0.10704340105E+02  0.19638497502E+02 -0.11420231761E+03  0.11637191598E+03  0.00000000000E+00 0. -1.
        -15    1    1    2    0    0 -0.92414440364E+01 -0.29446859012E+02  0.55281378940E+02  0.63338064227E+02  0.17770000000E+01 0.  1.
         15    1    1    2    0    0  0.24955486924E+02  0.17857272373E+02  0.11979832292E+03  0.12367883573E+03  0.17770000000E+01 0. -1.
</event>
<event>
 6    1  0.3652367E-005  0.3650000E+03  0.7546771E-02  0.9765871E-01
        -11   -1    0    0    0    0  0.00000000000E+00  0.00000000000E+00  0.18250000000E+03  0.18250000000E+03  0.00000000000E+00 0. -1.
         11   -1    0    0    0    0 -0.00000000000E+00 -0.00000000000E+00 -0.18250000000E+03  0.18250000000E+03  0.00000000000E+00 0.  1.
        -11    1    1    2    0    0 -0.29173397061E+01  0.75994025950E+01  0.23698497541E+02  0.25057545300E+02  0.00000000000E+00 0. -1.
         11    1    1    2    0    0  0.16807983971E+01  0.29321301388E+01  0.61223726940E+01  0.69932766145E+01  0.00000000000E+00 0.  1.
        -15    1    1    2    0    0  0.32495189334E+02 -0.24239406737E+02 -0.17713426750E+03  0.18172284562E+03  0.17770000000E+01 0.  1.
         15    1    1    2    0    0 -0.31258648025E+02  0.13707874003E+02  0.14731339727E+03  0.15122633246E+03  0.17770000000E+01 0. -1.
</event>
<event>
 6    1  0.3652367E-005  0.1836371E+03  0.7546771E-02  0.1067553E+00
        -11   -1    0    0    0    0  0.00000000000E+00  0.00000000000E+00  0.18250000000E+03  0.18250000000E+03  0.00000000000E+00 0. -1.
         11   -1    0    0    0    0 -0.00000000000E+00 -0.00000000000E+00 -0.18250000000E+03  0.18250000000E+03  0.00000000000E+00 0.  1.
        -11    1    1    2    0    0  0.32235988840E+01 -0.57911811483E+00 -0.33509881055E+02  0.33669557405E+02  0.00000000000E+00 0. -1.
         11    1    1    2    0    0  0.94555319988E+01  0.94266145053E+00 -0.14738731462E+03  0.14769331809E+03  0.00000000000E+00 0.  1.
        -15    1    1    2    0    0  0.20885587614E+01  0.11389314677E+02  0.91875939358E+02  0.92619784757E+02  0.17770000000E+01 0.  1.
         15    1    1    2    0    0 -0.14767689644E+02 -0.11752858013E+02  0.89021256321E+02  0.91017339748E+02  0.17770000000E+01 0. -1.
</event>
<event>
 6    1  0.3652367E-005  0.3546173E+03  0.7546771E-02  0.9800898E-01
        -11   -1    0    0    0    0  0.00000000000E+00  0.00000000000E+00  0.18250000000E+03  0.18250000000E+03  0.00000000000E+00 0.  1.
         11   -1    0    0    0    0 -0.00000000000E+00 -0.00000000000E+00 -0.18250000000E+03  0.18250000000E+03  0.00000000000E+00 0. -1.
        -11    1    1    2    0    0  0.27138000731E+00  0.23017141059E+01 -0.39158766777E+00  0.23505054425E+01  0.00000000000E+00 0. -1.
         11    1    1    2    0    0  0.27033920798E+01  0.58022530285E+01 -0.48520441658E+01  0.80322351516E+01  0.00000000000E+00 0.  1.
        -15    1    1    2    0    0 -0.16859413049E+03 -0.30902590870E+02 -0.49967162192E+02  0.17854642529E+03  0.17770000000E+01 0. -1.
         15    1    1    2    0    0  0.16561935840E+03  0.22798623736E+02  0.55210794025E+02  0.17607083412E+03  0.17770000000E+01 0.  1.
</event>
<event>
 6    1  0.3652367E-005  0.1825812E+03  0.7546771E-02  0.1068390E+00
        -11   -1    0    0    0    0  0.00000000000E+00  0.00000000000E+00  0.18250000000E+03  0.18250000000E+03  0.00000000000E+00 0.  1.
         11   -1    0    0    0    0 -0.00000000000E+00 -0.00000000000E+00 -0.18250000000E+03  0.18250000000E+03  0.00000000000E+00 0.  1.
        -11    1    1    2    0    0 -0.52909720016E+01  0.31585128656E+01 -0.81110937686E+02  0.81344666700E+02  0.00000000000E+00 0.  1.
         11    1    1    2    0    0  0.54505637839E+01 -0.47816401730E+01 -0.10097655446E+03  0.10123654123E+03  0.00000000000E+00 0.  1.
        -15    1    1    2    0    0  0.28299157198E+01 -0.22286035294E+01  0.33381134384E+02  0.33621911879E+02  0.17770000000E+01 0. -1.
         15    1    1    2    0    0 -0.29895075021E+01  0.38517308368E+01  0.14870635777E+03  0.14879688019E+03  0.17770000000E+01 0.  1.
</event>
<event>
 6    1  0.3652367E-005  0.1826272E+03  0.7546771E-02  0.1068354E+00
        -11   -1    0    0    0    0  0.00000000000E+00  0.00000000000E+00  0.18250000000E+03  0.18250000000E+03  0.00000000000E+00 0.  1.
         11   -1    0    0    0    0 -0.00000000000E+00 -0.00000000000E+00 -0.18250000000E+03  0.18250000000E+03  0.00000000000E+00 0. -1.
        -11    1    1    2    0    0 -0.12457047901E+01  0.90506867007E+01 -0.10629007403E+03  0.10668198793E+03  0.00000000000E+00 0.  1.
         11    1    1    2    0    0 -0.10820464078E+01  0.39649230633E+01 -0.75579123182E+02  0.75690787420E+02  0.00000000000E+00 0. -1.
        -15    1    1    2    0    0  0.65156340061E+00 -0.10952042660E+02  0.16905852486E+03  0.16942347632E+03  0.17770000000E+01 0.  1.
         15    1    1    2    0    0  0.16761877973E+01 -0.20635671037E+01  0.12810672355E+02  0.13203748328E+02  0.17770000000E+01 0.  1.
</event>
<event>
 6    1  0.3652367E-005  0.1835375E+03  0.7546771E-02  0.1067632E+00
        -11   -1    0    0    0    0  0.00000000000E+00  0.00000000000E+00  0.18250000000E+03  0.18250000000E+03  0.00000000000E+00 0. -1.
         11   -1    0    0    0    0 -0.00000000000E+00 -0.00000000000E+00 -0.18250000000E+03  0.18250000000E+03  0.00000000000E+00 0.  1.
        -11    1    1    2    0    0 -0.12516179850E+01  0.15238253049E+01 -0.19930509757E+02  0.20027825901E+02  0.00000000000E+00 0. -1.
         11    1    1    2    0    0  0.22939722665E+01 -0.22858076336E+01 -0.16140214311E+03  0.16143462772E+03  0.00000000000E+00 0.  1.
        -15    1    1    2    0    0  0.66398861435E+00  0.10944905107E+02  0.15172261996E+03  0.15212870526E+03  0.17770000000E+01 0. -1.
         15    1    1    2    0    0 -0.17063428959E+01 -0.10182922779E+02  0.29610032909E+02  0.31408841116E+02  0.17770000000E+01 0.  1.
</event>
<event>
 6    1  0.3652367E-005  0.1471943E+03  0.7546771E-02  0.1100648E+00
        -11   -1    0    0    0    0  0.00000000000E+00  0.00000000000E+00  0.18250000000E+03  0.18250000000E+03  0.00000000000E+00 0.  1.
         11   -1    0    0    0    0 -0.00000000000E+00 -0.00000000000E+00 -0.18250000000E+03  0.18250000000E+03  0.00000000000E+00 0.  1.
        -11    1    1    2    0    0  0.50150536494E+02  0.36031234936E+02 -0.18429901344E+02  0.64443676690E+02  0.00000000000E+00 0.  1.
         11    1    1    2    0    0 -0.54484314875E+02 -0.79611410463E+02  0.14022082503E+03  0.17020104881E+03  0.00000000000E+00 0.  1.
        -15    1    1    2    0    0  0.47668056937E+01  0.53021909355E+01 -0.29985237275E+02  0.30872444812E+02  0.17770000000E+01 0. -1.
         15    1    1    2    0    0 -0.43302731265E+00  0.38277984592E+02 -0.91805686410E+02  0.99482829690E+02  0.17770000000E+01 0.  1.
</event>
<event>
 6    1  0.3652367E-005  0.1806097E+03  0.7546771E-02  0.1069969E+00
        -11   -1    0    0    0    0  0.00000000000E+00  0.00000000000E+00  0.18250000000E+03  0.18250000000E+03  0.00000000000E+00 0.  1.
         11   -1    0    0    0    0 -0.00000000000E+00 -0.00000000000E+00 -0.18250000000E+03  0.18250000000E+03  0.00000000000E+00 0. -1.
        -11    1    1    2    0    0 -0.96154718616E+00  0.45643805773E+00  0.27880983141E+01  0.29843593786E+01  0.00000000000E+00 0.  1.
         11    1    1    2    0    0 -0.61992778815E+00  0.47352067804E+00 -0.39427968232E-01  0.78108057186E+00  0.00000000000E+00 0. -1.
        -15    1    1    2    0    0 -0.11321134113E+03  0.12695726430E+03  0.56810063840E+02  0.17934741649E+03  0.17770000000E+01 0.  1.
         15    1    1    2    0    0  0.11479281611E+03 -0.12788722304E+03 -0.59558734186E+02  0.18188714356E+03  0.17770000000E+01 0. -1.
</event>
<event>
 6    1  0.3652367E-005  0.3091891E+03  0.7546771E-02  0.9970846E-01
        -11   -1    0    0    0    0  0.00000000000E+00  0.00000000000E+00  0.18250000000E+03  0.18250000000E+03  0.00000000000E+00 0.  1.
         11   -1    0    0    0    0 -0.00000000000E+00 -0.00000000000E+00 -0.18250000000E+03  0.18250000000E+03  0.00000000000E+00 0. -1.
        -11    1    1    2    0    0  0.41921666239E+01 -0.38471558354E+01 -0.46593079195E+02  0.46939214927E+02  0.00000000000E+00 0. -1.
         11    1    1    2    0    0 -0.85924343182E+00 -0.60212665695E-01 -0.88297808539E+01  0.88716940191E+01  0.00000000000E+00 0.  1.
        -15    1    1    2    0    0 -0.63578770320E+02  0.13884096912E+03  0.41773561630E+01  0.15277330518E+03  0.17770000000E+01 0.  1.
         15    1    1    2    0    0  0.60245847128E+02 -0.13493360062E+03  0.51245503886E+02  0.15641578587E+03  0.17770000000E+01 0. -1.
</event>
<event>
 6    1  0.3652367E-005  0.1827290E+03  0.7546771E-02  0.1068273E+00
        -11   -1    0    0    0    0  0.00000000000E+00  0.00000000000E+00  0.18250000000E+03  0.18250000000E+03  0.00000000000E+00 0. -1.
         11   -1    0    0    0    0 -0.00000000000E+00 -0.00000000000E+00 -0.18250000000E+03  0.18250000000E+03  0.00000000000E+00 0.  1.
        -11    1    1    2    0    0 -0.17836574669E+02  0.36581347047E+02 -0.16185303225E+03  0.16689140900E+03  0.00000000000E+00 0.  1.
         11    1    1    2    0    0 -0.10985484575E+00  0.44449929308E+01 -0.14722879182E+02  0.15379635940E+02  0.00000000000E+00 0. -1.
        -15    1    1    2    0    0 -0.33120016565E-01 -0.94199119695E+01  0.54630406478E+02  0.55465078017E+02  0.17770000000E+01 0.  1.
         15    1    1    2    0    0  0.17979549531E+02 -0.31606428009E+02  0.12194550496E+03  0.12726387705E+03  0.17770000000E+01 0. -1.
</event>
<event>
 6    1  0.3652367E-005  0.3409635E+03  0.7546771E-02  0.9848968E-01
        -11   -1    0    0    0    0  0.00000000000E+00  0.00000000000E+00  0.18250000000E+03  0.18250000000E+03  0.00000000000E+00 0.  1.
         11   -1    0    0    0    0 -0.00000000000E+00 -0.00000000000E+00 -0.18250000000E+03  0.18250000000E+03  0.00000000000E+00 0. -1.
        -11    1    1    2    0    0  0.18450917261E+02 -0.92856943685E+01 -0.30699641803E+01  0.20882651837E+02  0.00000000000E+00 0.  1.
         11    1    1    2    0    0  0.31340283417E+01  0.81051888090E-01  0.34337055228E+00  0.31538240901E+01  0.00000000000E+00 0. -1.
        -15    1    1    2    0    0 -0.95868718400E+02 -0.14087197086E+03  0.24239341798E+02  0.17212328942E+03  0.17770000000E+01 0.  1.
         15    1    1    2    0    0  0.74283772797E+02  0.15007661334E+03 -0.21512748170E+02  0.16884023465E+03  0.17770000000E+01 0. -1.
</event>
<event>
 6    1  0.3652367E-005  0.1841779E+03  0.7546771E-02  0.1067127E+00
        -11   -1    0    0    0    0  0.00000000000E+00  0.00000000000E+00  0.18250000000E+03  0.18250000000E+03  0.00000000000E+00 0.  1.
         11   -1    0    0    0    0 -0.00000000000E+00 -0.00000000000E+00 -0.18250000000E+03  0.18250000000E+03  0.00000000000E+00 0. -1.
        -11    1    1    2    0    0 -0.45919436064E+01  0.16879486498E+01 -0.17222452194E+03  0.17229399605E+03  0.00000000000E+00 0. -1.
         11    1    1    2    0    0  0.76657519182E-01  0.16046238755E+01 -0.83754367832E+01  0.85281085515E+01  0.00000000000E+00 0.  1.
        -15    1    1    2    0    0  0.23372025732E+01  0.19412765844E+01  0.39771615218E-01  0.35199973617E+01  0.17770000000E+01 0. -1.
         15    1    1    2    0    0  0.21780835141E+01 -0.52338491097E+01  0.18056018711E+03  0.18065789804E+03  0.17770000000E+01 0.  1.
</event>
<event>
 6    1  0.3652367E-005  0.1414638E+03  0.7546771E-02  0.1106812E+00
        -11   -1    0    0    0    0  0.00000000000E+00  0.00000000000E+00  0.18250000000E+03  0.18250000000E+03  0.00000000000E+00 0. -1.
         11   -1    0    0    0    0 -0.00000000000E+00 -0.00000000000E+00 -0.18250000000E+03  0.18250000000E+03  0.00000000000E+00 0. -1.
        -11    1    1    2    0    0 -0.12638250816E+02  0.46936712615E+02 -0.57614917678E+02  0.75380760900E+02  0.00000000000E+00 0. -1.
         11    1    1    2    0    0 -0.99654931563E+02 -0.47694974579E+01  0.11583737176E+03  0.15287952835E+03  0.00000000000E+00 0. -1.
        -15    1    1    2    0    0  0.10665397362E+03 -0.41245432522E+02 -0.46265566000E+02  0.12336902415E+03  0.17770000000E+01 0. -1.
         15    1    1    2    0    0  0.56392087589E+01 -0.92178263514E+00 -0.11956888084E+02  0.13370686606E+02  0.17770000000E+01 0.  1.
</event>
<event>
 6    1  0.3652367E-005  0.3627923E+03  0.7546771E-02  0.9773214E-01
        -11   -1    0    0    0    0  0.00000000000E+00  0.00000000000E+00  0.18250000000E+03  0.18250000000E+03  0.00000000000E+00 0. -1.
         11   -1    0    0    0    0 -0.00000000000E+00 -0.00000000000E+00 -0.18250000000E+03  0.18250000000E+03  0.00000000000E+00 0.  1.
        -11    1    1    2    0    0 -0.11528420170E+01 -0.36947139363E+00  0.75218202034E+00  0.14252479148E+01  0.00000000000E+00 0. -1.
         11    1    1    2    0    0 -0.34316643357E+00  0.50924626406E+00  0.48488685097E+00  0.78243863455E+00  0.00000000000E+00 0.  1.
        -15    1    1    2    0    0  0.15444557080E+03 -0.45435266100E+02  0.84349883940E+02  0.18175769143E+03  0.17770000000E+01 0. -1.
         15    1    1    2    0    0 -0.15294956235E+03  0.45295491229E+02 -0.85586952812E+02  0.18103462202E+03  0.17770000000E+01 0.  1.
</event>
<event>
 6    1  0.3652367E-005  0.3533025E+03  0.7546771E-02  0.9805425E-01
        -11   -1    0    0    0    0  0.00000000000E+00  0.00000000000E+00  0.18250000000E+03  0.18250000000E+03  0.00000000000E+00 0. -1.
         11   -1    0    0    0    0 -0.00000000000E+00 -0.00000000000E+00 -0.18250000000E+03  0.18250000000E+03  0.00000000000E+00 0.  1.
        -11    1    1    2    0    0  0.51553484667E+01 -0.31057751709E+01 -0.11355299328E+01  0.61247763595E+01  0.00000000000E+00 0.  1.
         11    1    1    2    0    0  0.18620065484E+01  0.54180123350E-01  0.51959593075E+01  0.55197823324E+01  0.00000000000E+00 0. -1.
        -15    1    1    2    0    0  0.10624862988E+03 -0.95887111424E+02  0.96328260737E+02  0.17252652270E+03  0.17770000000E+01 0. -1.
         15    1    1    2    0    0 -0.11326598490E+03  0.98938706471E+02 -0.10038869011E+03  0.18082891861E+03  0.17770000000E+01 0.  1.
</event>
<event>
 6    1  0.3652367E-005  0.1261707E+03  0.7546771E-02  0.1124973E+00
        -11   -1    0    0    0    0  0.00000000000E+00  0.00000000000E+00  0.18250000000E+03  0.18250000000E+03  0.00000000000E+00 0. -1.
         11   -1    0    0    0    0 -0.00000000000E+00 -0.00000000000E+00 -0.18250000000E+03  0.18250000000E+03  0.00000000000E+00 0. -1.
        -11    1    1    2    0    0  0.56402834219E+02  0.43831318610E+02  0.63244066740E+02  0.95405849804E+02  0.00000000000E+00 0. -1.
         11    1    1    2    0    0 -0.47541964616E+02 -0.48231661383E+02  0.91800057504E+02  0.11407796508E+03  0.00000000000E+00 0. -1.
        -15    1    1    2    0    0 -0.68652800673E+01  0.52678217180E+01 -0.13311984252E+03  0.13341263889E+03  0.17770000000E+01 0. -1.
         15    1    1    2    0    0 -0.19955895363E+01 -0.86747894459E+00 -0.21924281726E+02  0.22103546221E+02  0.17770000000E+01 0. -1.
</event>
<event>
 6    1  0.3652367E-005  0.1831912E+03  0.7546771E-02  0.1067906E+00
        -11   -1    0    0    0    0  0.00000000000E+00  0.00000000000E+00  0.18250000000E+03  0.18250000000E+03  0.00000000000E+00 0. -1.
         11   -1    0    0    0    0 -0.00000000000E+00 -0.00000000000E+00 -0.18250000000E+03  0.18250000000E+03  0.00000000000E+00 0. -1.
        -11    1    1    2    0    0  0.40645681670E+01 -0.18782927785E+02 -0.55402607049E+02  0.58641009186E+02  0.00000000000E+00 0. -1.
         11    1    1    2    0    0 -0.49809368371E+02 -0.13748080523E+02 -0.11332597057E+03  0.12455022482E+03  0.00000000000E+00 0. -1.
        -15    1    1    2    0    0  0.50691810105E+02  0.23245582911E+02  0.15250051056E+03  0.16238713061E+03  0.17770000000E+01 0. -1.
         15    1    1    2    0    0 -0.49470099019E+01  0.92854253960E+01  0.16228067059E+02  0.19421635390E+02  0.17770000000E+01 0.  1.
</event>
<event>
 6    1  0.5954229E-005  0.1825031E+03  0.7546771E-02  0.1068452E+00
        -11   -1    0    0    0    0  0.00000000000E+00  0.00000000000E+00  0.18250000000E+03  0.18250000000E+03  0.00000000000E+00 0. -1.
         11   -1    0    0    0    0 -0.00000000000E+00 -0.00000000000E+00 -0.18250000000E+03  0.18250000000E+03  0.00000000000E+00 0. -1.
        -11    1    1    2    0    0 -0.23896139536E+01  0.99523207039E+01  0.12282483843E+03  0.12325055731E+03  0.00000000000E+00 0. -1.
         11    1    1    2    0    0  0.15166281226E+01 -0.49700026375E+00  0.59224824719E+02  0.59246325060E+02  0.00000000000E+00 0. -1.
        -15    1    1    2    0    0  0.13436781702E+01 -0.65053849879E+01 -0.58217803247E+02  0.58622485863E+02  0.17770000000E+01 0. -1.
         15    1    1    2    0    0 -0.47069233919E+00 -0.29499354523E+01 -0.12383185990E+03  0.12388063176E+03  0.17770000000E+01 0. -1.
</event>
<event>
 6    1  0.3652367E-005  0.2922654E+03  0.7546771E-02  0.1004238E+00
        -11   -1    0    0    0    0  0.00000000000E+00  0.00000000000E+00  0.18250000000E+03  0.18250000000E+03  0.00000000000E+00 0. -1.
         11   -1    0    0    0    0 -0.00000000000E+00 -0.00000000000E+00 -0.18250000000E+03  0.18250000000E+03  0.00000000000E+00 0.  1.
        -11    1    1    2    0    0 -0.14158119944E+02 -0.43572043048E+02  0.54464439298E+02  0.71171275411E+02  0.00000000000E+00 0.  1.
         11    1    1    2    0    0 -0.62886840946E+00 -0.46285128283E+00  0.13544007371E+01  0.15633643667E+01  0.00000000000E+00 0. -1.
        -15    1    1    2    0    0  0.86101462301E+02 -0.40767999448E+02 -0.12832854663E+03  0.15983386749E+03  0.17770000000E+01 0.  1.
         15    1    1    2    0    0 -0.71314473947E+02  0.84802893778E+02  0.72509706592E+02  0.13243149273E+03  0.17770000000E+01 0. -1.
</event>
<event>
 6    1  0.3652367E-005  0.3650000E+03  0.7546771E-02  0.9765871E-01
        -11   -1    0    0    0    0  0.00000000000E+00  0.00000000000E+00  0.18250000000E+03  0.18250000000E+03  0.00000000000E+00 0.  1.
         11   -1    0    0    0    0 -0.00000000000E+00 -0.00000000000E+00 -0.18250000000E+03  0.18250000000E+03  0.00000000000E+00 0. -1.
        -11    1    1    2    0    0 -0.82818395749E+00  0.12821643172E-01  0.13626488810E+00  0.83941716787E+00  0.00000000000E+00 0.  1.
         11    1    1    2    0    0 -0.23719019062E+01  0.18119183551E+01  0.72162620142E+00  0.30707834754E+01  0.00000000000E+00 0. -1.
        -15    1    1    2    0    0  0.93536818475E+02 -0.90314661356E+02 -0.12749997366E+03  0.18211335887E+03  0.17770000000E+01 0. -1.
         15    1    1    2    0    0 -0.90336732611E+02  0.88489921357E+02  0.12664208258E+03  0.17897644048E+03  0.17770000000E+01 0.  1.
</event>
<event>
 6    1  0.3652367E-005  0.1600413E+03  0.7546771E-02  0.1087885E+00
        -11   -1    0    0    0    0  0.00000000000E+00  0.00000000000E+00  0.18250000000E+03  0.18250000000E+03  0.00000000000E+00 0. -1.
         11   -1    0    0    0    0 -0.00000000000E+00 -0.00000000000E+00 -0.18250000000E+03  0.18250000000E+03  0.00000000000E+00 0.  1.
        -11    1    1    2    0    0  0.48805292577E+01 -0.16278519464E+01  0.62272030419E+01  0.80775940428E+01  0.00000000000E+00 0. -1.
         11    1    1    2    0    0  0.12903005582E+02  0.81328710291E+01 -0.31793248284E+02  0.35262469861E+02  0.00000000000E+00 0.  1.
        -15    1    1    2    0    0  0.32752567437E+02  0.86362494324E+02  0.13879809065E+03  0.16673115725E+03  0.17770000000E+01 0. -1.
         15    1    1    2    0    0 -0.50536102277E+02 -0.92867513407E+02 -0.11323204541E+03  0.15492877885E+03  0.17770000000E+01 0.  1.
</event>
<event>
 6    1  0.4302232E-005  0.3650000E+03  0.7546771E-02  0.9765871E-01
        -11   -1    0    0    0    0  0.00000000000E+00  0.00000000000E+00  0.18250000000E+03  0.18250000000E+03  0.00000000000E+00 0.  1.
         11   -1    0    0    0    0 -0.00000000000E+00 -0.00000000000E+00 -0.18250000000E+03  0.18250000000E+03  0.00000000000E+00 0. -1.
        -11    1    1    2    0    0  0.44923953974E+00  0.16856682856E+01  0.49192166501E+01  0.52193856137E+01  0.00000000000E+00 0.  1.
         11    1    1    2    0    0  0.16410497071E+01  0.19446705405E+01  0.36047681921E+01  0.44123849981E+01  0.00000000000E+00 0. -1.
        -15    1    1    2    0    0  0.44678748353E+02  0.15881166893E+03  0.56282068006E+02  0.17432201712E+03  0.17770000000E+01 0.  1.
         15    1    1    2    0    0 -0.46769037600E+02 -0.16244200776E+03 -0.64806052848E+02  0.18104621227E+03  0.17770000000E+01 0. -1.
</event>
<event>
 6    1  0.3652367E-005  0.3650000E+03  0.7546771E-02  0.9765871E-01
        -11   -1    0    0    0    0  0.00000000000E+00  0.00000000000E+00  0.18250000000E+03  0.18250000000E+03  0.00000000000E+00 0.  1.
         11   -1    0    0    0    0 -0.00000000000E+00 -0.00000000000E+00 -0.18250000000E+03  0.18250000000E+03  0.00000000000E+00 0. -1.
        -11    1    1    2    0    0  0.10387180617E+03  0.51454190834E+02  0.67268306341E+02  0.13402205382E+03  0.00000000000E+00 0.  1.
         11    1    1    2    0    0  0.19701818396E+02 -0.11037879864E+02  0.30355454507E+02  0.37834508829E+02  0.00000000000E+00 0. -1.
        -15    1    1    2    0    0 -0.10083987380E+02 -0.20918997451E+02  0.18388484347E+02  0.29674658236E+02  0.17770000000E+01 0.  1.
         15    1    1    2    0    0 -0.11348963718E+03 -0.19497313520E+02 -0.11601224519E+03  0.16346877912E+03  0.17770000000E+01 0. -1.
</event>
<event>
 6    1  0.3652367E-005  0.1833759E+03  0.7546771E-02  0.1067760E+00
        -11   -1    0    0    0    0  0.00000000000E+00  0.00000000000E+00  0.18250000000E+03  0.18250000000E+03  0.00000000000E+00 0. -1.
         11   -1    0    0    0    0 -0.00000000000E+00 -0.00000000000E+00 -0.18250000000E+03  0.18250000000E+03  0.00000000000E+00 0. -1.
        -11    1    1    2    0    0  0.37913522000E+02 -0.12381213860E+02 -0.11633630650E+03  0.12298319323E+03  0.00000000000E+00 0. -1.
         11    1    1    2    0    0 -0.41159600523E+00 -0.63676667099E+01 -0.60054630649E+02  0.60392675491E+02  0.00000000000E+00 0. -1.
        -15    1    1    2    0    0 -0.32547930608E+02  0.19476044128E+02  0.15468486280E+03  0.15927726953E+03  0.17770000000E+01 0. -1.
         15    1    1    2    0    0 -0.49539953865E+01 -0.72716355811E+00  0.21706074350E+02  0.22346861745E+02  0.17770000000E+01 0.  1.
</event>
<event>
 6    1  0.3652367E-005  0.1829624E+03  0.7546771E-02  0.1068087E+00
        -11   -1    0    0    0    0  0.00000000000E+00  0.00000000000E+00  0.18250000000E+03  0.18250000000E+03  0.00000000000E+00 0.  1.
         11   -1    0    0    0    0 -0.00000000000E+00 -0.00000000000E+00 -0.18250000000E+03  0.18250000000E+03  0.00000000000E+00 0.  1.
        -11    1    1    2    0    0  0.12273250958E+02 -0.67867946779E+01  0.73813608975E+02  0.75134160945E+02  0.00000000000E+00 0.  1.
         11    1    1    2    0    0  0.87829038612E+01  0.11935045199E+02  0.10680519576E+03  0.10782826413E+03  0.00000000000E+00 0.  1.
        -15    1    1    2    0    0 -0.13021724875E+02 -0.54250047085E+01 -0.10137339275E+03  0.10236561182E+03  0.17770000000E+01 0.  1.
         15    1    1    2    0    0 -0.80344299436E+01  0.27675418766E+00 -0.79245411978E+02  0.79671963111E+02  0.17770000000E+01 0. -1.
</event>
<event>
 6    1  0.3652367E-005  0.1841355E+03  0.7546771E-02  0.1067160E+00
        -11   -1    0    0    0    0  0.00000000000E+00  0.00000000000E+00  0.18250000000E+03  0.18250000000E+03  0.00000000000E+00 0. -1.
         11   -1    0    0    0    0 -0.00000000000E+00 -0.00000000000E+00 -0.18250000000E+03  0.18250000000E+03  0.00000000000E+00 0. -1.
        -11    1    1    2    0    0 -0.66582242297E+01  0.59482331596E+01  0.92269908818E+01  0.12839423209E+02  0.00000000000E+00 0. -1.
         11    1    1    2    0    0 -0.42747418684E+01 -0.39902565844E+01  0.17119619015E+03  0.17129603349E+03  0.00000000000E+00 0. -1.
        -15    1    1    2    0    0  0.84265407403E+01 -0.24900744404E+01 -0.10688436784E+03  0.10725965168E+03  0.17770000000E+01 0. -1.
         15    1    1    2    0    0  0.25064253577E+01  0.53209786525E+00 -0.73538813195E+02  0.73604891626E+02  0.17770000000E+01 0. -1.
</event>
<event>
 6    1  0.3652367E-005  0.3650000E+03  0.7546771E-02  0.9765871E-01
        -11   -1    0    0    0    0  0.00000000000E+00  0.00000000000E+00  0.18250000000E+03  0.18250000000E+03  0.00000000000E+00 0. -1.
         11   -1    0    0    0    0 -0.00000000000E+00 -0.00000000000E+00 -0.18250000000E+03  0.18250000000E+03  0.00000000000E+00 0.  1.
        -11    1    1    2    0    0 -0.22924623319E+02  0.25413634465E+02 -0.85544326952E+02  0.92136979789E+02  0.00000000000E+00 0.  1.
         11    1    1    2    0    0 -0.17200028400E+02  0.42414888069E+02 -0.32798562820E+02  0.56308164860E+02  0.00000000000E+00 0. -1.
        -15    1    1    2    0    0  0.95761843929E+02 -0.65350862521E+02  0.11070770238E+03  0.16031350249E+03  0.17770000000E+01 0. -1.
         15    1    1    2    0    0 -0.55637192210E+02 -0.24776600123E+01  0.76351873908E+01  0.56241352861E+02  0.17770000000E+01 0.  1.
</event>
<event>
 6    1  0.3652367E-005  0.1829627E+03  0.7546771E-02  0.1068087E+00
        -11   -1    0    0    0    0  0.00000000000E+00  0.00000000000E+00  0.18250000000E+03  0.18250000000E+03  0.00000000000E+00 0. -1.
         11   -1    0    0    0    0 -0.00000000000E+00 -0.00000000000E+00 -0.18250000000E+03  0.18250000000E+03  0.00000000000E+00 0. -1.
        -11    1    1    2    0    0  0.70959045900E+01 -0.76115557440E+01 -0.10711936198E+03  0.10762362823E+03  0.00000000000E+00 0. -1.
         11    1    1    2    0    0  0.24644468681E+01 -0.68864910606E+01 -0.74053291470E+02  0.74413622645E+02  0.00000000000E+00 0. -1.
        -15    1    1    2    0    0 -0.29243036853E+01  0.15699751942E+02  0.82896947254E+02  0.84439891971E+02  0.17770000000E+01 0.  1.
         15    1    1    2    0    0 -0.66360477729E+01 -0.12017051377E+01  0.98275706194E+02  0.98522857156E+02  0.17770000000E+01 0. -1.
</event>
<event>
 6    1  0.3652367E-005  0.1827225E+03  0.7546771E-02  0.1068278E+00
        -11   -1    0    0    0    0  0.00000000000E+00  0.00000000000E+00  0.18250000000E+03  0.18250000000E+03  0.00000000000E+00 0. -1.
         11   -1    0    0    0    0 -0.00000000000E+00 -0.00000000000E+00 -0.18250000000E+03  0.18250000000E+03  0.00000000000E+00 0.  1.
        -11    1    1    2    0    0 -0.11256496282E+01  0.59969877032E+00 -0.33389764867E+02  0.33414115634E+02  0.00000000000E+00 0. -1.
         11    1    1    2    0    0 -0.18061715555E+01  0.15208112918E+01 -0.14884469623E+03  0.14886342303E+03  0.00000000000E+00 0.  1.
        -15    1    1    2    0    0 -0.43616663310E+00  0.48734608109E+01  0.58055362538E+02  0.58288281069E+02  0.17770000000E+01 0.  1.
         15    1    1    2    0    0  0.33679878168E+01 -0.69939708730E+01  0.12417909856E+03  0.12443418026E+03  0.17770000000E+01 0. -1.
</event>
<event>
 6    1  0.3652367E-005  0.1833453E+03  0.7546771E-02  0.1067784E+00
        -11   -1    0    0    0    0  0.00000000000E+00  0.00000000000E+00  0.18250000000E+03  0.18250000000E+03  0.00000000000E+00 0.  1.
         11   -1    0    0    0    0 -0.00000000000E+00 -0.00000000000E+00 -0.18250000000E+03  0.18250000000E+03  0.00000000000E+00 0. -1.
        -11    1    1    2    0    0 -0.37548296813E+02 -0.10044247996E+01  0.16343162901E+03  0.16769251868E+03  0.00000000000E+00 0.  1.
         11    1    1    2    0    0 -0.37580623161E+01  0.11865391030E+01  0.13394421772E+02  0.13962143175E+02  0.00000000000E+00 0. -1.
        -15    1    1    2    0    0  0.30073987502E+02  0.95280237159E+01 -0.93677250984E+02  0.98862596775E+02  0.17770000000E+01 0.  1.
         15    1    1    2    0    0  0.11232371628E+02 -0.97101380194E+01 -0.83148799794E+02  0.84482741367E+02  0.17770000000E+01 0. -1.
</event>
<event>
 6    1  0.3652367E-005  0.3402428E+03  0.7546771E-02  0.9851572E-01
        -11   -1    0    0    0    0  0.00000000000E+00  0.00000000000E+00  0.18250000000E+03  0.18250000000E+03  0.00000000000E+00 0. -1.
         11   -1    0    0    0    0 -0.00000000000E+00 -0.00000000000E+00 -0.18250000000E+03  0.18250000000E+03  0.00000000000E+00 0.  1.
        -11    1    1    2    0    0  0.15132038451E+02  0.32699557437E+01 -0.50845034435E+01  0.16294887957E+02  0.00000000000E+00 0.  1.
         11    1    1    2    0    0  0.60061108202E+01 -0.68134566587E+00 -0.59223084974E+01  0.84623481989E+01  0.00000000000E+00 0. -1.
        -15    1    1    2    0    0 -0.70223018968E+02  0.13671346204E+03  0.84350300732E+02  0.17532818957E+03  0.17770000000E+01 0. -1.
         15    1    1    2    0    0  0.49084869696E+02 -0.13930207212E+03 -0.73343488791E+02  0.16491457427E+03  0.17770000000E+01 0.  1.
</event>
<event>
 6    1  0.3652367E-005  0.1898619E+03  0.7546771E-02  0.1062741E+00
        -11   -1    0    0    0    0  0.00000000000E+00  0.00000000000E+00  0.18250000000E+03  0.18250000000E+03  0.00000000000E+00 0.  1.
         11   -1    0    0    0    0 -0.00000000000E+00 -0.00000000000E+00 -0.18250000000E+03  0.18250000000E+03  0.00000000000E+00 0. -1.
        -11    1    1    2    0    0 -0.10230928514E+02  0.36551088888E+02  0.34709893637E+02  0.51433750724E+02  0.00000000000E+00 0. -1.
         11    1    1    2    0    0  0.94607986341E+01 -0.79144344071E+01  0.13787751724E+03  0.13842815734E+03  0.00000000000E+00 0.  1.
        -15    1    1    2    0    0 -0.71483170185E-01 -0.91754305537E+01 -0.37774468352E+02  0.38913517239E+02  0.17770000000E+01 0. -1.
         15    1    1    2    0    0  0.84161304980E+00 -0.19461223927E+02 -0.13481294253E+03  0.13622457470E+03  0.17770000000E+01 0. -1.
</event>
<event>
 6    1  0.3652367E-005  0.1827378E+03  0.7546771E-02  0.1068266E+00
        -11   -1    0    0    0    0  0.00000000000E+00  0.00000000000E+00  0.18250000000E+03  0.18250000000E+03  0.00000000000E+00 0.  1.
         11   -1    0    0    0    0 -0.00000000000E+00 -0.00000000000E+00 -0.18250000000E+03  0.18250000000E+03  0.00000000000E+00 0.  1.
        -11    1    1    2    0    0 -0.36388538096E+01  0.15913150284E+01 -0.10906989108E+03  0.10914217645E+03  0.00000000000E+00 0.  1.
         11    1    1    2    0    0  0.28392822799E+01 -0.18576841137E+01 -0.73041241049E+02  0.73120006893E+02  0.00000000000E+00 0.  1.
        -15    1    1    2    0    0  0.36062845440E+01  0.62921364765E+01  0.12322897893E+03  0.12345499280E+03  0.17770000000E+01 0.  1.
         15    1    1    2    0    0 -0.28067130143E+01 -0.60257673911E+01  0.58882153197E+02  0.59282823859E+02  0.17770000000E+01 0. -1.
</event>
<event>
 6    1  0.3652367E-005  0.3650000E+03  0.7546771E-02  0.9765871E-01
        -11   -1    0    0    0    0  0.00000000000E+00  0.00000000000E+00  0.18250000000E+03  0.18250000000E+03  0.00000000000E+00 0. -1.
         11   -1    0    0    0    0 -0.00000000000E+00 -0.00000000000E+00 -0.18250000000E+03  0.18250000000E+03  0.00000000000E+00 0.  1.
        -11    1    1    2    0    0  0.41991280062E+01  0.46379240984E+01 -0.23223791486E+01  0.66735643299E+01  0.00000000000E+00 0.  1.
         11    1    1    2    0    0  0.92134810195E+01  0.58551106338E+00 -0.52163046875E+00  0.92467915543E+01  0.00000000000E+00 0. -1.
        -15    1    1    2    0    0 -0.86708807372E+02 -0.15742508343E+03 -0.68201421320E+01  0.17986313196E+03  0.17770000000E+01 0. -1.
         15    1    1    2    0    0  0.73296198347E+02  0.15220164827E+03  0.96641517494E+01  0.16921651216E+03  0.17770000000E+01 0.  1.
</event>
<event>
 6    1  0.3652367E-005  0.2880648E+03  0.7546771E-02  0.1006095E+00
        -11   -1    0    0    0    0  0.00000000000E+00  0.00000000000E+00  0.18250000000E+03  0.18250000000E+03  0.00000000000E+00 0.  1.
         11   -1    0    0    0    0 -0.00000000000E+00 -0.00000000000E+00 -0.18250000000E+03  0.18250000000E+03  0.00000000000E+00 0. -1.
        -11    1    1    2    0    0 -0.13950193145E+01 -0.64721732347E+01 -0.30798387279E+02  0.31501996194E+02  0.00000000000E+00 0.  1.
         11    1    1    2    0    0 -0.11228332421E+02 -0.95498102317E+01 -0.42975594341E+02  0.45433204084E+02  0.00000000000E+00 0. -1.
        -15    1    1    2    0    0  0.17209102131E+02  0.11177688980E+03 -0.56400986360E+02  0.12639009171E+03  0.17770000000E+01 0. -1.
         15    1    1    2    0    0 -0.45857503961E+01 -0.95754906337E+02  0.13017496798E+03  0.16167470801E+03  0.17770000000E+01 0.  1.
</event>
<event>
 6    1  0.3652367E-005  0.1768718E+03  0.7546771E-02  0.1073025E+00
        -11   -1    0    0    0    0  0.00000000000E+00  0.00000000000E+00  0.18250000000E+03  0.18250000000E+03  0.00000000000E+00 0. -1.
         11   -1    0    0    0    0 -0.00000000000E+00 -0.00000000000E+00 -0.18250000000E+03  0.18250000000E+03  0.00000000000E+00 0.  1.
        -11    1    1    2    0    0 -0.21194114174E+01 -0.36311680694E+01 -0.33249661038E+01  0.53602878557E+01  0.00000000000E+00 0. -1.
         11    1    1    2    0    0 -0.17329256527E+01  0.43703102419E+01 -0.34141233100E+01  0.58102393155E+01  0.00000000000E+00 0.  1.
        -15    1    1    2    0    0  0.13523460296E+03 -0.11660750691E+03  0.24317496673E+01  0.17859109620E+03  0.17770000000E+01 0.  1.
         15    1    1    2    0    0 -0.13138226589E+03  0.11586836474E+03  0.43073397465E+01  0.17523837663E+03  0.17770000000E+01 0. -1.
</event>
<event>
 6    1  0.3652367E-005  0.1853385E+03  0.7546771E-02  0.1066218E+00
        -11   -1    0    0    0    0  0.00000000000E+00  0.00000000000E+00  0.18250000000E+03  0.18250000000E+03  0.00000000000E+00 0.  1.
         11   -1    0    0    0    0 -0.00000000000E+00 -0.00000000000E+00 -0.18250000000E+03  0.18250000000E+03  0.00000000000E+00 0.  1.
        -11    1    1    2    0    0  0.10807503516E+02  0.19810580812E+02 -0.79803895883E+02  0.82933244495E+02  0.00000000000E+00 0.  1.
         11    1    1    2    0    0 -0.11000645427E+02 -0.21302481479E+02 -0.99559134030E+02  0.10240522978E+03  0.00000000000E+00 0.  1.
        -15    1    1    2    0    0 -0.37762865802E+00  0.37888677592E+01  0.16152406670E+03  0.16157871139E+03  0.17770000000E+01 0.  1.
         15    1    1    2    0    0  0.57077056866E+00 -0.22969670915E+01  0.17838963213E+02  0.18082814338E+02  0.17770000000E+01 0.  1.
</event>
<event>
 6    1  0.3652367E-005  0.1825690E+03  0.7546771E-02  0.1068400E+00
        -11   -1    0    0    0    0  0.00000000000E+00  0.00000000000E+00  0.18250000000E+03  0.18250000000E+03  0.00000000000E+00 0. -1.
         11   -1    0    0    0    0 -0.00000000000E+00 -0.00000000000E+00 -0.18250000000E+03  0.18250000000E+03  0.00000000000E+00 0.  1.
        -11    1    1    2    0    0 -0.41118696179E+01 -0.28736700528E+01 -0.89277445451E+02  0.89418273957E+02  0.00000000000E+00 0.  1.
         11    1    1    2    0    0  0.17126265793E+01  0.41063714153E+01 -0.93044421044E+02  0.93150736248E+02  0.00000000000E+00 0. -1.
        -15    1    1    2    0    0  0.59350476836E+00 -0.23979192274E+01  0.59781583763E+02  0.59858982206E+02  0.17770000000E+01 0. -1.
         15    1    1    2    0    0  0.18057382702E+01  0.11652178649E+01  0.12254028273E+03  0.12257200759E+03  0.17770000000E+01 0. -1.
</event>
<event>
 6    1  0.3652367E-005  0.1829106E+03  0.7546771E-02  0.1068128E+00
        -11   -1    0    0    0    0  0.00000000000E+00  0.00000000000E+00  0.18250000000E+03  0.18250000000E+03  0.00000000000E+00 0. -1.
         11   -1    0    0    0    0 -0.00000000000E+00 -0.00000000000E+00 -0.18250000000E+03  0.18250000000E+03  0.00000000000E+00 0.  1.
        -11    1    1    2    0    0  0.31212450391E+02  0.11092110221E+02 -0.71878264680E+02  0.79143773615E+02  0.00000000000E+00 0. -1.
         11    1    1    2    0    0  0.49100171574E+02  0.42973670106E+02 -0.79625613398E+02  0.10294562390E+03  0.00000000000E+00 0.  1.
        -15    1    1    2    0    0 -0.53403573798E+02 -0.22769298806E+02  0.65790241241E+02  0.87760448005E+02  0.17770000000E+01 0.  1.
         15    1    1    2    0    0 -0.26909048167E+02 -0.31296481520E+02  0.85713636838E+02  0.95150154481E+02  0.17770000000E+01 0. -1.
</event>
<event>
 6    1  0.3652367E-005  0.1825328E+03  0.7546771E-02  0.1068429E+00
        -11   -1    0    0    0    0  0.00000000000E+00  0.00000000000E+00  0.18250000000E+03  0.18250000000E+03  0.00000000000E+00 0. -1.
         11   -1    0    0    0    0 -0.00000000000E+00 -0.00000000000E+00 -0.18250000000E+03  0.18250000000E+03  0.00000000000E+00 0.  1.
        -11    1    1    2    0    0 -0.77911903665E+01  0.18277886280E+02  0.34575444706E+02  0.39877877963E+02  0.00000000000E+00 0.  1.
         11    1    1    2    0    0 -0.19984615588E+02  0.40968792974E+02  0.13517615743E+03  0.14265489965E+03  0.00000000000E+00 0. -1.
        -15    1    1    2    0    0  0.24487755632E+02 -0.57991261427E+02 -0.16029668159E+03  0.17222317043E+03  0.17770000000E+01 0.  1.
         15    1    1    2    0    0  0.32880503221E+01 -0.12554178277E+01 -0.94549205477E+01  0.10244051952E+02  0.17770000000E+01 0.  1.
</event>
<event>
 6    1  0.3652367E-005  0.1838412E+03  0.7546771E-02  0.1067392E+00
        -11   -1    0    0    0    0  0.00000000000E+00  0.00000000000E+00  0.18250000000E+03  0.18250000000E+03  0.00000000000E+00 0.  1.
         11   -1    0    0    0    0 -0.00000000000E+00 -0.00000000000E+00 -0.18250000000E+03  0.18250000000E+03  0.00000000000E+00 0.  1.
        -11    1    1    2    0    0  0.22118603654E+01 -0.33606499093E+01  0.32118114905E+02  0.32369114896E+02  0.00000000000E+00 0.  1.
         11    1    1    2    0    0 -0.44672529363E+01 -0.13658496294E+02  0.14809407586E+03  0.14878967093E+03  0.00000000000E+00 0.  1.
        -15    1    1    2    0    0  0.87445122111E+01  0.18518785212E+02 -0.17152047290E+03  0.17274791533E+03  0.17770000000E+01 0.  1.
         15    1    1    2    0    0 -0.64891196402E+01 -0.14996390082E+01 -0.86917178641E+01  0.11093298846E+02  0.17770000000E+01 0. -1.
</event>
<event>
 6    1  0.3652367E-005  0.1621900E+03  0.7546771E-02  0.1085879E+00
        -11   -1    0    0    0    0  0.00000000000E+00  0.00000000000E+00  0.18250000000E+03  0.18250000000E+03  0.00000000000E+00 0.  1.
         11   -1    0    0    0    0 -0.00000000000E+00 -0.00000000000E+00 -0.18250000000E+03  0.18250000000E+03  0.00000000000E+00 0.  1.
        -11    1    1    2    0    0  0.37398770245E+02  0.83287406717E+02  0.12938243870E+03  0.15835174637E+03  0.00000000000E+00 0.  1.
         11    1    1    2    0    0 -0.26538297916E+02 -0.10639014029E+03 -0.12602397704E+03  0.16704845403E+03  0.00000000000E+00 0.  1.
        -15    1    1    2    0    0 -0.70435250134E+01  0.20346306933E+01 -0.13788491885E+02  0.15717226350E+02  0.17770000000E+01 0.  1.
         15    1    1    2    0    0 -0.38169473150E+01  0.21068102876E+02  0.10430030224E+02  0.23882573251E+02  0.17770000000E+01 0. -1.
</event>
<event>
 6    1  0.3652367E-005  0.1566653E+03  0.7546771E-02  0.1091108E+00
        -11   -1    0    0    0    0  0.00000000000E+00  0.00000000000E+00  0.18250000000E+03  0.18250000000E+03  0.00000000000E+00 0.  1.
         11   -1    0    0    0    0 -0.00000000000E+00 -0.00000000000E+00 -0.18250000000E+03  0.18250000000E+03  0.00000000000E+00 0. -1.
        -11    1    1    2    0    0  0.84965506375E+02  0.99991602390E+02 -0.81956705253E+02  0.15470733453E+03  0.00000000000E+00 0. -1.
         11    1    1    2    0    0 -0.75835615402E+02 -0.11059162288E+03  0.85350964415E+02  0.15895387615E+03  0.00000000000E+00 0.  1.
        -15    1    1    2    0    0 -0.23201863180E+01 -0.12274864495E+02 -0.18970353501E+02  0.22783494110E+02  0.17770000000E+01 0.  1.
         15    1    1    2    0    0 -0.68097046549E+01  0.22874884989E+02  0.15576094339E+02  0.28555295212E+02  0.17770000000E+01 0. -1.
</event>
<event>
 6    1  0.3652367E-005  0.3650000E+03  0.7546771E-02  0.9765871E-01
        -11   -1    0    0    0    0  0.00000000000E+00  0.00000000000E+00  0.18250000000E+03  0.18250000000E+03  0.00000000000E+00 0.  1.
         11   -1    0    0    0    0 -0.00000000000E+00 -0.00000000000E+00 -0.18250000000E+03  0.18250000000E+03  0.00000000000E+00 0. -1.
        -11    1    1    2    0    0 -0.35789495629E+02 -0.98320270195E+01  0.29473324439E+02  0.47394446997E+02  0.00000000000E+00 0.  1.
         11    1    1    2    0    0 -0.37156639248E+02  0.29288216969E+02  0.20173992190E+02  0.51433505172E+02  0.00000000000E+00 0. -1.
        -15    1    1    2    0    0 -0.71656908170E+02  0.10218343500E+02  0.50063166636E+02  0.88026163242E+02  0.17770000000E+01 0.  1.
         15    1    1    2    0    0  0.14460304305E+03 -0.29674533450E+02 -0.99710483265E+02  0.17814588459E+03  0.17770000000E+01 0. -1.
</event>
<event>
 6    1  0.3652367E-005  0.1107318E+03  0.7546771E-02  0.1146450E+00
        -11   -1    0    0    0    0  0.00000000000E+00  0.00000000000E+00  0.18250000000E+03  0.18250000000E+03  0.00000000000E+00 0.  1.
         11   -1    0    0    0    0 -0.00000000000E+00 -0.00000000000E+00 -0.18250000000E+03  0.18250000000E+03  0.00000000000E+00 0. -1.
        -11    1    1    2    0    0 -0.18932257275E+02 -0.17653640003E+02  0.17963823017E+02  0.31508416467E+02  0.00000000000E+00 0.  1.
         11    1    1    2    0    0 -0.71087760196E+02  0.65981880692E+01 -0.12804794342E+03  0.14660587147E+03  0.00000000000E+00 0. -1.
        -15    1    1    2    0    0  0.33591309919E+02  0.64090766251E+02  0.64857306253E+02  0.97188632689E+02  0.17770000000E+01 0.  1.
         15    1    1    2    0    0  0.56428707552E+02 -0.53035314316E+02  0.45226814152E+02  0.89697079372E+02  0.17770000000E+01 0. -1.
</event>
<event>
 6    1  0.3652367E-005  0.1832010E+03  0.7546771E-02  0.1067898E+00
        -11   -1    0    0    0    0  0.00000000000E+00  0.00000000000E+00  0.18250000000E+03  0.18250000000E+03  0.00000000000E+00 0.  1.
         11   -1    0    0    0    0 -0.00000000000E+00 -0.00000000000E+00 -0.18250000000E+03  0.18250000000E+03  0.00000000000E+00 0. -1.
        -11    1    1    2    0    0 -0.10660834048E+01  0.68262944177E+01 -0.13107536328E+03  0.13125732623E+03  0.00000000000E+00 0. -1.
         11    1    1    2    0    0 -0.80397694643E+01 -0.99074057764E+01 -0.50352242517E+02  0.51943651284E+02  0.00000000000E+00 0.  1.
        -15    1    1    2    0    0  0.50757935281E+01  0.26052361589E+01  0.61502572424E+02  0.61792192704E+02  0.17770000000E+01 0. -1.
         15    1    1    2    0    0  0.40300593411E+01  0.47587519976E+00  0.11992503338E+03  0.12000682978E+03  0.17770000000E+01 0.  1.
</event>
<event>
 6    1  0.3652367E-005  0.3650000E+03  0.7546771E-02  0.9765871E-01
        -11   -1    0    0    0    0  0.00000000000E+00  0.00000000000E+00  0.18250000000E+03  0.18250000000E+03  0.00000000000E+00 0. -1.
         11   -1    0    0    0    0 -0.00000000000E+00 -0.00000000000E+00 -0.18250000000E+03  0.18250000000E+03  0.00000000000E+00 0.  1.
        -11    1    1    2    0    0  0.12662517190E+01  0.79797440352E+00 -0.64346583939E+01  0.66064351364E+01  0.00000000000E+00 0.  1.
         11    1    1    2    0    0  0.27510574653E+00  0.43187622638E+00 -0.16315258917E+01  0.17099932696E+01  0.00000000000E+00 0. -1.
        -15    1    1    2    0    0 -0.15039022674E+03 -0.10357620775E+02  0.10053522430E+03  0.18120427606E+03  0.17770000000E+01 0. -1.
         15    1    1    2    0    0  0.14884886927E+03  0.91277701448E+01 -0.92469040018E+02  0.17547929554E+03  0.17770000000E+01 0.  1.
</event>
<event>
 6    1  0.3652367E-005  0.1633663E+03  0.7546771E-02  0.1084795E+00
        -11   -1    0    0    0    0  0.00000000000E+00  0.00000000000E+00  0.18250000000E+03  0.18250000000E+03  0.00000000000E+00 0.  1.
         11   -1    0    0    0    0 -0.00000000000E+00 -0.00000000000E+00 -0.18250000000E+03  0.18250000000E+03  0.00000000000E+00 0. -1.
        -11    1    1    2    0    0 -0.33600478249E+02 -0.15403944542E+02 -0.74929117072E+01  0.37714948918E+02  0.00000000000E+00 0.  1.
         11    1    1    2    0    0 -0.93603726985E+01  0.91177707037E+02 -0.13231697420E+03  0.16096202192E+03  0.00000000000E+00 0. -1.
        -15    1    1    2    0    0  0.21336482316E+00 -0.13262345963E+02  0.13295674410E+02  0.18864464795E+02  0.17770000000E+01 0. -1.
         15    1    1    2    0    0  0.42747486124E+02 -0.62511416532E+02  0.12651421150E+03  0.14745856437E+03  0.17770000000E+01 0.  1.
</event>
<event>
 6    1  0.3652367E-005  0.1825519E+03  0.7546771E-02  0.1068413E+00
        -11   -1    0    0    0    0  0.00000000000E+00  0.00000000000E+00  0.18250000000E+03  0.18250000000E+03  0.00000000000E+00 0.  1.
         11   -1    0    0    0    0 -0.00000000000E+00 -0.00000000000E+00 -0.18250000000E+03  0.18250000000E+03  0.00000000000E+00 0. -1.
        -11    1    1    2    0    0  0.45208595177E+01  0.53717009907E+01 -0.17800957781E+03  0.17814798100E+03  0.00000000000E+00 0. -1.
         11    1    1    2    0    0  0.78242524250E-01  0.65052779889E+00 -0.42498695956E+01  0.43000813817E+01  0.00000000000E+00 0.  1.
        -15    1    1    2    0    0 -0.89629796620E+00 -0.40458214617E+01  0.13448391780E+03  0.13455948089E+03  0.17770000000E+01 0.  1.
         15    1    1    2    0    0 -0.37028040757E+01 -0.19764073279E+01  0.47775529611E+02  0.47992456726E+02  0.17770000000E+01 0. -1.
</event>
<event>
 6    1  0.3652367E-005  0.3650000E+03  0.7546771E-02  0.9765871E-01
        -11   -1    0    0    0    0  0.00000000000E+00  0.00000000000E+00  0.18250000000E+03  0.18250000000E+03  0.00000000000E+00 0.  1.
         11   -1    0    0    0    0 -0.00000000000E+00 -0.00000000000E+00 -0.18250000000E+03  0.18250000000E+03  0.00000000000E+00 0. -1.
        -11    1    1    2    0    0 -0.21600713810E+01 -0.23546022546E+01 -0.53187730360E+01  0.62047890179E+01  0.00000000000E+00 0. -1.
         11    1    1    2    0    0 -0.31227305327E+01 -0.18613556700E+01 -0.31793342158E+01  0.48295193308E+01  0.00000000000E+00 0.  1.
        -15    1    1    2    0    0  0.55844202033E+02  0.12996720962E+03  0.11441435428E+03  0.18194464178E+03  0.17770000000E+01 0.  1.
         15    1    1    2    0    0 -0.50561400119E+02 -0.12575125170E+03 -0.10591624703E+03  0.17202104987E+03  0.17770000000E+01 0. -1.
</event>
<event>
 6    1  0.3652367E-005  0.1826877E+03  0.7546771E-02  0.1068305E+00
        -11   -1    0    0    0    0  0.00000000000E+00  0.00000000000E+00  0.18250000000E+03  0.18250000000E+03  0.00000000000E+00 0.  1.
         11   -1    0    0    0    0 -0.00000000000E+00 -0.00000000000E+00 -0.18250000000E+03  0.18250000000E+03  0.00000000000E+00 0. -1.
        -11    1    1    2    0    0 -0.98405926088E+01 -0.10375839779E+02 -0.13076926866E+03  0.13154883861E+03  0.00000000000E+00 0.  1.
         11    1    1    2    0    0  0.66188428451E+01  0.11592258535E+02 -0.48976893828E+02  0.50763428446E+02  0.00000000000E+00 0. -1.
        -15    1    1    2    0    0 -0.32360474678E+01 -0.24059450257E+00  0.17330406761E+03  0.17334355329E+03  0.17770000000E+01 0.  1.
         15    1    1    2    0    0  0.64577972315E+01 -0.97582425326E+00  0.64420948796E+01  0.93441796587E+01  0.17770000000E+01 0. -1.
</event>
<event>
 6    1  0.3652367E-005  0.2003637E+03  0.7546771E-02  0.1055062E+00
        -11   -1    0    0    0    0  0.00000000000E+00  0.00000000000E+00  0.18250000000E+03  0.18250000000E+03  0.00000000000E+00 0. -1.
         11   -1    0    0    0    0 -0.00000000000E+00 -0.00000000000E+00 -0.18250000000E+03  0.18250000000E+03  0.00000000000E+00 0.  1.
        -11    1    1    2    0    0  0.35104014806E+01 -0.61418103275E+01 -0.13196066460E+03  0.13215014853E+03  0.00000000000E+00 0.  1.
         11    1    1    2    0    0 -0.24544634488E+01 -0.33296030122E+01 -0.32221709697E+02  0.32486138934E+02  0.00000000000E+00 0. -1.
        -15    1    1    2    0    0 -0.61447722362E+01  0.54184036765E+02  0.13770717622E+03  0.14812188285E+03  0.17770000000E+01 0. -1.
         15    1    1    2    0    0  0.50888342044E+01 -0.44712623425E+02  0.26475198080E+02  0.52241829691E+02  0.17770000000E+01 0.  1.
</event>
<event>
 6    1  0.3652367E-005  0.1859590E+03  0.7546771E-02  0.1065734E+00
        -11   -1    0    0    0    0  0.00000000000E+00  0.00000000000E+00  0.18250000000E+03  0.18250000000E+03  0.00000000000E+00 0.  1.
         11   -1    0    0    0    0 -0.00000000000E+00 -0.00000000000E+00 -0.18250000000E+03  0.18250000000E+03  0.00000000000E+00 0.  1.
        -11    1    1    2    0    0  0.54175709204E+01 -0.13347570231E+01 -0.15429957886E+03  0.15440042645E+03  0.00000000000E+00 0.  1.
         11    1    1    2    0    0  0.10097060362E+01 -0.12337215676E+01 -0.24588959655E+02  0.24640586683E+02  0.00000000000E+00 0.  1.
        -15    1    1    2    0    0 -0.13331415086E+02  0.44711861012E+01  0.11084587866E+02  0.17992886108E+02  0.17770000000E+01 0. -1.
         15    1    1    2    0    0  0.69041381290E+01 -0.19027075105E+01  0.16780395065E+03  0.16796610076E+03  0.17770000000E+01 0.  1.
</event>
<event>
 6    1  0.3652367E-005  0.1873747E+03  0.7546771E-02  0.1064639E+00
        -11   -1    0    0    0    0  0.00000000000E+00  0.00000000000E+00  0.18250000000E+03  0.18250000000E+03  0.00000000000E+00 0. -1.
         11   -1    0    0    0    0 -0.00000000000E+00 -0.00000000000E+00 -0.18250000000E+03  0.18250000000E+03  0.00000000000E+00 0. -1.
        -11    1    1    2    0    0 -0.79253755287E+02 -0.11164440200E+03 -0.11315976592E+03  0.17762534405E+03  0.00000000000E+00 0. -1.
         11    1    1    2    0    0  0.70555304814E+02  0.11622675150E+03  0.99715180503E+02  0.16861146469E+03  0.00000000000E+00 0. -1.
        -15    1    1    2    0    0  0.44027744635E+01 -0.64927584340E+01  0.87579502011E+01  0.11891162928E+02  0.17770000000E+01 0.  1.
         15    1    1    2    0    0  0.42956760098E+01  0.19104089371E+01  0.46866352192E+01  0.68720283298E+01  0.17770000000E+01 0. -1.
</event>
<event>
 6    1  0.3652367E-005  0.2154537E+03  0.7546771E-02  0.1044883E+00
        -11   -1    0    0    0    0  0.00000000000E+00  0.00000000000E+00  0.18250000000E+03  0.18250000000E+03  0.00000000000E+00 0. -1.
         11   -1    0    0    0    0 -0.00000000000E+00 -0.00000000000E+00 -0.18250000000E+03  0.18250000000E+03  0.00000000000E+00 0.  1.
        -11    1    1    2    0    0  0.33890411978E+01  0.17020606507E+02  0.13694896041E+03  0.13804421177E+03  0.00000000000E+00 0. -1.
         11    1    1    2    0    0 -0.61151001149E+00  0.25905747896E+01  0.11189878783E+02  0.11502104565E+02  0.00000000000E+00 0.  1.
        -15    1    1    2    0    0 -0.55297584780E+01  0.68150564571E+02 -0.59155670081E+02  0.90430242242E+02  0.17770000000E+01 0. -1.
         15    1    1    2    0    0  0.27522272917E+01 -0.87761745868E+02 -0.88983169108E+02  0.12502344143E+03  0.17770000000E+01 0.  1.
</event>
<event>
 6    1  0.3652367E-005  0.1836622E+03  0.7546771E-02  0.1067533E+00
        -11   -1    0    0    0    0  0.00000000000E+00  0.00000000000E+00  0.18250000000E+03  0.18250000000E+03  0.00000000000E+00 0.  1.
         11   -1    0    0    0    0 -0.00000000000E+00 -0.00000000000E+00 -0.18250000000E+03  0.18250000000E+03  0.00000000000E+00 0. -1.
        -11    1    1    2    0    0  0.32772460289E+01  0.50383272673E+01 -0.14501926484E+03  0.14514376410E+03  0.00000000000E+00 0.  1.
         11    1    1    2    0    0  0.49928556128E+00  0.35624668839E+00 -0.36188807169E+02  0.36194004505E+02  0.00000000000E+00 0. -1.
        -15    1    1    2    0    0 -0.12725047167E+02  0.64922301098E+01  0.71424555614E+02  0.72860831390E+02  0.17770000000E+01 0.  1.
         15    1    1    2    0    0  0.89485155767E+01 -0.11886804065E+02  0.10978351639E+03  0.11080140000E+03  0.17770000000E+01 0. -1.
</event>
<event>
 6    1  0.3652367E-005  0.1844446E+03  0.7546771E-02  0.1066917E+00
        -11   -1    0    0    0    0  0.00000000000E+00  0.00000000000E+00  0.18250000000E+03  0.18250000000E+03  0.00000000000E+00 0. -1.
         11   -1    0    0    0    0 -0.00000000000E+00 -0.00000000000E+00 -0.18250000000E+03  0.18250000000E+03  0.00000000000E+00 0. -1.
        -11    1    1    2    0    0 -0.18502921746E+02  0.48107038983E+02 -0.95132861009E+02  0.10819845912E+03  0.00000000000E+00 0. -1.
         11    1    1    2    0    0  0.94163294222E+01 -0.61807536710E+02  0.16938542764E+03  0.18055542626E+03  0.00000000000E+00 0. -1.
        -15    1    1    2    0    0  0.37717427867E+01  0.54567404972E+01 -0.21845788109E+02  0.22899743396E+02  0.17770000000E+01 0. -1.
         15    1    1    2    0    0  0.53148495367E+01  0.82437572298E+01 -0.52406778522E+02  0.53346371225E+02  0.17770000000E+01 0. -1.
</event>
<event>
 6    1  0.3652367E-005  0.1256727E+03  0.7546771E-02  0.1125611E+00
        -11   -1    0    0    0    0  0.00000000000E+00  0.00000000000E+00  0.18250000000E+03  0.18250000000E+03  0.00000000000E+00 0.  1.
         11   -1    0    0    0    0 -0.00000000000E+00 -0.00000000000E+00 -0.18250000000E+03  0.18250000000E+03  0.00000000000E+00 0.  1.
        -11    1    1    2    0    0  0.84301758201E+02 -0.36469018981E+02 -0.11263325590E+03  0.14533762801E+03  0.00000000000E+00 0.  1.
         11    1    1    2    0    0 -0.89570601080E+02  0.33299872344E+02 -0.10484522615E+02  0.96133757288E+02  0.00000000000E+00 0.  1.
        -15    1    1    2    0    0  0.40759895634E+01  0.72848274591E+00  0.28398570779E+02  0.28753798520E+02  0.17770000000E+01 0.  1.
         15    1    1    2    0    0  0.11928533153E+01  0.24406638916E+01  0.94719207735E+02  0.94774816181E+02  0.17770000000E+01 0.  1.
</event>
<event>
 6    1  0.3652367E-005  0.1841938E+03  0.7546771E-02  0.1067114E+00
        -11   -1    0    0    0    0  0.00000000000E+00  0.00000000000E+00  0.18250000000E+03  0.18250000000E+03  0.00000000000E+00 0. -1.
         11   -1    0    0    0    0 -0.00000000000E+00 -0.00000000000E+00 -0.18250000000E+03  0.18250000000E+03  0.00000000000E+00 0. -1.
        -11    1    1    2    0    0  0.55041548352E+01 -0.87033139706E+01 -0.10516282311E+03  0.10566580695E+03  0.00000000000E+00 0. -1.
         11    1    1    2    0    0 -0.10405733383E+02  0.20481086972E+02 -0.75092586489E+02  0.78528025293E+02  0.00000000000E+00 0. -1.
        -15    1    1    2    0    0  0.14427966444E+01 -0.80913362325E+01  0.90050237327E+02  0.90441994426E+02  0.17770000000E+01 0. -1.
         15    1    1    2    0    0  0.34587819036E+01 -0.36864367687E+01  0.90205172270E+02  0.90364173330E+02  0.17770000000E+01 0. -1.
</event>
<event>
 6    1  0.3652367E-005  0.2565522E+03  0.7546771E-02  0.1021210E+00
        -11   -1    0    0    0    0  0.00000000000E+00  0.00000000000E+00  0.18250000000E+03  0.18250000000E+03  0.00000000000E+00 0.  1.
         11   -1    0    0    0    0 -0.00000000000E+00 -0.00000000000E+00 -0.18250000000E+03  0.18250000000E+03  0.00000000000E+00 0. -1.
        -11    1    1    2    0    0 -0.68023496447E+00  0.30513676658E+00 -0.24315639742E+02  0.24327066492E+02  0.00000000000E+00 0. -1.
         11    1    1    2    0    0 -0.15542399197E+01  0.24939685582E+01 -0.84069435559E+02  0.84120779455E+02  0.00000000000E+00 0.  1.
        -15    1    1    2    0    0  0.32391476350E+02 -0.10691440124E+03  0.13605445352E+02  0.11255293335E+03  0.17770000000E+01 0.  1.
         15    1    1    2    0    0 -0.30157001466E+02  0.10411529592E+03  0.94779629949E+02  0.14399922070E+03  0.17770000000E+01 0. -1.
</event>
<event>
 6    1  0.3652367E-005  0.1421119E+03  0.7546771E-02  0.1106099E+00
        -11   -1    0    0    0    0  0.00000000000E+00  0.00000000000E+00  0.18250000000E+03  0.18250000000E+03  0.00000000000E+00 0.  1.
         11   -1    0    0    0    0 -0.00000000000E+00 -0.00000000000E+00 -0.18250000000E+03  0.18250000000E+03  0.00000000000E+00 0.  1.
        -11    1    1    2    0    0  0.53556608287E+02  0.49178453523E+02  0.10488872060E+03  0.12762630721E+03  0.00000000000E+00 0.  1.
         11    1    1    2    0    0  0.37069497312E+02  0.53557882698E+02 -0.45172028459E+02  0.79266049385E+02  0.00000000000E+00 0.  1.
        -15    1    1    2    0    0 -0.77516740977E+02 -0.96012741144E+02 -0.33328327894E+02  0.12783280785E+03  0.17770000000E+01 0.  1.
         15    1    1    2    0    0 -0.13109364622E+02 -0.67235950776E+01 -0.26388364246E+02  0.30274835559E+02  0.17770000000E+01 0. -1.
</event>
<event>
 6    1  0.3652367E-005  0.1853006E+03  0.7546771E-02  0.1066247E+00
        -11   -1    0    0    0    0  0.00000000000E+00  0.00000000000E+00  0.18250000000E+03  0.18250000000E+03  0.00000000000E+00 0. -1.
         11   -1    0    0    0    0 -0.00000000000E+00 -0.00000000000E+00 -0.18250000000E+03  0.18250000000E+03  0.00000000000E+00 0.  1.
        -11    1    1    2    0    0  0.16955246664E+02  0.23130345045E+01 -0.16614599296E+03  0.16702491280E+03  0.00000000000E+00 0.  1.
         11    1    1    2    0    0  0.47399364437E+00 -0.40991632100E+01 -0.11983895455E+02  0.12674445127E+02  0.00000000000E+00 0. -1.
        -15    1    1    2    0    0 -0.18642967004E+02 -0.84200565297E+01  0.27550989068E+02  0.34360912361E+02  0.17770000000E+01 0.  1.
         15    1    1    2    0    0  0.12137266957E+01  0.10206185235E+02  0.15057889935E+03  0.15093972972E+03  0.17770000000E+01 0. -1.
</event>
<event>
 6    1  0.3652367E-005  0.1855625E+03  0.7546771E-02  0.1066043E+00
        -11   -1    0    0    0    0  0.00000000000E+00  0.00000000000E+00  0.18250000000E+03  0.18250000000E+03  0.00000000000E+00 0.  1.
         11   -1    0    0    0    0 -0.00000000000E+00 -0.00000000000E+00 -0.18250000000E+03  0.18250000000E+03  0.00000000000E+00 0. -1.
        -11    1    1    2    0    0  0.74980260762E+00 -0.60958711977E+01 -0.13732269995E+03  0.13745997880E+03  0.00000000000E+00 0. -1.
         11    1    1    2    0    0  0.75227403746E+00 -0.32954540531E+01 -0.41841222237E+02  0.41977539375E+02  0.00000000000E+00 0.  1.
        -15    1    1    2    0    0 -0.60017665578E+01 -0.16878422598E+02  0.10918126438E+03  0.11065535944E+03  0.17770000000E+01 0.  1.
         15    1    1    2    0    0  0.44996899127E+01  0.26269747849E+02  0.69982657810E+02  0.74907122388E+02  0.17770000000E+01 0. -1.
</event>
<event>
 6    1  0.3652367E-005  0.3451644E+03  0.7546771E-02  0.9833924E-01
        -11   -1    0    0    0    0  0.00000000000E+00  0.00000000000E+00  0.18250000000E+03  0.18250000000E+03  0.00000000000E+00 0.  1.
         11   -1    0    0    0    0 -0.00000000000E+00 -0.00000000000E+00 -0.18250000000E+03  0.18250000000E+03  0.00000000000E+00 0. -1.
        -11    1    1    2    0    0 -0.31551810600E+01 -0.46576997107E+00 -0.49711083038E+01  0.59062701391E+01  0.00000000000E+00 0. -1.
         11    1    1    2    0    0 -0.94541023160E+00 -0.30471579539E+01 -0.13559002611E+02  0.13929304502E+02  0.00000000000E+00 0.  1.
        -15    1    1    2    0    0  0.67162642438E+02  0.15296772405E+03 -0.41568426151E+02  0.17216572517E+03  0.17770000000E+01 0.  1.
         15    1    1    2    0    0 -0.63062051146E+02 -0.14945479613E+03  0.60098537066E+02  0.17299870019E+03  0.17770000000E+01 0. -1.
</event>
<event>
 6    1  0.3652367E-005  0.2106356E+03  0.7546771E-02  0.1048032E+00
        -11   -1    0    0    0    0  0.00000000000E+00  0.00000000000E+00  0.18250000000E+03  0.18250000000E+03  0.00000000000E+00 0. -1.
         11   -1    0    0    0    0 -0.00000000000E+00 -0.00000000000E+00 -0.18250000000E+03  0.18250000000E+03  0.00000000000E+00 0.  1.
        -11    1    1    2    0    0 -0.95536631928E+01  0.33203932582E+02  0.14812299411E+03  0.15209929324E+03  0.00000000000E+00 0. -1.
         11    1    1    2    0    0 -0.62726773158E+00  0.40720939682E+00  0.21381320591E+01  0.22651474570E+01  0.00000000000E+00 0.  1.
        -15    1    1    2    0    0 -0.61616009045E+02  0.52646281684E+01 -0.40966138040E+02  0.74199939860E+02  0.17770000000E+01 0. -1.
         15    1    1    2    0    0  0.71796939969E+02 -0.38875770148E+02 -0.10929498813E+03  0.13643561944E+03  0.17770000000E+01 0.  1.
</event>
<event>
 6    1  0.3652367E-005  0.1829690E+03  0.7546771E-02  0.1068082E+00
        -11   -1    0    0    0    0  0.00000000000E+00  0.00000000000E+00  0.18250000000E+03  0.18250000000E+03  0.00000000000E+00 0. -1.
         11   -1    0    0    0    0 -0.00000000000E+00 -0.00000000000E+00 -0.18250000000E+03  0.18250000000E+03  0.00000000000E+00 0.  1.
        -11    1    1    2    0    0 -0.24805478656E+01 -0.47332343452E+01 -0.17222083250E+03  0.17230371955E+03  0.00000000000E+00 0.  1.
         11    1    1    2    0    0  0.23668123869E+00 -0.48307901589E+00 -0.97123948617E+01  0.97272810843E+01  0.00000000000E+00 0. -1.
        -15    1    1    2    0    0  0.44036039967E+01  0.70339977026E+01  0.17565313784E+03  0.17585804336E+03  0.17770000000E+01 0. -1.
         15    1    1    2    0    0 -0.21597373698E+01 -0.18176843416E+01  0.62800895197E+01  0.71109560010E+01  0.17770000000E+01 0.  1.
</event>
<event>
 6    1  0.3652367E-005  0.1827060E+03  0.7546771E-02  0.1068291E+00
        -11   -1    0    0    0    0  0.00000000000E+00  0.00000000000E+00  0.18250000000E+03  0.18250000000E+03  0.00000000000E+00 0.  1.
         11   -1    0    0    0    0 -0.00000000000E+00 -0.00000000000E+00 -0.18250000000E+03  0.18250000000E+03  0.00000000000E+00 0. -1.
        -11    1    1    2    0    0  0.60124978005E+01 -0.19442120443E+02  0.16071323704E+03  0.16199657631E+03  0.00000000000E+00 0.  1.
         11    1    1    2    0    0 -0.39676932562E+01 -0.15107187842E+01  0.20269604379E+02  0.20709459740E+02  0.00000000000E+00 0. -1.
        -15    1    1    2    0    0  0.13361322134E+01  0.70653707575E+01 -0.64621652810E+02  0.65044757314E+02  0.17770000000E+01 0. -1.
         15    1    1    2    0    0 -0.33809367578E+01  0.13887468469E+02 -0.11636118861E+03  0.11724920664E+03  0.17770000000E+01 0. -1.
</event>
<event>
 6    1  0.3652367E-005  0.2397149E+03  0.7546771E-02  0.1030283E+00
        -11   -1    0    0    0    0  0.00000000000E+00  0.00000000000E+00  0.18250000000E+03  0.18250000000E+03  0.00000000000E+00 0.  1.
         11   -1    0    0    0    0 -0.00000000000E+00 -0.00000000000E+00 -0.18250000000E+03  0.18250000000E+03  0.00000000000E+00 0. -1.
        -11    1    1    2    0    0  0.15760264442E+01 -0.11582847077E+02 -0.11341190657E+03  0.11401274822E+03  0.00000000000E+00 0. -1.
         11    1    1    2    0    0  0.10984934026E+01 -0.15620396217E+01 -0.11109376020E+02  0.11272306379E+02  0.00000000000E+00 0.  1.
        -15    1    1    2    0    0  0.32038026565E+02  0.99472582355E+02  0.97184283060E+02  0.14272060955E+03  0.17770000000E+01 0.  1.
         15    1    1    2    0    0 -0.34712546412E+02 -0.86327695656E+02  0.27336999526E+02  0.96994335854E+02  0.17770000000E+01 0. -1.
</event>
<event>
 6    1  0.3767370E-005  0.1828008E+03  0.7546771E-02  0.1068216E+00
        -11   -1    0    0    0    0  0.00000000000E+00  0.00000000000E+00  0.18250000000E+03  0.18250000000E+03  0.00000000000E+00 0.  1.
         11   -1    0    0    0    0 -0.00000000000E+00 -0.00000000000E+00 -0.18250000000E+03  0.18250000000E+03  0.00000000000E+00 0.  1.
        -11    1    1    2    0    0  0.45904940600E+01 -0.48917915928E+00  0.20588168491E+02  0.21099398422E+02  0.00000000000E+00 0.  1.
         11    1    1    2    0    0 -0.75525803986E+01 -0.64431786155E+01  0.16139641308E+03  0.16170144766E+03  0.00000000000E+00 0.  1.
        -15    1    1    2    0    0  0.12700276634E+01  0.43158971009E+01 -0.75922277464E+02  0.76076211015E+02  0.17770000000E+01 0.  1.
         15    1    1    2    0    0  0.16920586752E+01  0.26164606738E+01 -0.10606230410E+03  0.10612294290E+03  0.17770000000E+01 0.  1.
</event>
<event>
 6    1  0.3652367E-005  0.1830617E+03  0.7546771E-02  0.1068009E+00
        -11   -1    0    0    0    0  0.00000000000E+00  0.00000000000E+00  0.18250000000E+03  0.18250000000E+03  0.00000000000E+00 0.  1.
         11   -1    0    0    0    0 -0.00000000000E+00 -0.00000000000E+00 -0.18250000000E+03  0.18250000000E+03  0.00000000000E+00 0. -1.
        -11    1    1    2    0    0 -0.58112183693E+01 -0.86353709479E+01  0.10886522875E+02  0.15061748592E+02  0.00000000000E+00 0. -1.
         11    1    1    2    0    0 -0.10158462385E+02 -0.54484223705E+02  0.15859465870E+03  0.16799997250E+03  0.00000000000E+00 0.  1.
        -15    1    1    2    0    0  0.16894045613E+02  0.60640098059E+02 -0.16161033096E+03  0.17344649628E+03  0.17770000000E+01 0. -1.
         15    1    1    2    0    0 -0.92436485917E+00  0.24794965945E+01 -0.78708506147E+01  0.84917826252E+01  0.17770000000E+01 0.  1.
</event>
<event>
 6    1  0.3652367E-005  0.1856109E+03  0.7546771E-02  0.1066005E+00
        -11   -1    0    0    0    0  0.00000000000E+00  0.00000000000E+00  0.18250000000E+03  0.18250000000E+03  0.00000000000E+00 0. -1.
         11   -1    0    0    0    0 -0.00000000000E+00 -0.00000000000E+00 -0.18250000000E+03  0.18250000000E+03  0.00000000000E+00 0. -1.
        -11    1    1    2    0    0  0.55378482236E+01 -0.49460968655E+02  0.10845498761E+03  0.11932954169E+03  0.00000000000E+00 0. -1.
         11    1    1    2    0    0 -0.17460806588E+01  0.11680980355E+02  0.65220587604E+02  0.66281363498E+02  0.00000000000E+00 0. -1.
        -15    1    1    2    0    0  0.38457209455E+00  0.33256717645E+02 -0.16637178193E+03  0.16967287561E+03  0.17770000000E+01 0. -1.
         15    1    1    2    0    0 -0.41763396594E+01  0.45232706538E+01 -0.73037932784E+01  0.97162192036E+01  0.17770000000E+01 0.  1.
</event>
<event>
 6    1  0.3652367E-005  0.1882494E+03  0.7546771E-02  0.1063968E+00
        -11   -1    0    0    0    0  0.00000000000E+00  0.00000000000E+00  0.18250000000E+03  0.18250000000E+03  0.00000000000E+00 0.  1.
         11   -1    0    0    0    0 -0.00000000000E+00 -0.00000000000E+00 -0.18250000000E+03  0.18250000000E+03  0.00000000000E+00 0.  1.
        -11    1    1    2    0    0 -0.62243174987E+00 -0.35207618964E+01 -0.12691810189E+03  0.12696845188E+03  0.00000000000E+00 0.  1.
         11    1    1    2    0    0  0.35842702033E+01 -0.13986225931E+01 -0.49633286735E+02  0.49782188483E+02  0.00000000000E+00 0.  1.
        -15    1    1    2    0    0  0.28995952854E+02 -0.87468460736E+01  0.75211153125E+02  0.81099617025E+02  0.17770000000E+01 0. -1.
         15    1    1    2    0    0 -0.31957791308E+02  0.13666230563E+02  0.10134023550E+03  0.10714974261E+03  0.17770000000E+01 0.  1.
</event>
<event>
 6    1  0.4141129E-005  0.1825586E+03  0.7546771E-02  0.1068408E+00
        -11   -1    0    0    0    0  0.00000000000E+00  0.00000000000E+00  0.18250000000E+03  0.18250000000E+03  0.00000000000E+00 0.  1.
         11   -1    0    0    0    0 -0.00000000000E+00 -0.00000000000E+00 -0.18250000000E+03  0.18250000000E+03  0.00000000000E+00 0.  1.
        -11    1    1    2    0    0 -0.15230432202E+01  0.26875812230E+01  0.27310027642E+02  0.27484183876E+02  0.00000000000E+00 0.  1.
         11    1    1    2    0    0 -0.11579881614E+02  0.36532945401E+01  0.15448071325E+03  0.15495719082E+03  0.00000000000E+00 0.  1.
        -15    1    1    2    0    0  0.10402381580E+02 -0.18928037746E+01 -0.13959292931E+03  0.14000405669E+03  0.17770000000E+01 0.  1.
         15    1    1    2    0    0  0.27005432538E+01 -0.44480719885E+01 -0.42197811588E+02  0.42554568616E+02  0.17770000000E+01 0. -1.
</event>
<event>
 6    1  0.3652367E-005  0.1762568E+03  0.7546771E-02  0.1073536E+00
        -11   -1    0    0    0    0  0.00000000000E+00  0.00000000000E+00  0.18250000000E+03  0.18250000000E+03  0.00000000000E+00 0.  1.
         11   -1    0    0    0    0 -0.00000000000E+00 -0.00000000000E+00 -0.18250000000E+03  0.18250000000E+03  0.00000000000E+00 0. -1.
        -11    1    1    2    0    0 -0.27675986950E+00  0.12100004686E+02  0.37308279178E+01  0.12665140598E+02  0.00000000000E+00 0. -1.
         11    1    1    2    0    0 -0.23316213994E+02  0.30532690680E+02  0.16856245273E+03  0.17288490827E+03  0.00000000000E+00 0.  1.
        -15    1    1    2    0    0  0.19943242718E+02 -0.39850855959E+02 -0.16222065595E+03  0.16823947990E+03  0.17770000000E+01 0. -1.
         15    1    1    2    0    0  0.36497311452E+01 -0.27818394066E+01 -0.10072624701E+02  0.11210471234E+02  0.17770000000E+01 0.  1.
</event>
<event>
 6    1  0.3652367E-005  0.1417583E+03  0.7546771E-02  0.1106488E+00
        -11   -1    0    0    0    0  0.00000000000E+00  0.00000000000E+00  0.18250000000E+03  0.18250000000E+03  0.00000000000E+00 0. -1.
         11   -1    0    0    0    0 -0.00000000000E+00 -0.00000000000E+00 -0.18250000000E+03  0.18250000000E+03  0.00000000000E+00 0. -1.
        -11    1    1    2    0    0  0.38890172392E+02  0.19673772220E+02 -0.63253146464E+02  0.76814473634E+02  0.00000000000E+00 0. -1.
         11    1    1    2    0    0 -0.55317439274E+02 -0.37759855868E+02 -0.98873161163E+02  0.11942247611E+03  0.00000000000E+00 0. -1.
        -15    1    1    2    0    0 -0.11249613924E+02 -0.29930068173E+01  0.33798901612E+02  0.35791554624E+02  0.17770000000E+01 0.  1.
         15    1    1    2    0    0  0.27676880805E+02  0.21079090465E+02  0.12832740601E+03  0.13297149563E+03  0.17770000000E+01 0. -1.
</event>
<event>
 6    1  0.3652367E-005  0.1831867E+03  0.7546771E-02  0.1067909E+00
        -11   -1    0    0    0    0  0.00000000000E+00  0.00000000000E+00  0.18250000000E+03  0.18250000000E+03  0.00000000000E+00 0.  1.
         11   -1    0    0    0    0 -0.00000000000E+00 -0.00000000000E+00 -0.18250000000E+03  0.18250000000E+03  0.00000000000E+00 0.  1.
        -11    1    1    2    0    0 -0.19751356124E+01  0.51673172435E+01 -0.11973525612E+02  0.13189679441E+02  0.00000000000E+00 0.  1.
         11    1    1    2    0    0  0.69609028808E+01 -0.86559227446E+01 -0.16963376514E+03  0.16999703951E+03  0.00000000000E+00 0.  1.
        -15    1    1    2    0    0 -0.96279224197E+00  0.21380817429E+01  0.31919276839E+02  0.32054583532E+02  0.17770000000E+01 0.  1.
         15    1    1    2    0    0 -0.40229750263E+01  0.13505237582E+01  0.14968801391E+03  0.14975869751E+03  0.17770000000E+01 0.  1.
</event>
<event>
 6    1  0.3652367E-005  0.1860595E+03  0.7546771E-02  0.1065656E+00
        -11   -1    0    0    0    0  0.00000000000E+00  0.00000000000E+00  0.18250000000E+03  0.18250000000E+03  0.00000000000E+00 0.  1.
         11   -1    0    0    0    0 -0.00000000000E+00 -0.00000000000E+00 -0.18250000000E+03  0.18250000000E+03  0.00000000000E+00 0. -1.
        -11    1    1    2    0    0 -0.59745065422E+01 -0.24469475485E+01 -0.47035817100E+02  0.47476840364E+02  0.00000000000E+00 0.  1.
         11    1    1    2    0    0  0.10718687570E+02 -0.27462451823E+01 -0.13099721865E+03  0.13146369621E+03  0.00000000000E+00 0. -1.
        -15    1    1    2    0    0  0.23456910267E+02  0.35118413013E+01  0.57061036346E+02  0.61819732015E+02  0.17770000000E+01 0. -1.
         15    1    1    2    0    0 -0.28201091295E+02  0.16813514295E+01  0.12097199941E+03  0.12423973141E+03  0.17770000000E+01 0.  1.
</event>
<event>
 6    1  0.3652367E-005  0.1299332E+03  0.7546771E-02  0.1120250E+00
        -11   -1    0    0    0    0  0.00000000000E+00  0.00000000000E+00  0.18250000000E+03  0.18250000000E+03  0.00000000000E+00 0.  1.
         11   -1    0    0    0    0 -0.00000000000E+00 -0.00000000000E+00 -0.18250000000E+03  0.18250000000E+03  0.00000000000E+00 0.  1.
        -11    1    1    2    0    0 -0.57507535917E+02 -0.53214860847E+01 -0.70329450784E+02  0.91003662284E+02  0.00000000000E+00 0.  1.
         11    1    1    2    0    0  0.27769688045E+02 -0.82022434179E+02 -0.65568644472E+02  0.10861897818E+03  0.00000000000E+00 0.  1.
        -15    1    1    2    0    0  0.14473673859E+02  0.40313657831E+02  0.46827738584E+02  0.63487582035E+02  0.17770000000E+01 0. -1.
         15    1    1    2    0    0  0.15264174013E+02  0.47030262432E+02  0.89070356672E+02  0.10188977750E+03  0.17770000000E+01 0.  1.
</event>
<event>
 6    1  0.3652367E-005  0.1832796E+03  0.7546771E-02  0.1067836E+00
        -11   -1    0    0    0    0  0.00000000000E+00  0.00000000000E+00  0.18250000000E+03  0.18250000000E+03  0.00000000000E+00 0. -1.
         11   -1    0    0    0    0 -0.00000000000E+00 -0.00000000000E+00 -0.18250000000E+03  0.18250000000E+03  0.00000000000E+00 0.  1.
        -11    1    1    2    0    0  0.22086924975E+02  0.40266232378E+02 -0.12454849981E+03  0.13274611304E+03  0.00000000000E+00 0.  1.
         11    1    1    2    0    0  0.38470849052E+01  0.77818857595E+01 -0.48198821697E+02  0.48974322060E+02  0.00000000000E+00 0. -1.
        -15    1    1    2    0    0 -0.22103785368E+01 -0.33657148197E+01  0.54177572810E+02  0.54356057014E+02  0.17770000000E+01 0.  1.
         15    1    1    2    0    0 -0.23723631343E+02 -0.44682403318E+02  0.11856974869E+03  0.12892350788E+03  0.17770000000E+01 0. -1.
</event>
<event>
 6    1  0.3652367E-005  0.1828479E+03  0.7546771E-02  0.1068178E+00
        -11   -1    0    0    0    0  0.00000000000E+00  0.00000000000E+00  0.18250000000E+03  0.18250000000E+03  0.00000000000E+00 0.  1.
         11   -1    0    0    0    0 -0.00000000000E+00 -0.00000000000E+00 -0.18250000000E+03  0.18250000000E+03  0.00000000000E+00 0. -1.
        -11    1    1    2    0    0 -0.18622314662E+01  0.12160653614E+01 -0.46046118454E+02  0.46099802014E+02  0.00000000000E+00 0.  1.
         11    1    1    2    0    0  0.11792230995E+01 -0.27544419773E+01 -0.13601926735E+03  0.13605226425E+03  0.00000000000E+00 0. -1.
        -15    1    1    2    0    0 -0.36490010514E+01  0.75178708254E+01  0.68839701008E+02  0.69367829390E+02  0.17770000000E+01 0. -1.
         15    1    1    2    0    0  0.43320094180E+01 -0.59794942096E+01  0.11322568479E+03  0.11348010435E+03  0.17770000000E+01 0.  1.
</event>
<event>
 6    1  0.3652367E-005  0.1838392E+03  0.7546771E-02  0.1067394E+00
        -11   -1    0    0    0    0  0.00000000000E+00  0.00000000000E+00  0.18250000000E+03  0.18250000000E+03  0.00000000000E+00 0. -1.
         11   -1    0    0    0    0 -0.00000000000E+00 -0.00000000000E+00 -0.18250000000E+03  0.18250000000E+03  0.00000000000E+00 0. -1.
        -11    1    1    2    0    0 -0.50270598634E+01  0.16727080341E+02  0.70188493401E+02  0.72329047785E+02  0.00000000000E+00 0. -1.
         11    1    1    2    0    0  0.44027245293E+01 -0.13084306678E+02  0.10795260764E+03  0.10883174427E+03  0.00000000000E+00 0. -1.
        -15    1    1    2    0    0  0.10293697287E+02  0.81452823553E+01 -0.15780715356E+03  0.15836212070E+03  0.17770000000E+01 0. -1.
         15    1    1    2    0    0 -0.96693619531E+01 -0.11788056018E+02 -0.20333947485E+02  0.25477087247E+02  0.17770000000E+01 0.  1.
</event>
<event>
 6    1  0.3652367E-005  0.1825273E+03  0.7546771E-02  0.1068433E+00
        -11   -1    0    0    0    0  0.00000000000E+00  0.00000000000E+00  0.18250000000E+03  0.18250000000E+03  0.00000000000E+00 0. -1.
         11   -1    0    0    0    0 -0.00000000000E+00 -0.00000000000E+00 -0.18250000000E+03  0.18250000000E+03  0.00000000000E+00 0. -1.
        -11    1    1    2    0    0 -0.20568726139E+01  0.26573520253E-01 -0.12613722643E+03  0.12615399844E+03  0.00000000000E+00 0. -1.
         11    1    1    2    0    0  0.87268758109E-01  0.39918113864E+01 -0.56231719393E+02  0.56373295450E+02  0.00000000000E+00 0. -1.
        -15    1    1    2    0    0  0.18529055718E+01 -0.32347561464E+01  0.13663170053E+03  0.13669409726E+03  0.17770000000E+01 0. -1.
         15    1    1    2    0    0  0.11669828400E+00 -0.78362876016E+00  0.45737245289E+02  0.45778608849E+02  0.17770000000E+01 0. -1.
</event>
<event>
 6    1  0.3652367E-005  0.1813226E+03  0.7546771E-02  0.1069396E+00
        -11   -1    0    0    0    0  0.00000000000E+00  0.00000000000E+00  0.18250000000E+03  0.18250000000E+03  0.00000000000E+00 0.  1.
         11   -1    0    0    0    0 -0.00000000000E+00 -0.00000000000E+00 -0.18250000000E+03  0.18250000000E+03  0.00000000000E+00 0. -1.
        -11    1    1    2    0    0  0.20937902616E+00  0.46666763464E+00 -0.15155796669E-02  0.51148856761E+00  0.00000000000E+00 0. -1.
         11    1    1    2    0    0  0.74790209460E+00 -0.12719276308E+01 -0.10982931711E+01  0.18394035258E+01  0.00000000000E+00 0.  1.
        -15    1    1    2    0    0 -0.15170416859E+03 -0.98757013516E+02  0.13702669057E+02  0.18154344757E+03  0.17770000000E+01 0.  1.
         15    1    1    2    0    0  0.15074688747E+03  0.99562273512E+02 -0.12602860306E+02  0.18110566034E+03  0.17770000000E+01 0. -1.
</event>
<event>
 6    1  0.3652367E-005  0.2702104E+03  0.7546771E-02  0.1014386E+00
        -11   -1    0    0    0    0  0.00000000000E+00  0.00000000000E+00  0.18250000000E+03  0.18250000000E+03  0.00000000000E+00 0.  1.
         11   -1    0    0    0    0 -0.00000000000E+00 -0.00000000000E+00 -0.18250000000E+03  0.18250000000E+03  0.00000000000E+00 0. -1.
        -11    1    1    2    0    0 -0.11240970513E+02  0.12166621643E+02 -0.29610510255E+02  0.33928872923E+02  0.00000000000E+00 0. -1.
         11    1    1    2    0    0  0.73773355055E+01  0.35721582401E+02 -0.48719308097E+02  0.60860722225E+02  0.00000000000E+00 0.  1.
        -15    1    1    2    0    0  0.10727365128E+03 -0.76699406888E+01 -0.33507840394E+02  0.11266054032E+03  0.17770000000E+01 0.  1.
         15    1    1    2    0    0 -0.10341001627E+03 -0.40218263355E+02  0.11183765875E+03  0.15754986453E+03  0.17770000000E+01 0. -1.
</event>
<event>
 6    1  0.3652367E-005  0.3650000E+03  0.7546771E-02  0.9765871E-01
        -11   -1    0    0    0    0  0.00000000000E+00  0.00000000000E+00  0.18250000000E+03  0.18250000000E+03  0.00000000000E+00 0. -1.
         11   -1    0    0    0    0 -0.00000000000E+00 -0.00000000000E+00 -0.18250000000E+03  0.18250000000E+03  0.00000000000E+00 0.  1.
        -11    1    1    2    0    0 -0.11613253462E+01  0.47085988797E+00 -0.16579998740E+02  0.16627289130E+02  0.00000000000E+00 0.  1.
         11    1    1    2    0    0 -0.18718001371E+01 -0.77324844846E+00 -0.24867985704E+02  0.24950315868E+02  0.00000000000E+00 0. -1.
        -15    1    1    2    0    0  0.29387256373E+02 -0.97837881983E+02  0.14561818332E+03  0.17788669155E+03  0.17770000000E+01 0. -1.
         15    1    1    2    0    0 -0.26354130890E+02  0.98140270544E+02 -0.10417019887E+03  0.14553570345E+03  0.17770000000E+01 0.  1.
</event>
<event>
 6    1  0.3652367E-005  0.1768639E+03  0.7546771E-02  0.1073032E+00
        -11   -1    0    0    0    0  0.00000000000E+00  0.00000000000E+00  0.18250000000E+03  0.18250000000E+03  0.00000000000E+00 0.  1.
         11   -1    0    0    0    0 -0.00000000000E+00 -0.00000000000E+00 -0.18250000000E+03  0.18250000000E+03  0.00000000000E+00 0. -1.
        -11    1    1    2    0    0 -0.74908458443E+02  0.23675645727E+02 -0.14583143074E+03  0.16564606708E+03  0.00000000000E+00 0. -1.
         11    1    1    2    0    0  0.88465595943E+01 -0.65403550038E+01 -0.14373543366E+02  0.18100735044E+02  0.00000000000E+00 0.  1.
        -15    1    1    2    0    0  0.33575960002E+02  0.63295225723E+01  0.11869768462E+03  0.12353018259E+03  0.17770000000E+01 0.  1.
         15    1    1    2    0    0  0.32485938847E+02 -0.23464813296E+02  0.41507289479E+02  0.57723015294E+02  0.17770000000E+01 0. -1.
</event>
<event>
 6    1  0.3652367E-005  0.1833259E+03  0.7546771E-02  0.1067799E+00
        -11   -1    0    0    0    0  0.00000000000E+00  0.00000000000E+00  0.18250000000E+03  0.18250000000E+03  0.00000000000E+00 0.  1.
         11   -1    0    0    0    0 -0.00000000000E+00 -0.00000000000E+00 -0.18250000000E+03  0.18250000000E+03  0.00000000000E+00 0.  1.
        -11    1    1    2    0    0  0.67190033384E+01  0.31716800961E+01 -0.17860468664E+03  0.17875916383E+03  0.00000000000E+00 0.  1.
         11    1    1    2    0    0  0.10855647580E+00  0.13162222570E+01 -0.25985921101E+01  0.29149453670E+01  0.00000000000E+00 0.  1.
        -15    1    1    2    0    0 -0.40247220616E+00 -0.13338492282E+02  0.54462303951E+02  0.56101494106E+02  0.17770000000E+01 0. -1.
         15    1    1    2    0    0 -0.64250876080E+01  0.88505899293E+01  0.12674097480E+03  0.12722439670E+03  0.17770000000E+01 0.  1.
</event>
<event>
 6    1  0.3652367E-005  0.3650000E+03  0.7546771E-02  0.9765871E-01
        -11   -1    0    0    0    0  0.00000000000E+00  0.00000000000E+00  0.18250000000E+03  0.18250000000E+03  0.00000000000E+00 0.  1.
         11   -1    0    0    0    0 -0.00000000000E+00 -0.00000000000E+00 -0.18250000000E+03  0.18250000000E+03  0.00000000000E+00 0. -1.
        -11    1    1    2    0    0 -0.29561651548E+01  0.29524170246E+01 -0.33199102841E+02  0.33460963945E+02  0.00000000000E+00 0. -1.
         11    1    1    2    0    0  0.28218845977E+01 -0.95875017136E+00 -0.11589242149E+02  0.11966318071E+02  0.00000000000E+00 0.  1.
        -15    1    1    2    0    0  0.11445428196E+03 -0.58807438154E+02  0.11611163115E+03  0.17332964564E+03  0.17770000000E+01 0.  1.
         15    1    1    2    0    0 -0.11432000140E+03  0.56813771301E+02 -0.71323286163E+02  0.14624307234E+03  0.17770000000E+01 0. -1.
</event>
<event>
 6    1  0.3652367E-005  0.1886114E+03  0.7546771E-02  0.1063692E+00
        -11   -1    0    0    0    0  0.00000000000E+00  0.00000000000E+00  0.18250000000E+03  0.18250000000E+03  0.00000000000E+00 0.  1.
         11   -1    0    0    0    0 -0.00000000000E+00 -0.00000000000E+00 -0.18250000000E+03  0.18250000000E+03  0.00000000000E+00 0. -1.
        -11    1    1    2    0    0 -0.45313378442E+02  0.42108899678E+02 -0.16518623054E+03  0.17638864039E+03  0.00000000000E+00 0. -1.
         11    1    1    2    0    0  0.52932674651E+02 -0.48066578208E+02  0.10477006922E+03  0.12684254566E+03  0.00000000000E+00 0.  1.
        -15    1    1    2    0    0 -0.12156520981E+00  0.45685019183E+01  0.27544524439E+02  0.27977572151E+02  0.17770000000E+01 0. -1.
         15    1    1    2    0    0 -0.74977309997E+01  0.13891766108E+01  0.32871636885E+02  0.33791241799E+02  0.17770000000E+01 0.  1.
</event>
<event>
 6    1  0.3652367E-005  0.3650000E+03  0.7546771E-02  0.9765871E-01
        -11   -1    0    0    0    0  0.00000000000E+00  0.00000000000E+00  0.18250000000E+03  0.18250000000E+03  0.00000000000E+00 0. -1.
         11   -1    0    0    0    0 -0.00000000000E+00 -0.00000000000E+00 -0.18250000000E+03  0.18250000000E+03  0.00000000000E+00 0.  1.
        -11    1    1    2    0    0  0.13261077157E+01 -0.42380840196E+01  0.31742388281E+02  0.32051507478E+02  0.00000000000E+00 0. -1.
         11    1    1    2    0    0 -0.13031578869E+02  0.30717777243E+02  0.95613169036E+02  0.10126836614E+03  0.00000000000E+00 0.  1.
        -15    1    1    2    0    0 -0.42354224578E+02 -0.39147919624E+02  0.29836783156E+02  0.64960228668E+02  0.17770000000E+01 0. -1.
         15    1    1    2    0    0  0.54059695731E+02  0.12668226400E+02 -0.15719234047E+03  0.16671989772E+03  0.17770000000E+01 0.  1.
</event>
<event>
 6    1  0.3652367E-005  0.2009036E+03  0.7546771E-02  0.1054682E+00
        -11   -1    0    0    0    0  0.00000000000E+00  0.00000000000E+00  0.18250000000E+03  0.18250000000E+03  0.00000000000E+00 0. -1.
         11   -1    0    0    0    0 -0.00000000000E+00 -0.00000000000E+00 -0.18250000000E+03  0.18250000000E+03  0.00000000000E+00 0.  1.
        -11    1    1    2    0    0  0.31821290996E+01  0.15311536198E+01 -0.10004666975E+03  0.10010897315E+03  0.00000000000E+00 0.  1.
         11    1    1    2    0    0  0.93368378201E+00  0.14122322617E+01 -0.63965065856E+02  0.63987466080E+02  0.00000000000E+00 0. -1.
        -15    1    1    2    0    0  0.50589342843E+02  0.88496189597E+01  0.11702270957E+03  0.12780872290E+03  0.17770000000E+01 0. -1.
         15    1    1    2    0    0 -0.54705155725E+02 -0.11793004841E+02  0.46989026037E+02  0.73094837868E+02  0.17770000000E+01 0.  1.
</event>
<event>
 6    1  0.3652367E-005  0.1518617E+03  0.7546771E-02  0.1095851E+00
        -11   -1    0    0    0    0  0.00000000000E+00  0.00000000000E+00  0.18250000000E+03  0.18250000000E+03  0.00000000000E+00 0. -1.
         11   -1    0    0    0    0 -0.00000000000E+00 -0.00000000000E+00 -0.18250000000E+03  0.18250000000E+03  0.00000000000E+00 0. -1.
        -11    1    1    2    0    0 -0.18732728882E+02  0.69735832215E+01 -0.19252249788E+02  0.27752389379E+02  0.00000000000E+00 0. -1.
         11    1    1    2    0    0  0.99545186275E+01 -0.12560985840E+02 -0.25449702862E+02  0.30075873755E+02  0.00000000000E+00 0. -1.
        -15    1    1    2    0    0 -0.10267548888E+02 -0.24267316212E+01 -0.13040385423E+03  0.13084202121E+03  0.17770000000E+01 0.  1.
         15    1    1    2    0    0  0.19045759143E+02  0.80141342393E+01  0.17510580688E+03  0.17632971565E+03  0.17770000000E+01 0. -1.
</event>
<event>
 6    1  0.3652367E-005  0.1968961E+03  0.7546771E-02  0.1057540E+00
        -11   -1    0    0    0    0  0.00000000000E+00  0.00000000000E+00  0.18250000000E+03  0.18250000000E+03  0.00000000000E+00 0.  1.
         11   -1    0    0    0    0 -0.00000000000E+00 -0.00000000000E+00 -0.18250000000E+03  0.18250000000E+03  0.00000000000E+00 0. -1.
        -11    1    1    2    0    0 -0.29844321064E+02 -0.10475866583E+02 -0.12995848519E+03  0.13375214075E+03  0.00000000000E+00 0. -1.
         11    1    1    2    0    0  0.15961165443E+02  0.18902853861E+02 -0.23832059997E+02  0.34351765167E+02  0.00000000000E+00 0.  1.
        -15    1    1    2    0    0  0.15089429967E+02 -0.62686771976E+02  0.10831986201E+03  0.12607010951E+03  0.17770000000E+01 0.  1.
         15    1    1    2    0    0 -0.12062743449E+01  0.54259784697E+02  0.45470683182E+02  0.70825984576E+02  0.17770000000E+01 0. -1.
</event>
<event>
 6    1  0.3652367E-005  0.3650000E+03  0.7546771E-02  0.9765871E-01
        -11   -1    0    0    0    0  0.00000000000E+00  0.00000000000E+00  0.18250000000E+03  0.18250000000E+03  0.00000000000E+00 0. -1.
         11   -1    0    0    0    0 -0.00000000000E+00 -0.00000000000E+00 -0.18250000000E+03  0.18250000000E+03  0.00000000000E+00 0.  1.
        -11    1    1    2    0    0 -0.12178181620E+02  0.12018095531E+01 -0.11977549858E+02  0.17123497142E+02  0.00000000000E+00 0. -1.
         11    1    1    2    0    0 -0.38380113088E+01  0.21156570237E+01 -0.19726366742E+01  0.48059994691E+01  0.00000000000E+00 0.  1.
        -15    1    1    2    0    0  0.13093880616E+03  0.52189546808E+02  0.11367745249E+03  0.18109235403E+03  0.17770000000E+01 0. -1.
         15    1    1    2    0    0 -0.11492261323E+03 -0.55507013385E+02 -0.99727265959E+02  0.16197814936E+03  0.17770000000E+01 0.  1.
</event>
<event>
 6    1  0.3652367E-005  0.1927407E+03  0.7546771E-02  0.1060583E+00
        -11   -1    0    0    0    0  0.00000000000E+00  0.00000000000E+00  0.18250000000E+03  0.18250000000E+03  0.00000000000E+00 0. -1.
         11   -1    0    0    0    0 -0.00000000000E+00 -0.00000000000E+00 -0.18250000000E+03  0.18250000000E+03  0.00000000000E+00 0.  1.
        -11    1    1    2    0    0 -0.22108714965E+02  0.29294861773E+02 -0.60482160559E+02  0.70746561397E+02  0.00000000000E+00 0.  1.
         11    1    1    2    0    0  0.58796017040E+02  0.66455957481E+02 -0.49310027490E+02  0.10151278104E+03  0.00000000000E+00 0. -1.
        -15    1    1    2    0    0 -0.50747675562E+02 -0.11904495964E+03  0.79075718641E+02  0.15166791354E+03  0.17770000000E+01 0. -1.
         15    1    1    2    0    0  0.14060373488E+02  0.23294140388E+02  0.30716469407E+02  0.41072744014E+02  0.17770000000E+01 0.  1.
</event>
<event>
 6    1  0.3652367E-005  0.1829581E+03  0.7546771E-02  0.1068091E+00
        -11   -1    0    0    0    0  0.00000000000E+00  0.00000000000E+00  0.18250000000E+03  0.18250000000E+03  0.00000000000E+00 0.  1.
         11   -1    0    0    0    0 -0.00000000000E+00 -0.00000000000E+00 -0.18250000000E+03  0.18250000000E+03  0.00000000000E+00 0.  1.
        -11    1    1    2    0    0  0.24432035255E+01 -0.12567727844E+02 -0.30667060838E+02  0.33232298251E+02  0.00000000000E+00 0.  1.
         11    1    1    2    0    0  0.28770529417E+02  0.45427385465E+01 -0.14686534123E+03  0.14972577698E+03  0.00000000000E+00 0.  1.
        -15    1    1    2    0    0 -0.12968422486E+02 -0.70827768410E+01  0.44995165725E+02  0.47392703839E+02  0.17770000000E+01 0.  1.
         15    1    1    2    0    0 -0.18245310456E+02  0.15107766138E+02  0.13253723634E+03  0.13464922093E+03  0.17770000000E+01 0.  1.
</event>
<event>
 6    1  0.3652367E-005  0.1714495E+03  0.7546771E-02  0.1077608E+00
        -11   -1    0    0    0    0  0.00000000000E+00  0.00000000000E+00  0.18250000000E+03  0.18250000000E+03  0.00000000000E+00 0. -1.
         11   -1    0    0    0    0 -0.00000000000E+00 -0.00000000000E+00 -0.18250000000E+03  0.18250000000E+03  0.00000000000E+00 0.  1.
        -11    1    1    2    0    0  0.83142739131E+02 -0.14119185120E+03 -0.56646142152E+01  0.16395103467E+03  0.00000000000E+00 0.  1.
         11    1    1    2    0    0  0.11154982121E+02 -0.47676894267E+01  0.20693138159E+02  0.23986880903E+02  0.00000000000E+00 0. -1.
        -15    1    1    2    0    0 -0.10180289106E+02  0.78400323762E+01 -0.78775186770E+01  0.15176212421E+02  0.17770000000E+01 0.  1.
         15    1    1    2    0    0 -0.84117432146E+02  0.13811950825E+03 -0.71510052668E+01  0.16188587201E+03  0.17770000000E+01 0. -1.
</event>
<event>
 6    1  0.3652367E-005  0.1902554E+03  0.7546771E-02  0.1062444E+00
        -11   -1    0    0    0    0  0.00000000000E+00  0.00000000000E+00  0.18250000000E+03  0.18250000000E+03  0.00000000000E+00 0. -1.
         11   -1    0    0    0    0 -0.00000000000E+00 -0.00000000000E+00 -0.18250000000E+03  0.18250000000E+03  0.00000000000E+00 0. -1.
        -11    1    1    2    0    0  0.30227850882E+02 -0.11561780298E+02 -0.37306836092E+02  0.49388234953E+02  0.00000000000E+00 0. -1.
         11    1    1    2    0    0 -0.33155125974E+02 -0.20622617731E+02  0.17032652963E+03  0.17474461776E+03  0.00000000000E+00 0. -1.
        -15    1    1    2    0    0  0.67303996616E+01  0.34822089118E+02 -0.78926624145E+02  0.86547362167E+02  0.17770000000E+01 0. -1.
         15    1    1    2    0    0 -0.38031245695E+01 -0.26376910895E+01 -0.54093069390E+02  0.54319785123E+02  0.17770000000E+01 0.  1.
</event>
<event>
 6    1  0.3652367E-005  0.1827868E+03  0.7546771E-02  0.1068227E+00
        -11   -1    0    0    0    0  0.00000000000E+00  0.00000000000E+00  0.18250000000E+03  0.18250000000E+03  0.00000000000E+00 0.  1.
         11   -1    0    0    0    0 -0.00000000000E+00 -0.00000000000E+00 -0.18250000000E+03  0.18250000000E+03  0.00000000000E+00 0.  1.
        -11    1    1    2    0    0  0.10805798297E+01 -0.12505514150E+02 -0.13630556689E+03  0.13688229653E+03  0.00000000000E+00 0.  1.
         11    1    1    2    0    0  0.38665091668E+01 -0.13116314190E+01 -0.45146644092E+02  0.45330891706E+02  0.00000000000E+00 0.  1.
        -15    1    1    2    0    0 -0.26782131529E+01  0.12452210734E+02  0.63381344894E+02  0.64672892215E+02  0.17770000000E+01 0.  1.
         15    1    1    2    0    0 -0.22688758435E+01  0.13649348353E+01  0.11807086609E+03  0.11811391955E+03  0.17770000000E+01 0.  1.
</event>
<event>
 6    1  0.3652367E-005  0.1869996E+03  0.7546771E-02  0.1064929E+00
        -11   -1    0    0    0    0  0.00000000000E+00  0.00000000000E+00  0.18250000000E+03  0.18250000000E+03  0.00000000000E+00 0.  1.
         11   -1    0    0    0    0 -0.00000000000E+00 -0.00000000000E+00 -0.18250000000E+03  0.18250000000E+03  0.00000000000E+00 0. -1.
        -11    1    1    2    0    0 -0.27011416558E+01  0.20877972151E+01 -0.22676727321E+02  0.22932270395E+02  0.00000000000E+00 0.  1.
         11    1    1    2    0    0 -0.12640692204E+02  0.43843563715E+01 -0.15448986791E+03  0.15506814298E+03  0.00000000000E+00 0. -1.
        -15    1    1    2    0    0 -0.58393921092E+01 -0.25472853159E+02  0.47578948660E+02  0.54312787011E+02  0.17770000000E+01 0. -1.
         15    1    1    2    0    0  0.21181225969E+02  0.19000699572E+02  0.12958764657E+03  0.13268679961E+03  0.17770000000E+01 0.  1.
</event>
<event>
 6    1  0.3652367E-005  0.3650000E+03  0.7546771E-02  0.9765871E-01
        -11   -1    0    0    0    0  0.00000000000E+00  0.00000000000E+00  0.18250000000E+03  0.18250000000E+03  0.00000000000E+00 0. -1.
         11   -1    0    0    0    0 -0.00000000000E+00 -0.00000000000E+00 -0.18250000000E+03  0.18250000000E+03  0.00000000000E+00 0.  1.
        -11    1    1    2    0    0  0.77667382636E+01 -0.22264058362E+02 -0.62917388599E+02  0.67190834986E+02  0.00000000000E+00 0.  1.
         11    1    1    2    0    0  0.15814120860E+02  0.11555162037E+02 -0.74247582281E+02  0.76787444695E+02  0.00000000000E+00 0. -1.
        -15    1    1    2    0    0 -0.22741923561E+02 -0.22250517346E+02  0.17088353341E+03  0.17382928501E+03  0.17770000000E+01 0. -1.
         15    1    1    2    0    0 -0.83893556206E+00  0.32959413671E+02 -0.33718562526E+02  0.47192435308E+02  0.17770000000E+01 0.  1.
</event>
<event>
 6    1  0.3652367E-005  0.3650000E+03  0.7546771E-02  0.9765871E-01
        -11   -1    0    0    0    0  0.00000000000E+00  0.00000000000E+00  0.18250000000E+03  0.18250000000E+03  0.00000000000E+00 0. -1.
         11   -1    0    0    0    0 -0.00000000000E+00 -0.00000000000E+00 -0.18250000000E+03  0.18250000000E+03  0.00000000000E+00 0. -1.
        -11    1    1    2    0    0  0.59630021358E+01  0.92197732117E+01 -0.10619799595E+03  0.10676411362E+03  0.00000000000E+00 0. -1.
         11    1    1    2    0    0  0.32294689941E+01 -0.97591880077E+00 -0.26764077203E+02  0.26975872850E+02  0.00000000000E+00 0. -1.
        -15    1    1    2    0    0 -0.90838087686E+02 -0.13664049964E+02  0.11547759193E+03  0.14756861591E+03  0.17770000000E+01 0. -1.
         15    1    1    2    0    0  0.81645616556E+02  0.54201955532E+01  0.17484481228E+02  0.83691397619E+02  0.17770000000E+01 0.  1.
</event>
<event>
 6    1  0.3652367E-005  0.1833825E+03  0.7546771E-02  0.1067755E+00
        -11   -1    0    0    0    0  0.00000000000E+00  0.00000000000E+00  0.18250000000E+03  0.18250000000E+03  0.00000000000E+00 0. -1.
         11   -1    0    0    0    0 -0.00000000000E+00 -0.00000000000E+00 -0.18250000000E+03  0.18250000000E+03  0.00000000000E+00 0.  1.
        -11    1    1    2    0    0  0.68301082383E+01  0.41636508263E+01 -0.77663163962E+02  0.78074025151E+02  0.00000000000E+00 0. -1.
         11    1    1    2    0    0 -0.75001914301E+01 -0.38010866052E+01 -0.10320154753E+03  0.10354352005E+03  0.00000000000E+00 0.  1.
        -15    1    1    2    0    0  0.46863844662E+01 -0.20388141930E+01  0.47351029579E+01  0.71901245956E+01  0.17770000000E+01 0.  1.
         15    1    1    2    0    0 -0.40163012744E+01  0.16762499718E+01  0.17612960854E+03  0.17619233020E+03  0.17770000000E+01 0. -1.
</event>
<event>
 6    1  0.3652367E-005  0.1607678E+03  0.7546771E-02  0.1087203E+00
        -11   -1    0    0    0    0  0.00000000000E+00  0.00000000000E+00  0.18250000000E+03  0.18250000000E+03  0.00000000000E+00 0.  1.
         11   -1    0    0    0    0 -0.00000000000E+00 -0.00000000000E+00 -0.18250000000E+03  0.18250000000E+03  0.00000000000E+00 0.  1.
        -11    1    1    2    0    0  0.44495017447E+02 -0.19749555609E+02 -0.27078450487E+02  0.55705421685E+02  0.00000000000E+00 0.  1.
         11    1    1    2    0    0 -0.78351619772E+02  0.55348947200E+02 -0.11040952469E+03  0.14626259064E+03  0.00000000000E+00 0.  1.
        -15    1    1    2    0    0  0.27180840142E+02  0.55694439185E+01  0.10900836506E+03  0.11249799180E+03  0.17770000000E+01 0.  1.
         15    1    1    2    0    0  0.66757621831E+01 -0.41168835510E+02  0.28479610121E+02  0.50533995880E+02  0.17770000000E+01 0. -1.
</event>
<event>
 6    1  0.3652367E-005  0.1829547E+03  0.7546771E-02  0.1068093E+00
        -11   -1    0    0    0    0  0.00000000000E+00  0.00000000000E+00  0.18250000000E+03  0.18250000000E+03  0.00000000000E+00 0.  1.
         11   -1    0    0    0    0 -0.00000000000E+00 -0.00000000000E+00 -0.18250000000E+03  0.18250000000E+03  0.00000000000E+00 0. -1.
        -11    1    1    2    0    0 -0.35910889300E-01  0.59011090136E+00 -0.10402649358E+02  0.10419435403E+02  0.00000000000E+00 0.  1.
         11    1    1    2    0    0  0.27111085630E+00  0.36530683764E+01 -0.17158673865E+03  0.17162583515E+03  0.00000000000E+00 0. -1.
        -15    1    1    2    0    0 -0.38847273692E+00  0.23990864664E+01  0.50330986940E+01  0.58648391627E+01  0.17770000000E+01 0. -1.
         15    1    1    2    0    0  0.15327276992E+00 -0.66422657441E+01  0.17695628931E+03  0.17708989029E+03  0.17770000000E+01 0.  1.
</event>
<event>
 6    1  0.3652367E-005  0.1825395E+03  0.7546771E-02  0.1068423E+00
        -11   -1    0    0    0    0  0.00000000000E+00  0.00000000000E+00  0.18250000000E+03  0.18250000000E+03  0.00000000000E+00 0.  1.
         11   -1    0    0    0    0 -0.00000000000E+00 -0.00000000000E+00 -0.18250000000E+03  0.18250000000E+03  0.00000000000E+00 0.  1.
        -11    1    1    2    0    0  0.70316292004E+01 -0.17781941225E+01  0.13666542220E+03  0.13685774881E+03  0.00000000000E+00 0.  1.
         11    1    1    2    0    0  0.44073779388E+01  0.97799964492E+01  0.44404329935E+02  0.45681701236E+02  0.00000000000E+00 0.  1.
        -15    1    1    2    0    0 -0.28000528205E+01 -0.34655204547E+01 -0.14421059218E+03  0.14429034186E+03  0.17770000000E+01 0.  1.
         15    1    1    2    0    0 -0.86389543187E+01 -0.45362818720E+01 -0.36859159950E+02  0.38170208097E+02  0.17770000000E+01 0. -1.
</event>
<event>
 6    1  0.3652367E-005  0.3650000E+03  0.7546771E-02  0.9765871E-01
        -11   -1    0    0    0    0  0.00000000000E+00  0.00000000000E+00  0.18250000000E+03  0.18250000000E+03  0.00000000000E+00 0. -1.
         11   -1    0    0    0    0 -0.00000000000E+00 -0.00000000000E+00 -0.18250000000E+03  0.18250000000E+03  0.00000000000E+00 0.  1.
        -11    1    1    2    0    0 -0.64040227023E+00  0.54471960025E-01 -0.80487665339E+00  0.10300042181E+01  0.00000000000E+00 0. -1.
         11    1    1    2    0    0 -0.10619772759E+01 -0.16044199152E+01 -0.35698518422E+01  0.40553423005E+01  0.00000000000E+00 0.  1.
        -15    1    1    2    0    0 -0.12939107665E+03  0.77550366058E+02 -0.95383267585E+02  0.17848595311E+03  0.17770000000E+01 0.  1.
         15    1    1    2    0    0  0.13109345620E+03 -0.76000418103E+02  0.99757996080E+02  0.18142870038E+03  0.17770000000E+01 0. -1.
</event>
<event>
 6    1  0.3652367E-005  0.1932556E+03  0.7546771E-02  0.1060202E+00
        -11   -1    0    0    0    0  0.00000000000E+00  0.00000000000E+00  0.18250000000E+03  0.18250000000E+03  0.00000000000E+00 0. -1.
         11   -1    0    0    0    0 -0.00000000000E+00 -0.00000000000E+00 -0.18250000000E+03  0.18250000000E+03  0.00000000000E+00 0.  1.
        -11    1    1    2    0    0 -0.68445044081E+02 -0.73270120305E+02  0.13943787357E+03  0.17174444729E+03  0.00000000000E+00 0. -1.
         11    1    1    2    0    0  0.44214088241E+02  0.20485840977E+02 -0.20617140305E+02  0.52911452010E+02  0.00000000000E+00 0.  1.
        -15    1    1    2    0    0  0.21590846526E+02  0.47731022024E+02 -0.54028244678E+02  0.75276982333E+02  0.17770000000E+01 0. -1.
         15    1    1    2    0    0  0.26401093146E+01  0.50532573048E+01 -0.64792488586E+02  0.65067118368E+02  0.17770000000E+01 0.  1.
</event>
<event>
 6    1  0.3652367E-005  0.1535535E+03  0.7546771E-02  0.1094159E+00
        -11   -1    0    0    0    0  0.00000000000E+00  0.00000000000E+00  0.18250000000E+03  0.18250000000E+03  0.00000000000E+00 0. -1.
         11   -1    0    0    0    0 -0.00000000000E+00 -0.00000000000E+00 -0.18250000000E+03  0.18250000000E+03  0.00000000000E+00 0.  1.
        -11    1    1    2    0    0  0.13542753418E+02  0.18170301552E+02  0.14326879536E+02  0.26810921392E+02  0.00000000000E+00 0. -1.
         11    1    1    2    0    0 -0.21988633392E+02  0.52340190060E+01 -0.19767970098E+02  0.30027780391E+02  0.00000000000E+00 0.  1.
        -15    1    1    2    0    0  0.24561434817E+02 -0.22790655228E+02  0.15456110477E+03  0.15816121802E+03  0.17770000000E+01 0. -1.
         15    1    1    2    0    0 -0.16115554843E+02 -0.61366533077E+00 -0.14912001421E+03  0.15000008020E+03  0.17770000000E+01 0.  1.
</event>
<event>
 6    1  0.3652367E-005  0.1783272E+03  0.7546771E-02  0.1071826E+00
        -11   -1    0    0    0    0  0.00000000000E+00  0.00000000000E+00  0.18250000000E+03  0.18250000000E+03  0.00000000000E+00 0. -1.
         11   -1    0    0    0    0 -0.00000000000E+00 -0.00000000000E+00 -0.18250000000E+03  0.18250000000E+03  0.00000000000E+00 0.  1.
        -11    1    1    2    0    0 -0.37103086327E+02  0.13419688888E+03  0.10886635444E+03  0.17674084737E+03  0.00000000000E+00 0. -1.
         11    1    1    2    0    0  0.18512312112E+01 -0.67149742289E+01  0.74133462099E+01  0.10172297573E+02  0.00000000000E+00 0.  1.
        -15    1    1    2    0    0  0.28284255212E+02 -0.95124480746E+02 -0.10093139154E+03  0.14155906702E+03  0.17770000000E+01 0.  1.
         15    1    1    2    0    0  0.69675999037E+01 -0.32357433901E+02 -0.15348309113E+02  0.36527788034E+02  0.17770000000E+01 0. -1.
</event>
<event>
 6    1  0.3652367E-005  0.1830304E+03  0.7546771E-02  0.1068033E+00
        -11   -1    0    0    0    0  0.00000000000E+00  0.00000000000E+00  0.18250000000E+03  0.18250000000E+03  0.00000000000E+00 0.  1.
         11   -1    0    0    0    0 -0.00000000000E+00 -0.00000000000E+00 -0.18250000000E+03  0.18250000000E+03  0.00000000000E+00 0. -1.
        -11    1    1    2    0    0 -0.10506286505E+03 -0.36013237887E+02 -0.10340147831E+03  0.15174658030E+03  0.00000000000E+00 0. -1.
         11    1    1    2    0    0 -0.26235761250E+02  0.58527331309E+01 -0.16003338336E+02  0.31283805577E+02  0.00000000000E+00 0.  1.
        -15    1    1    2    0    0  0.12094533366E+03  0.25915184708E+02  0.98256298162E+02  0.15797730340E+03  0.17770000000E+01 0.  1.
         15    1    1    2    0    0  0.10353292647E+02  0.42453200483E+01  0.21148518481E+02  0.23992310724E+02  0.17770000000E+01 0. -1.
</event>
