<event>
 6    1  0.9416102E-006  0.7308621E+03  0.7546771E-02  0.8993769E-01
        -11   -1    0    0    0    0  0.00000000000E+00  0.00000000000E+00  0.50000000000E+03  0.50000000000E+03  0.00000000000E+00 0. -1.
         11   -1    0    0    0    0 -0.00000000000E+00 -0.00000000000E+00 -0.50000000000E+03  0.50000000000E+03  0.00000000000E+00 0.  1.
        -11    1    1    2    0    0  0.64063953949E+02  0.11468124405E+03 -0.14047274565E+03  0.19232412798E+03  0.00000000000E+00 0.  1.
         11    1    1    2    0    0  0.47950674788E+02  0.40152619206E+02 -0.44596670431E+02  0.76813820731E+02  0.00000000000E+00 0. -1.
        -15    1    1    2    0    0 -0.38897253879E+02 -0.31630490140E+03 -0.14966697412E+03  0.35208684708E+03  0.17770000000E+01 0.  1.
         15    1    1    2    0    0 -0.73117374858E+02  0.16147103815E+03  0.33473639021E+03  0.37877520421E+03  0.17770000000E+01 0. -1.
</event>
<event>
 6    1  0.9416102E-006  0.5056287E+03  0.7546771E-02  0.9387302E-01
        -11   -1    0    0    0    0  0.00000000000E+00  0.00000000000E+00  0.50000000000E+03  0.50000000000E+03  0.00000000000E+00 0.  1.
         11   -1    0    0    0    0 -0.00000000000E+00 -0.00000000000E+00 -0.50000000000E+03  0.50000000000E+03  0.00000000000E+00 0. -1.
        -11    1    1    2    0    0 -0.12998434345E+01 -0.34334984240E+01 -0.34552326575E+01  0.50415411433E+01  0.00000000000E+00 0.  1.
         11    1    1    2    0    0 -0.40940732202E+02 -0.34055137306E+02 -0.48642342957E+03  0.48932979550E+03  0.00000000000E+00 0. -1.
        -15    1    1    2    0    0  0.67923177468E+02  0.43332959734E+01  0.40774277805E+03  0.41338803354E+03  0.17770000000E+01 0.  1.
         15    1    1    2    0    0 -0.25682601832E+02  0.33155339757E+02  0.82135884175E+02  0.92240629819E+02  0.17770000000E+01 0. -1.
</event>
<event>
 6    1  0.9416102E-006  0.5003975E+03  0.7546771E-02  0.9398921E-01
        -11   -1    0    0    0    0  0.00000000000E+00  0.00000000000E+00  0.50000000000E+03  0.50000000000E+03  0.00000000000E+00 0.  1.
         11   -1    0    0    0    0 -0.00000000000E+00 -0.00000000000E+00 -0.50000000000E+03  0.50000000000E+03  0.00000000000E+00 0.  1.
        -11    1    1    2    0    0  0.32857446059E+01 -0.19546368094E+01 -0.20437142379E+03  0.20440718086E+03  0.00000000000E+00 0.  1.
         11    1    1    2    0    0 -0.51112069984E+01  0.17802575570E+01 -0.29514574119E+03  0.29519536293E+03  0.00000000000E+00 0.  1.
        -15    1    1    2    0    0 -0.99028926440E+01 -0.62730149377E+00  0.40631479803E+03  0.40643982779E+03  0.17770000000E+01 0.  1.
         15    1    1    2    0    0  0.11728355036E+02  0.80168074616E+00  0.93202366950E+02  0.93957628418E+02  0.17770000000E+01 0. -1.
</event>
<event>
 6    1  0.9416102E-006  0.1000000E+04  0.7546771E-02  0.8684367E-01
        -11   -1    0    0    0    0  0.00000000000E+00  0.00000000000E+00  0.50000000000E+03  0.50000000000E+03  0.00000000000E+00 0. -1.
         11   -1    0    0    0    0 -0.00000000000E+00 -0.00000000000E+00 -0.50000000000E+03  0.50000000000E+03  0.00000000000E+00 0.  1.
        -11    1    1    2    0    0 -0.73811124638E+01 -0.20036064532E+02  0.13593774981E+03  0.13760449312E+03  0.00000000000E+00 0.  1.
         11    1    1    2    0    0  0.72605598419E+00 -0.41109701307E+02  0.33156375796E+03  0.33410336767E+03  0.00000000000E+00 0. -1.
        -15    1    1    2    0    0  0.21217428412E+02  0.46674155066E+02  0.83658103342E+01  0.51978846958E+02  0.17770000000E+01 0. -1.
         15    1    1    2    0    0 -0.14562371933E+02  0.14471610774E+02 -0.47586731811E+03  0.47631329224E+03  0.17770000000E+01 0.  1.
</event>
<event>
 6    1  0.9416102E-006  0.5099602E+03  0.7546771E-02  0.9377795E-01
        -11   -1    0    0    0    0  0.00000000000E+00  0.00000000000E+00  0.50000000000E+03  0.50000000000E+03  0.00000000000E+00 0.  1.
         11   -1    0    0    0    0 -0.00000000000E+00 -0.00000000000E+00 -0.50000000000E+03  0.50000000000E+03  0.00000000000E+00 0.  1.
        -11    1    1    2    0    0 -0.78569741063E+00 -0.48659823214E+01 -0.35931607130E+03  0.35934987713E+03  0.00000000000E+00 0.  1.
         11    1    1    2    0    0  0.32359256388E+01 -0.44255487552E+00 -0.13064913817E+03  0.13068995513E+03  0.00000000000E+00 0.  1.
        -15    1    1    2    0    0  0.60035129177E+02 -0.30162363614E+02  0.19110633887E+03  0.20258029371E+03  0.17770000000E+01 0.  1.
         15    1    1    2    0    0 -0.62485357406E+02  0.35470900810E+02  0.29885887060E+03  0.30737987403E+03  0.17770000000E+01 0. -1.
</event>
<event>
 6    1  0.9416102E-006  0.5004993E+03  0.7546771E-02  0.9398693E-01
        -11   -1    0    0    0    0  0.00000000000E+00  0.00000000000E+00  0.50000000000E+03  0.50000000000E+03  0.00000000000E+00 0.  1.
         11   -1    0    0    0    0 -0.00000000000E+00 -0.00000000000E+00 -0.50000000000E+03  0.50000000000E+03  0.00000000000E+00 0.  1.
        -11    1    1    2    0    0  0.14935834591E+02  0.71138464831E+01  0.38200862641E+03  0.38236667822E+03  0.00000000000E+00 0.  1.
         11    1    1    2    0    0  0.36508457878E+01  0.64398561299E+01  0.11689984311E+03  0.11713399908E+03  0.00000000000E+00 0.  1.
        -15    1    1    2    0    0  0.39419994345E+01 -0.14042108162E+02 -0.11641440064E+03  0.11733793320E+03  0.17770000000E+01 0.  1.
         15    1    1    2    0    0 -0.22528679814E+02  0.48840554902E+00 -0.38249406887E+03  0.38316138950E+03  0.17770000000E+01 0.  1.
</event>
<event>
 6    1  0.9416102E-006  0.6808610E+03  0.7546771E-02  0.9066837E-01
        -11   -1    0    0    0    0  0.00000000000E+00  0.00000000000E+00  0.50000000000E+03  0.50000000000E+03  0.00000000000E+00 0. -1.
         11   -1    0    0    0    0 -0.00000000000E+00 -0.00000000000E+00 -0.50000000000E+03  0.50000000000E+03  0.00000000000E+00 0.  1.
        -11    1    1    2    0    0  0.33109567931E+02 -0.22819372263E+02 -0.25423696367E+03  0.25739736000E+03  0.00000000000E+00 0.  1.
         11    1    1    2    0    0  0.50785234904E+01 -0.19429040646E+02 -0.58384459544E+02  0.61741591634E+02  0.00000000000E+00 0. -1.
        -15    1    1    2    0    0 -0.10056190071E+03  0.30437146552E+03  0.24387537231E+03  0.40278162798E+03  0.17770000000E+01 0. -1.
         15    1    1    2    0    0  0.62373809288E+02 -0.26212305261E+03  0.68746050910E+02  0.27807942038E+03  0.17770000000E+01 0.  1.
</event>
<event>
 6    1  0.9416102E-006  0.4106666E+03  0.7546771E-02  0.9625399E-01
        -11   -1    0    0    0    0  0.00000000000E+00  0.00000000000E+00  0.50000000000E+03  0.50000000000E+03  0.00000000000E+00 0.  1.
         11   -1    0    0    0    0 -0.00000000000E+00 -0.00000000000E+00 -0.50000000000E+03  0.50000000000E+03  0.00000000000E+00 0.  1.
        -11    1    1    2    0    0 -0.70190238551E+02  0.12844254251E+03 -0.72246533898E+02  0.16322903533E+03  0.00000000000E+00 0.  1.
         11    1    1    2    0    0  0.11038698102E+03 -0.10698354291E+03  0.43970028169E+03  0.46579727538E+03  0.00000000000E+00 0.  1.
        -15    1    1    2    0    0 -0.32578176551E+02 -0.10167391185E+02 -0.19484779155E+03  0.19782197308E+03  0.17770000000E+01 0. -1.
         15    1    1    2    0    0 -0.76185659161E+01 -0.11291608415E+02 -0.17260595625E+03  0.17315171621E+03  0.17770000000E+01 0.  1.
</event>
<event>
 6    1  0.9416102E-006  0.1000000E+04  0.7546771E-02  0.8684367E-01
        -11   -1    0    0    0    0  0.00000000000E+00  0.00000000000E+00  0.50000000000E+03  0.50000000000E+03  0.00000000000E+00 0. -1.
         11   -1    0    0    0    0 -0.00000000000E+00 -0.00000000000E+00 -0.50000000000E+03  0.50000000000E+03  0.00000000000E+00 0.  1.
        -11    1    1    2    0    0 -0.27151720746E+02 -0.47800527306E+02  0.16632398339E+03  0.17517355337E+03  0.00000000000E+00 0.  1.
         11    1    1    2    0    0  0.46631254347E+02 -0.17059578121E+02  0.13767527484E+03  0.14635567768E+03  0.00000000000E+00 0. -1.
        -15    1    1    2    0    0  0.80778365515E+02 -0.19035374144E+03  0.66785532790E+02  0.21730889612E+03  0.17770000000E+01 0. -1.
         15    1    1    2    0    0 -0.10025789912E+03  0.25521384686E+03 -0.37078479102E+03  0.46116187282E+03  0.17770000000E+01 0.  1.
</event>
<event>
 6    1  0.9416102E-006  0.5007220E+03  0.7546771E-02  0.9398196E-01
        -11   -1    0    0    0    0  0.00000000000E+00  0.00000000000E+00  0.50000000000E+03  0.50000000000E+03  0.00000000000E+00 0.  1.
         11   -1    0    0    0    0 -0.00000000000E+00 -0.00000000000E+00 -0.50000000000E+03  0.50000000000E+03  0.00000000000E+00 0. -1.
        -11    1    1    2    0    0  0.39110142013E+02 -0.22936051538E+02  0.47111711103E+03  0.47329377555E+03  0.00000000000E+00 0.  1.
         11    1    1    2    0    0  0.38081633949E+01 -0.11020818605E+02  0.24826302236E+02  0.27428194142E+02  0.00000000000E+00 0. -1.
        -15    1    1    2    0    0 -0.33086528196E+02  0.25463140986E+02 -0.30001857662E+03  0.30291482952E+03  0.17770000000E+01 0. -1.
         15    1    1    2    0    0 -0.98317772124E+01  0.84937291574E+01 -0.19592483665E+03  0.19636320079E+03  0.17770000000E+01 0.  1.
</event>
<event>
 6    1  0.9416102E-006  0.5179587E+03  0.7546771E-02  0.9360499E-01
        -11   -1    0    0    0    0  0.00000000000E+00  0.00000000000E+00  0.50000000000E+03  0.50000000000E+03  0.00000000000E+00 0. -1.
         11   -1    0    0    0    0 -0.00000000000E+00 -0.00000000000E+00 -0.50000000000E+03  0.50000000000E+03  0.00000000000E+00 0. -1.
        -11    1    1    2    0    0  0.13376076023E+03  0.37670422352E+03  0.14539137248E+03  0.42536650572E+03  0.00000000000E+00 0. -1.
         11    1    1    2    0    0 -0.12886328895E+03 -0.40103348109E+03 -0.23437205887E+03  0.48204134903E+03  0.00000000000E+00 0. -1.
        -15    1    1    2    0    0 -0.38410951976E+01  0.85493240030E+01  0.38377160370E+02  0.39545026492E+02  0.17770000000E+01 0.  1.
         15    1    1    2    0    0 -0.10563760831E+01  0.15779933568E+02  0.50603526022E+02  0.53047118759E+02  0.17770000000E+01 0.  1.
</event>
<event>
 6    1  0.9416102E-006  0.5015333E+03  0.7546771E-02  0.9396385E-01
        -11   -1    0    0    0    0  0.00000000000E+00  0.00000000000E+00  0.50000000000E+03  0.50000000000E+03  0.00000000000E+00 0.  1.
         11   -1    0    0    0    0 -0.00000000000E+00 -0.00000000000E+00 -0.50000000000E+03  0.50000000000E+03  0.00000000000E+00 0.  1.
        -11    1    1    2    0    0 -0.79842250823E+01  0.48858509001E+01 -0.11097732307E+02  0.14518231694E+02  0.00000000000E+00 0.  1.
         11    1    1    2    0    0  0.92553032554E+01 -0.77517318529E+01 -0.48686540988E+03  0.48701506889E+03  0.00000000000E+00 0.  1.
        -15    1    1    2    0    0  0.67038996735E+01 -0.51299342822E+01  0.11099110067E+03  0.11132583102E+03  0.17770000000E+01 0. -1.
         15    1    1    2    0    0 -0.79749778465E+01  0.79958152349E+01  0.38697204152E+03  0.38714086839E+03  0.17770000000E+01 0.  1.
</event>
<event>
 6    1  0.9416102E-006  0.8008024E+03  0.7546771E-02  0.8901291E-01
        -11   -1    0    0    0    0  0.00000000000E+00  0.00000000000E+00  0.50000000000E+03  0.50000000000E+03  0.00000000000E+00 0.  1.
         11   -1    0    0    0    0 -0.00000000000E+00 -0.00000000000E+00 -0.50000000000E+03  0.50000000000E+03  0.00000000000E+00 0. -1.
        -11    1    1    2    0    0 -0.80343760053E+01  0.21017849779E+02 -0.48067007024E+02  0.53072953294E+02  0.00000000000E+00 0. -1.
         11    1    1    2    0    0 -0.46144737864E+02  0.43639550660E+02 -0.13160037017E+03  0.14612462025E+03  0.00000000000E+00 0.  1.
        -15    1    1    2    0    0 -0.33697176540E+03  0.81689529278E+02  0.14728413457E+01  0.34673978263E+03  0.17770000000E+01 0. -1.
         15    1    1    2    0    0  0.39115087927E+03 -0.14634692972E+03  0.17819453584E+03  0.45406264383E+03  0.17770000000E+01 0.  1.
</event>
<event>
 6    1  0.9416102E-006  0.5020130E+03  0.7546771E-02  0.9395317E-01
        -11   -1    0    0    0    0  0.00000000000E+00  0.00000000000E+00  0.50000000000E+03  0.50000000000E+03  0.00000000000E+00 0. -1.
         11   -1    0    0    0    0 -0.00000000000E+00 -0.00000000000E+00 -0.50000000000E+03  0.50000000000E+03  0.00000000000E+00 0.  1.
        -11    1    1    2    0    0  0.90288549823E+01  0.31641762459E+00  0.25049647025E+03  0.25065933446E+03  0.00000000000E+00 0.  1.
         11    1    1    2    0    0  0.18952296398E+01  0.33355466475E+01  0.24729787846E+03  0.24732763384E+03  0.00000000000E+00 0. -1.
        -15    1    1    2    0    0 -0.16881867528E+02 -0.13445771625E+02 -0.55625614032E+02  0.59692151002E+02  0.17770000000E+01 0.  1.
         15    1    1    2    0    0  0.59577829055E+01  0.97938073528E+01 -0.44216873469E+03  0.44232088070E+03  0.17770000000E+01 0. -1.
</event>
<event>
 6    1  0.9416102E-006  0.5751563E+03  0.7546771E-02  0.9245756E-01
        -11   -1    0    0    0    0  0.00000000000E+00  0.00000000000E+00  0.50000000000E+03  0.50000000000E+03  0.00000000000E+00 0. -1.
         11   -1    0    0    0    0 -0.00000000000E+00 -0.00000000000E+00 -0.50000000000E+03  0.50000000000E+03  0.00000000000E+00 0.  1.
        -11    1    1    2    0    0 -0.22171196301E+02  0.40242547504E+02 -0.37547290584E+03  0.37827361472E+03  0.00000000000E+00 0.  1.
         11    1    1    2    0    0 -0.20430922775E+02 -0.80604217716E+01 -0.41065528967E+02  0.46570061992E+02  0.00000000000E+00 0. -1.
        -15    1    1    2    0    0 -0.63085110170E+02 -0.14844515171E+03  0.38145325287E+03  0.41415629423E+03  0.17770000000E+01 0. -1.
         15    1    1    2    0    0  0.10568722925E+03  0.11626302598E+03  0.35085181933E+02  0.16100002906E+03  0.17770000000E+01 0.  1.
</event>
<event>
 6    1  0.9416102E-006  0.7460224E+03  0.7546771E-02  0.8972824E-01
        -11   -1    0    0    0    0  0.00000000000E+00  0.00000000000E+00  0.50000000000E+03  0.50000000000E+03  0.00000000000E+00 0. -1.
         11   -1    0    0    0    0 -0.00000000000E+00 -0.00000000000E+00 -0.50000000000E+03  0.50000000000E+03  0.00000000000E+00 0.  1.
        -11    1    1    2    0    0 -0.10777656190E+03  0.52090598590E+02  0.10882277560E+03  0.16177643291E+03  0.00000000000E+00 0. -1.
         11    1    1    2    0    0 -0.47293541040E+02  0.69631956241E+01  0.78840927100E+02  0.92201176258E+02  0.00000000000E+00 0.  1.
        -15    1    1    2    0    0  0.90567781061E+02 -0.29794510526E+03 -0.33551570254E+03  0.45776386172E+03  0.17770000000E+01 0.  1.
         15    1    1    2    0    0  0.64502321874E+02  0.23889131105E+03  0.14785199984E+03  0.28825852911E+03  0.17770000000E+01 0. -1.
</event>
<event>
 6    1  0.9416102E-006  0.5021926E+03  0.7546771E-02  0.9394917E-01
        -11   -1    0    0    0    0  0.00000000000E+00  0.00000000000E+00  0.50000000000E+03  0.50000000000E+03  0.00000000000E+00 0. -1.
         11   -1    0    0    0    0 -0.00000000000E+00 -0.00000000000E+00 -0.50000000000E+03  0.50000000000E+03  0.00000000000E+00 0. -1.
        -11    1    1    2    0    0  0.23840866434E+02 -0.19701191615E+02 -0.41821869477E+03  0.41936070454E+03  0.00000000000E+00 0. -1.
         11    1    1    2    0    0 -0.18381940226E+02  0.16038394485E+02 -0.79158050263E+02  0.82831894495E+02  0.00000000000E+00 0. -1.
        -15    1    1    2    0    0 -0.14440338923E+01  0.10708807996E+02  0.36902110549E+03  0.36918355574E+03  0.17770000000E+01 0. -1.
         15    1    1    2    0    0 -0.40148923156E+01 -0.70460108663E+01  0.12835563953E+03  0.12862384522E+03  0.17770000000E+01 0.  1.
</event>
<event>
 6    1  0.9416102E-006  0.5000888E+03  0.7546771E-02  0.9399611E-01
        -11   -1    0    0    0    0  0.00000000000E+00  0.00000000000E+00  0.50000000000E+03  0.50000000000E+03  0.00000000000E+00 0.  1.
         11   -1    0    0    0    0 -0.00000000000E+00 -0.00000000000E+00 -0.50000000000E+03  0.50000000000E+03  0.00000000000E+00 0. -1.
        -11    1    1    2    0    0 -0.31498159570E+01 -0.57261994105E+01 -0.21827802842E+02  0.22785163531E+02  0.00000000000E+00 0.  1.
         11    1    1    2    0    0  0.27604576105E+01 -0.13659152123E+03 -0.45714808870E+03  0.47712601983E+03  0.00000000000E+00 0. -1.
        -15    1    1    2    0    0  0.52924426609E+01  0.11159097442E+02  0.44729957785E+02  0.46437724508E+02  0.17770000000E+01 0. -1.
         15    1    1    2    0    0 -0.49030843143E+01  0.13115862320E+03  0.43424593376E+03  0.45365109213E+03  0.17770000000E+01 0.  1.
</event>
<event>
 6    1  0.9416102E-006  0.5009618E+03  0.7546771E-02  0.9397660E-01
        -11   -1    0    0    0    0  0.00000000000E+00  0.00000000000E+00  0.50000000000E+03  0.50000000000E+03  0.00000000000E+00 0.  1.
         11   -1    0    0    0    0 -0.00000000000E+00 -0.00000000000E+00 -0.50000000000E+03  0.50000000000E+03  0.00000000000E+00 0. -1.
        -11    1    1    2    0    0 -0.57718089338E+01  0.41479113533E+01 -0.84497190333E+01  0.11041589501E+02  0.00000000000E+00 0.  1.
         11    1    1    2    0    0  0.54658954290E+02  0.69495789069E+01 -0.48681203879E+03  0.48992025784E+03  0.00000000000E+00 0. -1.
        -15    1    1    2    0    0 -0.29101123193E+02 -0.12373311189E+02  0.15544544001E+03  0.15863926610E+03  0.17770000000E+01 0. -1.
         15    1    1    2    0    0 -0.19786022164E+02  0.12758209291E+01  0.33981631781E+03  0.34039888656E+03  0.17770000000E+01 0.  1.
</event>
<event>
 6    1  0.9416102E-006  0.5036880E+03  0.7546771E-02  0.9391595E-01
        -11   -1    0    0    0    0  0.00000000000E+00  0.00000000000E+00  0.50000000000E+03  0.50000000000E+03  0.00000000000E+00 0.  1.
         11   -1    0    0    0    0 -0.00000000000E+00 -0.00000000000E+00 -0.50000000000E+03  0.50000000000E+03  0.00000000000E+00 0. -1.
        -11    1    1    2    0    0 -0.16650997056E+02 -0.22238711409E+01 -0.13820029062E+03  0.13921753349E+03  0.00000000000E+00 0.  1.
         11    1    1    2    0    0 -0.28347509624E+02 -0.20911069117E+02 -0.35535277817E+03  0.35709445678E+03  0.00000000000E+00 0. -1.
        -15    1    1    2    0    0  0.73931253797E+01 -0.28704350379E+02  0.82695644024E+02  0.87865381710E+02  0.17770000000E+01 0. -1.
         15    1    1    2    0    0  0.37605381300E+02  0.51839290637E+02  0.41085742476E+03  0.41582262801E+03  0.17770000000E+01 0.  1.
</event>
<event>
 6    1  0.9416102E-006  0.5001776E+03  0.7546771E-02  0.9399412E-01
        -11   -1    0    0    0    0  0.00000000000E+00  0.00000000000E+00  0.50000000000E+03  0.50000000000E+03  0.00000000000E+00 0. -1.
         11   -1    0    0    0    0 -0.00000000000E+00 -0.00000000000E+00 -0.50000000000E+03  0.50000000000E+03  0.00000000000E+00 0.  1.
        -11    1    1    2    0    0  0.43374236701E+01  0.39136958610E+01 -0.43324464002E+03  0.43328402736E+03  0.00000000000E+00 0.  1.
         11    1    1    2    0    0 -0.44756220721E+01 -0.13654358242E+01 -0.66373634227E+02  0.66538371850E+02  0.00000000000E+00 0. -1.
        -15    1    1    2    0    0  0.27517127332E+01 -0.62060820600E+01  0.47685842646E+03  0.47691005859E+03  0.17770000000E+01 0. -1.
         15    1    1    2    0    0 -0.26135143313E+01  0.36578220232E+01  0.22759847793E+02  0.23267542193E+02  0.17770000000E+01 0.  1.
</event>
<event>
 6    1  0.9416102E-006  0.5052405E+03  0.7546771E-02  0.9388159E-01
        -11   -1    0    0    0    0  0.00000000000E+00  0.00000000000E+00  0.50000000000E+03  0.50000000000E+03  0.00000000000E+00 0. -1.
         11   -1    0    0    0    0 -0.00000000000E+00 -0.00000000000E+00 -0.50000000000E+03  0.50000000000E+03  0.00000000000E+00 0. -1.
        -11    1    1    2    0    0  0.37661995709E+01  0.84103731952E+01 -0.19163809279E+03  0.19185952477E+03  0.00000000000E+00 0. -1.
         11    1    1    2    0    0 -0.10800200468E+02  0.72431885307E+00 -0.30270650733E+03  0.30289998110E+03  0.00000000000E+00 0. -1.
        -15    1    1    2    0    0  0.53206931657E+02 -0.42696979864E+01  0.33606560213E+03  0.34028290372E+03  0.17770000000E+01 0. -1.
         15    1    1    2    0    0 -0.46172930760E+02 -0.48649940618E+01  0.15827899799E+03  0.16495759042E+03  0.17770000000E+01 0.  1.
</event>
<event>
 6    1  0.9416102E-006  0.5002921E+03  0.7546771E-02  0.9399156E-01
        -11   -1    0    0    0    0  0.00000000000E+00  0.00000000000E+00  0.50000000000E+03  0.50000000000E+03  0.00000000000E+00 0.  1.
         11   -1    0    0    0    0 -0.00000000000E+00 -0.00000000000E+00 -0.50000000000E+03  0.50000000000E+03  0.00000000000E+00 0. -1.
        -11    1    1    2    0    0  0.93844613670E+01  0.84417255527E+01 -0.91149177252E+02  0.92019038026E+02  0.00000000000E+00 0.  1.
         11    1    1    2    0    0 -0.85011204054E+01 -0.94185861110E+01 -0.40807589782E+03  0.40827309144E+03  0.00000000000E+00 0. -1.
        -15    1    1    2    0    0 -0.11218376235E+02  0.43118853676E+00  0.28243162430E+03  0.28266025193E+03  0.17770000000E+01 0.  1.
         15    1    1    2    0    0  0.10335035273E+02  0.54567202156E+00  0.21679345078E+03  0.21704761860E+03  0.17770000000E+01 0. -1.
</event>
<event>
 6    1  0.9416102E-006  0.5004522E+03  0.7546771E-02  0.9398798E-01
        -11   -1    0    0    0    0  0.00000000000E+00  0.00000000000E+00  0.50000000000E+03  0.50000000000E+03  0.00000000000E+00 0.  1.
         11   -1    0    0    0    0 -0.00000000000E+00 -0.00000000000E+00 -0.50000000000E+03  0.50000000000E+03  0.00000000000E+00 0.  1.
        -11    1    1    2    0    0  0.13668774902E+02  0.19221817824E+01  0.99890775767E+02  0.10083995871E+03  0.00000000000E+00 0.  1.
         11    1    1    2    0    0  0.82290401607E+01 -0.35851059919E+02  0.39791577194E+03  0.39961228354E+03  0.00000000000E+00 0.  1.
        -15    1    1    2    0    0 -0.20899684434E+02  0.29209393220E+02 -0.45820604184E+03  0.45961496926E+03  0.17770000000E+01 0.  1.
         15    1    1    2    0    0 -0.99813062875E+00  0.47194849163E+01 -0.39600505862E+02  0.39932788485E+02  0.17770000000E+01 0. -1.
</event>
<event>
 6    1  0.9416102E-006  0.5022654E+03  0.7546771E-02  0.9394755E-01
        -11   -1    0    0    0    0  0.00000000000E+00  0.00000000000E+00  0.50000000000E+03  0.50000000000E+03  0.00000000000E+00 0. -1.
         11   -1    0    0    0    0 -0.00000000000E+00 -0.00000000000E+00 -0.50000000000E+03  0.50000000000E+03  0.00000000000E+00 0. -1.
        -11    1    1    2    0    0  0.61821396339E+01  0.65333435464E+01 -0.62434072623E+01  0.10949135244E+02  0.00000000000E+00 0. -1.
         11    1    1    2    0    0 -0.33003217371E+01 -0.75554721945E+01 -0.49124703585E+03  0.49131621947E+03  0.00000000000E+00 0. -1.
        -15    1    1    2    0    0  0.42707703944E+01 -0.40288712177E+00  0.59854507348E+02  0.60034336648E+02  0.17770000000E+01 0.  1.
         15    1    1    2    0    0 -0.71525882911E+01  0.14250157699E+01  0.43763593576E+03  0.43770030864E+03  0.17770000000E+01 0. -1.
</event>
<event>
 6    1  0.9416102E-006  0.5116915E+03  0.7546771E-02  0.9374023E-01
        -11   -1    0    0    0    0  0.00000000000E+00  0.00000000000E+00  0.50000000000E+03  0.50000000000E+03  0.00000000000E+00 0.  1.
         11   -1    0    0    0    0 -0.00000000000E+00 -0.00000000000E+00 -0.50000000000E+03  0.50000000000E+03  0.00000000000E+00 0. -1.
        -11    1    1    2    0    0 -0.54360629234E+02  0.28910368593E+02 -0.86838751120E+02  0.10645119125E+03  0.00000000000E+00 0.  1.
         11    1    1    2    0    0  0.49338205304E+02 -0.28594671411E+02 -0.40120787859E+03  0.40524026895E+03  0.00000000000E+00 0. -1.
        -15    1    1    2    0    0  0.17544685408E+01 -0.52862266854E+01  0.40024314262E+03  0.40028583949E+03  0.17770000000E+01 0.  1.
         15    1    1    2    0    0  0.32679553886E+01  0.49705295033E+01  0.87803487085E+02  0.88022700307E+02  0.17770000000E+01 0. -1.
</event>
<event>
 6    1  0.9416102E-006  0.9437961E+03  0.7546771E-02  0.8739812E-01
        -11   -1    0    0    0    0  0.00000000000E+00  0.00000000000E+00  0.50000000000E+03  0.50000000000E+03  0.00000000000E+00 0.  1.
         11   -1    0    0    0    0 -0.00000000000E+00 -0.00000000000E+00 -0.50000000000E+03  0.50000000000E+03  0.00000000000E+00 0. -1.
        -11    1    1    2    0    0 -0.89224350477E+00  0.52302097508E+01  0.20119280773E+02  0.20807129820E+02  0.00000000000E+00 0.  1.
         11    1    1    2    0    0  0.62802745742E+01  0.10598585604E+02  0.33183765215E+02  0.35396809734E+02  0.00000000000E+00 0. -1.
        -15    1    1    2    0    0  0.31700594767E+03 -0.24666595595E+03  0.22402257090E+03  0.45991970460E+03  0.17770000000E+01 0.  1.
         15    1    1    2    0    0 -0.32239397874E+03  0.23083716059E+03 -0.27732561689E+03  0.48387635585E+03  0.17770000000E+01 0. -1.
</event>
<event>
 6    1  0.9416104E-006  0.5001220E+03  0.7546771E-02  0.9399537E-01
        -11   -1    0    0    0    0  0.00000000000E+00  0.00000000000E+00  0.50000000000E+03  0.50000000000E+03  0.00000000000E+00 0.  1.
         11   -1    0    0    0    0 -0.00000000000E+00 -0.00000000000E+00 -0.50000000000E+03  0.50000000000E+03  0.00000000000E+00 0.  1.
        -11    1    1    2    0    0  0.28787710247E+01 -0.77028808366E+01  0.37008010047E+03  0.37017145009E+03  0.00000000000E+00 0.  1.
         11    1    1    2    0    0 -0.27312636902E+01 -0.19421004882E+01  0.12966321335E+03  0.12970651661E+03  0.00000000000E+00 0.  1.
        -15    1    1    2    0    0  0.28307183925E+01  0.99458074435E+01 -0.47686328728E+03  0.47697870449E+03  0.17770000000E+01 0.  1.
         15    1    1    2    0    0 -0.29782257270E+01 -0.30082611874E+00 -0.22880026538E+02  0.23143328806E+02  0.17770000000E+01 0. -1.
</event>
<event>
 6    1  0.9416102E-006  0.1000000E+04  0.7546771E-02  0.8684367E-01
        -11   -1    0    0    0    0  0.00000000000E+00  0.00000000000E+00  0.50000000000E+03  0.50000000000E+03  0.00000000000E+00 0.  1.
         11   -1    0    0    0    0 -0.00000000000E+00 -0.00000000000E+00 -0.50000000000E+03  0.50000000000E+03  0.00000000000E+00 0. -1.
        -11    1    1    2    0    0 -0.38370277609E+00  0.96141767774E+00 -0.14720589985E+01  0.17995859153E+01  0.00000000000E+00 0.  1.
         11    1    1    2    0    0  0.20240690109E+01 -0.69234404053E+00 -0.41175153775E+01  0.46400569517E+01  0.00000000000E+00 0. -1.
        -15    1    1    2    0    0 -0.23786447711E+03  0.25572172277E+03 -0.35094133724E+03  0.49511219827E+03  0.17770000000E+01 0. -1.
         15    1    1    2    0    0  0.23622411087E+03 -0.25599079641E+03  0.35653091162E+03  0.49844815886E+03  0.17770000000E+01 0.  1.
</event>
<event>
 6    1  0.9416102E-006  0.4466804E+03  0.7546771E-02  0.9527718E-01
        -11   -1    0    0    0    0  0.00000000000E+00  0.00000000000E+00  0.50000000000E+03  0.50000000000E+03  0.00000000000E+00 0.  1.
         11   -1    0    0    0    0 -0.00000000000E+00 -0.00000000000E+00 -0.50000000000E+03  0.50000000000E+03  0.00000000000E+00 0. -1.
        -11    1    1    2    0    0 -0.10150381658E+03 -0.11855021048E+03  0.32663440101E+01  0.15610203774E+03  0.00000000000E+00 0. -1.
         11    1    1    2    0    0 -0.76750685082E+02  0.12405391791E+03  0.35399715381E+03  0.38287599444E+03  0.00000000000E+00 0.  1.
        -15    1    1    2    0    0  0.59031717919E+02 -0.54231322459E+02  0.11252296617E+01  0.80188552343E+02  0.17770000000E+01 0.  1.
         15    1    1    2    0    0  0.11922278374E+03  0.48727615024E+02 -0.35838872748E+03  0.38083341548E+03  0.17770000000E+01 0. -1.
</event>
<event>
 6    1  0.9416102E-006  0.9953729E+03  0.7546771E-02  0.8688786E-01
        -11   -1    0    0    0    0  0.00000000000E+00  0.00000000000E+00  0.50000000000E+03  0.50000000000E+03  0.00000000000E+00 0.  1.
         11   -1    0    0    0    0 -0.00000000000E+00 -0.00000000000E+00 -0.50000000000E+03  0.50000000000E+03  0.00000000000E+00 0. -1.
        -11    1    1    2    0    0 -0.19654640292E+00 -0.14719296225E+01 -0.20345220550E+01  0.25188265709E+01  0.00000000000E+00 0. -1.
         11    1    1    2    0    0  0.12406060693E+01  0.36608877999E+00 -0.16587918150E+01  0.21035005823E+01  0.00000000000E+00 0.  1.
        -15    1    1    2    0    0 -0.33707698490E+03  0.33506494379E+03 -0.14821842363E+03  0.49785667530E+03  0.17770000000E+01 0. -1.
         15    1    1    2    0    0  0.33603292523E+03 -0.33395910295E+03  0.15191173750E+03  0.49752099755E+03  0.17770000000E+01 0.  1.
</event>
<event>
 6    1  0.1086352E-005  0.1000000E+04  0.7546771E-02  0.8684367E-01
        -11   -1    0    0    0    0  0.00000000000E+00  0.00000000000E+00  0.50000000000E+03  0.50000000000E+03  0.00000000000E+00 0.  1.
         11   -1    0    0    0    0 -0.00000000000E+00 -0.00000000000E+00 -0.50000000000E+03  0.50000000000E+03  0.00000000000E+00 0. -1.
        -11    1    1    2    0    0 -0.42372026239E+02 -0.33962615117E+00  0.23209010368E+03  0.23592651436E+03  0.00000000000E+00 0.  1.
         11    1    1    2    0    0 -0.23400695538E+01  0.31869667324E+01  0.31198826304E+02  0.31448361566E+02  0.00000000000E+00 0. -1.
        -15    1    1    2    0    0 -0.13534558224E+03 -0.58113018618E+02  0.19078500064E+03  0.24103448667E+03  0.17770000000E+01 0.  1.
         15    1    1    2    0    0  0.18005767804E+03  0.55265678037E+02 -0.45407393062E+03  0.49159063741E+03  0.17770000000E+01 0. -1.
</event>
<event>
 6    1  0.9416102E-006  0.5007229E+03  0.7546771E-02  0.9398194E-01
        -11   -1    0    0    0    0  0.00000000000E+00  0.00000000000E+00  0.50000000000E+03  0.50000000000E+03  0.00000000000E+00 0.  1.
         11   -1    0    0    0    0 -0.00000000000E+00 -0.00000000000E+00 -0.50000000000E+03  0.50000000000E+03  0.00000000000E+00 0. -1.
        -11    1    1    2    0    0  0.27488342813E+02 -0.33986348737E+02  0.46414386989E+03  0.46619761137E+03  0.00000000000E+00 0.  1.
         11    1    1    2    0    0 -0.30265829934E+01 -0.13688951078E+02  0.31550720922E+02  0.34525288948E+02  0.00000000000E+00 0. -1.
        -15    1    1    2    0    0 -0.59568624016E+01  0.35508934856E+02 -0.25092232258E+03  0.25349859637E+03  0.17770000000E+01 0. -1.
         15    1    1    2    0    0 -0.18504897418E+02  0.12166364960E+02 -0.24477226823E+03  0.24577850331E+03  0.17770000000E+01 0.  1.
</event>
<event>
 6    1  0.9416102E-006  0.5037326E+03  0.7546771E-02  0.9391496E-01
        -11   -1    0    0    0    0  0.00000000000E+00  0.00000000000E+00  0.50000000000E+03  0.50000000000E+03  0.00000000000E+00 0.  1.
         11   -1    0    0    0    0 -0.00000000000E+00 -0.00000000000E+00 -0.50000000000E+03  0.50000000000E+03  0.00000000000E+00 0.  1.
        -11    1    1    2    0    0 -0.65927067805E+01 -0.22938819112E+01 -0.47831854588E+03  0.47836947750E+03  0.00000000000E+00 0.  1.
         11    1    1    2    0    0 -0.14976093629E+02 -0.82595496434E+01 -0.88492963529E+00  0.17125613599E+02  0.00000000000E+00 0.  1.
        -15    1    1    2    0    0  0.67282184510E+01 -0.61081767348E+02  0.35550872917E+03  0.36078506825E+03  0.17770000000E+01 0.  1.
         15    1    1    2    0    0  0.14840581958E+02  0.71635198903E+02  0.12369474634E+03  0.14371984065E+03  0.17770000000E+01 0. -1.
</event>
<event>
 6    1  0.9416102E-006  0.3665151E+03  0.7546771E-02  0.9760864E-01
        -11   -1    0    0    0    0  0.00000000000E+00  0.00000000000E+00  0.50000000000E+03  0.50000000000E+03  0.00000000000E+00 0. -1.
         11   -1    0    0    0    0 -0.00000000000E+00 -0.00000000000E+00 -0.50000000000E+03  0.50000000000E+03  0.00000000000E+00 0. -1.
        -11    1    1    2    0    0  0.47911136296E+02  0.20711869028E+03 -0.39766664434E+03  0.45092392803E+03  0.00000000000E+00 0. -1.
         11    1    1    2    0    0 -0.47115278486E+02 -0.21190249513E+03  0.80019717135E+02  0.23135615842E+03  0.00000000000E+00 0. -1.
        -15    1    1    2    0    0  0.34326263257E-02  0.31389425855E+01  0.24816380543E+03  0.24819001799E+03  0.17770000000E+01 0. -1.
         15    1    1    2    0    0 -0.79929043620E+00  0.16448622653E+01  0.69483121772E+02  0.69529895565E+02  0.17770000000E+01 0. -1.
</event>
<event>
 6    1  0.9416102E-006  0.5015279E+03  0.7546771E-02  0.9396397E-01
        -11   -1    0    0    0    0  0.00000000000E+00  0.00000000000E+00  0.50000000000E+03  0.50000000000E+03  0.00000000000E+00 0.  1.
         11   -1    0    0    0    0 -0.00000000000E+00 -0.00000000000E+00 -0.50000000000E+03  0.50000000000E+03  0.00000000000E+00 0.  1.
        -11    1    1    2    0    0 -0.10740838331E+02  0.37298254456E+02  0.33598752004E+03  0.33822202621E+03  0.00000000000E+00 0.  1.
         11    1    1    2    0    0 -0.11106354733E+02  0.43772691816E+01  0.15980483529E+03  0.16025010759E+03  0.00000000000E+00 0.  1.
        -15    1    1    2    0    0  0.64298518764E+01 -0.24381176419E+02 -0.44449319269E+03  0.44521134401E+03  0.17770000000E+01 0.  1.
         15    1    1    2    0    0  0.15417341187E+02 -0.17294347218E+02 -0.51299162642E+02  0.56316522192E+02  0.17770000000E+01 0. -1.
</event>
<event>
 6    1  0.9416102E-006  0.5041228E+03  0.7546771E-02  0.9390632E-01
        -11   -1    0    0    0    0  0.00000000000E+00  0.00000000000E+00  0.50000000000E+03  0.50000000000E+03  0.00000000000E+00 0.  1.
         11   -1    0    0    0    0 -0.00000000000E+00 -0.00000000000E+00 -0.50000000000E+03  0.50000000000E+03  0.00000000000E+00 0. -1.
        -11    1    1    2    0    0  0.21177144845E+01 -0.73188535713E+01 -0.50611718051E+02  0.51181992305E+02  0.00000000000E+00 0.  1.
         11    1    1    2    0    0  0.32190735327E+02 -0.36558340449E+02 -0.44201930651E+03  0.44469520239E+03  0.00000000000E+00 0. -1.
        -15    1    1    2    0    0 -0.42451938026E+02 -0.24635217027E+00  0.96313712018E+02  0.10526973251E+03  0.17770000000E+01 0. -1.
         15    1    1    2    0    0  0.81434882145E+01  0.44123546191E+02  0.39631731254E+03  0.39885307280E+03  0.17770000000E+01 0.  1.
</event>
<event>
 6    1  0.9416102E-006  0.1000000E+04  0.7546771E-02  0.8684367E-01
        -11   -1    0    0    0    0  0.00000000000E+00  0.00000000000E+00  0.50000000000E+03  0.50000000000E+03  0.00000000000E+00 0.  1.
         11   -1    0    0    0    0 -0.00000000000E+00 -0.00000000000E+00 -0.50000000000E+03  0.50000000000E+03  0.00000000000E+00 0. -1.
        -11    1    1    2    0    0  0.85018374826E+00 -0.50037250421E+01  0.11794150842E+02  0.12839862569E+02  0.00000000000E+00 0. -1.
         11    1    1    2    0    0  0.15747008722E+02  0.87330453930E+01  0.13345446132E+03  0.13466375760E+03  0.00000000000E+00 0.  1.
        -15    1    1    2    0    0  0.31678111145E+03  0.63623513551E+02  0.19007617583E+03  0.37487375795E+03  0.17770000000E+01 0.  1.
         15    1    1    2    0    0 -0.33337830392E+03 -0.67352833902E+02 -0.33532478800E+03  0.47762262188E+03  0.17770000000E+01 0. -1.
</event>
<event>
 6    1  0.9416102E-006  0.5001099E+03  0.7546771E-02  0.9399564E-01
        -11   -1    0    0    0    0  0.00000000000E+00  0.00000000000E+00  0.50000000000E+03  0.50000000000E+03  0.00000000000E+00 0.  1.
         11   -1    0    0    0    0 -0.00000000000E+00 -0.00000000000E+00 -0.50000000000E+03  0.50000000000E+03  0.00000000000E+00 0.  1.
        -11    1    1    2    0    0 -0.45351244466E+01  0.59067768254E+01 -0.41507187937E+03  0.41513867853E+03  0.00000000000E+00 0.  1.
         11    1    1    2    0    0  0.46021667287E+01 -0.63777438214E+01 -0.84606445839E+02  0.84971208255E+02  0.00000000000E+00 0.  1.
        -15    1    1    2    0    0  0.17965583001E+01  0.64875235509E+01  0.16360637502E+03  0.16375444806E+03  0.17770000000E+01 0.  1.
         15    1    1    2    0    0 -0.18636005822E+01 -0.60165565549E+01  0.33607195019E+03  0.33613566516E+03  0.17770000000E+01 0. -1.
</event>
<event>
 6    1  0.9416102E-006  0.5000012E+03  0.7546771E-02  0.9399807E-01
        -11   -1    0    0    0    0  0.00000000000E+00  0.00000000000E+00  0.50000000000E+03  0.50000000000E+03  0.00000000000E+00 0. -1.
         11   -1    0    0    0    0 -0.00000000000E+00 -0.00000000000E+00 -0.50000000000E+03  0.50000000000E+03  0.00000000000E+00 0. -1.
        -11    1    1    2    0    0 -0.13760607684E+02 -0.86626002801E+01 -0.41681710768E+03  0.41713414655E+03  0.00000000000E+00 0. -1.
         11    1    1    2    0    0 -0.27189875585E+01  0.19429511831E+01 -0.82799687611E+02  0.82867099751E+02  0.00000000000E+00 0. -1.
        -15    1    1    2    0    0  0.90714138923E+01  0.17324966021E+01  0.33350767547E+03  0.33364025450E+03  0.17770000000E+01 0. -1.
         15    1    1    2    0    0  0.74081813506E+01  0.49871524949E+01  0.16610911982E+03  0.16635849920E+03  0.17770000000E+01 0. -1.
</event>
<event>
 6    1  0.9416102E-006  0.5013095E+03  0.7546771E-02  0.9396884E-01
        -11   -1    0    0    0    0  0.00000000000E+00  0.00000000000E+00  0.50000000000E+03  0.50000000000E+03  0.00000000000E+00 0.  1.
         11   -1    0    0    0    0 -0.00000000000E+00 -0.00000000000E+00 -0.50000000000E+03  0.50000000000E+03  0.00000000000E+00 0.  1.
        -11    1    1    2    0    0  0.19369584505E+02  0.21307790088E+02 -0.15968401843E+03  0.16225963288E+03  0.00000000000E+00 0.  1.
         11    1    1    2    0    0 -0.17534459132E+02 -0.14394986360E+02 -0.33828997774E+03  0.33904982219E+03  0.00000000000E+00 0.  1.
        -15    1    1    2    0    0  0.11045189276E+02  0.57538897753E+00  0.16591884189E+03  0.16629656371E+03  0.17770000000E+01 0. -1.
         15    1    1    2    0    0 -0.12880314650E+02 -0.74881927056E+01  0.33205515427E+03  0.33239398121E+03  0.17770000000E+01 0.  1.
</event>
<event>
 6    1  0.9416102E-006  0.5000309E+03  0.7546771E-02  0.9399740E-01
        -11   -1    0    0    0    0  0.00000000000E+00  0.00000000000E+00  0.50000000000E+03  0.50000000000E+03  0.00000000000E+00 0. -1.
         11   -1    0    0    0    0 -0.00000000000E+00 -0.00000000000E+00 -0.50000000000E+03  0.50000000000E+03  0.00000000000E+00 0.  1.
        -11    1    1    2    0    0 -0.12045907162E+02  0.42340245574E+01  0.30185330597E+03  0.30212323506E+03  0.00000000000E+00 0. -1.
         11    1    1    2    0    0 -0.82884219305E+01 -0.85213143864E+01  0.19755037341E+03  0.19790770771E+03  0.00000000000E+00 0.  1.
        -15    1    1    2    0    0  0.87450864015E+01 -0.74389991505E+00 -0.11279054529E+03  0.11314545841E+03  0.17770000000E+01 0. -1.
         15    1    1    2    0    0  0.11589242691E+02  0.50311897441E+01 -0.38661313409E+03  0.38682359881E+03  0.17770000000E+01 0.  1.
</event>
<event>
 6    1  0.9416102E-006  0.5022196E+03  0.7546771E-02  0.9394857E-01
        -11   -1    0    0    0    0  0.00000000000E+00  0.00000000000E+00  0.50000000000E+03  0.50000000000E+03  0.00000000000E+00 0.  1.
         11   -1    0    0    0    0 -0.00000000000E+00 -0.00000000000E+00 -0.50000000000E+03  0.50000000000E+03  0.00000000000E+00 0. -1.
        -11    1    1    2    0    0 -0.10860295444E+02  0.21218076513E+02 -0.45800950847E+03  0.45862933032E+03  0.00000000000E+00 0. -1.
         11    1    1    2    0    0  0.16010436568E+02 -0.90126303281E+01 -0.39529068223E+02  0.43590237658E+02  0.00000000000E+00 0.  1.
        -15    1    1    2    0    0 -0.66219634342E+01 -0.10735694842E+02  0.39485240938E+03  0.39505782927E+03  0.17770000000E+01 0.  1.
         15    1    1    2    0    0  0.14718223101E+01 -0.14697513435E+01  0.10268616731E+03  0.10272260275E+03  0.17770000000E+01 0.  1.
</event>
<event>
 6    1  0.9416102E-006  0.9855022E+03  0.7546771E-02  0.8698298E-01
        -11   -1    0    0    0    0  0.00000000000E+00  0.00000000000E+00  0.50000000000E+03  0.50000000000E+03  0.00000000000E+00 0.  1.
         11   -1    0    0    0    0 -0.00000000000E+00 -0.00000000000E+00 -0.50000000000E+03  0.50000000000E+03  0.00000000000E+00 0. -1.
        -11    1    1    2    0    0 -0.78946176032E+01  0.51909763251E+01 -0.75753505771E+01  0.12110208862E+02  0.00000000000E+00 0. -1.
         11    1    1    2    0    0 -0.14738631049E+01  0.33452415715E+00 -0.18483833136E+01  0.23876138167E+01  0.00000000000E+00 0.  1.
        -15    1    1    2    0    0  0.26675177505E+03  0.41443682243E+03  0.99185809248E+00  0.49286766053E+03  0.17770000000E+01 0. -1.
         15    1    1    2    0    0 -0.25738329435E+03 -0.41996232292E+03  0.84318757983E+01  0.49263451679E+03  0.17770000000E+01 0.  1.
</event>
<event>
 6    1  0.9416102E-006  0.5191901E+03  0.7546771E-02  0.9357865E-01
        -11   -1    0    0    0    0  0.00000000000E+00  0.00000000000E+00  0.50000000000E+03  0.50000000000E+03  0.00000000000E+00 0.  1.
         11   -1    0    0    0    0 -0.00000000000E+00 -0.00000000000E+00 -0.50000000000E+03  0.50000000000E+03  0.00000000000E+00 0. -1.
        -11    1    1    2    0    0  0.41366957103E+01  0.77911573849E+01 -0.42690860851E+03  0.42699973584E+03  0.00000000000E+00 0. -1.
         11    1    1    2    0    0  0.96075656927E+01 -0.85664756899E+01 -0.52247952297E+02  0.53810206685E+02  0.00000000000E+00 0.  1.
        -15    1    1    2    0    0 -0.39006847635E+02 -0.69102579607E+02  0.41018278286E+03  0.41779154342E+03  0.17770000000E+01 0.  1.
         15    1    1    2    0    0  0.25262586232E+02  0.69877897912E+02  0.68973777943E+02  0.10139851406E+03  0.17770000000E+01 0. -1.
</event>
<event>
 6    1  0.9416102E-006  0.5004083E+03  0.7546771E-02  0.9398897E-01
        -11   -1    0    0    0    0  0.00000000000E+00  0.00000000000E+00  0.50000000000E+03  0.50000000000E+03  0.00000000000E+00 0.  1.
         11   -1    0    0    0    0 -0.00000000000E+00 -0.00000000000E+00 -0.50000000000E+03  0.50000000000E+03  0.00000000000E+00 0. -1.
        -11    1    1    2    0    0  0.96713469453E+01  0.50366601350E+02 -0.48345915450E+03  0.48617186627E+03  0.00000000000E+00 0. -1.
         11    1    1    2    0    0  0.68073877167E+01  0.81818028302E+00 -0.12476642268E+02  0.14236451411E+02  0.00000000000E+00 0.  1.
        -15    1    1    2    0    0 -0.38037273641E+01 -0.14239089173E+02  0.26121893230E+03  0.26164041798E+03  0.17770000000E+01 0.  1.
         15    1    1    2    0    0 -0.12675007298E+02 -0.36945692460E+02  0.23471686447E+03  0.23795126434E+03  0.17770000000E+01 0. -1.
</event>
<event>
 6    1  0.9416102E-006  0.5000384E+03  0.7546771E-02  0.9399724E-01
        -11   -1    0    0    0    0  0.00000000000E+00  0.00000000000E+00  0.50000000000E+03  0.50000000000E+03  0.00000000000E+00 0. -1.
         11   -1    0    0    0    0 -0.00000000000E+00 -0.00000000000E+00 -0.50000000000E+03  0.50000000000E+03  0.00000000000E+00 0. -1.
        -11    1    1    2    0    0  0.17408025403E+01  0.39146875047E+01 -0.24074619198E+03  0.24078431038E+03  0.00000000000E+00 0. -1.
         11    1    1    2    0    0 -0.42301190380E+00  0.49859484952E+01 -0.25912893871E+03  0.25917724726E+03  0.00000000000E+00 0. -1.
        -15    1    1    2    0    0  0.47920440935E+00 -0.81820122212E+01  0.46019975968E+03  0.46027616873E+03  0.17770000000E+01 0. -1.
         15    1    1    2    0    0 -0.17969950459E+01 -0.71862377867E+00  0.39675371008E+02  0.39762273639E+02  0.17770000000E+01 0. -1.
</event>
<event>
 6    1  0.9416102E-006  0.5094842E+03  0.7546771E-02  0.9378835E-01
        -11   -1    0    0    0    0  0.00000000000E+00  0.00000000000E+00  0.50000000000E+03  0.50000000000E+03  0.00000000000E+00 0. -1.
         11   -1    0    0    0    0 -0.00000000000E+00 -0.00000000000E+00 -0.50000000000E+03  0.50000000000E+03  0.00000000000E+00 0.  1.
        -11    1    1    2    0    0 -0.59727792599E+01  0.10361922722E+01  0.16346076600E+02  0.17433932624E+02  0.00000000000E+00 0.  1.
         11    1    1    2    0    0 -0.83657773958E+02  0.52024304607E+02  0.46271079172E+03  0.47308184090E+03  0.00000000000E+00 0. -1.
        -15    1    1    2    0    0  0.39744567747E+02 -0.98311009905E+02 -0.29197250342E+03  0.31063770830E+03  0.17770000000E+01 0. -1.
         15    1    1    2    0    0  0.49885985471E+02  0.45250513026E+02 -0.18708436489E+03  0.19884651818E+03  0.17770000000E+01 0.  1.
</event>
<event>
 6    1  0.9416102E-006  0.1000000E+04  0.7546771E-02  0.8684367E-01
        -11   -1    0    0    0    0  0.00000000000E+00  0.00000000000E+00  0.50000000000E+03  0.50000000000E+03  0.00000000000E+00 0.  1.
         11   -1    0    0    0    0 -0.00000000000E+00 -0.00000000000E+00 -0.50000000000E+03  0.50000000000E+03  0.00000000000E+00 0. -1.
        -11    1    1    2    0    0  0.47247637032E+00 -0.41676586114E+00 -0.10842908746E+02  0.10861196885E+02  0.00000000000E+00 0.  1.
         11    1    1    2    0    0  0.66642192908E+01 -0.83249887101E+00 -0.11962791894E+03  0.11981629215E+03  0.00000000000E+00 0. -1.
        -15    1    1    2    0    0 -0.16703654127E+03 -0.16451735906E+03  0.43102376971E+03  0.49066466690E+03  0.17770000000E+01 0.  1.
         15    1    1    2    0    0  0.15989984561E+03  0.16576662379E+03 -0.30055294203E+03  0.37865784407E+03  0.17770000000E+01 0. -1.
</event>
<event>
 6    1  0.9416102E-006  0.5007779E+03  0.7546771E-02  0.9398071E-01
        -11   -1    0    0    0    0  0.00000000000E+00  0.00000000000E+00  0.50000000000E+03  0.50000000000E+03  0.00000000000E+00 0. -1.
         11   -1    0    0    0    0 -0.00000000000E+00 -0.00000000000E+00 -0.50000000000E+03  0.50000000000E+03  0.00000000000E+00 0. -1.
        -11    1    1    2    0    0  0.81241102027E+01  0.12912763270E+02 -0.60298795761E+02  0.62198757159E+02  0.00000000000E+00 0. -1.
         11    1    1    2    0    0  0.24253883815E+02 -0.10058165923E+02 -0.43779244070E+03  0.43857911340E+03  0.00000000000E+00 0. -1.
        -15    1    1    2    0    0 -0.31022997003E+02 -0.21648068633E+01  0.47176171380E+03  0.47278894347E+03  0.17770000000E+01 0. -1.
         15    1    1    2    0    0 -0.13549970151E+01 -0.68979048400E+00  0.26329522664E+02  0.26433185970E+02  0.17770000000E+01 0. -1.
</event>
<event>
 6    1  0.9416102E-006  0.5000047E+03  0.7546771E-02  0.9399799E-01
        -11   -1    0    0    0    0  0.00000000000E+00  0.00000000000E+00  0.50000000000E+03  0.50000000000E+03  0.00000000000E+00 0.  1.
         11   -1    0    0    0    0 -0.00000000000E+00 -0.00000000000E+00 -0.50000000000E+03  0.50000000000E+03  0.00000000000E+00 0.  1.
        -11    1    1    2    0    0 -0.19313968478E+00  0.92441248578E+00 -0.15027522190E+02  0.15057166551E+02  0.00000000000E+00 0.  1.
         11    1    1    2    0    0 -0.99785706233E+01  0.21986436876E+01 -0.48483051463E+03  0.48493817525E+03  0.00000000000E+00 0.  1.
        -15    1    1    2    0    0  0.25176369757E+01 -0.95736143550E-01  0.21524969401E+03  0.21527177280E+03  0.17770000000E+01 0.  1.
         15    1    1    2    0    0  0.76540733324E+01 -0.30273200298E+01  0.28460834280E+03  0.28473288540E+03  0.17770000000E+01 0.  1.
</event>
<event>
 6    1  0.9416102E-006  0.9788448E+03  0.7546771E-02  0.8704779E-01
        -11   -1    0    0    0    0  0.00000000000E+00  0.00000000000E+00  0.50000000000E+03  0.50000000000E+03  0.00000000000E+00 0. -1.
         11   -1    0    0    0    0 -0.00000000000E+00 -0.00000000000E+00 -0.50000000000E+03  0.50000000000E+03  0.00000000000E+00 0.  1.
        -11    1    1    2    0    0 -0.40132288731E+01 -0.91038422754E+01  0.15250669350E+02  0.18209032533E+02  0.00000000000E+00 0.  1.
         11    1    1    2    0    0 -0.80677727738E+00  0.83445689519E+00  0.27078908290E+01  0.29461637136E+01  0.00000000000E+00 0. -1.
        -15    1    1    2    0    0  0.16482580544E+03 -0.41251661645E+03 -0.20760265697E+03  0.49034633260E+03  0.17770000000E+01 0.  1.
         15    1    1    2    0    0 -0.16000579929E+03  0.42078600183E+03  0.18964409679E+03  0.48849847115E+03  0.17770000000E+01 0. -1.
</event>
<event>
 6    1  0.9416102E-006  0.5215077E+03  0.7546771E-02  0.9352930E-01
        -11   -1    0    0    0    0  0.00000000000E+00  0.00000000000E+00  0.50000000000E+03  0.50000000000E+03  0.00000000000E+00 0.  1.
         11   -1    0    0    0    0 -0.00000000000E+00 -0.00000000000E+00 -0.50000000000E+03  0.50000000000E+03  0.00000000000E+00 0. -1.
        -11    1    1    2    0    0  0.99596427881E+01  0.25111183784E+02 -0.18218533805E+03  0.18417726091E+03  0.00000000000E+00 0. -1.
         11    1    1    2    0    0  0.35983212532E+02  0.24738381957E+02 -0.29105766943E+03  0.29431504559E+03  0.00000000000E+00 0.  1.
        -15    1    1    2    0    0 -0.37918463107E+02  0.33064184306E+02  0.41916384446E+03  0.42217595426E+03  0.17770000000E+01 0.  1.
         15    1    1    2    0    0 -0.80243922133E+01 -0.82913750047E+02  0.54079163024E+02  0.99331739236E+02  0.17770000000E+01 0. -1.
</event>
<event>
 6    1  0.9416102E-006  0.5000651E+03  0.7546771E-02  0.9399664E-01
        -11   -1    0    0    0    0  0.00000000000E+00  0.00000000000E+00  0.50000000000E+03  0.50000000000E+03  0.00000000000E+00 0.  1.
         11   -1    0    0    0    0 -0.00000000000E+00 -0.00000000000E+00 -0.50000000000E+03  0.50000000000E+03  0.00000000000E+00 0. -1.
        -11    1    1    2    0    0 -0.14776204193E+03 -0.25527417641E+02  0.37254232067E+03  0.40158816066E+03  0.00000000000E+00 0.  1.
         11    1    1    2    0    0 -0.41559548866E+02  0.85942523112E+01  0.88718744768E+02  0.98346697697E+02  0.00000000000E+00 0. -1.
        -15    1    1    2    0    0  0.17147568081E+03  0.24964623964E+02 -0.42076416456E+03  0.45505250408E+03  0.17770000000E+01 0. -1.
         15    1    1    2    0    0  0.17845909983E+02 -0.80314586343E+01 -0.40496900882E+02  0.45012637570E+02  0.17770000000E+01 0.  1.
</event>
<event>
 6    1  0.9416102E-006  0.5021322E+03  0.7546771E-02  0.9395051E-01
        -11   -1    0    0    0    0  0.00000000000E+00  0.00000000000E+00  0.50000000000E+03  0.50000000000E+03  0.00000000000E+00 0.  1.
         11   -1    0    0    0    0 -0.00000000000E+00 -0.00000000000E+00 -0.50000000000E+03  0.50000000000E+03  0.00000000000E+00 0. -1.
        -11    1    1    2    0    0  0.18462809869E+02 -0.97460842178E+01 -0.42190196490E+03  0.42241819266E+03  0.00000000000E+00 0. -1.
         11    1    1    2    0    0 -0.20808445668E+02  0.13153343404E+02 -0.75817635322E+02  0.79713961635E+02  0.00000000000E+00 0.  1.
        -15    1    1    2    0    0  0.18862935293E+01  0.37303539647E+01  0.23962463989E+03  0.23966768538E+03  0.17770000000E+01 0. -1.
         15    1    1    2    0    0  0.45934226939E+00 -0.71376131508E+01  0.25809496033E+03  0.25820016033E+03  0.17770000000E+01 0.  1.
</event>
<event>
 6    1  0.9416102E-006  0.4124081E+03  0.7546771E-02  0.9620433E-01
        -11   -1    0    0    0    0  0.00000000000E+00  0.00000000000E+00  0.50000000000E+03  0.50000000000E+03  0.00000000000E+00 0. -1.
         11   -1    0    0    0    0 -0.00000000000E+00 -0.00000000000E+00 -0.50000000000E+03  0.50000000000E+03  0.00000000000E+00 0. -1.
        -11    1    1    2    0    0 -0.12510492881E+02 -0.80527578867E+02 -0.36689270559E+03  0.37583435288E+03  0.00000000000E+00 0. -1.
         11    1    1    2    0    0 -0.39419692721E+02  0.15026922971E+03 -0.68170474493E+02  0.16965248942E+03  0.00000000000E+00 0. -1.
        -15    1    1    2    0    0  0.61228503510E+02 -0.42706466280E+02  0.40908079091E+03  0.41584014131E+03  0.17770000000E+01 0. -1.
         15    1    1    2    0    0 -0.92983179082E+01 -0.27035184565E+02  0.25982389172E+02  0.38673016388E+02  0.17770000000E+01 0.  1.
</event>
<event>
 6    1  0.9416102E-006  0.1000000E+04  0.7546771E-02  0.8684367E-01
        -11   -1    0    0    0    0  0.00000000000E+00  0.00000000000E+00  0.50000000000E+03  0.50000000000E+03  0.00000000000E+00 0. -1.
         11   -1    0    0    0    0 -0.00000000000E+00 -0.00000000000E+00 -0.50000000000E+03  0.50000000000E+03  0.00000000000E+00 0.  1.
        -11    1    1    2    0    0  0.50710696510E+02  0.18199925952E+02  0.65269363569E+02  0.84633928574E+02  0.00000000000E+00 0.  1.
         11    1    1    2    0    0  0.20357268721E+03 -0.62615834477E+01  0.17693958457E+03  0.26979374157E+03  0.00000000000E+00 0. -1.
        -15    1    1    2    0    0  0.12556891967E+03  0.94482435691E+02  0.38018745205E+02  0.16168817816E+03  0.17770000000E+01 0. -1.
         15    1    1    2    0    0 -0.37985230338E+03 -0.10642077820E+03 -0.28022769334E+03  0.48388415170E+03  0.17770000000E+01 0.  1.
</event>
<event>
 6    1  0.9416102E-006  0.4255070E+03  0.7546771E-02  0.9583900E-01
        -11   -1    0    0    0    0  0.00000000000E+00  0.00000000000E+00  0.50000000000E+03  0.50000000000E+03  0.00000000000E+00 0. -1.
         11   -1    0    0    0    0 -0.00000000000E+00 -0.00000000000E+00 -0.50000000000E+03  0.50000000000E+03  0.00000000000E+00 0.  1.
        -11    1    1    2    0    0  0.77962839865E+02 -0.10010276160E+03  0.61798761033E+02  0.14113062795E+03  0.00000000000E+00 0. -1.
         11    1    1    2    0    0 -0.21044201715E+02  0.58651037274E+02 -0.45303387976E+03  0.45729913493E+03  0.00000000000E+00 0.  1.
        -15    1    1    2    0    0 -0.57688873965E+02  0.53220405060E+02  0.33351753516E+03  0.34263321743E+03  0.17770000000E+01 0. -1.
         15    1    1    2    0    0  0.77023581494E+00 -0.11768680739E+02  0.57717583564E+02  0.58937019699E+02  0.17770000000E+01 0.  1.
</event>
<event>
 6    1  0.9416102E-006  0.5023984E+03  0.7546771E-02  0.9394459E-01
        -11   -1    0    0    0    0  0.00000000000E+00  0.00000000000E+00  0.50000000000E+03  0.50000000000E+03  0.00000000000E+00 0.  1.
         11   -1    0    0    0    0 -0.00000000000E+00 -0.00000000000E+00 -0.50000000000E+03  0.50000000000E+03  0.00000000000E+00 0. -1.
        -11    1    1    2    0    0 -0.14186175960E+02 -0.13296076974E+02 -0.38094353502E+02  0.42769299971E+02  0.00000000000E+00 0.  1.
         11    1    1    2    0    0 -0.12348688883E+02  0.32503143779E+02 -0.45831210862E+03  0.45962912590E+03  0.00000000000E+00 0. -1.
        -15    1    1    2    0    0  0.19713508563E+01 -0.47137393786E+01  0.53029378808E+02  0.53304580562E+02  0.17770000000E+01 0. -1.
         15    1    1    2    0    0  0.24563513987E+02 -0.14493327427E+02  0.44337708331E+03  0.44429699357E+03  0.17770000000E+01 0.  1.
</event>
<event>
 6    1  0.9416102E-006  0.5072800E+03  0.7546771E-02  0.9383666E-01
        -11   -1    0    0    0    0  0.00000000000E+00  0.00000000000E+00  0.50000000000E+03  0.50000000000E+03  0.00000000000E+00 0. -1.
         11   -1    0    0    0    0 -0.00000000000E+00 -0.00000000000E+00 -0.50000000000E+03  0.50000000000E+03  0.00000000000E+00 0.  1.
        -11    1    1    2    0    0  0.44406054055E+01 -0.63735959624E+02 -0.22169812721E+02  0.67627598816E+02  0.00000000000E+00 0. -1.
         11    1    1    2    0    0  0.23425637684E+03 -0.18097516095E+03 -0.30508270127E+03  0.42509235889E+03  0.00000000000E+00 0.  1.
        -15    1    1    2    0    0 -0.22945187846E+03  0.25815549566E+03  0.24514086447E+03  0.42354412477E+03  0.17770000000E+01 0. -1.
         15    1    1    2    0    0 -0.92451037826E+01 -0.13444375090E+02  0.82111649530E+02  0.83735917521E+02  0.17770000000E+01 0.  1.
</event>
<event>
 6    1  0.9416102E-006  0.5031318E+03  0.7546771E-02  0.9392829E-01
        -11   -1    0    0    0    0  0.00000000000E+00  0.00000000000E+00  0.50000000000E+03  0.50000000000E+03  0.00000000000E+00 0.  1.
         11   -1    0    0    0    0 -0.00000000000E+00 -0.00000000000E+00 -0.50000000000E+03  0.50000000000E+03  0.00000000000E+00 0. -1.
        -11    1    1    2    0    0  0.23387221936E+02 -0.98067987312E+01  0.53043397286E+02  0.58794025605E+02  0.00000000000E+00 0.  1.
         11    1    1    2    0    0 -0.37283425029E+02 -0.43191827414E+02  0.44065911162E+03  0.44433775485E+03  0.00000000000E+00 0. -1.
        -15    1    1    2    0    0  0.20283922042E+00  0.17842055350E+02 -0.13599276490E+03  0.13716985791E+03  0.17770000000E+01 0. -1.
         15    1    1    2    0    0  0.13693363872E+02  0.35156570795E+02 -0.35770974400E+03  0.35969836164E+03  0.17770000000E+01 0.  1.
</event>
<event>
 6    1  0.9416102E-006  0.5003996E+03  0.7546771E-02  0.9398916E-01
        -11   -1    0    0    0    0  0.00000000000E+00  0.00000000000E+00  0.50000000000E+03  0.50000000000E+03  0.00000000000E+00 0.  1.
         11   -1    0    0    0    0 -0.00000000000E+00 -0.00000000000E+00 -0.50000000000E+03  0.50000000000E+03  0.00000000000E+00 0. -1.
        -11    1    1    2    0    0 -0.20490097696E+02 -0.28432565118E+02 -0.16923984204E+03  0.17283049209E+03  0.00000000000E+00 0.  1.
         11    1    1    2    0    0  0.32865879666E+01 -0.39646676511E+02 -0.32514435878E+03  0.32756909907E+03  0.00000000000E+00 0. -1.
        -15    1    1    2    0    0  0.34986088702E+01  0.30911831920E+02  0.17356119456E+03  0.17633612109E+03  0.17770000000E+01 0. -1.
         15    1    1    2    0    0  0.13704900859E+02  0.37167409709E+02  0.32082300627E+03  0.32326428774E+03  0.17770000000E+01 0.  1.
</event>
<event>
 6    1  0.9416102E-006  0.5000630E+03  0.7546771E-02  0.9399669E-01
        -11   -1    0    0    0    0  0.00000000000E+00  0.00000000000E+00  0.50000000000E+03  0.50000000000E+03  0.00000000000E+00 0. -1.
         11   -1    0    0    0    0 -0.00000000000E+00 -0.00000000000E+00 -0.50000000000E+03  0.50000000000E+03  0.00000000000E+00 0.  1.
        -11    1    1    2    0    0  0.47111737195E+01  0.11751811708E+02  0.45776450035E+03  0.45793955717E+03  0.00000000000E+00 0. -1.
         11    1    1    2    0    0 -0.17086322871E+01  0.29466800003E+01  0.41859119766E+02  0.41997479150E+02  0.00000000000E+00 0.  1.
        -15    1    1    2    0    0  0.57253391705E+01 -0.62324499376E+01 -0.19539689620E+03  0.19558815842E+03  0.17770000000E+01 0.  1.
         15    1    1    2    0    0 -0.87278806030E+01 -0.84660417703E+01 -0.30422672392E+03  0.30447480526E+03  0.17770000000E+01 0.  1.
</event>
<event>
 6    1  0.9416102E-006  0.5091091E+03  0.7546771E-02  0.9379655E-01
        -11   -1    0    0    0    0  0.00000000000E+00  0.00000000000E+00  0.50000000000E+03  0.50000000000E+03  0.00000000000E+00 0.  1.
         11   -1    0    0    0    0 -0.00000000000E+00 -0.00000000000E+00 -0.50000000000E+03  0.50000000000E+03  0.00000000000E+00 0. -1.
        -11    1    1    2    0    0  0.19354333620E+03 -0.21940168959E+03  0.29512922910E+03  0.41556875033E+03  0.00000000000E+00 0.  1.
         11    1    1    2    0    0 -0.22224554872E+02 -0.69946595330E+02  0.57994230662E+02  0.93540300554E+02  0.00000000000E+00 0. -1.
        -15    1    1    2    0    0 -0.31225972705E+02  0.56574290262E+02 -0.38674534211E+02  0.75329868017E+02  0.17770000000E+01 0. -1.
         15    1    1    2    0    0 -0.14009280862E+03  0.23277399465E+03 -0.31444892555E+03  0.41556108110E+03  0.17770000000E+01 0.  1.
</event>
<event>
 6    1  0.9416102E-006  0.1000000E+04  0.7546771E-02  0.8684367E-01
        -11   -1    0    0    0    0  0.00000000000E+00  0.00000000000E+00  0.50000000000E+03  0.50000000000E+03  0.00000000000E+00 0. -1.
         11   -1    0    0    0    0 -0.00000000000E+00 -0.00000000000E+00 -0.50000000000E+03  0.50000000000E+03  0.00000000000E+00 0.  1.
        -11    1    1    2    0    0  0.39379380126E+00 -0.85382808313E+00 -0.43331498338E+00  0.10353056690E+01  0.00000000000E+00 0. -1.
         11    1    1    2    0    0  0.27217106805E+01 -0.37190088765E+01 -0.61327758717E+01  0.76713542445E+01  0.00000000000E+00 0.  1.
        -15    1    1    2    0    0 -0.21874961972E+02 -0.52197930921E+02 -0.48893091722E+03  0.49219888002E+03  0.17770000000E+01 0.  1.
         15    1    1    2    0    0  0.18759457490E+02  0.56770767880E+02  0.49549700807E+03  0.49909446007E+03  0.17770000000E+01 0. -1.
</event>
<event>
 6    1  0.9416102E-006  0.1000000E+04  0.7546771E-02  0.8684367E-01
        -11   -1    0    0    0    0  0.00000000000E+00  0.00000000000E+00  0.50000000000E+03  0.50000000000E+03  0.00000000000E+00 0.  1.
         11   -1    0    0    0    0 -0.00000000000E+00 -0.00000000000E+00 -0.50000000000E+03  0.50000000000E+03  0.00000000000E+00 0.  1.
        -11    1    1    2    0    0 -0.10500624008E+02 -0.18237683618E+02 -0.35110057308E+03  0.35173070469E+03  0.00000000000E+00 0.  1.
         11    1    1    2    0    0 -0.16112863813E+02  0.20031531959E+01 -0.63261426053E+02  0.65311905724E+02  0.00000000000E+00 0.  1.
        -15    1    1    2    0    0 -0.65019529781E+02 -0.82619894309E+02  0.43415628370E+03  0.44670843129E+03  0.17770000000E+01 0.  1.
         15    1    1    2    0    0  0.91633017602E+02  0.98854424732E+02 -0.19794284563E+02  0.13624895829E+03  0.17770000000E+01 0. -1.
</event>
<event>
 6    1  0.9416102E-006  0.5351012E+03  0.7546771E-02  0.9324521E-01
        -11   -1    0    0    0    0  0.00000000000E+00  0.00000000000E+00  0.50000000000E+03  0.50000000000E+03  0.00000000000E+00 0.  1.
         11   -1    0    0    0    0 -0.00000000000E+00 -0.00000000000E+00 -0.50000000000E+03  0.50000000000E+03  0.00000000000E+00 0.  1.
        -11    1    1    2    0    0  0.26915216132E+02 -0.14491732537E+03 -0.42615408871E+03  0.45092434773E+03  0.00000000000E+00 0.  1.
         11    1    1    2    0    0  0.30983118489E+01 -0.12488746415E+01 -0.13569256289E+02  0.13974403043E+02  0.00000000000E+00 0.  1.
        -15    1    1    2    0    0 -0.12178235584E+03  0.55917540999E+02  0.87398045995E+02  0.15999778048E+03  0.17770000000E+01 0. -1.
         15    1    1    2    0    0  0.91768827861E+02  0.90248659017E+02  0.35232529900E+03  0.37510346875E+03  0.17770000000E+01 0.  1.
</event>
<event>
 6    1  0.9416102E-006  0.5025617E+03  0.7546771E-02  0.9394096E-01
        -11   -1    0    0    0    0  0.00000000000E+00  0.00000000000E+00  0.50000000000E+03  0.50000000000E+03  0.00000000000E+00 0. -1.
         11   -1    0    0    0    0 -0.00000000000E+00 -0.00000000000E+00 -0.50000000000E+03  0.50000000000E+03  0.00000000000E+00 0.  1.
        -11    1    1    2    0    0  0.15457490611E+02 -0.13076198910E+02 -0.65634423245E+02  0.68686232308E+02  0.00000000000E+00 0. -1.
         11    1    1    2    0    0 -0.28586641733E+02  0.47156597679E+02 -0.43035685357E+03  0.43387551464E+03  0.00000000000E+00 0.  1.
        -15    1    1    2    0    0  0.75329309580E+01 -0.27612723941E+02  0.34240817907E+03  0.34360693589E+03  0.17770000000E+01 0. -1.
         15    1    1    2    0    0  0.55962201636E+01 -0.64676748275E+01  0.15358309775E+03  0.15383131716E+03  0.17770000000E+01 0.  1.
</event>
<event>
 6    1  0.9416102E-006  0.1000000E+04  0.7546771E-02  0.8684367E-01
        -11   -1    0    0    0    0  0.00000000000E+00  0.00000000000E+00  0.50000000000E+03  0.50000000000E+03  0.00000000000E+00 0.  1.
         11   -1    0    0    0    0 -0.00000000000E+00 -0.00000000000E+00 -0.50000000000E+03  0.50000000000E+03  0.00000000000E+00 0.  1.
        -11    1    1    2    0    0  0.11112843087E+02 -0.70004322308E+01 -0.15518928689E+03  0.15574407243E+03  0.00000000000E+00 0.  1.
         11    1    1    2    0    0  0.20300156923E+02  0.85050650756E+01 -0.32393659579E+03  0.32468346216E+03  0.00000000000E+00 0.  1.
        -15    1    1    2    0    0 -0.36605134416E+02  0.74447930426E+01  0.49723562279E+03  0.49863993333E+03  0.17770000000E+01 0.  1.
         15    1    1    2    0    0  0.51921344057E+01 -0.89494258875E+01 -0.18109740112E+02  0.20932532081E+02  0.17770000000E+01 0. -1.
</event>
<event>
 6    1  0.9416102E-006  0.4084091E+03  0.7546771E-02  0.9631876E-01
        -11   -1    0    0    0    0  0.00000000000E+00  0.00000000000E+00  0.50000000000E+03  0.50000000000E+03  0.00000000000E+00 0.  1.
         11   -1    0    0    0    0 -0.00000000000E+00 -0.00000000000E+00 -0.50000000000E+03  0.50000000000E+03  0.00000000000E+00 0. -1.
        -11    1    1    2    0    0  0.42549623266E+02 -0.27655603357E+02  0.70494884121E+02  0.86860989658E+02  0.00000000000E+00 0.  1.
         11    1    1    2    0    0  0.36552377717E+03 -0.84488363231E+02 -0.20879799705E+03  0.42935127666E+03  0.00000000000E+00 0. -1.
        -15    1    1    2    0    0 -0.38503262326E+03  0.46535805029E+02  0.87324449325E+02  0.39754800880E+03  0.17770000000E+01 0.  1.
         15    1    1    2    0    0 -0.23040777174E+02  0.65608161559E+02  0.50978663602E+02  0.86239724881E+02  0.17770000000E+01 0. -1.
</event>
