<event>
 6    1  0.4705014E-005  0.5032409E+03  0.7546771E-02  0.9392587E-01
        -11   -1    0    0    0    0  0.00000000000E+00  0.00000000000E+00  0.50000000000E+03  0.50000000000E+03  0.00000000000E+00 0.  1.
         11   -1    0    0    0    0 -0.00000000000E+00 -0.00000000000E+00 -0.50000000000E+03  0.50000000000E+03  0.00000000000E+00 0.  1.
        -11    1    1    2    0    0 -0.61324189709E+02 -0.12894937680E+03  0.47579510979E+03  0.49675908097E+03  0.00000000000E+00 0.  1.
         11    1    1    2    0    0  0.72121714921E+02  0.10608368588E+03 -0.44181805292E+03  0.46006356306E+03  0.00000000000E+00 0.  1.
        -15    1    1    2    0    0 -0.38744511692E+01  0.43849634850E+01 -0.12741442179E+02  0.14132988163E+02  0.17770000000E+01 0. -1.
         15    1    1    2    0    0 -0.69230740424E+01  0.18480727437E+02 -0.21235614693E+02  0.29044367805E+02  0.17770000000E+01 0. -1.
</event>
<event>
 6    1  0.4705014E-005  0.5040918E+03  0.7546771E-02  0.9390700E-01
        -11   -1    0    0    0    0  0.00000000000E+00  0.00000000000E+00  0.50000000000E+03  0.50000000000E+03  0.00000000000E+00 0. -1.
         11   -1    0    0    0    0 -0.00000000000E+00 -0.00000000000E+00 -0.50000000000E+03  0.50000000000E+03  0.00000000000E+00 0. -1.
        -11    1    1    2    0    0  0.16537690136E+03 -0.80580200096E+02  0.31539746237E+03  0.36512771385E+03  0.00000000000E+00 0. -1.
         11    1    1    2    0    0 -0.17912655755E+03  0.10544499292E+03 -0.45024429804E+03  0.49590815487E+03  0.00000000000E+00 0. -1.
        -15    1    1    2    0    0  0.10022453095E+02 -0.26858837040E+02  0.10941746513E+03  0.11312464849E+03  0.17770000000E+01 0. -1.
         15    1    1    2    0    0  0.37272031004E+01  0.19940442178E+01  0.25429370542E+02  0.25839482782E+02  0.17770000000E+01 0.  1.
</event>
<event>
 6    1  0.4705014E-005  0.5009411E+03  0.7546771E-02  0.9397706E-01
        -11   -1    0    0    0    0  0.00000000000E+00  0.00000000000E+00  0.50000000000E+03  0.50000000000E+03  0.00000000000E+00 0.  1.
         11   -1    0    0    0    0 -0.00000000000E+00 -0.00000000000E+00 -0.50000000000E+03  0.50000000000E+03  0.00000000000E+00 0.  1.
        -11    1    1    2    0    0  0.77105317948E+01  0.26221794681E+02  0.14258780538E+03  0.14518373552E+03  0.00000000000E+00 0.  1.
         11    1    1    2    0    0 -0.11994179337E+02 -0.26069653085E+02 -0.49823316433E+03  0.49905888749E+03  0.00000000000E+00 0.  1.
        -15    1    1    2    0    0  0.38418879067E+01 -0.29538999899E+01  0.26495740015E+03  0.26500767395E+03  0.17770000000E+01 0. -1.
         15    1    1    2    0    0  0.44175963543E+00  0.28017583946E+01  0.90687958792E+02  0.90749703033E+02  0.17770000000E+01 0.  1.
</event>
<event>
 6    1  0.4705014E-005  0.4330380E+03  0.7546771E-02  0.9563525E-01
        -11   -1    0    0    0    0  0.00000000000E+00  0.00000000000E+00  0.50000000000E+03  0.50000000000E+03  0.00000000000E+00 0. -1.
         11   -1    0    0    0    0 -0.00000000000E+00 -0.00000000000E+00 -0.50000000000E+03  0.50000000000E+03  0.00000000000E+00 0. -1.
        -11    1    1    2    0    0 -0.16960437108E+01  0.49685795746E+02  0.46341374434E+03  0.46607279829E+03  0.00000000000E+00 0. -1.
         11    1    1    2    0    0 -0.51910271497E+02  0.19645875336E+02 -0.40273181067E+03  0.40653849514E+03  0.00000000000E+00 0. -1.
        -15    1    1    2    0    0  0.38215235234E+02 -0.31811430992E+02 -0.69863858260E+02  0.85769970069E+02  0.17770000000E+01 0. -1.
         15    1    1    2    0    0  0.15391079974E+02 -0.37520240090E+02  0.91819245891E+01  0.41618736494E+02  0.17770000000E+01 0.  1.
</event>
<event>
 6    1  0.4705014E-005  0.5018524E+03  0.7546771E-02  0.9395674E-01
        -11   -1    0    0    0    0  0.00000000000E+00  0.00000000000E+00  0.50000000000E+03  0.50000000000E+03  0.00000000000E+00 0. -1.
         11   -1    0    0    0    0 -0.00000000000E+00 -0.00000000000E+00 -0.50000000000E+03  0.50000000000E+03  0.00000000000E+00 0.  1.
        -11    1    1    2    0    0  0.29796376456E+02 -0.33124576814E+02  0.15141186979E+03  0.15783097273E+03  0.00000000000E+00 0. -1.
         11    1    1    2    0    0 -0.40916145228E+02  0.35770313593E+02 -0.49517414413E+03  0.49814764809E+03  0.00000000000E+00 0.  1.
        -15    1    1    2    0    0  0.15686933743E+01  0.10942316978E+01  0.10472388529E+03  0.10475642234E+03  0.17770000000E+01 0. -1.
         15    1    1    2    0    0  0.95510753971E+01 -0.37399684766E+01  0.23903838906E+03  0.23926495685E+03  0.17770000000E+01 0. -1.
</event>
<event>
 6    1  0.4705014E-005  0.5259488E+03  0.7546771E-02  0.9343549E-01
        -11   -1    0    0    0    0  0.00000000000E+00  0.00000000000E+00  0.50000000000E+03  0.50000000000E+03  0.00000000000E+00 0.  1.
         11   -1    0    0    0    0 -0.00000000000E+00 -0.00000000000E+00 -0.50000000000E+03  0.50000000000E+03  0.00000000000E+00 0.  1.
        -11    1    1    2    0    0 -0.64798212719E+01 -0.11072564823E+03 -0.16995716046E+03  0.20294726816E+03  0.00000000000E+00 0.  1.
         11    1    1    2    0    0  0.20391408688E+02  0.10783518601E+03 -0.30378568730E+03  0.32300151811E+03  0.00000000000E+00 0.  1.
        -15    1    1    2    0    0 -0.64495293481E+00  0.31877569308E+01  0.10034550427E+03  0.10041392191E+03  0.17770000000E+01 0. -1.
         15    1    1    2    0    0 -0.13266634481E+02 -0.29729471816E+00  0.37339734350E+03  0.37363729182E+03  0.17770000000E+01 0.  1.
</event>
<event>
 6    1  0.4705014E-005  0.5243814E+03  0.7546771E-02  0.9346849E-01
        -11   -1    0    0    0    0  0.00000000000E+00  0.00000000000E+00  0.50000000000E+03  0.50000000000E+03  0.00000000000E+00 0.  1.
         11   -1    0    0    0    0 -0.00000000000E+00 -0.00000000000E+00 -0.50000000000E+03  0.50000000000E+03  0.00000000000E+00 0.  1.
        -11    1    1    2    0    0  0.39181676994E+03  0.17005169030E+03  0.22188426731E+02  0.42770350111E+03  0.00000000000E+00 0.  1.
         11    1    1    2    0    0 -0.44223740529E+03 -0.17493302147E+03  0.61316836480E+01  0.47561863103E+03  0.00000000000E+00 0.  1.
        -15    1    1    2    0    0  0.19383198482E+02  0.24275861557E+02  0.19282463305E+02  0.36605968883E+02  0.17770000000E+01 0. -1.
         15    1    1    2    0    0  0.31037436867E+02 -0.19394530384E+02 -0.47602573685E+02  0.60071898975E+02  0.17770000000E+01 0.  1.
</event>
<event>
 6    1  0.4705014E-005  0.4893050E+03  0.7546771E-02  0.9424064E-01
        -11   -1    0    0    0    0  0.00000000000E+00  0.00000000000E+00  0.50000000000E+03  0.50000000000E+03  0.00000000000E+00 0. -1.
         11   -1    0    0    0    0 -0.00000000000E+00 -0.00000000000E+00 -0.50000000000E+03  0.50000000000E+03  0.00000000000E+00 0. -1.
        -11    1    1    2    0    0  0.10657509799E+03  0.65613829854E+02  0.46928072244E+03  0.48568284161E+03  0.00000000000E+00 0. -1.
         11    1    1    2    0    0 -0.11055822781E+03 -0.53458121078E+02 -0.47750680325E+03  0.49304527135E+03  0.00000000000E+00 0. -1.
        -15    1    1    2    0    0 -0.32932077421E+01 -0.93911372885E+00 -0.20002537718E+01  0.43457906047E+01  0.17770000000E+01 0.  1.
         15    1    1    2    0    0  0.72763375604E+01 -0.11216595047E+02  0.10226334585E+02  0.16926096443E+02  0.17770000000E+01 0. -1.
</event>
<event>
 6    1  0.4705014E-005  0.5102346E+03  0.7546771E-02  0.9377196E-01
        -11   -1    0    0    0    0  0.00000000000E+00  0.00000000000E+00  0.50000000000E+03  0.50000000000E+03  0.00000000000E+00 0.  1.
         11   -1    0    0    0    0 -0.00000000000E+00 -0.00000000000E+00 -0.50000000000E+03  0.50000000000E+03  0.00000000000E+00 0. -1.
        -11    1    1    2    0    0  0.68626926187E+02  0.39375294582E+03  0.26470563040E+02  0.40056426207E+03  0.00000000000E+00 0.  1.
         11    1    1    2    0    0 -0.12853758256E+03 -0.47257029930E+03  0.50520209343E+01  0.48976537324E+03  0.00000000000E+00 0. -1.
        -15    1    1    2    0    0  0.14172802424E+01  0.26867615355E+01 -0.10904496366E+02  0.11458321903E+02  0.17770000000E+01 0. -1.
         15    1    1    2    0    0  0.58493376135E+02  0.76130591943E+02 -0.20618087608E+02  0.98212042779E+02  0.17770000000E+01 0.  1.
</event>
<event>
 6    1  0.4705014E-005  0.5068784E+03  0.7546771E-02  0.9384549E-01
        -11   -1    0    0    0    0  0.00000000000E+00  0.00000000000E+00  0.50000000000E+03  0.50000000000E+03  0.00000000000E+00 0.  1.
         11   -1    0    0    0    0 -0.00000000000E+00 -0.00000000000E+00 -0.50000000000E+03  0.50000000000E+03  0.00000000000E+00 0.  1.
        -11    1    1    2    0    0  0.60522281864E+02  0.58602362505E+01  0.87867053505E+02  0.10685461180E+03  0.00000000000E+00 0.  1.
         11    1    1    2    0    0 -0.92420099545E+02  0.21795448078E+02 -0.48389296467E+03  0.49312160530E+03  0.00000000000E+00 0.  1.
        -15    1    1    2    0    0  0.27872685393E+02 -0.36622643631E+02  0.30624566757E+03  0.30968963698E+03  0.17770000000E+01 0. -1.
         15    1    1    2    0    0  0.40251322874E+01  0.89669593030E+01  0.89780243602E+02  0.90334145921E+02  0.17770000000E+01 0.  1.
</event>
<event>
 6    1  0.4705014E-005  0.5044146E+03  0.7546771E-02  0.9389986E-01
        -11   -1    0    0    0    0  0.00000000000E+00  0.00000000000E+00  0.50000000000E+03  0.50000000000E+03  0.00000000000E+00 0.  1.
         11   -1    0    0    0    0 -0.00000000000E+00 -0.00000000000E+00 -0.50000000000E+03  0.50000000000E+03  0.00000000000E+00 0. -1.
        -11    1    1    2    0    0  0.28902476928E+03  0.57316905800E+02  0.29248531891E+03  0.41517250237E+03  0.00000000000E+00 0.  1.
         11    1    1    2    0    0 -0.33735027506E+03 -0.91541123332E+02 -0.35131171499E+03  0.49558541790E+03  0.00000000000E+00 0. -1.
        -15    1    1    2    0    0  0.25163307876E+02  0.13056677951E+02  0.48419084933E+02  0.56135856786E+02  0.17770000000E+01 0.  1.
         15    1    1    2    0    0  0.23162197905E+02  0.21167539581E+02  0.10407311152E+02  0.33106222951E+02  0.17770000000E+01 0. -1.
</event>
<event>
 6    1  0.4705014E-005  0.5025981E+03  0.7546771E-02  0.9394015E-01
        -11   -1    0    0    0    0  0.00000000000E+00  0.00000000000E+00  0.50000000000E+03  0.50000000000E+03  0.00000000000E+00 0.  1.
         11   -1    0    0    0    0 -0.00000000000E+00 -0.00000000000E+00 -0.50000000000E+03  0.50000000000E+03  0.00000000000E+00 0.  1.
        -11    1    1    2    0    0 -0.31701794939E+02 -0.75985930505E+02  0.30531694254E+03  0.31622349824E+03  0.00000000000E+00 0.  1.
         11    1    1    2    0    0  0.27845853457E+02  0.71303754167E+02 -0.49147637574E+03  0.49740189468E+03  0.00000000000E+00 0.  1.
        -15    1    1    2    0    0 -0.58855777180E-01  0.16199744529E+01  0.11275186981E+03  0.11277752283E+03  0.17770000000E+01 0. -1.
         15    1    1    2    0    0  0.39147972587E+01  0.30622018848E+01  0.73407563393E+02  0.73597084251E+02  0.17770000000E+01 0.  1.
</event>
<event>
 6    1  0.4705014E-005  0.5112549E+03  0.7546771E-02  0.9374972E-01
        -11   -1    0    0    0    0  0.00000000000E+00  0.00000000000E+00  0.50000000000E+03  0.50000000000E+03  0.00000000000E+00 0.  1.
         11   -1    0    0    0    0 -0.00000000000E+00 -0.00000000000E+00 -0.50000000000E+03  0.50000000000E+03  0.00000000000E+00 0. -1.
        -11    1    1    2    0    0  0.37565658606E+01  0.12943855382E+02  0.48855918450E+03  0.48874505822E+03  0.00000000000E+00 0.  1.
         11    1    1    2    0    0  0.20507230478E+02 -0.17268453454E+02 -0.47000534095E+03  0.47076933472E+03  0.00000000000E+00 0. -1.
        -15    1    1    2    0    0 -0.49752143382E+01  0.11717839394E+02 -0.14468978205E+02  0.19353800068E+02  0.17770000000E+01 0. -1.
         15    1    1    2    0    0 -0.19288582001E+02 -0.73932413215E+01 -0.40848653424E+01  0.21131806991E+02  0.17770000000E+01 0.  1.
</event>
<event>
 6    1  0.4705014E-005  0.4607899E+03  0.7546771E-02  0.9492090E-01
        -11   -1    0    0    0    0  0.00000000000E+00  0.00000000000E+00  0.50000000000E+03  0.50000000000E+03  0.00000000000E+00 0.  1.
         11   -1    0    0    0    0 -0.00000000000E+00 -0.00000000000E+00 -0.50000000000E+03  0.50000000000E+03  0.00000000000E+00 0. -1.
        -11    1    1    2    0    0  0.47285733691E+02 -0.10374974615E+03  0.27910151120E+02  0.11738367421E+03  0.00000000000E+00 0.  1.
         11    1    1    2    0    0 -0.34577602009E+02  0.11833239840E+03 -0.42175906704E+03  0.43940741653E+03  0.00000000000E+00 0. -1.
        -15    1    1    2    0    0 -0.31674180631E+01  0.37648329860E+02  0.38791389249E+03  0.38975347978E+03  0.17770000000E+01 0.  1.
         15    1    1    2    0    0 -0.95407136191E+01 -0.52230982108E+02  0.59350234294E+01  0.53455429476E+02  0.17770000000E+01 0. -1.
</event>
<event>
 6    1  0.4705014E-005  0.5005316E+03  0.7546771E-02  0.9398621E-01
        -11   -1    0    0    0    0  0.00000000000E+00  0.00000000000E+00  0.50000000000E+03  0.50000000000E+03  0.00000000000E+00 0. -1.
         11   -1    0    0    0    0 -0.00000000000E+00 -0.00000000000E+00 -0.50000000000E+03  0.50000000000E+03  0.00000000000E+00 0. -1.
        -11    1    1    2    0    0 -0.17658869137E+02 -0.13191192161E+03  0.48141047350E+03  0.49946835207E+03  0.00000000000E+00 0. -1.
         11    1    1    2    0    0  0.20134276469E+02  0.12082407000E+03 -0.40762283222E+03  0.42562920286E+03  0.00000000000E+00 0. -1.
        -15    1    1    2    0    0  0.11547532373E+01  0.29778580712E+01 -0.26908810821E+02  0.27155900326E+02  0.17770000000E+01 0. -1.
         15    1    1    2    0    0 -0.36301605690E+01  0.81099935386E+01 -0.46878830463E+02  0.47746544749E+02  0.17770000000E+01 0.  1.
</event>
<event>
 6    1  0.4705014E-005  0.5003679E+03  0.7546771E-02  0.9398987E-01
        -11   -1    0    0    0    0  0.00000000000E+00  0.00000000000E+00  0.50000000000E+03  0.50000000000E+03  0.00000000000E+00 0.  1.
         11   -1    0    0    0    0 -0.00000000000E+00 -0.00000000000E+00 -0.50000000000E+03  0.50000000000E+03  0.00000000000E+00 0.  1.
        -11    1    1    2    0    0 -0.25222246983E+02  0.30527685160E+01  0.14887560991E+03  0.15102790592E+03  0.00000000000E+00 0.  1.
         11    1    1    2    0    0  0.44880948209E+02 -0.84465144531E+01 -0.49754049970E+03  0.49963205658E+03  0.00000000000E+00 0.  1.
        -15    1    1    2    0    0 -0.52939654778E+01  0.45547108009E+01  0.11882658676E+03  0.11904489452E+03  0.17770000000E+01 0. -1.
         15    1    1    2    0    0 -0.14364735748E+02  0.83903513627E+00  0.22983830303E+03  0.23029514298E+03  0.17770000000E+01 0.  1.
</event>
<event>
 6    1  0.4705014E-005  0.5173111E+03  0.7546771E-02  0.9361887E-01
        -11   -1    0    0    0    0  0.00000000000E+00  0.00000000000E+00  0.50000000000E+03  0.50000000000E+03  0.00000000000E+00 0. -1.
         11   -1    0    0    0    0 -0.00000000000E+00 -0.00000000000E+00 -0.50000000000E+03  0.50000000000E+03  0.00000000000E+00 0.  1.
        -11    1    1    2    0    0 -0.28997659353E+02 -0.27697266199E+02  0.41793018534E+03  0.41984954760E+03  0.00000000000E+00 0. -1.
         11    1    1    2    0    0  0.18382778546E+02 -0.39648808327E+02 -0.48070636095E+03  0.48268888531E+03  0.00000000000E+00 0.  1.
        -15    1    1    2    0    0  0.17932143693E+02  0.62006521778E+02  0.59069484494E+02  0.87514183124E+02  0.17770000000E+01 0.  1.
         15    1    1    2    0    0 -0.73172628865E+01  0.53395527480E+01  0.37066911186E+01  0.99473839650E+01  0.17770000000E+01 0. -1.
</event>
<event>
 6    1  0.4705014E-005  0.5044812E+03  0.7546771E-02  0.9389838E-01
        -11   -1    0    0    0    0  0.00000000000E+00  0.00000000000E+00  0.50000000000E+03  0.50000000000E+03  0.00000000000E+00 0.  1.
         11   -1    0    0    0    0 -0.00000000000E+00 -0.00000000000E+00 -0.50000000000E+03  0.50000000000E+03  0.00000000000E+00 0.  1.
        -11    1    1    2    0    0  0.57484225475E+02 -0.16855501251E+02  0.49188443844E+03  0.49551876339E+03  0.00000000000E+00 0.  1.
         11    1    1    2    0    0 -0.35766272194E+02  0.13603116561E+02 -0.55463707900E+02  0.67383187078E+02  0.00000000000E+00 0.  1.
        -15    1    1    2    0    0 -0.45168083743E+01  0.16666680611E+01 -0.18852655860E+03  0.18859639543E+03  0.17770000000E+01 0.  1.
         15    1    1    2    0    0 -0.17201144907E+02  0.15857166292E+01 -0.24789417193E+03  0.24850165410E+03  0.17770000000E+01 0. -1.
</event>
<event>
 6    1  0.4705014E-005  0.3849772E+03  0.7546771E-02  0.9701860E-01
        -11   -1    0    0    0    0  0.00000000000E+00  0.00000000000E+00  0.50000000000E+03  0.50000000000E+03  0.00000000000E+00 0. -1.
         11   -1    0    0    0    0 -0.00000000000E+00 -0.00000000000E+00 -0.50000000000E+03  0.50000000000E+03  0.00000000000E+00 0. -1.
        -11    1    1    2    0    0  0.10521000005E+02  0.13313301982E+03  0.40280136491E+03  0.42436308980E+03  0.00000000000E+00 0. -1.
         11    1    1    2    0    0 -0.49903017917E+02  0.58911581571E+02 -0.36303242715E+03  0.37115149037E+03  0.00000000000E+00 0. -1.
        -15    1    1    2    0    0  0.39828735332E+02 -0.18550016057E+03 -0.46035607238E+02  0.19524106277E+03  0.17770000000E+01 0.  1.
         15    1    1    2    0    0 -0.44671741986E+00 -0.65444408222E+01  0.62666694762E+01  0.92443570600E+01  0.17770000000E+01 0. -1.
</event>
<event>
 6    1  0.4705014E-005  0.4054204E+03  0.7546771E-02  0.9640519E-01
        -11   -1    0    0    0    0  0.00000000000E+00  0.00000000000E+00  0.50000000000E+03  0.50000000000E+03  0.00000000000E+00 0. -1.
         11   -1    0    0    0    0 -0.00000000000E+00 -0.00000000000E+00 -0.50000000000E+03  0.50000000000E+03  0.00000000000E+00 0.  1.
        -11    1    1    2    0    0 -0.18394721487E+03  0.30256074805E+03  0.21543671315E+03  0.41447866229E+03  0.00000000000E+00 0. -1.
         11    1    1    2    0    0  0.12807344102E+03 -0.26443188466E+03 -0.27323573640E+03  0.40122910608E+03  0.00000000000E+00 0.  1.
        -15    1    1    2    0    0 -0.13342090534E+02 -0.14984479415E+02  0.98616047044E+02  0.10065201670E+03  0.17770000000E+01 0. -1.
         15    1    1    2    0    0  0.69215864387E+02 -0.23144383972E+02 -0.40817023795E+02  0.83640214926E+02  0.17770000000E+01 0.  1.
</event>
<event>
 6    1  0.4705014E-005  0.5080266E+03  0.7546771E-02  0.9382027E-01
        -11   -1    0    0    0    0  0.00000000000E+00  0.00000000000E+00  0.50000000000E+03  0.50000000000E+03  0.00000000000E+00 0. -1.
         11   -1    0    0    0    0 -0.00000000000E+00 -0.00000000000E+00 -0.50000000000E+03  0.50000000000E+03  0.00000000000E+00 0. -1.
        -11    1    1    2    0    0  0.66074028049E+02 -0.29212969530E+02  0.27296381340E+03  0.28236221100E+03  0.00000000000E+00 0. -1.
         11    1    1    2    0    0 -0.42326575443E+02  0.48215933237E+02 -0.48777199527E+03  0.49197340840E+03  0.00000000000E+00 0. -1.
        -15    1    1    2    0    0 -0.31822732398E+02 -0.21352479294E+02  0.21355995939E+03  0.21697840596E+03  0.17770000000E+01 0. -1.
         15    1    1    2    0    0  0.80752797914E+01  0.23495155876E+01  0.12482224760E+01  0.86859746462E+01  0.17770000000E+01 0.  1.
</event>
