<event>
 6    1  0.5145493E-006  0.1899531E+03  0.7546771E-02  0.1062672E+00
        -11   -1    0    0    0    0  0.00000000000E+00  0.00000000000E+00  0.18250000000E+03  0.18250000000E+03  0.00000000000E+00 0.  1.
         11   -1    0    0    0    0 -0.00000000000E+00 -0.00000000000E+00 -0.18250000000E+03  0.18250000000E+03  0.00000000000E+00 0. -1.
        -11    1    1    2    0    0 -0.36008432983E+02  0.19988369779E+02  0.43694987661E+02  0.60044934166E+02  0.00000000000E+00 0.  1.
         11    1    1    2    0    0  0.42436723273E+02 -0.42290609405E+02 -0.16447508820E+03  0.17504692446E+03  0.00000000000E+00 0. -1.
        -15    1    1    2    0    0 -0.86429100405E+01  0.31140210544E+02  0.11374594578E+03  0.11826119616E+03  0.17770000000E+01 0.  1.
         15    1    1    2    0    0  0.22146197513E+01 -0.88379709184E+01  0.70341547631E+01  0.11646945214E+02  0.17770000000E+01 0. -1.
</event>
<event>
 6    1  0.5145493E-006  0.1839075E+03  0.7546771E-02  0.1067340E+00
        -11   -1    0    0    0    0  0.00000000000E+00  0.00000000000E+00  0.18250000000E+03  0.18250000000E+03  0.00000000000E+00 0.  1.
         11   -1    0    0    0    0 -0.00000000000E+00 -0.00000000000E+00 -0.18250000000E+03  0.18250000000E+03  0.00000000000E+00 0. -1.
        -11    1    1    2    0    0 -0.27338174902E+02 -0.99887597094E+02  0.10063208519E+03  0.14440126187E+03  0.00000000000E+00 0.  1.
         11    1    1    2    0    0  0.33007188814E+02  0.11478075611E+03 -0.13612644264E+03  0.18109253124E+03  0.00000000000E+00 0. -1.
        -15    1    1    2    0    0 -0.63616431338E+01 -0.13207657570E+02  0.31101091159E+02  0.34428887902E+02  0.17770000000E+01 0.  1.
         15    1    1    2    0    0  0.69262922165E+00 -0.16855014450E+01  0.43932662939E+01  0.50773189863E+01  0.17770000000E+01 0.  1.
</event>
<event>
 6    1  0.5145493E-006  0.1839395E+03  0.7546771E-02  0.1067315E+00
        -11   -1    0    0    0    0  0.00000000000E+00  0.00000000000E+00  0.18250000000E+03  0.18250000000E+03  0.00000000000E+00 0.  1.
         11   -1    0    0    0    0 -0.00000000000E+00 -0.00000000000E+00 -0.18250000000E+03  0.18250000000E+03  0.00000000000E+00 0. -1.
        -11    1    1    2    0    0  0.38333321596E+02  0.32365255476E+02  0.17397114346E+03  0.18106052044E+03  0.00000000000E+00 0.  1.
         11    1    1    2    0    0 -0.13786891093E+02 -0.13653432125E+02 -0.25992238137E+02  0.32435952555E+02  0.00000000000E+00 0. -1.
        -15    1    1    2    0    0 -0.37853846669E+01 -0.66274157328E+00 -0.32770650476E+02  0.33043026875E+02  0.17770000000E+01 0. -1.
         15    1    1    2    0    0 -0.20761045836E+02 -0.18049081777E+02 -0.11520825484E+03  0.11846050013E+03  0.17770000000E+01 0. -1.
</event>
<event>
 6    1  0.5145493E-006  0.1340976E+03  0.7546771E-02  0.1115225E+00
        -11   -1    0    0    0    0  0.00000000000E+00  0.00000000000E+00  0.18250000000E+03  0.18250000000E+03  0.00000000000E+00 0.  1.
         11   -1    0    0    0    0 -0.00000000000E+00 -0.00000000000E+00 -0.18250000000E+03  0.18250000000E+03  0.00000000000E+00 0.  1.
        -11    1    1    2    0    0  0.93378775802E+02  0.13093129045E+03 -0.35285779123E+02  0.16464411559E+03  0.00000000000E+00 0.  1.
         11    1    1    2    0    0 -0.47665936348E+02 -0.39861337016E+02  0.62428580407E+02  0.88081186007E+02  0.00000000000E+00 0.  1.
        -15    1    1    2    0    0 -0.24981810907E+02 -0.81522376816E+02 -0.15831579218E+02  0.86739756902E+02  0.17770000000E+01 0.  1.
         15    1    1    2    0    0 -0.20731028547E+02 -0.95475766185E+01 -0.11311222066E+02  0.25534941502E+02  0.17770000000E+01 0. -1.
</event>
<event>
 6    1  0.5145493E-006  0.1287309E+03  0.7546771E-02  0.1121740E+00
        -11   -1    0    0    0    0  0.00000000000E+00  0.00000000000E+00  0.18250000000E+03  0.18250000000E+03  0.00000000000E+00 0. -1.
         11   -1    0    0    0    0 -0.00000000000E+00 -0.00000000000E+00 -0.18250000000E+03  0.18250000000E+03  0.00000000000E+00 0. -1.
        -11    1    1    2    0    0 -0.10202391712E+03  0.41451111329E+02  0.18716314135E+02  0.11170216968E+03  0.00000000000E+00 0. -1.
         11    1    1    2    0    0  0.10886312827E+03 -0.47714127812E+02 -0.10904541846E+03  0.16130319890E+03  0.00000000000E+00 0. -1.
        -15    1    1    2    0    0  0.23490014117E+01  0.74294039723E+01  0.42306504025E+02  0.43054754242E+02  0.17770000000E+01 0.  1.
         15    1    1    2    0    0 -0.91882125615E+01 -0.11663874891E+01  0.48022600295E+02  0.48939877176E+02  0.17770000000E+01 0. -1.
</event>
<event>
 6    1  0.5145493E-006  0.1173216E+03  0.7546771E-02  0.1136835E+00
        -11   -1    0    0    0    0  0.00000000000E+00  0.00000000000E+00  0.18250000000E+03  0.18250000000E+03  0.00000000000E+00 0. -1.
         11   -1    0    0    0    0 -0.00000000000E+00 -0.00000000000E+00 -0.18250000000E+03  0.18250000000E+03  0.00000000000E+00 0. -1.
        -11    1    1    2    0    0  0.79543580997E+02  0.83664501277E+02 -0.29771469954E+02  0.11921942155E+03  0.00000000000E+00 0. -1.
         11    1    1    2    0    0 -0.85166728663E+02 -0.78226847267E+02 -0.75284076047E+02  0.13798733062E+03  0.00000000000E+00 0. -1.
        -15    1    1    2    0    0  0.11891182770E+02  0.36916995457E+01  0.46361613509E+02  0.48037337659E+02  0.17770000000E+01 0. -1.
         15    1    1    2    0    0 -0.62680351041E+01 -0.91293535556E+01  0.58693932492E+02  0.59755910174E+02  0.17770000000E+01 0.  1.
</event>
<event>
 6    1  0.5145493E-006  0.1861857E+03  0.7546771E-02  0.1065558E+00
        -11   -1    0    0    0    0  0.00000000000E+00  0.00000000000E+00  0.18250000000E+03  0.18250000000E+03  0.00000000000E+00 0. -1.
         11   -1    0    0    0    0 -0.00000000000E+00 -0.00000000000E+00 -0.18250000000E+03  0.18250000000E+03  0.00000000000E+00 0. -1.
        -11    1    1    2    0    0  0.53127524001E+02 -0.10183501830E+03  0.13704619423E+03  0.17881432860E+03  0.00000000000E+00 0. -1.
         11    1    1    2    0    0 -0.56574615099E+02  0.79967086342E+02 -0.89544099304E+02  0.13271611693E+03  0.00000000000E+00 0. -1.
        -15    1    1    2    0    0  0.75776366194E+00  0.55735114278E+01 -0.46511153947E+01  0.75119131264E+01  0.17770000000E+01 0.  1.
         15    1    1    2    0    0  0.26893274356E+01  0.16294420532E+02 -0.42850979532E+02  0.45957641349E+02  0.17770000000E+01 0. -1.
</event>
<event>
 6    1  0.5145493E-006  0.1871409E+03  0.7546771E-02  0.1064820E+00
        -11   -1    0    0    0    0  0.00000000000E+00  0.00000000000E+00  0.18250000000E+03  0.18250000000E+03  0.00000000000E+00 0.  1.
         11   -1    0    0    0    0 -0.00000000000E+00 -0.00000000000E+00 -0.18250000000E+03  0.18250000000E+03  0.00000000000E+00 0.  1.
        -11    1    1    2    0    0 -0.71144430614E+02  0.10112815762E+03  0.12784924878E+03  0.17785911471E+03  0.00000000000E+00 0.  1.
         11    1    1    2    0    0  0.60763449578E+02 -0.51314960610E+02 -0.94456190190E+02  0.12348033792E+03  0.00000000000E+00 0.  1.
        -15    1    1    2    0    0  0.10782491324E+02 -0.39375704891E+02 -0.17260519633E+02  0.44359796233E+02  0.17770000000E+01 0. -1.
         15    1    1    2    0    0 -0.40151028755E+00 -0.10437492122E+02 -0.16132538957E+02  0.19300751138E+02  0.17770000000E+01 0.  1.
</event>
<event>
 6    1  0.5145493E-006  0.1602710E+03  0.7546771E-02  0.1087669E+00
        -11   -1    0    0    0    0  0.00000000000E+00  0.00000000000E+00  0.18250000000E+03  0.18250000000E+03  0.00000000000E+00 0. -1.
         11   -1    0    0    0    0 -0.00000000000E+00 -0.00000000000E+00 -0.18250000000E+03  0.18250000000E+03  0.00000000000E+00 0. -1.
        -11    1    1    2    0    0 -0.39452749890E+01  0.25770956036E+02  0.16945050994E+03  0.17144440116E+03  0.00000000000E+00 0. -1.
         11    1    1    2    0    0  0.41148234182E+01  0.85138735648E+01 -0.15114944764E+03  0.15144495151E+03  0.00000000000E+00 0. -1.
        -15    1    1    2    0    0 -0.46840376547E+00 -0.27167101532E+02 -0.61523801290E+01  0.27915592740E+02  0.17770000000E+01 0. -1.
         15    1    1    2    0    0  0.29885533621E+00 -0.71177280680E+01 -0.12148682173E+02  0.14195054593E+02  0.17770000000E+01 0.  1.
</event>
<event>
 6    1  0.5145493E-006  0.1118712E+03  0.7546771E-02  0.1144735E+00
        -11   -1    0    0    0    0  0.00000000000E+00  0.00000000000E+00  0.18250000000E+03  0.18250000000E+03  0.00000000000E+00 0. -1.
         11   -1    0    0    0    0 -0.00000000000E+00 -0.00000000000E+00 -0.18250000000E+03  0.18250000000E+03  0.00000000000E+00 0. -1.
        -11    1    1    2    0    0 -0.13285839738E+02  0.93306159322E+02 -0.68511452415E+02  0.11651768972E+03  0.00000000000E+00 0. -1.
         11    1    1    2    0    0  0.12934706430E+02 -0.92164497860E+02 -0.65847156179E+02  0.11400635628E+03  0.00000000000E+00 0. -1.
        -15    1    1    2    0    0  0.24531694238E+00 -0.26688470617E+01  0.68172457175E+02  0.68248256911E+02  0.17770000000E+01 0. -1.
         15    1    1    2    0    0  0.10581636523E+00  0.15271856003E+01  0.66186151419E+02  0.66227697089E+02  0.17770000000E+01 0.  1.
</event>
<event>
 6    1  0.5145493E-006  0.1916743E+03  0.7546771E-02  0.1061378E+00
        -11   -1    0    0    0    0  0.00000000000E+00  0.00000000000E+00  0.18250000000E+03  0.18250000000E+03  0.00000000000E+00 0.  1.
         11   -1    0    0    0    0 -0.00000000000E+00 -0.00000000000E+00 -0.18250000000E+03  0.18250000000E+03  0.00000000000E+00 0. -1.
        -11    1    1    2    0    0  0.64731012182E+02 -0.51402135362E+02  0.12765457881E+03  0.15207884451E+03  0.00000000000E+00 0.  1.
         11    1    1    2    0    0 -0.46645063099E+02  0.49861076966E+02 -0.15931070169E+03  0.17332567202E+03  0.00000000000E+00 0. -1.
        -15    1    1    2    0    0 -0.17277660995E+02  0.31395063289E+01  0.16274019890E+02  0.24007822097E+02  0.17770000000E+01 0. -1.
         15    1    1    2    0    0 -0.80828808670E+00 -0.15984479327E+01  0.15382102995E+02  0.15587661370E+02  0.17770000000E+01 0.  1.
</event>
<event>
 6    1  0.5145493E-006  0.1600554E+03  0.7546771E-02  0.1087872E+00
        -11   -1    0    0    0    0  0.00000000000E+00  0.00000000000E+00  0.18250000000E+03  0.18250000000E+03  0.00000000000E+00 0. -1.
         11   -1    0    0    0    0 -0.00000000000E+00 -0.00000000000E+00 -0.18250000000E+03  0.18250000000E+03  0.00000000000E+00 0.  1.
        -11    1    1    2    0    0 -0.13658045138E+03 -0.87266570164E+01  0.69207435056E+02  0.15336245730E+03  0.00000000000E+00 0. -1.
         11    1    1    2    0    0  0.13152974172E+03  0.34493005557E+02 -0.10101879812E+03  0.16939491717E+03  0.00000000000E+00 0.  1.
        -15    1    1    2    0    0 -0.49726728016E+00 -0.17186633845E+02  0.21875380249E+02  0.27880416922E+02  0.17770000000E+01 0.  1.
         15    1    1    2    0    0  0.55479769401E+01 -0.85797146956E+01  0.99359828177E+01  0.14362208602E+02  0.17770000000E+01 0. -1.
</event>
<event>
 6    1  0.5145493E-006  0.1415729E+03  0.7546771E-02  0.1106692E+00
        -11   -1    0    0    0    0  0.00000000000E+00  0.00000000000E+00  0.18250000000E+03  0.18250000000E+03  0.00000000000E+00 0. -1.
         11   -1    0    0    0    0 -0.00000000000E+00 -0.00000000000E+00 -0.18250000000E+03  0.18250000000E+03  0.00000000000E+00 0. -1.
        -11    1    1    2    0    0  0.65013943206E+02  0.39241676682E+02 -0.18304122180E+01  0.75960992680E+02  0.00000000000E+00 0. -1.
         11    1    1    2    0    0 -0.66410789163E+02 -0.33826511437E+02 -0.13152898787E+03  0.15117704999E+03  0.00000000000E+00 0. -1.
        -15    1    1    2    0    0 -0.15941300682E+02 -0.49262348596E+01  0.79468861585E+02  0.81220998196E+02  0.17770000000E+01 0.  1.
         15    1    1    2    0    0  0.17338146640E+02 -0.48893038522E+00  0.53890538507E+02  0.56640959132E+02  0.17770000000E+01 0. -1.
</event>
<event>
 6    1  0.5145493E-006  0.1587119E+03  0.7546771E-02  0.1089144E+00
        -11   -1    0    0    0    0  0.00000000000E+00  0.00000000000E+00  0.18250000000E+03  0.18250000000E+03  0.00000000000E+00 0.  1.
         11   -1    0    0    0    0 -0.00000000000E+00 -0.00000000000E+00 -0.18250000000E+03  0.18250000000E+03  0.00000000000E+00 0.  1.
        -11    1    1    2    0    0 -0.75657293775E+02 -0.11701220420E+03  0.51831644423E+02  0.14866876403E+03  0.00000000000E+00 0.  1.
         11    1    1    2    0    0  0.75280219497E+02  0.12129627926E+03 -0.95541727279E+02  0.17177927832E+03  0.00000000000E+00 0.  1.
        -15    1    1    2    0    0 -0.30598335342E+01 -0.26466335123E+01  0.22360035661E+02  0.22792458708E+02  0.17770000000E+01 0. -1.
         15    1    1    2    0    0  0.34369078118E+01 -0.16374415420E+01  0.21350047196E+02  0.21759498946E+02  0.17770000000E+01 0. -1.
</event>
<event>
 6    1  0.5145493E-006  0.1696734E+03  0.7546771E-02  0.1079149E+00
        -11   -1    0    0    0    0  0.00000000000E+00  0.00000000000E+00  0.18250000000E+03  0.18250000000E+03  0.00000000000E+00 0.  1.
         11   -1    0    0    0    0 -0.00000000000E+00 -0.00000000000E+00 -0.18250000000E+03  0.18250000000E+03  0.00000000000E+00 0. -1.
        -11    1    1    2    0    0  0.30580658369E+02 -0.12778157939E+03  0.98011865784E+02  0.16391959777E+03  0.00000000000E+00 0.  1.
         11    1    1    2    0    0 -0.52573869443E+02  0.13275335757E+03 -0.10326967968E+03  0.17621603910E+03  0.00000000000E+00 0. -1.
        -15    1    1    2    0    0  0.20726481160E+02 -0.60970743137E+01  0.55897522279E+01  0.22386701308E+02  0.17770000000E+01 0.  1.
         15    1    1    2    0    0  0.12667299145E+01  0.11252961296E+01 -0.33193833050E+00  0.24776618233E+01  0.17770000000E+01 0. -1.
</event>
<event>
 6    1  0.6889000E-006  0.1846095E+03  0.7546771E-02  0.1066788E+00
        -11   -1    0    0    0    0  0.00000000000E+00  0.00000000000E+00  0.18250000000E+03  0.18250000000E+03  0.00000000000E+00 0. -1.
         11   -1    0    0    0    0 -0.00000000000E+00 -0.00000000000E+00 -0.18250000000E+03  0.18250000000E+03  0.00000000000E+00 0.  1.
        -11    1    1    2    0    0 -0.64231223084E+02 -0.46124699986E+02  0.16213447771E+03  0.18039048431E+03  0.00000000000E+00 0. -1.
         11    1    1    2    0    0  0.65262515808E+02  0.43256476608E+02 -0.12842968676E+03  0.15041443807E+03  0.00000000000E+00 0.  1.
        -15    1    1    2    0    0 -0.17961959275E+01  0.99825594219E+00 -0.22887784920E+02  0.23048454661E+02  0.17770000000E+01 0.  1.
         15    1    1    2    0    0  0.76490320396E+00  0.18699674354E+01 -0.10817006024E+02  0.11146622961E+02  0.17770000000E+01 0.  1.
</event>
<event>
 6    1  0.5145493E-006  0.1555916E+03  0.7546771E-02  0.1092152E+00
        -11   -1    0    0    0    0  0.00000000000E+00  0.00000000000E+00  0.18250000000E+03  0.18250000000E+03  0.00000000000E+00 0.  1.
         11   -1    0    0    0    0 -0.00000000000E+00 -0.00000000000E+00 -0.18250000000E+03  0.18250000000E+03  0.00000000000E+00 0.  1.
        -11    1    1    2    0    0  0.42113373439E+02 -0.13540272508E+01 -0.32160976829E+02  0.53006584900E+02  0.00000000000E+00 0.  1.
         11    1    1    2    0    0 -0.16291044709E+03  0.64966829692E+01 -0.39049156921E+02  0.16765099856E+03  0.00000000000E+00 0.  1.
        -15    1    1    2    0    0  0.12265533934E+03 -0.48196457289E+01  0.68450092159E+02  0.14055651567E+03  0.17770000000E+01 0.  1.
         15    1    1    2    0    0 -0.18582656806E+01 -0.32300998951E+00  0.27600415912E+01  0.37859008674E+01  0.17770000000E+01 0. -1.
</event>
<event>
 6    1  0.5145493E-006  0.1869217E+03  0.7546771E-02  0.1064989E+00
        -11   -1    0    0    0    0  0.00000000000E+00  0.00000000000E+00  0.18250000000E+03  0.18250000000E+03  0.00000000000E+00 0. -1.
         11   -1    0    0    0    0 -0.00000000000E+00 -0.00000000000E+00 -0.18250000000E+03  0.18250000000E+03  0.00000000000E+00 0. -1.
        -11    1    1    2    0    0  0.63918683233E+02 -0.10729777206E+03  0.12693880106E+03  0.17807826698E+03  0.00000000000E+00 0. -1.
         11    1    1    2    0    0 -0.29727299730E+02  0.88246249376E+02 -0.72179946466E+02  0.11781789996E+03  0.00000000000E+00 0. -1.
        -15    1    1    2    0    0 -0.20204158468E+02  0.52196491805E+01 -0.19122357242E+02  0.28359743166E+02  0.17770000000E+01 0.  1.
         15    1    1    2    0    0 -0.13987225035E+02  0.13831873508E+02 -0.35636497353E+02  0.40744089897E+02  0.17770000000E+01 0. -1.
</event>
<event>
 6    1  0.5145493E-006  0.1817178E+03  0.7546771E-02  0.1069079E+00
        -11   -1    0    0    0    0  0.00000000000E+00  0.00000000000E+00  0.18250000000E+03  0.18250000000E+03  0.00000000000E+00 0.  1.
         11   -1    0    0    0    0 -0.00000000000E+00 -0.00000000000E+00 -0.18250000000E+03  0.18250000000E+03  0.00000000000E+00 0.  1.
        -11    1    1    2    0    0 -0.58321636124E+00 -0.20028961670E+01  0.11728351610E+00  0.20893754577E+01  0.00000000000E+00 0.  1.
         11    1    1    2    0    0  0.10724202048E+00  0.44328409756E+02 -0.17598853878E+03  0.18148549582E+03  0.00000000000E+00 0.  1.
        -15    1    1    2    0    0 -0.52388287417E+00 -0.41764213667E+02  0.15830239816E+03  0.16372944448E+03  0.17770000000E+01 0.  1.
         15    1    1    2    0    0  0.99985721493E+00 -0.56129992151E+00  0.17568857103E+02  0.17695684247E+02  0.17770000000E+01 0. -1.
</event>
<event>
 6    1  0.5145493E-006  0.1937125E+03  0.7546771E-02  0.1059864E+00
        -11   -1    0    0    0    0  0.00000000000E+00  0.00000000000E+00  0.18250000000E+03  0.18250000000E+03  0.00000000000E+00 0.  1.
         11   -1    0    0    0    0 -0.00000000000E+00 -0.00000000000E+00 -0.18250000000E+03  0.18250000000E+03  0.00000000000E+00 0. -1.
        -11    1    1    2    0    0  0.17249502196E+02 -0.87751660816E+02  0.56171348386E+02  0.10560833150E+03  0.00000000000E+00 0.  1.
         11    1    1    2    0    0 -0.29688736441E+02  0.91403814427E+02 -0.14178617595E+03  0.17128747197E+03  0.00000000000E+00 0. -1.
        -15    1    1    2    0    0 -0.32420786082E+01  0.87005265197E-01  0.28239505394E+02  0.28480625651E+02  0.17770000000E+01 0.  1.
         15    1    1    2    0    0  0.15681312853E+02 -0.37391588758E+01  0.57375322169E+02  0.59623570884E+02  0.17770000000E+01 0. -1.
</event>
<event>
 6    1  0.5145493E-006  0.1849843E+03  0.7546771E-02  0.1066494E+00
        -11   -1    0    0    0    0  0.00000000000E+00  0.00000000000E+00  0.18250000000E+03  0.18250000000E+03  0.00000000000E+00 0.  1.
         11   -1    0    0    0    0 -0.00000000000E+00 -0.00000000000E+00 -0.18250000000E+03  0.18250000000E+03  0.00000000000E+00 0. -1.
        -11    1    1    2    0    0  0.24227874443E+02  0.28375175190E+02  0.91558840746E+02  0.98869417849E+02  0.00000000000E+00 0.  1.
         11    1    1    2    0    0 -0.84277070773E+01 -0.44694782924E+02 -0.17417518471E+03  0.18001567942E+03  0.00000000000E+00 0. -1.
        -15    1    1    2    0    0 -0.26630480184E+00  0.38224993893E+01  0.16756870563E+02  0.17280997074E+02  0.17770000000E+01 0. -1.
         15    1    1    2    0    0 -0.15533862564E+02  0.12497108345E+02  0.65859473400E+02  0.68833905661E+02  0.17770000000E+01 0.  1.
</event>
<event>
 6    1  0.5145493E-006  0.1840511E+03  0.7546771E-02  0.1067227E+00
        -11   -1    0    0    0    0  0.00000000000E+00  0.00000000000E+00  0.18250000000E+03  0.18250000000E+03  0.00000000000E+00 0.  1.
         11   -1    0    0    0    0 -0.00000000000E+00 -0.00000000000E+00 -0.18250000000E+03  0.18250000000E+03  0.00000000000E+00 0. -1.
        -11    1    1    2    0    0 -0.30613226097E+02  0.14264749504E+02  0.94209513598E+02  0.10008039340E+03  0.00000000000E+00 0.  1.
         11    1    1    2    0    0  0.38525210552E+02 -0.88312383444E+01 -0.17657947680E+03  0.18094887191E+03  0.00000000000E+00 0. -1.
        -15    1    1    2    0    0 -0.45674017523E+01 -0.94104683758E+00  0.70972841545E+02  0.71148075827E+02  0.17770000000E+01 0.  1.
         15    1    1    2    0    0 -0.33445827022E+01 -0.44924643217E+01  0.11397121660E+02  0.12822658861E+02  0.17770000000E+01 0. -1.
</event>
<event>
 6    1  0.5145493E-006  0.1863295E+03  0.7546771E-02  0.1065447E+00
        -11   -1    0    0    0    0  0.00000000000E+00  0.00000000000E+00  0.18250000000E+03  0.18250000000E+03  0.00000000000E+00 0. -1.
         11   -1    0    0    0    0 -0.00000000000E+00 -0.00000000000E+00 -0.18250000000E+03  0.18250000000E+03  0.00000000000E+00 0. -1.
        -11    1    1    2    0    0 -0.30604373624E+02  0.19173522464E+02  0.17498258479E+03  0.17867052535E+03  0.00000000000E+00 0. -1.
         11    1    1    2    0    0  0.31584803617E+01 -0.27377497176E+02 -0.64141521800E+02  0.69811447261E+02  0.00000000000E+00 0. -1.
        -15    1    1    2    0    0  0.86943592822E+01 -0.48253519134E+01 -0.15773886343E+02  0.18730966974E+02  0.17770000000E+01 0.  1.
         15    1    1    2    0    0  0.18751533980E+02  0.13029326625E+02 -0.95067176650E+02  0.97787060413E+02  0.17770000000E+01 0. -1.
</event>
<event>
 6    1  0.5145493E-006  0.1840601E+03  0.7546771E-02  0.1067220E+00
        -11   -1    0    0    0    0  0.00000000000E+00  0.00000000000E+00  0.18250000000E+03  0.18250000000E+03  0.00000000000E+00 0. -1.
         11   -1    0    0    0    0 -0.00000000000E+00 -0.00000000000E+00 -0.18250000000E+03  0.18250000000E+03  0.00000000000E+00 0. -1.
        -11    1    1    2    0    0 -0.87018179857E+01  0.64898574219E+00  0.18072933631E+03  0.18093986797E+03  0.00000000000E+00 0. -1.
         11    1    1    2    0    0  0.13864711289E+02  0.49638819345E+01 -0.15369512125E+03  0.15439903056E+03  0.00000000000E+00 0. -1.
        -15    1    1    2    0    0 -0.36674322260E+01 -0.55732333284E+01 -0.83575594094E+01  0.10840549670E+02  0.17770000000E+01 0. -1.
         15    1    1    2    0    0 -0.14954610770E+01 -0.39634348289E-01 -0.18676655647E+02  0.18820551795E+02  0.17770000000E+01 0.  1.
</event>
<event>
 6    1  0.5145493E-006  0.1910226E+03  0.7546771E-02  0.1061866E+00
        -11   -1    0    0    0    0  0.00000000000E+00  0.00000000000E+00  0.18250000000E+03  0.18250000000E+03  0.00000000000E+00 0. -1.
         11   -1    0    0    0    0 -0.00000000000E+00 -0.00000000000E+00 -0.18250000000E+03  0.18250000000E+03  0.00000000000E+00 0. -1.
        -11    1    1    2    0    0  0.24856369748E+02  0.19418797786E+02 -0.36322744987E+02  0.48106866744E+02  0.00000000000E+00 0. -1.
         11    1    1    2    0    0 -0.28545019755E+02 -0.27127253246E+02 -0.13738341438E+03  0.14291573940E+03  0.00000000000E+00 0. -1.
        -15    1    1    2    0    0  0.27294668595E+00  0.38015514023E+01  0.69833641585E+02  0.69960142360E+02  0.17770000000E+01 0. -1.
         15    1    1    2    0    0  0.34157033214E+01  0.39069040570E+01  0.10387251778E+03  0.10401725149E+03  0.17770000000E+01 0. -1.
</event>
<event>
 6    1  0.5145493E-006  0.1828283E+03  0.7546771E-02  0.1068194E+00
        -11   -1    0    0    0    0  0.00000000000E+00  0.00000000000E+00  0.18250000000E+03  0.18250000000E+03  0.00000000000E+00 0. -1.
         11   -1    0    0    0    0 -0.00000000000E+00 -0.00000000000E+00 -0.18250000000E+03  0.18250000000E+03  0.00000000000E+00 0.  1.
        -11    1    1    2    0    0  0.19755500387E+02 -0.90847702983E+01  0.18086934030E+03  0.18217170776E+03  0.00000000000E+00 0. -1.
         11    1    1    2    0    0 -0.16303555785E+02  0.79436406645E+01 -0.16284675702E+03  0.16385351272E+03  0.00000000000E+00 0.  1.
        -15    1    1    2    0    0 -0.88798233589E+00  0.80342639103E+00 -0.11937789934E+02  0.12128584588E+02  0.17770000000E+01 0.  1.
         15    1    1    2    0    0 -0.25639622659E+01  0.33770324280E+00 -0.60847933509E+01  0.68461949362E+01  0.17770000000E+01 0. -1.
</event>
<event>
 6    1  0.5145493E-006  0.1326690E+03  0.7546771E-02  0.1116926E+00
        -11   -1    0    0    0    0  0.00000000000E+00  0.00000000000E+00  0.18250000000E+03  0.18250000000E+03  0.00000000000E+00 0. -1.
         11   -1    0    0    0    0 -0.00000000000E+00 -0.00000000000E+00 -0.18250000000E+03  0.18250000000E+03  0.00000000000E+00 0. -1.
        -11    1    1    2    0    0  0.11015250160E+03  0.44819522519E+02 -0.54777381910E+02  0.13093099242E+03  0.00000000000E+00 0. -1.
         11    1    1    2    0    0 -0.13125921239E+03 -0.45351836253E+02  0.89526260432E+01  0.13916148678E+03  0.00000000000E+00 0. -1.
        -15    1    1    2    0    0  0.13329267517E+02  0.40266880210E+02  0.20778739907E+02  0.47265259710E+02  0.17770000000E+01 0.  1.
         15    1    1    2    0    0  0.77774432772E+01 -0.39734566476E+02  0.25046015961E+02  0.47642261087E+02  0.17770000000E+01 0. -1.
</event>
<event>
 6    1  0.5145493E-006  0.1881465E+03  0.7546771E-02  0.1064047E+00
        -11   -1    0    0    0    0  0.00000000000E+00  0.00000000000E+00  0.18250000000E+03  0.18250000000E+03  0.00000000000E+00 0.  1.
         11   -1    0    0    0    0 -0.00000000000E+00 -0.00000000000E+00 -0.18250000000E+03  0.18250000000E+03  0.00000000000E+00 0.  1.
        -11    1    1    2    0    0  0.45181607089E+01 -0.29672156292E+02  0.75235436572E+02  0.81001367589E+02  0.00000000000E+00 0.  1.
         11    1    1    2    0    0 -0.21472660476E+02  0.10520709583E+02 -0.17522957408E+03  0.17685351031E+03  0.00000000000E+00 0.  1.
        -15    1    1    2    0    0  0.57874841064E+01  0.14619316744E+02  0.90022011736E+02  0.91402077221E+02  0.17770000000E+01 0.  1.
         15    1    1    2    0    0  0.11167015660E+02  0.45321299649E+01  0.99721257679E+01  0.15743044880E+02  0.17770000000E+01 0. -1.
</event>
<event>
 6    1  0.5145493E-006  0.1861973E+03  0.7546771E-02  0.1065549E+00
        -11   -1    0    0    0    0  0.00000000000E+00  0.00000000000E+00  0.18250000000E+03  0.18250000000E+03  0.00000000000E+00 0. -1.
         11   -1    0    0    0    0 -0.00000000000E+00 -0.00000000000E+00 -0.18250000000E+03  0.18250000000E+03  0.00000000000E+00 0. -1.
        -11    1    1    2    0    0 -0.16742312569E+02  0.53360894027E+02  0.95913791713E+02  0.11102767890E+03  0.00000000000E+00 0. -1.
         11    1    1    2    0    0  0.11647776799E+02 -0.51799305710E+02 -0.17073825700E+03  0.17880265988E+03  0.00000000000E+00 0. -1.
        -15    1    1    2    0    0  0.13335179749E+01 -0.13516220836E+01  0.17271127279E+02  0.17465815725E+02  0.17770000000E+01 0. -1.
         15    1    1    2    0    0  0.37610177956E+01 -0.20996623360E+00  0.57553338005E+02  0.57703845498E+02  0.17770000000E+01 0. -1.
</event>
<event>
 6    1  0.5145493E-006  0.1870707E+03  0.7546771E-02  0.1064874E+00
        -11   -1    0    0    0    0  0.00000000000E+00  0.00000000000E+00  0.18250000000E+03  0.18250000000E+03  0.00000000000E+00 0.  1.
         11   -1    0    0    0    0 -0.00000000000E+00 -0.00000000000E+00 -0.18250000000E+03  0.18250000000E+03  0.00000000000E+00 0.  1.
        -11    1    1    2    0    0 -0.62384963922E+02  0.84981562947E+02  0.14333554224E+03  0.17792927650E+03  0.00000000000E+00 0.  1.
         11    1    1    2    0    0  0.64142634275E+02 -0.82764662856E+02 -0.11508914031E+03  0.15559491369E+03  0.00000000000E+00 0.  1.
        -15    1    1    2    0    0 -0.48274597290E+01  0.29275067381E+01 -0.62447993997E+01  0.86040636724E+01  0.17770000000E+01 0. -1.
         15    1    1    2    0    0  0.30697893762E+01 -0.51444068288E+01 -0.22001602532E+02  0.22871746138E+02  0.17770000000E+01 0.  1.
</event>
<event>
 6    1  0.5145493E-006  0.1848728E+03  0.7546771E-02  0.1066582E+00
        -11   -1    0    0    0    0  0.00000000000E+00  0.00000000000E+00  0.18250000000E+03  0.18250000000E+03  0.00000000000E+00 0. -1.
         11   -1    0    0    0    0 -0.00000000000E+00 -0.00000000000E+00 -0.18250000000E+03  0.18250000000E+03  0.00000000000E+00 0.  1.
        -11    1    1    2    0    0  0.53369682497E+02  0.40776521409E+02  0.13821895881E+03  0.15367344690E+03  0.00000000000E+00 0. -1.
         11    1    1    2    0    0 -0.49771375415E+02 -0.39439136026E+02 -0.16856206045E+03  0.18012718697E+03  0.00000000000E+00 0.  1.
        -15    1    1    2    0    0 -0.11612507494E+01  0.18568908720E+01  0.13610983160E+02  0.13900112899E+02  0.17770000000E+01 0. -1.
         15    1    1    2    0    0 -0.24370563330E+01 -0.31942762553E+01  0.16732118481E+02  0.17299253227E+02  0.17770000000E+01 0.  1.
</event>
<event>
 6    1  0.5145493E-006  0.1894760E+03  0.7546771E-02  0.1063034E+00
        -11   -1    0    0    0    0  0.00000000000E+00  0.00000000000E+00  0.18250000000E+03  0.18250000000E+03  0.00000000000E+00 0.  1.
         11   -1    0    0    0    0 -0.00000000000E+00 -0.00000000000E+00 -0.18250000000E+03  0.18250000000E+03  0.00000000000E+00 0.  1.
        -11    1    1    2    0    0  0.12003245544E+03 -0.43502976314E+02  0.35247653028E+02  0.13244884428E+03  0.00000000000E+00 0.  1.
         11    1    1    2    0    0 -0.16482648968E+03  0.19600070498E+02 -0.57067728942E+02  0.17552395890E+03  0.00000000000E+00 0.  1.
        -15    1    1    2    0    0 -0.14526108814E+00  0.15632013586E+01  0.28845377118E+00  0.23886468658E+01  0.17770000000E+01 0.  1.
         15    1    1    2    0    0  0.44939295329E+02  0.22339704457E+02  0.21531622143E+02  0.54638549953E+02  0.17770000000E+01 0. -1.
</event>
<event>
 6    1  0.5145493E-006  0.1843544E+03  0.7546771E-02  0.1066988E+00
        -11   -1    0    0    0    0  0.00000000000E+00  0.00000000000E+00  0.18250000000E+03  0.18250000000E+03  0.00000000000E+00 0. -1.
         11   -1    0    0    0    0 -0.00000000000E+00 -0.00000000000E+00 -0.18250000000E+03  0.18250000000E+03  0.00000000000E+00 0.  1.
        -11    1    1    2    0    0  0.15642734127E+02  0.34290633961E+02  0.80154869863E+02  0.88573957071E+02  0.00000000000E+00 0. -1.
         11    1    1    2    0    0 -0.23352770742E+02 -0.38966638707E+02 -0.17484019026E+03  0.18064562814E+03  0.00000000000E+00 0.  1.
        -15    1    1    2    0    0  0.66081440050E+01  0.50354407405E+00  0.24573768684E+02  0.25513701420E+02  0.17770000000E+01 0.  1.
         15    1    1    2    0    0  0.11018926104E+01  0.41724606723E+01  0.70111551715E+02  0.70266713373E+02  0.17770000000E+01 0. -1.
</event>
<event>
 6    1  0.5145493E-006  0.1845319E+03  0.7546771E-02  0.1066849E+00
        -11   -1    0    0    0    0  0.00000000000E+00  0.00000000000E+00  0.18250000000E+03  0.18250000000E+03  0.00000000000E+00 0.  1.
         11   -1    0    0    0    0 -0.00000000000E+00 -0.00000000000E+00 -0.18250000000E+03  0.18250000000E+03  0.00000000000E+00 0.  1.
        -11    1    1    2    0    0 -0.26945380962E+02  0.16692142603E+03 -0.22455282592E+00  0.16908242501E+03  0.00000000000E+00 0.  1.
         11    1    1    2    0    0  0.37825763903E+02 -0.17644111269E+03 -0.25433931896E+01  0.18046806785E+03  0.00000000000E+00 0.  1.
        -15    1    1    2    0    0 -0.36875686444E+01  0.49911581586E+01  0.49761866514E+00  0.64741930468E+01  0.17770000000E+01 0.  1.
         15    1    1    2    0    0 -0.71928142957E+01  0.45285285058E+01  0.22703273504E+01  0.89753141002E+01  0.17770000000E+01 0.  1.
</event>
<event>
 6    1  0.5145493E-006  0.1523747E+03  0.7546771E-02  0.1095336E+00
        -11   -1    0    0    0    0  0.00000000000E+00  0.00000000000E+00  0.18250000000E+03  0.18250000000E+03  0.00000000000E+00 0.  1.
         11   -1    0    0    0    0 -0.00000000000E+00 -0.00000000000E+00 -0.18250000000E+03  0.18250000000E+03  0.00000000000E+00 0.  1.
        -11    1    1    2    0    0 -0.13590323320E+03 -0.12455177262E+02 -0.42182892635E+02  0.14284332909E+03  0.00000000000E+00 0.  1.
         11    1    1    2    0    0  0.16104985986E+03 -0.31462008042E+02  0.27714274931E+02  0.16641813707E+03  0.00000000000E+00 0.  1.
        -15    1    1    2    0    0 -0.15704125871E+02  0.39231323527E+02  0.74388873421E+01  0.42944278885E+02  0.17770000000E+01 0.  1.
         15    1    1    2    0    0 -0.94425007881E+01  0.46858617769E+01  0.70297303621E+01  0.12794254949E+02  0.17770000000E+01 0. -1.
</event>
<event>
 6    1  0.5145493E-006  0.1489005E+03  0.7546771E-02  0.1098872E+00
        -11   -1    0    0    0    0  0.00000000000E+00  0.00000000000E+00  0.18250000000E+03  0.18250000000E+03  0.00000000000E+00 0. -1.
         11   -1    0    0    0    0 -0.00000000000E+00 -0.00000000000E+00 -0.18250000000E+03  0.18250000000E+03  0.00000000000E+00 0. -1.
        -11    1    1    2    0    0  0.44144111125E+02 -0.99410050843E+02  0.12308932486E+03  0.16426211569E+03  0.00000000000E+00 0. -1.
         11    1    1    2    0    0 -0.40727676730E+02  0.11595950099E+03 -0.65891446802E+02  0.13945261662E+03  0.00000000000E+00 0. -1.
        -15    1    1    2    0    0 -0.25104695091E+00 -0.15297911551E+02 -0.29088595111E+02  0.32914939114E+02  0.17770000000E+01 0. -1.
         15    1    1    2    0    0 -0.31653874446E+01 -0.12515385927E+01 -0.28109282950E+02  0.28370328575E+02  0.17770000000E+01 0.  1.
</event>
<event>
 6    1  0.5145493E-006  0.1916352E+03  0.7546771E-02  0.1061407E+00
        -11   -1    0    0    0    0  0.00000000000E+00  0.00000000000E+00  0.18250000000E+03  0.18250000000E+03  0.00000000000E+00 0.  1.
         11   -1    0    0    0    0 -0.00000000000E+00 -0.00000000000E+00 -0.18250000000E+03  0.18250000000E+03  0.00000000000E+00 0. -1.
        -11    1    1    2    0    0 -0.85096799311E+02 -0.51775025946E+02  0.85021331560E+02  0.13096085440E+03  0.00000000000E+00 0.  1.
         11    1    1    2    0    0  0.79171677651E+02  0.60958842596E+02 -0.14167289037E+03  0.17336476833E+03  0.00000000000E+00 0. -1.
        -15    1    1    2    0    0  0.76958204038E-01 -0.12958407829E+02  0.24967860593E+02  0.28186486968E+02  0.17770000000E+01 0. -1.
         15    1    1    2    0    0  0.58481634558E+01  0.37745911791E+01  0.31683698218E+02  0.32487890300E+02  0.17770000000E+01 0.  1.
</event>
<event>
 6    1  0.5145493E-006  0.1777478E+03  0.7546771E-02  0.1072302E+00
        -11   -1    0    0    0    0  0.00000000000E+00  0.00000000000E+00  0.18250000000E+03  0.18250000000E+03  0.00000000000E+00 0. -1.
         11   -1    0    0    0    0 -0.00000000000E+00 -0.00000000000E+00 -0.18250000000E+03  0.18250000000E+03  0.00000000000E+00 0. -1.
        -11    1    1    2    0    0 -0.46544692518E+01  0.17452551040E+03 -0.37316200169E+02  0.17853099635E+03  0.00000000000E+00 0. -1.
         11    1    1    2    0    0  0.11295987507E+02 -0.17361181175E+03  0.32864679834E+02  0.17705577566E+03  0.00000000000E+00 0. -1.
        -15    1    1    2    0    0 -0.54177271562E+00 -0.50066251366E+00  0.11475174518E+01  0.22402468458E+01  0.17770000000E+01 0.  1.
         15    1    1    2    0    0 -0.60997455399E+01 -0.41303613453E+00  0.33040028829E+01  0.71729811481E+01  0.17770000000E+01 0.  1.
</event>
<event>
 6    1  0.5145493E-006  0.2007539E+03  0.7546771E-02  0.1054787E+00
        -11   -1    0    0    0    0  0.00000000000E+00  0.00000000000E+00  0.18250000000E+03  0.18250000000E+03  0.00000000000E+00 0. -1.
         11   -1    0    0    0    0 -0.00000000000E+00 -0.00000000000E+00 -0.18250000000E+03  0.18250000000E+03  0.00000000000E+00 0.  1.
        -11    1    1    2    0    0 -0.81600978919E+02 -0.99257593468E+02  0.10230340411E+03  0.16424608401E+03  0.00000000000E+00 0. -1.
         11    1    1    2    0    0  0.57482029172E+02  0.96910039385E+02 -0.98600455552E+02  0.14972571338E+03  0.00000000000E+00 0.  1.
        -15    1    1    2    0    0  0.11279399603E+02  0.22859684973E+02 -0.71154916804E+01  0.26525044832E+02  0.17770000000E+01 0.  1.
         15    1    1    2    0    0  0.12839550143E+02 -0.20512130889E+02  0.34125431239E+01  0.24503157778E+02  0.17770000000E+01 0. -1.
</event>
<event>
 6    1  0.5145493E-006  0.1918622E+03  0.7546771E-02  0.1061237E+00
        -11   -1    0    0    0    0  0.00000000000E+00  0.00000000000E+00  0.18250000000E+03  0.18250000000E+03  0.00000000000E+00 0. -1.
         11   -1    0    0    0    0 -0.00000000000E+00 -0.00000000000E+00 -0.18250000000E+03  0.18250000000E+03  0.00000000000E+00 0. -1.
        -11    1    1    2    0    0 -0.24983701797E+02  0.60262839178E+02  0.66642169906E+02  0.93257567794E+02  0.00000000000E+00 0. -1.
         11    1    1    2    0    0  0.15193349132E+02 -0.52636062992E+02 -0.16424157948E+03  0.17313777582E+03  0.00000000000E+00 0. -1.
        -15    1    1    2    0    0  0.28758615102E+01 -0.57109182024E+01  0.48506958728E+02  0.48958839245E+02  0.17770000000E+01 0.  1.
         15    1    1    2    0    0  0.69144911546E+01 -0.19158579833E+01  0.49092450851E+02  0.49645817138E+02  0.17770000000E+01 0. -1.
</event>
<event>
 6    1  0.5145493E-006  0.1690708E+03  0.7546771E-02  0.1079677E+00
        -11   -1    0    0    0    0  0.00000000000E+00  0.00000000000E+00  0.18250000000E+03  0.18250000000E+03  0.00000000000E+00 0.  1.
         11   -1    0    0    0    0 -0.00000000000E+00 -0.00000000000E+00 -0.18250000000E+03  0.18250000000E+03  0.00000000000E+00 0. -1.
        -11    1    1    2    0    0 -0.43473471379E+02  0.29341623712E+02  0.16628060475E+03  0.17435628212E+03  0.00000000000E+00 0.  1.
         11    1    1    2    0    0  0.22351690064E+02  0.54967410656E+01 -0.25004923916E+02  0.33986150578E+02  0.00000000000E+00 0. -1.
        -15    1    1    2    0    0  0.32296800001E+02 -0.41992947036E+01 -0.49848055861E+02  0.59570997712E+02  0.17770000000E+01 0.  1.
         15    1    1    2    0    0 -0.11175018686E+02 -0.30639070074E+02 -0.91427624978E+02  0.97086569595E+02  0.17770000000E+01 0. -1.
</event>
<event>
 6    1  0.5145493E-006  0.1855286E+03  0.7546771E-02  0.1066069E+00
        -11   -1    0    0    0    0  0.00000000000E+00  0.00000000000E+00  0.18250000000E+03  0.18250000000E+03  0.00000000000E+00 0. -1.
         11   -1    0    0    0    0 -0.00000000000E+00 -0.00000000000E+00 -0.18250000000E+03  0.18250000000E+03  0.00000000000E+00 0. -1.
        -11    1    1    2    0    0 -0.50089168793E+00 -0.69460278180E+02  0.10144454058E+03  0.12294704531E+03  0.00000000000E+00 0. -1.
         11    1    1    2    0    0 -0.32642540976E+01  0.73764301939E+02 -0.16357920540E+03  0.17947140171E+03  0.00000000000E+00 0. -1.
        -15    1    1    2    0    0  0.31831143022E+01 -0.37026865392E+01  0.51949490768E+02  0.52208710234E+02  0.17770000000E+01 0. -1.
         15    1    1    2    0    0  0.58203148337E+00 -0.60133722014E+00  0.10185174051E+02  0.10372842741E+02  0.17770000000E+01 0. -1.
</event>
<event>
 6    1  0.5145493E-006  0.1943672E+03  0.7546771E-02  0.1059382E+00
        -11   -1    0    0    0    0  0.00000000000E+00  0.00000000000E+00  0.18250000000E+03  0.18250000000E+03  0.00000000000E+00 0. -1.
         11   -1    0    0    0    0 -0.00000000000E+00 -0.00000000000E+00 -0.18250000000E+03  0.18250000000E+03  0.00000000000E+00 0. -1.
        -11    1    1    2    0    0 -0.98109235929E+02 -0.13066707981E+02  0.81629017755E+02  0.12829441754E+03  0.00000000000E+00 0. -1.
         11    1    1    2    0    0  0.86936356481E+02  0.24666897660E+02 -0.14473823181E+03  0.17063276844E+03  0.00000000000E+00 0. -1.
        -15    1    1    2    0    0  0.25964116653E+01  0.99464401852E+00  0.20969500324E+02  0.21227537377E+02  0.17770000000E+01 0. -1.
         15    1    1    2    0    0  0.85764677831E+01 -0.12594833697E+02  0.42139713727E+02  0.44845276646E+02  0.17770000000E+01 0.  1.
</event>
<event>
 6    1  0.5145493E-006  0.1853210E+03  0.7546771E-02  0.1066231E+00
        -11   -1    0    0    0    0  0.00000000000E+00  0.00000000000E+00  0.18250000000E+03  0.18250000000E+03  0.00000000000E+00 0.  1.
         11   -1    0    0    0    0 -0.00000000000E+00 -0.00000000000E+00 -0.18250000000E+03  0.18250000000E+03  0.00000000000E+00 0.  1.
        -11    1    1    2    0    0 -0.53551768279E+02  0.88686189910E+02  0.13739603828E+03  0.17207760895E+03  0.00000000000E+00 0.  1.
         11    1    1    2    0    0  0.51292930928E+02 -0.10038327119E+03 -0.13991699644E+03  0.17967896870E+03  0.00000000000E+00 0.  1.
        -15    1    1    2    0    0  0.73377295856E+00  0.90314551377E+01  0.28916422013E+01  0.96759975340E+01  0.17770000000E+01 0. -1.
         15    1    1    2    0    0  0.15250643918E+01  0.26656261468E+01 -0.37068404141E+00  0.35674248152E+01  0.17770000000E+01 0.  1.
</event>
<event>
 6    1  0.5145493E-006  0.1915321E+03  0.7546771E-02  0.1061484E+00
        -11   -1    0    0    0    0  0.00000000000E+00  0.00000000000E+00  0.18250000000E+03  0.18250000000E+03  0.00000000000E+00 0. -1.
         11   -1    0    0    0    0 -0.00000000000E+00 -0.00000000000E+00 -0.18250000000E+03  0.18250000000E+03  0.00000000000E+00 0.  1.
        -11    1    1    2    0    0  0.18030717854E+02  0.42755985887E+02  0.39111473449E+02  0.60686806398E+02  0.00000000000E+00 0. -1.
         11    1    1    2    0    0  0.32452863288E+02 -0.84916592868E+02 -0.14773991438E+03  0.17346785979E+03  0.00000000000E+00 0.  1.
        -15    1    1    2    0    0 -0.31051558476E+02  0.31086306013E+02  0.94766320893E+02  0.10447186707E+03  0.17770000000E+01 0. -1.
         15    1    1    2    0    0 -0.19432022666E+02  0.11074300969E+02  0.13862120036E+02  0.26373466737E+02  0.17770000000E+01 0.  1.
</event>
<event>
 6    1  0.5145493E-006  0.1892414E+03  0.7546771E-02  0.1063212E+00
        -11   -1    0    0    0    0  0.00000000000E+00  0.00000000000E+00  0.18250000000E+03  0.18250000000E+03  0.00000000000E+00 0. -1.
         11   -1    0    0    0    0 -0.00000000000E+00 -0.00000000000E+00 -0.18250000000E+03  0.18250000000E+03  0.00000000000E+00 0. -1.
        -11    1    1    2    0    0  0.29231080202E+02 -0.14675794526E+02  0.26377613577E+02  0.42019203857E+02  0.00000000000E+00 0. -1.
         11    1    1    2    0    0 -0.19181543813E+02  0.27022782449E+02 -0.17260623689E+03  0.17575857136E+03  0.00000000000E+00 0. -1.
        -15    1    1    2    0    0 -0.32600570583E+01 -0.15701936619E+01  0.26499008544E+02  0.26803892683E+02  0.17770000000E+01 0.  1.
         15    1    1    2    0    0 -0.67894793306E+01 -0.10776794260E+02  0.11972961477E+03  0.12041833210E+03  0.17770000000E+01 0. -1.
</event>
<event>
 6    1  0.5145493E-006  0.1580491E+03  0.7546771E-02  0.1089777E+00
        -11   -1    0    0    0    0  0.00000000000E+00  0.00000000000E+00  0.18250000000E+03  0.18250000000E+03  0.00000000000E+00 0.  1.
         11   -1    0    0    0    0 -0.00000000000E+00 -0.00000000000E+00 -0.18250000000E+03  0.18250000000E+03  0.00000000000E+00 0.  1.
        -11    1    1    2    0    0  0.10247178994E+03  0.11850512369E+03  0.30811502602E+02  0.15966615410E+03  0.00000000000E+00 0.  1.
         11    1    1    2    0    0 -0.10415723937E+03 -0.12014728138E+03  0.14455971011E+02  0.15966550922E+03  0.00000000000E+00 0.  1.
        -15    1    1    2    0    0 -0.13552221077E+00  0.18605959195E+01 -0.10666192539E+02  0.10972947450E+02  0.17770000000E+01 0.  1.
         15    1    1    2    0    0  0.18209716490E+01 -0.21843822762E+00 -0.34601281073E+02  0.34695389231E+02  0.17770000000E+01 0. -1.
</event>
<event>
 6    1  0.5145493E-006  0.1196633E+03  0.7546771E-02  0.1133586E+00
        -11   -1    0    0    0    0  0.00000000000E+00  0.00000000000E+00  0.18250000000E+03  0.18250000000E+03  0.00000000000E+00 0.  1.
         11   -1    0    0    0    0 -0.00000000000E+00 -0.00000000000E+00 -0.18250000000E+03  0.18250000000E+03  0.00000000000E+00 0.  1.
        -11    1    1    2    0    0  0.17526417854E+01 -0.14151144939E+03  0.15562228171E+02  0.14237536657E+03  0.00000000000E+00 0.  1.
         11    1    1    2    0    0 -0.21479439683E+02  0.73400972715E+02 -0.89983051996E+02  0.11809326302E+03  0.00000000000E+00 0.  1.
        -15    1    1    2    0    0  0.22710164998E+02  0.60779159983E+02  0.62460846106E+02  0.90079814097E+02  0.17770000000E+01 0.  1.
         15    1    1    2    0    0 -0.29833671006E+01  0.73313166909E+01  0.11959977718E+02  0.14451556307E+02  0.17770000000E+01 0. -1.
</event>
<event>
 6    1  0.5145493E-006  0.1198646E+03  0.7546771E-02  0.1133310E+00
        -11   -1    0    0    0    0  0.00000000000E+00  0.00000000000E+00  0.18250000000E+03  0.18250000000E+03  0.00000000000E+00 0.  1.
         11   -1    0    0    0    0 -0.00000000000E+00 -0.00000000000E+00 -0.18250000000E+03  0.18250000000E+03  0.00000000000E+00 0.  1.
        -11    1    1    2    0    0 -0.47401115099E+02 -0.87129508567E+02  0.52647280521E+02  0.11229493810E+03  0.00000000000E+00 0.  1.
         11    1    1    2    0    0  0.56140667821E+02  0.25994418031E+02 -0.13516661787E+03  0.14865227526E+03  0.00000000000E+00 0.  1.
        -15    1    1    2    0    0 -0.71816477533E+01  0.37877513632E+02  0.40337093386E+02  0.55825808863E+02  0.17770000000E+01 0.  1.
         15    1    1    2    0    0 -0.15579049688E+01  0.23257576905E+02  0.42182243964E+02  0.48226977784E+02  0.17770000000E+01 0.  1.
</event>
<event>
 6    1  0.5145493E-006  0.1457772E+03  0.7546771E-02  0.1102143E+00
        -11   -1    0    0    0    0  0.00000000000E+00  0.00000000000E+00  0.18250000000E+03  0.18250000000E+03  0.00000000000E+00 0. -1.
         11   -1    0    0    0    0 -0.00000000000E+00 -0.00000000000E+00 -0.18250000000E+03  0.18250000000E+03  0.00000000000E+00 0.  1.
        -11    1    1    2    0    0  0.70742345378E+02  0.50209874322E+02 -0.12678221795E+03  0.15362044687E+03  0.00000000000E+00 0.  1.
         11    1    1    2    0    0 -0.12751491304E+02 -0.29492817947E+02  0.14109761485E+03  0.14470992971E+03  0.00000000000E+00 0. -1.
        -15    1    1    2    0    0 -0.55705822919E+02 -0.22036696962E+02 -0.91840907467E+01  0.60632169448E+02  0.17770000000E+01 0. -1.
         15    1    1    2    0    0 -0.22850311541E+01  0.13196405881E+01 -0.51313061466E+01  0.60374539689E+01  0.17770000000E+01 0.  1.
</event>
<event>
 6    1  0.5145495E-006  0.1826468E+03  0.7546771E-02  0.1068338E+00
        -11   -1    0    0    0    0  0.00000000000E+00  0.00000000000E+00  0.18250000000E+03  0.18250000000E+03  0.00000000000E+00 0. -1.
         11   -1    0    0    0    0 -0.00000000000E+00 -0.00000000000E+00 -0.18250000000E+03  0.18250000000E+03  0.00000000000E+00 0. -1.
        -11    1    1    2    0    0  0.82216377332E+01 -0.21310131525E+02  0.18091703108E+03  0.18235319895E+03  0.00000000000E+00 0. -1.
         11    1    1    2    0    0 -0.25955322246E+01  0.13943505603E+02 -0.98886512188E+02  0.99898450582E+02  0.00000000000E+00 0. -1.
        -15    1    1    2    0    0 -0.22976920878E+01  0.53301519081E+01 -0.59864117346E+02  0.60171090924E+02  0.17770000000E+01 0. -1.
         15    1    1    2    0    0 -0.33284134208E+01  0.20364740134E+01 -0.22166401543E+02  0.22577259547E+02  0.17770000000E+01 0. -1.
</event>
<event>
 6    1  0.5145493E-006  0.1596997E+03  0.7546771E-02  0.1088208E+00
        -11   -1    0    0    0    0  0.00000000000E+00  0.00000000000E+00  0.18250000000E+03  0.18250000000E+03  0.00000000000E+00 0.  1.
         11   -1    0    0    0    0 -0.00000000000E+00 -0.00000000000E+00 -0.18250000000E+03  0.18250000000E+03  0.00000000000E+00 0.  1.
        -11    1    1    2    0    0 -0.11384914401E+03 -0.49163127391E+02 -0.11510128144E+03  0.16919499306E+03  0.00000000000E+00 0.  1.
         11    1    1    2    0    0  0.10852502254E+03  0.70727860610E+02  0.81013907992E+02  0.15278535294E+03  0.00000000000E+00 0.  1.
        -15    1    1    2    0    0 -0.13366095170E+01 -0.24636613240E-01  0.88773115066E+01  0.91515856849E+01  0.17770000000E+01 0. -1.
         15    1    1    2    0    0  0.66607309903E+01 -0.21540096605E+02  0.25210061946E+02  0.33868068315E+02  0.17770000000E+01 0.  1.
</event>
<event>
 6    1  0.5145493E-006  0.1843835E+03  0.7546771E-02  0.1066965E+00
        -11   -1    0    0    0    0  0.00000000000E+00  0.00000000000E+00  0.18250000000E+03  0.18250000000E+03  0.00000000000E+00 0. -1.
         11   -1    0    0    0    0 -0.00000000000E+00 -0.00000000000E+00 -0.18250000000E+03  0.18250000000E+03  0.00000000000E+00 0.  1.
        -11    1    1    2    0    0  0.43155784274E+02 -0.52206392066E+02  0.59914275076E+02  0.90430356887E+02  0.00000000000E+00 0. -1.
         11    1    1    2    0    0 -0.88154076867E+02  0.82476293615E+02 -0.13434603705E+03  0.18061654948E+03  0.00000000000E+00 0.  1.
        -15    1    1    2    0    0  0.33965886475E+02 -0.27226159721E+02  0.67845874355E+02  0.80629805985E+02  0.17770000000E+01 0.  1.
         15    1    1    2    0    0  0.11032406118E+02 -0.30437418274E+01  0.65858876147E+01  0.13323287648E+02  0.17770000000E+01 0. -1.
</event>
<event>
 6    1  0.5145493E-006  0.1842976E+03  0.7546771E-02  0.1067033E+00
        -11   -1    0    0    0    0  0.00000000000E+00  0.00000000000E+00  0.18250000000E+03  0.18250000000E+03  0.00000000000E+00 0. -1.
         11   -1    0    0    0    0 -0.00000000000E+00 -0.00000000000E+00 -0.18250000000E+03  0.18250000000E+03  0.00000000000E+00 0. -1.
        -11    1    1    2    0    0  0.57448898671E+01  0.14685642542E+01  0.86625378374E+01  0.10497618889E+02  0.00000000000E+00 0. -1.
         11    1    1    2    0    0  0.28835759507E+02  0.20555910232E+02 -0.17719846238E+03  0.18070235622E+03  0.00000000000E+00 0. -1.
        -15    1    1    2    0    0 -0.17945891546E+02 -0.71498152380E+01  0.63139408265E+02  0.66052384411E+02  0.17770000000E+01 0.  1.
         15    1    1    2    0    0 -0.16634757828E+02 -0.14874659248E+02  0.10539651628E+03  0.10774764048E+03  0.17770000000E+01 0. -1.
</event>
<event>
 6    1  0.5145493E-006  0.1859611E+03  0.7546771E-02  0.1065733E+00
        -11   -1    0    0    0    0  0.00000000000E+00  0.00000000000E+00  0.18250000000E+03  0.18250000000E+03  0.00000000000E+00 0. -1.
         11   -1    0    0    0    0 -0.00000000000E+00 -0.00000000000E+00 -0.18250000000E+03  0.18250000000E+03  0.00000000000E+00 0. -1.
        -11    1    1    2    0    0  0.69450254232E+02  0.16113702116E+02  0.12128151815E+03  0.14068473923E+03  0.00000000000E+00 0. -1.
         11    1    1    2    0    0 -0.68882422881E+02 -0.62408998757E+01 -0.16513985870E+03  0.17903885037E+03  0.00000000000E+00 0. -1.
        -15    1    1    2    0    0 -0.74307946840E+00 -0.12790671663E+01  0.12539169065E+02  0.12750555664E+02  0.17770000000E+01 0. -1.
         15    1    1    2    0    0  0.17524811806E+00 -0.85937350744E+01  0.31319171481E+02  0.32525854726E+02  0.17770000000E+01 0.  1.
</event>
<event>
 6    1  0.5145493E-006  0.1841903E+03  0.7546771E-02  0.1067117E+00
        -11   -1    0    0    0    0  0.00000000000E+00  0.00000000000E+00  0.18250000000E+03  0.18250000000E+03  0.00000000000E+00 0.  1.
         11   -1    0    0    0    0 -0.00000000000E+00 -0.00000000000E+00 -0.18250000000E+03  0.18250000000E+03  0.00000000000E+00 0. -1.
        -11    1    1    2    0    0  0.16913923951E+02 -0.25617664090E+02  0.90237789081E+02  0.95316337084E+02  0.00000000000E+00 0.  1.
         11    1    1    2    0    0 -0.15393721686E+02  0.31615055674E+02 -0.17735746351E+03  0.18080970182E+03  0.00000000000E+00 0. -1.
        -15    1    1    2    0    0 -0.58538256680E+01 -0.53330676219E+01  0.19946019217E+02  0.21533933612E+02  0.17770000000E+01 0.  1.
         15    1    1    2    0    0  0.43336234030E+01 -0.66432396233E+00  0.67173655207E+02  0.67340027480E+02  0.17770000000E+01 0. -1.
</event>
<event>
 6    1  0.5145493E-006  0.1867943E+03  0.7546771E-02  0.1065087E+00
        -11   -1    0    0    0    0  0.00000000000E+00  0.00000000000E+00  0.18250000000E+03  0.18250000000E+03  0.00000000000E+00 0.  1.
         11   -1    0    0    0    0 -0.00000000000E+00 -0.00000000000E+00 -0.18250000000E+03  0.18250000000E+03  0.00000000000E+00 0. -1.
        -11    1    1    2    0    0  0.10352684776E+03  0.90745731375E+02  0.11315772864E+03  0.17820568880E+03  0.00000000000E+00 0.  1.
         11    1    1    2    0    0 -0.77787865641E+02 -0.43839859718E+02 -0.87778231380E+02  0.12521143416E+03  0.00000000000E+00 0. -1.
        -15    1    1    2    0    0 -0.20452194428E+02 -0.36080885929E+02 -0.11412148217E+02  0.43052496354E+02  0.17770000000E+01 0.  1.
         15    1    1    2    0    0 -0.52867876913E+01 -0.10824985728E+02 -0.13967349040E+02  0.18530380685E+02  0.17770000000E+01 0. -1.
</event>
<event>
 6    1  0.5145493E-006  0.1897090E+03  0.7546771E-02  0.1062857E+00
        -11   -1    0    0    0    0  0.00000000000E+00  0.00000000000E+00  0.18250000000E+03  0.18250000000E+03  0.00000000000E+00 0. -1.
         11   -1    0    0    0    0 -0.00000000000E+00 -0.00000000000E+00 -0.18250000000E+03  0.18250000000E+03  0.00000000000E+00 0.  1.
        -11    1    1    2    0    0  0.33958914148E+02 -0.72096507712E+02  0.15612759243E+03  0.17529101344E+03  0.00000000000E+00 0. -1.
         11    1    1    2    0    0 -0.28592715925E+02  0.80016582018E+02 -0.10257045603E+03  0.13319495205E+03  0.00000000000E+00 0.  1.
        -15    1    1    2    0    0  0.42165929420E+01 -0.43551704164E-01 -0.23635276220E+02  0.24074167977E+02  0.17770000000E+01 0. -1.
         15    1    1    2    0    0 -0.95827911652E+01 -0.78765226020E+01 -0.29921860180E+02  0.32439866529E+02  0.17770000000E+01 0.  1.
</event>
<event>
 6    1  0.5145493E-006  0.1844739E+03  0.7546771E-02  0.1066894E+00
        -11   -1    0    0    0    0  0.00000000000E+00  0.00000000000E+00  0.18250000000E+03  0.18250000000E+03  0.00000000000E+00 0.  1.
         11   -1    0    0    0    0 -0.00000000000E+00 -0.00000000000E+00 -0.18250000000E+03  0.18250000000E+03  0.00000000000E+00 0. -1.
        -11    1    1    2    0    0 -0.83430102407E+02 -0.41086884182E+01  0.83003607920E+02  0.11775849114E+03  0.00000000000E+00 0.  1.
         11    1    1    2    0    0  0.10826817746E+03  0.86725851699E+01 -0.14419585089E+03  0.18052605186E+03  0.00000000000E+00 0. -1.
        -15    1    1    2    0    0 -0.15959588552E+02 -0.63488908319E+01  0.37313710959E+02  0.41115540080E+02  0.17770000000E+01 0.  1.
         15    1    1    2    0    0 -0.88784865024E+01  0.17849940803E+01  0.23878532012E+02  0.25599916923E+02  0.17770000000E+01 0.  1.
</event>
<event>
 6    1  0.5145493E-006  0.1987537E+03  0.7546771E-02  0.1056206E+00
        -11   -1    0    0    0    0  0.00000000000E+00  0.00000000000E+00  0.18250000000E+03  0.18250000000E+03  0.00000000000E+00 0.  1.
         11   -1    0    0    0    0 -0.00000000000E+00 -0.00000000000E+00 -0.18250000000E+03  0.18250000000E+03  0.00000000000E+00 0. -1.
        -11    1    1    2    0    0 -0.36537704056E+02  0.74511410331E+02  0.69681719316E+02  0.10836279848E+03  0.00000000000E+00 0.  1.
         11    1    1    2    0    0  0.62436088822E+02 -0.71938990165E+02 -0.13625103367E+03  0.16624628619E+03  0.00000000000E+00 0. -1.
        -15    1    1    2    0    0 -0.12238130976E+02  0.77010508124E+01 -0.60436970360E+01  0.15772191867E+02  0.17770000000E+01 0. -1.
         15    1    1    2    0    0 -0.13660253790E+02 -0.10273470979E+02  0.72613011393E+02  0.74618723469E+02  0.17770000000E+01 0.  1.
</event>
<event>
 6    1  0.5145493E-006  0.1838664E+03  0.7546771E-02  0.1067372E+00
        -11   -1    0    0    0    0  0.00000000000E+00  0.00000000000E+00  0.18250000000E+03  0.18250000000E+03  0.00000000000E+00 0. -1.
         11   -1    0    0    0    0 -0.00000000000E+00 -0.00000000000E+00 -0.18250000000E+03  0.18250000000E+03  0.00000000000E+00 0. -1.
        -11    1    1    2    0    0 -0.62581787376E+01  0.28367606075E+02  0.17878898497E+03  0.18113361649E+03  0.00000000000E+00 0. -1.
         11    1    1    2    0    0  0.35207946092E+01 -0.19473108886E+02 -0.16651215648E+03  0.16768391759E+03  0.00000000000E+00 0. -1.
        -15    1    1    2    0    0  0.29980097314E+01 -0.67856065652E+01 -0.77431475601E+01  0.10869525378E+02  0.17770000000E+01 0. -1.
         15    1    1    2    0    0 -0.26062560302E+00 -0.21088906235E+01 -0.45336809351E+01  0.53129405406E+01  0.17770000000E+01 0.  1.
</event>
<event>
 6    1  0.5145493E-006  0.1954486E+03  0.7546771E-02  0.1058591E+00
        -11   -1    0    0    0    0  0.00000000000E+00  0.00000000000E+00  0.18250000000E+03  0.18250000000E+03  0.00000000000E+00 0. -1.
         11   -1    0    0    0    0 -0.00000000000E+00 -0.00000000000E+00 -0.18250000000E+03  0.18250000000E+03  0.00000000000E+00 0. -1.
        -11    1    1    2    0    0 -0.54764883118E+02  0.96688963330E+02  0.12806148236E+03  0.16955144151E+03  0.00000000000E+00 0. -1.
         11    1    1    2    0    0  0.43949072320E+01 -0.86032087577E+02 -0.50472776429E+02  0.99841556793E+02  0.00000000000E+00 0. -1.
        -15    1    1    2    0    0  0.33468661551E+02  0.31557558405E+01 -0.42089249270E+02  0.53895943577E+02  0.17770000000E+01 0.  1.
         15    1    1    2    0    0  0.16901314336E+02 -0.13812631593E+02 -0.35499456659E+02  0.41711058124E+02  0.17770000000E+01 0.  1.
</event>
<event>
 6    1  0.5145493E-006  0.1856730E+03  0.7546771E-02  0.1065957E+00
        -11   -1    0    0    0    0  0.00000000000E+00  0.00000000000E+00  0.18250000000E+03  0.18250000000E+03  0.00000000000E+00 0.  1.
         11   -1    0    0    0    0 -0.00000000000E+00 -0.00000000000E+00 -0.18250000000E+03  0.18250000000E+03  0.00000000000E+00 0. -1.
        -11    1    1    2    0    0 -0.69604965037E+00  0.36460082110E+02  0.40074616812E+02  0.54182995351E+02  0.00000000000E+00 0.  1.
         11    1    1    2    0    0  0.35602535606E+02 -0.67054776609E+02 -0.16246316127E+03  0.17932697058E+03  0.00000000000E+00 0. -1.
        -15    1    1    2    0    0 -0.16714278375E+02  0.98015774343E+01  0.38264020107E+02  0.42927042590E+02  0.17770000000E+01 0. -1.
         15    1    1    2    0    0 -0.18192207581E+02  0.20793117064E+02  0.84124524349E+02  0.88562991480E+02  0.17770000000E+01 0.  1.
</event>
<event>
 6    1  0.5145493E-006  0.1840083E+03  0.7546771E-02  0.1067260E+00
        -11   -1    0    0    0    0  0.00000000000E+00  0.00000000000E+00  0.18250000000E+03  0.18250000000E+03  0.00000000000E+00 0. -1.
         11   -1    0    0    0    0 -0.00000000000E+00 -0.00000000000E+00 -0.18250000000E+03  0.18250000000E+03  0.00000000000E+00 0.  1.
        -11    1    1    2    0    0  0.50578073016E+02 -0.42754402110E+02  0.16843961354E+03  0.18099166771E+03  0.00000000000E+00 0. -1.
         11    1    1    2    0    0 -0.52414791994E+02  0.35665337237E+02 -0.13657067904E+03  0.15056851288E+03  0.00000000000E+00 0.  1.
        -15    1    1    2    0    0 -0.14313407754E+01  0.25894660842E+01 -0.18966975597E+02  0.19278432595E+02  0.17770000000E+01 0.  1.
         15    1    1    2    0    0  0.32680597536E+01  0.44995987895E+01 -0.12901958909E+02  0.14161386814E+02  0.17770000000E+01 0. -1.
</event>
<event>
 6    1  0.5145493E-006  0.1438907E+03  0.7546771E-02  0.1104163E+00
        -11   -1    0    0    0    0  0.00000000000E+00  0.00000000000E+00  0.18250000000E+03  0.18250000000E+03  0.00000000000E+00 0.  1.
         11   -1    0    0    0    0 -0.00000000000E+00 -0.00000000000E+00 -0.18250000000E+03  0.18250000000E+03  0.00000000000E+00 0. -1.
        -11    1    1    2    0    0 -0.59346706614E+02  0.30043345492E+02  0.21410799189E+02  0.69878870313E+02  0.00000000000E+00 0.  1.
         11    1    1    2    0    0  0.70592978379E+02 -0.35213135077E+02 -0.14748355274E+03  0.16725648510E+03  0.00000000000E+00 0. -1.
        -15    1    1    2    0    0  0.25317713353E+01  0.15711474874E+01  0.59488921901E+01  0.68866114897E+01  0.17770000000E+01 0. -1.
         15    1    1    2    0    0 -0.13778043101E+02  0.35986420971E+01  0.12012386136E+03  0.12097803310E+03  0.17770000000E+01 0.  1.
</event>
<event>
 6    1  0.5145493E-006  0.1853536E+03  0.7546771E-02  0.1066206E+00
        -11   -1    0    0    0    0  0.00000000000E+00  0.00000000000E+00  0.18250000000E+03  0.18250000000E+03  0.00000000000E+00 0.  1.
         11   -1    0    0    0    0 -0.00000000000E+00 -0.00000000000E+00 -0.18250000000E+03  0.18250000000E+03  0.00000000000E+00 0.  1.
        -11    1    1    2    0    0 -0.48451857958E+02 -0.84841126252E+02  0.10552271235E+03  0.14380765649E+03  0.00000000000E+00 0.  1.
         11    1    1    2    0    0  0.53334289274E+02  0.96841994299E+02 -0.14159765350E+03  0.17964635746E+03  0.00000000000E+00 0.  1.
        -15    1    1    2    0    0  0.78839471783E+00  0.18625556839E+01  0.28482923353E+00  0.27073116923E+01  0.17770000000E+01 0. -1.
         15    1    1    2    0    0 -0.56708260338E+01 -0.13863423731E+02  0.35790111921E+02  0.38838674356E+02  0.17770000000E+01 0.  1.
</event>
<event>
 6    1  0.5145493E-006  0.1611560E+03  0.7546771E-02  0.1086840E+00
        -11   -1    0    0    0    0  0.00000000000E+00  0.00000000000E+00  0.18250000000E+03  0.18250000000E+03  0.00000000000E+00 0.  1.
         11   -1    0    0    0    0 -0.00000000000E+00 -0.00000000000E+00 -0.18250000000E+03  0.18250000000E+03  0.00000000000E+00 0.  1.
        -11    1    1    2    0    0 -0.71289673513E+02 -0.97739950920E+02  0.99581962357E+02  0.15669040424E+03  0.00000000000E+00 0.  1.
         11    1    1    2    0    0 -0.16308391513E+02 -0.22083623333E+02 -0.32734251634E+02  0.42722140434E+02  0.00000000000E+00 0.  1.
        -15    1    1    2    0    0  0.11613057533E+02  0.31879846498E+01 -0.37221901987E+01  0.12729445403E+02  0.17770000000E+01 0. -1.
         15    1    1    2    0    0  0.75985007492E+02  0.11663558960E+03 -0.63125520524E+02  0.15285800992E+03  0.17770000000E+01 0.  1.
</event>
<event>
 6    1  0.5145493E-006  0.1842404E+03  0.7546771E-02  0.1067078E+00
        -11   -1    0    0    0    0  0.00000000000E+00  0.00000000000E+00  0.18250000000E+03  0.18250000000E+03  0.00000000000E+00 0. -1.
         11   -1    0    0    0    0 -0.00000000000E+00 -0.00000000000E+00 -0.18250000000E+03  0.18250000000E+03  0.00000000000E+00 0. -1.
        -11    1    1    2    0    0 -0.16224653660E+02 -0.46325491068E+02  0.16120869338E+03  0.16851567680E+03  0.00000000000E+00 0. -1.
         11    1    1    2    0    0  0.19804795727E+02  0.41484103146E+02 -0.17481664790E+03  0.18075956719E+03  0.00000000000E+00 0. -1.
        -15    1    1    2    0    0 -0.38533901002E+01  0.37525568728E+01  0.86511271521E+01  0.10340697672E+02  0.17770000000E+01 0. -1.
         15    1    1    2    0    0  0.27324803306E+00  0.10888310484E+01  0.49568273728E+01  0.53840583339E+01  0.17770000000E+01 0. -1.
</event>
<event>
 6    1  0.5145493E-006  0.1214264E+03  0.7546771E-02  0.1131193E+00
        -11   -1    0    0    0    0  0.00000000000E+00  0.00000000000E+00  0.18250000000E+03  0.18250000000E+03  0.00000000000E+00 0.  1.
         11   -1    0    0    0    0 -0.00000000000E+00 -0.00000000000E+00 -0.18250000000E+03  0.18250000000E+03  0.00000000000E+00 0. -1.
        -11    1    1    2    0    0 -0.26660447606E+02 -0.59527572682E+02  0.85579562533E+02  0.10760191866E+03  0.00000000000E+00 0.  1.
         11    1    1    2    0    0  0.77184725759E+02 -0.31390748511E+02 -0.11303224629E+03  0.14042488983E+03  0.00000000000E+00 0. -1.
        -15    1    1    2    0    0 -0.58980044042E+02  0.76290882790E+02  0.26176393018E+02  0.99936508206E+02  0.17770000000E+01 0.  1.
         15    1    1    2    0    0  0.84557658894E+01  0.14627438403E+02  0.12762907367E+01  0.17036683305E+02  0.17770000000E+01 0. -1.
</event>
<event>
 6    1  0.5145493E-006  0.1836864E+03  0.7546771E-02  0.1067514E+00
        -11   -1    0    0    0    0  0.00000000000E+00  0.00000000000E+00  0.18250000000E+03  0.18250000000E+03  0.00000000000E+00 0. -1.
         11   -1    0    0    0    0 -0.00000000000E+00 -0.00000000000E+00 -0.18250000000E+03  0.18250000000E+03  0.00000000000E+00 0.  1.
        -11    1    1    2    0    0 -0.89297351305E+01  0.33300166956E+02  0.17800558038E+03  0.18131361762E+03  0.00000000000E+00 0. -1.
         11    1    1    2    0    0  0.38758664648E+00 -0.26472224555E+02 -0.68147489499E+02  0.73109569971E+02  0.00000000000E+00 0.  1.
        -15    1    1    2    0    0  0.65513464186E+01 -0.60280982158E+01 -0.96805379222E+02  0.97230125389E+02  0.17770000000E+01 0.  1.
         15    1    1    2    0    0  0.19908020654E+01 -0.79984418539E+00 -0.13052711661E+02  0.13346687015E+02  0.17770000000E+01 0.  1.
</event>
<event>
 6    1  0.5145493E-006  0.1517800E+03  0.7546771E-02  0.1095934E+00
        -11   -1    0    0    0    0  0.00000000000E+00  0.00000000000E+00  0.18250000000E+03  0.18250000000E+03  0.00000000000E+00 0.  1.
         11   -1    0    0    0    0 -0.00000000000E+00 -0.00000000000E+00 -0.18250000000E+03  0.18250000000E+03  0.00000000000E+00 0.  1.
        -11    1    1    2    0    0 -0.12660303113E+03 -0.70876667079E+02  0.60265613866E+02  0.15711070506E+03  0.00000000000E+00 0.  1.
         11    1    1    2    0    0  0.12497205504E+03  0.81195196873E+02 -0.15795580734E+02  0.14986719090E+03  0.00000000000E+00 0.  1.
        -15    1    1    2    0    0 -0.87216846851E+00  0.90338745854E+01 -0.35108741238E+02  0.36306376963E+02  0.17770000000E+01 0. -1.
         15    1    1    2    0    0  0.25031445621E+01 -0.19352404379E+02 -0.93612918941E+01  0.21715727086E+02  0.17770000000E+01 0.  1.
</event>
<event>
 6    1  0.5145493E-006  0.1851440E+03  0.7546771E-02  0.1066369E+00
        -11   -1    0    0    0    0  0.00000000000E+00  0.00000000000E+00  0.18250000000E+03  0.18250000000E+03  0.00000000000E+00 0. -1.
         11   -1    0    0    0    0 -0.00000000000E+00 -0.00000000000E+00 -0.18250000000E+03  0.18250000000E+03  0.00000000000E+00 0. -1.
        -11    1    1    2    0    0 -0.22310583424E+01  0.65642496035E+02  0.16743440071E+03  0.17985603534E+03  0.00000000000E+00 0. -1.
         11    1    1    2    0    0  0.20548233974E+02 -0.43396446644E+02 -0.87210613433E+02  0.99554872287E+02  0.00000000000E+00 0. -1.
        -15    1    1    2    0    0 -0.17557273831E+02 -0.18439358965E+02 -0.67217084673E+02  0.71899666372E+02  0.17770000000E+01 0. -1.
         15    1    1    2    0    0 -0.75990180028E+00 -0.38066904250E+01 -0.13006702602E+02  0.13689426004E+02  0.17770000000E+01 0.  1.
</event>
<event>
 6    1  0.5145493E-006  0.1885940E+03  0.7546771E-02  0.1063705E+00
        -11   -1    0    0    0    0  0.00000000000E+00  0.00000000000E+00  0.18250000000E+03  0.18250000000E+03  0.00000000000E+00 0. -1.
         11   -1    0    0    0    0 -0.00000000000E+00 -0.00000000000E+00 -0.18250000000E+03  0.18250000000E+03  0.00000000000E+00 0. -1.
        -11    1    1    2    0    0  0.42998770082E+02 -0.45123676061E+02  0.10661619512E+03  0.12349920417E+03  0.00000000000E+00 0. -1.
         11    1    1    2    0    0 -0.26559096651E+02  0.42871152765E+02 -0.16904365699E+03  0.17640600705E+03  0.00000000000E+00 0. -1.
        -15    1    1    2    0    0 -0.36677422414E+01 -0.15141713878E+01  0.88703390970E+01  0.98785471015E+01  0.17770000000E+01 0.  1.
         15    1    1    2    0    0 -0.12771931189E+02  0.37666946831E+01  0.53557122777E+02  0.55216241671E+02  0.17770000000E+01 0.  1.
</event>
<event>
 6    1  0.5145493E-006  0.1900988E+03  0.7546771E-02  0.1062562E+00
        -11   -1    0    0    0    0  0.00000000000E+00  0.00000000000E+00  0.18250000000E+03  0.18250000000E+03  0.00000000000E+00 0.  1.
         11   -1    0    0    0    0 -0.00000000000E+00 -0.00000000000E+00 -0.18250000000E+03  0.18250000000E+03  0.00000000000E+00 0.  1.
        -11    1    1    2    0    0 -0.57754030305E+01 -0.10640590395E+03  0.13868981114E+03  0.17490121609E+03  0.00000000000E+00 0.  1.
         11    1    1    2    0    0 -0.11456963875E+02 -0.26632804841E+01 -0.25768730151E+02  0.28326357651E+02  0.00000000000E+00 0.  1.
        -15    1    1    2    0    0  0.96363099130E+01  0.10349452709E+03 -0.92251924742E+02  0.13898759280E+03  0.17770000000E+01 0.  1.
         15    1    1    2    0    0  0.75960569923E+01  0.55746573478E+01 -0.20669156249E+02  0.22784833452E+02  0.17770000000E+01 0. -1.
</event>
<event>
 6    1  0.5145493E-006  0.1907364E+03  0.7546771E-02  0.1062081E+00
        -11   -1    0    0    0    0  0.00000000000E+00  0.00000000000E+00  0.18250000000E+03  0.18250000000E+03  0.00000000000E+00 0. -1.
         11   -1    0    0    0    0 -0.00000000000E+00 -0.00000000000E+00 -0.18250000000E+03  0.18250000000E+03  0.00000000000E+00 0. -1.
        -11    1    1    2    0    0 -0.12484645358E+02 -0.37534254943E+02  0.71268570946E+02  0.81510096727E+02  0.00000000000E+00 0. -1.
         11    1    1    2    0    0  0.34813285243E+02  0.19317191728E+02 -0.16965464600E+03  0.17426364404E+03  0.00000000000E+00 0. -1.
        -15    1    1    2    0    0 -0.18353872585E+00  0.18037830467E+01 -0.31238670488E+01  0.40253688132E+01  0.17770000000E+01 0. -1.
         15    1    1    2    0    0 -0.22145101160E+02  0.16413280168E+02  0.10150994210E+03  0.10520089042E+03  0.17770000000E+01 0.  1.
</event>
<event>
 6    1  0.5145493E-006  0.1627603E+03  0.7546771E-02  0.1085353E+00
        -11   -1    0    0    0    0  0.00000000000E+00  0.00000000000E+00  0.18250000000E+03  0.18250000000E+03  0.00000000000E+00 0. -1.
         11   -1    0    0    0    0 -0.00000000000E+00 -0.00000000000E+00 -0.18250000000E+03  0.18250000000E+03  0.00000000000E+00 0. -1.
        -11    1    1    2    0    0 -0.11258063339E+03  0.23917800106E+02  0.11310756761E+03  0.16136846664E+03  0.00000000000E+00 0. -1.
         11    1    1    2    0    0  0.10318537715E+03 -0.49692941601E+02 -0.11928445631E+03  0.16536442187E+03  0.00000000000E+00 0. -1.
        -15    1    1    2    0    0  0.14866048907E+02  0.23620815924E+02  0.11403845796E+02  0.30201784434E+02  0.17770000000E+01 0.  1.
         15    1    1    2    0    0 -0.54707926650E+01  0.21543255709E+01 -0.52269570929E+01  0.80653270548E+01  0.17770000000E+01 0. -1.
</event>
<event>
 6    1  0.5145493E-006  0.1872477E+03  0.7546771E-02  0.1064737E+00
        -11   -1    0    0    0    0  0.00000000000E+00  0.00000000000E+00  0.18250000000E+03  0.18250000000E+03  0.00000000000E+00 0. -1.
         11   -1    0    0    0    0 -0.00000000000E+00 -0.00000000000E+00 -0.18250000000E+03  0.18250000000E+03  0.00000000000E+00 0.  1.
        -11    1    1    2    0    0 -0.53206204805E+02  0.11613454265E+00  0.10314014022E+03  0.11605516896E+03  0.00000000000E+00 0. -1.
         11    1    1    2    0    0  0.44417845162E+02 -0.36593980361E+01 -0.17207423414E+03  0.17775229455E+03  0.00000000000E+00 0.  1.
        -15    1    1    2    0    0  0.11850590308E+02  0.44792305736E+01  0.39221310518E+02  0.41254926068E+02  0.17770000000E+01 0. -1.
         15    1    1    2    0    0 -0.30622306656E+01 -0.93596708020E+00  0.29712783404E+02  0.29937610419E+02  0.17770000000E+01 0.  1.
</event>
<event>
 6    1  0.5145493E-006  0.1865868E+03  0.7546771E-02  0.1065247E+00
        -11   -1    0    0    0    0  0.00000000000E+00  0.00000000000E+00  0.18250000000E+03  0.18250000000E+03  0.00000000000E+00 0.  1.
         11   -1    0    0    0    0 -0.00000000000E+00 -0.00000000000E+00 -0.18250000000E+03  0.18250000000E+03  0.00000000000E+00 0. -1.
        -11    1    1    2    0    0 -0.23332208963E+01 -0.66941393285E+02  0.97898142450E+02  0.11861973002E+03  0.00000000000E+00 0.  1.
         11    1    1    2    0    0 -0.17209789170E+01  0.69269274093E+02 -0.16440828462E+03  0.17841322303E+03  0.00000000000E+00 0. -1.
        -15    1    1    2    0    0 -0.45002100759E+01 -0.19703647429E+01  0.22805484111E+02  0.23396197608E+02  0.17770000000E+01 0.  1.
         15    1    1    2    0    0  0.85544098892E+01 -0.35751606466E+00  0.43704658056E+02  0.44570849342E+02  0.17770000000E+01 0. -1.
</event>
<event>
 6    1  0.5145493E-006  0.1284920E+03  0.7546771E-02  0.1122038E+00
        -11   -1    0    0    0    0  0.00000000000E+00  0.00000000000E+00  0.18250000000E+03  0.18250000000E+03  0.00000000000E+00 0. -1.
         11   -1    0    0    0    0 -0.00000000000E+00 -0.00000000000E+00 -0.18250000000E+03  0.18250000000E+03  0.00000000000E+00 0.  1.
        -11    1    1    2    0    0 -0.72822531609E+02  0.65064420440E+02  0.66178041378E+02  0.11796623702E+03  0.00000000000E+00 0. -1.
         11    1    1    2    0    0  0.84185499845E+01 -0.92797022039E+02 -0.12316510298E+03  0.15444028579E+03  0.00000000000E+00 0.  1.
        -15    1    1    2    0    0  0.58299813931E+02  0.28796624329E+02  0.56446636082E+02  0.86124876378E+02  0.17770000000E+01 0.  1.
         15    1    1    2    0    0  0.61041676930E+01 -0.10640227296E+01  0.54042552429E+00  0.64686008024E+01  0.17770000000E+01 0. -1.
</event>
<event>
 6    1  0.5145493E-006  0.1642976E+03  0.7546771E-02  0.1083944E+00
        -11   -1    0    0    0    0  0.00000000000E+00  0.00000000000E+00  0.18250000000E+03  0.18250000000E+03  0.00000000000E+00 0.  1.
         11   -1    0    0    0    0 -0.00000000000E+00 -0.00000000000E+00 -0.18250000000E+03  0.18250000000E+03  0.00000000000E+00 0. -1.
        -11    1    1    2    0    0  0.64187143314E+02  0.93706727466E+02  0.11275017982E+03  0.16004231687E+03  0.00000000000E+00 0.  1.
         11    1    1    2    0    0 -0.53718250771E+02 -0.12067182026E+03 -0.10682136966E+03  0.16987684859E+03  0.00000000000E+00 0. -1.
        -15    1    1    2    0    0  0.18940358300E+00  0.51579341748E+01  0.58856339468E+01  0.80273641144E+01  0.17770000000E+01 0.  1.
         15    1    1    2    0    0 -0.10658296125E+02  0.21807158620E+02 -0.11814444110E+02  0.27053470425E+02  0.17770000000E+01 0. -1.
</event>
<event>
 6    1  0.5145493E-006  0.1444891E+03  0.7546771E-02  0.1103519E+00
        -11   -1    0    0    0    0  0.00000000000E+00  0.00000000000E+00  0.18250000000E+03  0.18250000000E+03  0.00000000000E+00 0.  1.
         11   -1    0    0    0    0 -0.00000000000E+00 -0.00000000000E+00 -0.18250000000E+03  0.18250000000E+03  0.00000000000E+00 0.  1.
        -11    1    1    2    0    0 -0.51649011742E+02  0.36517007667E+01  0.44697543094E+02  0.68401942158E+02  0.00000000000E+00 0.  1.
         11    1    1    2    0    0  0.17959651282E+02 -0.32229704357E+02 -0.16444725171E+03  0.16853546070E+03  0.00000000000E+00 0.  1.
        -15    1    1    2    0    0  0.28462272095E+02  0.25243684963E+02  0.91967415193E+02  0.99541487580E+02  0.17770000000E+01 0. -1.
         15    1    1    2    0    0  0.52270883656E+01  0.33343186266E+01  0.27782293428E+02  0.28521109561E+02  0.17770000000E+01 0.  1.
</event>
<event>
 6    1  0.5145493E-006  0.1828304E+03  0.7546771E-02  0.1068192E+00
        -11   -1    0    0    0    0  0.00000000000E+00  0.00000000000E+00  0.18250000000E+03  0.18250000000E+03  0.00000000000E+00 0. -1.
         11   -1    0    0    0    0 -0.00000000000E+00 -0.00000000000E+00 -0.18250000000E+03  0.18250000000E+03  0.00000000000E+00 0.  1.
        -11    1    1    2    0    0 -0.13334188919E+02  0.12616855689E+02  0.10194084605E+03  0.10358050847E+03  0.00000000000E+00 0. -1.
         11    1    1    2    0    0  0.19842083514E+02 -0.14012063410E+02 -0.18054287454E+03  0.18216963453E+03  0.00000000000E+00 0.  1.
        -15    1    1    2    0    0 -0.48695607732E+01  0.14188286167E+01  0.72311296906E+02  0.72510737729E+02  0.17770000000E+01 0.  1.
         15    1    1    2    0    0 -0.16383338216E+01 -0.23620896018E-01  0.62907315806E+01  0.67391192656E+01  0.17770000000E+01 0.  1.
</event>
<event>
 6    1  0.6195714E-006  0.1929679E+03  0.7546771E-02  0.1060415E+00
        -11   -1    0    0    0    0  0.00000000000E+00  0.00000000000E+00  0.18250000000E+03  0.18250000000E+03  0.00000000000E+00 0.  1.
         11   -1    0    0    0    0 -0.00000000000E+00 -0.00000000000E+00 -0.18250000000E+03  0.18250000000E+03  0.00000000000E+00 0. -1.
        -11    1    1    2    0    0  0.84710714353E+02  0.56713721223E+02  0.13857377327E+03  0.17203209567E+03  0.00000000000E+00 0.  1.
         11    1    1    2    0    0 -0.77837704000E+02 -0.46236708513E+02 -0.56046887437E+02  0.10647908231E+03  0.00000000000E+00 0. -1.
        -15    1    1    2    0    0 -0.51440140234E+01  0.66186957437E+01 -0.25320142016E+02  0.26730793747E+02  0.17770000000E+01 0.  1.
         15    1    1    2    0    0 -0.17289963291E+01 -0.17095708453E+02 -0.57206743820E+02  0.59758028275E+02  0.17770000000E+01 0. -1.
</event>
<event>
 6    1  0.5145493E-006  0.1853173E+03  0.7546771E-02  0.1066234E+00
        -11   -1    0    0    0    0  0.00000000000E+00  0.00000000000E+00  0.18250000000E+03  0.18250000000E+03  0.00000000000E+00 0.  1.
         11   -1    0    0    0    0 -0.00000000000E+00 -0.00000000000E+00 -0.18250000000E+03  0.18250000000E+03  0.00000000000E+00 0. -1.
        -11    1    1    2    0    0 -0.50401344637E+02  0.47446029291E+02  0.14208507271E+03  0.15804932497E+03  0.00000000000E+00 0.  1.
         11    1    1    2    0    0  0.64466431735E+02 -0.40879112567E+02 -0.16266172612E+03  0.17968266418E+03  0.00000000000E+00 0. -1.
        -15    1    1    2    0    0  0.38414177357E+00 -0.55723896632E+00  0.10197031437E+01  0.21576847937E+01  0.17770000000E+01 0. -1.
         15    1    1    2    0    0 -0.14449228872E+02 -0.60096777577E+01  0.19556950261E+02  0.25110326048E+02  0.17770000000E+01 0. -1.
</event>
<event>
 6    1  0.5145493E-006  0.1846344E+03  0.7546771E-02  0.1066768E+00
        -11   -1    0    0    0    0  0.00000000000E+00  0.00000000000E+00  0.18250000000E+03  0.18250000000E+03  0.00000000000E+00 0.  1.
         11   -1    0    0    0    0 -0.00000000000E+00 -0.00000000000E+00 -0.18250000000E+03  0.18250000000E+03  0.00000000000E+00 0.  1.
        -11    1    1    2    0    0 -0.16385160666E+02 -0.29903676633E+02  0.10629636427E+03  0.11163162824E+03  0.00000000000E+00 0.  1.
         11    1    1    2    0    0  0.27748573144E+02  0.19610011859E+02 -0.17713614459E+03  0.18036559982E+03  0.00000000000E+00 0.  1.
        -15    1    1    2    0    0 -0.73179129318E+01  0.75156990634E+01  0.60412443372E+02  0.61342143957E+02  0.17770000000E+01 0.  1.
         15    1    1    2    0    0 -0.40454995461E+01  0.27779657105E+01  0.10427336951E+02  0.11660627983E+02  0.17770000000E+01 0. -1.
</event>
<event>
 6    1  0.5145493E-006  0.1932118E+03  0.7546771E-02  0.1060234E+00
        -11   -1    0    0    0    0  0.00000000000E+00  0.00000000000E+00  0.18250000000E+03  0.18250000000E+03  0.00000000000E+00 0.  1.
         11   -1    0    0    0    0 -0.00000000000E+00 -0.00000000000E+00 -0.18250000000E+03  0.18250000000E+03  0.00000000000E+00 0.  1.
        -11    1    1    2    0    0 -0.58673918913E+01  0.58570944214E+02  0.16138841088E+03  0.17178824453E+03  0.00000000000E+00 0.  1.
         11    1    1    2    0    0  0.33232435791E+02 -0.67370298738E+02 -0.11564784575E+03  0.13790422825E+03  0.00000000000E+00 0.  1.
        -15    1    1    2    0    0 -0.76314520509E+00 -0.27389158299E+00 -0.78952479667E+01  0.81332697397E+01  0.17770000000E+01 0.  1.
         15    1    1    2    0    0 -0.26601898695E+02  0.90732461076E+01 -0.37845317158E+02  0.47174257481E+02  0.17770000000E+01 0.  1.
</event>
<event>
 6    1  0.5145493E-006  0.1841212E+03  0.7546771E-02  0.1067172E+00
        -11   -1    0    0    0    0  0.00000000000E+00  0.00000000000E+00  0.18250000000E+03  0.18250000000E+03  0.00000000000E+00 0. -1.
         11   -1    0    0    0    0 -0.00000000000E+00 -0.00000000000E+00 -0.18250000000E+03  0.18250000000E+03  0.00000000000E+00 0. -1.
        -11    1    1    2    0    0 -0.60373261690E+02 -0.21029698365E+02  0.10694424787E+03  0.12459635264E+03  0.00000000000E+00 0. -1.
         11    1    1    2    0    0  0.72683043617E+02  0.26942031257E+02 -0.16342714720E+03  0.18087877244E+03  0.00000000000E+00 0. -1.
        -15    1    1    2    0    0 -0.21782813707E+01 -0.26863426092E+01  0.28542469745E+01  0.48234636036E+01  0.17770000000E+01 0.  1.
         15    1    1    2    0    0 -0.10131500557E+02 -0.32259902821E+01  0.53628652360E+02  0.54701411314E+02  0.17770000000E+01 0. -1.
</event>
<event>
 6    1  0.5145493E-006  0.1427007E+03  0.7546771E-02  0.1105455E+00
        -11   -1    0    0    0    0  0.00000000000E+00  0.00000000000E+00  0.18250000000E+03  0.18250000000E+03  0.00000000000E+00 0. -1.
         11   -1    0    0    0    0 -0.00000000000E+00 -0.00000000000E+00 -0.18250000000E+03  0.18250000000E+03  0.00000000000E+00 0.  1.
        -11    1    1    2    0    0 -0.10639491817E+03 -0.63719853314E+02  0.78781698218E+02  0.14692397453E+03  0.00000000000E+00 0. -1.
         11    1    1    2    0    0  0.67150075249E+01  0.79673410624E+02 -0.39748004041E+01  0.80054623382E+02  0.00000000000E+00 0.  1.
        -15    1    1    2    0    0  0.61997234383E+02 -0.70625005004E+01 -0.77091817373E+02  0.99195977838E+02  0.17770000000E+01 0.  1.
         15    1    1    2    0    0  0.37682676263E+02 -0.88910568102E+01  0.22849195593E+01  0.38825424246E+02  0.17770000000E+01 0. -1.
</event>
<event>
 6    1  0.5145493E-006  0.1621573E+03  0.7546771E-02  0.1085909E+00
        -11   -1    0    0    0    0  0.00000000000E+00  0.00000000000E+00  0.18250000000E+03  0.18250000000E+03  0.00000000000E+00 0.  1.
         11   -1    0    0    0    0 -0.00000000000E+00 -0.00000000000E+00 -0.18250000000E+03  0.18250000000E+03  0.00000000000E+00 0. -1.
        -11    1    1    2    0    0  0.47342831731E+02 -0.10980523765E+02  0.29779331355E+01  0.48690694226E+02  0.00000000000E+00 0.  1.
         11    1    1    2    0    0 -0.16502104894E+02  0.97936345033E+02 -0.11976395921E+03  0.15558680236E+03  0.00000000000E+00 0. -1.
        -15    1    1    2    0    0 -0.30420623821E+02 -0.33804679936E+02  0.90719214529E+02  0.10149534153E+03  0.17770000000E+01 0.  1.
         15    1    1    2    0    0 -0.42010301631E+00 -0.53151141332E+02  0.26066811540E+02  0.59227161879E+02  0.17770000000E+01 0. -1.
</event>
<event>
 6    1  0.5145493E-006  0.1828115E+03  0.7546771E-02  0.1068207E+00
        -11   -1    0    0    0    0  0.00000000000E+00  0.00000000000E+00  0.18250000000E+03  0.18250000000E+03  0.00000000000E+00 0.  1.
         11   -1    0    0    0    0 -0.00000000000E+00 -0.00000000000E+00 -0.18250000000E+03  0.18250000000E+03  0.00000000000E+00 0.  1.
        -11    1    1    2    0    0 -0.22451183368E+02 -0.16147800070E+02  0.18007727650E+03  0.18218845352E+03  0.00000000000E+00 0.  1.
         11    1    1    2    0    0  0.16103212303E+02  0.44351228044E+01 -0.10123749353E+03  0.10260611023E+03  0.00000000000E+00 0.  1.
        -15    1    1    2    0    0  0.54277812473E+01  0.47735423428E+01 -0.43977716123E+02  0.44603192264E+02  0.17770000000E+01 0. -1.
         15    1    1    2    0    0  0.92018981770E+00  0.69391349229E+01 -0.34862066854E+02  0.35602243990E+02  0.17770000000E+01 0.  1.
</event>
<event>
 6    1  0.5145493E-006  0.1887669E+03  0.7546771E-02  0.1063573E+00
        -11   -1    0    0    0    0  0.00000000000E+00  0.00000000000E+00  0.18250000000E+03  0.18250000000E+03  0.00000000000E+00 0.  1.
         11   -1    0    0    0    0 -0.00000000000E+00 -0.00000000000E+00 -0.18250000000E+03  0.18250000000E+03  0.00000000000E+00 0. -1.
        -11    1    1    2    0    0  0.79317080312E+02  0.68691683810E+02  0.14159228168E+03  0.17623314355E+03  0.00000000000E+00 0.  1.
         11    1    1    2    0    0 -0.84975548680E+02 -0.63030052270E+02 -0.99771827143E+02  0.14542368739E+03  0.00000000000E+00 0. -1.
        -15    1    1    2    0    0  0.37670047001E+01 -0.72174932865E+01 -0.29269702679E+02  0.30432807259E+02  0.17770000000E+01 0.  1.
         15    1    1    2    0    0  0.18914636680E+01  0.15558617467E+01 -0.12550751860E+02  0.12910361801E+02  0.17770000000E+01 0. -1.
</event>
<event>
 6    1  0.5145493E-006  0.1831713E+03  0.7546771E-02  0.1067922E+00
        -11   -1    0    0    0    0  0.00000000000E+00  0.00000000000E+00  0.18250000000E+03  0.18250000000E+03  0.00000000000E+00 0. -1.
         11   -1    0    0    0    0 -0.00000000000E+00 -0.00000000000E+00 -0.18250000000E+03  0.18250000000E+03  0.00000000000E+00 0.  1.
        -11    1    1    2    0    0 -0.10881943027E+02  0.74544100634E+01  0.11757577367E+03  0.11831334442E+03  0.00000000000E+00 0. -1.
         11    1    1    2    0    0  0.26517078749E+01 -0.97044812988E+01 -0.18155016412E+03  0.18182868476E+03  0.00000000000E+00 0.  1.
        -15    1    1    2    0    0  0.20025160610E+01 -0.15694340016E+01  0.16033995157E+02  0.16331562183E+02  0.17770000000E+01 0. -1.
         15    1    1    2    0    0  0.62277190915E+01  0.38195052369E+01  0.47940395290E+02  0.48526408634E+02  0.17770000000E+01 0. -1.
</event>
<event>
 6    1  0.5145493E-006  0.1885333E+03  0.7546771E-02  0.1063751E+00
        -11   -1    0    0    0    0  0.00000000000E+00  0.00000000000E+00  0.18250000000E+03  0.18250000000E+03  0.00000000000E+00 0. -1.
         11   -1    0    0    0    0 -0.00000000000E+00 -0.00000000000E+00 -0.18250000000E+03  0.18250000000E+03  0.00000000000E+00 0.  1.
        -11    1    1    2    0    0 -0.15747369892E+03  0.10333187876E+02  0.78966781364E+02  0.17646669142E+03  0.00000000000E+00 0. -1.
         11    1    1    2    0    0  0.14810629293E+03  0.55423218889E+01 -0.55797884693E+02  0.15836538534E+03  0.00000000000E+00 0.  1.
        -15    1    1    2    0    0  0.29797176133E+01 -0.77079751908E+01 -0.75320681002E+01  0.11321721488E+02  0.17770000000E+01 0. -1.
         15    1    1    2    0    0  0.63876883733E+01 -0.81675345736E+01 -0.15636828571E+02  0.18846201753E+02  0.17770000000E+01 0.  1.
</event>
<event>
 6    1  0.5145493E-006  0.1830855E+03  0.7546771E-02  0.1067990E+00
        -11   -1    0    0    0    0  0.00000000000E+00  0.00000000000E+00  0.18250000000E+03  0.18250000000E+03  0.00000000000E+00 0.  1.
         11   -1    0    0    0    0 -0.00000000000E+00 -0.00000000000E+00 -0.18250000000E+03  0.18250000000E+03  0.00000000000E+00 0.  1.
        -11    1    1    2    0    0 -0.50320394137E+02 -0.16581992498E+02  0.13252479952E+03  0.14272325329E+03  0.00000000000E+00 0.  1.
         11    1    1    2    0    0  0.59024297544E+02  0.17273205432E+02 -0.17120354918E+03  0.18191450349E+03  0.00000000000E+00 0.  1.
        -15    1    1    2    0    0 -0.85159158353E+01 -0.20177614033E+01  0.34388466340E+02  0.35529094131E+02  0.17770000000E+01 0.  1.
         15    1    1    2    0    0 -0.18798757216E+00  0.13265484694E+01  0.42902833229E+01  0.48331490935E+01  0.17770000000E+01 0.  1.
</event>
<event>
 6    1  0.5145493E-006  0.1888250E+03  0.7546771E-02  0.1063529E+00
        -11   -1    0    0    0    0  0.00000000000E+00  0.00000000000E+00  0.18250000000E+03  0.18250000000E+03  0.00000000000E+00 0. -1.
         11   -1    0    0    0    0 -0.00000000000E+00 -0.00000000000E+00 -0.18250000000E+03  0.18250000000E+03  0.00000000000E+00 0.  1.
        -11    1    1    2    0    0  0.83458449053E+02 -0.16066972036E+02  0.11605348531E+03  0.14384669535E+03  0.00000000000E+00 0. -1.
         11    1    1    2    0    0 -0.73779923684E+02  0.26618897884E+02 -0.15775161313E+03  0.17617495369E+03  0.00000000000E+00 0.  1.
        -15    1    1    2    0    0 -0.32465152908E+01  0.55040138587E-01  0.15521936586E+02  0.15957165642E+02  0.17770000000E+01 0.  1.
         15    1    1    2    0    0 -0.64320100783E+01 -0.10606965986E+02  0.26176191229E+02  0.29021185319E+02  0.17770000000E+01 0. -1.
</event>
<event>
 6    1  0.5145493E-006  0.1920322E+03  0.7546771E-02  0.1061111E+00
        -11   -1    0    0    0    0  0.00000000000E+00  0.00000000000E+00  0.18250000000E+03  0.18250000000E+03  0.00000000000E+00 0.  1.
         11   -1    0    0    0    0 -0.00000000000E+00 -0.00000000000E+00 -0.18250000000E+03  0.18250000000E+03  0.00000000000E+00 0.  1.
        -11    1    1    2    0    0 -0.25633816957E+02 -0.57739169193E+01  0.13589543681E+03  0.13841242876E+03  0.00000000000E+00 0.  1.
         11    1    1    2    0    0  0.43438649004E+02 -0.30164375381E+01 -0.16739724014E+03  0.17296777483E+03  0.00000000000E+00 0.  1.
        -15    1    1    2    0    0 -0.16497386313E+02 -0.25022610995E+01 -0.31800686006E+01  0.17079099247E+02  0.17770000000E+01 0.  1.
         15    1    1    2    0    0 -0.13074457336E+01  0.11292615557E+02  0.34681871925E+02  0.36540697170E+02  0.17770000000E+01 0. -1.
</event>
<event>
 6    1  0.5683099E-006  0.1848631E+03  0.7546771E-02  0.1066589E+00
        -11   -1    0    0    0    0  0.00000000000E+00  0.00000000000E+00  0.18250000000E+03  0.18250000000E+03  0.00000000000E+00 0.  1.
         11   -1    0    0    0    0 -0.00000000000E+00 -0.00000000000E+00 -0.18250000000E+03  0.18250000000E+03  0.00000000000E+00 0. -1.
        -11    1    1    2    0    0 -0.56885429857E+02  0.24715349790E+02  0.16912269456E+03  0.18013685481E+03  0.00000000000E+00 0.  1.
         11    1    1    2    0    0  0.53642312211E+02 -0.25173364313E+02 -0.10737605881E+03  0.12264099614E+03  0.00000000000E+00 0. -1.
        -15    1    1    2    0    0 -0.57542407368E+00  0.23916973093E+01 -0.22997800065E+02  0.23197152104E+02  0.17770000000E+01 0. -1.
         15    1    1    2    0    0  0.38185417198E+01 -0.19336827864E+01 -0.38748835691E+02  0.39024996943E+02  0.17770000000E+01 0. -1.
</event>
<event>
 6    1  0.5145493E-006  0.1868902E+03  0.7546771E-02  0.1065013E+00
        -11   -1    0    0    0    0  0.00000000000E+00  0.00000000000E+00  0.18250000000E+03  0.18250000000E+03  0.00000000000E+00 0.  1.
         11   -1    0    0    0    0 -0.00000000000E+00 -0.00000000000E+00 -0.18250000000E+03  0.18250000000E+03  0.00000000000E+00 0. -1.
        -11    1    1    2    0    0 -0.28340613744E+02  0.43516118132E+02  0.17037098909E+03  0.17810984489E+03  0.00000000000E+00 0.  1.
         11    1    1    2    0    0  0.40677352229E+02 -0.33315045111E+02 -0.92886331444E+02  0.10673523216E+03  0.00000000000E+00 0. -1.
        -15    1    1    2    0    0 -0.14115146766E+02 -0.65980631127E+01 -0.52697384422E+02  0.54981304632E+02  0.17770000000E+01 0. -1.
         15    1    1    2    0    0  0.17784082812E+01 -0.36030099083E+01 -0.24787273221E+02  0.25173618316E+02  0.17770000000E+01 0.  1.
</event>
<event>
 6    1  0.5145493E-006  0.1847068E+03  0.7546771E-02  0.1066712E+00
        -11   -1    0    0    0    0  0.00000000000E+00  0.00000000000E+00  0.18250000000E+03  0.18250000000E+03  0.00000000000E+00 0. -1.
         11   -1    0    0    0    0 -0.00000000000E+00 -0.00000000000E+00 -0.18250000000E+03  0.18250000000E+03  0.00000000000E+00 0. -1.
        -11    1    1    2    0    0  0.10659528022E+03  0.14340542364E+02  0.11293598711E+03  0.15595750096E+03  0.00000000000E+00 0. -1.
         11    1    1    2    0    0 -0.11753921115E+03 -0.90905468895E+01 -0.13640946999E+03  0.18029322700E+03  0.00000000000E+00 0. -1.
        -15    1    1    2    0    0  0.24511356866E+00  0.19891046167E+01  0.11897738751E+01  0.29308546043E+01  0.17770000000E+01 0. -1.
         15    1    1    2    0    0  0.10698817356E+02 -0.72391000911E+01  0.22283709002E+02  0.25818417434E+02  0.17770000000E+01 0. -1.
</event>
<event>
 6    1  0.7282283E-006  0.1881853E+03  0.7546771E-02  0.1064017E+00
        -11   -1    0    0    0    0  0.00000000000E+00  0.00000000000E+00  0.18250000000E+03  0.18250000000E+03  0.00000000000E+00 0. -1.
         11   -1    0    0    0    0 -0.00000000000E+00 -0.00000000000E+00 -0.18250000000E+03  0.18250000000E+03  0.00000000000E+00 0. -1.
        -11    1    1    2    0    0 -0.90794152544E+02  0.53469710792E+02  0.14198889065E+03  0.17681468598E+03  0.00000000000E+00 0. -1.
         11    1    1    2    0    0  0.91156827057E+02 -0.46966866997E+02 -0.94954293080E+02  0.13975611432E+03  0.00000000000E+00 0. -1.
        -15    1    1    2    0    0 -0.44685105970E+01 -0.45664325008E+01 -0.25310936069E+02  0.26165265266E+02  0.17770000000E+01 0.  1.
         15    1    1    2    0    0  0.41058360839E+01 -0.19364112935E+01 -0.21723661503E+02  0.22263934440E+02  0.17770000000E+01 0. -1.
</event>
<event>
 6    1  0.5145493E-006  0.1657285E+03  0.7546771E-02  0.1082649E+00
        -11   -1    0    0    0    0  0.00000000000E+00  0.00000000000E+00  0.18250000000E+03  0.18250000000E+03  0.00000000000E+00 0.  1.
         11   -1    0    0    0    0 -0.00000000000E+00 -0.00000000000E+00 -0.18250000000E+03  0.18250000000E+03  0.00000000000E+00 0.  1.
        -11    1    1    2    0    0 -0.81091124065E+01 -0.31470561792E+02  0.14308967882E+01  0.32530008134E+02  0.00000000000E+00 0.  1.
         11    1    1    2    0    0  0.49203027179E+02  0.72772974052E+02 -0.14913518465E+03  0.17308421920E+03  0.00000000000E+00 0.  1.
        -15    1    1    2    0    0 -0.11659882777E+01 -0.48848330668E+01  0.82993624610E+01  0.98619607083E+01  0.17770000000E+01 0.  1.
         15    1    1    2    0    0 -0.39927926495E+02 -0.36417579193E+02  0.13940492540E+03  0.14952381196E+03  0.17770000000E+01 0.  1.
</event>
<event>
 6    1  0.5145493E-006  0.1590138E+03  0.7546771E-02  0.1088857E+00
        -11   -1    0    0    0    0  0.00000000000E+00  0.00000000000E+00  0.18250000000E+03  0.18250000000E+03  0.00000000000E+00 0. -1.
         11   -1    0    0    0    0 -0.00000000000E+00 -0.00000000000E+00 -0.18250000000E+03  0.18250000000E+03  0.00000000000E+00 0. -1.
        -11    1    1    2    0    0 -0.62680222422E+02 -0.11845586732E+03  0.94402402254E+02  0.16392808282E+03  0.00000000000E+00 0. -1.
         11    1    1    2    0    0  0.70274946956E+02  0.89307274410E+02 -0.10650990045E+03  0.15575209895E+03  0.00000000000E+00 0. -1.
        -15    1    1    2    0    0  0.83394948553E+00 -0.65539874973E+01  0.78177694063E+00  0.68861548083E+01  0.17770000000E+01 0. -1.
         15    1    1    2    0    0 -0.84286740199E+01  0.35702580404E+02  0.11325721260E+02  0.38433663425E+02  0.17770000000E+01 0.  1.
</event>
