<event>
 6    1  0.9144256E-004  0.5006985E+03  0.7546771E-02  0.9398248E-01
        -11   -1    0    0    0    0  0.00000000000E+00  0.00000000000E+00  0.50000000000E+03  0.50000000000E+03  0.00000000000E+00 0. -1.
         11   -1    0    0    0    0 -0.00000000000E+00 -0.00000000000E+00 -0.50000000000E+03  0.50000000000E+03  0.00000000000E+00 0.  1.
        -11    1    1    2    0    0 -0.33584162904E+02  0.15890825255E+02  0.26142421039E+03  0.26405119221E+03  0.00000000000E+00 0. -1.
         11    1    1    2    0    0  0.36377588946E+02 -0.13550197401E+02 -0.49779014812E+03  0.49930148047E+03  0.00000000000E+00 0.  1.
        -15    1    1    2    0    0  0.19565675110E+01 -0.34672414786E+01  0.17723393139E+03  0.17728754633E+03  0.17770000000E+01 0.  1.
         15    1    1    2    0    0 -0.47499935525E+01  0.11266136248E+01  0.59132006342E+02  0.59359780997E+02  0.17770000000E+01 0.  1.
</event>
<event>
 6    1  0.9144256E-004  0.5049041E+03  0.7546771E-02  0.9388903E-01
        -11   -1    0    0    0    0  0.00000000000E+00  0.00000000000E+00  0.50000000000E+03  0.50000000000E+03  0.00000000000E+00 0. -1.
         11   -1    0    0    0    0 -0.00000000000E+00 -0.00000000000E+00 -0.50000000000E+03  0.50000000000E+03  0.00000000000E+00 0.  1.
        -11    1    1    2    0    0 -0.11355437617E+02 -0.83952534259E+01  0.49489443062E+03  0.49509587324E+03  0.00000000000E+00 0. -1.
         11    1    1    2    0    0 -0.16379192323E+01 -0.65116576387E+01 -0.47597114044E+03  0.47601849859E+03  0.00000000000E+00 0.  1.
        -15    1    1    2    0    0  0.27373692951E+01  0.11882985743E+01 -0.24700992039E+00  0.34819516165E+01  0.17770000000E+01 0. -1.
         15    1    1    2    0    0  0.10255987555E+02  0.13718612490E+02 -0.18676280255E+02  0.25403676555E+02  0.17770000000E+01 0.  1.
</event>
<event>
 6    1  0.9144256E-004  0.4856113E+03  0.7546771E-02  0.9432594E-01
        -11   -1    0    0    0    0  0.00000000000E+00  0.00000000000E+00  0.50000000000E+03  0.50000000000E+03  0.00000000000E+00 0. -1.
         11   -1    0    0    0    0 -0.00000000000E+00 -0.00000000000E+00 -0.50000000000E+03  0.50000000000E+03  0.00000000000E+00 0. -1.
        -11    1    1    2    0    0  0.99915294283E+01  0.26665213295E+01  0.48611905109E+03  0.48622903331E+03  0.00000000000E+00 0. -1.
         11    1    1    2    0    0  0.13387558350E+02 -0.29256339129E+01 -0.48508198244E+03  0.48527550498E+03  0.00000000000E+00 0. -1.
        -15    1    1    2    0    0 -0.75793735423E+01  0.76520806664E+01 -0.99569127186E+00  0.10961312509E+02  0.17770000000E+01 0. -1.
         15    1    1    2    0    0 -0.15799714236E+02 -0.73929680830E+01 -0.41377386386E-01  0.17534149198E+02  0.17770000000E+01 0.  1.
</event>
<event>
 6    1  0.9144256E-004  0.5042599E+03  0.7546771E-02  0.9390328E-01
        -11   -1    0    0    0    0  0.00000000000E+00  0.00000000000E+00  0.50000000000E+03  0.50000000000E+03  0.00000000000E+00 0. -1.
         11   -1    0    0    0    0 -0.00000000000E+00 -0.00000000000E+00 -0.50000000000E+03  0.50000000000E+03  0.00000000000E+00 0. -1.
        -11    1    1    2    0    0  0.72419531364E+01 -0.48408931221E+01  0.49566353222E+03  0.49574007031E+03  0.00000000000E+00 0. -1.
         11    1    1    2    0    0 -0.19544230729E+01 -0.75441706494E+01 -0.47923501349E+03  0.47929837516E+03  0.00000000000E+00 0. -1.
        -15    1    1    2    0    0 -0.67395445633E+00  0.13284374124E+02 -0.96751009380E+01  0.16543703262E+02  0.17770000000E+01 0.  1.
         15    1    1    2    0    0 -0.46135756072E+01 -0.89931035254E+00 -0.67534177983E+01  0.84178512669E+01  0.17770000000E+01 0. -1.
</event>
<event>
 6    1  0.9144256E-004  0.5002683E+03  0.7546771E-02  0.9399210E-01
        -11   -1    0    0    0    0  0.00000000000E+00  0.00000000000E+00  0.50000000000E+03  0.50000000000E+03  0.00000000000E+00 0. -1.
         11   -1    0    0    0    0 -0.00000000000E+00 -0.00000000000E+00 -0.50000000000E+03  0.50000000000E+03  0.00000000000E+00 0.  1.
        -11    1    1    2    0    0  0.25702333973E+02 -0.18056780541E+02  0.49874354176E+03  0.49973170576E+03  0.00000000000E+00 0. -1.
         11    1    1    2    0    0 -0.98562030105E+01  0.13133836023E+02 -0.12662038701E+03  0.12768071425E+03  0.00000000000E+00 0.  1.
        -15    1    1    2    0    0 -0.52608935303E+01  0.55013065450E+01 -0.16753763608E+03  0.16771988137E+03  0.17770000000E+01 0. -1.
         15    1    1    2    0    0 -0.10585237433E+02 -0.57836202754E+00 -0.20458551868E+03  0.20486769862E+03  0.17770000000E+01 0. -1.
</event>
<event>
 6    1  0.9144256E-004  0.5009835E+03  0.7546771E-02  0.9397612E-01
        -11   -1    0    0    0    0  0.00000000000E+00  0.00000000000E+00  0.50000000000E+03  0.50000000000E+03  0.00000000000E+00 0. -1.
         11   -1    0    0    0    0 -0.00000000000E+00 -0.00000000000E+00 -0.50000000000E+03  0.50000000000E+03  0.00000000000E+00 0.  1.
        -11    1    1    2    0    0  0.25690702546E+01  0.14428180616E+02  0.82423205376E+02  0.83715932189E+02  0.00000000000E+00 0. -1.
         11    1    1    2    0    0 -0.10901854779E+02 -0.57450641311E+01 -0.49886430738E+03  0.49901648608E+03  0.00000000000E+00 0.  1.
        -15    1    1    2    0    0 -0.27792638099E+01 -0.41496376291E+01  0.32283814270E+03  0.32288166239E+03  0.17770000000E+01 0. -1.
         15    1    1    2    0    0  0.11112048334E+02 -0.45334788558E+01  0.93602959308E+02  0.94385919336E+02  0.17770000000E+01 0.  1.
</event>
<event>
 6    1  0.9144256E-004  0.5025681E+03  0.7546771E-02  0.9394082E-01
        -11   -1    0    0    0    0  0.00000000000E+00  0.00000000000E+00  0.50000000000E+03  0.50000000000E+03  0.00000000000E+00 0.  1.
         11   -1    0    0    0    0 -0.00000000000E+00 -0.00000000000E+00 -0.50000000000E+03  0.50000000000E+03  0.00000000000E+00 0.  1.
        -11    1    1    2    0    0  0.18180479437E+00 -0.13680142660E+02  0.14532060555E+02  0.19958961400E+02  0.00000000000E+00 0.  1.
         11    1    1    2    0    0 -0.12066382871E+02  0.18336077343E+02 -0.49694734709E+03  0.49743187986E+03  0.00000000000E+00 0.  1.
        -15    1    1    2    0    0  0.74184344361E+01 -0.43712044364E+01  0.33448069219E+03  0.33459622200E+03  0.17770000000E+01 0.  1.
         15    1    1    2    0    0  0.44661436409E+01 -0.28473024639E+00  0.14793459434E+03  0.14801293674E+03  0.17770000000E+01 0. -1.
</event>
<event>
 6    1  0.9144256E-004  0.5014618E+03  0.7546771E-02  0.9396545E-01
        -11   -1    0    0    0    0  0.00000000000E+00  0.00000000000E+00  0.50000000000E+03  0.50000000000E+03  0.00000000000E+00 0. -1.
         11   -1    0    0    0    0 -0.00000000000E+00 -0.00000000000E+00 -0.50000000000E+03  0.50000000000E+03  0.00000000000E+00 0. -1.
        -11    1    1    2    0    0  0.11224008013E+02  0.37095430094E+01  0.49839804656E+03  0.49853821506E+03  0.00000000000E+00 0. -1.
         11    1    1    2    0    0  0.79710540321E+01 -0.88591367124E+01 -0.40817498761E+03  0.40834892251E+03  0.00000000000E+00 0. -1.
        -15    1    1    2    0    0 -0.15837465125E+02 -0.74108137214E+00 -0.59662734395E+02  0.61759000216E+02  0.17770000000E+01 0.  1.
         15    1    1    2    0    0 -0.33575969203E+01  0.58906750751E+01 -0.30560324553E+02  0.31353862214E+02  0.17770000000E+01 0. -1.
</event>
<event>
 6    1  0.9144256E-004  0.5001784E+03  0.7546771E-02  0.9399411E-01
        -11   -1    0    0    0    0  0.00000000000E+00  0.00000000000E+00  0.50000000000E+03  0.50000000000E+03  0.00000000000E+00 0. -1.
         11   -1    0    0    0    0 -0.00000000000E+00 -0.00000000000E+00 -0.50000000000E+03  0.50000000000E+03  0.00000000000E+00 0.  1.
        -11    1    1    2    0    0 -0.59235123856E+01 -0.49407007016E+00  0.10155056521E+03  0.10172437957E+03  0.00000000000E+00 0. -1.
         11    1    1    2    0    0 -0.98071011501E+00  0.75370021713E+01 -0.49976384113E+03  0.49982163328E+03  0.00000000000E+00 0.  1.
        -15    1    1    2    0    0  0.49041787523E+01 -0.59408491849E+01  0.37156172260E+03  0.37164582076E+03  0.17770000000E+01 0. -1.
         15    1    1    2    0    0  0.20000437483E+01 -0.11020829162E+01  0.26651553322E+02  0.26808166390E+02  0.17770000000E+01 0. -1.
</event>
<event>
 6    1  0.9144256E-004  0.5008213E+03  0.7546771E-02  0.9397974E-01
        -11   -1    0    0    0    0  0.00000000000E+00  0.00000000000E+00  0.50000000000E+03  0.50000000000E+03  0.00000000000E+00 0. -1.
         11   -1    0    0    0    0 -0.00000000000E+00 -0.00000000000E+00 -0.50000000000E+03  0.50000000000E+03  0.00000000000E+00 0.  1.
        -11    1    1    2    0    0 -0.86745972699E+00  0.14291149937E+02  0.49897330730E+03  0.49917867628E+03  0.00000000000E+00 0. -1.
         11    1    1    2    0    0  0.57780430440E+01 -0.30317450650E+01 -0.44688628891E+03  0.44693392406E+03  0.00000000000E+00 0.  1.
        -15    1    1    2    0    0 -0.41510733384E+01 -0.10631969404E+02 -0.47240346269E+02  0.48632069952E+02  0.17770000000E+01 0. -1.
         15    1    1    2    0    0 -0.75950997866E+00 -0.62743546777E+00 -0.48466721257E+01  0.52553297107E+01  0.17770000000E+01 0. -1.
</event>
<event>
 6    1  0.9144256E-004  0.4885301E+03  0.7546771E-02  0.9425847E-01
        -11   -1    0    0    0    0  0.00000000000E+00  0.00000000000E+00  0.50000000000E+03  0.50000000000E+03  0.00000000000E+00 0. -1.
         11   -1    0    0    0    0 -0.00000000000E+00 -0.00000000000E+00 -0.50000000000E+03  0.50000000000E+03  0.00000000000E+00 0. -1.
        -11    1    1    2    0    0 -0.11488919008E+02  0.44049998385E+01  0.48301861808E+03  0.48317531466E+03  0.00000000000E+00 0. -1.
         11    1    1    2    0    0 -0.70581909673E+01 -0.62662764097E+01 -0.49403458350E+03  0.49412473523E+03  0.00000000000E+00 0. -1.
        -15    1    1    2    0    0  0.14594695460E+02 -0.80352766355E+00  0.87758629356E+01  0.17141303671E+02  0.17770000000E+01 0. -1.
         15    1    1    2    0    0  0.39524145153E+01  0.26648042347E+01  0.22401024835E+01  0.55586464402E+01  0.17770000000E+01 0.  1.
</event>
<event>
 6    1  0.9144256E-004  0.5019131E+03  0.7546771E-02  0.9395539E-01
        -11   -1    0    0    0    0  0.00000000000E+00  0.00000000000E+00  0.50000000000E+03  0.50000000000E+03  0.00000000000E+00 0.  1.
         11   -1    0    0    0    0 -0.00000000000E+00 -0.00000000000E+00 -0.50000000000E+03  0.50000000000E+03  0.00000000000E+00 0.  1.
        -11    1    1    2    0    0  0.53608132350E+01  0.29062051476E+02  0.34185713052E+03  0.34313210115E+03  0.00000000000E+00 0.  1.
         11    1    1    2    0    0 -0.14229491803E+02 -0.87285026403E+01 -0.49780705377E+03  0.49808686790E+03  0.00000000000E+00 0.  1.
        -15    1    1    2    0    0  0.56865687005E+01 -0.25499184715E+01  0.94079303427E+02  0.94302238628E+02  0.17770000000E+01 0. -1.
         15    1    1    2    0    0  0.31821098677E+01 -0.17783630365E+02  0.61870619824E+02  0.64478792316E+02  0.17770000000E+01 0.  1.
</event>
<event>
 6    1  0.9144256E-004  0.5012570E+03  0.7546771E-02  0.9397001E-01
        -11   -1    0    0    0    0  0.00000000000E+00  0.00000000000E+00  0.50000000000E+03  0.50000000000E+03  0.00000000000E+00 0.  1.
         11   -1    0    0    0    0 -0.00000000000E+00 -0.00000000000E+00 -0.50000000000E+03  0.50000000000E+03  0.00000000000E+00 0.  1.
        -11    1    1    2    0    0  0.26721644632E+01  0.21206079791E+02  0.35967145860E+03  0.36030597610E+03  0.00000000000E+00 0.  1.
         11    1    1    2    0    0  0.58588497696E+01 -0.10938628164E+02 -0.49858858827E+03  0.49874297996E+03  0.00000000000E+00 0.  1.
        -15    1    1    2    0    0  0.56681429666E+00  0.20059633630E+01  0.80390457988E+02  0.80437109794E+02  0.17770000000E+01 0.  1.
         15    1    1    2    0    0 -0.90978285294E+01 -0.12273414989E+02  0.58526671678E+02  0.60513934149E+02  0.17770000000E+01 0. -1.
</event>
<event>
 6    1  0.9144256E-004  0.5051783E+03  0.7546771E-02  0.9388297E-01
        -11   -1    0    0    0    0  0.00000000000E+00  0.00000000000E+00  0.50000000000E+03  0.50000000000E+03  0.00000000000E+00 0.  1.
         11   -1    0    0    0    0 -0.00000000000E+00 -0.00000000000E+00 -0.50000000000E+03  0.50000000000E+03  0.00000000000E+00 0. -1.
        -11    1    1    2    0    0  0.58019860251E+01 -0.86726878527E+01  0.49471168536E+03  0.49482171556E+03  0.00000000000E+00 0.  1.
         11    1    1    2    0    0 -0.61998187184E+01  0.63826418134E+01 -0.49117486501E+03  0.49125545685E+03  0.00000000000E+00 0. -1.
        -15    1    1    2    0    0  0.38891587795E+01 -0.34591657946E+01 -0.42199475715E+01  0.69323207162E+01  0.17770000000E+01 0. -1.
         15    1    1    2    0    0 -0.34913260862E+01  0.57492118338E+01  0.68312722226E+00  0.69905068738E+01  0.17770000000E+01 0.  1.
</event>
<event>
 6    1  0.9144256E-004  0.5021869E+03  0.7546771E-02  0.9394930E-01
        -11   -1    0    0    0    0  0.00000000000E+00  0.00000000000E+00  0.50000000000E+03  0.50000000000E+03  0.00000000000E+00 0. -1.
         11   -1    0    0    0    0 -0.00000000000E+00 -0.00000000000E+00 -0.50000000000E+03  0.50000000000E+03  0.00000000000E+00 0.  1.
        -11    1    1    2    0    0 -0.59650152158E+01 -0.45296742163E+01  0.45254090772E+03  0.45260288611E+03  0.00000000000E+00 0. -1.
         11    1    1    2    0    0 -0.42297188789E+01 -0.97685472152E+01 -0.49769930029E+03  0.49781312613E+03  0.00000000000E+00 0.  1.
        -15    1    1    2    0    0  0.49307865265E+01  0.14994998410E+01  0.20900022500E+02  0.21599301494E+02  0.17770000000E+01 0.  1.
         15    1    1    2    0    0  0.52639475682E+01  0.12798721590E+02  0.24258370067E+02  0.27984686270E+02  0.17770000000E+01 0. -1.
</event>
<event>
 6    1  0.9144256E-004  0.5013804E+03  0.7546771E-02  0.9396726E-01
        -11   -1    0    0    0    0  0.00000000000E+00  0.00000000000E+00  0.50000000000E+03  0.50000000000E+03  0.00000000000E+00 0.  1.
         11   -1    0    0    0    0 -0.00000000000E+00 -0.00000000000E+00 -0.50000000000E+03  0.50000000000E+03  0.00000000000E+00 0.  1.
        -11    1    1    2    0    0  0.64122621897E+02  0.72167180096E+01  0.49442666599E+03  0.49861961423E+03  0.00000000000E+00 0.  1.
         11    1    1    2    0    0  0.56131471177E+01  0.35194698621E+01 -0.76386137012E+02  0.76672915794E+02  0.00000000000E+00 0.  1.
        -15    1    1    2    0    0 -0.12145698790E+02 -0.99386528576E+01 -0.59239930413E+02  0.61309231801E+02  0.17770000000E+01 0. -1.
         15    1    1    2    0    0 -0.57590070225E+02 -0.79753501416E+00 -0.35880059856E+03  0.36339823817E+03  0.17770000000E+01 0.  1.
</event>
<event>
 6    1  0.9144256E-004  0.4617035E+03  0.7546771E-02  0.9489830E-01
        -11   -1    0    0    0    0  0.00000000000E+00  0.00000000000E+00  0.50000000000E+03  0.50000000000E+03  0.00000000000E+00 0.  1.
         11   -1    0    0    0    0 -0.00000000000E+00 -0.00000000000E+00 -0.50000000000E+03  0.50000000000E+03  0.00000000000E+00 0.  1.
        -11    1    1    2    0    0  0.67968259174E+02  0.18758039699E+02  0.45243045624E+03  0.45789176236E+03  0.00000000000E+00 0.  1.
         11    1    1    2    0    0 -0.31531398646E+02 -0.10938756187E+02 -0.46515885435E+03  0.46635463466E+03  0.00000000000E+00 0.  1.
        -15    1    1    2    0    0 -0.54454691425E+02 -0.75319125899E+01  0.16153831763E+02  0.57324925949E+02  0.17770000000E+01 0. -1.
         15    1    1    2    0    0  0.18017830897E+02 -0.28737092241E+00 -0.34254336464E+01  0.18428677027E+02  0.17770000000E+01 0.  1.
</event>
<event>
 6    1  0.9144256E-004  0.5003206E+03  0.7546771E-02  0.9399093E-01
        -11   -1    0    0    0    0  0.00000000000E+00  0.00000000000E+00  0.50000000000E+03  0.50000000000E+03  0.00000000000E+00 0. -1.
         11   -1    0    0    0    0 -0.00000000000E+00 -0.00000000000E+00 -0.50000000000E+03  0.50000000000E+03  0.00000000000E+00 0.  1.
        -11    1    1    2    0    0 -0.95555434494E+01  0.29744368100E+01  0.33401557742E+03  0.33416547045E+03  0.00000000000E+00 0. -1.
         11    1    1    2    0    0  0.29021197965E+01  0.65671237184E+01 -0.49962781145E+03  0.49967939661E+03  0.00000000000E+00 0.  1.
        -15    1    1    2    0    0 -0.57890525341E+00 -0.11238501296E+01  0.26328402284E+02  0.26418566695E+02  0.17770000000E+01 0.  1.
         15    1    1    2    0    0  0.72323289063E+01 -0.84177103987E+01  0.13928383175E+03  0.13973656625E+03  0.17770000000E+01 0. -1.
</event>
<event>
 6    1  0.9144256E-004  0.5017371E+03  0.7546771E-02  0.9395931E-01
        -11   -1    0    0    0    0  0.00000000000E+00  0.00000000000E+00  0.50000000000E+03  0.50000000000E+03  0.00000000000E+00 0. -1.
         11   -1    0    0    0    0 -0.00000000000E+00 -0.00000000000E+00 -0.50000000000E+03  0.50000000000E+03  0.00000000000E+00 0. -1.
        -11    1    1    2    0    0 -0.15601283443E+02  0.15346388966E+02  0.23315491465E+03  0.23417968726E+03  0.00000000000E+00 0. -1.
         11    1    1    2    0    0 -0.25280012584E+01  0.68605477977E+01 -0.49820920363E+03  0.49826285080E+03  0.00000000000E+00 0. -1.
        -15    1    1    2    0    0  0.17519037133E+02 -0.24486424248E+02  0.25967312375E+03  0.26141880300E+03  0.17770000000E+01 0. -1.
         15    1    1    2    0    0  0.61024756881E+00  0.22794874837E+01  0.53811652355E+01  0.61386589395E+01  0.17770000000E+01 0. -1.
</event>
<event>
 6    1  0.9144256E-004  0.4791545E+03  0.7546771E-02  0.9447700E-01
        -11   -1    0    0    0    0  0.00000000000E+00  0.00000000000E+00  0.50000000000E+03  0.50000000000E+03  0.00000000000E+00 0. -1.
         11   -1    0    0    0    0 -0.00000000000E+00 -0.00000000000E+00 -0.50000000000E+03  0.50000000000E+03  0.00000000000E+00 0.  1.
        -11    1    1    2    0    0  0.16314509839E+02 -0.88903241666E+01  0.48504198635E+03  0.48539770253E+03  0.00000000000E+00 0. -1.
         11    1    1    2    0    0 -0.23816892845E+01 -0.60882600455E+01 -0.47315817336E+03  0.47320333513E+03  0.00000000000E+00 0.  1.
        -15    1    1    2    0    0  0.24652376240E+01  0.16083431320E+02 -0.17479356873E+02  0.23946603209E+02  0.17770000000E+01 0.  1.
         15    1    1    2    0    0 -0.16398058179E+02 -0.11048471074E+01  0.55955438857E+01  0.17452359140E+02  0.17770000000E+01 0. -1.
</event>
<event>
 6    1  0.9144256E-004  0.5170947E+03  0.7546771E-02  0.9362351E-01
        -11   -1    0    0    0    0  0.00000000000E+00  0.00000000000E+00  0.50000000000E+03  0.50000000000E+03  0.00000000000E+00 0. -1.
         11   -1    0    0    0    0 -0.00000000000E+00 -0.00000000000E+00 -0.50000000000E+03  0.50000000000E+03  0.00000000000E+00 0.  1.
        -11    1    1    2    0    0 -0.11183464006E+02  0.19993628723E+02  0.48236160170E+03  0.48290530112E+03  0.00000000000E+00 0. -1.
         11    1    1    2    0    0 -0.21774953746E+02  0.11993505034E+02 -0.43065772315E+03  0.43137462522E+03  0.00000000000E+00 0.  1.
        -15    1    1    2    0    0  0.40818423022E+02 -0.31681732866E+02 -0.24249390406E+02  0.57105748568E+02  0.17770000000E+01 0. -1.
         15    1    1    2    0    0 -0.78600052696E+01 -0.30540089032E+00 -0.27454488139E+02  0.28614325093E+02  0.17770000000E+01 0.  1.
</event>
<event>
 6    1  0.1528825E-003  0.5000434E+03  0.7546771E-02  0.9399713E-01
        -11   -1    0    0    0    0  0.00000000000E+00  0.00000000000E+00  0.50000000000E+03  0.50000000000E+03  0.00000000000E+00 0.  1.
         11   -1    0    0    0    0 -0.00000000000E+00 -0.00000000000E+00 -0.50000000000E+03  0.50000000000E+03  0.00000000000E+00 0.  1.
        -11    1    1    2    0    0 -0.14350010328E+01 -0.12992437656E+02  0.49978564916E+03  0.49995655588E+03  0.00000000000E+00 0.  1.
         11    1    1    2    0    0  0.45562591356E+00  0.28253090546E+01 -0.19922859242E+03  0.19924914556E+03  0.00000000000E+00 0.  1.
        -15    1    1    2    0    0  0.13243392724E+01  0.27013330867E+01 -0.51282614801E+02  0.51401511503E+02  0.17770000000E+01 0.  1.
         15    1    1    2    0    0 -0.34496415315E+00  0.74657955151E+01 -0.24927444194E+03  0.24939278706E+03  0.17770000000E+01 0. -1.
</event>
<event>
 6    1  0.9144256E-004  0.5123498E+03  0.7546771E-02  0.9372592E-01
        -11   -1    0    0    0    0  0.00000000000E+00  0.00000000000E+00  0.50000000000E+03  0.50000000000E+03  0.00000000000E+00 0. -1.
         11   -1    0    0    0    0 -0.00000000000E+00 -0.00000000000E+00 -0.50000000000E+03  0.50000000000E+03  0.00000000000E+00 0. -1.
        -11    1    1    2    0    0 -0.41543879883E+02 -0.63518232581E+02  0.21851986621E+03  0.23132529424E+03  0.00000000000E+00 0. -1.
         11    1    1    2    0    0 -0.43272534542E+00  0.19831619241E+02 -0.48724663675E+03  0.48765024905E+03  0.00000000000E+00 0. -1.
        -15    1    1    2    0    0  0.99403902990E+01 -0.11150483358E+02  0.25221032857E+02  0.29366696542E+02  0.17770000000E+01 0.  1.
         15    1    1    2    0    0  0.32036214929E+02  0.54837096698E+02  0.24350573768E+03  0.25165776017E+03  0.17770000000E+01 0. -1.
</event>
<event>
 6    1  0.9144256E-004  0.5558403E+03  0.7546771E-02  0.9282861E-01
        -11   -1    0    0    0    0  0.00000000000E+00  0.00000000000E+00  0.50000000000E+03  0.50000000000E+03  0.00000000000E+00 0.  1.
         11   -1    0    0    0    0 -0.00000000000E+00 -0.00000000000E+00 -0.50000000000E+03  0.50000000000E+03  0.00000000000E+00 0. -1.
        -11    1    1    2    0    0  0.85314978311E+02 -0.15049093807E+02  0.39478874274E+03  0.40418222641E+03  0.00000000000E+00 0.  1.
         11    1    1    2    0    0 -0.39163052395E+02  0.11506513063E+02 -0.44228007715E+03  0.44415966854E+03  0.00000000000E+00 0. -1.
        -15    1    1    2    0    0  0.33411803257E+02 -0.28886955735E+02 -0.13566410124E+02  0.46238620451E+02  0.17770000000E+01 0.  1.
         15    1    1    2    0    0 -0.79563729173E+02  0.32429536479E+02  0.61057744535E+02  0.10541948460E+03  0.17770000000E+01 0. -1.
</event>
<event>
 6    1  0.9144256E-004  0.4676271E+03  0.7546771E-02  0.9475310E-01
        -11   -1    0    0    0    0  0.00000000000E+00  0.00000000000E+00  0.50000000000E+03  0.50000000000E+03  0.00000000000E+00 0. -1.
         11   -1    0    0    0    0 -0.00000000000E+00 -0.00000000000E+00 -0.50000000000E+03  0.50000000000E+03  0.00000000000E+00 0. -1.
        -11    1    1    2    0    0 -0.24161088296E+02 -0.53923283429E+01  0.45673068039E+03  0.45740108199E+03  0.00000000000E+00 0. -1.
         11    1    1    2    0    0 -0.32387251278E+02  0.59751433600E+01 -0.47868693978E+03  0.47981853101E+03  0.00000000000E+00 0. -1.
        -15    1    1    2    0    0  0.29200084770E+01 -0.14353875240E+01 -0.17659788162E+01  0.41064823181E+01  0.17770000000E+01 0. -1.
         15    1    1    2    0    0  0.53628331097E+02  0.85257250690E+00  0.23722238211E+02  0.58673904684E+02  0.17770000000E+01 0.  1.
</event>
<event>
 6    1  0.9144256E-004  0.5004536E+03  0.7546771E-02  0.9398795E-01
        -11   -1    0    0    0    0  0.00000000000E+00  0.00000000000E+00  0.50000000000E+03  0.50000000000E+03  0.00000000000E+00 0. -1.
         11   -1    0    0    0    0 -0.00000000000E+00 -0.00000000000E+00 -0.50000000000E+03  0.50000000000E+03  0.00000000000E+00 0.  1.
        -11    1    1    2    0    0 -0.16341766816E+02  0.92084268484E+01  0.49919414137E+03  0.49954643352E+03  0.00000000000E+00 0. -1.
         11    1    1    2    0    0  0.21083126462E+01  0.42753231274E+01 -0.28173231634E+03  0.28177264140E+03  0.00000000000E+00 0.  1.
        -15    1    1    2    0    0  0.39535217688E+01 -0.95662956386E+01 -0.14355896295E+03  0.14394262024E+03  0.17770000000E+01 0.  1.
         15    1    1    2    0    0  0.10279932401E+02 -0.39174543372E+01 -0.73902862074E+02  0.74738304840E+02  0.17770000000E+01 0. -1.
</event>
<event>
 6    1  0.9144256E-004  0.4905936E+03  0.7546771E-02  0.9421107E-01
        -11   -1    0    0    0    0  0.00000000000E+00  0.00000000000E+00  0.50000000000E+03  0.50000000000E+03  0.00000000000E+00 0.  1.
         11   -1    0    0    0    0 -0.00000000000E+00 -0.00000000000E+00 -0.50000000000E+03  0.50000000000E+03  0.00000000000E+00 0.  1.
        -11    1    1    2    0    0  0.22589445271E+01  0.10846233725E+02  0.48737843201E+03  0.48750433804E+03  0.00000000000E+00 0.  1.
         11    1    1    2    0    0  0.71468788737E+01  0.21156740014E-01 -0.49375721003E+03  0.49380893145E+03  0.00000000000E+00 0.  1.
        -15    1    1    2    0    0 -0.63778475695E+01 -0.11449075143E+01  0.47350945586E+01  0.82198906510E+01  0.17770000000E+01 0.  1.
         15    1    1    2    0    0 -0.30279758313E+01 -0.97224829508E+01  0.16436834603E+01  0.10466839861E+02  0.17770000000E+01 0. -1.
</event>
<event>
 6    1  0.9144256E-004  0.5048138E+03  0.7546771E-02  0.9389103E-01
        -11   -1    0    0    0    0  0.00000000000E+00  0.00000000000E+00  0.50000000000E+03  0.50000000000E+03  0.00000000000E+00 0.  1.
         11   -1    0    0    0    0 -0.00000000000E+00 -0.00000000000E+00 -0.50000000000E+03  0.50000000000E+03  0.00000000000E+00 0.  1.
        -11    1    1    2    0    0 -0.29241711897E+02  0.35710585316E+02  0.27401099721E+03  0.27787110359E+03  0.00000000000E+00 0.  1.
         11    1    1    2    0    0 -0.23677617714E+02 -0.33499481121E+02 -0.49348411885E+03  0.49518624816E+03  0.00000000000E+00 0.  1.
        -15    1    1    2    0    0  0.55761063833E+01  0.42708504281E+01  0.60537527623E+02  0.60969526040E+02  0.17770000000E+01 0. -1.
         15    1    1    2    0    0  0.47343223228E+02 -0.64819546229E+01  0.15893559401E+03  0.16597312220E+03  0.17770000000E+01 0.  1.
</event>
<event>
 6    1  0.9144256E-004  0.5014676E+03  0.7546771E-02  0.9396532E-01
        -11   -1    0    0    0    0  0.00000000000E+00  0.00000000000E+00  0.50000000000E+03  0.50000000000E+03  0.00000000000E+00 0. -1.
         11   -1    0    0    0    0 -0.00000000000E+00 -0.00000000000E+00 -0.50000000000E+03  0.50000000000E+03  0.00000000000E+00 0.  1.
        -11    1    1    2    0    0  0.10485474543E+02 -0.76067247618E+00  0.46117601689E+03  0.46129582954E+03  0.00000000000E+00 0. -1.
         11    1    1    2    0    0  0.18427360837E+01  0.70859592245E+01 -0.49847859877E+03  0.49853236598E+03  0.00000000000E+00 0.  1.
        -15    1    1    2    0    0 -0.35099594403E+01 -0.36664821645E+01  0.10944617907E+02  0.12194478130E+02  0.17770000000E+01 0.  1.
         15    1    1    2    0    0 -0.88182511865E+01 -0.26588045839E+01  0.26357963977E+02  0.27977326352E+02  0.17770000000E+01 0. -1.
</event>
<event>
 6    1  0.9144256E-004  0.5002497E+03  0.7546771E-02  0.9399251E-01
        -11   -1    0    0    0    0  0.00000000000E+00  0.00000000000E+00  0.50000000000E+03  0.50000000000E+03  0.00000000000E+00 0. -1.
         11   -1    0    0    0    0 -0.00000000000E+00 -0.00000000000E+00 -0.50000000000E+03  0.50000000000E+03  0.00000000000E+00 0.  1.
        -11    1    1    2    0    0  0.13007625933E+02 -0.16402856627E+01  0.49957827868E+03  0.49975028304E+03  0.00000000000E+00 0. -1.
         11    1    1    2    0    0 -0.62474812504E+01  0.24621975282E+01 -0.38641093612E+03  0.38646928079E+03  0.00000000000E+00 0.  1.
        -15    1    1    2    0    0 -0.29673002491E+01 -0.32582842637E+01 -0.23142845682E+02  0.23625628508E+02  0.17770000000E+01 0. -1.
         15    1    1    2    0    0 -0.37928444331E+01  0.24363723982E+01 -0.90024496872E+02  0.90154807667E+02  0.17770000000E+01 0.  1.
</event>
<event>
 6    1  0.9144256E-004  0.5000813E+03  0.7546771E-02  0.9399628E-01
        -11   -1    0    0    0    0  0.00000000000E+00  0.00000000000E+00  0.50000000000E+03  0.50000000000E+03  0.00000000000E+00 0. -1.
         11   -1    0    0    0    0 -0.00000000000E+00 -0.00000000000E+00 -0.50000000000E+03  0.50000000000E+03  0.00000000000E+00 0. -1.
        -11    1    1    2    0    0  0.90685817788E+01 -0.62389317533E+01  0.33724236094E+03  0.33742195165E+03  0.00000000000E+00 0. -1.
         11    1    1    2    0    0 -0.14237725805E+02  0.52261573404E+01 -0.49968856393E+03  0.49991867986E+03  0.00000000000E+00 0. -1.
        -15    1    1    2    0    0  0.39508835722E+01  0.22292731575E+01  0.13850332456E+03  0.13858898867E+03  0.17770000000E+01 0. -1.
         15    1    1    2    0    0  0.12182604536E+01 -0.12164987446E+01  0.23942878428E+02  0.24070379809E+02  0.17770000000E+01 0. -1.
</event>
<event>
 6    1  0.9144256E-004  0.5004000E+03  0.7546771E-02  0.9398915E-01
        -11   -1    0    0    0    0  0.00000000000E+00  0.00000000000E+00  0.50000000000E+03  0.50000000000E+03  0.00000000000E+00 0.  1.
         11   -1    0    0    0    0 -0.00000000000E+00 -0.00000000000E+00 -0.50000000000E+03  0.50000000000E+03  0.00000000000E+00 0. -1.
        -11    1    1    2    0    0 -0.71776693486E+01 -0.96084245819E+01  0.49945599688E+03  0.49959997356E+03  0.00000000000E+00 0.  1.
         11    1    1    2    0    0  0.89372908492E+00  0.94141200793E+01 -0.46502390703E+03  0.46512004743E+03  0.00000000000E+00 0. -1.
        -15    1    1    2    0    0  0.50344598790E+01 -0.57486802581E+00 -0.25042924423E+02  0.25612146575E+02  0.17770000000E+01 0.  1.
         15    1    1    2    0    0  0.12494803847E+01  0.76917252837E+00 -0.93891654291E+01  0.96678324389E+01  0.17770000000E+01 0. -1.
</event>
<event>
 6    1  0.9144256E-004  0.5081024E+03  0.7546771E-02  0.9381860E-01
        -11   -1    0    0    0    0  0.00000000000E+00  0.00000000000E+00  0.50000000000E+03  0.50000000000E+03  0.00000000000E+00 0.  1.
         11   -1    0    0    0    0 -0.00000000000E+00 -0.00000000000E+00 -0.50000000000E+03  0.50000000000E+03  0.00000000000E+00 0.  1.
        -11    1    1    2    0    0  0.11215410084E+02 -0.13736986173E+02  0.47304391814E+03  0.47337621265E+03  0.00000000000E+00 0.  1.
         11    1    1    2    0    0 -0.57683700768E+01 -0.13455661849E+02 -0.49167964471E+03  0.49189755230E+03  0.00000000000E+00 0.  1.
        -15    1    1    2    0    0  0.25753235881E+00  0.89325653527E+01  0.20366842856E+01  0.93361051074E+01  0.17770000000E+01 0.  1.
         15    1    1    2    0    0 -0.57045723660E+01  0.18260082670E+02  0.16599042288E+02  0.25390129949E+02  0.17770000000E+01 0. -1.
</event>
<event>
 6    1  0.9144256E-004  0.5110272E+03  0.7546771E-02  0.9375468E-01
        -11   -1    0    0    0    0  0.00000000000E+00  0.00000000000E+00  0.50000000000E+03  0.50000000000E+03  0.00000000000E+00 0. -1.
         11   -1    0    0    0    0 -0.00000000000E+00 -0.00000000000E+00 -0.50000000000E+03  0.50000000000E+03  0.00000000000E+00 0.  1.
        -11    1    1    2    0    0 -0.35000242747E+02  0.98139557688E+01  0.48761981825E+03  0.48897281916E+03  0.00000000000E+00 0. -1.
         11    1    1    2    0    0  0.24288876077E+01 -0.17738932496E+02 -0.44645296733E+03  0.44681184100E+03  0.00000000000E+00 0.  1.
        -15    1    1    2    0    0  0.12737423653E+02  0.41405936949E+01 -0.41806471587E+02  0.43935467142E+02  0.17770000000E+01 0.  1.
         15    1    1    2    0    0  0.19833931486E+02  0.37843830327E+01  0.63962066101E+00  0.20279872700E+02  0.17770000000E+01 0. -1.
</event>
<event>
 6    1  0.9144256E-004  0.5006861E+03  0.7546771E-02  0.9398276E-01
        -11   -1    0    0    0    0  0.00000000000E+00  0.00000000000E+00  0.50000000000E+03  0.50000000000E+03  0.00000000000E+00 0.  1.
         11   -1    0    0    0    0 -0.00000000000E+00 -0.00000000000E+00 -0.50000000000E+03  0.50000000000E+03  0.00000000000E+00 0. -1.
        -11    1    1    2    0    0 -0.22215905924E+02 -0.84488779405E+01 -0.26249415317E+03  0.26356803763E+03  0.00000000000E+00 0.  1.
         11    1    1    2    0    0  0.55298440584E+01  0.38473796315E+01 -0.23564961507E+03  0.23574588562E+03  0.00000000000E+00 0. -1.
        -15    1    1    2    0    0 -0.55099333478E+01  0.20496653849E+02  0.28480305336E+03  0.28559833529E+03  0.17770000000E+01 0.  1.
         15    1    1    2    0    0  0.22195995214E+02 -0.15895155540E+02  0.21334071487E+03  0.21508774146E+03  0.17770000000E+01 0. -1.
</event>
<event>
 6    1  0.9144256E-004  0.5038755E+03  0.7546771E-02  0.9391180E-01
        -11   -1    0    0    0    0  0.00000000000E+00  0.00000000000E+00  0.50000000000E+03  0.50000000000E+03  0.00000000000E+00 0. -1.
         11   -1    0    0    0    0 -0.00000000000E+00 -0.00000000000E+00 -0.50000000000E+03  0.50000000000E+03  0.00000000000E+00 0.  1.
        -11    1    1    2    0    0 -0.19185482998E+02  0.76973736399E+01  0.44225440838E+03  0.44273727429E+03  0.00000000000E+00 0. -1.
         11    1    1    2    0    0  0.47789941393E+01 -0.17031632142E+02 -0.49580908752E+03  0.49612454741E+03  0.00000000000E+00 0.  1.
        -15    1    1    2    0    0  0.15599573316E+02 -0.30356738865E+01  0.37429931708E+02  0.40702819561E+02  0.17770000000E+01 0. -1.
         15    1    1    2    0    0 -0.11930844571E+01  0.12369932388E+02  0.16124747435E+02  0.20435358735E+02  0.17770000000E+01 0.  1.
</event>
<event>
 6    1  0.9144256E-004  0.5024375E+03  0.7546771E-02  0.9394372E-01
        -11   -1    0    0    0    0  0.00000000000E+00  0.00000000000E+00  0.50000000000E+03  0.50000000000E+03  0.00000000000E+00 0. -1.
         11   -1    0    0    0    0 -0.00000000000E+00 -0.00000000000E+00 -0.50000000000E+03  0.50000000000E+03  0.00000000000E+00 0. -1.
        -11    1    1    2    0    0  0.62477714738E+01 -0.25938045701E+02  0.81304851545E+02  0.85570413975E+02  0.00000000000E+00 0. -1.
         11    1    1    2    0    0  0.19257233745E+01  0.12657650160E+02 -0.49739777810E+03  0.49756253293E+03  0.00000000000E+00 0. -1.
        -15    1    1    2    0    0 -0.12106848617E+02  0.81075482337E+01  0.36930279865E+03  0.36959440329E+03  0.17770000000E+01 0. -1.
         15    1    1    2    0    0  0.39333537683E+01  0.51728473072E+01  0.46790127902E+02  0.47272649801E+02  0.17770000000E+01 0.  1.
</event>
<event>
 6    1  0.9144256E-004  0.5037165E+03  0.7546771E-02  0.9391532E-01
        -11   -1    0    0    0    0  0.00000000000E+00  0.00000000000E+00  0.50000000000E+03  0.50000000000E+03  0.00000000000E+00 0.  1.
         11   -1    0    0    0    0 -0.00000000000E+00 -0.00000000000E+00 -0.50000000000E+03  0.50000000000E+03  0.00000000000E+00 0. -1.
        -11    1    1    2    0    0 -0.10449515186E+02 -0.13047128668E+01  0.49617173798E+03  0.49628347566E+03  0.00000000000E+00 0.  1.
         11    1    1    2    0    0 -0.40826218033E+01 -0.51143328670E+01 -0.47278825427E+03  0.47283354108E+03  0.00000000000E+00 0. -1.
        -15    1    1    2    0    0  0.14343629876E+02  0.10349983483E+01 -0.16353761838E+02  0.21849809950E+02  0.17770000000E+01 0.  1.
         15    1    1    2    0    0  0.18850711364E+00  0.53840473855E+01 -0.70297218805E+01  0.90331733017E+01  0.17770000000E+01 0. -1.
</event>
<event>
 6    1  0.9144256E-004  0.4380607E+03  0.7546771E-02  0.9550180E-01
        -11   -1    0    0    0    0  0.00000000000E+00  0.00000000000E+00  0.50000000000E+03  0.50000000000E+03  0.00000000000E+00 0. -1.
         11   -1    0    0    0    0 -0.00000000000E+00 -0.00000000000E+00 -0.50000000000E+03  0.50000000000E+03  0.00000000000E+00 0. -1.
        -11    1    1    2    0    0 -0.22563303457E+02  0.67924992815E+02  0.40667847766E+03  0.41292891822E+03  0.00000000000E+00 0. -1.
         11    1    1    2    0    0  0.28804843997E+01  0.18889175046E+02 -0.46955644566E+03  0.46994505400E+03  0.00000000000E+00 0. -1.
        -15    1    1    2    0    0 -0.11065264064E+02 -0.94646069993E+01  0.41615370630E+01  0.15247785878E+02  0.17770000000E+01 0.  1.
         15    1    1    2    0    0  0.30748083121E+02 -0.77349560862E+02  0.58716430931E+02  0.10187824189E+03  0.17770000000E+01 0. -1.
</event>
<event>
 6    1  0.9144256E-004  0.5032080E+03  0.7546771E-02  0.9392660E-01
        -11   -1    0    0    0    0  0.00000000000E+00  0.00000000000E+00  0.50000000000E+03  0.50000000000E+03  0.00000000000E+00 0.  1.
         11   -1    0    0    0    0 -0.00000000000E+00 -0.00000000000E+00 -0.50000000000E+03  0.50000000000E+03  0.00000000000E+00 0. -1.
        -11    1    1    2    0    0 -0.13696140785E+02  0.29940898324E+01  0.49659416812E+03  0.49679202555E+03  0.00000000000E+00 0.  1.
         11    1    1    2    0    0 -0.53863230663E+01 -0.65730135481E+01 -0.46120062190E+03  0.46127890763E+03  0.00000000000E+00 0. -1.
        -15    1    1    2    0    0  0.17909704116E+02  0.12373866558E+01 -0.23524769982E+02  0.29645592573E+02  0.17770000000E+01 0. -1.
         15    1    1    2    0    0  0.11727597355E+01  0.23415370599E+01 -0.11868776236E+02  0.12283474246E+02  0.17770000000E+01 0. -1.
</event>
<event>
 6    1  0.9144256E-004  0.5006771E+03  0.7546771E-02  0.9398296E-01
        -11   -1    0    0    0    0  0.00000000000E+00  0.00000000000E+00  0.50000000000E+03  0.50000000000E+03  0.00000000000E+00 0.  1.
         11   -1    0    0    0    0 -0.00000000000E+00 -0.00000000000E+00 -0.50000000000E+03  0.50000000000E+03  0.00000000000E+00 0.  1.
        -11    1    1    2    0    0  0.16134351370E+02  0.45553714585E+01  0.49904141972E+03  0.49932294890E+03  0.00000000000E+00 0.  1.
         11    1    1    2    0    0 -0.43591204843E+00 -0.66791802060E+01 -0.40842284446E+03  0.40847768769E+03  0.00000000000E+00 0.  1.
        -15    1    1    2    0    0 -0.12689883008E+02 -0.11678483409E+00 -0.65814401640E+02  0.67050279356E+02  0.17770000000E+01 0.  1.
         15    1    1    2    0    0 -0.30085563142E+01  0.22405935817E+01 -0.24804173619E+02  0.25149084051E+02  0.17770000000E+01 0. -1.
</event>
<event>
 6    1  0.9144256E-004  0.5000228E+03  0.7546771E-02  0.9399759E-01
        -11   -1    0    0    0    0  0.00000000000E+00  0.00000000000E+00  0.50000000000E+03  0.50000000000E+03  0.00000000000E+00 0. -1.
         11   -1    0    0    0    0 -0.00000000000E+00 -0.00000000000E+00 -0.50000000000E+03  0.50000000000E+03  0.00000000000E+00 0. -1.
        -11    1    1    2    0    0  0.43002911053E+01  0.37399211517E+01  0.32272730945E+03  0.32277762589E+03  0.00000000000E+00 0. -1.
         11    1    1    2    0    0 -0.61045010564E+01 -0.55321413593E+01 -0.49990932592E+03  0.49997720314E+03  0.00000000000E+00 0. -1.
        -15    1    1    2    0    0  0.12743875895E+01  0.52243766511E-01  0.83714991544E+02  0.83743562925E+02  0.17770000000E+01 0. -1.
         15    1    1    2    0    0  0.52982236160E+00  0.17399764411E+01  0.93467024925E+02  0.93501608046E+02  0.17770000000E+01 0.  1.
</event>
<event>
 6    1  0.9144256E-004  0.5000399E+03  0.7546771E-02  0.9399721E-01
        -11   -1    0    0    0    0  0.00000000000E+00  0.00000000000E+00  0.50000000000E+03  0.50000000000E+03  0.00000000000E+00 0. -1.
         11   -1    0    0    0    0 -0.00000000000E+00 -0.00000000000E+00 -0.50000000000E+03  0.50000000000E+03  0.00000000000E+00 0. -1.
        -11    1    1    2    0    0 -0.67445248898E+01  0.77473959389E+01  0.49985461614E+03  0.49996014645E+03  0.00000000000E+00 0. -1.
         11    1    1    2    0    0  0.14834443928E+01  0.32558284364E-01 -0.25506512844E+02  0.25549635316E+02  0.00000000000E+00 0. -1.
        -15    1    1    2    0    0  0.55119198176E+01 -0.47549985090E+01 -0.24335062694E+03  0.24346596606E+03  0.17770000000E+01 0.  1.
         15    1    1    2    0    0 -0.25083932057E+00 -0.30249557142E+01 -0.23099747636E+03  0.23102425217E+03  0.17770000000E+01 0. -1.
</event>
<event>
 6    1  0.9144256E-004  0.5011049E+03  0.7546771E-02  0.9397341E-01
        -11   -1    0    0    0    0  0.00000000000E+00  0.00000000000E+00  0.50000000000E+03  0.50000000000E+03  0.00000000000E+00 0. -1.
         11   -1    0    0    0    0 -0.00000000000E+00 -0.00000000000E+00 -0.50000000000E+03  0.50000000000E+03  0.00000000000E+00 0. -1.
        -11    1    1    2    0    0  0.15175514023E+02 -0.95862290655E+01  0.15297403662E+03  0.15402353032E+03  0.00000000000E+00 0. -1.
         11    1    1    2    0    0  0.49287793818E+00 -0.10345530058E+02 -0.49878761403E+03  0.49889513611E+03  0.00000000000E+00 0. -1.
        -15    1    1    2    0    0 -0.98540934767E+01  0.15203053420E+01  0.13398199290E+03  0.13436423124E+03  0.17770000000E+01 0. -1.
         15    1    1    2    0    0 -0.58142984846E+01  0.18411453782E+02  0.21183158452E+03  0.21271710234E+03  0.17770000000E+01 0.  1.
</event>
<event>
 6    1  0.9144256E-004  0.5079302E+03  0.7546771E-02  0.9382238E-01
        -11   -1    0    0    0    0  0.00000000000E+00  0.00000000000E+00  0.50000000000E+03  0.50000000000E+03  0.00000000000E+00 0. -1.
         11   -1    0    0    0    0 -0.00000000000E+00 -0.00000000000E+00 -0.50000000000E+03  0.50000000000E+03  0.00000000000E+00 0.  1.
        -11    1    1    2    0    0 -0.24997642708E+02  0.83287289674E+00  0.49143373377E+03  0.49206980247E+03  0.00000000000E+00 0. -1.
         11    1    1    2    0    0  0.70304912696E+01  0.24904580829E+02 -0.44937628007E+03  0.45012076940E+03  0.00000000000E+00 0.  1.
        -15    1    1    2    0    0  0.10810182733E+02 -0.12311484564E+02 -0.42535641871E+01  0.17020083436E+02  0.17770000000E+01 0. -1.
         15    1    1    2    0    0  0.71569687057E+01 -0.13425969162E+02 -0.37803889515E+02  0.40789344693E+02  0.17770000000E+01 0.  1.
</event>
<event>
 6    1  0.9144256E-004  0.5005684E+03  0.7546771E-02  0.9398539E-01
        -11   -1    0    0    0    0  0.00000000000E+00  0.00000000000E+00  0.50000000000E+03  0.50000000000E+03  0.00000000000E+00 0. -1.
         11   -1    0    0    0    0 -0.00000000000E+00 -0.00000000000E+00 -0.50000000000E+03  0.50000000000E+03  0.00000000000E+00 0.  1.
        -11    1    1    2    0    0 -0.96145910159E+01 -0.27989121227E+01  0.28687833490E+03  0.28705304964E+03  0.00000000000E+00 0. -1.
         11    1    1    2    0    0 -0.71443310838E+01  0.10048961776E+02 -0.49927938556E+03  0.49943160487E+03  0.00000000000E+00 0.  1.
        -15    1    1    2    0    0  0.17322716413E+02 -0.64000104112E+01  0.20494122916E+03  0.20577925497E+03  0.17770000000E+01 0. -1.
         15    1    1    2    0    0 -0.56379431302E+00 -0.85003924171E+00  0.74598214954E+01  0.77360905167E+01  0.17770000000E+01 0. -1.
</event>
<event>
 6    1  0.9144256E-004  0.5001381E+03  0.7546771E-02  0.9399501E-01
        -11   -1    0    0    0    0  0.00000000000E+00  0.00000000000E+00  0.50000000000E+03  0.50000000000E+03  0.00000000000E+00 0. -1.
         11   -1    0    0    0    0 -0.00000000000E+00 -0.00000000000E+00 -0.50000000000E+03  0.50000000000E+03  0.00000000000E+00 0. -1.
        -11    1    1    2    0    0  0.66362213535E+00 -0.10247691440E+02  0.36646823154E+03  0.36661208423E+03  0.00000000000E+00 0. -1.
         11    1    1    2    0    0 -0.54549092490E+00  0.83928209147E+01 -0.49979117792E+03  0.49986193947E+03  0.00000000000E+00 0. -1.
        -15    1    1    2    0    0  0.11355368727E+01  0.59351006826E+00  0.11608451670E+03  0.11610518699E+03  0.17770000000E+01 0. -1.
         15    1    1    2    0    0 -0.12536680831E+01  0.12613604569E+01  0.17238429676E+02  0.17420789321E+02  0.17770000000E+01 0.  1.
</event>
<event>
 6    1  0.9144256E-004  0.5005798E+03  0.7546771E-02  0.9398513E-01
        -11   -1    0    0    0    0  0.00000000000E+00  0.00000000000E+00  0.50000000000E+03  0.50000000000E+03  0.00000000000E+00 0. -1.
         11   -1    0    0    0    0 -0.00000000000E+00 -0.00000000000E+00 -0.50000000000E+03  0.50000000000E+03  0.00000000000E+00 0. -1.
        -11    1    1    2    0    0 -0.15603055495E+01  0.83517293009E+01  0.49934794620E+03  0.49942022117E+03  0.00000000000E+00 0. -1.
         11    1    1    2    0    0  0.61458967884E+01 -0.23598303280E+01 -0.42742156295E+03  0.42747226029E+03  0.00000000000E+00 0. -1.
        -15    1    1    2    0    0 -0.58977840690E+01  0.76781677785E-01 -0.44878658535E+02  0.45299464382E+02  0.17770000000E+01 0.  1.
         15    1    1    2    0    0  0.13121928300E+01 -0.60686806507E+01 -0.27047724714E+02  0.27808054158E+02  0.17770000000E+01 0. -1.
</event>
<event>
 6    1  0.9144256E-004  0.5000881E+03  0.7546771E-02  0.9399613E-01
        -11   -1    0    0    0    0  0.00000000000E+00  0.00000000000E+00  0.50000000000E+03  0.50000000000E+03  0.00000000000E+00 0. -1.
         11   -1    0    0    0    0 -0.00000000000E+00 -0.00000000000E+00 -0.50000000000E+03  0.50000000000E+03  0.00000000000E+00 0.  1.
        -11    1    1    2    0    0  0.33441539317E+01  0.25741857764E+01  0.61227487583E+02  0.61372754816E+02  0.00000000000E+00 0. -1.
         11    1    1    2    0    0 -0.84959465082E+01  0.13079132589E+01 -0.49983796349E+03  0.49991187372E+03  0.00000000000E+00 0.  1.
        -15    1    1    2    0    0  0.61692425392E+01 -0.22967453982E+01  0.27564338328E+03  0.27572770457E+03  0.17770000000E+01 0. -1.
         15    1    1    2    0    0 -0.10174499626E+01 -0.15853536371E+01  0.16296709262E+03  0.16298766689E+03  0.17770000000E+01 0.  1.
</event>
<event>
 6    1  0.9144256E-004  0.5009101E+03  0.7546771E-02  0.9397776E-01
        -11   -1    0    0    0    0  0.00000000000E+00  0.00000000000E+00  0.50000000000E+03  0.50000000000E+03  0.00000000000E+00 0.  1.
         11   -1    0    0    0    0 -0.00000000000E+00 -0.00000000000E+00 -0.50000000000E+03  0.50000000000E+03  0.00000000000E+00 0.  1.
        -11    1    1    2    0    0  0.45090581842E+02  0.26339957946E+02  0.24569875081E+03  0.25118684302E+03  0.00000000000E+00 0.  1.
         11    1    1    2    0    0 -0.59344715393E+02 -0.24443825792E+02 -0.49494588833E+03  0.49908989996E+03  0.00000000000E+00 0.  1.
        -15    1    1    2    0    0  0.50889191028E+01 -0.14384099932E+01  0.64915578921E+02  0.65154863492E+02  0.17770000000E+01 0.  1.
         15    1    1    2    0    0  0.91652144483E+01 -0.45772216120E+00  0.18433155860E+03  0.18456839353E+03  0.17770000000E+01 0.  1.
</event>
<event>
 6    1  0.9144256E-004  0.5007147E+03  0.7546771E-02  0.9398212E-01
        -11   -1    0    0    0    0  0.00000000000E+00  0.00000000000E+00  0.50000000000E+03  0.50000000000E+03  0.00000000000E+00 0.  1.
         11   -1    0    0    0    0 -0.00000000000E+00 -0.00000000000E+00 -0.50000000000E+03  0.50000000000E+03  0.00000000000E+00 0.  1.
        -11    1    1    2    0    0  0.15547519389E+02  0.12835851188E+02  0.49887806261E+03  0.49928529499E+03  0.00000000000E+00 0.  1.
         11    1    1    2    0    0 -0.15028425429E+01 -0.47494752962E+01 -0.19890607820E+03  0.19896844975E+03  0.00000000000E+00 0.  1.
        -15    1    1    2    0    0 -0.13948720399E+02 -0.11654469628E+02 -0.95231658775E+02  0.96967107955E+02  0.17770000000E+01 0. -1.
         15    1    1    2    0    0 -0.95956447147E-01  0.35680937360E+01 -0.20474032563E+03  0.20477914730E+03  0.17770000000E+01 0.  1.
</event>
<event>
 6    1  0.9144256E-004  0.5014004E+03  0.7546771E-02  0.9396682E-01
        -11   -1    0    0    0    0  0.00000000000E+00  0.00000000000E+00  0.50000000000E+03  0.50000000000E+03  0.00000000000E+00 0. -1.
         11   -1    0    0    0    0 -0.00000000000E+00 -0.00000000000E+00 -0.50000000000E+03  0.50000000000E+03  0.00000000000E+00 0. -1.
        -11    1    1    2    0    0  0.49884976290E+01  0.12088952523E+02  0.37723234064E+03  0.37745896030E+03  0.00000000000E+00 0. -1.
         11    1    1    2    0    0 -0.25121287185E+01  0.83030777323E+01 -0.49852411109E+03  0.49859958005E+03  0.00000000000E+00 0. -1.
        -15    1    1    2    0    0 -0.27319011286E+01 -0.16887601600E+02  0.11639067984E+03  0.11765458960E+03  0.17770000000E+01 0. -1.
         15    1    1    2    0    0  0.25553221806E+00 -0.35044286548E+01  0.49010906094E+01  0.62868700537E+01  0.17770000000E+01 0.  1.
</event>
<event>
 6    1  0.9144256E-004  0.5003775E+03  0.7546771E-02  0.9398966E-01
        -11   -1    0    0    0    0  0.00000000000E+00  0.00000000000E+00  0.50000000000E+03  0.50000000000E+03  0.00000000000E+00 0. -1.
         11   -1    0    0    0    0 -0.00000000000E+00 -0.00000000000E+00 -0.50000000000E+03  0.50000000000E+03  0.00000000000E+00 0.  1.
        -11    1    1    2    0    0  0.14406032459E+02 -0.12235402041E+02  0.25688108179E+03  0.25757548217E+03  0.00000000000E+00 0. -1.
         11    1    1    2    0    0 -0.13938471588E+02  0.18821083319E+01 -0.49942453646E+03  0.49962254847E+03  0.00000000000E+00 0.  1.
        -15    1    1    2    0    0 -0.10926794191E+01  0.39998890797E+01  0.85838024358E+02  0.85956484431E+02  0.17770000000E+01 0. -1.
         15    1    1    2    0    0  0.62511854796E+00  0.63534046298E+01  0.15670543031E+03  0.15684548493E+03  0.17770000000E+01 0.  1.
</event>
<event>
 6    1  0.9144256E-004  0.5002201E+03  0.7546771E-02  0.9399317E-01
        -11   -1    0    0    0    0  0.00000000000E+00  0.00000000000E+00  0.50000000000E+03  0.50000000000E+03  0.00000000000E+00 0. -1.
         11   -1    0    0    0    0 -0.00000000000E+00 -0.00000000000E+00 -0.50000000000E+03  0.50000000000E+03  0.00000000000E+00 0. -1.
        -11    1    1    2    0    0 -0.14570562233E+02  0.82737604691E+01  0.49949890686E+03  0.49977986589E+03  0.00000000000E+00 0. -1.
         11    1    1    2    0    0  0.98120000548E+01 -0.12861850460E+01 -0.31267845163E+03  0.31283501040E+03  0.00000000000E+00 0. -1.
        -15    1    1    2    0    0 -0.35829349908E+01 -0.32326463037E+01 -0.75821176709E+02  0.75995368226E+02  0.17770000000E+01 0. -1.
         15    1    1    2    0    0  0.83414971690E+01 -0.37549291194E+01 -0.11099927851E+03  0.11138975549E+03  0.17770000000E+01 0.  1.
</event>
<event>
 6    1  0.9144256E-004  0.5013003E+03  0.7546771E-02  0.9396905E-01
        -11   -1    0    0    0    0  0.00000000000E+00  0.00000000000E+00  0.50000000000E+03  0.50000000000E+03  0.00000000000E+00 0. -1.
         11   -1    0    0    0    0 -0.00000000000E+00 -0.00000000000E+00 -0.50000000000E+03  0.50000000000E+03  0.00000000000E+00 0.  1.
        -11    1    1    2    0    0  0.29957264395E+02  0.14500997603E+02  0.49758780900E+03  0.49869965339E+03  0.00000000000E+00 0. -1.
         11    1    1    2    0    0 -0.48822835087E+01 -0.10153046839E+01 -0.30120600770E+03  0.30124728482E+03  0.00000000000E+00 0.  1.
        -15    1    1    2    0    0 -0.17209823254E+01  0.49506010118E+01 -0.69376995899E+02  0.69597381556E+02  0.17770000000E+01 0.  1.
         15    1    1    2    0    0 -0.23353998561E+02 -0.18436293931E+02 -0.12700480540E+03  0.13045568024E+03  0.17770000000E+01 0.  1.
</event>
<event>
 6    1  0.9144256E-004  0.5039062E+03  0.7546771E-02  0.9391111E-01
        -11   -1    0    0    0    0  0.00000000000E+00  0.00000000000E+00  0.50000000000E+03  0.50000000000E+03  0.00000000000E+00 0. -1.
         11   -1    0    0    0    0 -0.00000000000E+00 -0.00000000000E+00 -0.50000000000E+03  0.50000000000E+03  0.00000000000E+00 0.  1.
        -11    1    1    2    0    0 -0.19934095855E+02  0.56011827537E+01  0.49566148439E+03  0.49609379005E+03  0.00000000000E+00 0. -1.
         11    1    1    2    0    0 -0.32604202880E+00 -0.10824114311E+02 -0.44621744774E+03  0.44634883043E+03  0.00000000000E+00 0.  1.
        -15    1    1    2    0    0  0.12308406231E+02 -0.68275609215E+01 -0.18058956356E+02  0.22965105829E+02  0.17770000000E+01 0.  1.
         15    1    1    2    0    0  0.79517316530E+01  0.12050492479E+02 -0.31385080289E+02  0.34592273689E+02  0.17770000000E+01 0. -1.
</event>
<event>
 6    1  0.9144256E-004  0.5009833E+03  0.7546771E-02  0.9397612E-01
        -11   -1    0    0    0    0  0.00000000000E+00  0.00000000000E+00  0.50000000000E+03  0.50000000000E+03  0.00000000000E+00 0. -1.
         11   -1    0    0    0    0 -0.00000000000E+00 -0.00000000000E+00 -0.50000000000E+03  0.50000000000E+03  0.00000000000E+00 0.  1.
        -11    1    1    2    0    0 -0.86305616623E+01  0.10605151169E+02  0.42871821126E+03  0.42893619630E+03  0.00000000000E+00 0. -1.
         11    1    1    2    0    0 -0.21024107461E+01 -0.65074696521E+01 -0.49896980178E+03  0.49901666343E+03  0.00000000000E+00 0.  1.
        -15    1    1    2    0    0  0.26362054751E+01  0.33492208395E+01  0.15507797344E+02  0.16180740620E+02  0.17770000000E+01 0. -1.
         15    1    1    2    0    0  0.80967669334E+01 -0.74469023566E+01  0.54743793174E+02  0.55866399648E+02  0.17770000000E+01 0.  1.
</event>
<event>
 6    1  0.9144256E-004  0.5008011E+03  0.7546771E-02  0.9398019E-01
        -11   -1    0    0    0    0  0.00000000000E+00  0.00000000000E+00  0.50000000000E+03  0.50000000000E+03  0.00000000000E+00 0.  1.
         11   -1    0    0    0    0 -0.00000000000E+00 -0.00000000000E+00 -0.50000000000E+03  0.50000000000E+03  0.00000000000E+00 0.  1.
        -11    1    1    2    0    0 -0.73834114561E+01  0.88993907794E+01  0.13644124505E+03  0.13693037381E+03  0.00000000000E+00 0.  1.
         11    1    1    2    0    0  0.35044233234E+01  0.77642149946E+01 -0.49912624137E+03  0.49919892712E+03  0.00000000000E+00 0.  1.
        -15    1    1    2    0    0  0.11503606898E+02 -0.16114339609E+02  0.30599566771E+03  0.30664068761E+03  0.17770000000E+01 0.  1.
         15    1    1    2    0    0 -0.76246187649E+01 -0.54926616531E+00  0.56689328607E+02  0.57230011458E+02  0.17770000000E+01 0. -1.
</event>
<event>
 6    1  0.9144256E-004  0.5078420E+03  0.7546771E-02  0.9382432E-01
        -11   -1    0    0    0    0  0.00000000000E+00  0.00000000000E+00  0.50000000000E+03  0.50000000000E+03  0.00000000000E+00 0. -1.
         11   -1    0    0    0    0 -0.00000000000E+00 -0.00000000000E+00 -0.50000000000E+03  0.50000000000E+03  0.00000000000E+00 0. -1.
        -11    1    1    2    0    0  0.58867009332E+01 -0.15556366574E+02  0.49187685112E+03  0.49215799339E+03  0.00000000000E+00 0. -1.
         11    1    1    2    0    0 -0.11681498388E+02  0.18973828122E+01 -0.48250126433E+03  0.48264637940E+03  0.00000000000E+00 0. -1.
        -15    1    1    2    0    0  0.64724043077E+01  0.78711521444E+01  0.35253465091E+01  0.10928533781E+02  0.17770000000E+01 0.  1.
         15    1    1    2    0    0 -0.67760685295E+00  0.57878316171E+01 -0.12900933303E+02  0.14267093431E+02  0.17770000000E+01 0. -1.
</event>
<event>
 6    1  0.9144256E-004  0.5001165E+03  0.7546771E-02  0.9399549E-01
        -11   -1    0    0    0    0  0.00000000000E+00  0.00000000000E+00  0.50000000000E+03  0.50000000000E+03  0.00000000000E+00 0.  1.
         11   -1    0    0    0    0 -0.00000000000E+00 -0.00000000000E+00 -0.50000000000E+03  0.50000000000E+03  0.00000000000E+00 0. -1.
        -11    1    1    2    0    0 -0.72506855967E+00 -0.11403288658E+02  0.25239828512E+03  0.25265679300E+03  0.00000000000E+00 0.  1.
         11    1    1    2    0    0  0.66508353122E+01  0.10763742251E+02 -0.49972338978E+03  0.49988354449E+03  0.00000000000E+00 0. -1.
        -15    1    1    2    0    0 -0.38806136146E+01  0.15833203045E+01  0.19718640587E+03  0.19723894761E+03  0.17770000000E+01 0.  1.
         15    1    1    2    0    0 -0.20451531379E+01 -0.94377389786E+00  0.50138698787E+02  0.50220714906E+02  0.17770000000E+01 0. -1.
</event>
<event>
 6    1  0.9144256E-004  0.5047793E+03  0.7546771E-02  0.9389179E-01
        -11   -1    0    0    0    0  0.00000000000E+00  0.00000000000E+00  0.50000000000E+03  0.50000000000E+03  0.00000000000E+00 0. -1.
         11   -1    0    0    0    0 -0.00000000000E+00 -0.00000000000E+00 -0.50000000000E+03  0.50000000000E+03  0.00000000000E+00 0.  1.
        -11    1    1    2    0    0  0.90056416086E+01 -0.89615581549E+01  0.49505766875E+03  0.49522066445E+03  0.00000000000E+00 0. -1.
         11    1    1    2    0    0  0.92320161749E+01 -0.99699461776E+00 -0.47570147706E+03  0.47579209682E+03  0.00000000000E+00 0.  1.
        -15    1    1    2    0    0 -0.12732861902E+02  0.86551014069E+01 -0.12411095754E+02  0.19855215420E+02  0.17770000000E+01 0.  1.
         15    1    1    2    0    0 -0.55047958818E+01  0.13034513658E+01 -0.69450959355E+01  0.91320233090E+01  0.17770000000E+01 0. -1.
</event>
<event>
 6    1  0.1035450E-003  0.5004817E+03  0.7546771E-02  0.9398732E-01
        -11   -1    0    0    0    0  0.00000000000E+00  0.00000000000E+00  0.50000000000E+03  0.50000000000E+03  0.00000000000E+00 0. -1.
         11   -1    0    0    0    0 -0.00000000000E+00 -0.00000000000E+00 -0.50000000000E+03  0.50000000000E+03  0.00000000000E+00 0.  1.
        -11    1    1    2    0    0 -0.20587938571E+02 -0.13216032569E+02  0.49891880447E+03  0.49951826812E+03  0.00000000000E+00 0. -1.
         11    1    1    2    0    0 -0.23585693950E+00 -0.17703968152E+01 -0.12954787105E+03  0.12956018226E+03  0.00000000000E+00 0.  1.
        -15    1    1    2    0    0  0.31147504333E+00  0.22683719067E+01 -0.17837456552E+03  0.17839811064E+03  0.17770000000E+01 0.  1.
         15    1    1    2    0    0  0.20512320467E+02  0.12718057477E+02 -0.19099636790E+03  0.19252343898E+03  0.17770000000E+01 0.  1.
</event>
<event>
 6    1  0.9144256E-004  0.4944193E+03  0.7546771E-02  0.9412384E-01
        -11   -1    0    0    0    0  0.00000000000E+00  0.00000000000E+00  0.50000000000E+03  0.50000000000E+03  0.00000000000E+00 0.  1.
         11   -1    0    0    0    0 -0.00000000000E+00 -0.00000000000E+00 -0.50000000000E+03  0.50000000000E+03  0.00000000000E+00 0. -1.
        -11    1    1    2    0    0  0.29700201637E+01  0.69742655239E+01  0.49381594385E+03  0.49387412141E+03  0.00000000000E+00 0.  1.
         11    1    1    2    0    0  0.55900911984E+01 -0.42641996262E+01 -0.49495590256E+03  0.49500583633E+03  0.00000000000E+00 0. -1.
        -15    1    1    2    0    0 -0.30618898439E+01 -0.52247061669E+00 -0.20941990599E+01  0.41462686435E+01  0.17770000000E+01 0. -1.
         15    1    1    2    0    0 -0.54982215182E+01 -0.21875952809E+01  0.32341577709E+01  0.69737736172E+01  0.17770000000E+01 0.  1.
</event>
<event>
 6    1  0.9144256E-004  0.5079520E+03  0.7546771E-02  0.9382190E-01
        -11   -1    0    0    0    0  0.00000000000E+00  0.00000000000E+00  0.50000000000E+03  0.50000000000E+03  0.00000000000E+00 0.  1.
         11   -1    0    0    0    0 -0.00000000000E+00 -0.00000000000E+00 -0.50000000000E+03  0.50000000000E+03  0.00000000000E+00 0.  1.
        -11    1    1    2    0    0 -0.17724837438E+02 -0.37136647925E+02  0.40591034777E+02  0.57800800908E+02  0.00000000000E+00 0.  1.
         11    1    1    2    0    0  0.11688877231E+02  0.35624099495E+02 -0.49061749348E+03  0.49204799687E+03  0.00000000000E+00 0.  1.
        -15    1    1    2    0    0  0.40190757905E+01 -0.27046097831E+01  0.29212426941E+03  0.29216983827E+03  0.17770000000E+01 0.  1.
         15    1    1    2    0    0  0.20168844165E+01  0.42171582127E+01  0.15790218929E+03  0.15798136395E+03  0.17770000000E+01 0. -1.
</event>
<event>
 6    1  0.9144256E-004  0.5003385E+03  0.7546771E-02  0.9399053E-01
        -11   -1    0    0    0    0  0.00000000000E+00  0.00000000000E+00  0.50000000000E+03  0.50000000000E+03  0.00000000000E+00 0.  1.
         11   -1    0    0    0    0 -0.00000000000E+00 -0.00000000000E+00 -0.50000000000E+03  0.50000000000E+03  0.00000000000E+00 0. -1.
        -11    1    1    2    0    0 -0.15396079145E+02 -0.53182614103E+02  0.49658449279E+03  0.49966147357E+03  0.00000000000E+00 0.  1.
         11    1    1    2    0    0 -0.21281117407E+01  0.14950828159E+02 -0.73156388708E+02  0.74698817467E+02  0.00000000000E+00 0. -1.
        -15    1    1    2    0    0 -0.44785831496E+00  0.65052655076E+01 -0.75312978298E+02  0.75615616678E+02  0.17770000000E+01 0.  1.
         15    1    1    2    0    0  0.17972049200E+02  0.31726520436E+02 -0.34811512578E+03  0.35002409228E+03  0.17770000000E+01 0. -1.
</event>
<event>
 6    1  0.9144256E-004  0.5006891E+03  0.7546771E-02  0.9398269E-01
        -11   -1    0    0    0    0  0.00000000000E+00  0.00000000000E+00  0.50000000000E+03  0.50000000000E+03  0.00000000000E+00 0.  1.
         11   -1    0    0    0    0 -0.00000000000E+00 -0.00000000000E+00 -0.50000000000E+03  0.50000000000E+03  0.00000000000E+00 0.  1.
        -11    1    1    2    0    0  0.15109597259E+02  0.38877641606E+01  0.99022362451E+02  0.10024391705E+03  0.00000000000E+00 0.  1.
         11    1    1    2    0    0 -0.92940375018E+01 -0.39018488502E+01 -0.49920917838E+03  0.49931093253E+03  0.00000000000E+00 0.  1.
        -15    1    1    2    0    0 -0.94644446326E+01  0.20317623571E+01  0.26798143403E+03  0.26816209741E+03  0.17770000000E+01 0. -1.
         15    1    1    2    0    0  0.36488848759E+01 -0.20176776675E+01  0.13220538190E+03  0.13228305302E+03  0.17770000000E+01 0.  1.
</event>
<event>
 6    1  0.9144256E-004  0.5040767E+03  0.7546771E-02  0.9390734E-01
        -11   -1    0    0    0    0  0.00000000000E+00  0.00000000000E+00  0.50000000000E+03  0.50000000000E+03  0.00000000000E+00 0.  1.
         11   -1    0    0    0    0 -0.00000000000E+00 -0.00000000000E+00 -0.50000000000E+03  0.50000000000E+03  0.00000000000E+00 0. -1.
        -11    1    1    2    0    0  0.18299535909E+02  0.65943970636E+01  0.37973239084E+03  0.38023025622E+03  0.00000000000E+00 0.  1.
         11    1    1    2    0    0  0.16927746218E+02 -0.42192919823E+01 -0.49561637184E+03  0.49592331973E+03  0.00000000000E+00 0. -1.
        -15    1    1    2    0    0 -0.55324602560E+01 -0.85313729736E+01  0.53164456661E+02  0.54157267494E+02  0.17770000000E+01 0. -1.
         15    1    1    2    0    0 -0.29694821871E+02  0.61562678924E+01  0.62719524333E+02  0.69689156559E+02  0.17770000000E+01 0.  1.
</event>
<event>
 6    1  0.9144256E-004  0.5004425E+03  0.7546771E-02  0.9398820E-01
        -11   -1    0    0    0    0  0.00000000000E+00  0.00000000000E+00  0.50000000000E+03  0.50000000000E+03  0.00000000000E+00 0.  1.
         11   -1    0    0    0    0 -0.00000000000E+00 -0.00000000000E+00 -0.50000000000E+03  0.50000000000E+03  0.00000000000E+00 0.  1.
        -11    1    1    2    0    0 -0.71253933260E+01 -0.47461952224E+01  0.49948413509E+03  0.49955750300E+03  0.00000000000E+00 0.  1.
         11    1    1    2    0    0 -0.81321882867E+01 -0.50208068446E+01 -0.23817422341E+03  0.23836589874E+03  0.00000000000E+00 0.  1.
        -15    1    1    2    0    0  0.13910065130E+02  0.52125783902E+01 -0.19554608094E+03  0.19611753717E+03  0.17770000000E+01 0.  1.
         15    1    1    2    0    0  0.13475164825E+01  0.45544236768E+01 -0.65763830741E+02  0.65959061079E+02  0.17770000000E+01 0. -1.
</event>
<event>
 6    1  0.9144256E-004  0.5000872E+03  0.7546771E-02  0.9399615E-01
        -11   -1    0    0    0    0  0.00000000000E+00  0.00000000000E+00  0.50000000000E+03  0.50000000000E+03  0.00000000000E+00 0.  1.
         11   -1    0    0    0    0 -0.00000000000E+00 -0.00000000000E+00 -0.50000000000E+03  0.50000000000E+03  0.00000000000E+00 0.  1.
        -11    1    1    2    0    0  0.31708977090E+01  0.13274721169E+01  0.24168621187E+03  0.24171065715E+03  0.00000000000E+00 0.  1.
         11    1    1    2    0    0  0.11582578727E+01 -0.67075322941E+01 -0.49986646855E+03  0.49991281133E+03  0.00000000000E+00 0.  1.
        -15    1    1    2    0    0 -0.48231258129E+01  0.39595593714E+01  0.23262230107E+03  0.23271277003E+03  0.17770000000E+01 0. -1.
         15    1    1    2    0    0  0.49397023129E+00  0.14205008057E+01  0.25557955620E+02  0.25663761486E+02  0.17770000000E+01 0.  1.
</event>
<event>
 6    1  0.9144256E-004  0.5007475E+03  0.7546771E-02  0.9398139E-01
        -11   -1    0    0    0    0  0.00000000000E+00  0.00000000000E+00  0.50000000000E+03  0.50000000000E+03  0.00000000000E+00 0. -1.
         11   -1    0    0    0    0 -0.00000000000E+00 -0.00000000000E+00 -0.50000000000E+03  0.50000000000E+03  0.00000000000E+00 0. -1.
        -11    1    1    2    0    0  0.30398682478E+01  0.21911125569E+02  0.27757604076E+03  0.27845609461E+03  0.00000000000E+00 0. -1.
         11    1    1    2    0    0 -0.39305141115E+01 -0.57196573693E+01 -0.49920426941E+03  0.49925250727E+03  0.00000000000E+00 0. -1.
        -15    1    1    2    0    0 -0.97769188986E+00 -0.12139921193E+02  0.16657164793E+03  0.16702576206E+03  0.17770000000E+01 0.  1.
         15    1    1    2    0    0  0.18683377536E+01 -0.40515470077E+01  0.55056580714E+02  0.55265636051E+02  0.17770000000E+01 0.  1.
</event>
<event>
 6    1  0.9144256E-004  0.4683277E+03  0.7546771E-02  0.9473608E-01
        -11   -1    0    0    0    0  0.00000000000E+00  0.00000000000E+00  0.50000000000E+03  0.50000000000E+03  0.00000000000E+00 0.  1.
         11   -1    0    0    0    0 -0.00000000000E+00 -0.00000000000E+00 -0.50000000000E+03  0.50000000000E+03  0.00000000000E+00 0.  1.
        -11    1    1    2    0    0  0.33581268829E+02 -0.14768108353E+02  0.45357714344E+03  0.45505826406E+03  0.00000000000E+00 0.  1.
         11    1    1    2    0    0  0.93674293729E+01  0.33774144984E+01 -0.48300969407E+03  0.48311232671E+03  0.00000000000E+00 0.  1.
        -15    1    1    2    0    0 -0.39247017142E+02  0.14014114163E+02  0.34985734874E+02  0.54441556958E+02  0.17770000000E+01 0. -1.
         15    1    1    2    0    0 -0.37016810602E+01 -0.26234203086E+01 -0.55531842483E+01  0.73878522645E+01  0.17770000000E+01 0.  1.
</event>
<event>
 6    1  0.9144256E-004  0.5043811E+03  0.7546771E-02  0.9390060E-01
        -11   -1    0    0    0    0  0.00000000000E+00  0.00000000000E+00  0.50000000000E+03  0.50000000000E+03  0.00000000000E+00 0.  1.
         11   -1    0    0    0    0 -0.00000000000E+00 -0.00000000000E+00 -0.50000000000E+03  0.50000000000E+03  0.00000000000E+00 0.  1.
        -11    1    1    2    0    0  0.69183924777E+02 -0.11103945961E+02  0.49064080812E+03  0.49561892181E+03  0.00000000000E+00 0.  1.
         11    1    1    2    0    0  0.75187215309E-02  0.89715776482E+01 -0.31277120500E+03  0.31289984969E+03  0.00000000000E+00 0.  1.
        -15    1    1    2    0    0 -0.58596603952E+02  0.64317883354E+01 -0.15523926377E+03  0.16606419434E+03  0.17770000000E+01 0.  1.
         15    1    1    2    0    0 -0.10594839547E+02 -0.42994200230E+01 -0.22630339344E+02  0.25417034158E+02  0.17770000000E+01 0. -1.
</event>
<event>
 6    1  0.9144256E-004  0.5001429E+03  0.7546771E-02  0.9399490E-01
        -11   -1    0    0    0    0  0.00000000000E+00  0.00000000000E+00  0.50000000000E+03  0.50000000000E+03  0.00000000000E+00 0. -1.
         11   -1    0    0    0    0 -0.00000000000E+00 -0.00000000000E+00 -0.50000000000E+03  0.50000000000E+03  0.00000000000E+00 0.  1.
        -11    1    1    2    0    0  0.78370175892E+00  0.67096473258E+01  0.81074611940E+02  0.81355554555E+02  0.00000000000E+00 0. -1.
         11    1    1    2    0    0  0.37266203685E+01 -0.79780999193E+01 -0.49977954407E+03  0.49985711003E+03  0.00000000000E+00 0.  1.
        -15    1    1    2    0    0 -0.11828495671E+01  0.30941124957E+01  0.13825529775E+03  0.13830639085E+03  0.17770000000E+01 0. -1.
         15    1    1    2    0    0 -0.33274725603E+01 -0.18256599022E+01  0.28044963438E+03  0.28048094456E+03  0.17770000000E+01 0. -1.
</event>
<event>
 6    1  0.9144256E-004  0.5004996E+03  0.7546771E-02  0.9398693E-01
        -11   -1    0    0    0    0  0.00000000000E+00  0.00000000000E+00  0.50000000000E+03  0.50000000000E+03  0.00000000000E+00 0. -1.
         11   -1    0    0    0    0 -0.00000000000E+00 -0.00000000000E+00 -0.50000000000E+03  0.50000000000E+03  0.00000000000E+00 0.  1.
        -11    1    1    2    0    0 -0.95033083389E+01 -0.14204307104E+02  0.18313148945E+03  0.18392720745E+03  0.00000000000E+00 0. -1.
         11    1    1    2    0    0  0.12559476476E+02  0.50486267035E+01 -0.49931696564E+03  0.49950041167E+03  0.00000000000E+00 0.  1.
        -15    1    1    2    0    0  0.13243836013E+01  0.26933881098E+01  0.22736390451E+03  0.22739065754E+03  0.17770000000E+01 0.  1.
         15    1    1    2    0    0 -0.43805517380E+01  0.64622922903E+01  0.88821571676E+02  0.89181723347E+02  0.17770000000E+01 0. -1.
</event>
<event>
 6    1  0.9144256E-004  0.5000394E+03  0.7546771E-02  0.9399722E-01
        -11   -1    0    0    0    0  0.00000000000E+00  0.00000000000E+00  0.50000000000E+03  0.50000000000E+03  0.00000000000E+00 0.  1.
         11   -1    0    0    0    0 -0.00000000000E+00 -0.00000000000E+00 -0.50000000000E+03  0.50000000000E+03  0.00000000000E+00 0.  1.
        -11    1    1    2    0    0  0.11935633709E+02 -0.10956031042E+02  0.49969802935E+03  0.49996061295E+03  0.00000000000E+00 0.  1.
         11    1    1    2    0    0 -0.97121446659E+00 -0.37064395632E+00 -0.64592371825E+02  0.64600736315E+02  0.00000000000E+00 0.  1.
        -15    1    1    2    0    0 -0.24257094240E+01  0.11993141940E+01 -0.13014735954E+03  0.13018761594E+03  0.17770000000E+01 0.  1.
         15    1    1    2    0    0 -0.85387098187E+01  0.10127360804E+02 -0.30495829798E+03  0.30525103479E+03  0.17770000000E+01 0.  1.
</event>
<event>
 6    1  0.9144256E-004  0.4653822E+03  0.7546771E-02  0.9480786E-01
        -11   -1    0    0    0    0  0.00000000000E+00  0.00000000000E+00  0.50000000000E+03  0.50000000000E+03  0.00000000000E+00 0. -1.
         11   -1    0    0    0    0 -0.00000000000E+00 -0.00000000000E+00 -0.50000000000E+03  0.50000000000E+03  0.00000000000E+00 0.  1.
        -11    1    1    2    0    0 -0.21832478682E+01  0.22858996490E+02  0.47353424037E+03  0.47409068447E+03  0.00000000000E+00 0. -1.
         11    1    1    2    0    0  0.14118967301E+02  0.73183504626E+01 -0.45710754979E+03  0.45738410070E+03  0.00000000000E+00 0.  1.
        -15    1    1    2    0    0 -0.30796406529E+02 -0.48808555333E+01 -0.19425162715E+02  0.36779560646E+02  0.17770000000E+01 0.  1.
         15    1    1    2    0    0  0.18860687096E+02 -0.25296491419E+02  0.29984721358E+01  0.31745654190E+02  0.17770000000E+01 0. -1.
</event>
<event>
 6    1  0.9144256E-004  0.5004669E+03  0.7546771E-02  0.9398766E-01
        -11   -1    0    0    0    0  0.00000000000E+00  0.00000000000E+00  0.50000000000E+03  0.50000000000E+03  0.00000000000E+00 0. -1.
         11   -1    0    0    0    0 -0.00000000000E+00 -0.00000000000E+00 -0.50000000000E+03  0.50000000000E+03  0.00000000000E+00 0.  1.
        -11    1    1    2    0    0  0.10029528785E+02  0.12157914590E+00  0.55978290813E+02  0.56869809842E+02  0.00000000000E+00 0. -1.
         11    1    1    2    0    0 -0.10240805257E+02  0.17519927708E+01 -0.49942501046E+03  0.49953306662E+03  0.00000000000E+00 0.  1.
        -15    1    1    2    0    0 -0.48015067002E+01 -0.15783113595E+01  0.13799279577E+03  0.13809675936E+03  0.17770000000E+01 0.  1.
         15    1    1    2    0    0  0.50127831719E+01 -0.29526055726E+00  0.30545392388E+03  0.30550036418E+03  0.17770000000E+01 0. -1.
</event>
<event>
 6    1  0.9144256E-004  0.5008765E+03  0.7546771E-02  0.9397851E-01
        -11   -1    0    0    0    0  0.00000000000E+00  0.00000000000E+00  0.50000000000E+03  0.50000000000E+03  0.00000000000E+00 0.  1.
         11   -1    0    0    0    0 -0.00000000000E+00 -0.00000000000E+00 -0.50000000000E+03  0.50000000000E+03  0.00000000000E+00 0.  1.
        -11    1    1    2    0    0  0.73742106093E+01 -0.17779956948E+01  0.49906583713E+03  0.49912348175E+03  0.00000000000E+00 0.  1.
         11    1    1    2    0    0 -0.76867543730E+01 -0.23300068822E+01 -0.48259181735E+03  0.48265865506E+03  0.00000000000E+00 0.  1.
        -15    1    1    2    0    0  0.26442981433E+01  0.34510884467E+01 -0.87653601118E+01  0.99444251230E+01  0.17770000000E+01 0. -1.
         15    1    1    2    0    0 -0.23317543796E+01  0.65691413029E+00 -0.77086596626E+01  0.82734380674E+01  0.17770000000E+01 0.  1.
</event>
<event>
 6    1  0.9144256E-004  0.3273619E+03  0.7546771E-02  0.9899317E-01
        -11   -1    0    0    0    0  0.00000000000E+00  0.00000000000E+00  0.50000000000E+03  0.50000000000E+03  0.00000000000E+00 0. -1.
         11   -1    0    0    0    0 -0.00000000000E+00 -0.00000000000E+00 -0.50000000000E+03  0.50000000000E+03  0.00000000000E+00 0.  1.
        -11    1    1    2    0    0  0.23539600838E+03 -0.43760908253E+02  0.24696283244E+03  0.34397229316E+03  0.00000000000E+00 0. -1.
         11    1    1    2    0    0 -0.90991155850E+00 -0.65666445904E+01 -0.36278770580E+03  0.36284827165E+03  0.00000000000E+00 0.  1.
        -15    1    1    2    0    0 -0.20761883600E+03  0.75600852866E+02  0.12666486103E+03  0.25469239244E+03  0.17770000000E+01 0. -1.
         15    1    1    2    0    0 -0.26867260827E+02 -0.25273300022E+02 -0.10839987670E+02  0.38487042755E+02  0.17770000000E+01 0.  1.
</event>
<event>
 6    1  0.9144256E-004  0.5055608E+03  0.7546771E-02  0.9387452E-01
        -11   -1    0    0    0    0  0.00000000000E+00  0.00000000000E+00  0.50000000000E+03  0.50000000000E+03  0.00000000000E+00 0. -1.
         11   -1    0    0    0    0 -0.00000000000E+00 -0.00000000000E+00 -0.50000000000E+03  0.50000000000E+03  0.00000000000E+00 0. -1.
        -11    1    1    2    0    0  0.21721880880E+02  0.50872433035E+01  0.44332914136E+03  0.44389013025E+03  0.00000000000E+00 0. -1.
         11    1    1    2    0    0  0.66073621702E+01 -0.38840065906E+01 -0.49437982139E+03  0.49443922836E+03  0.00000000000E+00 0. -1.
        -15    1    1    2    0    0 -0.17670797481E+02 -0.54867909618E+01  0.44732404450E+02  0.48440764812E+02  0.17770000000E+01 0. -1.
         15    1    1    2    0    0 -0.10658445569E+02  0.42835542488E+01  0.63182755832E+01  0.13229876579E+02  0.17770000000E+01 0.  1.
</event>
<event>
 6    1  0.9144256E-004  0.5009960E+03  0.7546771E-02  0.9397584E-01
        -11   -1    0    0    0    0  0.00000000000E+00  0.00000000000E+00  0.50000000000E+03  0.50000000000E+03  0.00000000000E+00 0.  1.
         11   -1    0    0    0    0 -0.00000000000E+00 -0.00000000000E+00 -0.50000000000E+03  0.50000000000E+03  0.00000000000E+00 0. -1.
        -11    1    1    2    0    0 -0.24843976277E+01  0.16898115921E+02  0.49871161261E+03  0.49900399909E+03  0.00000000000E+00 0.  1.
         11    1    1    2    0    0 -0.47831004483E+01 -0.55560840153E+01 -0.36917644125E+03  0.36924922870E+03  0.00000000000E+00 0. -1.
        -15    1    1    2    0    0 -0.64676971839E+01 -0.35110391405E+01 -0.29590777434E+02  0.30543908408E+02  0.17770000000E+01 0.  1.
         15    1    1    2    0    0  0.13735195260E+02 -0.78309927651E+01 -0.99944393922E+02  0.10120286380E+03  0.17770000000E+01 0. -1.
</event>
<event>
 6    1  0.9144256E-004  0.4813816E+03  0.7546771E-02  0.9442461E-01
        -11   -1    0    0    0    0  0.00000000000E+00  0.00000000000E+00  0.50000000000E+03  0.50000000000E+03  0.00000000000E+00 0. -1.
         11   -1    0    0    0    0 -0.00000000000E+00 -0.00000000000E+00 -0.50000000000E+03  0.50000000000E+03  0.00000000000E+00 0. -1.
        -11    1    1    2    0    0  0.36230228002E+02 -0.57505050622E+01 -0.11084883533E+02  0.38321956793E+02  0.00000000000E+00 0. -1.
         11    1    1    2    0    0 -0.46096662889E+02  0.12844601037E+02 -0.47309801024E+03  0.47551194875E+03  0.00000000000E+00 0. -1.
        -15    1    1    2    0    0  0.25005255662E+02 -0.91432362844E+01  0.23523753864E+03  0.23674610640E+03  0.17770000000E+01 0. -1.
         15    1    1    2    0    0 -0.15138820775E+02  0.20491403095E+01  0.24894535514E+03  0.24941998806E+03  0.17770000000E+01 0.  1.
</event>
<event>
 6    1  0.9144256E-004  0.5008456E+03  0.7546771E-02  0.9397920E-01
        -11   -1    0    0    0    0  0.00000000000E+00  0.00000000000E+00  0.50000000000E+03  0.50000000000E+03  0.00000000000E+00 0.  1.
         11   -1    0    0    0    0 -0.00000000000E+00 -0.00000000000E+00 -0.50000000000E+03  0.50000000000E+03  0.00000000000E+00 0.  1.
        -11    1    1    2    0    0  0.38145731180E+02 -0.32622308242E+02  0.32238423807E+03  0.32626815468E+03  0.00000000000E+00 0.  1.
         11    1    1    2    0    0 -0.32252890176E+02  0.37057484764E+02 -0.49673093087E+03  0.49915440876E+03  0.00000000000E+00 0.  1.
        -15    1    1    2    0    0 -0.11158621182E+01 -0.12322417825E+01  0.81189454128E+02  0.81225911867E+02  0.17770000000E+01 0. -1.
         15    1    1    2    0    0 -0.47769788855E+01 -0.32029347391E+01  0.93157238664E+02  0.93351524694E+02  0.17770000000E+01 0. -1.
</event>
<event>
 6    1  0.9144256E-004  0.5017460E+03  0.7546771E-02  0.9395911E-01
        -11   -1    0    0    0    0  0.00000000000E+00  0.00000000000E+00  0.50000000000E+03  0.50000000000E+03  0.00000000000E+00 0.  1.
         11   -1    0    0    0    0 -0.00000000000E+00 -0.00000000000E+00 -0.50000000000E+03  0.50000000000E+03  0.00000000000E+00 0. -1.
        -11    1    1    2    0    0  0.19111567405E+02 -0.20765558046E+01  0.35920059144E+03  0.35971464939E+03  0.00000000000E+00 0.  1.
         11    1    1    2    0    0  0.59376547924E+01  0.91014718954E+01 -0.49813546174E+03  0.49825398220E+03  0.00000000000E+00 0. -1.
        -15    1    1    2    0    0 -0.24867403225E+01 -0.33563915472E+01  0.89019699860E+01  0.99925992755E+01  0.17770000000E+01 0.  1.
         15    1    1    2    0    0 -0.22562481875E+02 -0.36685245436E+01  0.13003290032E+03  0.13203876913E+03  0.17770000000E+01 0. -1.
</event>
<event>
 6    1  0.9144256E-004  0.5007537E+03  0.7546771E-02  0.9398125E-01
        -11   -1    0    0    0    0  0.00000000000E+00  0.00000000000E+00  0.50000000000E+03  0.50000000000E+03  0.00000000000E+00 0.  1.
         11   -1    0    0    0    0 -0.00000000000E+00 -0.00000000000E+00 -0.50000000000E+03  0.50000000000E+03  0.00000000000E+00 0. -1.
        -11    1    1    2    0    0 -0.43527773312E+01  0.94280002305E+01  0.32757400522E+03  0.32773855854E+03  0.00000000000E+00 0.  1.
         11    1    1    2    0    0  0.13388531551E+01  0.10274763892E+02 -0.49913875518E+03  0.49924629215E+03  0.00000000000E+00 0. -1.
        -15    1    1    2    0    0  0.43696784926E+01 -0.95792301134E+01  0.57721153839E+02  0.58700469072E+02  0.17770000000E+01 0. -1.
         15    1    1    2    0    0 -0.13557543165E+01 -0.10123534009E+02  0.11384359613E+03  0.11431468024E+03  0.17770000000E+01 0.  1.
</event>
<event>
 6    1  0.9144256E-004  0.5007407E+03  0.7546771E-02  0.9398154E-01
        -11   -1    0    0    0    0  0.00000000000E+00  0.00000000000E+00  0.50000000000E+03  0.50000000000E+03  0.00000000000E+00 0.  1.
         11   -1    0    0    0    0 -0.00000000000E+00 -0.00000000000E+00 -0.50000000000E+03  0.50000000000E+03  0.00000000000E+00 0. -1.
        -11    1    1    2    0    0  0.54679586697E+02  0.46509578487E+01  0.49623419051E+03  0.49925931183E+03  0.00000000000E+00 0.  1.
         11    1    1    2    0    0 -0.16370226478E+02  0.50691760306E+01 -0.27950380888E+03  0.28002867717E+03  0.00000000000E+00 0. -1.
        -15    1    1    2    0    0 -0.35587721543E+02 -0.53717755354E+01 -0.19584745696E+03  0.19913494425E+03  0.17770000000E+01 0.  1.
         15    1    1    2    0    0 -0.27216386754E+01 -0.43483583439E+01 -0.20882924680E+02  0.21577066751E+02  0.17770000000E+01 0. -1.
</event>
<event>
 6    1  0.9144256E-004  0.5051320E+03  0.7546771E-02  0.9388399E-01
        -11   -1    0    0    0    0  0.00000000000E+00  0.00000000000E+00  0.50000000000E+03  0.50000000000E+03  0.00000000000E+00 0.  1.
         11   -1    0    0    0    0 -0.00000000000E+00 -0.00000000000E+00 -0.50000000000E+03  0.50000000000E+03  0.00000000000E+00 0.  1.
        -11    1    1    2    0    0 -0.22950447515E+01  0.85741055892E+01  0.47703266584E+03  0.47711523429E+03  0.00000000000E+00 0.  1.
         11    1    1    2    0    0 -0.42004519254E+01  0.10402467086E+02 -0.49474086414E+03  0.49486804076E+03  0.00000000000E+00 0.  1.
        -15    1    1    2    0    0  0.35094401037E+01 -0.31772564538E+01  0.19098647342E+01  0.54052234660E+01  0.17770000000E+01 0. -1.
         15    1    1    2    0    0  0.29860565732E+01 -0.15799316222E+02  0.15798333565E+02  0.22611501484E+02  0.17770000000E+01 0.  1.
</event>
<event>
 6    1  0.9144256E-004  0.5011918E+03  0.7546771E-02  0.9397147E-01
        -11   -1    0    0    0    0  0.00000000000E+00  0.00000000000E+00  0.50000000000E+03  0.50000000000E+03  0.00000000000E+00 0.  1.
         11   -1    0    0    0    0 -0.00000000000E+00 -0.00000000000E+00 -0.50000000000E+03  0.50000000000E+03  0.00000000000E+00 0.  1.
        -11    1    1    2    0    0 -0.95854133155E+01 -0.95636969202E+00  0.42387846952E+03  0.42398791458E+03  0.00000000000E+00 0.  1.
         11    1    1    2    0    0 -0.50437733476E+01  0.62411435145E+01 -0.49874365501E+03  0.49880820456E+03  0.00000000000E+00 0.  1.
        -15    1    1    2    0    0  0.84237120838E+01 -0.18629985626E+01  0.59970725376E+02  0.60614151154E+02  0.17770000000E+01 0.  1.
         15    1    1    2    0    0  0.62054745793E+01 -0.34217752598E+01  0.14894460112E+02  0.16589729706E+02  0.17770000000E+01 0. -1.
</event>
<event>
 6    1  0.9144256E-004  0.5012142E+03  0.7546771E-02  0.9397097E-01
        -11   -1    0    0    0    0  0.00000000000E+00  0.00000000000E+00  0.50000000000E+03  0.50000000000E+03  0.00000000000E+00 0. -1.
         11   -1    0    0    0    0 -0.00000000000E+00 -0.00000000000E+00 -0.50000000000E+03  0.50000000000E+03  0.00000000000E+00 0.  1.
        -11    1    1    2    0    0 -0.29069623478E+01 -0.91077744874E+01  0.40869720707E+03  0.40880901293E+03  0.00000000000E+00 0. -1.
         11    1    1    2    0    0 -0.95195135282E+00 -0.67193832808E+01 -0.49873964690E+03  0.49878581748E+03  0.00000000000E+00 0.  1.
        -15    1    1    2    0    0 -0.44893924321E+01  0.57346387467E+01  0.35660382677E+02  0.36439831883E+02  0.17770000000E+01 0.  1.
         15    1    1    2    0    0  0.83483061327E+01  0.10092519021E+02  0.54382057153E+02  0.55965337707E+02  0.17770000000E+01 0. -1.
</event>
<event>
 6    1  0.9144256E-004  0.4665307E+03  0.7546771E-02  0.9477981E-01
        -11   -1    0    0    0    0  0.00000000000E+00  0.00000000000E+00  0.50000000000E+03  0.50000000000E+03  0.00000000000E+00 0.  1.
         11   -1    0    0    0    0 -0.00000000000E+00 -0.00000000000E+00 -0.50000000000E+03  0.50000000000E+03  0.00000000000E+00 0.  1.
        -11    1    1    2    0    0 -0.47780605837E+02 -0.24582809491E+02 -0.36467648946E+02  0.64939897107E+02  0.00000000000E+00 0.  1.
         11    1    1    2    0    0  0.77861584286E+02  0.60275676894E+02 -0.44262648217E+03  0.45344656383E+03  0.00000000000E+00 0.  1.
        -15    1    1    2    0    0 -0.22367347518E+01 -0.76659544149E+01  0.13639345236E+03  0.13663857953E+03  0.17770000000E+01 0. -1.
         15    1    1    2    0    0 -0.27844243697E+02 -0.28026912988E+02  0.34270067875E+03  0.34497495953E+03  0.17770000000E+01 0.  1.
</event>
<event>
 6    1  0.9144256E-004  0.5001880E+03  0.7546771E-02  0.9399389E-01
        -11   -1    0    0    0    0  0.00000000000E+00  0.00000000000E+00  0.50000000000E+03  0.50000000000E+03  0.00000000000E+00 0. -1.
         11   -1    0    0    0    0 -0.00000000000E+00 -0.00000000000E+00 -0.50000000000E+03  0.50000000000E+03  0.00000000000E+00 0.  1.
        -11    1    1    2    0    0 -0.12147646512E+02 -0.85883571958E+00  0.20154182832E+03  0.20190941403E+03  0.00000000000E+00 0. -1.
         11    1    1    2    0    0  0.73867487789E+01  0.17201435791E+01 -0.49975446893E+03  0.49981201683E+03  0.00000000000E+00 0.  1.
        -15    1    1    2    0    0  0.34336628286E+01  0.37486792297E-01  0.19283719727E+03  0.19287595450E+03  0.17770000000E+01 0. -1.
         15    1    1    2    0    0  0.13272349044E+01 -0.89879465178E+00  0.10537544334E+03  0.10540261464E+03  0.17770000000E+01 0. -1.
</event>
<event>
 6    1  0.9144256E-004  0.4808897E+03  0.7546771E-02  0.9443616E-01
        -11   -1    0    0    0    0  0.00000000000E+00  0.00000000000E+00  0.50000000000E+03  0.50000000000E+03  0.00000000000E+00 0.  1.
         11   -1    0    0    0    0 -0.00000000000E+00 -0.00000000000E+00 -0.50000000000E+03  0.50000000000E+03  0.00000000000E+00 0. -1.
        -11    1    1    2    0    0  0.21479619696E+00  0.13048022895E+02  0.47942067005E+03  0.47959824427E+03  0.00000000000E+00 0.  1.
         11    1    1    2    0    0 -0.85843182402E+01  0.15170296235E+02 -0.48232092682E+03  0.48263578903E+03  0.00000000000E+00 0. -1.
        -15    1    1    2    0    0 -0.24711720871E+01  0.15804451883E+00 -0.54219486025E+01  0.62198814460E+01  0.17770000000E+01 0.  1.
         15    1    1    2    0    0  0.10840694130E+02 -0.28376363649E+02  0.83222053742E+01  0.31546085247E+02  0.17770000000E+01 0. -1.
</event>
<event>
 6    1  0.9144256E-004  0.5020612E+03  0.7546771E-02  0.9395209E-01
        -11   -1    0    0    0    0  0.00000000000E+00  0.00000000000E+00  0.50000000000E+03  0.50000000000E+03  0.00000000000E+00 0.  1.
         11   -1    0    0    0    0 -0.00000000000E+00 -0.00000000000E+00 -0.50000000000E+03  0.50000000000E+03  0.00000000000E+00 0.  1.
        -11    1    1    2    0    0 -0.70770454847E+01  0.18505257093E+02  0.44983382340E+03  0.45026991659E+03  0.00000000000E+00 0.  1.
         11    1    1    2    0    0  0.98192215607E+01 -0.17624378593E+01 -0.49783883599E+03  0.49793878130E+03  0.00000000000E+00 0.  1.
        -15    1    1    2    0    0 -0.26516049397E+01 -0.11764677737E+02  0.42264734246E+02  0.43987545293E+02  0.17770000000E+01 0. -1.
         15    1    1    2    0    0 -0.90571136253E-01 -0.49781414962E+01  0.57402783459E+01  0.78037568116E+01  0.17770000000E+01 0.  1.
</event>
<event>
 6    1  0.9144256E-004  0.5008308E+03  0.7546771E-02  0.9397953E-01
        -11   -1    0    0    0    0  0.00000000000E+00  0.00000000000E+00  0.50000000000E+03  0.50000000000E+03  0.00000000000E+00 0. -1.
         11   -1    0    0    0    0 -0.00000000000E+00 -0.00000000000E+00 -0.50000000000E+03  0.50000000000E+03  0.00000000000E+00 0. -1.
        -11    1    1    2    0    0 -0.15454549858E+02 -0.18109958859E+02  0.27853438290E+03  0.27955002446E+03  0.00000000000E+00 0. -1.
         11    1    1    2    0    0  0.15290564000E+02  0.49173893511E+01 -0.49891076782E+03  0.49916924616E+03  0.00000000000E+00 0. -1.
        -15    1    1    2    0    0 -0.51985870414E+01 -0.13458200377E+00  0.56936767569E+02  0.57201369300E+02  0.17770000000E+01 0.  1.
         15    1    1    2    0    0  0.53625728988E+01  0.13327151511E+02  0.16343961735E+03  0.16407936008E+03  0.17770000000E+01 0. -1.
</event>
<event>
 6    1  0.9144256E-004  0.5008664E+03  0.7546771E-02  0.9397873E-01
        -11   -1    0    0    0    0  0.00000000000E+00  0.00000000000E+00  0.50000000000E+03  0.50000000000E+03  0.00000000000E+00 0. -1.
         11   -1    0    0    0    0 -0.00000000000E+00 -0.00000000000E+00 -0.50000000000E+03  0.50000000000E+03  0.00000000000E+00 0.  1.
        -11    1    1    2    0    0  0.69243819908E+01 -0.73016340951E+01  0.29153035635E+02  0.30840888657E+02  0.00000000000E+00 0. -1.
         11    1    1    2    0    0  0.22103335682E+01  0.97236312820E+01 -0.49903401117E+03  0.49913362828E+03  0.00000000000E+00 0.  1.
        -15    1    1    2    0    0 -0.13196324195E+01 -0.28304833651E+01  0.12875649497E+03  0.12880662169E+03  0.17770000000E+01 0. -1.
         15    1    1    2    0    0 -0.78150831395E+01  0.40848617808E+00  0.34112448057E+03  0.34121886137E+03  0.17770000000E+01 0. -1.
</event>
<event>
 6    1  0.9144256E-004  0.5078702E+03  0.7546771E-02  0.9382370E-01
        -11   -1    0    0    0    0  0.00000000000E+00  0.00000000000E+00  0.50000000000E+03  0.50000000000E+03  0.00000000000E+00 0. -1.
         11   -1    0    0    0    0 -0.00000000000E+00 -0.00000000000E+00 -0.50000000000E+03  0.50000000000E+03  0.00000000000E+00 0.  1.
        -11    1    1    2    0    0 -0.10133347312E+03 -0.71282451278E+02  0.32089498542E+03  0.34398147088E+03  0.00000000000E+00 0. -1.
         11    1    1    2    0    0  0.89297239246E+02  0.44341680489E+02 -0.48192484831E+03  0.49212980095E+03  0.00000000000E+00 0.  1.
        -15    1    1    2    0    0  0.18049473840E+01  0.11394387030E+02  0.68787059712E+02  0.69770389161E+02  0.17770000000E+01 0.  1.
         15    1    1    2    0    0  0.10231286490E+02  0.15546383759E+02  0.92242803176E+02  0.94118339010E+02  0.17770000000E+01 0. -1.
</event>
<event>
 6    1  0.9144256E-004  0.5009223E+03  0.7546771E-02  0.9397748E-01
        -11   -1    0    0    0    0  0.00000000000E+00  0.00000000000E+00  0.50000000000E+03  0.50000000000E+03  0.00000000000E+00 0.  1.
         11   -1    0    0    0    0 -0.00000000000E+00 -0.00000000000E+00 -0.50000000000E+03  0.50000000000E+03  0.00000000000E+00 0. -1.
        -11    1    1    2    0    0  0.37534014325E+01  0.11671162975E+02  0.31258266435E+03  0.31282299487E+03  0.00000000000E+00 0.  1.
         11    1    1    2    0    0 -0.17813102822E+01  0.12264911238E+02 -0.49892376524E+03  0.49907767395E+03  0.00000000000E+00 0. -1.
        -15    1    1    2    0    0 -0.22669502132E+01 -0.73509129072E+01  0.37231910591E+02  0.38059793472E+02  0.17770000000E+01 0.  1.
         15    1    1    2    0    0  0.29485906293E+00 -0.16585161306E+02  0.14910919029E+03  0.15003953771E+03  0.17770000000E+01 0. -1.
</event>
<event>
 6    1  0.9144256E-004  0.5001639E+03  0.7546771E-02  0.9399443E-01
        -11   -1    0    0    0    0  0.00000000000E+00  0.00000000000E+00  0.50000000000E+03  0.50000000000E+03  0.00000000000E+00 0.  1.
         11   -1    0    0    0    0 -0.00000000000E+00 -0.00000000000E+00 -0.50000000000E+03  0.50000000000E+03  0.00000000000E+00 0.  1.
        -11    1    1    2    0    0 -0.63667390659E+01  0.11239044847E+02  0.49966918044E+03  0.49983611452E+03  0.00000000000E+00 0.  1.
         11    1    1    2    0    0 -0.11950554796E+01  0.25030762110E+01 -0.17233164413E+03  0.17235396461E+03  0.00000000000E+00 0.  1.
        -15    1    1    2    0    0  0.44837874678E+01 -0.10025182280E+02 -0.27380782986E+03  0.27403374620E+03  0.17770000000E+01 0. -1.
         15    1    1    2    0    0  0.30780070777E+01 -0.37169387776E+01 -0.53529706448E+02  0.53776174676E+02  0.17770000000E+01 0.  1.
</event>
<event>
 6    1  0.9144256E-004  0.5011323E+03  0.7546771E-02  0.9397280E-01
        -11   -1    0    0    0    0  0.00000000000E+00  0.00000000000E+00  0.50000000000E+03  0.50000000000E+03  0.00000000000E+00 0.  1.
         11   -1    0    0    0    0 -0.00000000000E+00 -0.00000000000E+00 -0.50000000000E+03  0.50000000000E+03  0.00000000000E+00 0. -1.
        -11    1    1    2    0    0  0.15148663893E+01 -0.77722535762E+01  0.49880485137E+03  0.49886770039E+03  0.00000000000E+00 0.  1.
         11    1    1    2    0    0 -0.53324946818E+01 -0.91118657785E+01 -0.41207046462E+03  0.41220568823E+03  0.00000000000E+00 0. -1.
        -15    1    1    2    0    0  0.37157913225E+01  0.95332621039E+01 -0.66860621952E+02  0.67662328428E+02  0.17770000000E+01 0. -1.
         15    1    1    2    0    0  0.10183697007E+00  0.73508572508E+01 -0.19873764796E+02  0.21264282947E+02  0.17770000000E+01 0.  1.
</event>
<event>
 6    1  0.9144256E-004  0.5013876E+03  0.7546771E-02  0.9396710E-01
        -11   -1    0    0    0    0  0.00000000000E+00  0.00000000000E+00  0.50000000000E+03  0.50000000000E+03  0.00000000000E+00 0.  1.
         11   -1    0    0    0    0 -0.00000000000E+00 -0.00000000000E+00 -0.50000000000E+03  0.50000000000E+03  0.00000000000E+00 0.  1.
        -11    1    1    2    0    0 -0.39336337627E+01  0.91210081255E+01  0.45345942963E+03  0.45356820941E+03  0.00000000000E+00 0.  1.
         11    1    1    2    0    0  0.58706476349E+01  0.33556416808E+01 -0.49856654284E+03  0.49861239703E+03  0.00000000000E+00 0.  1.
        -15    1    1    2    0    0 -0.18286004854E+01  0.62906621187E+00  0.84859215107E+01  0.88830229607E+01  0.17770000000E+01 0. -1.
         15    1    1    2    0    0 -0.10841338667E+00 -0.13105716018E+02  0.36621191691E+02  0.38936370603E+02  0.17770000000E+01 0.  1.
</event>
<event>
 6    1  0.9144256E-004  0.5053326E+03  0.7546771E-02  0.9387956E-01
        -11   -1    0    0    0    0  0.00000000000E+00  0.00000000000E+00  0.50000000000E+03  0.50000000000E+03  0.00000000000E+00 0. -1.
         11   -1    0    0    0    0 -0.00000000000E+00 -0.00000000000E+00 -0.50000000000E+03  0.50000000000E+03  0.00000000000E+00 0. -1.
        -11    1    1    2    0    0  0.74962442389E+00 -0.15689345347E+02  0.48140880895E+03  0.48166498609E+03  0.00000000000E+00 0. -1.
         11    1    1    2    0    0 -0.66427342642E+01 -0.15800744762E+01 -0.49462022643E+03  0.49466735383E+03  0.00000000000E+00 0. -1.
        -15    1    1    2    0    0  0.55448390023E+01  0.74506819426E+01  0.81004196888E+01  0.12451201914E+02  0.17770000000E+01 0. -1.
         15    1    1    2    0    0  0.34827083792E+00  0.98187378811E+01  0.51109977937E+01  0.11216458158E+02  0.17770000000E+01 0.  1.
</event>
<event>
 6    1  0.9144256E-004  0.5036168E+03  0.7546771E-02  0.9391753E-01
        -11   -1    0    0    0    0  0.00000000000E+00  0.00000000000E+00  0.50000000000E+03  0.50000000000E+03  0.00000000000E+00 0.  1.
         11   -1    0    0    0    0 -0.00000000000E+00 -0.00000000000E+00 -0.50000000000E+03  0.50000000000E+03  0.00000000000E+00 0. -1.
        -11    1    1    2    0    0 -0.36516093827E+01 -0.12650004633E+02  0.47541421438E+03  0.47559650135E+03  0.00000000000E+00 0.  1.
         11    1    1    2    0    0  0.12459734726E+02 -0.12603254044E+01 -0.49622514902E+03  0.49638315033E+03  0.00000000000E+00 0. -1.
        -15    1    1    2    0    0 -0.18335480979E+01  0.80820307622E+01  0.14558631036E+02  0.16846144559E+02  0.17770000000E+01 0. -1.
         15    1    1    2    0    0 -0.69745772459E+01  0.58282992755E+01  0.62523036088E+01  0.11174203758E+02  0.17770000000E+01 0.  1.
</event>
<event>
 6    1  0.9144256E-004  0.4741271E+03  0.7546771E-02  0.9459639E-01
        -11   -1    0    0    0    0  0.00000000000E+00  0.00000000000E+00  0.50000000000E+03  0.50000000000E+03  0.00000000000E+00 0. -1.
         11   -1    0    0    0    0 -0.00000000000E+00 -0.00000000000E+00 -0.50000000000E+03  0.50000000000E+03  0.00000000000E+00 0.  1.
        -11    1    1    2    0    0 -0.44525277636E+02  0.53001556469E+00  0.48011917323E+03  0.48217963641E+03  0.00000000000E+00 0. -1.
         11    1    1    2    0    0  0.10339460158E+02  0.97348573636E+00 -0.46667159523E+03  0.46678713554E+03  0.00000000000E+00 0.  1.
        -15    1    1    2    0    0  0.30193077471E+02  0.14051171970E+01 -0.24401131095E+02  0.38886619925E+02  0.17770000000E+01 0.  1.
         15    1    1    2    0    0  0.39927400075E+01 -0.29086184981E+01  0.10953553097E+02  0.12146608118E+02  0.17770000000E+01 0. -1.
</event>
<event>
 6    1  0.9144256E-004  0.5000478E+03  0.7546771E-02  0.9399703E-01
        -11   -1    0    0    0    0  0.00000000000E+00  0.00000000000E+00  0.50000000000E+03  0.50000000000E+03  0.00000000000E+00 0. -1.
         11   -1    0    0    0    0 -0.00000000000E+00 -0.00000000000E+00 -0.50000000000E+03  0.50000000000E+03  0.00000000000E+00 0.  1.
        -11    1    1    2    0    0 -0.94025240555E+01 -0.14307509131E+02  0.49965895639E+03  0.49995218269E+03  0.00000000000E+00 0. -1.
         11    1    1    2    0    0  0.42392683810E+00  0.27280732293E+01 -0.15040498131E+03  0.15043031776E+03  0.00000000000E+00 0.  1.
        -15    1    1    2    0    0  0.35880858182E+01  0.29673069619E+01 -0.72317858836E+02  0.72489376505E+02  0.17770000000E+01 0. -1.
         15    1    1    2    0    0  0.53905113991E+01  0.86121289400E+01 -0.27693611624E+03  0.27712812305E+03  0.17770000000E+01 0.  1.
</event>
<event>
 6    1  0.9144256E-004  0.5008700E+03  0.7546771E-02  0.9397865E-01
        -11   -1    0    0    0    0  0.00000000000E+00  0.00000000000E+00  0.50000000000E+03  0.50000000000E+03  0.00000000000E+00 0. -1.
         11   -1    0    0    0    0 -0.00000000000E+00 -0.00000000000E+00 -0.50000000000E+03  0.50000000000E+03  0.00000000000E+00 0. -1.
        -11    1    1    2    0    0  0.67115700979E+01  0.16511657043E+02  0.38997914508E+03  0.39038623642E+03  0.00000000000E+00 0. -1.
         11    1    1    2    0    0  0.28269387461E+01 -0.66384283442E+01 -0.49907784493E+03  0.49912999871E+03  0.00000000000E+00 0. -1.
        -15    1    1    2    0    0 -0.23999969429E+01  0.17195439493E+01  0.15139191270E+02  0.15526418068E+02  0.17770000000E+01 0. -1.
         15    1    1    2    0    0 -0.71385119011E+01 -0.11592772649E+02  0.93959508581E+02  0.94957346802E+02  0.17770000000E+01 0.  1.
</event>
<event>
 6    1  0.9144256E-004  0.5001004E+03  0.7546771E-02  0.9399585E-01
        -11   -1    0    0    0    0  0.00000000000E+00  0.00000000000E+00  0.50000000000E+03  0.50000000000E+03  0.00000000000E+00 0. -1.
         11   -1    0    0    0    0 -0.00000000000E+00 -0.00000000000E+00 -0.50000000000E+03  0.50000000000E+03  0.00000000000E+00 0.  1.
        -11    1    1    2    0    0 -0.16946316723E+02 -0.74389114023E+01  0.49955692703E+03  0.49989962832E+03  0.00000000000E+00 0. -1.
         11    1    1    2    0    0 -0.96901808488E-01 -0.89378583657E+00 -0.23202323997E+02  0.23219734752E+02  0.00000000000E+00 0.  1.
        -15    1    1    2    0    0  0.12504526181E+02  0.42509054804E+01 -0.19529818369E+03  0.19575232222E+03  0.17770000000E+01 0.  1.
         15    1    1    2    0    0  0.45386923501E+01  0.40817917584E+01 -0.28105641934E+03  0.28112831471E+03  0.17770000000E+01 0. -1.
</event>
<event>
 6    1  0.9144256E-004  0.5013133E+03  0.7546771E-02  0.9396876E-01
        -11   -1    0    0    0    0  0.00000000000E+00  0.00000000000E+00  0.50000000000E+03  0.50000000000E+03  0.00000000000E+00 0.  1.
         11   -1    0    0    0    0 -0.00000000000E+00 -0.00000000000E+00 -0.50000000000E+03  0.50000000000E+03  0.00000000000E+00 0. -1.
        -11    1    1    2    0    0  0.46603044751E+02  0.14716084188E+02  0.49628617877E+03  0.49868665327E+03  0.00000000000E+00 0.  1.
         11    1    1    2    0    0 -0.95775093707E+00 -0.30575881131E+01 -0.13904586919E+03  0.13908278064E+03  0.00000000000E+00 0. -1.
        -15    1    1    2    0    0 -0.17541389110E+02  0.97253322813E+01 -0.20265721322E+03  0.20365506676E+03  0.17770000000E+01 0.  1.
         15    1    1    2    0    0 -0.28103904704E+02 -0.21383828356E+02 -0.15458309637E+03  0.15857549932E+03  0.17770000000E+01 0. -1.
</event>
<event>
 6    1  0.9144256E-004  0.5002768E+03  0.7546771E-02  0.9399191E-01
        -11   -1    0    0    0    0  0.00000000000E+00  0.00000000000E+00  0.50000000000E+03  0.50000000000E+03  0.00000000000E+00 0. -1.
         11   -1    0    0    0    0 -0.00000000000E+00 -0.00000000000E+00 -0.50000000000E+03  0.50000000000E+03  0.00000000000E+00 0.  1.
        -11    1    1    2    0    0  0.13513025236E+02 -0.33676769830E+02  0.49840400860E+03  0.49972320585E+03  0.00000000000E+00 0. -1.
         11    1    1    2    0    0 -0.72030586290E+01  0.28425978484E+02 -0.41765667405E+03  0.41868486680E+03  0.00000000000E+00 0.  1.
        -15    1    1    2    0    0 -0.23674787226E+01  0.64271863059E+01 -0.55586278712E+02  0.56034862268E+02  0.17770000000E+01 0.  1.
         15    1    1    2    0    0 -0.39424878846E+01 -0.11763949599E+01 -0.25161055838E+02  0.25557065084E+02  0.17770000000E+01 0.  1.
</event>
<event>
 6    1  0.9144256E-004  0.4917508E+03  0.7546771E-02  0.9418460E-01
        -11   -1    0    0    0    0  0.00000000000E+00  0.00000000000E+00  0.50000000000E+03  0.50000000000E+03  0.00000000000E+00 0. -1.
         11   -1    0    0    0    0 -0.00000000000E+00 -0.00000000000E+00 -0.50000000000E+03  0.50000000000E+03  0.00000000000E+00 0. -1.
        -11    1    1    2    0    0 -0.14950760843E+02 -0.59360481474E+01  0.82486415579E+01  0.18077665915E+02  0.00000000000E+00 0. -1.
         11    1    1    2    0    0  0.12290258095E+02  0.16417344478E+02 -0.49393218271E+03  0.49435774573E+03  0.00000000000E+00 0. -1.
        -15    1    1    2    0    0 -0.14484263442E+02  0.73957393144E+01  0.26115328420E+03  0.26166521822E+03  0.17770000000E+01 0.  1.
         15    1    1    2    0    0  0.17144766190E+02 -0.17877035645E+02  0.22453025695E+03  0.22589937013E+03  0.17770000000E+01 0. -1.
</event>
<event>
 6    1  0.9286749E-004  0.5002055E+03  0.7546771E-02  0.9399350E-01
        -11   -1    0    0    0    0  0.00000000000E+00  0.00000000000E+00  0.50000000000E+03  0.50000000000E+03  0.00000000000E+00 0.  1.
         11   -1    0    0    0    0 -0.00000000000E+00 -0.00000000000E+00 -0.50000000000E+03  0.50000000000E+03  0.00000000000E+00 0. -1.
        -11    1    1    2    0    0  0.63213442287E+01  0.44238401316E+01  0.49973491590E+03  0.49979447369E+03  0.00000000000E+00 0.  1.
         11    1    1    2    0    0 -0.24284095806E+01  0.51716648171E+01 -0.33571124863E+03  0.33575986322E+03  0.00000000000E+00 0. -1.
        -15    1    1    2    0    0 -0.40909479339E+01 -0.68103310755E+01 -0.97305264050E+02  0.97645218036E+02  0.17770000000E+01 0. -1.
         15    1    1    2    0    0  0.19801328572E+00 -0.27851738732E+01 -0.66718403219E+02  0.66800445058E+02  0.17770000000E+01 0.  1.
</event>
<event>
 6    1  0.9144256E-004  0.5047259E+03  0.7546771E-02  0.9389297E-01
        -11   -1    0    0    0    0  0.00000000000E+00  0.00000000000E+00  0.50000000000E+03  0.50000000000E+03  0.00000000000E+00 0. -1.
         11   -1    0    0    0    0 -0.00000000000E+00 -0.00000000000E+00 -0.50000000000E+03  0.50000000000E+03  0.00000000000E+00 0. -1.
        -11    1    1    2    0    0 -0.34779345360E+02 -0.29962602863E+02  0.11834198159E+03  0.12693378211E+03  0.00000000000E+00 0. -1.
         11    1    1    2    0    0  0.58501276405E+02 -0.10557308960E+02 -0.49169358836E+03  0.49527410688E+03  0.00000000000E+00 0. -1.
        -15    1    1    2    0    0 -0.27866869135E+02  0.23379042053E+02  0.18111867055E+03  0.18474380248E+03  0.17770000000E+01 0. -1.
         15    1    1    2    0    0  0.41449380894E+01  0.17140869769E+02  0.19223293622E+03  0.19304830853E+03  0.17770000000E+01 0.  1.
</event>
<event>
 6    1  0.9144256E-004  0.5005494E+03  0.7546771E-02  0.9398581E-01
        -11   -1    0    0    0    0  0.00000000000E+00  0.00000000000E+00  0.50000000000E+03  0.50000000000E+03  0.00000000000E+00 0.  1.
         11   -1    0    0    0    0 -0.00000000000E+00 -0.00000000000E+00 -0.50000000000E+03  0.50000000000E+03  0.00000000000E+00 0. -1.
        -11    1    1    2    0    0 -0.94977991930E+00  0.62943867095E+01  0.18995705868E+02  0.20033926909E+02  0.00000000000E+00 0.  1.
         11    1    1    2    0    0  0.15559057122E+01 -0.70890206175E+01 -0.49939788074E+03  0.49945061652E+03  0.00000000000E+00 0. -1.
        -15    1    1    2    0    0  0.35287895978E+01 -0.26307746551E+01  0.23770517613E+03  0.23775256428E+03  0.17770000000E+01 0.  1.
         15    1    1    2    0    0 -0.41349153907E+01  0.34254085632E+01  0.24269699874E+03  0.24276289229E+03  0.17770000000E+01 0.  1.
</event>
<event>
 6    1  0.9144256E-004  0.5002344E+03  0.7546771E-02  0.9399285E-01
        -11   -1    0    0    0    0  0.00000000000E+00  0.00000000000E+00  0.50000000000E+03  0.50000000000E+03  0.00000000000E+00 0.  1.
         11   -1    0    0    0    0 -0.00000000000E+00 -0.00000000000E+00 -0.50000000000E+03  0.50000000000E+03  0.00000000000E+00 0. -1.
        -11    1    1    2    0    0 -0.18963677559E+01  0.93380796533E+01  0.49967479474E+03  0.49976564152E+03  0.00000000000E+00 0.  1.
         11    1    1    2    0    0  0.64305934487E+01 -0.26229281261E+01 -0.28130058826E+03  0.28138630606E+03  0.00000000000E+00 0. -1.
        -15    1    1    2    0    0  0.37830015319E+01 -0.18363116293E+01 -0.63685403995E+02  0.63848817938E+02  0.17770000000E+01 0. -1.
         15    1    1    2    0    0 -0.83172272248E+01 -0.48788398979E+01 -0.15468880249E+03  0.15499923449E+03  0.17770000000E+01 0.  1.
</event>
<event>
 6    1  0.9144256E-004  0.4812231E+03  0.7546771E-02  0.9442833E-01
        -11   -1    0    0    0    0  0.00000000000E+00  0.00000000000E+00  0.50000000000E+03  0.50000000000E+03  0.00000000000E+00 0.  1.
         11   -1    0    0    0    0 -0.00000000000E+00 -0.00000000000E+00 -0.50000000000E+03  0.50000000000E+03  0.00000000000E+00 0. -1.
        -11    1    1    2    0    0 -0.16914039960E+02  0.20423327004E+02  0.47438031409E+03  0.47512091032E+03  0.00000000000E+00 0.  1.
         11    1    1    2    0    0 -0.12913830224E+02 -0.83295387094E+01 -0.48771349328E+03  0.48795553050E+03  0.00000000000E+00 0. -1.
        -15    1    1    2    0    0  0.27752747343E+02 -0.10234583142E+02  0.15010107424E+02  0.33217807440E+02  0.17770000000E+01 0.  1.
         15    1    1    2    0    0  0.20751228406E+01 -0.18592051518E+01 -0.16769282348E+01  0.37057517327E+01  0.17770000000E+01 0. -1.
</event>
<event>
 6    1  0.9144256E-004  0.5000715E+03  0.7546771E-02  0.9399650E-01
        -11   -1    0    0    0    0  0.00000000000E+00  0.00000000000E+00  0.50000000000E+03  0.50000000000E+03  0.00000000000E+00 0. -1.
         11   -1    0    0    0    0 -0.00000000000E+00 -0.00000000000E+00 -0.50000000000E+03  0.50000000000E+03  0.00000000000E+00 0. -1.
        -11    1    1    2    0    0 -0.46095812264E+01  0.67389945148E+01  0.49986182041E+03  0.49992849668E+03  0.00000000000E+00 0. -1.
         11    1    1    2    0    0 -0.14713144198E+01  0.20241297704E+01 -0.65122091897E+02  0.65170152067E+02  0.00000000000E+00 0. -1.
        -15    1    1    2    0    0  0.23189747868E+01 -0.63261789952E+01 -0.27898524422E+03  0.27907225302E+03  0.17770000000E+01 0. -1.
         15    1    1    2    0    0  0.37619208593E+01 -0.24369452900E+01 -0.15575448429E+03  0.15582909824E+03  0.17770000000E+01 0. -1.
</event>
<event>
 6    1  0.9144256E-004  0.5009166E+03  0.7546771E-02  0.9397761E-01
        -11   -1    0    0    0    0  0.00000000000E+00  0.00000000000E+00  0.50000000000E+03  0.50000000000E+03  0.00000000000E+00 0. -1.
         11   -1    0    0    0    0 -0.00000000000E+00 -0.00000000000E+00 -0.50000000000E+03  0.50000000000E+03  0.00000000000E+00 0.  1.
        -11    1    1    2    0    0 -0.11539624752E+02 -0.78860438188E+01  0.82669434241E+02  0.83842638224E+02  0.00000000000E+00 0. -1.
         11    1    1    2    0    0  0.11909618591E+01 -0.89252507322E+01 -0.49900218321E+03  0.49908341722E+03  0.00000000000E+00 0.  1.
        -15    1    1    2    0    0  0.73330061047E+01  0.17529408608E+02  0.25962843311E+03  0.26032889612E+03  0.17770000000E+01 0. -1.
         15    1    1    2    0    0  0.30156567885E+01 -0.71811405732E+00  0.15670431586E+03  0.15674504844E+03  0.17770000000E+01 0. -1.
</event>
<event>
 6    1  0.9144256E-004  0.5131135E+03  0.7546771E-02  0.9370936E-01
        -11   -1    0    0    0    0  0.00000000000E+00  0.00000000000E+00  0.50000000000E+03  0.50000000000E+03  0.00000000000E+00 0. -1.
         11   -1    0    0    0    0 -0.00000000000E+00 -0.00000000000E+00 -0.50000000000E+03  0.50000000000E+03  0.00000000000E+00 0.  1.
        -11    1    1    2    0    0  0.53150221166E+02 -0.40367490399E+02  0.30204690447E+03  0.30933285113E+03  0.00000000000E+00 0. -1.
         11    1    1    2    0    0  0.41716126155E+01 -0.17694182299E+02 -0.48654694544E+03  0.48688645140E+03  0.00000000000E+00 0.  1.
        -15    1    1    2    0    0 -0.52319447198E+02  0.54894632793E+02  0.18188517928E+03  0.19706882410E+03  0.17770000000E+01 0.  1.
         15    1    1    2    0    0 -0.50023865844E+01  0.31670399044E+01  0.26148616965E+01  0.67118733590E+01  0.17770000000E+01 0. -1.
</event>
<event>
 6    1  0.1688360E-003  0.5001167E+03  0.7546771E-02  0.9399549E-01
        -11   -1    0    0    0    0  0.00000000000E+00  0.00000000000E+00  0.50000000000E+03  0.50000000000E+03  0.00000000000E+00 0.  1.
         11   -1    0    0    0    0 -0.00000000000E+00 -0.00000000000E+00 -0.50000000000E+03  0.50000000000E+03  0.00000000000E+00 0. -1.
        -11    1    1    2    0    0 -0.84793460824E+01  0.33237585056E+01  0.49980028513E+03  0.49988325807E+03  0.00000000000E+00 0.  1.
         11    1    1    2    0    0  0.18544294001E+01  0.38100456466E+01 -0.29596527593E+03  0.29599560792E+03  0.00000000000E+00 0. -1.
        -15    1    1    2    0    0  0.40497282074E+01 -0.25486472585E+01 -0.80897302457E+02  0.81058171552E+02  0.17770000000E+01 0.  1.
         15    1    1    2    0    0  0.25751884750E+01 -0.45851568937E+01 -0.12293770675E+03  0.12306296246E+03  0.17770000000E+01 0. -1.
</event>
<event>
 6    1  0.9144256E-004  0.5017333E+03  0.7546771E-02  0.9395940E-01
        -11   -1    0    0    0    0  0.00000000000E+00  0.00000000000E+00  0.50000000000E+03  0.50000000000E+03  0.00000000000E+00 0.  1.
         11   -1    0    0    0    0 -0.00000000000E+00 -0.00000000000E+00 -0.50000000000E+03  0.50000000000E+03  0.00000000000E+00 0. -1.
        -11    1    1    2    0    0  0.20989599952E+02 -0.42467970506E+01  0.49780625449E+03  0.49826666114E+03  0.00000000000E+00 0.  1.
         11    1    1    2    0    0  0.22820037347E+01  0.74035088133E+01 -0.39163817051E+03  0.39171478921E+03  0.00000000000E+00 0. -1.
        -15    1    1    2    0    0 -0.19557823169E+02 -0.89225133990E+01 -0.85098340836E+02  0.87789549688E+02  0.17770000000E+01 0. -1.
         15    1    1    2    0    0 -0.37137805183E+01  0.57658016362E+01 -0.21069743142E+02  0.22228999962E+02  0.17770000000E+01 0.  1.
</event>
<event>
 6    1  0.9144256E-004  0.5019354E+03  0.7546771E-02  0.9395490E-01
        -11   -1    0    0    0    0  0.00000000000E+00  0.00000000000E+00  0.50000000000E+03  0.50000000000E+03  0.00000000000E+00 0.  1.
         11   -1    0    0    0    0 -0.00000000000E+00 -0.00000000000E+00 -0.50000000000E+03  0.50000000000E+03  0.00000000000E+00 0. -1.
        -11    1    1    2    0    0  0.67180057731E+01  0.90310471416E+01  0.38591714217E+02  0.40199649504E+02  0.00000000000E+00 0.  1.
         11    1    1    2    0    0 -0.99411794538E+01 -0.52226918649E+01 -0.49793800525E+03  0.49806461492E+03  0.00000000000E+00 0. -1.
        -15    1    1    2    0    0  0.37014811655E+01  0.45747701225E+01  0.70320469251E+01  0.93400694563E+01  0.17770000000E+01 0. -1.
         15    1    1    2    0    0 -0.47830748483E+00 -0.83831253991E+01  0.45231424411E+03  0.45239566612E+03  0.17770000000E+01 0.  1.
</event>
<event>
 6    1  0.9144256E-004  0.5001605E+03  0.7546771E-02  0.9399451E-01
        -11   -1    0    0    0    0  0.00000000000E+00  0.00000000000E+00  0.50000000000E+03  0.50000000000E+03  0.00000000000E+00 0. -1.
         11   -1    0    0    0    0 -0.00000000000E+00 -0.00000000000E+00 -0.50000000000E+03  0.50000000000E+03  0.00000000000E+00 0. -1.
        -11    1    1    2    0    0  0.60161880422E+01  0.82863824629E+01  0.20899318532E+03  0.20924390113E+03  0.00000000000E+00 0. -1.
         11    1    1    2    0    0 -0.40490138225E+00 -0.76166627978E+01 -0.49978130964E+03  0.49983950920E+03  0.00000000000E+00 0. -1.
        -15    1    1    2    0    0 -0.50469614979E+01 -0.25877935252E+01  0.21065640626E+03  0.21074023755E+03  0.17770000000E+01 0. -1.
         15    1    1    2    0    0 -0.56432516204E+00  0.19180738600E+01  0.80131718062E+02  0.80176352117E+02  0.17770000000E+01 0. -1.
</event>
<event>
 6    1  0.9144256E-004  0.5003336E+03  0.7546771E-02  0.9399064E-01
        -11   -1    0    0    0    0  0.00000000000E+00  0.00000000000E+00  0.50000000000E+03  0.50000000000E+03  0.00000000000E+00 0. -1.
         11   -1    0    0    0    0 -0.00000000000E+00 -0.00000000000E+00 -0.50000000000E+03  0.50000000000E+03  0.00000000000E+00 0. -1.
        -11    1    1    2    0    0 -0.16751648020E+02  0.28247902840E+02  0.49858599425E+03  0.49966644413E+03  0.00000000000E+00 0. -1.
         11    1    1    2    0    0  0.25078172635E+00 -0.12737826354E+01 -0.64437221797E+02  0.64450298421E+02  0.00000000000E+00 0. -1.
        -15    1    1    2    0    0  0.62998960714E+00  0.37126183041E+01 -0.56591613686E+02  0.56744593489E+02  0.17770000000E+01 0.  1.
         15    1    1    2    0    0  0.15870876686E+02 -0.30686738508E+02 -0.37755715877E+03  0.37913866396E+03  0.17770000000E+01 0. -1.
</event>
<event>
 6    1  0.9144256E-004  0.4864271E+03  0.7546771E-02  0.9430703E-01
        -11   -1    0    0    0    0  0.00000000000E+00  0.00000000000E+00  0.50000000000E+03  0.50000000000E+03  0.00000000000E+00 0. -1.
         11   -1    0    0    0    0 -0.00000000000E+00 -0.00000000000E+00 -0.50000000000E+03  0.50000000000E+03  0.00000000000E+00 0. -1.
        -11    1    1    2    0    0 -0.14030306401E+02 -0.83610540848E+01  0.48218202380E+03  0.48245855864E+03  0.00000000000E+00 0. -1.
         11    1    1    2    0    0 -0.87033346245E+01 -0.13122712078E+01 -0.49066729737E+03  0.49074623463E+03  0.00000000000E+00 0. -1.
        -15    1    1    2    0    0  0.45751317093E+01  0.38961760763E+01  0.17460238159E+01  0.65052552863E+01  0.17770000000E+01 0.  1.
         15    1    1    2    0    0  0.18158509317E+02  0.57771492163E+01  0.67392497518E+01  0.20289951451E+02  0.17770000000E+01 0. -1.
</event>
<event>
 6    1  0.9144256E-004  0.5018798E+03  0.7546771E-02  0.9395613E-01
        -11   -1    0    0    0    0  0.00000000000E+00  0.00000000000E+00  0.50000000000E+03  0.50000000000E+03  0.00000000000E+00 0.  1.
         11   -1    0    0    0    0 -0.00000000000E+00 -0.00000000000E+00 -0.50000000000E+03  0.50000000000E+03  0.00000000000E+00 0.  1.
        -11    1    1    2    0    0 -0.76459297593E+01 -0.39703220702E+01  0.49804573598E+03  0.49812024535E+03  0.00000000000E+00 0.  1.
         11    1    1    2    0    0 -0.81509575275E+01  0.18502069667E+01 -0.45694468407E+03  0.45702112169E+03  0.00000000000E+00 0.  1.
        -15    1    1    2    0    0  0.12223854925E+02 -0.12530248217E+01 -0.32549887056E+02  0.34837416333E+02  0.17770000000E+01 0.  1.
         15    1    1    2    0    0  0.35730323620E+01  0.33731399252E+01 -0.85511648554E+01  0.10021216623E+02  0.17770000000E+01 0. -1.
</event>
<event>
 6    1  0.9144256E-004  0.5027970E+03  0.7546771E-02  0.9393573E-01
        -11   -1    0    0    0    0  0.00000000000E+00  0.00000000000E+00  0.50000000000E+03  0.50000000000E+03  0.00000000000E+00 0. -1.
         11   -1    0    0    0    0 -0.00000000000E+00 -0.00000000000E+00 -0.50000000000E+03  0.50000000000E+03  0.00000000000E+00 0.  1.
        -11    1    1    2    0    0 -0.12165096841E+02 -0.33212272753E+01  0.45116706362E+03  0.45134326120E+03  0.00000000000E+00 0. -1.
         11    1    1    2    0    0 -0.54594103934E+01 -0.48834969069E+01 -0.49714904732E+03  0.49720300578E+03  0.00000000000E+00 0.  1.
        -15    1    1    2    0    0  0.70645521471E+00  0.12751073421E+01  0.43074518020E+00  0.23384285566E+01  0.17770000000E+01 0.  1.
         15    1    1    2    0    0  0.16918052019E+02  0.69296168402E+01  0.45551238515E+02  0.49115304467E+02  0.17770000000E+01 0. -1.
</event>
<event>
 6    1  0.9144256E-004  0.5018881E+03  0.7546771E-02  0.9395595E-01
        -11   -1    0    0    0    0  0.00000000000E+00  0.00000000000E+00  0.50000000000E+03  0.50000000000E+03  0.00000000000E+00 0. -1.
         11   -1    0    0    0    0 -0.00000000000E+00 -0.00000000000E+00 -0.50000000000E+03  0.50000000000E+03  0.00000000000E+00 0.  1.
        -11    1    1    2    0    0 -0.20192629735E+02 -0.70478004795E+01  0.49765255168E+03  0.49811191110E+03  0.00000000000E+00 0. -1.
         11    1    1    2    0    0 -0.63803770181E+00 -0.54379462493E+01 -0.39502004716E+03  0.39505799069E+03  0.00000000000E+00 0.  1.
        -15    1    1    2    0    0  0.20074992068E+02  0.50963848155E+01 -0.59506031657E+02  0.63032562832E+02  0.17770000000E+01 0. -1.
         15    1    1    2    0    0  0.75567536900E+00  0.73893619133E+01 -0.43126472864E+02  0.43797535381E+02  0.17770000000E+01 0.  1.
</event>
<event>
 6    1  0.9144256E-004  0.4755454E+03  0.7546771E-02  0.9456255E-01
        -11   -1    0    0    0    0  0.00000000000E+00  0.00000000000E+00  0.50000000000E+03  0.50000000000E+03  0.00000000000E+00 0. -1.
         11   -1    0    0    0    0 -0.00000000000E+00 -0.00000000000E+00 -0.50000000000E+03  0.50000000000E+03  0.00000000000E+00 0. -1.
        -11    1    1    2    0    0 -0.39619864353E+02  0.18764262675E+02  0.46425073857E+03  0.46631596527E+03  0.00000000000E+00 0. -1.
         11    1    1    2    0    0  0.95647176396E+01 -0.43780095121E+01 -0.48548113241E+03  0.48559507897E+03  0.00000000000E+00 0. -1.
        -15    1    1    2    0    0  0.33357192944E+02 -0.14301064707E+02  0.12232792261E+02  0.38340862123E+02  0.17770000000E+01 0. -1.
         15    1    1    2    0    0 -0.33020462302E+01 -0.85188455461E-01  0.89976015784E+01  0.97480936364E+01  0.17770000000E+01 0.  1.
</event>
<event>
 6    1  0.9144256E-004  0.5036271E+03  0.7546771E-02  0.9391730E-01
        -11   -1    0    0    0    0  0.00000000000E+00  0.00000000000E+00  0.50000000000E+03  0.50000000000E+03  0.00000000000E+00 0.  1.
         11   -1    0    0    0    0 -0.00000000000E+00 -0.00000000000E+00 -0.50000000000E+03  0.50000000000E+03  0.00000000000E+00 0. -1.
        -11    1    1    2    0    0 -0.14722346736E+02 -0.52188212770E+01  0.49612704684E+03  0.49637287416E+03  0.00000000000E+00 0.  1.
         11    1    1    2    0    0 -0.52703057552E+01 -0.33352839975E+01 -0.45276834561E+03  0.45281130179E+03  0.00000000000E+00 0. -1.
        -15    1    1    2    0    0  0.20646080251E+01 -0.37802414841E+01 -0.71798995054E+01  0.85592942398E+01  0.17770000000E+01 0. -1.
         15    1    1    2    0    0  0.17928044466E+02  0.12334346759E+02 -0.36178801730E+02  0.42256529814E+02  0.17770000000E+01 0.  1.
</event>
<event>
 6    1  0.9144256E-004  0.4848308E+03  0.7546771E-02  0.9434407E-01
        -11   -1    0    0    0    0  0.00000000000E+00  0.00000000000E+00  0.50000000000E+03  0.50000000000E+03  0.00000000000E+00 0.  1.
         11   -1    0    0    0    0 -0.00000000000E+00 -0.00000000000E+00 -0.50000000000E+03  0.50000000000E+03  0.00000000000E+00 0. -1.
        -11    1    1    2    0    0  0.13946476029E+02  0.17019327465E+00  0.48946757880E+03  0.48966625762E+03  0.00000000000E+00 0.  1.
         11    1    1    2    0    0  0.65389685417E+01  0.15804773027E+02 -0.48008414764E+03  0.48038873610E+03  0.00000000000E+00 0. -1.
        -15    1    1    2    0    0 -0.12809734497E+02 -0.15976545666E+02 -0.69900538843E+01  0.21710778236E+02  0.17770000000E+01 0.  1.
         15    1    1    2    0    0 -0.76757100740E+01  0.15793641741E-02 -0.23933772727E+01  0.82342280394E+01  0.17770000000E+01 0. -1.
</event>
<event>
 6    1  0.9144256E-004  0.5001952E+03  0.7546771E-02  0.9399373E-01
        -11   -1    0    0    0    0  0.00000000000E+00  0.00000000000E+00  0.50000000000E+03  0.50000000000E+03  0.00000000000E+00 0. -1.
         11   -1    0    0    0    0 -0.00000000000E+00 -0.00000000000E+00 -0.50000000000E+03  0.50000000000E+03  0.00000000000E+00 0. -1.
        -11    1    1    2    0    0  0.79127065508E+01 -0.45947415665E+01  0.49972108451E+03  0.49980484679E+03  0.00000000000E+00 0. -1.
         11    1    1    2    0    0  0.36168652123E+01 -0.16082492338E+01 -0.26218162165E+03  0.26221150034E+03  0.00000000000E+00 0. -1.
        -15    1    1    2    0    0 -0.32642200989E+01  0.18243086610E+00 -0.91627716052E+02  0.91703241446E+02  0.17770000000E+01 0. -1.
         15    1    1    2    0    0 -0.82653516642E+01  0.60205599342E+01 -0.14591174680E+03  0.14628041142E+03  0.17770000000E+01 0. -1.
</event>
<event>
 6    1  0.9144256E-004  0.5000323E+03  0.7546771E-02  0.9399737E-01
        -11   -1    0    0    0    0  0.00000000000E+00  0.00000000000E+00  0.50000000000E+03  0.50000000000E+03  0.00000000000E+00 0. -1.
         11   -1    0    0    0    0 -0.00000000000E+00 -0.00000000000E+00 -0.50000000000E+03  0.50000000000E+03  0.00000000000E+00 0.  1.
        -11    1    1    2    0    0  0.48342223537E+01  0.26631340956E+01  0.14635772875E+03  0.14646175868E+03  0.00000000000E+00 0. -1.
         11    1    1    2    0    0 -0.75200337523E+01 -0.46722742881E+01 -0.49988926414E+03  0.49996765642E+03  0.00000000000E+00 0.  1.
        -15    1    1    2    0    0  0.20187857757E+00  0.57428429093E+00  0.12183693377E+03  0.12185141245E+03  0.17770000000E+01 0. -1.
         15    1    1    2    0    0  0.24839328210E+01  0.14348559016E+01  0.23169460162E+03  0.23171917246E+03  0.17770000000E+01 0. -1.
</event>
<event>
 6    1  0.9144256E-004  0.5078135E+03  0.7546771E-02  0.9382494E-01
        -11   -1    0    0    0    0  0.00000000000E+00  0.00000000000E+00  0.50000000000E+03  0.50000000000E+03  0.00000000000E+00 0. -1.
         11   -1    0    0    0    0 -0.00000000000E+00 -0.00000000000E+00 -0.50000000000E+03  0.50000000000E+03  0.00000000000E+00 0.  1.
        -11    1    1    2    0    0 -0.99838826347E+01 -0.16509599468E+02  0.47508494657E+03  0.47547655173E+03  0.00000000000E+00 0. -1.
         11    1    1    2    0    0 -0.76995709464E+01  0.66081156551E+00 -0.49212585431E+03  0.49218652617E+03  0.00000000000E+00 0.  1.
        -15    1    1    2    0    0  0.17454075005E+02  0.16996479721E+02  0.17635091397E+02  0.30127715392E+02  0.17770000000E+01 0.  1.
         15    1    1    2    0    0  0.22937857560E+00 -0.11476918183E+01 -0.59418366418E+00  0.22092067055E+01  0.17770000000E+01 0. -1.
</event>
<event>
 6    1  0.9144256E-004  0.5007758E+03  0.7546771E-02  0.9398075E-01
        -11   -1    0    0    0    0  0.00000000000E+00  0.00000000000E+00  0.50000000000E+03  0.50000000000E+03  0.00000000000E+00 0. -1.
         11   -1    0    0    0    0 -0.00000000000E+00 -0.00000000000E+00 -0.50000000000E+03  0.50000000000E+03  0.00000000000E+00 0. -1.
        -11    1    1    2    0    0  0.44904046814E+01  0.10844933387E+02  0.24224873572E+03  0.24253293853E+03  0.00000000000E+00 0. -1.
         11    1    1    2    0    0 -0.45634692590E+01 -0.54250132720E+01 -0.49917381775E+03  0.49922415441E+03  0.00000000000E+00 0. -1.
        -15    1    1    2    0    0  0.21466617738E+01  0.70504096591E+01  0.29458064277E+02  0.30417950508E+02  0.17770000000E+01 0.  1.
         15    1    1    2    0    0 -0.20735971963E+01 -0.12470329774E+02  0.22746701776E+03  0.22782495655E+03  0.17770000000E+01 0. -1.
</event>
<event>
 6    1  0.9144256E-004  0.5212181E+03  0.7546771E-02  0.9353545E-01
        -11   -1    0    0    0    0  0.00000000000E+00  0.00000000000E+00  0.50000000000E+03  0.50000000000E+03  0.00000000000E+00 0. -1.
         11   -1    0    0    0    0 -0.00000000000E+00 -0.00000000000E+00 -0.50000000000E+03  0.50000000000E+03  0.00000000000E+00 0.  1.
        -11    1    1    2    0    0  0.22117404865E+02  0.44413360660E+02  0.47620413789E+03  0.47878189935E+03  0.00000000000E+00 0. -1.
         11    1    1    2    0    0 -0.55119849356E+01 -0.34319882677E+01 -0.43778698336E+03  0.43783513258E+03  0.00000000000E+00 0.  1.
        -15    1    1    2    0    0  0.11883964079E+01  0.57840254246E+01 -0.32369112832E+02  0.32951243234E+02  0.17770000000E+01 0. -1.
         15    1    1    2    0    0 -0.17793816337E+02 -0.46765397817E+02 -0.60480416984E+01  0.50431724838E+02  0.17770000000E+01 0.  1.
</event>
<event>
 6    1  0.9144256E-004  0.5005815E+03  0.7546771E-02  0.9398510E-01
        -11   -1    0    0    0    0  0.00000000000E+00  0.00000000000E+00  0.50000000000E+03  0.50000000000E+03  0.00000000000E+00 0.  1.
         11   -1    0    0    0    0 -0.00000000000E+00 -0.00000000000E+00 -0.50000000000E+03  0.50000000000E+03  0.00000000000E+00 0. -1.
        -11    1    1    2    0    0  0.10852961573E+02 -0.86548598718E+01  0.40441791459E+03  0.40465607992E+03  0.00000000000E+00 0.  1.
         11    1    1    2    0    0 -0.80955994440E+01  0.69458298527E-02 -0.49935292318E+03  0.49941854257E+03  0.00000000000E+00 0. -1.
        -15    1    1    2    0    0 -0.19731148357E+00  0.60455857661E+01  0.84399661817E+02  0.84634795935E+02  0.17770000000E+01 0.  1.
         15    1    1    2    0    0 -0.25600506459E+01  0.26023282759E+01  0.10535346769E+02  0.11290581576E+02  0.17770000000E+01 0.  1.
</event>
<event>
 6    1  0.9144256E-004  0.5104804E+03  0.7546771E-02  0.9376660E-01
        -11   -1    0    0    0    0  0.00000000000E+00  0.00000000000E+00  0.50000000000E+03  0.50000000000E+03  0.00000000000E+00 0. -1.
         11   -1    0    0    0    0 -0.00000000000E+00 -0.00000000000E+00 -0.50000000000E+03  0.50000000000E+03  0.00000000000E+00 0.  1.
        -11    1    1    2    0    0 -0.43063127746E+01  0.35034128491E+02  0.48824530229E+03  0.48951957029E+03  0.00000000000E+00 0. -1.
         11    1    1    2    0    0 -0.60027844515E+01  0.65491079531E+01 -0.44049670836E+03  0.44058628475E+03  0.00000000000E+00 0.  1.
        -15    1    1    2    0    0  0.81119100178E+01 -0.23628000159E+01 -0.82556692934E+00  0.86732460940E+01  0.17770000000E+01 0.  1.
         15    1    1    2    0    0  0.21971872083E+01 -0.39220436429E+02 -0.46923027001E+02  0.61220898860E+02  0.17770000000E+01 0. -1.
</event>
<event>
 6    1  0.9144256E-004  0.5037463E+03  0.7546771E-02  0.9391466E-01
        -11   -1    0    0    0    0  0.00000000000E+00  0.00000000000E+00  0.50000000000E+03  0.50000000000E+03  0.00000000000E+00 0.  1.
         11   -1    0    0    0    0 -0.00000000000E+00 -0.00000000000E+00 -0.50000000000E+03  0.50000000000E+03  0.00000000000E+00 0. -1.
        -11    1    1    2    0    0 -0.29211192776E+00 -0.12721507498E+02  0.49609056295E+03  0.49625373422E+03  0.00000000000E+00 0.  1.
         11    1    1    2    0    0 -0.14125895076E+02 -0.83232043929E+00 -0.44026877807E+03  0.44049611872E+03  0.00000000000E+00 0. -1.
        -15    1    1    2    0    0  0.16864107783E+02  0.20463394059E+01 -0.25645003702E+02  0.30812490652E+02  0.17770000000E+01 0.  1.
         15    1    1    2    0    0 -0.24461007793E+01  0.11507488532E+02 -0.30176781181E+02  0.32437656401E+02  0.17770000000E+01 0. -1.
</event>
<event>
 6    1  0.9144256E-004  0.5006758E+03  0.7546771E-02  0.9398299E-01
        -11   -1    0    0    0    0  0.00000000000E+00  0.00000000000E+00  0.50000000000E+03  0.50000000000E+03  0.00000000000E+00 0. -1.
         11   -1    0    0    0    0 -0.00000000000E+00 -0.00000000000E+00 -0.50000000000E+03  0.50000000000E+03  0.00000000000E+00 0.  1.
        -11    1    1    2    0    0  0.28844873406E+02  0.25695629964E+02  0.49782763132E+03  0.49932418590E+03  0.00000000000E+00 0. -1.
         11    1    1    2    0    0 -0.41965929204E+00  0.44488105842E+01 -0.16071310629E+03  0.16077521751E+03  0.00000000000E+00 0.  1.
        -15    1    1    2    0    0 -0.49690826885E+01 -0.19238180411E+00 -0.35353927686E+02  0.35746142804E+02  0.17770000000E+01 0.  1.
         15    1    1    2    0    0 -0.23456131425E+02 -0.29952058744E+02 -0.30176059734E+03  0.30415445379E+03  0.17770000000E+01 0. -1.
</event>
<event>
 6    1  0.9144256E-004  0.5027599E+03  0.7546771E-02  0.9393655E-01
        -11   -1    0    0    0    0  0.00000000000E+00  0.00000000000E+00  0.50000000000E+03  0.50000000000E+03  0.00000000000E+00 0. -1.
         11   -1    0    0    0    0 -0.00000000000E+00 -0.00000000000E+00 -0.50000000000E+03  0.50000000000E+03  0.00000000000E+00 0. -1.
        -11    1    1    2    0    0 -0.32331361166E+02 -0.17525227135E+02  0.10744229834E+03  0.11356186849E+03  0.00000000000E+00 0. -1.
         11    1    1    2    0    0  0.32177789782E+02  0.10388451640E+02 -0.49608909712E+03  0.49724010534E+03  0.00000000000E+00 0. -1.
        -15    1    1    2    0    0  0.28104825827E+01  0.12586622513E+02  0.31891094785E+03  0.31917655344E+03  0.17770000000E+01 0.  1.
         15    1    1    2    0    0 -0.26569111986E+01 -0.54498470179E+01  0.69735850924E+02  0.70021472726E+02  0.17770000000E+01 0. -1.
</event>
<event>
 6    1  0.9808301E-004  0.5001660E+03  0.7546771E-02  0.9399438E-01
        -11   -1    0    0    0    0  0.00000000000E+00  0.00000000000E+00  0.50000000000E+03  0.50000000000E+03  0.00000000000E+00 0.  1.
         11   -1    0    0    0    0 -0.00000000000E+00 -0.00000000000E+00 -0.50000000000E+03  0.50000000000E+03  0.00000000000E+00 0. -1.
        -11    1    1    2    0    0  0.40419693766E+01 -0.56598647142E+01  0.49978557956E+03  0.49983396955E+03  0.00000000000E+00 0.  1.
         11    1    1    2    0    0 -0.32416040508E+01  0.46229229855E+01 -0.30244293142E+03  0.30249563002E+03  0.00000000000E+00 0. -1.
        -15    1    1    2    0    0 -0.75983562181E+00 -0.35880802695E+01 -0.15256984309E+03  0.15262426550E+03  0.17770000000E+01 0. -1.
         15    1    1    2    0    0 -0.40529703972E-01  0.46250219982E+01 -0.44772805048E+02  0.45046134928E+02  0.17770000000E+01 0.  1.
</event>
<event>
 6    1  0.9144256E-004  0.5023855E+03  0.7546771E-02  0.9394488E-01
        -11   -1    0    0    0    0  0.00000000000E+00  0.00000000000E+00  0.50000000000E+03  0.50000000000E+03  0.00000000000E+00 0. -1.
         11   -1    0    0    0    0 -0.00000000000E+00 -0.00000000000E+00 -0.50000000000E+03  0.50000000000E+03  0.00000000000E+00 0.  1.
        -11    1    1    2    0    0  0.87260999748E+01 -0.15888477023E+02  0.48736046319E+03  0.48769745704E+03  0.00000000000E+00 0. -1.
         11    1    1    2    0    0 -0.20294263056E+01  0.90176776374E+01 -0.49752866254E+03  0.49761451660E+03  0.00000000000E+00 0.  1.
        -15    1    1    2    0    0 -0.25853268436E+01  0.35713704369E+01  0.63862734475E+01  0.79612071467E+01  0.17770000000E+01 0.  1.
         15    1    1    2    0    0 -0.41113468256E+01  0.32994289483E+01  0.37819259064E+01  0.67268192087E+01  0.17770000000E+01 0. -1.
</event>
<event>
 6    1  0.9144256E-004  0.5009485E+03  0.7546771E-02  0.9397690E-01
        -11   -1    0    0    0    0  0.00000000000E+00  0.00000000000E+00  0.50000000000E+03  0.50000000000E+03  0.00000000000E+00 0. -1.
         11   -1    0    0    0    0 -0.00000000000E+00 -0.00000000000E+00 -0.50000000000E+03  0.50000000000E+03  0.00000000000E+00 0.  1.
        -11    1    1    2    0    0  0.17880493967E+02  0.86199617988E+01  0.24208680542E+03  0.24289923253E+03  0.00000000000E+00 0. -1.
         11    1    1    2    0    0 -0.78786415874E+01  0.85167820736E+01 -0.49891660124E+03  0.49905148388E+03  0.00000000000E+00 0.  1.
        -15    1    1    2    0    0 -0.93844046896E+01 -0.10565107582E+02  0.22699782105E+03  0.22744418445E+03  0.17770000000E+01 0. -1.
         15    1    1    2    0    0 -0.61744769035E+00 -0.65716362906E+01  0.29831974775E+02  0.30605099137E+02  0.17770000000E+01 0.  1.
</event>
<event>
 6    1  0.9144256E-004  0.5011448E+03  0.7546771E-02  0.9397252E-01
        -11   -1    0    0    0    0  0.00000000000E+00  0.00000000000E+00  0.50000000000E+03  0.50000000000E+03  0.00000000000E+00 0.  1.
         11   -1    0    0    0    0 -0.00000000000E+00 -0.00000000000E+00 -0.50000000000E+03  0.50000000000E+03  0.00000000000E+00 0. -1.
        -11    1    1    2    0    0  0.89466325665E+01 -0.57788343267E+01  0.40900212329E+03  0.40914077530E+03  0.00000000000E+00 0.  1.
         11    1    1    2    0    0  0.70225835337E+01 -0.32655071495E+01 -0.49879507202E+03  0.49885519350E+03  0.00000000000E+00 0. -1.
        -15    1    1    2    0    0 -0.10446757400E+01  0.24305593199E+01  0.23125600197E+02  0.23344165855E+02  0.17770000000E+01 0.  1.
         15    1    1    2    0    0 -0.14924540360E+02  0.66137821563E+01  0.66667348533E+02  0.68659865342E+02  0.17770000000E+01 0. -1.
</event>
<event>
 6    1  0.9144256E-004  0.5023888E+03  0.7546771E-02  0.9394480E-01
        -11   -1    0    0    0    0  0.00000000000E+00  0.00000000000E+00  0.50000000000E+03  0.50000000000E+03  0.00000000000E+00 0. -1.
         11   -1    0    0    0    0 -0.00000000000E+00 -0.00000000000E+00 -0.50000000000E+03  0.50000000000E+03  0.00000000000E+00 0.  1.
        -11    1    1    2    0    0  0.97557772787E+01 -0.14876834109E+02  0.42511886925E+03  0.42549094981E+03  0.00000000000E+00 0. -1.
         11    1    1    2    0    0 -0.49139277772E+00 -0.67393664387E+01 -0.49756529045E+03  0.49761117229E+03  0.00000000000E+00 0.  1.
        -15    1    1    2    0    0 -0.71660103034E+01  0.19835707580E+02  0.51228178362E+02  0.55428250795E+02  0.17770000000E+01 0. -1.
         15    1    1    2    0    0 -0.20983741975E+01  0.17804929680E+01  0.21218242841E+02  0.21469627099E+02  0.17770000000E+01 0.  1.
</event>
<event>
 6    1  0.9144256E-004  0.5001833E+03  0.7546771E-02  0.9399400E-01
        -11   -1    0    0    0    0  0.00000000000E+00  0.00000000000E+00  0.50000000000E+03  0.50000000000E+03  0.00000000000E+00 0. -1.
         11   -1    0    0    0    0 -0.00000000000E+00 -0.00000000000E+00 -0.50000000000E+03  0.50000000000E+03  0.00000000000E+00 0. -1.
        -11    1    1    2    0    0 -0.54756175152E+01  0.16328097992E+01  0.23660256523E+03  0.23667154947E+03  0.00000000000E+00 0. -1.
         11    1    1    2    0    0 -0.58058354219E+01 -0.71807652141E+01 -0.49973139204E+03  0.49981670170E+03  0.00000000000E+00 0. -1.
        -15    1    1    2    0    0  0.92477414721E+01  0.57600429341E+01  0.23301051044E+03  0.23327184682E+03  0.17770000000E+01 0.  1.
         15    1    1    2    0    0  0.20337114650E+01 -0.21208751916E+00  0.30118316365E+02  0.30239902002E+02  0.17770000000E+01 0. -1.
</event>
<event>
 6    1  0.9144256E-004  0.5001470E+03  0.7546771E-02  0.9399481E-01
        -11   -1    0    0    0    0  0.00000000000E+00  0.00000000000E+00  0.50000000000E+03  0.50000000000E+03  0.00000000000E+00 0.  1.
         11   -1    0    0    0    0 -0.00000000000E+00 -0.00000000000E+00 -0.50000000000E+03  0.50000000000E+03  0.00000000000E+00 0.  1.
        -11    1    1    2    0    0 -0.13764162957E+02  0.66080289119E+00  0.49966303901E+03  0.49985301980E+03  0.00000000000E+00 0.  1.
         11    1    1    2    0    0  0.51095017072E-01  0.36460763249E+01 -0.23388067484E+03  0.23390909889E+03  0.00000000000E+00 0.  1.
        -15    1    1    2    0    0  0.92639094915E+00 -0.98386316724E+00 -0.40439644948E+02  0.40501219728E+02  0.17770000000E+01 0. -1.
         15    1    1    2    0    0  0.12786676991E+02 -0.33230160489E+01 -0.22534271923E+03  0.22573666158E+03  0.17770000000E+01 0. -1.
</event>
<event>
 6    1  0.9144256E-004  0.5001327E+03  0.7546771E-02  0.9399513E-01
        -11   -1    0    0    0    0  0.00000000000E+00  0.00000000000E+00  0.50000000000E+03  0.50000000000E+03  0.00000000000E+00 0.  1.
         11   -1    0    0    0    0 -0.00000000000E+00 -0.00000000000E+00 -0.50000000000E+03  0.50000000000E+03  0.00000000000E+00 0.  1.
        -11    1    1    2    0    0 -0.21323880449E+01  0.39109690460E+01  0.59984850117E+02  0.60150020791E+02  0.00000000000E+00 0.  1.
         11    1    1    2    0    0  0.20862447833E+01 -0.78640899706E+01 -0.49980106050E+03  0.49986727879E+03  0.00000000000E+00 0.  1.
        -15    1    1    2    0    0 -0.49814658084E+01  0.17364676304E+01  0.13958303883E+03  0.13969399694E+03  0.17770000000E+01 0. -1.
         15    1    1    2    0    0  0.50276090701E+01  0.22166532942E+01  0.30023317156E+03  0.30028870348E+03  0.17770000000E+01 0.  1.
</event>
<event>
 6    1  0.9144256E-004  0.5012343E+03  0.7546771E-02  0.9397052E-01
        -11   -1    0    0    0    0  0.00000000000E+00  0.00000000000E+00  0.50000000000E+03  0.50000000000E+03  0.00000000000E+00 0.  1.
         11   -1    0    0    0    0 -0.00000000000E+00 -0.00000000000E+00 -0.50000000000E+03  0.50000000000E+03  0.00000000000E+00 0. -1.
        -11    1    1    2    0    0  0.17091883225E+02 -0.24123007509E+02  0.49788870385E+03  0.49876568986E+03  0.00000000000E+00 0.  1.
         11    1    1    2    0    0  0.18646718830E+01 -0.55253351578E+01 -0.25281631705E+03  0.25288356312E+03  0.00000000000E+00 0. -1.
        -15    1    1    2    0    0 -0.49921398833E+01  0.18703974870E+02 -0.80447650630E+02  0.82763170296E+02  0.17770000000E+01 0.  1.
         15    1    1    2    0    0 -0.13964415224E+02  0.10944367797E+02 -0.16462473616E+03  0.16558757672E+03  0.17770000000E+01 0. -1.
</event>
<event>
 6    1  0.9144256E-004  0.3409430E+03  0.7546771E-02  0.9849042E-01
        -11   -1    0    0    0    0  0.00000000000E+00  0.00000000000E+00  0.50000000000E+03  0.50000000000E+03  0.00000000000E+00 0. -1.
         11   -1    0    0    0    0 -0.00000000000E+00 -0.00000000000E+00 -0.50000000000E+03  0.50000000000E+03  0.00000000000E+00 0. -1.
        -11    1    1    2    0    0  0.51470769403E+01  0.12793128597E+03  0.25698551317E+03  0.28711401970E+03  0.00000000000E+00 0. -1.
         11    1    1    2    0    0 -0.11882045902E+02  0.19381420868E+02 -0.43141133738E+03  0.43200991251E+03  0.00000000000E+00 0. -1.
        -15    1    1    2    0    0 -0.37185425877E+02 -0.15234341413E+03  0.17709486720E+03  0.23655236512E+03  0.17770000000E+01 0. -1.
         15    1    1    2    0    0  0.43920394839E+02  0.50307072890E+01 -0.26690429932E+01  0.44323702667E+02  0.17770000000E+01 0.  1.
</event>
<event>
 6    1  0.1350372E-003  0.5001204E+03  0.7546771E-02  0.9399540E-01
        -11   -1    0    0    0    0  0.00000000000E+00  0.00000000000E+00  0.50000000000E+03  0.50000000000E+03  0.00000000000E+00 0. -1.
         11   -1    0    0    0    0 -0.00000000000E+00 -0.00000000000E+00 -0.50000000000E+03  0.50000000000E+03  0.00000000000E+00 0. -1.
        -11    1    1    2    0    0  0.90508726103E+01  0.20797544870E+02  0.49936479318E+03  0.49987963835E+03  0.00000000000E+00 0. -1.
         11    1    1    2    0    0 -0.10355511782E+02 -0.20010499352E+02 -0.38634348411E+03  0.38699992820E+03  0.00000000000E+00 0. -1.
        -15    1    1    2    0    0  0.10891833266E+01 -0.16446698041E+01 -0.53205620563E+02  0.53271822267E+02  0.17770000000E+01 0. -1.
         15    1    1    2    0    0  0.21545584478E+00  0.85762428613E+00 -0.59815688505E+02  0.59848611186E+02  0.17770000000E+01 0.  1.
</event>
<event>
 6    1  0.9144256E-004  0.5007058E+03  0.7546771E-02  0.9398232E-01
        -11   -1    0    0    0    0  0.00000000000E+00  0.00000000000E+00  0.50000000000E+03  0.50000000000E+03  0.00000000000E+00 0.  1.
         11   -1    0    0    0    0 -0.00000000000E+00 -0.00000000000E+00 -0.50000000000E+03  0.50000000000E+03  0.00000000000E+00 0.  1.
        -11    1    1    2    0    0  0.51872403597E+01  0.12631341468E+02  0.49910742705E+03  0.49929418381E+03  0.00000000000E+00 0.  1.
         11    1    1    2    0    0 -0.92185543256E+01 -0.11965162448E+01 -0.40773013000E+03  0.40783608510E+03  0.00000000000E+00 0.  1.
        -15    1    1    2    0    0  0.46130511698E+01 -0.12352698582E+02 -0.61642717416E+02  0.63062284630E+02  0.17770000000E+01 0. -1.
         15    1    1    2    0    0 -0.58173720388E+00  0.91787335845E+00 -0.29734579631E+02  0.29807446461E+02  0.17770000000E+01 0.  1.
</event>
<event>
 6    1  0.9144256E-004  0.5004434E+03  0.7546771E-02  0.9398818E-01
        -11   -1    0    0    0    0  0.00000000000E+00  0.00000000000E+00  0.50000000000E+03  0.50000000000E+03  0.00000000000E+00 0. -1.
         11   -1    0    0    0    0 -0.00000000000E+00 -0.00000000000E+00 -0.50000000000E+03  0.50000000000E+03  0.00000000000E+00 0. -1.
        -11    1    1    2    0    0 -0.49747217769E+01 -0.11062818257E+02  0.49940932064E+03  0.49955660675E+03  0.00000000000E+00 0. -1.
         11    1    1    2    0    0 -0.51882721365E+01 -0.49829495746E+01 -0.26605752805E+03  0.26615475984E+03  0.00000000000E+00 0. -1.
        -15    1    1    2    0    0  0.96421757462E+01  0.12065372698E+02 -0.20609639885E+03  0.20668194919E+03  0.17770000000E+01 0. -1.
         15    1    1    2    0    0  0.52081816722E+00  0.39803951330E+01 -0.27255393736E+02  0.27606684221E+02  0.17770000000E+01 0.  1.
</event>
<event>
 6    1  0.9144256E-004  0.5017889E+03  0.7546771E-02  0.9395816E-01
        -11   -1    0    0    0    0  0.00000000000E+00  0.00000000000E+00  0.50000000000E+03  0.50000000000E+03  0.00000000000E+00 0. -1.
         11   -1    0    0    0    0 -0.00000000000E+00 -0.00000000000E+00 -0.50000000000E+03  0.50000000000E+03  0.00000000000E+00 0.  1.
        -11    1    1    2    0    0 -0.48344822281E+01  0.14903856939E+02  0.43248127043E+03  0.43276500141E+03  0.00000000000E+00 0. -1.
         11    1    1    2    0    0 -0.71800845767E+01 -0.38861599531E+01 -0.49814421503E+03  0.49821111471E+03  0.00000000000E+00 0.  1.
        -15    1    1    2    0    0  0.10272109536E+01 -0.89737978095E+01  0.20626379278E+02  0.22587373920E+02  0.17770000000E+01 0.  1.
         15    1    1    2    0    0  0.10987355851E+02 -0.20438991764E+01  0.45036565318E+02  0.46436509958E+02  0.17770000000E+01 0. -1.
</event>
<event>
 6    1  0.9144256E-004  0.4906010E+03  0.7546771E-02  0.9421090E-01
        -11   -1    0    0    0    0  0.00000000000E+00  0.00000000000E+00  0.50000000000E+03  0.50000000000E+03  0.00000000000E+00 0. -1.
         11   -1    0    0    0    0 -0.00000000000E+00 -0.00000000000E+00 -0.50000000000E+03  0.50000000000E+03  0.00000000000E+00 0.  1.
        -11    1    1    2    0    0 -0.12930462187E+02  0.22774119300E+01  0.48744281528E+03  0.48761960750E+03  0.00000000000E+00 0. -1.
         11    1    1    2    0    0  0.27829037416E+01  0.63795593654E+01 -0.49364357937E+03  0.49369264405E+03  0.00000000000E+00 0.  1.
        -15    1    1    2    0    0 -0.14800910918E+00 -0.24089956316E+01 -0.23522554693E+01  0.38099870659E+01  0.17770000000E+01 0.  1.
         15    1    1    2    0    0  0.10295567555E+02 -0.62479756638E+01  0.85530195640E+01  0.14877761385E+02  0.17770000000E+01 0.  1.
</event>
<event>
 6    1  0.9144256E-004  0.5001684E+03  0.7546771E-02  0.9399433E-01
        -11   -1    0    0    0    0  0.00000000000E+00  0.00000000000E+00  0.50000000000E+03  0.50000000000E+03  0.00000000000E+00 0.  1.
         11   -1    0    0    0    0 -0.00000000000E+00 -0.00000000000E+00 -0.50000000000E+03  0.50000000000E+03  0.00000000000E+00 0. -1.
        -11    1    1    2    0    0  0.91326084546E+01 -0.65718080569E+01  0.12212550787E+03  0.12264270411E+03  0.00000000000E+00 0.  1.
         11    1    1    2    0    0 -0.15866617660E+02  0.50431949883E+01 -0.49955429066E+03  0.49983164434E+03  0.00000000000E+00 0. -1.
        -15    1    1    2    0    0  0.96091911877E+00  0.14085593826E+01  0.12819464524E+03  0.12821829902E+03  0.17770000000E+01 0. -1.
         15    1    1    2    0    0  0.57730900871E+01  0.12005368601E+00  0.24923413754E+03  0.24930735253E+03  0.17770000000E+01 0.  1.
</event>
<event>
 6    1  0.9144256E-004  0.5001552E+03  0.7546771E-02  0.9399463E-01
        -11   -1    0    0    0    0  0.00000000000E+00  0.00000000000E+00  0.50000000000E+03  0.50000000000E+03  0.00000000000E+00 0.  1.
         11   -1    0    0    0    0 -0.00000000000E+00 -0.00000000000E+00 -0.50000000000E+03  0.50000000000E+03  0.00000000000E+00 0.  1.
        -11    1    1    2    0    0 -0.33425592100E+01  0.44974625296E+01  0.38693028066E+03  0.38697085415E+03  0.00000000000E+00 0.  1.
         11    1    1    2    0    0  0.56336543732E+00 -0.77004801580E+01 -0.49978517579E+03  0.49984481263E+03  0.00000000000E+00 0.  1.
        -15    1    1    2    0    0  0.24016292348E+01 -0.94526662950E+00  0.74017301423E+02  0.74083601363E+02  0.17770000000E+01 0. -1.
         15    1    1    2    0    0  0.37756453787E+00  0.41482842579E+01  0.38837593712E+02  0.39100731855E+02  0.17770000000E+01 0.  1.
</event>
<event>
 6    1  0.9144256E-004  0.5002464E+03  0.7546771E-02  0.9399259E-01
        -11   -1    0    0    0    0  0.00000000000E+00  0.00000000000E+00  0.50000000000E+03  0.50000000000E+03  0.00000000000E+00 0. -1.
         11   -1    0    0    0    0 -0.00000000000E+00 -0.00000000000E+00 -0.50000000000E+03  0.50000000000E+03  0.00000000000E+00 0.  1.
        -11    1    1    2    0    0  0.33818302368E+00  0.93136335165E+01  0.11290469272E+03  0.11328869217E+03  0.00000000000E+00 0. -1.
         11    1    1    2    0    0 -0.40901507961E+01 -0.62514193355E+01 -0.49969774580E+03  0.49975358601E+03  0.00000000000E+00 0.  1.
        -15    1    1    2    0    0  0.29676579010E+00  0.28907624295E+01  0.67838586876E+02  0.67924047109E+02  0.17770000000E+01 0.  1.
         15    1    1    2    0    0  0.34552019823E+01 -0.59529766104E+01  0.31895446621E+03  0.31903367470E+03  0.17770000000E+01 0. -1.
</event>
<event>
 6    1  0.9144256E-004  0.5020897E+03  0.7546771E-02  0.9395146E-01
        -11   -1    0    0    0    0  0.00000000000E+00  0.00000000000E+00  0.50000000000E+03  0.50000000000E+03  0.00000000000E+00 0. -1.
         11   -1    0    0    0    0 -0.00000000000E+00 -0.00000000000E+00 -0.50000000000E+03  0.50000000000E+03  0.00000000000E+00 0.  1.
        -11    1    1    2    0    0 -0.20101325670E+02 -0.94305390755E+01  0.49741500947E+03  0.49791032326E+03  0.00000000000E+00 0. -1.
         11    1    1    2    0    0 -0.31841564582E+01 -0.73350320391E+01 -0.39333201326E+03  0.39341328676E+03  0.00000000000E+00 0.  1.
        -15    1    1    2    0    0  0.11172822613E+02  0.31461799192E+01 -0.56139897284E+02  0.57354827254E+02  0.17770000000E+01 0. -1.
         15    1    1    2    0    0  0.12112659515E+02  0.13619391195E+02 -0.47943098925E+02  0.51321562726E+02  0.17770000000E+01 0.  1.
</event>
<event>
 6    1  0.9144256E-004  0.5107748E+03  0.7546771E-02  0.9376018E-01
        -11   -1    0    0    0    0  0.00000000000E+00  0.00000000000E+00  0.50000000000E+03  0.50000000000E+03  0.00000000000E+00 0.  1.
         11   -1    0    0    0    0 -0.00000000000E+00 -0.00000000000E+00 -0.50000000000E+03  0.50000000000E+03  0.00000000000E+00 0.  1.
        -11    1    1    2    0    0  0.41565447273E+02  0.19004915475E+02  0.38651847275E+03  0.38921125754E+03  0.00000000000E+00 0.  1.
         11    1    1    2    0    0  0.16041097091E+01  0.64525291937E+01 -0.48917997340E+03  0.48922515745E+03  0.00000000000E+00 0.  1.
        -15    1    1    2    0    0 -0.12623504651E+02 -0.14714481797E+01  0.11766474060E+01  0.12886436961E+02  0.17770000000E+01 0.  1.
         15    1    1    2    0    0 -0.30546052331E+02 -0.23985996489E+02  0.10148485325E+03  0.10867714805E+03  0.17770000000E+01 0. -1.
</event>
<event>
 6    1  0.9144256E-004  0.5001876E+03  0.7546771E-02  0.9399390E-01
        -11   -1    0    0    0    0  0.00000000000E+00  0.00000000000E+00  0.50000000000E+03  0.50000000000E+03  0.00000000000E+00 0.  1.
         11   -1    0    0    0    0 -0.00000000000E+00 -0.00000000000E+00 -0.50000000000E+03  0.50000000000E+03  0.00000000000E+00 0.  1.
        -11    1    1    2    0    0 -0.10829313933E+02 -0.15961699498E+02  0.49944009494E+03  0.49981242314E+03  0.00000000000E+00 0.  1.
         11    1    1    2    0    0  0.73108399999E+00  0.49924802383E+01 -0.30574685034E+03  0.30578848218E+03  0.00000000000E+00 0.  1.
        -15    1    1    2    0    0  0.99324815226E+01  0.10438843108E+02 -0.16116493194E+03  0.16181754123E+03  0.17770000000E+01 0. -1.
         15    1    1    2    0    0  0.16574841071E+00  0.53037615152E+00 -0.32528312662E+02  0.32581553447E+02  0.17770000000E+01 0. -1.
</event>
<event>
 6    1  0.9144256E-004  0.5008982E+03  0.7546771E-02  0.9397802E-01
        -11   -1    0    0    0    0  0.00000000000E+00  0.00000000000E+00  0.50000000000E+03  0.50000000000E+03  0.00000000000E+00 0. -1.
         11   -1    0    0    0    0 -0.00000000000E+00 -0.00000000000E+00 -0.50000000000E+03  0.50000000000E+03  0.00000000000E+00 0. -1.
        -11    1    1    2    0    0 -0.63046622715E+01  0.10793599276E+02  0.29628447718E+03  0.29654804327E+03  0.00000000000E+00 0. -1.
         11    1    1    2    0    0  0.25816460984E+01  0.76236507329E+01 -0.49903693657E+03  0.49910184232E+03  0.00000000000E+00 0. -1.
        -15    1    1    2    0    0 -0.43208106896E+01 -0.29859062728E+01  0.19750068682E+02  0.20513604833E+02  0.17770000000E+01 0. -1.
         15    1    1    2    0    0  0.80438268627E+01 -0.15431343736E+02  0.18300239070E+03  0.18383650957E+03  0.17770000000E+01 0.  1.
</event>
<event>
 6    1  0.9144256E-004  0.5049386E+03  0.7546771E-02  0.9388827E-01
        -11   -1    0    0    0    0  0.00000000000E+00  0.00000000000E+00  0.50000000000E+03  0.50000000000E+03  0.00000000000E+00 0. -1.
         11   -1    0    0    0    0 -0.00000000000E+00 -0.00000000000E+00 -0.50000000000E+03  0.50000000000E+03  0.00000000000E+00 0.  1.
        -11    1    1    2    0    0  0.16365916285E+02  0.29068250669E+01  0.47465617112E+03  0.47494712719E+03  0.00000000000E+00 0. -1.
         11    1    1    2    0    0  0.21427986339E+01 -0.75279949576E+01 -0.49499951112E+03  0.49506138842E+03  0.00000000000E+00 0.  1.
        -15    1    1    2    0    0 -0.35079417393E+01  0.51769929851E+01  0.89536344809E+01  0.11064908993E+02  0.17770000000E+01 0. -1.
         15    1    1    2    0    0 -0.15000773179E+02 -0.55582309435E+00  0.11389705522E+02  0.18926575395E+02  0.17770000000E+01 0.  1.
</event>
<event>
 6    1  0.9144256E-004  0.5066085E+03  0.7546771E-02  0.9385143E-01
        -11   -1    0    0    0    0  0.00000000000E+00  0.00000000000E+00  0.50000000000E+03  0.50000000000E+03  0.00000000000E+00 0.  1.
         11   -1    0    0    0    0 -0.00000000000E+00 -0.00000000000E+00 -0.50000000000E+03  0.50000000000E+03  0.00000000000E+00 0. -1.
        -11    1    1    2    0    0 -0.76091339076E+01  0.11108187150E+02  0.46011552666E+03  0.46031249018E+03  0.00000000000E+00 0.  1.
         11    1    1    2    0    0  0.22842424842E+01  0.79237491850E+01 -0.49332255342E+03  0.49339147265E+03  0.00000000000E+00 0. -1.
        -15    1    1    2    0    0  0.91310068586E+01 -0.16300514366E+02  0.35971696075E+02  0.40573423597E+02  0.17770000000E+01 0. -1.
         15    1    1    2    0    0 -0.38061154352E+01 -0.27314219688E+01 -0.27646693153E+01  0.57226135725E+01  0.17770000000E+01 0.  1.
</event>
<event>
 6    1  0.9144256E-004  0.4904148E+03  0.7546771E-02  0.9421517E-01
        -11   -1    0    0    0    0  0.00000000000E+00  0.00000000000E+00  0.50000000000E+03  0.50000000000E+03  0.00000000000E+00 0.  1.
         11   -1    0    0    0    0 -0.00000000000E+00 -0.00000000000E+00 -0.50000000000E+03  0.50000000000E+03  0.00000000000E+00 0. -1.
        -11    1    1    2    0    0 -0.98890345595E+01 -0.28245588332E+01  0.49069193162E+03  0.49079969733E+03  0.00000000000E+00 0.  1.
         11    1    1    2    0    0 -0.74649316466E+01 -0.10133064463E+01 -0.49013313782E+03  0.49019102887E+03  0.00000000000E+00 0. -1.
        -15    1    1    2    0    0  0.13876654610E+02  0.44577817378E+01 -0.19624072832E+01  0.14813579329E+02  0.17770000000E+01 0.  1.
         15    1    1    2    0    0  0.34773115960E+01 -0.61991645830E+00  0.14036134786E+01  0.41956944774E+01  0.17770000000E+01 0. -1.
</event>
<event>
 6    1  0.9144256E-004  0.5017508E+03  0.7546771E-02  0.9395901E-01
        -11   -1    0    0    0    0  0.00000000000E+00  0.00000000000E+00  0.50000000000E+03  0.50000000000E+03  0.00000000000E+00 0. -1.
         11   -1    0    0    0    0 -0.00000000000E+00 -0.00000000000E+00 -0.50000000000E+03  0.50000000000E+03  0.00000000000E+00 0.  1.
        -11    1    1    2    0    0 -0.77442385768E+02  0.95172636365E+02  0.37414796708E+03  0.39375354614E+03  0.00000000000E+00 0. -1.
         11    1    1    2    0    0  0.85195840138E+02 -0.10165946975E+03 -0.48027006410E+03  0.49824924830E+03  0.00000000000E+00 0.  1.
        -15    1    1    2    0    0 -0.59836795037E+01 -0.19907148945E+01  0.14059692106E+02  0.15511287416E+02  0.17770000000E+01 0. -1.
         15    1    1    2    0    0 -0.17697748659E+01  0.84775482841E+01  0.92062404911E+02  0.92485918144E+02  0.17770000000E+01 0.  1.
</event>
<event>
 6    1  0.9144256E-004  0.5035435E+03  0.7546771E-02  0.9391916E-01
        -11   -1    0    0    0    0  0.00000000000E+00  0.00000000000E+00  0.50000000000E+03  0.50000000000E+03  0.00000000000E+00 0. -1.
         11   -1    0    0    0    0 -0.00000000000E+00 -0.00000000000E+00 -0.50000000000E+03  0.50000000000E+03  0.00000000000E+00 0. -1.
        -11    1    1    2    0    0 -0.97264848237E+01  0.11044306208E+01  0.49635996686E+03  0.49645648447E+03  0.00000000000E+00 0. -1.
         11    1    1    2    0    0 -0.10524402419E+02  0.75449897860E+01 -0.43380543849E+03  0.43399867324E+03  0.00000000000E+00 0. -1.
        -15    1    1    2    0    0  0.19443548645E+02  0.13856464225E+01 -0.34221214038E+02  0.39423607384E+02  0.17770000000E+01 0. -1.
         15    1    1    2    0    0  0.80733859829E+00 -0.10035066829E+02 -0.28333314333E+02  0.30121234901E+02  0.17770000000E+01 0. -1.
</event>
<event>
 6    1  0.9144256E-004  0.5026808E+03  0.7546771E-02  0.9393831E-01
        -11   -1    0    0    0    0  0.00000000000E+00  0.00000000000E+00  0.50000000000E+03  0.50000000000E+03  0.00000000000E+00 0. -1.
         11   -1    0    0    0    0 -0.00000000000E+00 -0.00000000000E+00 -0.50000000000E+03  0.50000000000E+03  0.00000000000E+00 0. -1.
        -11    1    1    2    0    0 -0.14527784329E+02  0.17153244964E+02  0.46530812636E+03  0.46585077309E+03  0.00000000000E+00 0. -1.
         11    1    1    2    0    0  0.89030589012E+00 -0.92002722213E+01 -0.49723331172E+03  0.49731921734E+03  0.00000000000E+00 0. -1.
        -15    1    1    2    0    0  0.34443783538E+01 -0.25833164635E+01  0.18371968422E+02  0.18953211308E+02  0.17770000000E+01 0. -1.
         15    1    1    2    0    0  0.10193100085E+02 -0.53696562795E+01  0.13553216935E+02  0.17876798265E+02  0.17770000000E+01 0.  1.
</event>
<event>
 6    1  0.9144256E-004  0.5000330E+03  0.7546771E-02  0.9399736E-01
        -11   -1    0    0    0    0  0.00000000000E+00  0.00000000000E+00  0.50000000000E+03  0.50000000000E+03  0.00000000000E+00 0. -1.
         11   -1    0    0    0    0 -0.00000000000E+00 -0.00000000000E+00 -0.50000000000E+03  0.50000000000E+03  0.00000000000E+00 0. -1.
        -11    1    1    2    0    0 -0.24711841688E+00 -0.67204939179E+01  0.19901001248E+03  0.19912360777E+03  0.00000000000E+00 0. -1.
         11    1    1    2    0    0 -0.31601845894E+01  0.10635842035E+02 -0.49984382349E+03  0.49996695469E+03  0.00000000000E+00 0. -1.
        -15    1    1    2    0    0  0.28291684141E+01 -0.15016736162E+01  0.17820324066E+03  0.17824088175E+03  0.17770000000E+01 0. -1.
         15    1    1    2    0    0  0.57813459215E+00 -0.24136745011E+01  0.12263057036E+03  0.12266855579E+03  0.17770000000E+01 0.  1.
</event>
<event>
 6    1  0.9144256E-004  0.5029669E+03  0.7546771E-02  0.9393195E-01
        -11   -1    0    0    0    0  0.00000000000E+00  0.00000000000E+00  0.50000000000E+03  0.50000000000E+03  0.00000000000E+00 0. -1.
         11   -1    0    0    0    0 -0.00000000000E+00 -0.00000000000E+00 -0.50000000000E+03  0.50000000000E+03  0.00000000000E+00 0. -1.
        -11    1    1    2    0    0 -0.26866483329E+02 -0.15943002164E+02  0.49605031751E+03  0.49703310227E+03  0.00000000000E+00 0. -1.
         11    1    1    2    0    0  0.64527325246E+01  0.18989491402E+01 -0.33473830555E+03  0.33480587953E+03  0.00000000000E+00 0. -1.
        -15    1    1    2    0    0 -0.15903532875E+01  0.69611260443E+01 -0.26605142726E+01  0.78244849402E+01  0.17770000000E+01 0.  1.
         15    1    1    2    0    0  0.22004104092E+02  0.70829269800E+01 -0.15865149768E+03  0.16033653326E+03  0.17770000000E+01 0. -1.
</event>
<event>
 6    1  0.9144256E-004  0.5001386E+03  0.7546771E-02  0.9399500E-01
        -11   -1    0    0    0    0  0.00000000000E+00  0.00000000000E+00  0.50000000000E+03  0.50000000000E+03  0.00000000000E+00 0.  1.
         11   -1    0    0    0    0 -0.00000000000E+00 -0.00000000000E+00 -0.50000000000E+03  0.50000000000E+03  0.00000000000E+00 0.  1.
        -11    1    1    2    0    0 -0.26777735096E+01 -0.41119748548E+01  0.11921701753E+03  0.11931796209E+03  0.00000000000E+00 0.  1.
         11    1    1    2    0    0 -0.81346154238E+01  0.14777274616E+01 -0.49979301388E+03  0.49986139316E+03  0.00000000000E+00 0.  1.
        -15    1    1    2    0    0  0.10467965306E+02  0.37664661344E+01  0.28847278289E+03  0.28869268914E+03  0.17770000000E+01 0.  1.
         15    1    1    2    0    0  0.34442362729E+00 -0.11322187412E+01  0.92103213465E+02  0.92127955619E+02  0.17770000000E+01 0.  1.
</event>
<event>
 6    1  0.9144256E-004  0.5013378E+03  0.7546771E-02  0.9396821E-01
        -11   -1    0    0    0    0  0.00000000000E+00  0.00000000000E+00  0.50000000000E+03  0.50000000000E+03  0.00000000000E+00 0.  1.
         11   -1    0    0    0    0 -0.00000000000E+00 -0.00000000000E+00 -0.50000000000E+03  0.50000000000E+03  0.00000000000E+00 0. -1.
        -11    1    1    2    0    0  0.68232188193E+01  0.88875844874E+01  0.49853634515E+03  0.49866224331E+03  0.00000000000E+00 0.  1.
         11    1    1    2    0    0 -0.61972924816E+01 -0.17394982712E+01 -0.41134633761E+03  0.41139669634E+03  0.00000000000E+00 0. -1.
        -15    1    1    2    0    0  0.83693826499E+01  0.12366938279E+01 -0.23253037376E+02  0.24808011887E+02  0.17770000000E+01 0.  1.
         15    1    1    2    0    0 -0.89953089876E+01 -0.83847800441E+01 -0.63936970157E+02  0.65133048462E+02  0.17770000000E+01 0. -1.
</event>
<event>
 6    1  0.9144256E-004  0.5008834E+03  0.7546771E-02  0.9397835E-01
        -11   -1    0    0    0    0  0.00000000000E+00  0.00000000000E+00  0.50000000000E+03  0.50000000000E+03  0.00000000000E+00 0. -1.
         11   -1    0    0    0    0 -0.00000000000E+00 -0.00000000000E+00 -0.50000000000E+03  0.50000000000E+03  0.00000000000E+00 0.  1.
        -11    1    1    2    0    0 -0.60150490229E+01 -0.39616967130E+01  0.13985651273E+02  0.15731315810E+02  0.00000000000E+00 0. -1.
         11    1    1    2    0    0  0.38440758213E+01  0.11475181366E+02 -0.49896984428E+03  0.49911658178E+03  0.00000000000E+00 0.  1.
        -15    1    1    2    0    0 -0.58930020132E+00 -0.57726454632E+01  0.42984942582E+03  0.42989226245E+03  0.17770000000E+01 0. -1.
         15    1    1    2    0    0  0.27602734030E+01 -0.17408391895E+01  0.55134767188E+02  0.55259839958E+02  0.17770000000E+01 0. -1.
</event>
<event>
 6    1  0.9144256E-004  0.5002867E+03  0.7546771E-02  0.9399168E-01
        -11   -1    0    0    0    0  0.00000000000E+00  0.00000000000E+00  0.50000000000E+03  0.50000000000E+03  0.00000000000E+00 0.  1.
         11   -1    0    0    0    0 -0.00000000000E+00 -0.00000000000E+00 -0.50000000000E+03  0.50000000000E+03  0.00000000000E+00 0. -1.
        -11    1    1    2    0    0  0.11081014171E+02  0.16607126161E+01  0.30709785123E+03  0.30730219178E+03  0.00000000000E+00 0.  1.
         11    1    1    2    0    0 -0.13912724478E+01 -0.70538507997E+01 -0.49966158759E+03  0.49971331238E+03  0.00000000000E+00 0. -1.
        -15    1    1    2    0    0 -0.32330975306E+01 -0.43992092451E+00  0.44605213913E+02  0.44759683727E+02  0.17770000000E+01 0.  1.
         15    1    1    2    0    0 -0.64566441930E+01  0.58330591081E+01  0.14795852245E+03  0.14822481212E+03  0.17770000000E+01 0. -1.
</event>
<event>
 6    1  0.9144256E-004  0.5023158E+03  0.7546771E-02  0.9394643E-01
        -11   -1    0    0    0    0  0.00000000000E+00  0.00000000000E+00  0.50000000000E+03  0.50000000000E+03  0.00000000000E+00 0.  1.
         11   -1    0    0    0    0 -0.00000000000E+00 -0.00000000000E+00 -0.50000000000E+03  0.50000000000E+03  0.00000000000E+00 0. -1.
        -11    1    1    2    0    0 -0.45239564717E+01  0.16436406701E+02  0.42376175202E+03  0.42410452028E+03  0.00000000000E+00 0.  1.
         11    1    1    2    0    0  0.78877438623E+01  0.33285692781E+01 -0.49761054366E+03  0.49768418604E+03  0.00000000000E+00 0. -1.
        -15    1    1    2    0    0  0.19591980893E+01 -0.19301666157E+02  0.48965882022E+02  0.52699223000E+02  0.17770000000E+01 0.  1.
         15    1    1    2    0    0 -0.53229854799E+01 -0.46330982209E+00  0.24882909618E+02  0.25512070682E+02  0.17770000000E+01 0. -1.
</event>
<event>
 6    1  0.9144256E-004  0.5047764E+03  0.7546771E-02  0.9389185E-01
        -11   -1    0    0    0    0  0.00000000000E+00  0.00000000000E+00  0.50000000000E+03  0.50000000000E+03  0.00000000000E+00 0.  1.
         11   -1    0    0    0    0 -0.00000000000E+00 -0.00000000000E+00 -0.50000000000E+03  0.50000000000E+03  0.00000000000E+00 0.  1.
        -11    1    1    2    0    0 -0.32697987884E+02  0.16137444620E+02  0.43460550307E+03  0.43613245560E+03  0.00000000000E+00 0.  1.
         11    1    1    2    0    0  0.33830815581E+01 -0.60569483334E+01 -0.49517498437E+03  0.49522358285E+03  0.00000000000E+00 0.  1.
        -15    1    1    2    0    0  0.83536841760E+00 -0.15726984747E+01  0.51587483578E+01  0.57394803340E+01  0.17770000000E+01 0. -1.
         15    1    1    2    0    0  0.28479537909E+02 -0.85077978118E+01  0.55410732942E+02  0.62904481218E+02  0.17770000000E+01 0.  1.
</event>
<event>
 6    1  0.9144256E-004  0.5001027E+03  0.7546771E-02  0.9399580E-01
        -11   -1    0    0    0    0  0.00000000000E+00  0.00000000000E+00  0.50000000000E+03  0.50000000000E+03  0.00000000000E+00 0. -1.
         11   -1    0    0    0    0 -0.00000000000E+00 -0.00000000000E+00 -0.50000000000E+03  0.50000000000E+03  0.00000000000E+00 0. -1.
        -11    1    1    2    0    0 -0.39112000638E+01  0.12648109509E+02  0.49972200120E+03  0.49989734010E+03  0.00000000000E+00 0. -1.
         11    1    1    2    0    0  0.24711104309E+01 -0.98540852996E+01 -0.42714833126E+03  0.42726912629E+03  0.00000000000E+00 0. -1.
        -15    1    1    2    0    0 -0.94474505887E+00 -0.14698694569E+01 -0.19261253070E+02  0.19421808831E+02  0.17770000000E+01 0. -1.
         15    1    1    2    0    0  0.23848346917E+01 -0.13241547525E+01 -0.53312416865E+02  0.53411724774E+02  0.17770000000E+01 0.  1.
</event>
<event>
 6    1  0.9144256E-004  0.5007126E+03  0.7546771E-02  0.9398217E-01
        -11   -1    0    0    0    0  0.00000000000E+00  0.00000000000E+00  0.50000000000E+03  0.50000000000E+03  0.00000000000E+00 0.  1.
         11   -1    0    0    0    0 -0.00000000000E+00 -0.00000000000E+00 -0.50000000000E+03  0.50000000000E+03  0.00000000000E+00 0.  1.
        -11    1    1    2    0    0  0.54702014040E+01  0.10052744169E+02  0.49915616991E+03  0.49928735486E+03  0.00000000000E+00 0.  1.
         11    1    1    2    0    0  0.37211179293E+01  0.51464416687E+01 -0.27213246297E+03  0.27220655756E+03  0.00000000000E+00 0.  1.
        -15    1    1    2    0    0 -0.52535316409E+01 -0.11026909124E+02 -0.21151811208E+03  0.21187794077E+03  0.17770000000E+01 0. -1.
         15    1    1    2    0    0 -0.39377876923E+01 -0.41722767136E+01 -0.15505594865E+02  0.16628146800E+02  0.17770000000E+01 0.  1.
</event>
<event>
 6    1  0.9144256E-004  0.5002109E+03  0.7546771E-02  0.9399338E-01
        -11   -1    0    0    0    0  0.00000000000E+00  0.00000000000E+00  0.50000000000E+03  0.50000000000E+03  0.00000000000E+00 0. -1.
         11   -1    0    0    0    0 -0.00000000000E+00 -0.00000000000E+00 -0.50000000000E+03  0.50000000000E+03  0.00000000000E+00 0. -1.
        -11    1    1    2    0    0  0.20314890976E+02 -0.10477196788E+02  0.49926613665E+03  0.49978909717E+03  0.00000000000E+00 0. -1.
         11    1    1    2    0    0  0.99589501911E+00  0.48628843311E+01 -0.42045819359E+02  0.42337812609E+02  0.00000000000E+00 0. -1.
        -15    1    1    2    0    0 -0.13597346995E+02  0.41969096830E+00 -0.19506528779E+03  0.19554715087E+03  0.17770000000E+01 0. -1.
         15    1    1    2    0    0 -0.77134390005E+01  0.51946214883E+01 -0.26215502950E+03  0.26232593935E+03  0.17770000000E+01 0.  1.
</event>
<event>
 6    1  0.9144256E-004  0.5040339E+03  0.7546771E-02  0.9390829E-01
        -11   -1    0    0    0    0  0.00000000000E+00  0.00000000000E+00  0.50000000000E+03  0.50000000000E+03  0.00000000000E+00 0. -1.
         11   -1    0    0    0    0 -0.00000000000E+00 -0.00000000000E+00 -0.50000000000E+03  0.50000000000E+03  0.00000000000E+00 0.  1.
        -11    1    1    2    0    0  0.20866353863E+02  0.15183964184E+02  0.49529430969E+03  0.49596613866E+03  0.00000000000E+00 0. -1.
         11    1    1    2    0    0  0.78498210532E+01 -0.17715859972E+01 -0.42184471584E+03  0.42192146484E+03  0.00000000000E+00 0.  1.
        -15    1    1    2    0    0 -0.15738300068E+02 -0.27126980812E+01 -0.17944994923E+02  0.24088034201E+02  0.17770000000E+01 0.  1.
         15    1    1    2    0    0 -0.12977874849E+02 -0.10699680105E+02 -0.55504598917E+02  0.58024362297E+02  0.17770000000E+01 0. -1.
</event>
<event>
 6    1  0.9144256E-004  0.5024343E+03  0.7546771E-02  0.9394379E-01
        -11   -1    0    0    0    0  0.00000000000E+00  0.00000000000E+00  0.50000000000E+03  0.50000000000E+03  0.00000000000E+00 0.  1.
         11   -1    0    0    0    0 -0.00000000000E+00 -0.00000000000E+00 -0.50000000000E+03  0.50000000000E+03  0.00000000000E+00 0. -1.
        -11    1    1    2    0    0 -0.38248843782E+02  0.17762585695E+02  0.26103005047E+03  0.26441477029E+03  0.00000000000E+00 0.  1.
         11    1    1    2    0    0  0.23264172845E+02 -0.17738189695E+02 -0.49670492677E+03  0.49756572369E+03  0.00000000000E+00 0. -1.
        -15    1    1    2    0    0  0.18390796199E+02 -0.10420389793E+02  0.12456532057E+03  0.12635854829E+03  0.17770000000E+01 0. -1.
         15    1    1    2    0    0 -0.34061252624E+01  0.10395993793E+02  0.11110955573E+03  0.11166095772E+03  0.17770000000E+01 0.  1.
</event>
<event>
 6    1  0.9144256E-004  0.5036878E+03  0.7546771E-02  0.9391596E-01
        -11   -1    0    0    0    0  0.00000000000E+00  0.00000000000E+00  0.50000000000E+03  0.50000000000E+03  0.00000000000E+00 0. -1.
         11   -1    0    0    0    0 -0.00000000000E+00 -0.00000000000E+00 -0.50000000000E+03  0.50000000000E+03  0.00000000000E+00 0. -1.
        -11    1    1    2    0    0 -0.32440640580E+01 -0.23900256386E+02  0.53076307640E+02  0.58299576668E+02  0.00000000000E+00 0. -1.
         11    1    1    2    0    0 -0.86821511260E+01 -0.74241274316E+01 -0.49618072820E+03  0.49631221268E+03  0.00000000000E+00 0. -1.
        -15    1    1    2    0    0  0.11251501120E+02  0.25665003679E+02  0.17671786359E+03  0.17893476390E+03  0.17770000000E+01 0.  1.
         15    1    1    2    0    0  0.67471406427E+00  0.56593801379E+01  0.26638655697E+03  0.26645344675E+03  0.17770000000E+01 0. -1.
</event>
<event>
 6    1  0.9144256E-004  0.4620922E+03  0.7546771E-02  0.9488870E-01
        -11   -1    0    0    0    0  0.00000000000E+00  0.00000000000E+00  0.50000000000E+03  0.50000000000E+03  0.00000000000E+00 0.  1.
         11   -1    0    0    0    0 -0.00000000000E+00 -0.00000000000E+00 -0.50000000000E+03  0.50000000000E+03  0.00000000000E+00 0.  1.
        -11    1    1    2    0    0 -0.31518949186E+02 -0.53467838519E+02  0.45875847208E+03  0.46293799759E+03  0.00000000000E+00 0.  1.
         11    1    1    2    0    0 -0.14596895273E+02  0.12301608443E+02 -0.46292746225E+03  0.46332087610E+03  0.00000000000E+00 0.  1.
        -15    1    1    2    0    0  0.28588304945E+02  0.46678430184E+02 -0.22170502543E+00  0.54766540024E+02  0.17770000000E+01 0. -1.
         15    1    1    2    0    0  0.17527539514E+02 -0.55122001085E+01  0.43906951979E+01  0.18974586288E+02  0.17770000000E+01 0.  1.
</event>
<event>
 6    1  0.9144256E-004  0.5016480E+03  0.7546771E-02  0.9396130E-01
        -11   -1    0    0    0    0  0.00000000000E+00  0.00000000000E+00  0.50000000000E+03  0.50000000000E+03  0.00000000000E+00 0. -1.
         11   -1    0    0    0    0 -0.00000000000E+00 -0.00000000000E+00 -0.50000000000E+03  0.50000000000E+03  0.00000000000E+00 0. -1.
        -11    1    1    2    0    0 -0.84461029673E+01 -0.10042191203E+02  0.28017654103E+02  0.30938183543E+02  0.00000000000E+00 0. -1.
         11    1    1    2    0    0  0.54606955660E+01 -0.39747257373E+01 -0.49830621003E+03  0.49835198063E+03  0.00000000000E+00 0. -1.
        -15    1    1    2    0    0  0.47634610716E+01 -0.50413747467E+00  0.13834690808E+03  0.13844121287E+03  0.17770000000E+01 0. -1.
         15    1    1    2    0    0 -0.17780536702E+01  0.14521054415E+02  0.33194164785E+03  0.33226862296E+03  0.17770000000E+01 0.  1.
</event>
<event>
 6    1  0.9144256E-004  0.5039755E+03  0.7546771E-02  0.9390958E-01
        -11   -1    0    0    0    0  0.00000000000E+00  0.00000000000E+00  0.50000000000E+03  0.50000000000E+03  0.00000000000E+00 0.  1.
         11   -1    0    0    0    0 -0.00000000000E+00 -0.00000000000E+00 -0.50000000000E+03  0.50000000000E+03  0.00000000000E+00 0. -1.
        -11    1    1    2    0    0 -0.10364589446E+02  0.30288995528E+02  0.49499040971E+03  0.49602454947E+03  0.00000000000E+00 0.  1.
         11    1    1    2    0    0 -0.86517734448E+01 -0.91133646245E+01 -0.43277011770E+03  0.43295251630E+03  0.00000000000E+00 0. -1.
        -15    1    1    2    0    0  0.63107877365E+01 -0.18854879756E+02 -0.46473676384E+02  0.50579569573E+02  0.17770000000E+01 0.  1.
         15    1    1    2    0    0  0.12705575154E+02 -0.23207511474E+01 -0.15746615631E+02  0.20443364662E+02  0.17770000000E+01 0. -1.
</event>
<event>
 6    1  0.9144256E-004  0.5101123E+03  0.7546771E-02  0.9377463E-01
        -11   -1    0    0    0    0  0.00000000000E+00  0.00000000000E+00  0.50000000000E+03  0.50000000000E+03  0.00000000000E+00 0. -1.
         11   -1    0    0    0    0 -0.00000000000E+00 -0.00000000000E+00 -0.50000000000E+03  0.50000000000E+03  0.00000000000E+00 0. -1.
        -11    1    1    2    0    0 -0.33580230016E+02 -0.18458056417E+02  0.41222585628E+03  0.41400300516E+03  0.00000000000E+00 0. -1.
         11    1    1    2    0    0  0.11173188367E+02 -0.63247140293E+01 -0.48971940834E+03  0.48988768208E+03  0.00000000000E+00 0. -1.
        -15    1    1    2    0    0  0.67403124687E+01  0.11945509488E+02  0.74241355451E+02  0.75518630796E+02  0.17770000000E+01 0.  1.
         15    1    1    2    0    0  0.15666729180E+02  0.12837260959E+02  0.32521966064E+01  0.20590681968E+02  0.17770000000E+01 0. -1.
</event>
<event>
 6    1  0.9144256E-004  0.5017305E+03  0.7546771E-02  0.9395946E-01
        -11   -1    0    0    0    0  0.00000000000E+00  0.00000000000E+00  0.50000000000E+03  0.50000000000E+03  0.00000000000E+00 0. -1.
         11   -1    0    0    0    0 -0.00000000000E+00 -0.00000000000E+00 -0.50000000000E+03  0.50000000000E+03  0.00000000000E+00 0. -1.
        -11    1    1    2    0    0  0.46338426112E+01 -0.10250419713E+02  0.49814252518E+03  0.49826952445E+03  0.00000000000E+00 0. -1.
         11    1    1    2    0    0  0.16195549010E+02 -0.28380749869E+01 -0.39332632758E+03  0.39366984955E+03  0.00000000000E+00 0. -1.
        -15    1    1    2    0    0 -0.14723949277E+02  0.66159728118E+01 -0.52197961564E+02  0.54665809232E+02  0.17770000000E+01 0. -1.
         15    1    1    2    0    0 -0.61054423443E+01  0.64725218881E+01 -0.52618236031E+02  0.53394816769E+02  0.17770000000E+01 0.  1.
</event>
<event>
 6    1  0.9144256E-004  0.4836483E+03  0.7546771E-02  0.9437160E-01
        -11   -1    0    0    0    0  0.00000000000E+00  0.00000000000E+00  0.50000000000E+03  0.50000000000E+03  0.00000000000E+00 0.  1.
         11   -1    0    0    0    0 -0.00000000000E+00 -0.00000000000E+00 -0.50000000000E+03  0.50000000000E+03  0.00000000000E+00 0.  1.
        -11    1    1    2    0    0 -0.96434402183E+01 -0.24201979326E+02  0.48467703152E+03  0.48537671619E+03  0.00000000000E+00 0.  1.
         11    1    1    2    0    0  0.66327016911E+01  0.22752278955E+00 -0.48217911296E+03  0.48222478314E+03  0.00000000000E+00 0.  1.
        -15    1    1    2    0    0 -0.38438951492E-01  0.20163024729E+02  0.71287030898E+01  0.21459850431E+02  0.17770000000E+01 0. -1.
         15    1    1    2    0    0  0.30491774787E+01  0.38114318077E+01 -0.96266216451E+01  0.10938650238E+02  0.17770000000E+01 0.  1.
</event>
<event>
 6    1  0.9144256E-004  0.5057259E+03  0.7546771E-02  0.9387088E-01
        -11   -1    0    0    0    0  0.00000000000E+00  0.00000000000E+00  0.50000000000E+03  0.50000000000E+03  0.00000000000E+00 0.  1.
         11   -1    0    0    0    0 -0.00000000000E+00 -0.00000000000E+00 -0.50000000000E+03  0.50000000000E+03  0.00000000000E+00 0. -1.
        -11    1    1    2    0    0  0.42930657093E+01  0.13096821362E+02  0.49408186259E+03  0.49427405767E+03  0.00000000000E+00 0.  1.
         11    1    1    2    0    0  0.44004542363E+01  0.10836599603E+02 -0.46080537700E+03  0.46095378441E+03  0.00000000000E+00 0. -1.
        -15    1    1    2    0    0 -0.63579196377E+01 -0.62296203575E+01 -0.29686416806E+01  0.95499672432E+01  0.17770000000E+01 0.  1.
         15    1    1    2    0    0 -0.23356003079E+01 -0.17703800607E+02 -0.30307843909E+02  0.35222190678E+02  0.17770000000E+01 0. -1.
</event>
<event>
 6    1  0.9144256E-004  0.4899748E+03  0.7546771E-02  0.9422525E-01
        -11   -1    0    0    0    0  0.00000000000E+00  0.00000000000E+00  0.50000000000E+03  0.50000000000E+03  0.00000000000E+00 0.  1.
         11   -1    0    0    0    0 -0.00000000000E+00 -0.00000000000E+00 -0.50000000000E+03  0.50000000000E+03  0.00000000000E+00 0.  1.
        -11    1    1    2    0    0 -0.42929023636E+01 -0.13887850272E+02  0.49133813466E+03  0.49155311409E+03  0.00000000000E+00 0.  1.
         11    1    1    2    0    0 -0.26193636633E+01  0.97900513227E+01 -0.48832896099E+03  0.48843411052E+03  0.00000000000E+00 0.  1.
        -15    1    1    2    0    0  0.30738848845E+01 -0.69852032908E+01 -0.28326548696E+00  0.78409056641E+01  0.17770000000E+01 0. -1.
         15    1    1    2    0    0  0.38383811424E+01  0.11083002240E+02 -0.27259081804E+01  0.12171869735E+02  0.17770000000E+01 0. -1.
</event>
<event>
 6    1  0.9144256E-004  0.5084619E+03  0.7546771E-02  0.9381072E-01
        -11   -1    0    0    0    0  0.00000000000E+00  0.00000000000E+00  0.50000000000E+03  0.50000000000E+03  0.00000000000E+00 0.  1.
         11   -1    0    0    0    0 -0.00000000000E+00 -0.00000000000E+00 -0.50000000000E+03  0.50000000000E+03  0.00000000000E+00 0. -1.
        -11    1    1    2    0    0 -0.10118503143E+02 -0.13626708609E+02  0.49124495752E+03  0.49153807542E+03  0.00000000000E+00 0.  1.
         11    1    1    2    0    0  0.94955928652E+01  0.16035165060E+02 -0.48470836351E+03  0.48506648045E+03  0.00000000000E+00 0. -1.
        -15    1    1    2    0    0  0.36404620164E+01  0.89097234332E+01 -0.61144332962E+01  0.11540370830E+02  0.17770000000E+01 0. -1.
         15    1    1    2    0    0 -0.30175517384E+01 -0.11318179884E+02 -0.42216072040E+00  0.11855073305E+02  0.17770000000E+01 0.  1.
</event>
<event>
 6    1  0.9144256E-004  0.5006842E+03  0.7546771E-02  0.9398280E-01
        -11   -1    0    0    0    0  0.00000000000E+00  0.00000000000E+00  0.50000000000E+03  0.50000000000E+03  0.00000000000E+00 0. -1.
         11   -1    0    0    0    0 -0.00000000000E+00 -0.00000000000E+00 -0.50000000000E+03  0.50000000000E+03  0.00000000000E+00 0.  1.
        -11    1    1    2    0    0  0.12407899660E+01  0.16557567429E+02  0.37874311102E+03  0.37910689356E+03  0.00000000000E+00 0. -1.
         11    1    1    2    0    0 -0.11259621812E+02 -0.64998419418E+01 -0.49914648618E+03  0.49931577353E+03  0.00000000000E+00 0.  1.
        -15    1    1    2    0    0  0.66620696316E+01 -0.94540977921E+00  0.52928665754E+02  0.53384251975E+02  0.17770000000E+01 0.  1.
         15    1    1    2    0    0  0.33567622145E+01 -0.91123157077E+01  0.67474709403E+02  0.68193080941E+02  0.17770000000E+01 0.  1.
</event>
<event>
 6    1  0.9144256E-004  0.5061539E+03  0.7546771E-02  0.9386144E-01
        -11   -1    0    0    0    0  0.00000000000E+00  0.00000000000E+00  0.50000000000E+03  0.50000000000E+03  0.00000000000E+00 0.  1.
         11   -1    0    0    0    0 -0.00000000000E+00 -0.00000000000E+00 -0.50000000000E+03  0.50000000000E+03  0.00000000000E+00 0.  1.
        -11    1    1    2    0    0 -0.85559121023E+01 -0.88846066051E+01  0.49369199139E+03  0.49384605114E+03  0.00000000000E+00 0.  1.
         11    1    1    2    0    0  0.15361068465E+02  0.11625318876E+02 -0.48551970393E+03  0.48590173222E+03  0.00000000000E+00 0.  1.
        -15    1    1    2    0    0  0.36297536919E+01  0.79857149031E+00  0.24925515459E+01  0.48149112658E+01  0.17770000000E+01 0. -1.
         15    1    1    2    0    0 -0.10434910054E+02 -0.35392837608E+01 -0.10664839000E+02  0.15437305376E+02  0.17770000000E+01 0.  1.
</event>
<event>
 6    1  0.1702183E-003  0.5001777E+03  0.7546771E-02  0.9399412E-01
        -11   -1    0    0    0    0  0.00000000000E+00  0.00000000000E+00  0.50000000000E+03  0.50000000000E+03  0.00000000000E+00 0. -1.
         11   -1    0    0    0    0 -0.00000000000E+00 -0.00000000000E+00 -0.50000000000E+03  0.50000000000E+03  0.00000000000E+00 0.  1.
        -11    1    1    2    0    0  0.26355806042E+01 -0.25315928479E+02  0.49917384574E+03  0.49982233923E+03  0.00000000000E+00 0. -1.
         11    1    1    2    0    0  0.31065409270E+01  0.23620026847E+02 -0.33724712464E+03  0.33808753207E+03  0.00000000000E+00 0.  1.
        -15    1    1    2    0    0 -0.27861124455E+01  0.49985471575E+00 -0.55273212365E+02  0.55374163754E+02  0.17770000000E+01 0. -1.
         15    1    1    2    0    0 -0.29560090857E+01  0.11960469161E+01 -0.10665350874E+03  0.10671596494E+03  0.17770000000E+01 0.  1.
</event>
<event>
 6    1  0.9144256E-004  0.4830249E+03  0.7546771E-02  0.9438615E-01
        -11   -1    0    0    0    0  0.00000000000E+00  0.00000000000E+00  0.50000000000E+03  0.50000000000E+03  0.00000000000E+00 0.  1.
         11   -1    0    0    0    0 -0.00000000000E+00 -0.00000000000E+00 -0.50000000000E+03  0.50000000000E+03  0.00000000000E+00 0.  1.
        -11    1    1    2    0    0 -0.20348243041E+01  0.26401630794E+02  0.48528631511E+03  0.48600822447E+03  0.00000000000E+00 0.  1.
         11    1    1    2    0    0  0.76522634640E+01  0.50945213819E+01 -0.48049510987E+03  0.48058304370E+03  0.00000000000E+00 0.  1.
        -15    1    1    2    0    0 -0.68906968158E+01 -0.17415103927E+02 -0.28381338213E+01  0.19025779352E+02  0.17770000000E+01 0. -1.
         15    1    1    2    0    0  0.12732576559E+01 -0.14081048250E+02 -0.19530714198E+01  0.14382952473E+02  0.17770000000E+01 0.  1.
</event>
<event>
 6    1  0.9144256E-004  0.5018598E+03  0.7546771E-02  0.9395658E-01
        -11   -1    0    0    0    0  0.00000000000E+00  0.00000000000E+00  0.50000000000E+03  0.50000000000E+03  0.00000000000E+00 0.  1.
         11   -1    0    0    0    0 -0.00000000000E+00 -0.00000000000E+00 -0.50000000000E+03  0.50000000000E+03  0.00000000000E+00 0. -1.
        -11    1    1    2    0    0 -0.59322262379E+01  0.83512359980E+01  0.44593028355E+03  0.44604792594E+03  0.00000000000E+00 0.  1.
         11    1    1    2    0    0  0.51140610287E+01  0.57357143476E+01 -0.49808096335E+03  0.49814023938E+03  0.00000000000E+00 0. -1.
        -15    1    1    2    0    0 -0.24525448545E+01 -0.11145369350E+02  0.48414452692E+02  0.49772996621E+02  0.17770000000E+01 0.  1.
         15    1    1    2    0    0  0.32707100636E+01 -0.29415809957E+01  0.37362271122E+01  0.60388380595E+01  0.17770000000E+01 0. -1.
</event>
<event>
 6    1  0.9144256E-004  0.5022903E+03  0.7546771E-02  0.9394700E-01
        -11   -1    0    0    0    0  0.00000000000E+00  0.00000000000E+00  0.50000000000E+03  0.50000000000E+03  0.00000000000E+00 0.  1.
         11   -1    0    0    0    0 -0.00000000000E+00 -0.00000000000E+00 -0.50000000000E+03  0.50000000000E+03  0.00000000000E+00 0. -1.
        -11    1    1    2    0    0  0.11115996665E+02  0.40634460255E+01  0.49756899430E+03  0.49770973576E+03  0.00000000000E+00 0.  1.
         11    1    1    2    0    0 -0.18587637552E+02 -0.10389267543E+02 -0.47774663454E+03  0.47822095726E+03  0.00000000000E+00 0. -1.
        -15    1    1    2    0    0 -0.50877333236E+00 -0.10014653138E+00 -0.84872283210E+01  0.86867515910E+01  0.17770000000E+01 0.  1.
         15    1    1    2    0    0  0.79804142184E+01  0.64259680489E+01 -0.11335131447E+02  0.15382555392E+02  0.17770000000E+01 0. -1.
</event>
<event>
 6    1  0.9144256E-004  0.5003148E+03  0.7546771E-02  0.9399106E-01
        -11   -1    0    0    0    0  0.00000000000E+00  0.00000000000E+00  0.50000000000E+03  0.50000000000E+03  0.00000000000E+00 0. -1.
         11   -1    0    0    0    0 -0.00000000000E+00 -0.00000000000E+00 -0.50000000000E+03  0.50000000000E+03  0.00000000000E+00 0.  1.
        -11    1    1    2    0    0  0.31900680121E+01  0.83197575538E+01  0.11944717487E+03  0.11977905695E+03  0.00000000000E+00 0. -1.
         11    1    1    2    0    0  0.84351469569E+01  0.18906908822E+01 -0.49961045257E+03  0.49968523165E+03  0.00000000000E+00 0.  1.
        -15    1    1    2    0    0 -0.12860310386E+01 -0.32528194428E+01  0.12575552878E+03  0.12581671375E+03  0.17770000000E+01 0. -1.
         15    1    1    2    0    0 -0.10339183930E+02 -0.69576289932E+01  0.25440774892E+03  0.25471899765E+03  0.17770000000E+01 0.  1.
</event>
<event>
 6    1  0.9144256E-004  0.5003603E+03  0.7546771E-02  0.9399004E-01
        -11   -1    0    0    0    0  0.00000000000E+00  0.00000000000E+00  0.50000000000E+03  0.50000000000E+03  0.00000000000E+00 0. -1.
         11   -1    0    0    0    0 -0.00000000000E+00 -0.00000000000E+00 -0.50000000000E+03  0.50000000000E+03  0.00000000000E+00 0.  1.
        -11    1    1    2    0    0  0.17317057231E+02  0.28097154573E+02  0.49854844137E+03  0.49963974918E+03  0.00000000000E+00 0. -1.
         11    1    1    2    0    0 -0.59884161674E+01 -0.22326358031E+01 -0.24418525424E+03  0.24426887681E+03  0.00000000000E+00 0.  1.
        -15    1    1    2    0    0 -0.35140976532E+01 -0.40921418084E+01 -0.30079383191E+02  0.30610807390E+02  0.17770000000E+01 0. -1.
         15    1    1    2    0    0 -0.78145434106E+01 -0.21772376962E+02 -0.22428380394E+03  0.22548056663E+03  0.17770000000E+01 0.  1.
</event>
<event>
 6    1  0.9144256E-004  0.4767007E+03  0.7546771E-02  0.9453508E-01
        -11   -1    0    0    0    0  0.00000000000E+00  0.00000000000E+00  0.50000000000E+03  0.50000000000E+03  0.00000000000E+00 0. -1.
         11   -1    0    0    0    0 -0.00000000000E+00 -0.00000000000E+00 -0.50000000000E+03  0.50000000000E+03  0.00000000000E+00 0. -1.
        -11    1    1    2    0    0  0.23471037915E+02  0.46469789562E+00  0.47866814437E+03  0.47924346422E+03  0.00000000000E+00 0. -1.
         11    1    1    2    0    0  0.68351906990E+01  0.45576408963E+01 -0.47459032496E+03  0.47466142509E+03  0.00000000000E+00 0. -1.
        -15    1    1    2    0    0 -0.89985880711E+01  0.49058887486E+01 -0.16456642560E+02  0.19468465400E+02  0.17770000000E+01 0.  1.
         15    1    1    2    0    0 -0.21307640543E+02 -0.99282275406E+01  0.12378823156E+02  0.26626645288E+02  0.17770000000E+01 0. -1.
</event>
<event>
 6    1  0.9144256E-004  0.5024553E+03  0.7546771E-02  0.9394332E-01
        -11   -1    0    0    0    0  0.00000000000E+00  0.00000000000E+00  0.50000000000E+03  0.50000000000E+03  0.00000000000E+00 0.  1.
         11   -1    0    0    0    0 -0.00000000000E+00 -0.00000000000E+00 -0.50000000000E+03  0.50000000000E+03  0.00000000000E+00 0.  1.
        -11    1    1    2    0    0 -0.13125422407E+02 -0.13282324108E+02  0.37889299447E+03  0.37935286754E+03  0.00000000000E+00 0.  1.
         11    1    1    2    0    0  0.83783913922E+01 -0.11469063148E+01 -0.49747278089E+03  0.49754465183E+03  0.00000000000E+00 0.  1.
        -15    1    1    2    0    0  0.91959075022E+01  0.21352017571E+02  0.10034333040E+03  0.10301657660E+03  0.17770000000E+01 0.  1.
         15    1    1    2    0    0 -0.44488764873E+01 -0.69227871485E+01  0.18236456018E+02  0.20085904038E+02  0.17770000000E+01 0. -1.
</event>
<event>
 6    1  0.9144256E-004  0.5114775E+03  0.7546771E-02  0.9374488E-01
        -11   -1    0    0    0    0  0.00000000000E+00  0.00000000000E+00  0.50000000000E+03  0.50000000000E+03  0.00000000000E+00 0.  1.
         11   -1    0    0    0    0 -0.00000000000E+00 -0.00000000000E+00 -0.50000000000E+03  0.50000000000E+03  0.00000000000E+00 0. -1.
        -11    1    1    2    0    0 -0.33735239701E+02 -0.47795700802E+01  0.40717566434E+03  0.40859874243E+03  0.00000000000E+00 0.  1.
         11    1    1    2    0    0 -0.40175875454E+01  0.29469370111E+02 -0.48761633605E+03  0.48852254397E+03  0.00000000000E+00 0. -1.
        -15    1    1    2    0    0  0.32513218309E+02  0.37553348823E+00  0.65576890877E+02  0.73217052223E+02  0.17770000000E+01 0.  1.
         15    1    1    2    0    0  0.52396089371E+01 -0.25065333519E+02  0.14863780834E+02  0.29661661382E+02  0.17770000000E+01 0. -1.
</event>
<event>
 6    1  0.9144256E-004  0.5085460E+03  0.7546771E-02  0.9380888E-01
        -11   -1    0    0    0    0  0.00000000000E+00  0.00000000000E+00  0.50000000000E+03  0.50000000000E+03  0.00000000000E+00 0. -1.
         11   -1    0    0    0    0 -0.00000000000E+00 -0.00000000000E+00 -0.50000000000E+03  0.50000000000E+03  0.00000000000E+00 0. -1.
        -11    1    1    2    0    0 -0.99832980613E+02  0.17493378112E+02  0.16180734567E+03  0.19092998562E+03  0.00000000000E+00 0. -1.
         11    1    1    2    0    0  0.11275847622E+03  0.12628184931E+01 -0.47834193405E+03  0.49145404113E+03  0.00000000000E+00 0. -1.
        -15    1    1    2    0    0 -0.14492977173E+02 -0.17936890918E+02  0.30025122607E+03  0.30114072280E+03  0.17770000000E+01 0. -1.
         15    1    1    2    0    0  0.15674815639E+01 -0.81930568749E+00  0.16283362308E+02  0.16475250448E+02  0.17770000000E+01 0. -1.
</event>
<event>
 6    1  0.9144256E-004  0.5016781E+03  0.7546771E-02  0.9396063E-01
        -11   -1    0    0    0    0  0.00000000000E+00  0.00000000000E+00  0.50000000000E+03  0.50000000000E+03  0.00000000000E+00 0.  1.
         11   -1    0    0    0    0 -0.00000000000E+00 -0.00000000000E+00 -0.50000000000E+03  0.50000000000E+03  0.00000000000E+00 0. -1.
        -11    1    1    2    0    0  0.69443392895E+01 -0.60633480656E+01  0.47898110054E+03  0.47906980986E+03  0.00000000000E+00 0.  1.
         11    1    1    2    0    0 -0.85274323448E+01 -0.40599848270E+01 -0.49823243674E+03  0.49832194573E+03  0.00000000000E+00 0. -1.
        -15    1    1    2    0    0 -0.14327813524E+01  0.45559686039E+01  0.10398901113E+02  0.11580353436E+02  0.17770000000E+01 0.  1.
         15    1    1    2    0    0  0.30158744078E+01  0.55673642887E+01  0.88524350790E+01  0.11027890977E+02  0.17770000000E+01 0. -1.
</event>
<event>
 6    1  0.9144256E-004  0.5018767E+03  0.7546771E-02  0.9395620E-01
        -11   -1    0    0    0    0  0.00000000000E+00  0.00000000000E+00  0.50000000000E+03  0.50000000000E+03  0.00000000000E+00 0.  1.
         11   -1    0    0    0    0 -0.00000000000E+00 -0.00000000000E+00 -0.50000000000E+03  0.50000000000E+03  0.00000000000E+00 0.  1.
        -11    1    1    2    0    0  0.73615136859E+01 -0.11071775417E+02  0.41470151822E+03  0.41491460002E+03  0.00000000000E+00 0.  1.
         11    1    1    2    0    0 -0.62520583771E+01 -0.10880470381E+02 -0.49796517896E+03  0.49812327021E+03  0.00000000000E+00 0.  1.
        -15    1    1    2    0    0 -0.22120350732E+01  0.21299009391E+02  0.62649209931E+02  0.66231579584E+02  0.17770000000E+01 0.  1.
         15    1    1    2    0    0  0.11025797644E+01  0.65323640670E+00  0.20614450806E+02  0.20730550185E+02  0.17770000000E+01 0. -1.
</event>
<event>
 6    1  0.1741134E-003  0.5082399E+03  0.7546771E-02  0.9381559E-01
        -11   -1    0    0    0    0  0.00000000000E+00  0.00000000000E+00  0.50000000000E+03  0.50000000000E+03  0.00000000000E+00 0.  1.
         11   -1    0    0    0    0 -0.00000000000E+00 -0.00000000000E+00 -0.50000000000E+03  0.50000000000E+03  0.00000000000E+00 0.  1.
        -11    1    1    2    0    0 -0.12488096909E+02  0.94436169703E+01 -0.32113933346E+02  0.35727289022E+02  0.00000000000E+00 0.  1.
         11    1    1    2    0    0 -0.12130592690E+02 -0.27164648068E+02 -0.45506135191E+03  0.45603278762E+03  0.00000000000E+00 0.  1.
        -15    1    1    2    0    0  0.87340430938E+01 -0.56364743158E+02  0.31491818115E+03  0.32004669398E+03  0.17770000000E+01 0.  1.
         15    1    1    2    0    0  0.15884646505E+02  0.74085774255E+02  0.17225710410E+03  0.18819322938E+03  0.17770000000E+01 0. -1.
</event>
<event>
 6    1  0.9144256E-004  0.5034239E+03  0.7546771E-02  0.9392181E-01
        -11   -1    0    0    0    0  0.00000000000E+00  0.00000000000E+00  0.50000000000E+03  0.50000000000E+03  0.00000000000E+00 0. -1.
         11   -1    0    0    0    0 -0.00000000000E+00 -0.00000000000E+00 -0.50000000000E+03  0.50000000000E+03  0.00000000000E+00 0.  1.
        -11    1    1    2    0    0  0.48916220104E+02  0.85261172713E+01  0.49408740832E+03  0.49657613548E+03  0.00000000000E+00 0. -1.
         11    1    1    2    0    0  0.50283262347E+01  0.59514209095E+00 -0.32140710094E+03  0.32144698287E+03  0.00000000000E+00 0.  1.
        -15    1    1    2    0    0 -0.30750405436E+01  0.48315653996E+00 -0.29460934930E+02  0.29678169259E+02  0.17770000000E+01 0. -1.
         15    1    1    2    0    0 -0.50869505795E+02 -0.96044159023E+01 -0.14321937245E+03  0.15229871240E+03  0.17770000000E+01 0. -1.
</event>
<event>
 6    1  0.9144256E-004  0.5001375E+03  0.7546771E-02  0.9399502E-01
        -11   -1    0    0    0    0  0.00000000000E+00  0.00000000000E+00  0.50000000000E+03  0.50000000000E+03  0.00000000000E+00 0.  1.
         11   -1    0    0    0    0 -0.00000000000E+00 -0.00000000000E+00 -0.50000000000E+03  0.50000000000E+03  0.00000000000E+00 0.  1.
        -11    1    1    2    0    0 -0.51008233858E+01 -0.82978196162E+01  0.21469632088E+03  0.21491715243E+03  0.00000000000E+00 0.  1.
         11    1    1    2    0    0  0.55823629432E+01  0.46252651816E+01 -0.49980989460E+03  0.49986246768E+03  0.00000000000E+00 0.  1.
        -15    1    1    2    0    0 -0.97837531428E+00  0.50863446924E+01  0.20445014606E+03  0.20452346583E+03  0.17770000000E+01 0.  1.
         15    1    1    2    0    0  0.49683575692E+00 -0.14137902578E+01  0.80663427665E+02  0.80696914069E+02  0.17770000000E+01 0. -1.
</event>
<event>
 6    1  0.9144256E-004  0.5002085E+03  0.7546771E-02  0.9399343E-01
        -11   -1    0    0    0    0  0.00000000000E+00  0.00000000000E+00  0.50000000000E+03  0.50000000000E+03  0.00000000000E+00 0.  1.
         11   -1    0    0    0    0 -0.00000000000E+00 -0.00000000000E+00 -0.50000000000E+03  0.50000000000E+03  0.00000000000E+00 0. -1.
        -11    1    1    2    0    0  0.67111152468E+01 -0.26044541399E+01  0.87387497424E+02  0.87683504465E+02  0.00000000000E+00 0.  1.
         11    1    1    2    0    0 -0.95624578417E+01 -0.93826421913E+01 -0.49961190059E+03  0.49979148231E+03  0.00000000000E+00 0. -1.
        -15    1    1    2    0    0  0.55645014000E+01  0.38824027191E+01  0.18716479280E+03  0.18729616686E+03  0.17770000000E+01 0. -1.
         15    1    1    2    0    0 -0.27131588051E+01  0.81046936121E+01  0.22505961037E+03  0.22522884637E+03  0.17770000000E+01 0.  1.
</event>
<event>
 6    1  0.9144256E-004  0.5090728E+03  0.7546771E-02  0.9379734E-01
        -11   -1    0    0    0    0  0.00000000000E+00  0.00000000000E+00  0.50000000000E+03  0.50000000000E+03  0.00000000000E+00 0. -1.
         11   -1    0    0    0    0 -0.00000000000E+00 -0.00000000000E+00 -0.50000000000E+03  0.50000000000E+03  0.00000000000E+00 0. -1.
        -11    1    1    2    0    0 -0.30642964695E+02  0.93268459334E+02  0.21900301607E+03  0.24000066216E+03  0.00000000000E+00 0. -1.
         11    1    1    2    0    0  0.35180579361E+02 -0.70558945279E+02 -0.48455471343E+03  0.49092719239E+03  0.00000000000E+00 0. -1.
        -15    1    1    2    0    0 -0.15262421466E+02 -0.20393638422E+02  0.10215649817E+03  0.10529933449E+03  0.17770000000E+01 0.  1.
         15    1    1    2    0    0  0.10724806800E+02 -0.23158756328E+01  0.16339519919E+03  0.16377281096E+03  0.17770000000E+01 0. -1.
</event>
<event>
 6    1  0.9144256E-004  0.5010432E+03  0.7546771E-02  0.9397479E-01
        -11   -1    0    0    0    0  0.00000000000E+00  0.00000000000E+00  0.50000000000E+03  0.50000000000E+03  0.00000000000E+00 0. -1.
         11   -1    0    0    0    0 -0.00000000000E+00 -0.00000000000E+00 -0.50000000000E+03  0.50000000000E+03  0.00000000000E+00 0.  1.
        -11    1    1    2    0    0  0.26684911448E+00  0.12961084522E+02  0.49878840174E+03  0.49895684245E+03  0.00000000000E+00 0. -1.
         11    1    1    2    0    0  0.43093138516E+01  0.41769696920E+01 -0.41102435541E+03  0.41106816710E+03  0.00000000000E+00 0.  1.
        -15    1    1    2    0    0 -0.22214611576E+01 -0.19159211999E+01 -0.28909812691E+02  0.29112551289E+02  0.17770000000E+01 0.  1.
         15    1    1    2    0    0 -0.23547018085E+01 -0.15222133014E+02 -0.58854233637E+02  0.60862439157E+02  0.17770000000E+01 0. -1.
</event>
<event>
 6    1  0.9144256E-004  0.5007672E+03  0.7546771E-02  0.9398095E-01
        -11   -1    0    0    0    0  0.00000000000E+00  0.00000000000E+00  0.50000000000E+03  0.50000000000E+03  0.00000000000E+00 0.  1.
         11   -1    0    0    0    0 -0.00000000000E+00 -0.00000000000E+00 -0.50000000000E+03  0.50000000000E+03  0.00000000000E+00 0. -1.
        -11    1    1    2    0    0  0.15160755525E+02 -0.15357072646E+02  0.49876616670E+03  0.49923278862E+03  0.00000000000E+00 0.  1.
         11    1    1    2    0    0 -0.85997005656E+01  0.31304005218E+01 -0.24277449725E+03  0.24294692995E+03  0.00000000000E+00 0. -1.
        -15    1    1    2    0    0  0.88820878111E+01 -0.10250960129E+01 -0.50530592816E+02  0.51346283654E+02  0.17770000000E+01 0.  1.
         15    1    1    2    0    0 -0.15443142770E+02  0.13251768137E+02 -0.20546107663E+03  0.20647399778E+03  0.17770000000E+01 0. -1.
</event>
<event>
 6    1  0.9144256E-004  0.5005910E+03  0.7546771E-02  0.9398488E-01
        -11   -1    0    0    0    0  0.00000000000E+00  0.00000000000E+00  0.50000000000E+03  0.50000000000E+03  0.00000000000E+00 0.  1.
         11   -1    0    0    0    0 -0.00000000000E+00 -0.00000000000E+00 -0.50000000000E+03  0.50000000000E+03  0.00000000000E+00 0.  1.
        -11    1    1    2    0    0 -0.33402190706E+01 -0.11951875971E+02  0.49925478155E+03  0.49940899202E+03  0.00000000000E+00 0.  1.
         11    1    1    2    0    0  0.47277443048E+01  0.70159192837E+01 -0.46699039372E+03  0.46706702144E+03  0.00000000000E+00 0.  1.
        -15    1    1    2    0    0 -0.10994630568E+01 -0.10201432160E+01 -0.44366870649E+01  0.50091348860E+01  0.17770000000E+01 0. -1.
         15    1    1    2    0    0 -0.28806217746E+00  0.59560999036E+01 -0.27827700769E+02  0.28514851656E+02  0.17770000000E+01 0.  1.
</event>
<event>
 6    1  0.9144256E-004  0.5016880E+03  0.7546771E-02  0.9396040E-01
        -11   -1    0    0    0    0  0.00000000000E+00  0.00000000000E+00  0.50000000000E+03  0.50000000000E+03  0.00000000000E+00 0. -1.
         11   -1    0    0    0    0 -0.00000000000E+00 -0.00000000000E+00 -0.50000000000E+03  0.50000000000E+03  0.00000000000E+00 0.  1.
        -11    1    1    2    0    0  0.10854118911E+02 -0.77813065105E+01  0.49813296186E+03  0.49831195884E+03  0.00000000000E+00 0. -1.
         11    1    1    2    0    0 -0.82054966564E+01 -0.24866180646E+01 -0.43564478205E+03  0.43572914703E+03  0.00000000000E+00 0.  1.
        -15    1    1    2    0    0 -0.73069308429E+01  0.58159306441E+01 -0.13468412725E+02  0.16485513578E+02  0.17770000000E+01 0. -1.
         15    1    1    2    0    0  0.46583085886E+01  0.44519939311E+01 -0.49019767086E+02  0.49473380550E+02  0.17770000000E+01 0.  1.
</event>
<event>
 6    1  0.9144256E-004  0.5002929E+03  0.7546771E-02  0.9399154E-01
        -11   -1    0    0    0    0  0.00000000000E+00  0.00000000000E+00  0.50000000000E+03  0.50000000000E+03  0.00000000000E+00 0.  1.
         11   -1    0    0    0    0 -0.00000000000E+00 -0.00000000000E+00 -0.50000000000E+03  0.50000000000E+03  0.00000000000E+00 0. -1.
        -11    1    1    2    0    0 -0.31266858201E+01 -0.87449546249E+01  0.35641381129E+03  0.35653478831E+03  0.00000000000E+00 0.  1.
         11    1    1    2    0    0 -0.70883810826E+01  0.52369917445E+01 -0.49962933644E+03  0.49970705924E+03  0.00000000000E+00 0. -1.
        -15    1    1    2    0    0  0.88303485328E+01  0.43045098013E+01  0.12223785638E+03  0.12264483324E+03  0.17770000000E+01 0.  1.
         15    1    1    2    0    0  0.13847183699E+01 -0.79654692080E+00  0.20977668761E+02  0.21113319200E+02  0.17770000000E+01 0. -1.
</event>
<event>
 6    1  0.9144256E-004  0.4829106E+03  0.7546771E-02  0.9438882E-01
        -11   -1    0    0    0    0  0.00000000000E+00  0.00000000000E+00  0.50000000000E+03  0.50000000000E+03  0.00000000000E+00 0.  1.
         11   -1    0    0    0    0 -0.00000000000E+00 -0.00000000000E+00 -0.50000000000E+03  0.50000000000E+03  0.00000000000E+00 0.  1.
        -11    1    1    2    0    0 -0.16633334724E+02 -0.84261408185E+01  0.48242024815E+03  0.48278045062E+03  0.00000000000E+00 0.  1.
         11    1    1    2    0    0  0.29442358055E+01  0.65118471249E+01 -0.48308705893E+03  0.48313991677E+03  0.00000000000E+00 0.  1.
        -15    1    1    2    0    0  0.15930472811E+01 -0.49433755311E+01 -0.13240573959E+02  0.14333362796E+02  0.17770000000E+01 0. -1.
         15    1    1    2    0    0  0.12096051637E+02  0.68576692248E+01  0.13907384733E+02  0.19746269813E+02  0.17770000000E+01 0.  1.
</event>
<event>
 6    1  0.9144256E-004  0.5006887E+03  0.7546771E-02  0.9398270E-01
        -11   -1    0    0    0    0  0.00000000000E+00  0.00000000000E+00  0.50000000000E+03  0.50000000000E+03  0.00000000000E+00 0.  1.
         11   -1    0    0    0    0 -0.00000000000E+00 -0.00000000000E+00 -0.50000000000E+03  0.50000000000E+03  0.00000000000E+00 0.  1.
        -11    1    1    2    0    0 -0.74793181137E+00  0.11286819661E+02  0.49918318438E+03  0.49931132900E+03  0.00000000000E+00 0.  1.
         11    1    1    2    0    0  0.28316563332E+01 -0.10513807703E+02 -0.39870377348E+03  0.39885242561E+03  0.00000000000E+00 0.  1.
        -15    1    1    2    0    0  0.44855324641E+01  0.35990790717E+01 -0.71385864315E+02  0.71639184282E+02  0.17770000000E+01 0.  1.
         15    1    1    2    0    0 -0.65692569860E+01 -0.43720910304E+01 -0.29093546587E+02  0.30197061104E+02  0.17770000000E+01 0. -1.
</event>
<event>
 6    1  0.9144256E-004  0.5110571E+03  0.7546771E-02  0.9375403E-01
        -11   -1    0    0    0    0  0.00000000000E+00  0.00000000000E+00  0.50000000000E+03  0.50000000000E+03  0.00000000000E+00 0. -1.
         11   -1    0    0    0    0 -0.00000000000E+00 -0.00000000000E+00 -0.50000000000E+03  0.50000000000E+03  0.00000000000E+00 0. -1.
        -11    1    1    2    0    0 -0.29772133403E+02 -0.47871746915E+02  0.38398962733E+03  0.38810580771E+03  0.00000000000E+00 0. -1.
         11    1    1    2    0    0  0.16014509764E+02  0.15763363809E+02 -0.48842627514E+03  0.48894291529E+03  0.00000000000E+00 0. -1.
        -15    1    1    2    0    0  0.22014595968E+02  0.32092813076E+02  0.10720406979E+03  0.11406340954E+03  0.17770000000E+01 0. -1.
         15    1    1    2    0    0 -0.82569723291E+01  0.15570030038E-01 -0.27674219860E+01  0.88878674561E+01  0.17770000000E+01 0.  1.
</event>
<event>
 6    1  0.9144256E-004  0.5003096E+03  0.7546771E-02  0.9399117E-01
        -11   -1    0    0    0    0  0.00000000000E+00  0.00000000000E+00  0.50000000000E+03  0.50000000000E+03  0.00000000000E+00 0.  1.
         11   -1    0    0    0    0 -0.00000000000E+00 -0.00000000000E+00 -0.50000000000E+03  0.50000000000E+03  0.00000000000E+00 0.  1.
        -11    1    1    2    0    0 -0.28675210902E+01 -0.62538476699E+01  0.33151563500E+03  0.33158701654E+03  0.00000000000E+00 0.  1.
         11    1    1    2    0    0 -0.57542455321E+01  0.38797029642E+01 -0.49964225347E+03  0.49969044907E+03  0.00000000000E+00 0.  1.
        -15    1    1    2    0    0  0.26566301125E+01  0.30345958976E+01  0.13084086899E+03  0.13091507622E+03  0.17770000000E+01 0. -1.
         15    1    1    2    0    0  0.59651365097E+01 -0.66045119193E+00  0.37285749486E+02  0.37807458168E+02  0.17770000000E+01 0.  1.
</event>
<event>
 6    1  0.9144256E-004  0.5005361E+03  0.7546771E-02  0.9398611E-01
        -11   -1    0    0    0    0  0.00000000000E+00  0.00000000000E+00  0.50000000000E+03  0.50000000000E+03  0.00000000000E+00 0. -1.
         11   -1    0    0    0    0 -0.00000000000E+00 -0.00000000000E+00 -0.50000000000E+03  0.50000000000E+03  0.00000000000E+00 0. -1.
        -11    1    1    2    0    0 -0.14619578700E+02  0.47897386120E+01  0.49922696250E+03  0.49946394641E+03  0.00000000000E+00 0. -1.
         11    1    1    2    0    0 -0.11504423579E+01 -0.57607661737E+01 -0.33619691846E+03  0.33624823855E+03  0.00000000000E+00 0. -1.
        -15    1    1    2    0    0  0.44170153378E+01  0.10025066532E+01 -0.10599815717E+03  0.10610976438E+03  0.17770000000E+01 0.  1.
         15    1    1    2    0    0  0.11353005720E+02 -0.31479091467E-01 -0.57031886869E+02  0.58178050661E+02  0.17770000000E+01 0. -1.
</event>
<event>
 6    1  0.9144256E-004  0.5002344E+03  0.7546771E-02  0.9399285E-01
        -11   -1    0    0    0    0  0.00000000000E+00  0.00000000000E+00  0.50000000000E+03  0.50000000000E+03  0.00000000000E+00 0.  1.
         11   -1    0    0    0    0 -0.00000000000E+00 -0.00000000000E+00 -0.50000000000E+03  0.50000000000E+03  0.00000000000E+00 0. -1.
        -11    1    1    2    0    0 -0.11339907964E+02  0.39467216142E+01 -0.56603449854E+02  0.57862947207E+02  0.00000000000E+00 0.  1.
         11    1    1    2    0    0 -0.15320811617E+02 -0.17486741316E+00 -0.44163700046E+03  0.44190270198E+03  0.00000000000E+00 0. -1.
        -15    1    1    2    0    0  0.12884819045E+02  0.90787552727E+01  0.79521154974E+02  0.81087694359E+02  0.17770000000E+01 0. -1.
         15    1    1    2    0    0  0.13775900535E+02 -0.12850609474E+02  0.41871929534E+03  0.41914665645E+03  0.17770000000E+01 0.  1.
</event>
<event>
 6    1  0.9144256E-004  0.4869386E+03  0.7546771E-02  0.9429519E-01
        -11   -1    0    0    0    0  0.00000000000E+00  0.00000000000E+00  0.50000000000E+03  0.50000000000E+03  0.00000000000E+00 0.  1.
         11   -1    0    0    0    0 -0.00000000000E+00 -0.00000000000E+00 -0.50000000000E+03  0.50000000000E+03  0.00000000000E+00 0. -1.
        -11    1    1    2    0    0 -0.21332338137E+02 -0.53436611567E+01  0.48924321918E+03  0.48973722635E+03  0.00000000000E+00 0.  1.
         11    1    1    2    0    0  0.10196160640E+02  0.40941158752E+01 -0.48409335254E+03  0.48421802677E+03  0.00000000000E+00 0. -1.
        -15    1    1    2    0    0 -0.52201693349E+01  0.61592527296E+00 -0.75881561458E+01  0.94003922535E+01  0.17770000000E+01 0.  1.
         15    1    1    2    0    0  0.16356346831E+02  0.63362000857E+00  0.24382895127E+01  0.16644354621E+02  0.17770000000E+01 0. -1.
</event>
<event>
 6    1  0.9144256E-004  0.5008618E+03  0.7546771E-02  0.9397883E-01
        -11   -1    0    0    0    0  0.00000000000E+00  0.00000000000E+00  0.50000000000E+03  0.50000000000E+03  0.00000000000E+00 0. -1.
         11   -1    0    0    0    0 -0.00000000000E+00 -0.00000000000E+00 -0.50000000000E+03  0.50000000000E+03  0.00000000000E+00 0.  1.
        -11    1    1    2    0    0  0.89690586861E+01 -0.10175261206E+02  0.34353971201E+03  0.34380737875E+03  0.00000000000E+00 0. -1.
         11    1    1    2    0    0  0.73205015051E+01 -0.19650339644E+01 -0.49908061353E+03  0.49913816715E+03  0.00000000000E+00 0.  1.
        -15    1    1    2    0    0 -0.31245491447E+01  0.45930831820E+01  0.27951516244E+02  0.28553532353E+02  0.17770000000E+01 0.  1.
         15    1    1    2    0    0 -0.13165011046E+02  0.75472119888E+01  0.12758938528E+03  0.12850092174E+03  0.17770000000E+01 0. -1.
</event>
<event>
 6    1  0.9144256E-004  0.4905270E+03  0.7546771E-02  0.9421259E-01
        -11   -1    0    0    0    0  0.00000000000E+00  0.00000000000E+00  0.50000000000E+03  0.50000000000E+03  0.00000000000E+00 0. -1.
         11   -1    0    0    0    0 -0.00000000000E+00 -0.00000000000E+00 -0.50000000000E+03  0.50000000000E+03  0.00000000000E+00 0. -1.
        -11    1    1    2    0    0  0.97423280956E+01  0.39031970405E+01  0.48873539299E+03  0.48884806665E+03  0.00000000000E+00 0. -1.
         11    1    1    2    0    0 -0.62363677326E+00  0.68745444420E+01 -0.49226536980E+03  0.49231376437E+03  0.00000000000E+00 0. -1.
        -15    1    1    2    0    0 -0.10402598073E+02 -0.39117992063E+01  0.27696686527E+01  0.11590729620E+02  0.17770000000E+01 0.  1.
         15    1    1    2    0    0  0.12839067503E+01 -0.68659422762E+01  0.76030815301E+00  0.72474393665E+01  0.17770000000E+01 0. -1.
</event>
<event>
 6    1  0.9144256E-004  0.5133033E+03  0.7546771E-02  0.9370525E-01
        -11   -1    0    0    0    0  0.00000000000E+00  0.00000000000E+00  0.50000000000E+03  0.50000000000E+03  0.00000000000E+00 0. -1.
         11   -1    0    0    0    0 -0.00000000000E+00 -0.00000000000E+00 -0.50000000000E+03  0.50000000000E+03  0.00000000000E+00 0.  1.
        -11    1    1    2    0    0  0.46834203184E+02  0.10265317633E+02  0.43607109303E+03  0.43869900559E+03  0.00000000000E+00 0. -1.
         11    1    1    2    0    0 -0.15533869831E+02 -0.89434895613E+01 -0.48636655848E+03  0.48669673959E+03  0.00000000000E+00 0.  1.
        -15    1    1    2    0    0 -0.19299915453E+02 -0.65005137413E+01 -0.21221568977E+01  0.20552486329E+02  0.17770000000E+01 0.  1.
         15    1    1    2    0    0 -0.12000417900E+02  0.51786856696E+01  0.52417622350E+02  0.54051768489E+02  0.17770000000E+01 0. -1.
</event>
<event>
 6    1  0.9144256E-004  0.5070810E+03  0.7546771E-02  0.9384103E-01
        -11   -1    0    0    0    0  0.00000000000E+00  0.00000000000E+00  0.50000000000E+03  0.50000000000E+03  0.00000000000E+00 0. -1.
         11   -1    0    0    0    0 -0.00000000000E+00 -0.00000000000E+00 -0.50000000000E+03  0.50000000000E+03  0.00000000000E+00 0.  1.
        -11    1    1    2    0    0 -0.22820275065E+02 -0.94149333767E+01  0.45232261491E+03  0.45299575482E+03  0.00000000000E+00 0. -1.
         11    1    1    2    0    0 -0.58112856440E+01 -0.75773770250E+01 -0.49282647185E+03  0.49291897817E+03  0.00000000000E+00 0.  1.
        -15    1    1    2    0    0  0.13679383426E+02  0.32067644181E+01  0.23855671678E+02  0.27742740838E+02  0.17770000000E+01 0.  1.
         15    1    1    2    0    0  0.14952177283E+02  0.13785545984E+02  0.16648185260E+02  0.26342526170E+02  0.17770000000E+01 0. -1.
</event>
<event>
 6    1  0.9144256E-004  0.5002520E+03  0.7546771E-02  0.9399246E-01
        -11   -1    0    0    0    0  0.00000000000E+00  0.00000000000E+00  0.50000000000E+03  0.50000000000E+03  0.00000000000E+00 0.  1.
         11   -1    0    0    0    0 -0.00000000000E+00 -0.00000000000E+00 -0.50000000000E+03  0.50000000000E+03  0.00000000000E+00 0. -1.
        -11    1    1    2    0    0 -0.23807210051E+02 -0.23728323206E+00  0.27111573546E+03  0.27215911076E+03  0.00000000000E+00 0.  1.
         11    1    1    2    0    0  0.28254762770E+02 -0.69526894820E+01 -0.49890022559E+03  0.49974804312E+03  0.00000000000E+00 0. -1.
        -15    1    1    2    0    0 -0.43856690759E+00  0.27333130475E+01  0.25441801989E+02  0.25653583738E+02  0.17770000000E+01 0. -1.
         15    1    1    2    0    0 -0.40089858105E+01  0.44566596666E+01  0.20234268814E+03  0.20243926238E+03  0.17770000000E+01 0. -1.
</event>
<event>
 6    1  0.9144256E-004  0.5008355E+03  0.7546771E-02  0.9397942E-01
        -11   -1    0    0    0    0  0.00000000000E+00  0.00000000000E+00  0.50000000000E+03  0.50000000000E+03  0.00000000000E+00 0.  1.
         11   -1    0    0    0    0 -0.00000000000E+00 -0.00000000000E+00 -0.50000000000E+03  0.50000000000E+03  0.00000000000E+00 0. -1.
        -11    1    1    2    0    0  0.34462876372E+01  0.57788145554E+01  0.46671965033E+03  0.46676814759E+03  0.00000000000E+00 0.  1.
         11    1    1    2    0    0 -0.90344105135E+01 -0.18676106662E+01 -0.49907928955E+03  0.49916454782E+03  0.00000000000E+00 0. -1.
        -15    1    1    2    0    0 -0.33481357302E+00 -0.38714734700E+01  0.16511339898E+02  0.17055277224E+02  0.17770000000E+01 0. -1.
         15    1    1    2    0    0  0.59229364493E+01 -0.39730419282E-01  0.15848299323E+02  0.17012027366E+02  0.17770000000E+01 0.  1.
</event>
<event>
 6    1  0.9144256E-004  0.5019721E+03  0.7546771E-02  0.9395408E-01
        -11   -1    0    0    0    0  0.00000000000E+00  0.00000000000E+00  0.50000000000E+03  0.50000000000E+03  0.00000000000E+00 0.  1.
         11   -1    0    0    0    0 -0.00000000000E+00 -0.00000000000E+00 -0.50000000000E+03  0.50000000000E+03  0.00000000000E+00 0. -1.
        -11    1    1    2    0    0  0.17125684701E+02 -0.23542754453E+02  0.49717625927E+03  0.49802789394E+03  0.00000000000E+00 0.  1.
         11    1    1    2    0    0 -0.33006295300E-01 -0.50642054903E+01 -0.36728393916E+03  0.36731885227E+03  0.00000000000E+00 0. -1.
        -15    1    1    2    0    0 -0.14706090034E+02  0.24835591653E+02 -0.12227284334E+03  0.12564585805E+03  0.17770000000E+01 0.  1.
         15    1    1    2    0    0 -0.23865883714E+01  0.37713682904E+01 -0.76194767643E+01  0.90073957390E+01  0.17770000000E+01 0.  1.
</event>
<event>
 6    1  0.9144256E-004  0.5030148E+03  0.7546771E-02  0.9393089E-01
        -11   -1    0    0    0    0  0.00000000000E+00  0.00000000000E+00  0.50000000000E+03  0.50000000000E+03  0.00000000000E+00 0.  1.
         11   -1    0    0    0    0 -0.00000000000E+00 -0.00000000000E+00 -0.50000000000E+03  0.50000000000E+03  0.00000000000E+00 0.  1.
        -11    1    1    2    0    0 -0.36492929555E+01  0.22034739063E+02  0.49648308498E+03  0.49698521178E+03  0.00000000000E+00 0.  1.
         11    1    1    2    0    0  0.16813885459E+02  0.30416277133E+01 -0.41339683486E+03  0.41374980522E+03  0.00000000000E+00 0.  1.
        -15    1    1    2    0    0 -0.55208640701E+01  0.48240938967E+00 -0.12629715418E+02  0.13906117339E+02  0.17770000000E+01 0. -1.
         15    1    1    2    0    0 -0.76437284333E+01 -0.25558776165E+02 -0.70456534696E+02  0.75358865662E+02  0.17770000000E+01 0.  1.
</event>
<event>
 6    1  0.9144256E-004  0.5016729E+03  0.7546771E-02  0.9396074E-01
        -11   -1    0    0    0    0  0.00000000000E+00  0.00000000000E+00  0.50000000000E+03  0.50000000000E+03  0.00000000000E+00 0. -1.
         11   -1    0    0    0    0 -0.00000000000E+00 -0.00000000000E+00 -0.50000000000E+03  0.50000000000E+03  0.00000000000E+00 0.  1.
        -11    1    1    2    0    0  0.17564260538E+00 -0.16031931759E+02  0.43331182773E+03  0.43360834140E+03  0.00000000000E+00 0. -1.
         11    1    1    2    0    0 -0.99770929813E+01  0.14280933152E+01 -0.49822512285E+03  0.49832705614E+03  0.00000000000E+00 0.  1.
        -15    1    1    2    0    0  0.82281991442E+01  0.84667101567E+01  0.26147863645E+02  0.28744685496E+02  0.17770000000E+01 0.  1.
         15    1    1    2    0    0  0.15732512317E+01  0.61371282873E+01  0.38765431483E+02  0.39319916965E+02  0.17770000000E+01 0. -1.
</event>
<event>
 6    1  0.9144256E-004  0.5054279E+03  0.7546771E-02  0.9387746E-01
        -11   -1    0    0    0    0  0.00000000000E+00  0.00000000000E+00  0.50000000000E+03  0.50000000000E+03  0.00000000000E+00 0. -1.
         11   -1    0    0    0    0 -0.00000000000E+00 -0.00000000000E+00 -0.50000000000E+03  0.50000000000E+03  0.00000000000E+00 0. -1.
        -11    1    1    2    0    0  0.18832978663E+02 -0.28936465914E+02  0.49336557634E+03  0.49457213029E+03  0.00000000000E+00 0. -1.
         11    1    1    2    0    0 -0.57292279469E+01 -0.32201446003E+01 -0.43626063628E+03  0.43631013758E+03  0.00000000000E+00 0. -1.
        -15    1    1    2    0    0 -0.16220193885E+01  0.14438885093E+02 -0.10784907523E+02  0.18181977585E+02  0.17770000000E+01 0. -1.
         15    1    1    2    0    0 -0.11481731328E+02  0.17717725421E+02 -0.46320032534E+02  0.50935754548E+02  0.17770000000E+01 0.  1.
</event>
<event>
 6    1  0.9144256E-004  0.5100884E+03  0.7546771E-02  0.9377515E-01
        -11   -1    0    0    0    0  0.00000000000E+00  0.00000000000E+00  0.50000000000E+03  0.50000000000E+03  0.00000000000E+00 0. -1.
         11   -1    0    0    0    0 -0.00000000000E+00 -0.00000000000E+00 -0.50000000000E+03  0.50000000000E+03  0.00000000000E+00 0. -1.
        -11    1    1    2    0    0 -0.22576251914E+02 -0.16600474632E+02  0.43740327895E+03  0.43830000153E+03  0.00000000000E+00 0. -1.
         11    1    1    2    0    0 -0.11085657309E+02  0.26684543857E+02 -0.48905870753E+03  0.48991160028E+03  0.00000000000E+00 0. -1.
        -15    1    1    2    0    0  0.26189385779E+02  0.47909842579E+00  0.52502137511E+02  0.58700473891E+02  0.17770000000E+01 0.  1.
         15    1    1    2    0    0  0.74725234438E+01 -0.10563167651E+02 -0.84670893334E+00  0.13087924299E+02  0.17770000000E+01 0. -1.
</event>
<event>
 6    1  0.9144256E-004  0.5001756E+03  0.7546771E-02  0.9399417E-01
        -11   -1    0    0    0    0  0.00000000000E+00  0.00000000000E+00  0.50000000000E+03  0.50000000000E+03  0.00000000000E+00 0. -1.
         11   -1    0    0    0    0 -0.00000000000E+00 -0.00000000000E+00 -0.50000000000E+03  0.50000000000E+03  0.00000000000E+00 0.  1.
        -11    1    1    2    0    0 -0.44038770046E+01  0.31145302296E+01  0.37354778789E+02  0.37742203560E+02  0.00000000000E+00 0. -1.
         11    1    1    2    0    0  0.91581407112E+01 -0.40081954878E+01 -0.49972440303E+03  0.49982438531E+03  0.00000000000E+00 0.  1.
        -15    1    1    2    0    0 -0.52610773285E+01  0.14678702557E+01  0.35001552135E+03  0.35006264652E+03  0.17770000000E+01 0. -1.
         15    1    1    2    0    0  0.50681362186E+00 -0.57420499747E+00  0.11235410289E+03  0.11237076460E+03  0.17770000000E+01 0.  1.
</event>
<event>
 6    1  0.9144256E-004  0.5047643E+03  0.7546771E-02  0.9389212E-01
        -11   -1    0    0    0    0  0.00000000000E+00  0.00000000000E+00  0.50000000000E+03  0.50000000000E+03  0.00000000000E+00 0.  1.
         11   -1    0    0    0    0 -0.00000000000E+00 -0.00000000000E+00 -0.50000000000E+03  0.50000000000E+03  0.00000000000E+00 0.  1.
        -11    1    1    2    0    0 -0.20805696638E+01 -0.73825906410E+01  0.49517629716E+03  0.49523569811E+03  0.00000000000E+00 0.  1.
         11    1    1    2    0    0 -0.33302012623E+01  0.59877647051E+01 -0.49159626231E+03  0.49164400605E+03  0.00000000000E+00 0.  1.
        -15    1    1    2    0    0  0.15872354028E+00  0.38378345799E+01  0.21797268989E+01  0.47605783030E+01  0.17770000000E+01 0. -1.
         15    1    1    2    0    0  0.52520473858E+01 -0.24430086439E+01 -0.57597617441E+01  0.83597175386E+01  0.17770000000E+01 0.  1.
</event>
<event>
 6    1  0.9144256E-004  0.5024405E+03  0.7546771E-02  0.9394365E-01
        -11   -1    0    0    0    0  0.00000000000E+00  0.00000000000E+00  0.50000000000E+03  0.50000000000E+03  0.00000000000E+00 0. -1.
         11   -1    0    0    0    0 -0.00000000000E+00 -0.00000000000E+00 -0.50000000000E+03  0.50000000000E+03  0.00000000000E+00 0. -1.
        -11    1    1    2    0    0 -0.21763024329E+02 -0.15883878285E+02  0.26303895062E+03  0.26441523474E+03  0.00000000000E+00 0. -1.
         11    1    1    2    0    0  0.13860762760E+02 -0.47061983411E+01 -0.49734416927E+03  0.49755953589E+03  0.00000000000E+00 0. -1.
        -15    1    1    2    0    0  0.11403708415E+02 -0.73430137845E+01  0.80834731000E+02  0.81983997718E+02  0.17770000000E+01 0. -1.
         15    1    1    2    0    0 -0.35014468463E+01  0.27933090411E+02  0.15347048765E+03  0.15604123166E+03  0.17770000000E+01 0.  1.
</event>
<event>
 6    1  0.9144256E-004  0.5005752E+03  0.7546771E-02  0.9398524E-01
        -11   -1    0    0    0    0  0.00000000000E+00  0.00000000000E+00  0.50000000000E+03  0.50000000000E+03  0.00000000000E+00 0. -1.
         11   -1    0    0    0    0 -0.00000000000E+00 -0.00000000000E+00 -0.50000000000E+03  0.50000000000E+03  0.00000000000E+00 0.  1.
        -11    1    1    2    0    0 -0.82987566213E+01 -0.20829562744E+02  0.49892122403E+03  0.49942479698E+03  0.00000000000E+00 0. -1.
         11    1    1    2    0    0  0.32418009157E+01 -0.20474880405E+01 -0.17010519978E+03  0.17014840720E+03  0.00000000000E+00 0.  1.
        -15    1    1    2    0    0  0.53504895737E+01  0.24179291658E+02 -0.19272824502E+03  0.19432086878E+03  0.17770000000E+01 0. -1.
         15    1    1    2    0    0 -0.29353386806E+00 -0.13022408739E+01 -0.13608777923E+03  0.13610592705E+03  0.17770000000E+01 0.  1.
</event>
<event>
 6    1  0.9144256E-004  0.4232446E+03  0.7546771E-02  0.9590109E-01
        -11   -1    0    0    0    0  0.00000000000E+00  0.00000000000E+00  0.50000000000E+03  0.50000000000E+03  0.00000000000E+00 0. -1.
         11   -1    0    0    0    0 -0.00000000000E+00 -0.00000000000E+00 -0.50000000000E+03  0.50000000000E+03  0.00000000000E+00 0. -1.
        -11    1    1    2    0    0 -0.10922455169E+03  0.95112305997E+02  0.11594141665E+03  0.18552295152E+03  0.00000000000E+00 0. -1.
         11    1    1    2    0    0  0.15822813116E+01  0.98967533199E+01 -0.41862842892E+03  0.41874838608E+03  0.00000000000E+00 0. -1.
        -15    1    1    2    0    0 -0.44681309929E+02 -0.18049539663E+02  0.27917532553E+01  0.48302763423E+02  0.17770000000E+01 0.  1.
         15    1    1    2    0    0  0.15232358031E+03 -0.86959519654E+02  0.29989525901E+03  0.34742589898E+03  0.17770000000E+01 0. -1.
</event>
<event>
 6    1  0.9144256E-004  0.5012749E+03  0.7546771E-02  0.9396962E-01
        -11   -1    0    0    0    0  0.00000000000E+00  0.00000000000E+00  0.50000000000E+03  0.50000000000E+03  0.00000000000E+00 0. -1.
         11   -1    0    0    0    0 -0.00000000000E+00 -0.00000000000E+00 -0.50000000000E+03  0.50000000000E+03  0.00000000000E+00 0.  1.
        -11    1    1    2    0    0  0.22400437280E+02  0.62252659110E+01  0.34789587033E+03  0.34867186597E+03  0.00000000000E+00 0. -1.
         11    1    1    2    0    0 -0.27910942936E+01 -0.96040144751E+01 -0.49862480557E+03  0.49872509865E+03  0.00000000000E+00 0.  1.
        -15    1    1    2    0    0 -0.11306266400E+02  0.61922027838E+01  0.11650355301E+03  0.11722802834E+03  0.17770000000E+01 0. -1.
         15    1    1    2    0    0 -0.83030765862E+01 -0.28134542197E+01  0.34225382232E+02  0.35375007044E+02  0.17770000000E+01 0.  1.
</event>
<event>
 6    1  0.9144256E-004  0.4828588E+03  0.7546771E-02  0.9439003E-01
        -11   -1    0    0    0    0  0.00000000000E+00  0.00000000000E+00  0.50000000000E+03  0.50000000000E+03  0.00000000000E+00 0.  1.
         11   -1    0    0    0    0 -0.00000000000E+00 -0.00000000000E+00 -0.50000000000E+03  0.50000000000E+03  0.00000000000E+00 0. -1.
        -11    1    1    2    0    0  0.27991411244E+02  0.13060245891E+02  0.47840732618E+03  0.47940344061E+03  0.00000000000E+00 0.  1.
         11    1    1    2    0    0 -0.10007296295E+02 -0.93221873252E+01 -0.48632897097E+03  0.48652124019E+03  0.00000000000E+00 0. -1.
        -15    1    1    2    0    0 -0.12022081151E+02 -0.15348918277E+02  0.21546456108E+01  0.19695683644E+02  0.17770000000E+01 0. -1.
         15    1    1    2    0    0 -0.59620337986E+01  0.11610859712E+02  0.57669991741E+01  0.14379635556E+02  0.17770000000E+01 0.  1.
</event>
<event>
 6    1  0.9144256E-004  0.5017711E+03  0.7546771E-02  0.9395855E-01
        -11   -1    0    0    0    0  0.00000000000E+00  0.00000000000E+00  0.50000000000E+03  0.50000000000E+03  0.00000000000E+00 0.  1.
         11   -1    0    0    0    0 -0.00000000000E+00 -0.00000000000E+00 -0.50000000000E+03  0.50000000000E+03  0.00000000000E+00 0.  1.
        -11    1    1    2    0    0  0.66348657485E+01  0.10313554477E+02  0.46842621556E+03  0.46858671585E+03  0.00000000000E+00 0.  1.
         11    1    1    2    0    0 -0.78061691330E+00 -0.68987276915E+01 -0.49818054512E+03  0.49822892062E+03  0.00000000000E+00 0.  1.
        -15    1    1    2    0    0 -0.39675255770E+01 -0.81176493063E+01  0.16735842779E+02  0.19101927965E+02  0.17770000000E+01 0. -1.
         15    1    1    2    0    0 -0.18867232582E+01  0.47028225210E+01  0.13018486785E+02  0.14082435567E+02  0.17770000000E+01 0.  1.
</event>
<event>
 6    1  0.9144256E-004  0.5014781E+03  0.7546771E-02  0.9396508E-01
        -11   -1    0    0    0    0  0.00000000000E+00  0.00000000000E+00  0.50000000000E+03  0.50000000000E+03  0.00000000000E+00 0. -1.
         11   -1    0    0    0    0 -0.00000000000E+00 -0.00000000000E+00 -0.50000000000E+03  0.50000000000E+03  0.00000000000E+00 0. -1.
        -11    1    1    2    0    0  0.15659248781E+02  0.11984659805E+02  0.31186646386E+03  0.31248925649E+03  0.00000000000E+00 0. -1.
         11    1    1    2    0    0  0.71324683292E+01  0.34659211058E+01 -0.49845884352E+03  0.49852191868E+03  0.00000000000E+00 0. -1.
        -15    1    1    2    0    0 -0.21834522492E+02 -0.13305475433E+02  0.17932203507E+03  0.18114450596E+03  0.17770000000E+01 0. -1.
         15    1    1    2    0    0 -0.95719461820E+00 -0.21451054775E+01  0.72703445936E+01  0.78443188715E+01  0.17770000000E+01 0.  1.
</event>
<event>
 6    1  0.9144256E-004  0.5033225E+03  0.7546771E-02  0.9392406E-01
        -11   -1    0    0    0    0  0.00000000000E+00  0.00000000000E+00  0.50000000000E+03  0.50000000000E+03  0.00000000000E+00 0. -1.
         11   -1    0    0    0    0 -0.00000000000E+00 -0.00000000000E+00 -0.50000000000E+03  0.50000000000E+03  0.00000000000E+00 0.  1.
        -11    1    1    2    0    0  0.11466105030E+02 -0.80461292666E+01  0.47807433551E+03  0.47827950200E+03  0.00000000000E+00 0. -1.
         11    1    1    2    0    0  0.33465348531E+01  0.14022932134E+02 -0.49646822141E+03  0.49667749777E+03  0.00000000000E+00 0.  1.
        -15    1    1    2    0    0 -0.10865080520E+02 -0.43318883523E+01  0.10154127161E+02  0.15590999288E+02  0.17770000000E+01 0. -1.
         15    1    1    2    0    0 -0.39475593633E+01 -0.16449145154E+01  0.82397587406E+01  0.94520009413E+01  0.17770000000E+01 0.  1.
</event>
<event>
 6    1  0.9144256E-004  0.5040607E+03  0.7546771E-02  0.9390769E-01
        -11   -1    0    0    0    0  0.00000000000E+00  0.00000000000E+00  0.50000000000E+03  0.50000000000E+03  0.00000000000E+00 0.  1.
         11   -1    0    0    0    0 -0.00000000000E+00 -0.00000000000E+00 -0.50000000000E+03  0.50000000000E+03  0.00000000000E+00 0.  1.
        -11    1    1    2    0    0  0.69741043830E+01  0.11676200223E+02  0.49575274804E+03  0.49593926944E+03  0.00000000000E+00 0.  1.
         11    1    1    2    0    0  0.72775880911E+01  0.15877613661E+01 -0.47275608427E+03  0.47281476234E+03  0.00000000000E+00 0.  1.
        -15    1    1    2    0    0 -0.72595547509E+01 -0.21656201615E+01 -0.68494602679E+01  0.10366478709E+02  0.17770000000E+01 0.  1.
         15    1    1    2    0    0 -0.69921377232E+01 -0.11098341427E+02 -0.16147203505E+02  0.20879489515E+02  0.17770000000E+01 0. -1.
</event>
<event>
 6    1  0.9144256E-004  0.5063578E+03  0.7546771E-02  0.9385695E-01
        -11   -1    0    0    0    0  0.00000000000E+00  0.00000000000E+00  0.50000000000E+03  0.50000000000E+03  0.00000000000E+00 0.  1.
         11   -1    0    0    0    0 -0.00000000000E+00 -0.00000000000E+00 -0.50000000000E+03  0.50000000000E+03  0.00000000000E+00 0. -1.
        -11    1    1    2    0    0  0.13161065165E+02  0.35555108770E+01  0.48497087656E+03  0.48516245363E+03  0.00000000000E+00 0.  1.
         11    1    1    2    0    0 -0.45714773212E+01  0.57055275393E+01 -0.49358800930E+03  0.49364215215E+03  0.00000000000E+00 0. -1.
        -15    1    1    2    0    0 -0.84910224554E+01  0.21986946304E+00  0.75272494945E+01  0.11487515783E+02  0.17770000000E+01 0. -1.
         15    1    1    2    0    0 -0.98565388113E-01 -0.94809078794E+01  0.10898832479E+01  0.97078784421E+01  0.17770000000E+01 0.  1.
</event>
<event>
 6    1  0.9144256E-004  0.5018186E+03  0.7546771E-02  0.9395750E-01
        -11   -1    0    0    0    0  0.00000000000E+00  0.00000000000E+00  0.50000000000E+03  0.50000000000E+03  0.00000000000E+00 0. -1.
         11   -1    0    0    0    0 -0.00000000000E+00 -0.00000000000E+00 -0.50000000000E+03  0.50000000000E+03  0.00000000000E+00 0.  1.
        -11    1    1    2    0    0 -0.37330109763E+01 -0.55872679877E+01  0.45058994097E+03  0.45064004242E+03  0.00000000000E+00 0. -1.
         11    1    1    2    0    0  0.11725513169E+02 -0.73027350528E+01 -0.49798982373E+03  0.49818137474E+03  0.00000000000E+00 0.  1.
        -15    1    1    2    0    0  0.27419848042E+01  0.23978587059E+01  0.12657201219E+02  0.13290247505E+02  0.17770000000E+01 0. -1.
         15    1    1    2    0    0 -0.10734486997E+02  0.10492144335E+02  0.34742681549E+02  0.37888335330E+02  0.17770000000E+01 0.  1.
</event>
<event>
 6    1  0.9144256E-004  0.5075260E+03  0.7546771E-02  0.9383126E-01
        -11   -1    0    0    0    0  0.00000000000E+00  0.00000000000E+00  0.50000000000E+03  0.50000000000E+03  0.00000000000E+00 0.  1.
         11   -1    0    0    0    0 -0.00000000000E+00 -0.00000000000E+00 -0.50000000000E+03  0.50000000000E+03  0.00000000000E+00 0. -1.
        -11    1    1    2    0    0 -0.21314478371E+02  0.25018492218E+02  0.44120119001E+03  0.44242369061E+03  0.00000000000E+00 0.  1.
         11    1    1    2    0    0  0.45169633593E+01 -0.66617938868E+01 -0.49240826245E+03  0.49247403930E+03  0.00000000000E+00 0. -1.
        -15    1    1    2    0    0 -0.41011119773E+01 -0.61044291092E+01 -0.89267628369E+00  0.76182526964E+01  0.17770000000E+01 0. -1.
         15    1    1    2    0    0  0.20898626989E+02 -0.12252269222E+02  0.52099748717E+02  0.57484017401E+02  0.17770000000E+01 0.  1.
</event>
<event>
 6    1  0.9144256E-004  0.5003636E+03  0.7546771E-02  0.9398996E-01
        -11   -1    0    0    0    0  0.00000000000E+00  0.00000000000E+00  0.50000000000E+03  0.50000000000E+03  0.00000000000E+00 0.  1.
         11   -1    0    0    0    0 -0.00000000000E+00 -0.00000000000E+00 -0.50000000000E+03  0.50000000000E+03  0.00000000000E+00 0. -1.
        -11    1    1    2    0    0  0.13038331842E+02 -0.76058551253E+01  0.13974642522E+03  0.14055927750E+03  0.00000000000E+00 0.  1.
         11    1    1    2    0    0 -0.89702470955E+01  0.87056103942E+01 -0.49947996771E+03  0.49963635889E+03  0.00000000000E+00 0. -1.
        -15    1    1    2    0    0 -0.34749796587E+01 -0.26254302399E+01  0.24967333008E+03  0.24971763624E+03  0.17770000000E+01 0.  1.
         15    1    1    2    0    0 -0.59310508733E+00  0.15256749709E+01  0.11006021241E+03  0.11008672737E+03  0.17770000000E+01 0. -1.
</event>
<event>
 6    1  0.9144256E-004  0.5005303E+03  0.7546771E-02  0.9398624E-01
        -11   -1    0    0    0    0  0.00000000000E+00  0.00000000000E+00  0.50000000000E+03  0.50000000000E+03  0.00000000000E+00 0.  1.
         11   -1    0    0    0    0 -0.00000000000E+00 -0.00000000000E+00 -0.50000000000E+03  0.50000000000E+03  0.00000000000E+00 0.  1.
        -11    1    1    2    0    0 -0.20915529540E+01  0.86426145749E+01  0.41647867325E+03  0.41657358852E+03  0.00000000000E+00 0.  1.
         11    1    1    2    0    0 -0.72438095457E+01 -0.26991095480E+01 -0.49940989478E+03  0.49946971978E+03  0.00000000000E+00 0.  1.
        -15    1    1    2    0    0  0.20126887479E+01 -0.10157285746E+00  0.84293828953E+01  0.88472288338E+01  0.17770000000E+01 0. -1.
         15    1    1    2    0    0  0.73226737518E+01 -0.58419321694E+01  0.74501838639E+02  0.75109462866E+02  0.17770000000E+01 0.  1.
</event>
<event>
 6    1  0.9144256E-004  0.5004690E+03  0.7546771E-02  0.9398761E-01
        -11   -1    0    0    0    0  0.00000000000E+00  0.00000000000E+00  0.50000000000E+03  0.50000000000E+03  0.00000000000E+00 0.  1.
         11   -1    0    0    0    0 -0.00000000000E+00 -0.00000000000E+00 -0.50000000000E+03  0.50000000000E+03  0.00000000000E+00 0. -1.
        -11    1    1    2    0    0  0.18737379417E+01 -0.12683536870E+02  0.49936647626E+03  0.49953104070E+03  0.00000000000E+00 0.  1.
         11    1    1    2    0    0 -0.32716123392E+01  0.58014163497E-01 -0.11731117984E+03  0.11735680520E+03  0.00000000000E+00 0. -1.
        -15    1    1    2    0    0 -0.24539212709E+01  0.85044891602E+01 -0.40017800838E+02  0.41023532007E+02  0.17770000000E+01 0.  1.
         15    1    1    2    0    0  0.38517956685E+01  0.41210335461E+01 -0.34203749559E+03  0.34208862209E+03  0.17770000000E+01 0. -1.
</event>
<event>
 6    1  0.9144256E-004  0.5131268E+03  0.7546771E-02  0.9370907E-01
        -11   -1    0    0    0    0  0.00000000000E+00  0.00000000000E+00  0.50000000000E+03  0.50000000000E+03  0.00000000000E+00 0. -1.
         11   -1    0    0    0    0 -0.00000000000E+00 -0.00000000000E+00 -0.50000000000E+03  0.50000000000E+03  0.00000000000E+00 0.  1.
        -11    1    1    2    0    0 -0.37378115442E+02 -0.58706108455E+02  0.64709878563E+02  0.95031042652E+02  0.00000000000E+00 0. -1.
         11    1    1    2    0    0  0.22890167276E+02  0.63497440852E+02 -0.48217174825E+03  0.48687316579E+03  0.00000000000E+00 0.  1.
        -15    1    1    2    0    0 -0.15417991930E+01  0.40026228722E+01  0.81898376103E+02  0.82029871826E+02  0.17770000000E+01 0.  1.
         15    1    1    2    0    0  0.16029747359E+02 -0.87939552696E+01  0.33556349359E+03  0.33606591973E+03  0.17770000000E+01 0. -1.
</event>
<event>
 6    1  0.9144256E-004  0.5027664E+03  0.7546771E-02  0.9393641E-01
        -11   -1    0    0    0    0  0.00000000000E+00  0.00000000000E+00  0.50000000000E+03  0.50000000000E+03  0.00000000000E+00 0.  1.
         11   -1    0    0    0    0 -0.00000000000E+00 -0.00000000000E+00 -0.50000000000E+03  0.50000000000E+03  0.00000000000E+00 0.  1.
        -11    1    1    2    0    0  0.10998435915E+02  0.83773305185E+01  0.49704135672E+03  0.49723360260E+03  0.00000000000E+00 0.  1.
         11    1    1    2    0    0  0.16600509664E+01 -0.51949536511E+01 -0.39743871343E+03  0.39747613041E+03  0.00000000000E+00 0.  1.
        -15    1    1    2    0    0 -0.72791269782E+01  0.10020842144E+01 -0.97703654864E+02  0.97995672175E+02  0.17770000000E+01 0.  1.
         15    1    1    2    0    0 -0.53793599033E+01 -0.41844610817E+01 -0.18989884335E+01  0.72945948197E+01  0.17770000000E+01 0. -1.
</event>
<event>
 6    1  0.9144256E-004  0.5016708E+03  0.7546771E-02  0.9396079E-01
        -11   -1    0    0    0    0  0.00000000000E+00  0.00000000000E+00  0.50000000000E+03  0.50000000000E+03  0.00000000000E+00 0.  1.
         11   -1    0    0    0    0 -0.00000000000E+00 -0.00000000000E+00 -0.50000000000E+03  0.50000000000E+03  0.00000000000E+00 0. -1.
        -11    1    1    2    0    0  0.23748462924E+02 -0.71755656432E+00  0.36570161725E+03  0.36647261458E+03  0.00000000000E+00 0.  1.
         11    1    1    2    0    0 -0.58167831207E+01 -0.15888333680E+02 -0.49804186251E+03  0.49832917929E+03  0.00000000000E+00 0. -1.
        -15    1    1    2    0    0 -0.17536807040E+02  0.11840519007E+02  0.11967506283E+03  0.12154429597E+03  0.17770000000E+01 0.  1.
         15    1    1    2    0    0 -0.39487276325E+00  0.47653712370E+01  0.12665182443E+02  0.13653910167E+02  0.17770000000E+01 0. -1.
</event>
<event>
 6    1  0.9144256E-004  0.4890885E+03  0.7546771E-02  0.9424562E-01
        -11   -1    0    0    0    0  0.00000000000E+00  0.00000000000E+00  0.50000000000E+03  0.50000000000E+03  0.00000000000E+00 0. -1.
         11   -1    0    0    0    0 -0.00000000000E+00 -0.00000000000E+00 -0.50000000000E+03  0.50000000000E+03  0.00000000000E+00 0.  1.
        -11    1    1    2    0    0 -0.13657125215E+00  0.12684284155E+02  0.49119570192E+03  0.49135946852E+03  0.00000000000E+00 0. -1.
         11    1    1    2    0    0 -0.10043937407E+01  0.73537810667E+01 -0.48697590745E+03  0.48703246436E+03  0.00000000000E+00 0.  1.
        -15    1    1    2    0    0 -0.12448703086E+01 -0.11993230553E+02 -0.45881454123E+01  0.13022906300E+02  0.17770000000E+01 0.  1.
         15    1    1    2    0    0  0.23858353014E+01 -0.80448346693E+01  0.36835094125E+00  0.85851608231E+01  0.17770000000E+01 0. -1.
</event>
<event>
 6    1  0.9144256E-004  0.5041903E+03  0.7546771E-02  0.9390482E-01
        -11   -1    0    0    0    0  0.00000000000E+00  0.00000000000E+00  0.50000000000E+03  0.50000000000E+03  0.00000000000E+00 0.  1.
         11   -1    0    0    0    0 -0.00000000000E+00 -0.00000000000E+00 -0.50000000000E+03  0.50000000000E+03  0.00000000000E+00 0. -1.
        -11    1    1    2    0    0  0.24935592807E+02  0.20118542696E+02  0.31383010879E+03  0.31546137122E+03  0.00000000000E+00 0.  1.
         11    1    1    2    0    0  0.16270564900E+02 -0.57044803254E+01 -0.49550984639E+03  0.49580972181E+03  0.00000000000E+00 0. -1.
        -15    1    1    2    0    0 -0.20943321409E+02 -0.57870529743E+01  0.13869835478E+03  0.14040122522E+03  0.17770000000E+01 0.  1.
         15    1    1    2    0    0 -0.20262836298E+02 -0.86270093962E+01  0.42981382807E+02  0.48327681747E+02  0.17770000000E+01 0. -1.
</event>
<event>
 6    1  0.9144256E-004  0.5005671E+03  0.7546771E-02  0.9398542E-01
        -11   -1    0    0    0    0  0.00000000000E+00  0.00000000000E+00  0.50000000000E+03  0.50000000000E+03  0.00000000000E+00 0. -1.
         11   -1    0    0    0    0 -0.00000000000E+00 -0.00000000000E+00 -0.50000000000E+03  0.50000000000E+03  0.00000000000E+00 0.  1.
        -11    1    1    2    0    0 -0.19541078168E+02  0.24463350939E+02  0.49845047334E+03  0.49943286200E+03  0.00000000000E+00 0. -1.
         11    1    1    2    0    0  0.23549341114E+02 -0.17676138123E+02 -0.22530463107E+03  0.22722058469E+03  0.00000000000E+00 0.  1.
        -15    1    1    2    0    0  0.98228868898E+00 -0.31884486370E+01 -0.72436062291E+02  0.72534625835E+02  0.17770000000E+01 0.  1.
         15    1    1    2    0    0 -0.49905516347E+01 -0.35987641790E+01 -0.20070977997E+03  0.20081192747E+03  0.17770000000E+01 0.  1.
</event>
<event>
 6    1  0.9144256E-004  0.5015278E+03  0.7546771E-02  0.9396398E-01
        -11   -1    0    0    0    0  0.00000000000E+00  0.00000000000E+00  0.50000000000E+03  0.50000000000E+03  0.00000000000E+00 0.  1.
         11   -1    0    0    0    0 -0.00000000000E+00 -0.00000000000E+00 -0.50000000000E+03  0.50000000000E+03  0.00000000000E+00 0.  1.
        -11    1    1    2    0    0  0.11351666505E+02 -0.96509055824E+01  0.38156497760E+03  0.38185577440E+03  0.00000000000E+00 0.  1.
         11    1    1    2    0    0 -0.59884353629E+01 -0.72870788544E+01 -0.49838294033E+03  0.49847218386E+03  0.00000000000E+00 0.  1.
        -15    1    1    2    0    0  0.15310297075E+01  0.48132141563E+01  0.63204263969E+01  0.82835138268E+01  0.17770000000E+01 0.  1.
         15    1    1    2    0    0 -0.68942608493E+01  0.12124770280E+02  0.11049753633E+03  0.11138852792E+03  0.17770000000E+01 0. -1.
</event>
<event>
 6    1  0.9144256E-004  0.5040217E+03  0.7546771E-02  0.9390856E-01
        -11   -1    0    0    0    0  0.00000000000E+00  0.00000000000E+00  0.50000000000E+03  0.50000000000E+03  0.00000000000E+00 0.  1.
         11   -1    0    0    0    0 -0.00000000000E+00 -0.00000000000E+00 -0.50000000000E+03  0.50000000000E+03  0.00000000000E+00 0.  1.
        -11    1    1    2    0    0 -0.13836872180E+02  0.56370378751E+01  0.48159734360E+03  0.48182905328E+03  0.00000000000E+00 0.  1.
         11    1    1    2    0    0  0.94687277016E+01 -0.11310115105E+02 -0.49575894632E+03  0.49597833457E+03  0.00000000000E+00 0.  1.
        -15    1    1    2    0    0 -0.23227987810E+01  0.37359731733E+01  0.14233517272E+02  0.15003454024E+02  0.17770000000E+01 0. -1.
         15    1    1    2    0    0  0.66909432594E+01  0.19371040570E+01 -0.71914554098E-01  0.71891581240E+01  0.17770000000E+01 0.  1.
</event>
<event>
 6    1  0.9144256E-004  0.5000582E+03  0.7546771E-02  0.9399680E-01
        -11   -1    0    0    0    0  0.00000000000E+00  0.00000000000E+00  0.50000000000E+03  0.50000000000E+03  0.00000000000E+00 0. -1.
         11   -1    0    0    0    0 -0.00000000000E+00 -0.00000000000E+00 -0.50000000000E+03  0.50000000000E+03  0.00000000000E+00 0.  1.
        -11    1    1    2    0    0  0.10901588551E+02  0.63988328770E+01  0.49978199988E+03  0.49994183372E+03  0.00000000000E+00 0. -1.
         11    1    1    2    0    0 -0.42923702250E+01 -0.48621570919E+01 -0.33028717308E+03  0.33035084640E+03  0.00000000000E+00 0.  1.
        -15    1    1    2    0    0 -0.84283962987E+00  0.59070001543E+00 -0.34656580055E+02  0.34717367056E+02  0.17770000000E+01 0.  1.
         15    1    1    2    0    0 -0.57663786961E+01 -0.21273758006E+01 -0.13483824674E+03  0.13498995283E+03  0.17770000000E+01 0.  1.
</event>
<event>
 6    1  0.9144256E-004  0.5080159E+03  0.7546771E-02  0.9382050E-01
        -11   -1    0    0    0    0  0.00000000000E+00  0.00000000000E+00  0.50000000000E+03  0.50000000000E+03  0.00000000000E+00 0.  1.
         11   -1    0    0    0    0 -0.00000000000E+00 -0.00000000000E+00 -0.50000000000E+03  0.50000000000E+03  0.00000000000E+00 0. -1.
        -11    1    1    2    0    0 -0.22908591909E+02 -0.42930731338E+02  0.48957171766E+03  0.49198406276E+03  0.00000000000E+00 0.  1.
         11    1    1    2    0    0  0.51732042515E+01 -0.33494518775E+01 -0.42362576140E+03  0.42367058735E+03  0.00000000000E+00 0. -1.
        -15    1    1    2    0    0  0.87689105863E+01  0.22155205891E+02 -0.45631693079E+02  0.51508796173E+02  0.17770000000E+01 0. -1.
         15    1    1    2    0    0  0.89664770708E+01  0.24124977324E+02 -0.20314263186E+02  0.32836553713E+02  0.17770000000E+01 0.  1.
</event>
<event>
 6    1  0.9144256E-004  0.5024835E+03  0.7546771E-02  0.9394270E-01
        -11   -1    0    0    0    0  0.00000000000E+00  0.00000000000E+00  0.50000000000E+03  0.50000000000E+03  0.00000000000E+00 0.  1.
         11   -1    0    0    0    0 -0.00000000000E+00 -0.00000000000E+00 -0.50000000000E+03  0.50000000000E+03  0.00000000000E+00 0. -1.
        -11    1    1    2    0    0 -0.15095872687E+02 -0.25571172420E+02  0.49662952386E+03  0.49751648636E+03  0.00000000000E+00 0.  1.
         11    1    1    2    0    0  0.46826619708E+01 -0.41922649758E+01 -0.40091218287E+03  0.40096144551E+03  0.00000000000E+00 0. -1.
        -15    1    1    2    0    0  0.12802029629E+02  0.24203343708E+02 -0.74752189378E+02  0.79628772157E+02  0.17770000000E+01 0.  1.
         15    1    1    2    0    0 -0.23888189136E+01  0.55600936870E+01 -0.20965151609E+02  0.21893295974E+02  0.17770000000E+01 0. -1.
</event>
<event>
 6    1  0.9144256E-004  0.5014743E+03  0.7546771E-02  0.9396517E-01
        -11   -1    0    0    0    0  0.00000000000E+00  0.00000000000E+00  0.50000000000E+03  0.50000000000E+03  0.00000000000E+00 0.  1.
         11   -1    0    0    0    0 -0.00000000000E+00 -0.00000000000E+00 -0.50000000000E+03  0.50000000000E+03  0.00000000000E+00 0.  1.
        -11    1    1    2    0    0  0.10381798003E+02  0.11517520133E+02  0.49828451739E+03  0.49852572177E+03  0.00000000000E+00 0.  1.
         11    1    1    2    0    0  0.35541925184E+01 -0.10335544216E+02 -0.40786836047E+03  0.40801477330E+03  0.00000000000E+00 0.  1.
        -15    1    1    2    0    0 -0.10047543306E+02 -0.73621161189E+01 -0.77512947885E+02  0.78527502820E+02  0.17770000000E+01 0.  1.
         15    1    1    2    0    0 -0.38884472150E+01  0.61801402020E+01 -0.12903209028E+02  0.14932002105E+02  0.17770000000E+01 0. -1.
</event>
<event>
 6    1  0.9144256E-004  0.5033398E+03  0.7546771E-02  0.9392368E-01
        -11   -1    0    0    0    0  0.00000000000E+00  0.00000000000E+00  0.50000000000E+03  0.50000000000E+03  0.00000000000E+00 0.  1.
         11   -1    0    0    0    0 -0.00000000000E+00 -0.00000000000E+00 -0.50000000000E+03  0.50000000000E+03  0.00000000000E+00 0.  1.
        -11    1    1    2    0    0 -0.89889088812E+01  0.10314456150E+02  0.48526132560E+03  0.48545416119E+03  0.00000000000E+00 0.  1.
         11    1    1    2    0    0  0.31114442037E+01 -0.62037517670E+01 -0.49661175350E+03  0.49666024739E+03  0.00000000000E+00 0.  1.
        -15    1    1    2    0    0  0.46090176031E+01  0.28852310405E+01  0.21228481721E+01  0.61017878351E+01  0.17770000000E+01 0. -1.
         15    1    1    2    0    0  0.12684470744E+01 -0.69959354231E+01  0.92275797235E+01  0.11783803587E+02  0.17770000000E+01 0.  1.
</event>
<event>
 6    1  0.9144256E-004  0.5022251E+03  0.7546771E-02  0.9394845E-01
        -11   -1    0    0    0    0  0.00000000000E+00  0.00000000000E+00  0.50000000000E+03  0.50000000000E+03  0.00000000000E+00 0.  1.
         11   -1    0    0    0    0 -0.00000000000E+00 -0.00000000000E+00 -0.50000000000E+03  0.50000000000E+03  0.00000000000E+00 0. -1.
        -11    1    1    2    0    0 -0.31144823276E+02  0.12143658719E+02  0.13781292287E+03  0.14180927394E+03  0.00000000000E+00 0.  1.
         11    1    1    2    0    0  0.10888076143E+02 -0.81974275317E+01 -0.49758824903E+03  0.49777486236E+03  0.00000000000E+00 0. -1.
        -15    1    1    2    0    0  0.37921199010E+01 -0.16505065463E+01  0.10170404140E+03  0.10180360559E+03  0.17770000000E+01 0.  1.
         15    1    1    2    0    0  0.16464627232E+02 -0.22957246409E+01  0.25807128475E+03  0.25861225811E+03  0.17770000000E+01 0.  1.
</event>
<event>
 6    1  0.9144256E-004  0.5011505E+03  0.7546771E-02  0.9397239E-01
        -11   -1    0    0    0    0  0.00000000000E+00  0.00000000000E+00  0.50000000000E+03  0.50000000000E+03  0.00000000000E+00 0. -1.
         11   -1    0    0    0    0 -0.00000000000E+00 -0.00000000000E+00 -0.50000000000E+03  0.50000000000E+03  0.00000000000E+00 0. -1.
        -11    1    1    2    0    0 -0.18164775356E+01  0.84970900931E+01  0.41535383216E+03  0.41544470874E+03  0.00000000000E+00 0. -1.
         11    1    1    2    0    0 -0.46055665671E+01 -0.54373912521E+01 -0.49879865072E+03  0.49884954689E+03  0.00000000000E+00 0. -1.
        -15    1    1    2    0    0  0.79380225045E+01  0.42275779643E+01  0.22707104237E+02  0.24487852673E+02  0.17770000000E+01 0.  1.
         15    1    1    2    0    0 -0.15159784017E+01 -0.72872768053E+01  0.60737714330E+02  0.61217891704E+02  0.17770000000E+01 0. -1.
</event>
<event>
 6    1  0.9144256E-004  0.5002444E+03  0.7546771E-02  0.9399263E-01
        -11   -1    0    0    0    0  0.00000000000E+00  0.00000000000E+00  0.50000000000E+03  0.50000000000E+03  0.00000000000E+00 0. -1.
         11   -1    0    0    0    0 -0.00000000000E+00 -0.00000000000E+00 -0.50000000000E+03  0.50000000000E+03  0.00000000000E+00 0. -1.
        -11    1    1    2    0    0  0.28145288100E+02  0.34923585898E+02  0.49773875781E+03  0.49975562540E+03  0.00000000000E+00 0. -1.
         11    1    1    2    0    0  0.10428752419E+01 -0.84457371933E+01 -0.90225721963E+02  0.90626149479E+02  0.00000000000E+00 0. -1.
        -15    1    1    2    0    0 -0.53273759026E+00 -0.51538038072E+01 -0.40946766307E+02  0.41311510539E+02  0.17770000000E+01 0.  1.
         15    1    1    2    0    0 -0.28655425752E+02 -0.21324044898E+02 -0.36656626954E+03  0.36830671458E+03  0.17770000000E+01 0. -1.
</event>
<event>
 6    1  0.9144256E-004  0.5025565E+03  0.7546771E-02  0.9394107E-01
        -11   -1    0    0    0    0  0.00000000000E+00  0.00000000000E+00  0.50000000000E+03  0.50000000000E+03  0.00000000000E+00 0. -1.
         11   -1    0    0    0    0 -0.00000000000E+00 -0.00000000000E+00 -0.50000000000E+03  0.50000000000E+03  0.00000000000E+00 0.  1.
        -11    1    1    2    0    0  0.20047660474E+01  0.81808089367E+01  0.49737219064E+03  0.49744350508E+03  0.00000000000E+00 0. -1.
         11    1    1    2    0    0 -0.62768271595E+01 -0.32189235206E+01 -0.49346072211E+03  0.49351113897E+03  0.00000000000E+00 0.  1.
        -15    1    1    2    0    0  0.16813524697E+01 -0.37519069996E+01 -0.98810624508E+00  0.45867019973E+01  0.17770000000E+01 0.  1.
         15    1    1    2    0    0  0.25907086424E+01 -0.12099784165E+01 -0.29233622861E+01  0.44586539554E+01  0.17770000000E+01 0. -1.
</event>
<event>
 6    1  0.9144256E-004  0.5009767E+03  0.7546771E-02  0.9397627E-01
        -11   -1    0    0    0    0  0.00000000000E+00  0.00000000000E+00  0.50000000000E+03  0.50000000000E+03  0.00000000000E+00 0. -1.
         11   -1    0    0    0    0 -0.00000000000E+00 -0.00000000000E+00 -0.50000000000E+03  0.50000000000E+03  0.00000000000E+00 0.  1.
        -11    1    1    2    0    0  0.12316038807E+02  0.12994845783E+02  0.12572226691E+03  0.12699070528E+03  0.00000000000E+00 0. -1.
         11    1    1    2    0    0 -0.81736627773E+01  0.11156632771E+02 -0.49883165091E+03  0.49902334130E+03  0.00000000000E+00 0.  1.
        -15    1    1    2    0    0 -0.31486114795E+01 -0.18123344318E+02  0.23279559857E+03  0.23352798078E+03  0.17770000000E+01 0. -1.
         15    1    1    2    0    0 -0.99376455010E+00 -0.60281342367E+01  0.14031378543E+03  0.14045797265E+03  0.17770000000E+01 0. -1.
</event>
<event>
 6    1  0.9144256E-004  0.5009484E+03  0.7546771E-02  0.9397690E-01
        -11   -1    0    0    0    0  0.00000000000E+00  0.00000000000E+00  0.50000000000E+03  0.50000000000E+03  0.00000000000E+00 0. -1.
         11   -1    0    0    0    0 -0.00000000000E+00 -0.00000000000E+00 -0.50000000000E+03  0.50000000000E+03  0.00000000000E+00 0. -1.
        -11    1    1    2    0    0 -0.11204663714E+02  0.32440991973E+01  0.49891522188E+03  0.49905156777E+03  0.00000000000E+00 0. -1.
         11    1    1    2    0    0 -0.30318412812E+01 -0.68871505144E+01 -0.42966891779E+03  0.42973480639E+03  0.00000000000E+00 0. -1.
        -15    1    1    2    0    0  0.11543669350E+02  0.48050753026E+01 -0.45471885411E+02  0.47193168389E+02  0.17770000000E+01 0. -1.
         15    1    1    2    0    0  0.26928356446E+01 -0.11620239855E+01 -0.23774418680E+02  0.24020457451E+02  0.17770000000E+01 0.  1.
</event>
<event>
 6    1  0.9144256E-004  0.5002452E+03  0.7546771E-02  0.9399261E-01
        -11   -1    0    0    0    0  0.00000000000E+00  0.00000000000E+00  0.50000000000E+03  0.50000000000E+03  0.00000000000E+00 0. -1.
         11   -1    0    0    0    0 -0.00000000000E+00 -0.00000000000E+00 -0.50000000000E+03  0.50000000000E+03  0.00000000000E+00 0.  1.
        -11    1    1    2    0    0  0.32112462357E+02  0.11778142743E+02  0.49858293835E+03  0.49975482119E+03  0.00000000000E+00 0. -1.
         11    1    1    2    0    0 -0.33515473322E+01 -0.55458508751E+01 -0.18542798868E+03  0.18554117688E+03  0.00000000000E+00 0.  1.
        -15    1    1    2    0    0 -0.46092616740E+01 -0.50866179467E+00 -0.25798435641E+02  0.26272058171E+02  0.17770000000E+01 0. -1.
         15    1    1    2    0    0 -0.24151653351E+02 -0.57236300731E+01 -0.28735651403E+03  0.28843194376E+03  0.17770000000E+01 0.  1.
</event>
<event>
 6    1  0.9144256E-004  0.5010016E+03  0.7546771E-02  0.9397571E-01
        -11   -1    0    0    0    0  0.00000000000E+00  0.00000000000E+00  0.50000000000E+03  0.50000000000E+03  0.00000000000E+00 0. -1.
         11   -1    0    0    0    0 -0.00000000000E+00 -0.00000000000E+00 -0.50000000000E+03  0.50000000000E+03  0.00000000000E+00 0.  1.
        -11    1    1    2    0    0 -0.33231152915E+02  0.10402250930E+02  0.49778192470E+03  0.49899835762E+03  0.00000000000E+00 0. -1.
         11    1    1    2    0    0  0.67560217175E+00 -0.76695552746E+01 -0.29253242104E+03  0.29263372307E+03  0.00000000000E+00 0.  1.
        -15    1    1    2    0    0  0.18468572791E+02 -0.47144949222E+01 -0.78064430386E+02  0.80377407671E+02  0.17770000000E+01 0.  1.
         15    1    1    2    0    0  0.14086977952E+02  0.19817992671E+01 -0.12718507328E+03  0.12799051164E+03  0.17770000000E+01 0. -1.
</event>
<event>
 6    1  0.9144256E-004  0.5001043E+03  0.7546771E-02  0.9399576E-01
        -11   -1    0    0    0    0  0.00000000000E+00  0.00000000000E+00  0.50000000000E+03  0.50000000000E+03  0.00000000000E+00 0.  1.
         11   -1    0    0    0    0 -0.00000000000E+00 -0.00000000000E+00 -0.50000000000E+03  0.50000000000E+03  0.00000000000E+00 0. -1.
        -11    1    1    2    0    0 -0.36385918417E+01  0.11254370317E+01  0.87712538656E+02  0.87795190053E+02  0.00000000000E+00 0.  1.
         11    1    1    2    0    0 -0.12303437778E+01  0.12371992338E+02 -0.49974109238E+03  0.49989572848E+03  0.00000000000E+00 0. -1.
        -15    1    1    2    0    0  0.26935379941E+01 -0.79643495128E+01  0.28436480470E+03  0.28449461488E+03  0.17770000000E+01 0.  1.
         15    1    1    2    0    0  0.21753976253E+01 -0.55330798574E+01  0.12766374902E+03  0.12781446659E+03  0.17770000000E+01 0.  1.
</event>
<event>
 6    1  0.9144256E-004  0.5048632E+03  0.7546771E-02  0.9388993E-01
        -11   -1    0    0    0    0  0.00000000000E+00  0.00000000000E+00  0.50000000000E+03  0.50000000000E+03  0.00000000000E+00 0. -1.
         11   -1    0    0    0    0 -0.00000000000E+00 -0.00000000000E+00 -0.50000000000E+03  0.50000000000E+03  0.00000000000E+00 0.  1.
        -11    1    1    2    0    0 -0.18036787093E+01 -0.18236782082E+02  0.13974221590E+03  0.14093871144E+03  0.00000000000E+00 0. -1.
         11    1    1    2    0    0  0.22901554684E+01  0.33130196087E+02 -0.49402181723E+03  0.49513675949E+03  0.00000000000E+00 0.  1.
        -15    1    1    2    0    0  0.86912382328E+01 -0.41075828155E+02  0.10496192561E+03  0.11306159753E+03  0.17770000000E+01 0.  1.
         15    1    1    2    0    0 -0.91777149919E+01  0.26182414150E+02  0.24931767572E+03  0.25086293153E+03  0.17770000000E+01 0. -1.
</event>
<event>
 6    1  0.9144256E-004  0.5007387E+03  0.7546771E-02  0.9398158E-01
        -11   -1    0    0    0    0  0.00000000000E+00  0.00000000000E+00  0.50000000000E+03  0.50000000000E+03  0.00000000000E+00 0.  1.
         11   -1    0    0    0    0 -0.00000000000E+00 -0.00000000000E+00 -0.50000000000E+03  0.50000000000E+03  0.00000000000E+00 0.  1.
        -11    1    1    2    0    0 -0.52233429932E+01  0.14233252540E+02  0.49903100867E+03  0.49926127068E+03  0.00000000000E+00 0.  1.
         11    1    1    2    0    0 -0.38111694948E+01  0.28881155981E+01 -0.27676883975E+03  0.27681014592E+03  0.00000000000E+00 0.  1.
        -15    1    1    2    0    0  0.74374804061E+01 -0.11777173198E+02 -0.20851043266E+03  0.20898271742E+03  0.17770000000E+01 0.  1.
         15    1    1    2    0    0  0.15970320818E+01 -0.53441949397E+01 -0.13751736258E+02  0.14945865988E+02  0.17770000000E+01 0. -1.
</event>
<event>
 6    1  0.9144256E-004  0.5005032E+03  0.7546771E-02  0.9398684E-01
        -11   -1    0    0    0    0  0.00000000000E+00  0.00000000000E+00  0.50000000000E+03  0.50000000000E+03  0.00000000000E+00 0.  1.
         11   -1    0    0    0    0 -0.00000000000E+00 -0.00000000000E+00 -0.50000000000E+03  0.50000000000E+03  0.00000000000E+00 0.  1.
        -11    1    1    2    0    0  0.14180897954E+02  0.15974325725E+01  0.49929285988E+03  0.49949675633E+03  0.00000000000E+00 0.  1.
         11    1    1    2    0    0  0.15403701689E+01  0.95281303790E+01 -0.20450755048E+03  0.20473518557E+03  0.00000000000E+00 0.  1.
        -15    1    1    2    0    0 -0.53437843567E+01 -0.72998029417E+01 -0.58927027884E+02  0.59643905795E+02  0.17770000000E+01 0.  1.
         15    1    1    2    0    0 -0.10377483766E+02 -0.38257600098E+01 -0.23585828152E+03  0.23612415230E+03  0.17770000000E+01 0. -1.
</event>
<event>
 6    1  0.9144256E-004  0.4719465E+03  0.7546771E-02  0.9464866E-01
        -11   -1    0    0    0    0  0.00000000000E+00  0.00000000000E+00  0.50000000000E+03  0.50000000000E+03  0.00000000000E+00 0. -1.
         11   -1    0    0    0    0 -0.00000000000E+00 -0.00000000000E+00 -0.50000000000E+03  0.50000000000E+03  0.00000000000E+00 0.  1.
        -11    1    1    2    0    0 -0.13890163571E+02 -0.48425183855E+02  0.47818100189E+03  0.48082741774E+03  0.00000000000E+00 0. -1.
         11    1    1    2    0    0  0.23252167917E+02  0.11855546643E+00 -0.46387320260E+03  0.46445562270E+03  0.00000000000E+00 0.  1.
        -15    1    1    2    0    0 -0.70880885741E+01  0.11152709335E+02  0.29391831211E+01  0.13653587498E+02  0.17770000000E+01 0. -1.
         15    1    1    2    0    0 -0.22739157718E+01  0.37153919053E+02 -0.17246982411E+02  0.41063372063E+02  0.17770000000E+01 0.  1.
</event>
<event>
 6    1  0.9144256E-004  0.4539250E+03  0.7546771E-02  0.9509252E-01
        -11   -1    0    0    0    0  0.00000000000E+00  0.00000000000E+00  0.50000000000E+03  0.50000000000E+03  0.00000000000E+00 0. -1.
         11   -1    0    0    0    0 -0.00000000000E+00 -0.00000000000E+00 -0.50000000000E+03  0.50000000000E+03  0.00000000000E+00 0. -1.
        -11    1    1    2    0    0 -0.55737588031E+02  0.48744505433E+02  0.44622110053E+03  0.45232286708E+03  0.00000000000E+00 0. -1.
         11    1    1    2    0    0 -0.67479907962E+01 -0.73599749609E+01 -0.45859071619E+03  0.45869941092E+03  0.00000000000E+00 0. -1.
        -15    1    1    2    0    0 -0.69570105519E+01 -0.16269683557E+01 -0.20693202216E+01  0.76476687317E+01  0.17770000000E+01 0. -1.
         15    1    1    2    0    0  0.69442589379E+02 -0.39757562116E+02  0.14438935878E+02  0.81330053261E+02  0.17770000000E+01 0.  1.
</event>
<event>
 6    1  0.9144256E-004  0.5032935E+03  0.7546771E-02  0.9392470E-01
        -11   -1    0    0    0    0  0.00000000000E+00  0.00000000000E+00  0.50000000000E+03  0.50000000000E+03  0.00000000000E+00 0. -1.
         11   -1    0    0    0    0 -0.00000000000E+00 -0.00000000000E+00 -0.50000000000E+03  0.50000000000E+03  0.00000000000E+00 0.  1.
        -11    1    1    2    0    0 -0.11980519974E+02  0.39545522815E+00  0.49656178969E+03  0.49670645277E+03  0.00000000000E+00 0. -1.
         11    1    1    2    0    0 -0.32540822317E+01 -0.74762290766E+01 -0.47545394724E+03  0.47552385745E+03  0.00000000000E+00 0.  1.
        -15    1    1    2    0    0  0.10428052233E+02  0.69121469739E+01 -0.17097099511E+02  0.21260070316E+02  0.17770000000E+01 0. -1.
         15    1    1    2    0    0  0.48065499727E+01  0.16862687460E+00 -0.40107429353E+01  0.65096194632E+01  0.17770000000E+01 0.  1.
</event>
<event>
 6    1  0.9144256E-004  0.4909116E+03  0.7546771E-02  0.9420378E-01
        -11   -1    0    0    0    0  0.00000000000E+00  0.00000000000E+00  0.50000000000E+03  0.50000000000E+03  0.00000000000E+00 0. -1.
         11   -1    0    0    0    0 -0.00000000000E+00 -0.00000000000E+00 -0.50000000000E+03  0.50000000000E+03  0.00000000000E+00 0. -1.
        -11    1    1    2    0    0 -0.10236306732E+02 -0.21461694165E+02  0.48841215352E+03  0.48899061136E+03  0.00000000000E+00 0. -1.
         11    1    1    2    0    0  0.65879240125E+01  0.83547635267E+01 -0.49282198005E+03  0.49293681830E+03  0.00000000000E+00 0. -1.
        -15    1    1    2    0    0 -0.27468349619E+01  0.34751313662E+01  0.42243660727E+01  0.63737459971E+01  0.17770000000E+01 0. -1.
         15    1    1    2    0    0  0.63952176809E+01  0.96317992720E+01  0.18546046152E+00  0.11698824342E+02  0.17770000000E+01 0.  1.
</event>
<event>
 6    1  0.9144256E-004  0.5015725E+03  0.7546771E-02  0.9396298E-01
        -11   -1    0    0    0    0  0.00000000000E+00  0.00000000000E+00  0.50000000000E+03  0.50000000000E+03  0.00000000000E+00 0. -1.
         11   -1    0    0    0    0 -0.00000000000E+00 -0.00000000000E+00 -0.50000000000E+03  0.50000000000E+03  0.00000000000E+00 0. -1.
        -11    1    1    2    0    0  0.11091891907E+02  0.21191756535E+02  0.15392905457E+03  0.15577636038E+03  0.00000000000E+00 0. -1.
         11    1    1    2    0    0 -0.56944611498E+01  0.44256002591E+01 -0.49837531926E+03  0.49842749891E+03  0.00000000000E+00 0. -1.
        -15    1    1    2    0    0  0.99182623889E+00  0.57677012213E+00  0.67904271176E+02  0.67937207449E+02  0.17770000000E+01 0. -1.
         15    1    1    2    0    0 -0.63892569958E+01 -0.26194126916E+02  0.27654199351E+03  0.27785893326E+03  0.17770000000E+01 0. -1.
</event>
<event>
 6    1  0.9144256E-004  0.5011856E+03  0.7546771E-02  0.9397161E-01
        -11   -1    0    0    0    0  0.00000000000E+00  0.00000000000E+00  0.50000000000E+03  0.50000000000E+03  0.00000000000E+00 0.  1.
         11   -1    0    0    0    0 -0.00000000000E+00 -0.00000000000E+00 -0.50000000000E+03  0.50000000000E+03  0.00000000000E+00 0.  1.
        -11    1    1    2    0    0 -0.12149368060E+02 -0.10526261815E+01  0.49866528765E+03  0.49881437857E+03  0.00000000000E+00 0.  1.
         11    1    1    2    0    0  0.14836370390E+02 -0.51651848741E+01 -0.44253940187E+03  0.44281815594E+03  0.00000000000E+00 0.  1.
        -15    1    1    2    0    0  0.46580268976E+01  0.12885479792E+01 -0.35266090646E+02  0.35640039968E+02  0.17770000000E+01 0. -1.
         15    1    1    2    0    0 -0.73450292278E+01  0.49292630764E+01 -0.20859795129E+02  0.22727425517E+02  0.17770000000E+01 0.  1.
</event>
<event>
 6    1  0.9144256E-004  0.4394315E+03  0.7546771E-02  0.9546572E-01
        -11   -1    0    0    0    0  0.00000000000E+00  0.00000000000E+00  0.50000000000E+03  0.50000000000E+03  0.00000000000E+00 0.  1.
         11   -1    0    0    0    0 -0.00000000000E+00 -0.00000000000E+00 -0.50000000000E+03  0.50000000000E+03  0.00000000000E+00 0. -1.
        -11    1    1    2    0    0 -0.65511678129E+02  0.43581239788E+02  0.43968836463E+03  0.44667321660E+03  0.00000000000E+00 0.  1.
         11    1    1    2    0    0 -0.33329864169E+02 -0.78865317877E+02 -0.43004621589E+03  0.43848644906E+03  0.00000000000E+00 0. -1.
        -15    1    1    2    0    0  0.82596081207E+02  0.43566683618E+02  0.14739965837E+01  0.93410379226E+02  0.17770000000E+01 0.  1.
         15    1    1    2    0    0  0.16245461090E+02 -0.82826055284E+01 -0.11116145323E+02  0.21429955115E+02  0.17770000000E+01 0. -1.
</event>
<event>
 6    1  0.9144256E-004  0.5163825E+03  0.7546771E-02  0.9363881E-01
        -11   -1    0    0    0    0  0.00000000000E+00  0.00000000000E+00  0.50000000000E+03  0.50000000000E+03  0.00000000000E+00 0. -1.
         11   -1    0    0    0    0 -0.00000000000E+00 -0.00000000000E+00 -0.50000000000E+03  0.50000000000E+03  0.00000000000E+00 0. -1.
        -11    1    1    2    0    0  0.42881920347E+02  0.35297200576E+02  0.48041763576E+03  0.48361746889E+03  0.00000000000E+00 0. -1.
         11    1    1    2    0    0 -0.42652959189E+01 -0.15810412781E+02 -0.42247891037E+03  0.42279615846E+03  0.00000000000E+00 0. -1.
        -15    1    1    2    0    0 -0.31984408257E+02 -0.32758919446E+02 -0.15141288696E+02  0.48255212435E+02  0.17770000000E+01 0.  1.
         15    1    1    2    0    0 -0.66322161712E+01  0.13272131650E+02 -0.42797436698E+02  0.45331160219E+02  0.17770000000E+01 0. -1.
</event>
<event>
 6    1  0.9144256E-004  0.5010871E+03  0.7546771E-02  0.9397381E-01
        -11   -1    0    0    0    0  0.00000000000E+00  0.00000000000E+00  0.50000000000E+03  0.50000000000E+03  0.00000000000E+00 0. -1.
         11   -1    0    0    0    0 -0.00000000000E+00 -0.00000000000E+00 -0.50000000000E+03  0.50000000000E+03  0.00000000000E+00 0. -1.
        -11    1    1    2    0    0  0.61536754704E+01  0.38502238785E+01  0.46419697268E+03  0.46425372523E+03  0.00000000000E+00 0. -1.
         11    1    1    2    0    0 -0.69573744615E+01 -0.81486233836E+01 -0.49879787395E+03  0.49891294249E+03  0.00000000000E+00 0. -1.
        -15    1    1    2    0    0 -0.38850902514E+01  0.17583989090E+01  0.54462873301E+01  0.71418252336E+01  0.17770000000E+01 0. -1.
         15    1    1    2    0    0  0.46887892426E+01  0.25400005961E+01  0.29154613943E+02  0.29691507048E+02  0.17770000000E+01 0.  1.
</event>
<event>
 6    1  0.9144256E-004  0.5001902E+03  0.7546771E-02  0.9399384E-01
        -11   -1    0    0    0    0  0.00000000000E+00  0.00000000000E+00  0.50000000000E+03  0.50000000000E+03  0.00000000000E+00 0.  1.
         11   -1    0    0    0    0 -0.00000000000E+00 -0.00000000000E+00 -0.50000000000E+03  0.50000000000E+03  0.00000000000E+00 0. -1.
        -11    1    1    2    0    0 -0.88489991217E+01 -0.61612001008E+01  0.26328201239E+03  0.26350271957E+03  0.00000000000E+00 0.  1.
         11    1    1    2    0    0  0.51728721999E+01  0.45200185551E+01 -0.49976263189E+03  0.49980984125E+03  0.00000000000E+00 0. -1.
        -15    1    1    2    0    0  0.75395418935E+00 -0.24464454467E+01  0.15570457022E+03  0.15573575202E+03  0.17770000000E+01 0.  1.
         15    1    1    2    0    0  0.29221727324E+01  0.40876269925E+01  0.80776049281E+02  0.80951687162E+02  0.17770000000E+01 0. -1.
</event>
<event>
 6    1  0.9144256E-004  0.4958119E+03  0.7546771E-02  0.9409230E-01
        -11   -1    0    0    0    0  0.00000000000E+00  0.00000000000E+00  0.50000000000E+03  0.50000000000E+03  0.00000000000E+00 0.  1.
         11   -1    0    0    0    0 -0.00000000000E+00 -0.00000000000E+00 -0.50000000000E+03  0.50000000000E+03  0.00000000000E+00 0. -1.
        -11    1    1    2    0    0 -0.10220672747E+01  0.76658589173E+01  0.49550342400E+03  0.49556377310E+03  0.00000000000E+00 0.  1.
         11    1    1    2    0    0  0.49852970172E+01 -0.44637106705E+01 -0.49602813152E+03  0.49607326592E+03  0.00000000000E+00 0. -1.
        -15    1    1    2    0    0 -0.48381817803E+01 -0.88372234979E+00  0.84358097529E+00  0.52970110433E+01  0.17770000000E+01 0. -1.
         15    1    1    2    0    0  0.87495203781E+00 -0.23184258970E+01 -0.31887345376E+00  0.30659499323E+01  0.17770000000E+01 0.  1.
</event>
<event>
 6    1  0.9144256E-004  0.5038037E+03  0.7546771E-02  0.9391339E-01
        -11   -1    0    0    0    0  0.00000000000E+00  0.00000000000E+00  0.50000000000E+03  0.50000000000E+03  0.00000000000E+00 0.  1.
         11   -1    0    0    0    0 -0.00000000000E+00 -0.00000000000E+00 -0.50000000000E+03  0.50000000000E+03  0.00000000000E+00 0. -1.
        -11    1    1    2    0    0  0.52742734161E+01 -0.83938872288E+01  0.44367749566E+03  0.44378823267E+03  0.00000000000E+00 0.  1.
         11    1    1    2    0    0 -0.48436706378E+01  0.12805641174E+02 -0.49600734530E+03  0.49619626377E+03  0.00000000000E+00 0. -1.
        -15    1    1    2    0    0 -0.14264649515E+02 -0.37950476509E+01  0.21150892148E+02  0.25853444260E+02  0.17770000000E+01 0. -1.
         15    1    1    2    0    0  0.13834046736E+02 -0.61670629393E+00  0.31178957494E+02  0.34162059293E+02  0.17770000000E+01 0.  1.
</event>
<event>
 6    1  0.9144256E-004  0.5005132E+03  0.7546771E-02  0.9398662E-01
        -11   -1    0    0    0    0  0.00000000000E+00  0.00000000000E+00  0.50000000000E+03  0.50000000000E+03  0.00000000000E+00 0. -1.
         11   -1    0    0    0    0 -0.00000000000E+00 -0.00000000000E+00 -0.50000000000E+03  0.50000000000E+03  0.00000000000E+00 0. -1.
        -11    1    1    2    0    0 -0.18167278752E+02  0.12950025280E+02  0.34231349690E+03  0.34303976932E+03  0.00000000000E+00 0. -1.
         11    1    1    2    0    0  0.14207373723E+02 -0.25727656602E+01 -0.49927809618E+03  0.49948682256E+03  0.00000000000E+00 0. -1.
        -15    1    1    2    0    0  0.16410470322E+01 -0.96992074610E+00  0.23008792195E+02  0.23155906998E+02  0.17770000000E+01 0.  1.
         15    1    1    2    0    0  0.23188579968E+01 -0.94073388738E+01  0.13395580708E+03  0.13431750112E+03  0.17770000000E+01 0. -1.
</event>
<event>
 6    1  0.9144256E-004  0.5008898E+03  0.7546771E-02  0.9397821E-01
        -11   -1    0    0    0    0  0.00000000000E+00  0.00000000000E+00  0.50000000000E+03  0.50000000000E+03  0.00000000000E+00 0. -1.
         11   -1    0    0    0    0 -0.00000000000E+00 -0.00000000000E+00 -0.50000000000E+03  0.50000000000E+03  0.00000000000E+00 0. -1.
        -11    1    1    2    0    0  0.24631606273E+01  0.12410984010E+02  0.31125105947E+03  0.31150814067E+03  0.00000000000E+00 0. -1.
         11    1    1    2    0    0 -0.11456273774E+02 -0.15583980139E+01 -0.49897622056E+03  0.49911015166E+03  0.00000000000E+00 0. -1.
        -15    1    1    2    0    0  0.26097636418E+01 -0.89593331262E+01  0.29189403155E+02  0.30696245729E+02  0.17770000000E+01 0. -1.
         15    1    1    2    0    0  0.63833495050E+01 -0.18932528696E+01  0.15853575793E+03  0.15868546193E+03  0.17770000000E+01 0.  1.
</event>
<event>
 6    1  0.9144256E-004  0.5067319E+03  0.7546771E-02  0.9384871E-01
        -11   -1    0    0    0    0  0.00000000000E+00  0.00000000000E+00  0.50000000000E+03  0.50000000000E+03  0.00000000000E+00 0.  1.
         11   -1    0    0    0    0 -0.00000000000E+00 -0.00000000000E+00 -0.50000000000E+03  0.50000000000E+03  0.00000000000E+00 0.  1.
        -11    1    1    2    0    0 -0.59366736930E+01 -0.38202304717E+02  0.29975177245E+03  0.30223465266E+03  0.00000000000E+00 0.  1.
         11    1    1    2    0    0 -0.10028448943E+02 -0.20302091119E+02 -0.49274806396E+03  0.49326808048E+03  0.00000000000E+00 0.  1.
        -15    1    1    2    0    0 -0.68212508720E+00  0.54859909288E+01  0.60912016170E+02  0.61188175606E+02  0.17770000000E+01 0.  1.
         15    1    1    2    0    0  0.16647247723E+02  0.53018404907E+02  0.13208427534E+03  0.14330909125E+03  0.17770000000E+01 0. -1.
</event>
<event>
 6    1  0.9144256E-004  0.5005361E+03  0.7546771E-02  0.9398611E-01
        -11   -1    0    0    0    0  0.00000000000E+00  0.00000000000E+00  0.50000000000E+03  0.50000000000E+03  0.00000000000E+00 0.  1.
         11   -1    0    0    0    0 -0.00000000000E+00 -0.00000000000E+00 -0.50000000000E+03  0.50000000000E+03  0.00000000000E+00 0.  1.
        -11    1    1    2    0    0  0.26386373171E+02 -0.15560841238E+02  0.49852359861E+03  0.49946387141E+03  0.00000000000E+00 0.  1.
         11    1    1    2    0    0 -0.28143111012E+02  0.19320549884E+02 -0.43409435173E+03  0.43543452384E+03  0.00000000000E+00 0.  1.
        -15    1    1    2    0    0  0.34178847283E+01 -0.28642985581E+01 -0.18950496165E+02  0.19549045402E+02  0.17770000000E+01 0. -1.
         15    1    1    2    0    0 -0.16611468869E+01 -0.89541008826E+00 -0.45478750716E+02  0.45552559356E+02  0.17770000000E+01 0.  1.
</event>
<event>
 6    1  0.9144256E-004  0.5005947E+03  0.7546771E-02  0.9398480E-01
        -11   -1    0    0    0    0  0.00000000000E+00  0.00000000000E+00  0.50000000000E+03  0.50000000000E+03  0.00000000000E+00 0.  1.
         11   -1    0    0    0    0 -0.00000000000E+00 -0.00000000000E+00 -0.50000000000E+03  0.50000000000E+03  0.00000000000E+00 0. -1.
        -11    1    1    2    0    0  0.69569544344E+01 -0.23715489006E+01  0.49935122227E+03  0.49940531299E+03  0.00000000000E+00 0.  1.
         11    1    1    2    0    0  0.55668446789E+01  0.13575460848E+00 -0.40193252400E+03  0.40197109603E+03  0.00000000000E+00 0. -1.
        -15    1    1    2    0    0 -0.71758373670E+01  0.26884148481E+01 -0.78085109642E+02  0.78480330612E+02  0.17770000000E+01 0.  1.
         15    1    1    2    0    0 -0.53479617462E+01 -0.45262055600E+00 -0.19333588627E+02  0.20143260372E+02  0.17770000000E+01 0. -1.
</event>
<event>
 6    1  0.9144256E-004  0.5064086E+03  0.7546771E-02  0.9385583E-01
        -11   -1    0    0    0    0  0.00000000000E+00  0.00000000000E+00  0.50000000000E+03  0.50000000000E+03  0.00000000000E+00 0. -1.
         11   -1    0    0    0    0 -0.00000000000E+00 -0.00000000000E+00 -0.50000000000E+03  0.50000000000E+03  0.00000000000E+00 0. -1.
        -11    1    1    2    0    0 -0.13430581651E+02  0.34105487340E+01  0.49339686518E+03  0.49359140889E+03  0.00000000000E+00 0. -1.
         11    1    1    2    0    0 -0.91228700028E+01 -0.11986384256E+02 -0.47314518579E+03  0.47338490365E+03  0.00000000000E+00 0. -1.
        -15    1    1    2    0    0  0.15115493325E+02  0.23733147103E+01 -0.81643683541E+01  0.17433456364E+02  0.17770000000E+01 0.  1.
         15    1    1    2    0    0  0.74379583287E+01  0.62025208116E+01 -0.12087311030E+02  0.15590231090E+02  0.17770000000E+01 0. -1.
</event>
<event>
 6    1  0.9144256E-004  0.5003737E+03  0.7546771E-02  0.9398974E-01
        -11   -1    0    0    0    0  0.00000000000E+00  0.00000000000E+00  0.50000000000E+03  0.50000000000E+03  0.00000000000E+00 0. -1.
         11   -1    0    0    0    0 -0.00000000000E+00 -0.00000000000E+00 -0.50000000000E+03  0.50000000000E+03  0.00000000000E+00 0. -1.
        -11    1    1    2    0    0  0.50019359889E+01 -0.29229747363E+01  0.11559814320E+03  0.11574322381E+03  0.00000000000E+00 0. -1.
         11    1    1    2    0    0  0.13397341426E+02 -0.48719986250E+01 -0.49942286160E+03  0.49962628015E+03  0.00000000000E+00 0. -1.
        -15    1    1    2    0    0 -0.12446482550E+02 -0.24958949769E+01  0.20962421777E+03  0.21001574900E+03  0.17770000000E+01 0.  1.
         15    1    1    2    0    0 -0.59527948643E+01  0.10290868338E+02  0.17420050063E+03  0.17461474704E+03  0.17770000000E+01 0. -1.
</event>
<event>
 6    1  0.9144256E-004  0.5002683E+03  0.7546771E-02  0.9399210E-01
        -11   -1    0    0    0    0  0.00000000000E+00  0.00000000000E+00  0.50000000000E+03  0.50000000000E+03  0.00000000000E+00 0. -1.
         11   -1    0    0    0    0 -0.00000000000E+00 -0.00000000000E+00 -0.50000000000E+03  0.50000000000E+03  0.00000000000E+00 0.  1.
        -11    1    1    2    0    0 -0.10415039878E+02 -0.11279166440E+02  0.49949585051E+03  0.49973172535E+03  0.00000000000E+00 0. -1.
         11    1    1    2    0    0 -0.34593901381E+01 -0.19327258357E+01 -0.14465012697E+03  0.14470439538E+03  0.00000000000E+00 0.  1.
        -15    1    1    2    0    0  0.10614335855E+02  0.11129343067E+02 -0.17947686001E+03  0.18014335239E+03  0.17770000000E+01 0.  1.
         15    1    1    2    0    0  0.32600941615E+01  0.20825492093E+01 -0.17536886353E+03  0.17542052688E+03  0.17770000000E+01 0. -1.
</event>
<event>
 6    1  0.9144256E-004  0.5010268E+03  0.7546771E-02  0.9397515E-01
        -11   -1    0    0    0    0  0.00000000000E+00  0.00000000000E+00  0.50000000000E+03  0.50000000000E+03  0.00000000000E+00 0. -1.
         11   -1    0    0    0    0 -0.00000000000E+00 -0.00000000000E+00 -0.50000000000E+03  0.50000000000E+03  0.00000000000E+00 0. -1.
        -11    1    1    2    0    0  0.15031156695E+02  0.16108772207E+02  0.49848649360E+03  0.49897315812E+03  0.00000000000E+00 0. -1.
         11    1    1    2    0    0 -0.22016015278E+01 -0.40963395902E+01 -0.33971099865E+03  0.33974282869E+03  0.00000000000E+00 0. -1.
        -15    1    1    2    0    0 -0.16844019535E+02 -0.89577204887E+01 -0.77524111382E+02  0.79856792604E+02  0.17770000000E+01 0. -1.
         15    1    1    2    0    0  0.40144643686E+01 -0.30547121282E+01 -0.81251383577E+02  0.81427220587E+02  0.17770000000E+01 0. -1.
</event>
<event>
 6    1  0.9144256E-004  0.5009419E+03  0.7546771E-02  0.9397705E-01
        -11   -1    0    0    0    0  0.00000000000E+00  0.00000000000E+00  0.50000000000E+03  0.50000000000E+03  0.00000000000E+00 0.  1.
         11   -1    0    0    0    0 -0.00000000000E+00 -0.00000000000E+00 -0.50000000000E+03  0.50000000000E+03  0.00000000000E+00 0. -1.
        -11    1    1    2    0    0  0.16737535321E+02 -0.11469574783E+01  0.49877601203E+03  0.49905808357E+03  0.00000000000E+00 0.  1.
         11    1    1    2    0    0 -0.53249804612E+01 -0.21525867379E+01 -0.41126926798E+03  0.41130937241E+03  0.00000000000E+00 0. -1.
        -15    1    1    2    0    0  0.15250562896E+01 -0.34627242920E+01 -0.29304513079E+02  0.29601156599E+02  0.17770000000E+01 0.  1.
         15    1    1    2    0    0 -0.12937611149E+02  0.67622685082E+01 -0.58202230964E+02  0.60031387422E+02  0.17770000000E+01 0.  1.
</event>
<event>
 6    1  0.9144256E-004  0.5114338E+03  0.7546771E-02  0.9374583E-01
        -11   -1    0    0    0    0  0.00000000000E+00  0.00000000000E+00  0.50000000000E+03  0.50000000000E+03  0.00000000000E+00 0.  1.
         11   -1    0    0    0    0 -0.00000000000E+00 -0.00000000000E+00 -0.50000000000E+03  0.50000000000E+03  0.00000000000E+00 0.  1.
        -11    1    1    2    0    0 -0.68713062191E+02 -0.19902739515E+02  0.48330047101E+03  0.48856621786E+03  0.00000000000E+00 0.  1.
         11    1    1    2    0    0 -0.49161814723E+01  0.56224092986E+01 -0.33759871030E+03  0.33768131355E+03  0.00000000000E+00 0.  1.
        -15    1    1    2    0    0  0.68181509204E+02  0.94047294492E+01 -0.71828376310E+02  0.99496937168E+02  0.17770000000E+01 0.  1.
         15    1    1    2    0    0  0.54477344591E+01  0.48756007673E+01 -0.73873384404E+02  0.74255531416E+02  0.17770000000E+01 0. -1.
</event>
<event>
 6    1  0.9144256E-004  0.5026767E+03  0.7546771E-02  0.9393840E-01
        -11   -1    0    0    0    0  0.00000000000E+00  0.00000000000E+00  0.50000000000E+03  0.50000000000E+03  0.00000000000E+00 0. -1.
         11   -1    0    0    0    0 -0.00000000000E+00 -0.00000000000E+00 -0.50000000000E+03  0.50000000000E+03  0.00000000000E+00 0. -1.
        -11    1    1    2    0    0  0.20833312190E+02  0.18188366692E+02  0.27407405174E+03  0.27546584074E+03  0.00000000000E+00 0. -1.
         11    1    1    2    0    0  0.15867610946E+02  0.24327331967E+01 -0.49706418700E+03  0.49732334076E+03  0.00000000000E+00 0. -1.
        -15    1    1    2    0    0 -0.15832768441E+02 -0.98099334811E+01  0.71958207416E+02  0.74350875549E+02  0.17770000000E+01 0. -1.
         15    1    1    2    0    0 -0.20868154695E+02 -0.10811166408E+02  0.15103192785E+03  0.15285994295E+03  0.17770000000E+01 0. -1.
</event>
<event>
 6    1  0.9144256E-004  0.5065827E+03  0.7546771E-02  0.9385200E-01
        -11   -1    0    0    0    0  0.00000000000E+00  0.00000000000E+00  0.50000000000E+03  0.50000000000E+03  0.00000000000E+00 0.  1.
         11   -1    0    0    0    0 -0.00000000000E+00 -0.00000000000E+00 -0.50000000000E+03  0.50000000000E+03  0.00000000000E+00 0. -1.
        -11    1    1    2    0    0 -0.13301968390E+02 -0.28453275011E+01  0.49322978809E+03  0.49341733057E+03  0.00000000000E+00 0.  1.
         11    1    1    2    0    0 -0.12003732582E+02  0.80282207323E+01 -0.46649423511E+03  0.46671770195E+03  0.00000000000E+00 0. -1.
        -15    1    1    2    0    0  0.17985352516E+01 -0.53640952730E+01 -0.43435336127E+01  0.73506639424E+01  0.17770000000E+01 0. -1.
         15    1    1    2    0    0  0.23507165720E+02  0.18120204172E+00 -0.22392019368E+02  0.32514303541E+02  0.17770000000E+01 0.  1.
</event>
<event>
 6    1  0.9144256E-004  0.5002891E+03  0.7546771E-02  0.9399163E-01
        -11   -1    0    0    0    0  0.00000000000E+00  0.00000000000E+00  0.50000000000E+03  0.50000000000E+03  0.00000000000E+00 0.  1.
         11   -1    0    0    0    0 -0.00000000000E+00 -0.00000000000E+00 -0.50000000000E+03  0.50000000000E+03  0.00000000000E+00 0. -1.
        -11    1    1    2    0    0  0.26961421139E+01  0.30463663554E+01  0.17826997101E+03  0.17831638201E+03  0.00000000000E+00 0.  1.
         11    1    1    2    0    0  0.15861321809E+02  0.31097235007E+01 -0.49944938639E+03  0.49971085787E+03  0.00000000000E+00 0. -1.
        -15    1    1    2    0    0 -0.50185071725E+01 -0.26849859656E+01  0.40144314688E+02  0.40584705181E+02  0.17770000000E+01 0. -1.
         15    1    1    2    0    0 -0.13538956750E+02 -0.34711038905E+01  0.28103510069E+03  0.28138805494E+03  0.17770000000E+01 0.  1.
</event>
<event>
 6    1  0.9144256E-004  0.5060799E+03  0.7546771E-02  0.9386307E-01
        -11   -1    0    0    0    0  0.00000000000E+00  0.00000000000E+00  0.50000000000E+03  0.50000000000E+03  0.00000000000E+00 0. -1.
         11   -1    0    0    0    0 -0.00000000000E+00 -0.00000000000E+00 -0.50000000000E+03  0.50000000000E+03  0.00000000000E+00 0.  1.
        -11    1    1    2    0    0  0.28871064036E+01 -0.23216211332E+02  0.38957740784E+03  0.39027923920E+03  0.00000000000E+00 0. -1.
         11    1    1    2    0    0  0.12287031514E+00 -0.20723717621E+02 -0.49348518051E+03  0.49392014633E+03  0.00000000000E+00 0.  1.
        -15    1    1    2    0    0 -0.76756799129E+01  0.28400381680E+02  0.88787349400E+02  0.93551316849E+02  0.17770000000E+01 0. -1.
         15    1    1    2    0    0  0.46657031942E+01  0.15539547274E+02  0.15120423270E+02  0.22249297621E+02  0.17770000000E+01 0.  1.
</event>
<event>
 6    1  0.9144256E-004  0.4853805E+03  0.7546771E-02  0.9433130E-01
        -11   -1    0    0    0    0  0.00000000000E+00  0.00000000000E+00  0.50000000000E+03  0.50000000000E+03  0.00000000000E+00 0.  1.
         11   -1    0    0    0    0 -0.00000000000E+00 -0.00000000000E+00 -0.50000000000E+03  0.50000000000E+03  0.00000000000E+00 0. -1.
        -11    1    1    2    0    0 -0.95729874858E+01  0.10758399529E+02  0.49120302520E+03  0.49141407918E+03  0.00000000000E+00 0.  1.
         11    1    1    2    0    0 -0.10138241064E+02  0.30712294243E+01 -0.47959786830E+03  0.47971484411E+03  0.00000000000E+00 0. -1.
        -15    1    1    2    0    0  0.15482077642E+02 -0.52870526106E+01 -0.52322964325E+01  0.17267956115E+02  0.17770000000E+01 0. -1.
         15    1    1    2    0    0  0.42291509075E+01 -0.85425763430E+01 -0.63728604726E+01  0.11603120597E+02  0.17770000000E+01 0.  1.
</event>
<event>
 6    1  0.9144256E-004  0.4940134E+03  0.7546771E-02  0.9413306E-01
        -11   -1    0    0    0    0  0.00000000000E+00  0.00000000000E+00  0.50000000000E+03  0.50000000000E+03  0.00000000000E+00 0. -1.
         11   -1    0    0    0    0 -0.00000000000E+00 -0.00000000000E+00 -0.50000000000E+03  0.50000000000E+03  0.00000000000E+00 0. -1.
        -11    1    1    2    0    0 -0.89907221064E+01 -0.92362445914E+01  0.49418266118E+03  0.49435072966E+03  0.00000000000E+00 0. -1.
         11    1    1    2    0    0  0.99573015627E+01 -0.15505605084E+01 -0.49363263256E+03  0.49373548386E+03  0.00000000000E+00 0. -1.
        -15    1    1    2    0    0 -0.17762031571E+01  0.70091932868E+01 -0.14021595612E+01  0.75767716490E+01  0.17770000000E+01 0. -1.
         15    1    1    2    0    0  0.80962370076E+00  0.37776118130E+01  0.85213093688E+00  0.43370148352E+01  0.17770000000E+01 0.  1.
</event>
<event>
 6    1  0.9144256E-004  0.5052732E+03  0.7546771E-02  0.9388087E-01
        -11   -1    0    0    0    0  0.00000000000E+00  0.00000000000E+00  0.50000000000E+03  0.50000000000E+03  0.00000000000E+00 0. -1.
         11   -1    0    0    0    0 -0.00000000000E+00 -0.00000000000E+00 -0.50000000000E+03  0.50000000000E+03  0.00000000000E+00 0. -1.
        -11    1    1    2    0    0  0.37676080433E+02 -0.17188125918E+02  0.35606865341E+03  0.35846869410E+03  0.00000000000E+00 0. -1.
         11    1    1    2    0    0 -0.65549203120E+01 -0.62525180947E+01 -0.49464382221E+03  0.49472676481E+03  0.00000000000E+00 0. -1.
        -15    1    1    2    0    0 -0.12658178108E+02  0.18845004892E+02  0.36985488513E+02  0.43433256520E+02  0.17770000000E+01 0.  1.
         15    1    1    2    0    0 -0.18462982012E+02  0.45956391206E+01  0.10158968029E+03  0.10337128458E+03  0.17770000000E+01 0. -1.
</event>
<event>
 6    1  0.9144256E-004  0.5005951E+03  0.7546771E-02  0.9398479E-01
        -11   -1    0    0    0    0  0.00000000000E+00  0.00000000000E+00  0.50000000000E+03  0.50000000000E+03  0.00000000000E+00 0.  1.
         11   -1    0    0    0    0 -0.00000000000E+00 -0.00000000000E+00 -0.50000000000E+03  0.50000000000E+03  0.00000000000E+00 0. -1.
        -11    1    1    2    0    0 -0.18770297996E+02 -0.16252307380E+01  0.14206290392E+03  0.14330678328E+03  0.00000000000E+00 0.  1.
         11    1    1    2    0    0  0.12079888885E+02  0.10530578324E+02 -0.49914772118E+03  0.49940491022E+03  0.00000000000E+00 0. -1.
        -15    1    1    2    0    0  0.30438389603E+01 -0.63411884364E+01  0.21101388842E+03  0.21113856697E+03  0.17770000000E+01 0.  1.
         15    1    1    2    0    0  0.36465701508E+01 -0.25641591501E+01  0.14607092883E+03  0.14614973953E+03  0.17770000000E+01 0.  1.
</event>
<event>
 6    1  0.9144256E-004  0.5133406E+03  0.7546771E-02  0.9370444E-01
        -11   -1    0    0    0    0  0.00000000000E+00  0.00000000000E+00  0.50000000000E+03  0.50000000000E+03  0.00000000000E+00 0. -1.
         11   -1    0    0    0    0 -0.00000000000E+00 -0.00000000000E+00 -0.50000000000E+03  0.50000000000E+03  0.00000000000E+00 0.  1.
        -11    1    1    2    0    0 -0.61215917068E+02 -0.14014042708E+02  0.37139566393E+03  0.37666765335E+03  0.00000000000E+00 0. -1.
         11    1    1    2    0    0  0.81472935673E+01 -0.27983879848E+01 -0.48658312179E+03  0.48665937140E+03  0.00000000000E+00 0.  1.
        -15    1    1    2    0    0  0.29863979102E+02  0.32931722574E+02  0.60572079109E+02  0.75156437489E+02  0.17770000000E+01 0.  1.
         15    1    1    2    0    0  0.23204644399E+02 -0.16119291881E+02  0.54615378745E+02  0.61516537751E+02  0.17770000000E+01 0. -1.
</event>
<event>
 6    1  0.9144256E-004  0.5000896E+03  0.7546771E-02  0.9399609E-01
        -11   -1    0    0    0    0  0.00000000000E+00  0.00000000000E+00  0.50000000000E+03  0.50000000000E+03  0.00000000000E+00 0. -1.
         11   -1    0    0    0    0 -0.00000000000E+00 -0.00000000000E+00 -0.50000000000E+03  0.50000000000E+03  0.00000000000E+00 0.  1.
        -11    1    1    2    0    0 -0.24538048256E+01 -0.18973340203E+02  0.29642897072E+03  0.29704569258E+03  0.00000000000E+00 0. -1.
         11    1    1    2    0    0  0.94727811679E+01  0.23843839133E+02 -0.49925158668E+03  0.49991040102E+03  0.00000000000E+00 0.  1.
        -15    1    1    2    0    0 -0.38656005031E+01 -0.26758040293E+01  0.13127909765E+03  0.13137527166E+03  0.17770000000E+01 0.  1.
         15    1    1    2    0    0 -0.31533758392E+01 -0.21946949011E+01  0.71543518308E+02  0.71668634742E+02  0.17770000000E+01 0.  1.
</event>
<event>
 6    1  0.9144256E-004  0.4817232E+03  0.7546771E-02  0.9441661E-01
        -11   -1    0    0    0    0  0.00000000000E+00  0.00000000000E+00  0.50000000000E+03  0.50000000000E+03  0.00000000000E+00 0. -1.
         11   -1    0    0    0    0 -0.00000000000E+00 -0.00000000000E+00 -0.50000000000E+03  0.50000000000E+03  0.00000000000E+00 0. -1.
        -11    1    1    2    0    0  0.11480765059E+02  0.14902007288E+02  0.48114268113E+03  0.48151028794E+03  0.00000000000E+00 0. -1.
         11    1    1    2    0    0 -0.43012309121E+01  0.13855592618E+02 -0.48217423911E+03  0.48239244905E+03  0.00000000000E+00 0. -1.
        -15    1    1    2    0    0 -0.52732800526E+01 -0.16538459342E+02  0.10549731371E+02  0.20390749886E+02  0.17770000000E+01 0. -1.
         15    1    1    2    0    0 -0.19062540943E+01 -0.12219140564E+02 -0.95181733889E+01  0.15706513122E+02  0.17770000000E+01 0.  1.
</event>
<event>
 6    1  0.9144256E-004  0.5049114E+03  0.7546771E-02  0.9388887E-01
        -11   -1    0    0    0    0  0.00000000000E+00  0.00000000000E+00  0.50000000000E+03  0.50000000000E+03  0.00000000000E+00 0. -1.
         11   -1    0    0    0    0 -0.00000000000E+00 -0.00000000000E+00 -0.50000000000E+03  0.50000000000E+03  0.00000000000E+00 0.  1.
        -11    1    1    2    0    0 -0.41296069274E+01 -0.12369590788E+02  0.49491680665E+03  0.49508858393E+03  0.00000000000E+00 0. -1.
         11    1    1    2    0    0 -0.15430651675E+01  0.95618413153E+01 -0.49117275238E+03  0.49126823889E+03  0.00000000000E+00 0.  1.
        -15    1    1    2    0    0  0.38679879744E+01  0.54256407411E+01  0.16909818386E+01  0.71004265365E+01  0.17770000000E+01 0. -1.
         15    1    1    2    0    0  0.18046841204E+01 -0.26178912685E+01 -0.54350361090E+01  0.65427506429E+01  0.17770000000E+01 0.  1.
</event>
<event>
 6    1  0.9144256E-004  0.5004489E+03  0.7546771E-02  0.9398806E-01
        -11   -1    0    0    0    0  0.00000000000E+00  0.00000000000E+00  0.50000000000E+03  0.50000000000E+03  0.00000000000E+00 0.  1.
         11   -1    0    0    0    0 -0.00000000000E+00 -0.00000000000E+00 -0.50000000000E+03  0.50000000000E+03  0.00000000000E+00 0.  1.
        -11    1    1    2    0    0  0.14164387046E+01  0.92914616784E+01  0.49946268523E+03  0.49955110999E+03  0.00000000000E+00 0.  1.
         11    1    1    2    0    0  0.21133529941E+01 -0.53141259642E+01 -0.42339850945E+03  0.42343713110E+03  0.00000000000E+00 0.  1.
        -15    1    1    2    0    0 -0.44581643117E+01 -0.68282188663E+01 -0.46524149370E+02  0.47266838328E+02  0.17770000000E+01 0. -1.
         15    1    1    2    0    0  0.92837261295E+00  0.28508831521E+01 -0.29540026413E+02  0.29744920573E+02  0.17770000000E+01 0.  1.
</event>
<event>
 6    1  0.9144256E-004  0.4927384E+03  0.7546771E-02  0.9416206E-01
        -11   -1    0    0    0    0  0.00000000000E+00  0.00000000000E+00  0.50000000000E+03  0.50000000000E+03  0.00000000000E+00 0. -1.
         11   -1    0    0    0    0 -0.00000000000E+00 -0.00000000000E+00 -0.50000000000E+03  0.50000000000E+03  0.00000000000E+00 0. -1.
        -11    1    1    2    0    0 -0.10230254819E+02 -0.38149015419E+01  0.10795469674E+02  0.15354274744E+02  0.00000000000E+00 0. -1.
         11    1    1    2    0    0  0.67401310108E+01  0.39795165196E+01 -0.49720283704E+03  0.49726444381E+03  0.00000000000E+00 0. -1.
        -15    1    1    2    0    0 -0.77026542197E+01  0.11690411631E+02  0.19242022071E+03  0.19293702515E+03  0.17770000000E+01 0.  1.
         15    1    1    2    0    0  0.11192778028E+02 -0.11855026609E+02  0.29398714666E+03  0.29444425630E+03  0.17770000000E+01 0. -1.
</event>
<event>
 6    1  0.9144256E-004  0.5026024E+03  0.7546771E-02  0.9394005E-01
        -11   -1    0    0    0    0  0.00000000000E+00  0.00000000000E+00  0.50000000000E+03  0.50000000000E+03  0.00000000000E+00 0.  1.
         11   -1    0    0    0    0 -0.00000000000E+00 -0.00000000000E+00 -0.50000000000E+03  0.50000000000E+03  0.00000000000E+00 0. -1.
        -11    1    1    2    0    0  0.12020607770E+02  0.20489655053E+01  0.44207348852E+03  0.44224163364E+03  0.00000000000E+00 0.  1.
         11    1    1    2    0    0  0.43874043943E+01  0.11543783354E+02 -0.49724425376E+03  0.49739758357E+03  0.00000000000E+00 0. -1.
        -15    1    1    2    0    0 -0.13650561429E+00 -0.13761922073E+01  0.16260558102E+02  0.16415724705E+02  0.17770000000E+01 0. -1.
         15    1    1    2    0    0 -0.16271506550E+02 -0.12216556652E+02  0.38910207136E+02  0.43945058086E+02  0.17770000000E+01 0.  1.
</event>
<event>
 6    1  0.9144256E-004  0.5046654E+03  0.7546771E-02  0.9389431E-01
        -11   -1    0    0    0    0  0.00000000000E+00  0.00000000000E+00  0.50000000000E+03  0.50000000000E+03  0.00000000000E+00 0.  1.
         11   -1    0    0    0    0 -0.00000000000E+00 -0.00000000000E+00 -0.50000000000E+03  0.50000000000E+03  0.00000000000E+00 0. -1.
        -11    1    1    2    0    0 -0.83165984760E+01  0.10110974725E+02  0.49516160266E+03  0.49533464483E+03  0.00000000000E+00 0.  1.
         11    1    1    2    0    0 -0.29867501699E+01 -0.58507716757E+01 -0.48655559047E+03  0.48659993303E+03  0.00000000000E+00 0. -1.
        -15    1    1    2    0    0  0.26938189236E+01 -0.25189316293E+01 -0.81162379987E+01  0.90902544078E+01  0.17770000000E+01 0.  1.
         15    1    1    2    0    0  0.86095297224E+01 -0.17412714202E+01 -0.48977418828E+00  0.89751677397E+01  0.17770000000E+01 0. -1.
</event>
<event>
 6    1  0.2745363E-003  0.5445327E+03  0.7546771E-02  0.9305332E-01
        -11   -1    0    0    0    0  0.00000000000E+00  0.00000000000E+00  0.50000000000E+03  0.50000000000E+03  0.00000000000E+00 0.  1.
         11   -1    0    0    0    0 -0.00000000000E+00 -0.00000000000E+00 -0.50000000000E+03  0.50000000000E+03  0.00000000000E+00 0.  1.
        -11    1    1    2    0    0 -0.10867221421E+03  0.74262687285E+02  0.43603426773E+03  0.45546731990E+03  0.00000000000E+00 0.  1.
         11    1    1    2    0    0  0.55322835492E+01 -0.90254347537E+00 -0.33528163470E+03  0.33532848867E+03  0.00000000000E+00 0.  1.
        -15    1    1    2    0    0  0.10809122007E+03 -0.74904248249E+02 -0.25769415701E+02  0.13402081471E+03  0.17770000000E+01 0.  1.
         15    1    1    2    0    0 -0.49512894049E+01  0.15441044391E+01 -0.74983217322E+02  0.75183376715E+02  0.17770000000E+01 0. -1.
</event>
<event>
 6    1  0.9144256E-004  0.5016146E+03  0.7546771E-02  0.9396204E-01
        -11   -1    0    0    0    0  0.00000000000E+00  0.00000000000E+00  0.50000000000E+03  0.50000000000E+03  0.00000000000E+00 0. -1.
         11   -1    0    0    0    0 -0.00000000000E+00 -0.00000000000E+00 -0.50000000000E+03  0.50000000000E+03  0.00000000000E+00 0.  1.
        -11    1    1    2    0    0 -0.10270036788E+02  0.17891737520E+02  0.49795823866E+03  0.49838538840E+03  0.00000000000E+00 0. -1.
         11    1    1    2    0    0  0.80375302936E+01 -0.99111272372E+01 -0.47029576925E+03  0.47046885435E+03  0.00000000000E+00 0.  1.
        -15    1    1    2    0    0 -0.37352577175E+01  0.64604144286E-01 -0.77533031959E+01  0.87879328263E+01  0.17770000000E+01 0.  1.
         15    1    1    2    0    0  0.59677642123E+01 -0.80452144269E+01 -0.19909166206E+02  0.22357824422E+02  0.17770000000E+01 0. -1.
</event>
<event>
 6    1  0.9144256E-004  0.5000789E+03  0.7546771E-02  0.9399633E-01
        -11   -1    0    0    0    0  0.00000000000E+00  0.00000000000E+00  0.50000000000E+03  0.50000000000E+03  0.00000000000E+00 0. -1.
         11   -1    0    0    0    0 -0.00000000000E+00 -0.00000000000E+00 -0.50000000000E+03  0.50000000000E+03  0.00000000000E+00 0. -1.
        -11    1    1    2    0    0 -0.87973470941E+01  0.31652309678E+01  0.49983363263E+03  0.49992106608E+03  0.00000000000E+00 0. -1.
         11    1    1    2    0    0 -0.10696447203E+01  0.23689383746E+01 -0.56407131050E+02  0.56466985417E+02  0.00000000000E+00 0. -1.
        -15    1    1    2    0    0  0.73016772602E+00 -0.85909957131E+00 -0.11807639286E+03  0.11809514587E+03  0.17770000000E+01 0. -1.
         15    1    1    2    0    0  0.91368240883E+01 -0.46750697711E+01 -0.32535010871E+03  0.32551680264E+03  0.17770000000E+01 0. -1.
</event>
<event>
 6    1  0.9144256E-004  0.5001514E+03  0.7546771E-02  0.9399471E-01
        -11   -1    0    0    0    0  0.00000000000E+00  0.00000000000E+00  0.50000000000E+03  0.50000000000E+03  0.00000000000E+00 0.  1.
         11   -1    0    0    0    0 -0.00000000000E+00 -0.00000000000E+00 -0.50000000000E+03  0.50000000000E+03  0.00000000000E+00 0.  1.
        -11    1    1    2    0    0  0.52572630570E+01  0.60151509123E+01  0.49978470838E+03  0.49984855265E+03  0.00000000000E+00 0.  1.
         11    1    1    2    0    0 -0.31609287673E+01 -0.82478959839E+01 -0.35451017651E+03  0.35462019754E+03  0.00000000000E+00 0.  1.
        -15    1    1    2    0    0 -0.85249812796E+00  0.46006068867E+01 -0.64949739027E+02  0.65142295519E+02  0.17770000000E+01 0.  1.
         15    1    1    2    0    0 -0.12438361617E+01 -0.23678618151E+01 -0.80324792844E+02  0.80388954293E+02  0.17770000000E+01 0. -1.
</event>
<event>
 6    1  0.9144256E-004  0.5031192E+03  0.7546771E-02  0.9392857E-01
        -11   -1    0    0    0    0  0.00000000000E+00  0.00000000000E+00  0.50000000000E+03  0.50000000000E+03  0.00000000000E+00 0.  1.
         11   -1    0    0    0    0 -0.00000000000E+00 -0.00000000000E+00 -0.50000000000E+03  0.50000000000E+03  0.00000000000E+00 0. -1.
        -11    1    1    2    0    0  0.96513066501E+01  0.12173390781E+02  0.45603648605E+03  0.45630101443E+03  0.00000000000E+00 0.  1.
         11    1    1    2    0    0  0.31513591257E+00  0.77174231120E+01 -0.49682073354E+03  0.49688076961E+03  0.00000000000E+00 0. -1.
        -15    1    1    2    0    0 -0.86397978259E+01 -0.12755230876E+02  0.28188673482E+02  0.32172986539E+02  0.17770000000E+01 0.  1.
         15    1    1    2    0    0 -0.13266447368E+01 -0.71355830174E+01  0.12595574006E+02  0.14645229421E+02  0.17770000000E+01 0. -1.
</event>
<event>
 6    1  0.9144256E-004  0.5008626E+03  0.7546771E-02  0.9397882E-01
        -11   -1    0    0    0    0  0.00000000000E+00  0.00000000000E+00  0.50000000000E+03  0.50000000000E+03  0.00000000000E+00 0.  1.
         11   -1    0    0    0    0 -0.00000000000E+00 -0.00000000000E+00 -0.50000000000E+03  0.50000000000E+03  0.00000000000E+00 0.  1.
        -11    1    1    2    0    0  0.24013958138E+02  0.58110087661E+01  0.15828142499E+03  0.16019815076E+03  0.00000000000E+00 0.  1.
         11    1    1    2    0    0 -0.17393729232E+02 -0.26057661663E+01 -0.49882741810E+03  0.49913738077E+03  0.00000000000E+00 0.  1.
        -15    1    1    2    0    0 -0.37710860295E+01 -0.22978699298E+00  0.11941066375E+03  0.11948363167E+03  0.17770000000E+01 0.  1.
         15    1    1    2    0    0 -0.28491428765E+01 -0.29754556069E+01  0.22113532935E+03  0.22118083680E+03  0.17770000000E+01 0.  1.
</event>
<event>
 6    1  0.9144256E-004  0.4604719E+03  0.7546771E-02  0.9492878E-01
        -11   -1    0    0    0    0  0.00000000000E+00  0.00000000000E+00  0.50000000000E+03  0.50000000000E+03  0.00000000000E+00 0.  1.
         11   -1    0    0    0    0 -0.00000000000E+00 -0.00000000000E+00 -0.50000000000E+03  0.50000000000E+03  0.00000000000E+00 0. -1.
        -11    1    1    2    0    0  0.41429200573E+02 -0.38055299157E+02  0.45448606376E+03  0.45795432808E+03  0.00000000000E+00 0.  1.
         11    1    1    2    0    0  0.90066180773E+01 -0.13128627225E+02 -0.46558315467E+03  0.46585529292E+03  0.00000000000E+00 0. -1.
        -15    1    1    2    0    0  0.46622105225E-01 -0.14501746905E+01  0.11410899160E+01  0.25622247072E+01  0.17770000000E+01 0. -1.
         15    1    1    2    0    0 -0.50482440756E+02  0.52634101073E+02  0.99560009963E+01  0.73628154298E+02  0.17770000000E+01 0.  1.
</event>
<event>
 6    1  0.9144256E-004  0.5007355E+03  0.7546771E-02  0.9398166E-01
        -11   -1    0    0    0    0  0.00000000000E+00  0.00000000000E+00  0.50000000000E+03  0.50000000000E+03  0.00000000000E+00 0. -1.
         11   -1    0    0    0    0 -0.00000000000E+00 -0.00000000000E+00 -0.50000000000E+03  0.50000000000E+03  0.00000000000E+00 0.  1.
        -11    1    1    2    0    0 -0.48855036248E+01 -0.51690380557E+01  0.40674535043E+03  0.40680753090E+03  0.00000000000E+00 0. -1.
         11    1    1    2    0    0 -0.70402034646E+01 -0.31168917874E+01 -0.49920516467E+03  0.49926453500E+03  0.00000000000E+00 0.  1.
        -15    1    1    2    0    0  0.70772510211E+01  0.78451217687E+01  0.73327777411E+02  0.74106370081E+02  0.17770000000E+01 0.  1.
         15    1    1    2    0    0  0.48484560683E+01  0.44080807431E+00  0.19132036830E+02  0.19821564021E+02  0.17770000000E+01 0. -1.
</event>
<event>
 6    1  0.9144256E-004  0.4926820E+03  0.7546771E-02  0.9416335E-01
        -11   -1    0    0    0    0  0.00000000000E+00  0.00000000000E+00  0.50000000000E+03  0.50000000000E+03  0.00000000000E+00 0.  1.
         11   -1    0    0    0    0 -0.00000000000E+00 -0.00000000000E+00 -0.50000000000E+03  0.50000000000E+03  0.00000000000E+00 0.  1.
        -11    1    1    2    0    0 -0.14887308068E+02  0.17433556415E+00  0.49366029725E+03  0.49388475519E+03  0.00000000000E+00 0.  1.
         11    1    1    2    0    0  0.98727749155E+01  0.21935404549E+01 -0.49139348043E+03  0.49149754415E+03  0.00000000000E+00 0.  1.
        -15    1    1    2    0    0  0.39907475386E+01 -0.32878266770E+01  0.47543587643E+01  0.72455176789E+01  0.17770000000E+01 0. -1.
         15    1    1    2    0    0  0.10237856139E+01  0.91995065794E+00 -0.70211755856E+01  0.73721829739E+01  0.17770000000E+01 0.  1.
</event>
<event>
 6    1  0.9144256E-004  0.5021706E+03  0.7546771E-02  0.9394966E-01
        -11   -1    0    0    0    0  0.00000000000E+00  0.00000000000E+00  0.50000000000E+03  0.50000000000E+03  0.00000000000E+00 0. -1.
         11   -1    0    0    0    0 -0.00000000000E+00 -0.00000000000E+00 -0.50000000000E+03  0.50000000000E+03  0.00000000000E+00 0. -1.
        -11    1    1    2    0    0 -0.24836854949E+02  0.16109662502E+02  0.34331197512E+03  0.34458598760E+03  0.00000000000E+00 0. -1.
         11    1    1    2    0    0  0.36528725894E+02 -0.71764901902E+01 -0.49643555032E+03  0.49782939392E+03  0.00000000000E+00 0. -1.
        -15    1    1    2    0    0 -0.18212049637E+02  0.14402448899E+01  0.13059235334E+03  0.13187597786E+03  0.17770000000E+01 0.  1.
         15    1    1    2    0    0  0.65201786921E+01 -0.10373417201E+02  0.22531221868E+02  0.25708640619E+02  0.17770000000E+01 0. -1.
</event>
<event>
 6    1  0.9144256E-004  0.5007179E+03  0.7546771E-02  0.9398205E-01
        -11   -1    0    0    0    0  0.00000000000E+00  0.00000000000E+00  0.50000000000E+03  0.50000000000E+03  0.00000000000E+00 0.  1.
         11   -1    0    0    0    0 -0.00000000000E+00 -0.00000000000E+00 -0.50000000000E+03  0.50000000000E+03  0.00000000000E+00 0.  1.
        -11    1    1    2    0    0  0.22112753432E+02  0.13007048298E+02  0.18773286723E+03  0.18947766783E+03  0.00000000000E+00 0.  1.
         11    1    1    2    0    0 -0.20790346330E+02 -0.12040773361E+02 -0.49870367019E+03  0.49928205394E+03  0.00000000000E+00 0.  1.
        -15    1    1    2    0    0 -0.19199549880E+01 -0.57101922942E+01  0.24183624538E+03  0.24191779561E+03  0.17770000000E+01 0.  1.
         15    1    1    2    0    0  0.59754788639E+00  0.47439173578E+01  0.69134557585E+02  0.69322482622E+02  0.17770000000E+01 0. -1.
</event>
<event>
 6    1  0.9144256E-004  0.5038980E+03  0.7546771E-02  0.9391130E-01
        -11   -1    0    0    0    0  0.00000000000E+00  0.00000000000E+00  0.50000000000E+03  0.50000000000E+03  0.00000000000E+00 0.  1.
         11   -1    0    0    0    0 -0.00000000000E+00 -0.00000000000E+00 -0.50000000000E+03  0.50000000000E+03  0.00000000000E+00 0. -1.
        -11    1    1    2    0    0  0.12836103174E+02 -0.12154527035E+02  0.45710524142E+03  0.45744693660E+03  0.00000000000E+00 0.  1.
         11    1    1    2    0    0 -0.41050581402E+01 -0.76253731250E+01 -0.49602636565E+03  0.49610195851E+03  0.00000000000E+00 0. -1.
        -15    1    1    2    0    0 -0.10090935037E+02  0.20517942462E+02  0.36180153234E+02  0.42836598252E+02  0.17770000000E+01 0. -1.
         15    1    1    2    0    0  0.13598900031E+01 -0.73804230171E+00  0.27409709976E+01  0.36145066426E+01  0.17770000000E+01 0.  1.
</event>
<event>
 6    1  0.9144256E-004  0.5010468E+03  0.7546771E-02  0.9397470E-01
        -11   -1    0    0    0    0  0.00000000000E+00  0.00000000000E+00  0.50000000000E+03  0.50000000000E+03  0.00000000000E+00 0.  1.
         11   -1    0    0    0    0 -0.00000000000E+00 -0.00000000000E+00 -0.50000000000E+03  0.50000000000E+03  0.00000000000E+00 0. -1.
        -11    1    1    2    0    0 -0.77732365715E+00  0.83413583785E+01  0.49888288101E+03  0.49895321570E+03  0.00000000000E+00 0.  1.
         11    1    1    2    0    0  0.67957500687E+01  0.35950949529E+01 -0.44895792406E+03  0.44902374603E+03  0.00000000000E+00 0. -1.
        -15    1    1    2    0    0 -0.22548500618E+01 -0.71609901618E+01 -0.34418686570E+02  0.35272763474E+02  0.17770000000E+01 0. -1.
         15    1    1    2    0    0 -0.37635763498E+01 -0.47754631696E+01 -0.15506270386E+02  0.16750274795E+02  0.17770000000E+01 0.  1.
</event>
<event>
 6    1  0.9144256E-004  0.5002712E+03  0.7546771E-02  0.9399203E-01
        -11   -1    0    0    0    0  0.00000000000E+00  0.00000000000E+00  0.50000000000E+03  0.50000000000E+03  0.00000000000E+00 0. -1.
         11   -1    0    0    0    0 -0.00000000000E+00 -0.00000000000E+00 -0.50000000000E+03  0.50000000000E+03  0.00000000000E+00 0. -1.
        -11    1    1    2    0    0  0.12464621845E+02  0.48824994848E+01  0.49954949916E+03  0.49972883418E+03  0.00000000000E+00 0. -1.
         11    1    1    2    0    0 -0.50921398199E+01  0.16032122271E+01 -0.30116688158E+03  0.30121419412E+03  0.00000000000E+00 0. -1.
        -15    1    1    2    0    0 -0.10654523271E+02 -0.34161136688E+01 -0.12347162980E+03  0.12399028104E+03  0.17770000000E+01 0.  1.
         15    1    1    2    0    0  0.32820412459E+01 -0.30695980431E+01 -0.74910987786E+02  0.75066690662E+02  0.17770000000E+01 0. -1.
</event>
<event>
 6    1  0.9144256E-004  0.5013722E+03  0.7546771E-02  0.9396745E-01
        -11   -1    0    0    0    0  0.00000000000E+00  0.00000000000E+00  0.50000000000E+03  0.50000000000E+03  0.00000000000E+00 0. -1.
         11   -1    0    0    0    0 -0.00000000000E+00 -0.00000000000E+00 -0.50000000000E+03  0.50000000000E+03  0.00000000000E+00 0. -1.
        -11    1    1    2    0    0  0.66664669316E+00 -0.35687972213E+02  0.49734857702E+03  0.49862779991E+03  0.00000000000E+00 0. -1.
         11    1    1    2    0    0  0.37385464686E+01  0.86049196322E+01 -0.33993949468E+03  0.34006893627E+03  0.00000000000E+00 0. -1.
        -15    1    1    2    0    0 -0.10884264643E+02  0.49443722575E+01 -0.55650896951E+02  0.56948170245E+02  0.17770000000E+01 0.  1.
         15    1    1    2    0    0  0.64790714810E+01  0.22138680323E+02 -0.10175818539E+03  0.10435509358E+03  0.17770000000E+01 0. -1.
</event>
<event>
 6    1  0.9144256E-004  0.5058000E+03  0.7546771E-02  0.9386925E-01
        -11   -1    0    0    0    0  0.00000000000E+00  0.00000000000E+00  0.50000000000E+03  0.50000000000E+03  0.00000000000E+00 0.  1.
         11   -1    0    0    0    0 -0.00000000000E+00 -0.00000000000E+00 -0.50000000000E+03  0.50000000000E+03  0.00000000000E+00 0.  1.
        -11    1    1    2    0    0  0.70348547183E+01 -0.22062918148E+02  0.49365718859E+03  0.49420004187E+03  0.00000000000E+00 0.  1.
         11    1    1    2    0    0 -0.31719218743E+01 -0.10612501964E+02 -0.44943664775E+03  0.44957311600E+03  0.00000000000E+00 0.  1.
        -15    1    1    2    0    0 -0.15901614037E+01  0.84090229385E+01 -0.51547835613E+01  0.10147403739E+02  0.17770000000E+01 0.  1.
         15    1    1    2    0    0 -0.22727714403E+01  0.24266397173E+02 -0.39065757281E+02  0.46079438395E+02  0.17770000000E+01 0. -1.
</event>
<event>
 6    1  0.9144256E-004  0.4842078E+03  0.7546771E-02  0.9435856E-01
        -11   -1    0    0    0    0  0.00000000000E+00  0.00000000000E+00  0.50000000000E+03  0.50000000000E+03  0.00000000000E+00 0.  1.
         11   -1    0    0    0    0 -0.00000000000E+00 -0.00000000000E+00 -0.50000000000E+03  0.50000000000E+03  0.00000000000E+00 0.  1.
        -11    1    1    2    0    0  0.57616342997E+01 -0.15094552891E+02  0.48070959247E+03  0.48098103315E+03  0.00000000000E+00 0.  1.
         11    1    1    2    0    0 -0.11688178731E+02  0.82607909272E+00 -0.48744029444E+03  0.48758110769E+03  0.00000000000E+00 0.  1.
        -15    1    1    2    0    0  0.16273862230E+02  0.79521674419E+01  0.60015504159E+01  0.19163817347E+02  0.17770000000E+01 0.  1.
         15    1    1    2    0    0 -0.10347317799E+02  0.63163063566E+01  0.72915155428E+00  0.12274041820E+02  0.17770000000E+01 0. -1.
</event>
<event>
 6    1  0.9144256E-004  0.5061446E+03  0.7546771E-02  0.9386165E-01
        -11   -1    0    0    0    0  0.00000000000E+00  0.00000000000E+00  0.50000000000E+03  0.50000000000E+03  0.00000000000E+00 0. -1.
         11   -1    0    0    0    0 -0.00000000000E+00 -0.00000000000E+00 -0.50000000000E+03  0.50000000000E+03  0.00000000000E+00 0. -1.
        -11    1    1    2    0    0  0.16669943270E+02  0.54097384945E+01  0.49354436928E+03  0.49385544112E+03  0.00000000000E+00 0. -1.
         11    1    1    2    0    0 -0.56012003923E+01 -0.55212037908E+01 -0.48091249933E+03  0.48097680729E+03  0.00000000000E+00 0. -1.
        -15    1    1    2    0    0 -0.13388838286E+02 -0.60352407726E+01 -0.10070122038E+02  0.17895535999E+02  0.17770000000E+01 0. -1.
         15    1    1    2    0    0  0.23200954084E+01  0.61467060690E+01 -0.25617479095E+01  0.72722155877E+01  0.17770000000E+01 0.  1.
</event>
<event>
 6    1  0.9144256E-004  0.4685803E+03  0.7546771E-02  0.9472995E-01
        -11   -1    0    0    0    0  0.00000000000E+00  0.00000000000E+00  0.50000000000E+03  0.50000000000E+03  0.00000000000E+00 0.  1.
         11   -1    0    0    0    0 -0.00000000000E+00 -0.00000000000E+00 -0.50000000000E+03  0.50000000000E+03  0.00000000000E+00 0.  1.
        -11    1    1    2    0    0 -0.17087273582E+02 -0.38712388070E+02  0.47149122480E+03  0.47338631050E+03  0.00000000000E+00 0.  1.
         11    1    1    2    0    0  0.29450557882E+01 -0.99214875169E+01 -0.46504896219E+03  0.46516410707E+03  0.00000000000E+00 0.  1.
        -15    1    1    2    0    0  0.16915086302E+02  0.46551502213E+02  0.45668628044E+01  0.49771241372E+02  0.17770000000E+01 0.  1.
         15    1    1    2    0    0 -0.27728685079E+01  0.20823733741E+01 -0.11009125409E+02  0.11678341060E+02  0.17770000000E+01 0. -1.
</event>
<event>
 6    1  0.9144256E-004  0.4940506E+03  0.7546771E-02  0.9413221E-01
        -11   -1    0    0    0    0  0.00000000000E+00  0.00000000000E+00  0.50000000000E+03  0.50000000000E+03  0.00000000000E+00 0.  1.
         11   -1    0    0    0    0 -0.00000000000E+00 -0.00000000000E+00 -0.50000000000E+03  0.50000000000E+03  0.00000000000E+00 0.  1.
        -11    1    1    2    0    0  0.10886393259E+02  0.44935604320E+01  0.37051983125E+01  0.12346422076E+02  0.00000000000E+00 0.  1.
         11    1    1    2    0    0 -0.13012558980E+02  0.13560875045E+01 -0.49530994341E+03  0.49548269970E+03  0.00000000000E+00 0.  1.
        -15    1    1    2    0    0 -0.72851815936E+01 -0.92772499920E+01  0.17688680458E+03  0.17728858001E+03  0.17770000000E+01 0.  1.
         15    1    1    2    0    0  0.94113473142E+01  0.34276020556E+01  0.31471794052E+03  0.31488229821E+03  0.17770000000E+01 0. -1.
</event>
<event>
 6    1  0.9144256E-004  0.5013184E+03  0.7546771E-02  0.9396864E-01
        -11   -1    0    0    0    0  0.00000000000E+00  0.00000000000E+00  0.50000000000E+03  0.50000000000E+03  0.00000000000E+00 0.  1.
         11   -1    0    0    0    0 -0.00000000000E+00 -0.00000000000E+00 -0.50000000000E+03  0.50000000000E+03  0.00000000000E+00 0. -1.
        -11    1    1    2    0    0  0.28759592250E+02 -0.13474243730E+02  0.49766921982E+03  0.49868158353E+03  0.00000000000E+00 0.  1.
         11    1    1    2    0    0  0.10502684134E+01  0.11233289660E+01 -0.73204650777E+02  0.73220801874E+02  0.00000000000E+00 0. -1.
        -15    1    1    2    0    0 -0.86045846109E-01  0.13833357651E+02 -0.29141708667E+03  0.29175065607E+03  0.17770000000E+01 0. -1.
         15    1    1    2    0    0 -0.29723814817E+02 -0.14824428876E+01 -0.13304748237E+03  0.13634695853E+03  0.17770000000E+01 0.  1.
</event>
<event>
 6    1  0.9144256E-004  0.5004475E+03  0.7546771E-02  0.9398809E-01
        -11   -1    0    0    0    0  0.00000000000E+00  0.00000000000E+00  0.50000000000E+03  0.50000000000E+03  0.00000000000E+00 0. -1.
         11   -1    0    0    0    0 -0.00000000000E+00 -0.00000000000E+00 -0.50000000000E+03  0.50000000000E+03  0.00000000000E+00 0.  1.
        -11    1    1    2    0    0  0.14135681750E+02 -0.17476681263E+02  0.49904654422E+03  0.49955250494E+03  0.00000000000E+00 0. -1.
         11    1    1    2    0    0 -0.68458210990E+01 -0.17541652843E+01 -0.17004413907E+03  0.17019092688E+03  0.00000000000E+00 0.  1.
        -15    1    1    2    0    0 -0.14120778599E+02  0.14049474974E+02 -0.22878347341E+03  0.22965587206E+03  0.17770000000E+01 0. -1.
         15    1    1    2    0    0  0.68309179488E+01  0.51813715732E+01 -0.10021893174E+03  0.10060069612E+03  0.17770000000E+01 0.  1.
</event>
<event>
 6    1  0.9144256E-004  0.4924183E+03  0.7546771E-02  0.9416936E-01
        -11   -1    0    0    0    0  0.00000000000E+00  0.00000000000E+00  0.50000000000E+03  0.50000000000E+03  0.00000000000E+00 0. -1.
         11   -1    0    0    0    0 -0.00000000000E+00 -0.00000000000E+00 -0.50000000000E+03  0.50000000000E+03  0.00000000000E+00 0. -1.
        -11    1    1    2    0    0 -0.20501431386E+01  0.72794778887E+01  0.48995354703E+03  0.49001191020E+03  0.00000000000E+00 0. -1.
         11    1    1    2    0    0 -0.60501132328E+01 -0.41704386241E+01 -0.49482046177E+03  0.49487502039E+03  0.00000000000E+00 0. -1.
        -15    1    1    2    0    0 -0.99552408756E-01  0.12599765956E+01 -0.23567185673E+01  0.32108103508E+01  0.17770000000E+01 0.  1.
         15    1    1    2    0    0  0.81998087802E+01 -0.43690158602E+01  0.72236333017E+01  0.11902259059E+02  0.17770000000E+01 0. -1.
</event>
<event>
 6    1  0.9144256E-004  0.4575482E+03  0.7546771E-02  0.9500154E-01
        -11   -1    0    0    0    0  0.00000000000E+00  0.00000000000E+00  0.50000000000E+03  0.50000000000E+03  0.00000000000E+00 0. -1.
         11   -1    0    0    0    0 -0.00000000000E+00 -0.00000000000E+00 -0.50000000000E+03  0.50000000000E+03  0.00000000000E+00 0.  1.
        -11    1    1    2    0    0  0.38985181258E+02  0.56294280711E+02  0.45961247260E+03  0.46468539397E+03  0.00000000000E+00 0. -1.
         11    1    1    2    0    0  0.61084249154E+01  0.16873827371E+00 -0.45324049096E+03  0.45328168281E+03  0.00000000000E+00 0.  1.
        -15    1    1    2    0    0 -0.48763595232E+02 -0.49964778930E+02 -0.13984157590E+02  0.71225569468E+02  0.17770000000E+01 0. -1.
         15    1    1    2    0    0  0.36699890589E+01 -0.64982400552E+01  0.76121759520E+01  0.10807353757E+02  0.17770000000E+01 0.  1.
</event>
<event>
 6    1  0.9144256E-004  0.5001110E+03  0.7546771E-02  0.9399561E-01
        -11   -1    0    0    0    0  0.00000000000E+00  0.00000000000E+00  0.50000000000E+03  0.50000000000E+03  0.00000000000E+00 0. -1.
         11   -1    0    0    0    0 -0.00000000000E+00 -0.00000000000E+00 -0.50000000000E+03  0.50000000000E+03  0.00000000000E+00 0. -1.
        -11    1    1    2    0    0 -0.49716624916E+01 -0.98021709669E+01  0.21092229984E+03  0.21120846705E+03  0.00000000000E+00 0. -1.
         11    1    1    2    0    0  0.11682632049E+02  0.80166850442E+01 -0.49968815414E+03  0.49988899019E+03  0.00000000000E+00 0. -1.
        -15    1    1    2    0    0 -0.24314097140E+01  0.11101890029E+01  0.57670388077E+02  0.57759636969E+02  0.17770000000E+01 0. -1.
         15    1    1    2    0    0 -0.42795598438E+01  0.67529691971E+00  0.23109546622E+03  0.23114290579E+03  0.17770000000E+01 0. -1.
</event>
<event>
 6    1  0.9144256E-004  0.4834182E+03  0.7546771E-02  0.9437697E-01
        -11   -1    0    0    0    0  0.00000000000E+00  0.00000000000E+00  0.50000000000E+03  0.50000000000E+03  0.00000000000E+00 0. -1.
         11   -1    0    0    0    0 -0.00000000000E+00 -0.00000000000E+00 -0.50000000000E+03  0.50000000000E+03  0.00000000000E+00 0.  1.
        -11    1    1    2    0    0  0.12937216247E+02  0.50882779583E+01  0.47521580486E+03  0.47541910282E+03  0.00000000000E+00 0. -1.
         11    1    1    2    0    0  0.89969850971E+01  0.11278683627E+02 -0.49173389326E+03  0.49194550127E+03  0.00000000000E+00 0.  1.
        -15    1    1    2    0    0 -0.18899358246E+02 -0.12740939151E+02  0.15064454981E+02  0.27379057789E+02  0.17770000000E+01 0.  1.
         15    1    1    2    0    0 -0.30348430982E+01 -0.36260224344E+01  0.14536334157E+01  0.52563381201E+01  0.17770000000E+01 0. -1.
</event>
<event>
 6    1  0.9144256E-004  0.5010185E+03  0.7546771E-02  0.9397534E-01
        -11   -1    0    0    0    0  0.00000000000E+00  0.00000000000E+00  0.50000000000E+03  0.50000000000E+03  0.00000000000E+00 0. -1.
         11   -1    0    0    0    0 -0.00000000000E+00 -0.00000000000E+00 -0.50000000000E+03  0.50000000000E+03  0.00000000000E+00 0. -1.
        -11    1    1    2    0    0 -0.44753210641E+01  0.36055056904E+01  0.69465553317E+01  0.90156974709E+01  0.00000000000E+00 0. -1.
         11    1    1    2    0    0  0.11279744022E+02 -0.10898320416E+02 -0.49873492827E+03  0.49898149734E+03  0.00000000000E+00 0. -1.
        -15    1    1    2    0    0  0.64289805994E+00  0.52457054102E+00  0.18414196463E+02  0.18518338278E+02  0.17770000000E+01 0. -1.
         15    1    1    2    0    0 -0.74473210181E+01  0.67682441845E+01  0.47337417648E+03  0.47348446691E+03  0.17770000000E+01 0. -1.
</event>
<event>
 6    1  0.9144256E-004  0.5033686E+03  0.7546771E-02  0.9392304E-01
        -11   -1    0    0    0    0  0.00000000000E+00  0.00000000000E+00  0.50000000000E+03  0.50000000000E+03  0.00000000000E+00 0. -1.
         11   -1    0    0    0    0 -0.00000000000E+00 -0.00000000000E+00 -0.50000000000E+03  0.50000000000E+03  0.00000000000E+00 0. -1.
        -11    1    1    2    0    0  0.38555925816E+00  0.13650728534E+02  0.49644363719E+03  0.49663142868E+03  0.00000000000E+00 0. -1.
         11    1    1    2    0    0  0.69773697475E+01  0.39660455741E+00 -0.46863790899E+03  0.46869001560E+03  0.00000000000E+00 0. -1.
        -15    1    1    2    0    0 -0.10324784092E+02 -0.11862767663E+02 -0.17516881632E+02  0.23607738018E+02  0.17770000000E+01 0. -1.
         15    1    1    2    0    0  0.29618550867E+01 -0.21845654278E+01 -0.10288846573E+02  0.11070817696E+02  0.17770000000E+01 0.  1.
</event>
<event>
 6    1  0.9144256E-004  0.5011436E+03  0.7546771E-02  0.9397254E-01
        -11   -1    0    0    0    0  0.00000000000E+00  0.00000000000E+00  0.50000000000E+03  0.50000000000E+03  0.00000000000E+00 0.  1.
         11   -1    0    0    0    0 -0.00000000000E+00 -0.00000000000E+00 -0.50000000000E+03  0.50000000000E+03  0.00000000000E+00 0.  1.
        -11    1    1    2    0    0  0.12871485153E+02 -0.50519489142E+01  0.49866468182E+03  0.49885635429E+03  0.00000000000E+00 0.  1.
         11    1    1    2    0    0 -0.10809943493E+02 -0.56025445919E+01 -0.45211228097E+03  0.45227619657E+03  0.00000000000E+00 0.  1.
        -15    1    1    2    0    0 -0.22187244183E+01  0.38572461327E+01 -0.35138161676E+02  0.35463350388E+02  0.17770000000E+01 0. -1.
         15    1    1    2    0    0  0.15718275841E+00  0.67972473734E+01 -0.11414239178E+02  0.13404098749E+02  0.17770000000E+01 0.  1.
</event>
<event>
 6    1  0.9144256E-004  0.5029460E+03  0.7546771E-02  0.9393242E-01
        -11   -1    0    0    0    0  0.00000000000E+00  0.00000000000E+00  0.50000000000E+03  0.50000000000E+03  0.00000000000E+00 0. -1.
         11   -1    0    0    0    0 -0.00000000000E+00 -0.00000000000E+00 -0.50000000000E+03  0.50000000000E+03  0.00000000000E+00 0. -1.
        -11    1    1    2    0    0  0.47563221936E+01 -0.10042760304E+02  0.45190135406E+03  0.45203795575E+03  0.00000000000E+00 0. -1.
         11    1    1    2    0    0  0.14483974896E+02 -0.26210628270E+01 -0.49683603081E+03  0.49705401820E+03  0.00000000000E+00 0. -1.
        -15    1    1    2    0    0 -0.17289413562E+01  0.25191236707E+01  0.82148555457E+01  0.89429750597E+01  0.17770000000E+01 0.  1.
         15    1    1    2    0    0 -0.17511355733E+02  0.10144699460E+02  0.36719821201E+02  0.41965050992E+02  0.17770000000E+01 0. -1.
</event>
<event>
 6    1  0.9144256E-004  0.5102544E+03  0.7546771E-02  0.9377153E-01
        -11   -1    0    0    0    0  0.00000000000E+00  0.00000000000E+00  0.50000000000E+03  0.50000000000E+03  0.00000000000E+00 0. -1.
         11   -1    0    0    0    0 -0.00000000000E+00 -0.00000000000E+00 -0.50000000000E+03  0.50000000000E+03  0.00000000000E+00 0. -1.
        -11    1    1    2    0    0 -0.48209551739E+01  0.24523912966E+02  0.44682511338E+03  0.44752357017E+03  0.00000000000E+00 0. -1.
         11    1    1    2    0    0  0.77942796759E+00  0.88390717622E+01 -0.48966517881E+03  0.48974557072E+03  0.00000000000E+00 0. -1.
        -15    1    1    2    0    0 -0.46620935818E+01 -0.22707143556E+02  0.42971282487E+02  0.48857326294E+02  0.17770000000E+01 0. -1.
         15    1    1    2    0    0  0.87036207881E+01 -0.10655841172E+02 -0.13121705598E+00  0.13873532817E+02  0.17770000000E+01 0.  1.
</event>
<event>
 6    1  0.9144256E-004  0.5002366E+03  0.7546771E-02  0.9399280E-01
        -11   -1    0    0    0    0  0.00000000000E+00  0.00000000000E+00  0.50000000000E+03  0.50000000000E+03  0.00000000000E+00 0. -1.
         11   -1    0    0    0    0 -0.00000000000E+00 -0.00000000000E+00 -0.50000000000E+03  0.50000000000E+03  0.00000000000E+00 0.  1.
        -11    1    1    2    0    0 -0.80146387940E+01  0.87353496510E+00  0.37932957534E+03  0.37941523985E+03  0.00000000000E+00 0. -1.
         11    1    1    2    0    0  0.42293363856E+01  0.65831376652E+01 -0.49970210890E+03  0.49976336664E+03  0.00000000000E+00 0.  1.
        -15    1    1    2    0    0  0.16906917766E+01 -0.70693271517E+01  0.96094033971E+02  0.96384930974E+02  0.17770000000E+01 0. -1.
         15    1    1    2    0    0  0.20946106317E+01 -0.38734547866E+00  0.24278499592E+02  0.24436462544E+02  0.17770000000E+01 0.  1.
</event>
<event>
 6    1  0.9144256E-004  0.4852922E+03  0.7546771E-02  0.9433334E-01
        -11   -1    0    0    0    0  0.00000000000E+00  0.00000000000E+00  0.50000000000E+03  0.50000000000E+03  0.00000000000E+00 0.  1.
         11   -1    0    0    0    0 -0.00000000000E+00 -0.00000000000E+00 -0.50000000000E+03  0.50000000000E+03  0.00000000000E+00 0. -1.
        -11    1    1    2    0    0  0.17467559361E+02  0.72697044181E+01  0.47937646486E+03  0.47974968399E+03  0.00000000000E+00 0.  1.
         11    1    1    2    0    0  0.44074872490E+01 -0.13986646890E+02 -0.49095457922E+03  0.49117354478E+03  0.00000000000E+00 0. -1.
        -15    1    1    2    0    0 -0.19755486964E+02  0.10349894044E+01  0.62832866341E+01  0.20832375961E+02  0.17770000000E+01 0.  1.
         15    1    1    2    0    0 -0.21195596457E+01  0.56819530672E+01  0.52948277244E+01  0.82443952708E+01  0.17770000000E+01 0. -1.
</event>
<event>
 6    1  0.9144256E-004  0.5050086E+03  0.7546771E-02  0.9388672E-01
        -11   -1    0    0    0    0  0.00000000000E+00  0.00000000000E+00  0.50000000000E+03  0.50000000000E+03  0.00000000000E+00 0. -1.
         11   -1    0    0    0    0 -0.00000000000E+00 -0.00000000000E+00 -0.50000000000E+03  0.50000000000E+03  0.00000000000E+00 0. -1.
        -11    1    1    2    0    0 -0.10092400437E+02 -0.14957968721E+02  0.43583945164E+03  0.43621282074E+03  0.00000000000E+00 0. -1.
         11    1    1    2    0    0 -0.46557101438E+01 -0.91214383492E+01 -0.49488542752E+03  0.49499137633E+03  0.00000000000E+00 0. -1.
        -15    1    1    2    0    0  0.57485140157E+01 -0.20668568890E+01  0.51155774176E+01  0.81635881880E+01  0.17770000000E+01 0. -1.
         15    1    1    2    0    0  0.89995965656E+01  0.26146263959E+02  0.53930398462E+02  0.60632214743E+02  0.17770000000E+01 0.  1.
</event>
<event>
 6    1  0.9144256E-004  0.5008809E+03  0.7546771E-02  0.9397841E-01
        -11   -1    0    0    0    0  0.00000000000E+00  0.00000000000E+00  0.50000000000E+03  0.50000000000E+03  0.00000000000E+00 0. -1.
         11   -1    0    0    0    0 -0.00000000000E+00 -0.00000000000E+00 -0.50000000000E+03  0.50000000000E+03  0.00000000000E+00 0.  1.
        -11    1    1    2    0    0 -0.86580804636E+01 -0.83506031431E+00  0.49904328415E+03  0.49911908312E+03  0.00000000000E+00 0. -1.
         11    1    1    2    0    0  0.35541425189E+01  0.79060950336E+01 -0.44892666205E+03  0.44901034083E+03  0.00000000000E+00 0.  1.
        -15    1    1    2    0    0  0.61215206667E+01 -0.46620444798E+01 -0.46035849912E+02  0.46708295624E+02  0.17770000000E+01 0. -1.
         15    1    1    2    0    0 -0.10175827220E+01 -0.24089902395E+01 -0.40807721829E+01  0.51622804243E+01  0.17770000000E+01 0.  1.
</event>
<event>
 6    1  0.9144256E-004  0.5092554E+03  0.7546771E-02  0.9379335E-01
        -11   -1    0    0    0    0  0.00000000000E+00  0.00000000000E+00  0.50000000000E+03  0.50000000000E+03  0.00000000000E+00 0.  1.
         11   -1    0    0    0    0 -0.00000000000E+00 -0.00000000000E+00 -0.50000000000E+03  0.50000000000E+03  0.00000000000E+00 0. -1.
        -11    1    1    2    0    0 -0.29971365721E+02 -0.42564486603E+02  0.33110953808E+03  0.33517688538E+03  0.00000000000E+00 0.  1.
         11    1    1    2    0    0 -0.97233345846E+01 -0.70126317891E+01 -0.49059819713E+03  0.49074464976E+03  0.00000000000E+00 0. -1.
        -15    1    1    2    0    0  0.26498280008E+01  0.21927071338E+01  0.28387211043E+00  0.38817348420E+01  0.17770000000E+01 0. -1.
         15    1    1    2    0    0  0.37044872304E+02  0.47384411259E+02  0.15920478694E+03  0.17019673002E+03  0.17770000000E+01 0.  1.
</event>
<event>
 6    1  0.9144256E-004  0.5017678E+03  0.7546771E-02  0.9395863E-01
        -11   -1    0    0    0    0  0.00000000000E+00  0.00000000000E+00  0.50000000000E+03  0.50000000000E+03  0.00000000000E+00 0.  1.
         11   -1    0    0    0    0 -0.00000000000E+00 -0.00000000000E+00 -0.50000000000E+03  0.50000000000E+03  0.00000000000E+00 0.  1.
        -11    1    1    2    0    0  0.16364433073E+01  0.25264097399E+02  0.49758859168E+03  0.49823223414E+03  0.00000000000E+00 0.  1.
         11    1    1    2    0    0 -0.11793535840E+02  0.10298152704E+02 -0.28018662016E+03  0.28062373662E+03  0.00000000000E+00 0.  1.
        -15    1    1    2    0    0  0.12158230714E+02 -0.15227230766E+02 -0.90073370333E+02  0.92174079345E+02  0.17770000000E+01 0.  1.
         15    1    1    2    0    0 -0.20011381812E+01 -0.20335019336E+02 -0.12732860119E+03  0.12896994989E+03  0.17770000000E+01 0. -1.
</event>
<event>
 6    1  0.9144256E-004  0.5003602E+03  0.7546771E-02  0.9399004E-01
        -11   -1    0    0    0    0  0.00000000000E+00  0.00000000000E+00  0.50000000000E+03  0.50000000000E+03  0.00000000000E+00 0. -1.
         11   -1    0    0    0    0 -0.00000000000E+00 -0.00000000000E+00 -0.50000000000E+03  0.50000000000E+03  0.00000000000E+00 0. -1.
        -11    1    1    2    0    0 -0.29420169516E+01  0.95643233850E+01  0.49953953927E+03  0.49963975326E+03  0.00000000000E+00 0. -1.
         11    1    1    2    0    0 -0.84117255114E+01 -0.16097386472E+00 -0.30509296247E+03  0.30520894283E+03  0.00000000000E+00 0. -1.
        -15    1    1    2    0    0  0.43913289026E+00 -0.35421865406E+01 -0.54906702369E+02  0.55051281704E+02  0.17770000000E+01 0.  1.
         15    1    1    2    0    0  0.10914609573E+02 -0.58611629796E+01 -0.13953987444E+03  0.14010002220E+03  0.17770000000E+01 0. -1.
</event>
<event>
 6    1  0.9144256E-004  0.5003749E+03  0.7546771E-02  0.9398971E-01
        -11   -1    0    0    0    0  0.00000000000E+00  0.00000000000E+00  0.50000000000E+03  0.50000000000E+03  0.00000000000E+00 0. -1.
         11   -1    0    0    0    0 -0.00000000000E+00 -0.00000000000E+00 -0.50000000000E+03  0.50000000000E+03  0.00000000000E+00 0. -1.
        -11    1    1    2    0    0 -0.13315316100E+02  0.17199194440E+01  0.49944469020E+03  0.49962511379E+03  0.00000000000E+00 0. -1.
         11    1    1    2    0    0 -0.38633632289E+01 -0.18789020278E+01 -0.31442587720E+03  0.31445522432E+03  0.00000000000E+00 0. -1.
        -15    1    1    2    0    0  0.84646260357E+01  0.18008114206E+01 -0.72094282114E+02  0.72633573905E+02  0.17770000000E+01 0. -1.
         15    1    1    2    0    0  0.87140532930E+01 -0.16418288368E+01 -0.11292453088E+03  0.11328608798E+03  0.17770000000E+01 0.  1.
</event>
<event>
 6    1  0.9144256E-004  0.5005616E+03  0.7546771E-02  0.9398554E-01
        -11   -1    0    0    0    0  0.00000000000E+00  0.00000000000E+00  0.50000000000E+03  0.50000000000E+03  0.00000000000E+00 0. -1.
         11   -1    0    0    0    0 -0.00000000000E+00 -0.00000000000E+00 -0.50000000000E+03  0.50000000000E+03  0.00000000000E+00 0. -1.
        -11    1    1    2    0    0 -0.19618646037E+02 -0.34947078092E+01  0.49904066890E+03  0.49943837805E+03  0.00000000000E+00 0. -1.
         11    1    1    2    0    0 -0.28047406887E+01  0.14000057945E+01 -0.21151525093E+03  0.21153847868E+03  0.00000000000E+00 0. -1.
        -15    1    1    2    0    0  0.82191894270E+00 -0.31062972084E+01 -0.11566952068E+03  0.11572778568E+03  0.17770000000E+01 0.  1.
         15    1    1    2    0    0  0.21601467783E+02  0.52009992231E+01 -0.17185589729E+03  0.17329535760E+03  0.17770000000E+01 0. -1.
</event>
<event>
 6    1  0.9144256E-004  0.5016802E+03  0.7546771E-02  0.9396058E-01
        -11   -1    0    0    0    0  0.00000000000E+00  0.00000000000E+00  0.50000000000E+03  0.50000000000E+03  0.00000000000E+00 0.  1.
         11   -1    0    0    0    0 -0.00000000000E+00 -0.00000000000E+00 -0.50000000000E+03  0.50000000000E+03  0.00000000000E+00 0. -1.
        -11    1    1    2    0    0 -0.14326898159E+02 -0.66449325141E+01  0.49806947168E+03  0.49831979066E+03  0.00000000000E+00 0.  1.
         11    1    1    2    0    0  0.56430494192E+01  0.63737357397E+01 -0.45539769481E+03  0.45547725404E+03  0.00000000000E+00 0. -1.
        -15    1    1    2    0    0  0.94834542847E+01  0.58270071002E+01 -0.33087969771E+02  0.34955133951E+02  0.17770000000E+01 0.  1.
         15    1    1    2    0    0 -0.79960554443E+00 -0.55558103258E+01 -0.95838071058E+01  0.11247821347E+02  0.17770000000E+01 0. -1.
</event>
<event>
 6    1  0.9144256E-004  0.5029943E+03  0.7546771E-02  0.9393135E-01
        -11   -1    0    0    0    0  0.00000000000E+00  0.00000000000E+00  0.50000000000E+03  0.50000000000E+03  0.00000000000E+00 0.  1.
         11   -1    0    0    0    0 -0.00000000000E+00 -0.00000000000E+00 -0.50000000000E+03  0.50000000000E+03  0.00000000000E+00 0.  1.
        -11    1    1    2    0    0  0.55704664584E+01  0.13698223416E+02  0.49678570241E+03  0.49700573994E+03  0.00000000000E+00 0.  1.
         11    1    1    2    0    0  0.64786973335E+01 -0.59426203163E+00 -0.46655309669E+03  0.46659845553E+03  0.00000000000E+00 0.  1.
        -15    1    1    2    0    0 -0.83405760902E+01 -0.12117697951E+02 -0.27838009796E+02  0.31535952999E+02  0.17770000000E+01 0. -1.
         15    1    1    2    0    0 -0.37085877017E+01 -0.98626343319E+00 -0.23945959180E+01  0.48598515319E+01  0.17770000000E+01 0.  1.
</event>
<event>
 6    1  0.9144256E-004  0.5006538E+03  0.7546771E-02  0.9398348E-01
        -11   -1    0    0    0    0  0.00000000000E+00  0.00000000000E+00  0.50000000000E+03  0.50000000000E+03  0.00000000000E+00 0. -1.
         11   -1    0    0    0    0 -0.00000000000E+00 -0.00000000000E+00 -0.50000000000E+03  0.50000000000E+03  0.00000000000E+00 0. -1.
        -11    1    1    2    0    0  0.95394644203E+01  0.34777794214E+02  0.24433224033E+03  0.24697922993E+03  0.00000000000E+00 0. -1.
         11    1    1    2    0    0 -0.36308090880E+01 -0.38890782896E+02 -0.49781622747E+03  0.49934624470E+03  0.00000000000E+00 0. -1.
        -15    1    1    2    0    0 -0.46187362669E+01  0.32591953936E+01  0.22918506241E+03  0.22926165323E+03  0.17770000000E+01 0. -1.
         15    1    1    2    0    0 -0.12899190653E+01  0.85379328877E+00  0.24298924732E+02  0.24412872144E+02  0.17770000000E+01 0. -1.
</event>
<event>
 6    1  0.9144256E-004  0.5003298E+03  0.7546771E-02  0.9399072E-01
        -11   -1    0    0    0    0  0.00000000000E+00  0.00000000000E+00  0.50000000000E+03  0.50000000000E+03  0.00000000000E+00 0.  1.
         11   -1    0    0    0    0 -0.00000000000E+00 -0.00000000000E+00 -0.50000000000E+03  0.50000000000E+03  0.00000000000E+00 0. -1.
        -11    1    1    2    0    0  0.10880933767E+02 -0.48214926652E+01  0.23976383862E+03  0.24005903403E+03  0.00000000000E+00 0.  1.
         11    1    1    2    0    0 -0.55112341310E+01  0.22856902293E+02 -0.49911667639E+03  0.49967015954E+03  0.00000000000E+00 0. -1.
        -15    1    1    2    0    0 -0.68160149016E+01 -0.18031578145E+02  0.24083185384E+03  0.24160864103E+03  0.17770000000E+01 0.  1.
         15    1    1    2    0    0  0.14463152659E+01 -0.38314833509E-02  0.18520983935E+02  0.18662165401E+02  0.17770000000E+01 0. -1.
</event>
<event>
 6    1  0.9144256E-004  0.5004035E+03  0.7546771E-02  0.9398907E-01
        -11   -1    0    0    0    0  0.00000000000E+00  0.00000000000E+00  0.50000000000E+03  0.50000000000E+03  0.00000000000E+00 0.  1.
         11   -1    0    0    0    0 -0.00000000000E+00 -0.00000000000E+00 -0.50000000000E+03  0.50000000000E+03  0.00000000000E+00 0. -1.
        -11    1    1    2    0    0  0.54430488918E+01  0.95799162065E+00  0.17555580568E+02  0.18404970478E+02  0.00000000000E+00 0.  1.
         11    1    1    2    0    0 -0.94934713693E+01  0.44626053459E+01 -0.49948631423E+03  0.49959645610E+03  0.00000000000E+00 0. -1.
        -15    1    1    2    0    0  0.35999210641E+01 -0.30958322983E+01  0.27596244621E+03  0.27600900901E+03  0.17770000000E+01 0.  1.
         15    1    1    2    0    0  0.45050141341E+00 -0.23247646683E+01  0.20596828745E+03  0.20598956441E+03  0.17770000000E+01 0.  1.
</event>
<event>
 6    1  0.9144256E-004  0.5256704E+03  0.7546771E-02  0.9344134E-01
        -11   -1    0    0    0    0  0.00000000000E+00  0.00000000000E+00  0.50000000000E+03  0.50000000000E+03  0.00000000000E+00 0. -1.
         11   -1    0    0    0    0 -0.00000000000E+00 -0.00000000000E+00 -0.50000000000E+03  0.50000000000E+03  0.00000000000E+00 0.  1.
        -11    1    1    2    0    0  0.49590148217E+02 -0.20739885505E+02  0.23565154462E+03  0.24170431550E+03  0.00000000000E+00 0. -1.
         11    1    1    2    0    0 -0.37866912682E+02  0.17999851893E+02 -0.47247294141E+03  0.47432960914E+03  0.00000000000E+00 0.  1.
        -15    1    1    2    0    0  0.64304414265E+02  0.14130176744E+01  0.47621501462E+02  0.80050105830E+02  0.17770000000E+01 0. -1.
         15    1    1    2    0    0 -0.76027649801E+02  0.13270159378E+01  0.18919989533E+03  0.20391596953E+03  0.17770000000E+01 0.  1.
</event>
<event>
 6    1  0.9144256E-004  0.4912950E+03  0.7546771E-02  0.9419501E-01
        -11   -1    0    0    0    0  0.00000000000E+00  0.00000000000E+00  0.50000000000E+03  0.50000000000E+03  0.00000000000E+00 0.  1.
         11   -1    0    0    0    0 -0.00000000000E+00 -0.00000000000E+00 -0.50000000000E+03  0.50000000000E+03  0.00000000000E+00 0. -1.
        -11    1    1    2    0    0 -0.16268226548E+02 -0.58022006614E+01  0.49377256177E+03  0.49407455256E+03  0.00000000000E+00 0.  1.
         11    1    1    2    0    0  0.75278223238E+01  0.10713447059E+02 -0.48840571360E+03  0.48858119810E+03  0.00000000000E+00 0. -1.
        -15    1    1    2    0    0  0.10178127749E+02 -0.24755381850E+01  0.45276392595E+00  0.10634157134E+02  0.17770000000E+01 0. -1.
         15    1    1    2    0    0 -0.14377235250E+01 -0.24357082124E+01 -0.58196121014E+01  0.67100922081E+01  0.17770000000E+01 0.  1.
</event>
<event>
 6    1  0.9144256E-004  0.5035874E+03  0.7546771E-02  0.9391818E-01
        -11   -1    0    0    0    0  0.00000000000E+00  0.00000000000E+00  0.50000000000E+03  0.50000000000E+03  0.00000000000E+00 0.  1.
         11   -1    0    0    0    0 -0.00000000000E+00 -0.00000000000E+00 -0.50000000000E+03  0.50000000000E+03  0.00000000000E+00 0. -1.
        -11    1    1    2    0    0  0.11791371737E+02 -0.84925249138E+01  0.49619985934E+03  0.49641259033E+03  0.00000000000E+00 0.  1.
         11    1    1    2    0    0  0.19950124331E+01 -0.65639461546E+01 -0.46463566044E+03  0.46468630539E+03  0.00000000000E+00 0. -1.
        -15    1    1    2    0    0 -0.80888855781E+01  0.12554157326E+02 -0.27245348672E+02  0.31120791913E+02  0.17770000000E+01 0.  1.
         15    1    1    2    0    0 -0.56974985919E+01  0.25023137428E+01 -0.43188502271E+01  0.77803123688E+01  0.17770000000E+01 0. -1.
</event>
<event>
 6    1  0.9144256E-004  0.5038488E+03  0.7546771E-02  0.9391239E-01
        -11   -1    0    0    0    0  0.00000000000E+00  0.00000000000E+00  0.50000000000E+03  0.50000000000E+03  0.00000000000E+00 0.  1.
         11   -1    0    0    0    0 -0.00000000000E+00 -0.00000000000E+00 -0.50000000000E+03  0.50000000000E+03  0.00000000000E+00 0. -1.
        -11    1    1    2    0    0 -0.20233884847E+02  0.16731257176E+02  0.34191760283E+03  0.34292417848E+03  0.00000000000E+00 0.  1.
         11    1    1    2    0    0 -0.10162855961E+02 -0.13682151607E+02 -0.49585840265E+03  0.49615122734E+03  0.00000000000E+00 0. -1.
        -15    1    1    2    0    0  0.29615027908E+02 -0.15520315479E+02  0.97472891219E+02  0.10306334131E+03  0.17770000000E+01 0. -1.
         15    1    1    2    0    0  0.78171290080E+00  0.12471209911E+02  0.56467908604E+02  0.57861252862E+02  0.17770000000E+01 0.  1.
</event>
<event>
 6    1  0.9144256E-004  0.5000764E+03  0.7546771E-02  0.9399639E-01
        -11   -1    0    0    0    0  0.00000000000E+00  0.00000000000E+00  0.50000000000E+03  0.50000000000E+03  0.00000000000E+00 0. -1.
         11   -1    0    0    0    0 -0.00000000000E+00 -0.00000000000E+00 -0.50000000000E+03  0.50000000000E+03  0.00000000000E+00 0.  1.
        -11    1    1    2    0    0  0.17258630520E+01 -0.14682215596E+02  0.49970497646E+03  0.49992360372E+03  0.00000000000E+00 0. -1.
         11    1    1    2    0    0 -0.22907482093E+01  0.12379682422E+00 -0.78904903353E+02  0.78938245649E+02  0.00000000000E+00 0.  1.
        -15    1    1    2    0    0 -0.35744594182E+01  0.61777649955E+01 -0.18070066036E+03  0.18085029147E+03  0.17770000000E+01 0. -1.
         15    1    1    2    0    0  0.41393445755E+01  0.83806537763E+01 -0.24009941274E+03  0.24028785916E+03  0.17770000000E+01 0.  1.
</event>
<event>
 6    1  0.9144256E-004  0.5023572E+03  0.7546771E-02  0.9394551E-01
        -11   -1    0    0    0    0  0.00000000000E+00  0.00000000000E+00  0.50000000000E+03  0.50000000000E+03  0.00000000000E+00 0. -1.
         11   -1    0    0    0    0 -0.00000000000E+00 -0.00000000000E+00 -0.50000000000E+03  0.50000000000E+03  0.00000000000E+00 0.  1.
        -11    1    1    2    0    0 -0.20650425299E+02 -0.66429445094E+02  0.23092434880E+03  0.24117496991E+03  0.00000000000E+00 0. -1.
         11    1    1    2    0    0  0.24451519790E+02  0.70726788198E+02 -0.49198396931E+03  0.49764282517E+03  0.00000000000E+00 0.  1.
        -15    1    1    2    0    0 -0.15432115967E+01 -0.18525559859E+01  0.18913128739E+03  0.18915500275E+03  0.17770000000E+01 0. -1.
         15    1    1    2    0    0 -0.22578828937E+01 -0.24447871177E+01  0.71928333115E+02  0.72027202174E+02  0.17770000000E+01 0. -1.
</event>
<event>
 6    1  0.9144256E-004  0.5114942E+03  0.7546771E-02  0.9374452E-01
        -11   -1    0    0    0    0  0.00000000000E+00  0.00000000000E+00  0.50000000000E+03  0.50000000000E+03  0.00000000000E+00 0. -1.
         11   -1    0    0    0    0 -0.00000000000E+00 -0.00000000000E+00 -0.50000000000E+03  0.50000000000E+03  0.00000000000E+00 0. -1.
        -11    1    1    2    0    0 -0.62962104980E+01  0.15451404853E+02  0.48822073574E+03  0.48850575738E+03  0.00000000000E+00 0. -1.
         11    1    1    2    0    0 -0.54458182307E+01 -0.50823483459E+01 -0.47171749847E+03  0.47177630882E+03  0.00000000000E+00 0. -1.
        -15    1    1    2    0    0 -0.63078894675E+01 -0.92925811788E+01 -0.18210200145E+02  0.21468829796E+02  0.17770000000E+01 0. -1.
         15    1    1    2    0    0  0.18049918196E+02 -0.10764753287E+01  0.17069628667E+01  0.18249104012E+02  0.17770000000E+01 0.  1.
</event>
<event>
 6    1  0.9144256E-004  0.5026732E+03  0.7546771E-02  0.9393848E-01
        -11   -1    0    0    0    0  0.00000000000E+00  0.00000000000E+00  0.50000000000E+03  0.50000000000E+03  0.00000000000E+00 0. -1.
         11   -1    0    0    0    0 -0.00000000000E+00 -0.00000000000E+00 -0.50000000000E+03  0.50000000000E+03  0.00000000000E+00 0. -1.
        -11    1    1    2    0    0  0.68531744319E+01 -0.16801121584E+01  0.49727673870E+03  0.49732679762E+03  0.00000000000E+00 0. -1.
         11    1    1    2    0    0 -0.34558123828E+01 -0.59205823548E+01 -0.49086169573E+03  0.49090956425E+03  0.00000000000E+00 0. -1.
        -15    1    1    2    0    0 -0.37334214102E+01  0.51253723754E+01 -0.54551552311E+01  0.85512762210E+01  0.17770000000E+01 0.  1.
         15    1    1    2    0    0  0.33605936113E+00  0.24753221378E+01 -0.95988773936E+00  0.32123619118E+01  0.17770000000E+01 0. -1.
</event>
<event>
 6    1  0.9144256E-004  0.4271982E+03  0.7546771E-02  0.9579285E-01
        -11   -1    0    0    0    0  0.00000000000E+00  0.00000000000E+00  0.50000000000E+03  0.50000000000E+03  0.00000000000E+00 0.  1.
         11   -1    0    0    0    0 -0.00000000000E+00 -0.00000000000E+00 -0.50000000000E+03  0.50000000000E+03  0.00000000000E+00 0. -1.
        -11    1    1    2    0    0  0.62635951011E+01 -0.79526512618E+02  0.41796059443E+03  0.42550529648E+03  0.00000000000E+00 0.  1.
         11    1    1    2    0    0 -0.35276327613E+01  0.85861539417E+01 -0.43184826958E+03  0.43194802253E+03  0.00000000000E+00 0. -1.
        -15    1    1    2    0    0  0.13873373430E+01 -0.22090862778E+01 -0.47098132320E+02  0.47203777011E+02  0.17770000000E+01 0.  1.
         15    1    1    2    0    0 -0.41232996829E+01  0.73149444954E+02  0.60985807466E+02  0.95342903976E+02  0.17770000000E+01 0. -1.
</event>
<event>
 6    1  0.9144256E-004  0.4887080E+03  0.7546771E-02  0.9425437E-01
        -11   -1    0    0    0    0  0.00000000000E+00  0.00000000000E+00  0.50000000000E+03  0.50000000000E+03  0.00000000000E+00 0. -1.
         11   -1    0    0    0    0 -0.00000000000E+00 -0.00000000000E+00 -0.50000000000E+03  0.50000000000E+03  0.00000000000E+00 0. -1.
        -11    1    1    2    0    0 -0.18306818037E+02  0.52694959672E+00  0.48798108232E+03  0.48832463993E+03  0.00000000000E+00 0. -1.
         11    1    1    2    0    0  0.38173498562E+01 -0.10921666481E+02 -0.48911789551E+03  0.48925470939E+03  0.00000000000E+00 0. -1.
        -15    1    1    2    0    0  0.76749251757E+01  0.12539481221E+02 -0.72687103740E+00  0.14826636040E+02  0.17770000000E+01 0.  1.
         15    1    1    2    0    0  0.68145430047E+01 -0.21447643363E+01  0.18636842234E+01  0.75940146369E+01  0.17770000000E+01 0. -1.
</event>
<event>
 6    1  0.9144256E-004  0.5001365E+03  0.7546771E-02  0.9399504E-01
        -11   -1    0    0    0    0  0.00000000000E+00  0.00000000000E+00  0.50000000000E+03  0.50000000000E+03  0.00000000000E+00 0.  1.
         11   -1    0    0    0    0 -0.00000000000E+00 -0.00000000000E+00 -0.50000000000E+03  0.50000000000E+03  0.00000000000E+00 0.  1.
        -11    1    1    2    0    0 -0.27019140057E+01 -0.52162008777E+01  0.21257293264E+03  0.21265408715E+03  0.00000000000E+00 0.  1.
         11    1    1    2    0    0  0.78846040190E+01 -0.21844763779E+01 -0.49979654410E+03  0.49986350578E+03  0.00000000000E+00 0.  1.
        -15    1    1    2    0    0 -0.41064997243E+01  0.36136712674E+01  0.23804463585E+03  0.23811410782E+03  0.17770000000E+01 0.  1.
         15    1    1    2    0    0 -0.10761902890E+01  0.37870059883E+01  0.49178975611E+02  0.49368299252E+02  0.17770000000E+01 0. -1.
</event>
<event>
 6    1  0.9144256E-004  0.5095982E+03  0.7546771E-02  0.9378585E-01
        -11   -1    0    0    0    0  0.00000000000E+00  0.00000000000E+00  0.50000000000E+03  0.50000000000E+03  0.00000000000E+00 0. -1.
         11   -1    0    0    0    0 -0.00000000000E+00 -0.00000000000E+00 -0.50000000000E+03  0.50000000000E+03  0.00000000000E+00 0.  1.
        -11    1    1    2    0    0  0.14799262549E+02  0.12380536735E+02  0.49002208395E+03  0.49040181343E+03  0.00000000000E+00 0. -1.
         11    1    1    2    0    0 -0.14696188474E+00  0.20085946698E+02 -0.46486348497E+03  0.46529724533E+03  0.00000000000E+00 0.  1.
        -15    1    1    2    0    0 -0.26265046687E+01 -0.40576518788E+01 -0.61521054484E+01  0.80230415674E+01  0.17770000000E+01 0. -1.
         15    1    1    2    0    0 -0.12025795996E+02 -0.28408831554E+02 -0.19006493530E+02  0.36277899676E+02  0.17770000000E+01 0.  1.
</event>
<event>
 6    1  0.9144256E-004  0.5033388E+03  0.7546771E-02  0.9392370E-01
        -11   -1    0    0    0    0  0.00000000000E+00  0.00000000000E+00  0.50000000000E+03  0.50000000000E+03  0.00000000000E+00 0.  1.
         11   -1    0    0    0    0 -0.00000000000E+00 -0.00000000000E+00 -0.50000000000E+03  0.50000000000E+03  0.00000000000E+00 0. -1.
        -11    1    1    2    0    0  0.21927214225E+02  0.76834057747E+01  0.49611740674E+03  0.49666117094E+03  0.00000000000E+00 0.  1.
         11    1    1    2    0    0 -0.62783730944E+01 -0.57743201512E+01 -0.45212107910E+03  0.45220153793E+03  0.00000000000E+00 0. -1.
        -15    1    1    2    0    0 -0.18416854047E+02 -0.21684708783E+01 -0.21705814980E+02  0.28603896795E+02  0.17770000000E+01 0.  1.
         15    1    1    2    0    0  0.27680129160E+01  0.25938525480E+00 -0.22290512661E+02  0.22533394328E+02  0.17770000000E+01 0. -1.
</event>
<event>
 6    1  0.9144256E-004  0.4901269E+03  0.7546771E-02  0.9422177E-01
        -11   -1    0    0    0    0  0.00000000000E+00  0.00000000000E+00  0.50000000000E+03  0.50000000000E+03  0.00000000000E+00 0.  1.
         11   -1    0    0    0    0 -0.00000000000E+00 -0.00000000000E+00 -0.50000000000E+03  0.50000000000E+03  0.00000000000E+00 0. -1.
        -11    1    1    2    0    0  0.80788805745E+01  0.95128892374E+01  0.49153711071E+03  0.49169553036E+03  0.00000000000E+00 0.  1.
         11    1    1    2    0    0  0.72948420580E+01 -0.86217122910E-01 -0.48867393413E+03  0.48872838679E+03  0.00000000000E+00 0. -1.
        -15    1    1    2    0    0 -0.12337051141E+02 -0.91815604864E+01 -0.37720721884E+01  0.15933930508E+02  0.17770000000E+01 0.  1.
         15    1    1    2    0    0 -0.30366714913E+01 -0.24511162815E+00  0.90889561088E+00  0.36421523428E+01  0.17770000000E+01 0. -1.
</event>
<event>
 6    1  0.9144256E-004  0.5002534E+03  0.7546771E-02  0.9399243E-01
        -11   -1    0    0    0    0  0.00000000000E+00  0.00000000000E+00  0.50000000000E+03  0.50000000000E+03  0.00000000000E+00 0. -1.
         11   -1    0    0    0    0 -0.00000000000E+00 -0.00000000000E+00 -0.50000000000E+03  0.50000000000E+03  0.00000000000E+00 0.  1.
        -11    1    1    2    0    0  0.66229142041E+01  0.28174172883E+01  0.44924454438E+03  0.44930219395E+03  0.00000000000E+00 0. -1.
         11    1    1    2    0    0 -0.26478265110E+01 -0.63277626002E+01 -0.49969953671E+03  0.49974661435E+03  0.00000000000E+00 0.  1.
        -15    1    1    2    0    0 -0.13181499906E+01  0.30566139755E+01  0.23069410055E+02  0.23375966668E+02  0.17770000000E+01 0. -1.
         15    1    1    2    0    0 -0.26569377025E+01  0.45373133636E+00  0.27385582276E+02  0.27575225034E+02  0.17770000000E+01 0.  1.
</event>
<event>
 6    1  0.9144256E-004  0.4812207E+03  0.7546771E-02  0.9442839E-01
        -11   -1    0    0    0    0  0.00000000000E+00  0.00000000000E+00  0.50000000000E+03  0.50000000000E+03  0.00000000000E+00 0.  1.
         11   -1    0    0    0    0 -0.00000000000E+00 -0.00000000000E+00 -0.50000000000E+03  0.50000000000E+03  0.00000000000E+00 0. -1.
        -11    1    1    2    0    0  0.12273236324E+02 -0.17250388991E+02  0.48747391175E+03  0.48793342055E+03  0.00000000000E+00 0.  1.
         11    1    1    2    0    0  0.31134040015E+01 -0.90584289566E+01 -0.47497496106E+03  0.47507153362E+03  0.00000000000E+00 0. -1.
        -15    1    1    2    0    0 -0.19157262290E+01  0.27335656790E+01 -0.87438981619E+01  0.95265876562E+01  0.17770000000E+01 0.  1.
         15    1    1    2    0    0 -0.13470914097E+02  0.23575252268E+02 -0.37550525321E+01  0.27468458177E+02  0.17770000000E+01 0. -1.
</event>
<event>
 6    1  0.9144256E-004  0.5013857E+03  0.7546771E-02  0.9396714E-01
        -11   -1    0    0    0    0  0.00000000000E+00  0.00000000000E+00  0.50000000000E+03  0.50000000000E+03  0.00000000000E+00 0. -1.
         11   -1    0    0    0    0 -0.00000000000E+00 -0.00000000000E+00 -0.50000000000E+03  0.50000000000E+03  0.00000000000E+00 0.  1.
        -11    1    1    2    0    0  0.27567667637E+02  0.10948312470E+02  0.37989927251E+03  0.38105550659E+03  0.00000000000E+00 0. -1.
         11    1    1    2    0    0 -0.11703905690E+02 -0.88386921863E-01 -0.49847687163E+03  0.49861426049E+03  0.00000000000E+00 0.  1.
        -15    1    1    2    0    0 -0.68824083456E+01 -0.17305594429E+01  0.34783198356E+02  0.35544211871E+02  0.17770000000E+01 0.  1.
         15    1    1    2    0    0 -0.89813536016E+01 -0.91293661053E+01  0.83794400758E+02  0.84786021049E+02  0.17770000000E+01 0.  1.
</event>
<event>
 6    1  0.9144256E-004  0.4685179E+03  0.7546771E-02  0.9473147E-01
        -11   -1    0    0    0    0  0.00000000000E+00  0.00000000000E+00  0.50000000000E+03  0.50000000000E+03  0.00000000000E+00 0. -1.
         11   -1    0    0    0    0 -0.00000000000E+00 -0.00000000000E+00 -0.50000000000E+03  0.50000000000E+03  0.00000000000E+00 0. -1.
        -11    1    1    2    0    0 -0.61658609813E+01  0.28745305385E+02  0.47989673284E+03  0.48079640661E+03  0.00000000000E+00 0. -1.
         11    1    1    2    0    0 -0.13737103918E+02  0.14197251920E+02 -0.45728004355E+03  0.45770657437E+03  0.00000000000E+00 0. -1.
        -15    1    1    2    0    0  0.40213854163E+01 -0.77717784723E+01 -0.21014279413E+02  0.22832646574E+02  0.17770000000E+01 0.  1.
         15    1    1    2    0    0  0.15881579483E+02 -0.35170778833E+02 -0.16024098688E+01  0.38664372450E+02  0.17770000000E+01 0. -1.
</event>
<event>
 6    1  0.9144256E-004  0.5000317E+03  0.7546771E-02  0.9399739E-01
        -11   -1    0    0    0    0  0.00000000000E+00  0.00000000000E+00  0.50000000000E+03  0.50000000000E+03  0.00000000000E+00 0. -1.
         11   -1    0    0    0    0 -0.00000000000E+00 -0.00000000000E+00 -0.50000000000E+03  0.50000000000E+03  0.00000000000E+00 0. -1.
        -11    1    1    2    0    0 -0.17947759421E+01 -0.28743910388E+00  0.13056399380E+03  0.13057664538E+03  0.00000000000E+00 0. -1.
         11    1    1    2    0    0 -0.13851026694E+01  0.70637145250E+01 -0.49991643163E+03  0.49996825218E+03  0.00000000000E+00 0. -1.
        -15    1    1    2    0    0  0.12315571928E+01 -0.39048244426E+01  0.24770314425E+03  0.24774335468E+03  0.17770000000E+01 0.  1.
         15    1    1    2    0    0  0.19483214186E+01 -0.28714509786E+01  0.12164929358E+03  0.12171174776E+03  0.17770000000E+01 0. -1.
</event>
<event>
 6    1  0.9144256E-004  0.5087855E+03  0.7546771E-02  0.9380363E-01
        -11   -1    0    0    0    0  0.00000000000E+00  0.00000000000E+00  0.50000000000E+03  0.50000000000E+03  0.00000000000E+00 0. -1.
         11   -1    0    0    0    0 -0.00000000000E+00 -0.00000000000E+00 -0.50000000000E+03  0.50000000000E+03  0.00000000000E+00 0. -1.
        -11    1    1    2    0    0 -0.11364545727E+02 -0.21393983481E+02  0.40257491452E+03  0.40330313318E+03  0.00000000000E+00 0. -1.
         11    1    1    2    0    0 -0.11931245469E+02 -0.65545214285E+01 -0.49102578734E+03  0.49121445439E+03  0.00000000000E+00 0. -1.
        -15    1    1    2    0    0  0.12160432843E+02  0.21856112379E+02  0.89186741755E+02  0.92644473172E+02  0.17770000000E+01 0. -1.
         15    1    1    2    0    0  0.11135358353E+02  0.60923925300E+01 -0.73586893705E+00  0.12837939261E+02  0.17770000000E+01 0.  1.
</event>
<event>
 6    1  0.9144256E-004  0.5173593E+03  0.7546771E-02  0.9361783E-01
        -11   -1    0    0    0    0  0.00000000000E+00  0.00000000000E+00  0.50000000000E+03  0.50000000000E+03  0.00000000000E+00 0.  1.
         11   -1    0    0    0    0 -0.00000000000E+00 -0.00000000000E+00 -0.50000000000E+03  0.50000000000E+03  0.00000000000E+00 0. -1.
        -11    1    1    2    0    0 -0.35093171122E+02 -0.51544826086E+02  0.47859550303E+03  0.48264071034E+03  0.00000000000E+00 0.  1.
         11    1    1    2    0    0 -0.49366698552E+01  0.31569902456E+01 -0.43460266673E+03  0.43464216918E+03  0.00000000000E+00 0. -1.
        -15    1    1    2    0    0  0.35018711844E+02  0.51198924032E+02 -0.44953706003E+02  0.76626584249E+02  0.17770000000E+01 0.  1.
         15    1    1    2    0    0  0.50111291331E+01 -0.28110881915E+01  0.96086970857E+00  0.60905362331E+01  0.17770000000E+01 0. -1.
</event>
<event>
 6    1  0.9144256E-004  0.4813887E+03  0.7546771E-02  0.9442445E-01
        -11   -1    0    0    0    0  0.00000000000E+00  0.00000000000E+00  0.50000000000E+03  0.50000000000E+03  0.00000000000E+00 0.  1.
         11   -1    0    0    0    0 -0.00000000000E+00 -0.00000000000E+00 -0.50000000000E+03  0.50000000000E+03  0.00000000000E+00 0. -1.
        -11    1    1    2    0    0  0.10875684369E+02 -0.17037572385E+02  0.48011446918E+03  0.48053976204E+03  0.00000000000E+00 0.  1.
         11    1    1    2    0    0  0.55409990948E+01 -0.14615370422E+02 -0.48264808163E+03  0.48290111040E+03  0.00000000000E+00 0. -1.
        -15    1    1    2    0    0 -0.16527818962E+01  0.93907864526E+01  0.64806542458E+00  0.97209195033E+01  0.17770000000E+01 0. -1.
         15    1    1    2    0    0 -0.14763901568E+02  0.22262156354E+02  0.18855470232E+01  0.26838208055E+02  0.17770000000E+01 0.  1.
</event>
<event>
 6    1  0.9144256E-004  0.5033619E+03  0.7546771E-02  0.9392318E-01
        -11   -1    0    0    0    0  0.00000000000E+00  0.00000000000E+00  0.50000000000E+03  0.50000000000E+03  0.00000000000E+00 0.  1.
         11   -1    0    0    0    0 -0.00000000000E+00 -0.00000000000E+00 -0.50000000000E+03  0.50000000000E+03  0.00000000000E+00 0.  1.
        -11    1    1    2    0    0 -0.18859469759E+02 -0.11109036900E+01  0.25524243059E+03  0.25594064171E+03  0.00000000000E+00 0.  1.
         11    1    1    2    0    0  0.15346747023E+01  0.88124857081E+01 -0.49655752972E+03  0.49663809303E+03  0.00000000000E+00 0.  1.
        -15    1    1    2    0    0  0.13073197243E+02 -0.91587999313E+01  0.18277844581E+02  0.24331654976E+02  0.17770000000E+01 0. -1.
         15    1    1    2    0    0  0.42515978133E+01  0.14572179132E+01  0.22303725455E+03  0.22308961028E+03  0.17770000000E+01 0.  1.
</event>
<event>
 6    1  0.9144256E-004  0.5001697E+03  0.7546771E-02  0.9399430E-01
        -11   -1    0    0    0    0  0.00000000000E+00  0.00000000000E+00  0.50000000000E+03  0.50000000000E+03  0.00000000000E+00 0.  1.
         11   -1    0    0    0    0 -0.00000000000E+00 -0.00000000000E+00 -0.50000000000E+03  0.50000000000E+03  0.00000000000E+00 0. -1.
        -11    1    1    2    0    0  0.18213492335E+01  0.12653013606E+01  0.97661355739E+01  0.10014774317E+02  0.00000000000E+00 0.  1.
         11    1    1    2    0    0 -0.60423679052E+01 -0.88800678024E+01 -0.49971490794E+03  0.49983032624E+03  0.00000000000E+00 0. -1.
        -15    1    1    2    0    0  0.52168465734E+01  0.71039070904E+00  0.32698516356E+03  0.32703237617E+03  0.17770000000E+01 0.  1.
         15    1    1    2    0    0 -0.99582790176E+00  0.69043757327E+01  0.16296360880E+03  0.16312252328E+03  0.17770000000E+01 0. -1.
</event>
<event>
 6    1  0.9144256E-004  0.5016049E+03  0.7546771E-02  0.9396226E-01
        -11   -1    0    0    0    0  0.00000000000E+00  0.00000000000E+00  0.50000000000E+03  0.50000000000E+03  0.00000000000E+00 0.  1.
         11   -1    0    0    0    0 -0.00000000000E+00 -0.00000000000E+00 -0.50000000000E+03  0.50000000000E+03  0.00000000000E+00 0.  1.
        -11    1    1    2    0    0  0.30461639001E+01  0.92802501595E+01  0.49829937659E+03  0.49839509515E+03  0.00000000000E+00 0.  1.
         11    1    1    2    0    0 -0.63351477969E+01 -0.20808842974E+00 -0.45610782964E+03  0.45615187126E+03  0.00000000000E+00 0.  1.
        -15    1    1    2    0    0  0.93580446417E-01  0.33985659473E+01 -0.11518179600E+02  0.12140230562E+02  0.17770000000E+01 0.  1.
         15    1    1    2    0    0  0.31954034503E+01 -0.12470727677E+02 -0.30673367349E+02  0.33312803027E+02  0.17770000000E+01 0. -1.
</event>
<event>
 6    1  0.9144256E-004  0.5044753E+03  0.7546771E-02  0.9389851E-01
        -11   -1    0    0    0    0  0.00000000000E+00  0.00000000000E+00  0.50000000000E+03  0.50000000000E+03  0.00000000000E+00 0.  1.
         11   -1    0    0    0    0 -0.00000000000E+00 -0.00000000000E+00 -0.50000000000E+03  0.50000000000E+03  0.00000000000E+00 0. -1.
        -11    1    1    2    0    0  0.98821993780E+01  0.89406948356E+01  0.49534547864E+03  0.49552470887E+03  0.00000000000E+00 0.  1.
         11    1    1    2    0    0  0.35964373605E+01  0.67737379719E+01 -0.47444009928E+03  0.47450208186E+03  0.00000000000E+00 0. -1.
        -15    1    1    2    0    0 -0.13415602774E+01 -0.32205851870E+01 -0.30244818740E+01  0.49474410083E+01  0.17770000000E+01 0. -1.
         15    1    1    2    0    0 -0.12137076461E+02 -0.12493847620E+02 -0.17880897487E+02  0.25025768267E+02  0.17770000000E+01 0.  1.
</event>
<event>
 6    1  0.9144256E-004  0.5037075E+03  0.7546771E-02  0.9391552E-01
        -11   -1    0    0    0    0  0.00000000000E+00  0.00000000000E+00  0.50000000000E+03  0.50000000000E+03  0.00000000000E+00 0. -1.
         11   -1    0    0    0    0 -0.00000000000E+00 -0.00000000000E+00 -0.50000000000E+03  0.50000000000E+03  0.00000000000E+00 0.  1.
        -11    1    1    2    0    0  0.23198382021E+02 -0.68229860085E+01  0.47587006084E+03  0.47648403213E+03  0.00000000000E+00 0. -1.
         11    1    1    2    0    0 -0.11844568920E+02  0.19774535515E+02 -0.49575687552E+03  0.49629245984E+03  0.00000000000E+00 0.  1.
        -15    1    1    2    0    0 -0.71877432719E-02 -0.23448254956E+01  0.35689996341E+01  0.46253373560E+01  0.17770000000E+01 0.  1.
         15    1    1    2    0    0 -0.11346625358E+02 -0.10606724011E+02  0.16317815041E+02  0.22598170678E+02  0.17770000000E+01 0. -1.
</event>
<event>
 6    1  0.9144256E-004  0.5004772E+03  0.7546771E-02  0.9398743E-01
        -11   -1    0    0    0    0  0.00000000000E+00  0.00000000000E+00  0.50000000000E+03  0.50000000000E+03  0.00000000000E+00 0.  1.
         11   -1    0    0    0    0 -0.00000000000E+00 -0.00000000000E+00 -0.50000000000E+03  0.50000000000E+03  0.00000000000E+00 0.  1.
        -11    1    1    2    0    0  0.83878258804E+01  0.19073781150E+01  0.26397779279E+03  0.26411790701E+03  0.00000000000E+00 0.  1.
         11    1    1    2    0    0  0.48539803415E+01  0.46702862885E+01 -0.49947741028E+03  0.49952282838E+03  0.00000000000E+00 0.  1.
        -15    1    1    2    0    0 -0.93433179737E+01 -0.46074075452E+01  0.21735827841E+03  0.21761503790E+03  0.17770000000E+01 0. -1.
         15    1    1    2    0    0 -0.38984882482E+01 -0.19702568583E+01  0.18141339074E+02  0.18744226714E+02  0.17770000000E+01 0.  1.
</event>
<event>
 6    1  0.9144256E-004  0.5003871E+03  0.7546771E-02  0.9398944E-01
        -11   -1    0    0    0    0  0.00000000000E+00  0.00000000000E+00  0.50000000000E+03  0.50000000000E+03  0.00000000000E+00 0. -1.
         11   -1    0    0    0    0 -0.00000000000E+00 -0.00000000000E+00 -0.50000000000E+03  0.50000000000E+03  0.00000000000E+00 0.  1.
        -11    1    1    2    0    0  0.22839965850E+01 -0.28954484538E+02  0.49876795521E+03  0.49961290211E+03  0.00000000000E+00 0. -1.
         11    1    1    2    0    0 -0.12199046829E+02  0.17527172585E+02 -0.19845650177E+03  0.19960210825E+03  0.00000000000E+00 0.  1.
        -15    1    1    2    0    0  0.45425534444E+01  0.21952340500E+01 -0.14377162653E+03  0.14387109566E+03  0.17770000000E+01 0.  1.
         15    1    1    2    0    0  0.53724967994E+01  0.92320779025E+01 -0.15653982691E+03  0.15691389398E+03  0.17770000000E+01 0.  1.
</event>
<event>
 6    1  0.9144256E-004  0.5028800E+03  0.7546771E-02  0.9393389E-01
        -11   -1    0    0    0    0  0.00000000000E+00  0.00000000000E+00  0.50000000000E+03  0.50000000000E+03  0.00000000000E+00 0. -1.
         11   -1    0    0    0    0 -0.00000000000E+00 -0.00000000000E+00 -0.50000000000E+03  0.50000000000E+03  0.00000000000E+00 0.  1.
        -11    1    1    2    0    0 -0.41514812334E+02  0.84501174316E+01  0.49531146118E+03  0.49712003349E+03  0.00000000000E+00 0. -1.
         11    1    1    2    0    0 -0.72521888552E+01  0.48642123878E+00 -0.32257489794E+03  0.32265677683E+03  0.00000000000E+00 0.  1.
        -15    1    1    2    0    0  0.67109238006E+01 -0.13634435845E+01 -0.44074546364E+02  0.44638759424E+02  0.17770000000E+01 0. -1.
         15    1    1    2    0    0  0.42056077389E+02 -0.75730950858E+01 -0.12866201687E+03  0.13558443026E+03  0.17770000000E+01 0.  1.
</event>
<event>
 6    1  0.9144256E-004  0.5039051E+03  0.7546771E-02  0.9391114E-01
        -11   -1    0    0    0    0  0.00000000000E+00  0.00000000000E+00  0.50000000000E+03  0.50000000000E+03  0.00000000000E+00 0.  1.
         11   -1    0    0    0    0 -0.00000000000E+00 -0.00000000000E+00 -0.50000000000E+03  0.50000000000E+03  0.00000000000E+00 0.  1.
        -11    1    1    2    0    0  0.10482465527E+02 -0.85586221395E+01  0.46594447700E+03  0.46614095266E+03  0.00000000000E+00 0.  1.
         11    1    1    2    0    0 -0.46825506097E+01 -0.11159278091E+02 -0.49594729322E+03  0.49609492380E+03  0.00000000000E+00 0.  1.
        -15    1    1    2    0    0 -0.70762741324E+01  0.84164273518E+01  0.17722314239E+02  0.20931986431E+02  0.17770000000E+01 0.  1.
         15    1    1    2    0    0  0.12763592152E+01  0.11301472879E+02  0.12280501976E+02  0.16832137115E+02  0.17770000000E+01 0.  1.
</event>
<event>
 6    1  0.9144256E-004  0.5032686E+03  0.7546771E-02  0.9392526E-01
        -11   -1    0    0    0    0  0.00000000000E+00  0.00000000000E+00  0.50000000000E+03  0.50000000000E+03  0.00000000000E+00 0. -1.
         11   -1    0    0    0    0 -0.00000000000E+00 -0.00000000000E+00 -0.50000000000E+03  0.50000000000E+03  0.00000000000E+00 0. -1.
        -11    1    1    2    0    0  0.27390562481E+01  0.66355436053E+01  0.49667951253E+03  0.49673138720E+03  0.00000000000E+00 0. -1.
         11    1    1    2    0    0  0.80330035328E+01 -0.60355373494E+01 -0.48741671052E+03  0.48752026271E+03  0.00000000000E+00 0. -1.
        -15    1    1    2    0    0 -0.40065859909E+01  0.83692789851E+00 -0.69179748736E+01  0.82322102112E+01  0.17770000000E+01 0.  1.
         15    1    1    2    0    0 -0.67654737900E+01 -0.14369341544E+01 -0.23448271320E+01  0.75161398767E+01  0.17770000000E+01 0. -1.
</event>
<event>
 6    1  0.9144256E-004  0.5098660E+03  0.7546771E-02  0.9378000E-01
        -11   -1    0    0    0    0  0.00000000000E+00  0.00000000000E+00  0.50000000000E+03  0.50000000000E+03  0.00000000000E+00 0.  1.
         11   -1    0    0    0    0 -0.00000000000E+00 -0.00000000000E+00 -0.50000000000E+03  0.50000000000E+03  0.00000000000E+00 0.  1.
        -11    1    1    2    0    0  0.54695511472E+02  0.15578930791E+02  0.36502307499E+03  0.36942678211E+03  0.00000000000E+00 0.  1.
         11    1    1    2    0    0  0.42294123215E+01  0.52923421499E+01 -0.49008719252E+03  0.49013401543E+03  0.00000000000E+00 0.  1.
        -15    1    1    2    0    0 -0.47512875451E+02 -0.11680447550E+02  0.91570301698E+02  0.10383729614E+03  0.17770000000E+01 0. -1.
         15    1    1    2    0    0 -0.11412048342E+02 -0.91908253909E+01  0.33493815824E+02  0.36601906319E+02  0.17770000000E+01 0.  1.
</event>
<event>
 6    1  0.9144256E-004  0.5003253E+03  0.7546771E-02  0.9399082E-01
        -11   -1    0    0    0    0  0.00000000000E+00  0.00000000000E+00  0.50000000000E+03  0.50000000000E+03  0.00000000000E+00 0. -1.
         11   -1    0    0    0    0 -0.00000000000E+00 -0.00000000000E+00 -0.50000000000E+03  0.50000000000E+03  0.00000000000E+00 0.  1.
        -11    1    1    2    0    0 -0.12868663267E+02 -0.35515896075E+01  0.49949635226E+03  0.49967471640E+03  0.00000000000E+00 0. -1.
         11    1    1    2    0    0 -0.32392895676E+01  0.25789906384E+01 -0.26010288441E+03  0.26013583887E+03  0.00000000000E+00 0.  1.
        -15    1    1    2    0    0  0.10646892396E+02  0.83315433105E+00 -0.84665993479E+02  0.85355366817E+02  0.17770000000E+01 0. -1.
         15    1    1    2    0    0  0.54610604384E+01  0.13944463800E+00 -0.15472747438E+03  0.15483407791E+03  0.17770000000E+01 0.  1.
</event>
<event>
 6    1  0.1111914E-003  0.5002551E+03  0.7546771E-02  0.9399239E-01
        -11   -1    0    0    0    0  0.00000000000E+00  0.00000000000E+00  0.50000000000E+03  0.50000000000E+03  0.00000000000E+00 0.  1.
         11   -1    0    0    0    0 -0.00000000000E+00 -0.00000000000E+00 -0.50000000000E+03  0.50000000000E+03  0.00000000000E+00 0.  1.
        -11    1    1    2    0    0  0.12587820360E+01 -0.10203864038E+02  0.49963909883E+03  0.49974486736E+03  0.00000000000E+00 0.  1.
         11    1    1    2    0    0 -0.21595733531E+01  0.36884005668E+01 -0.24432721014E+03  0.24436459169E+03  0.00000000000E+00 0.  1.
        -15    1    1    2    0    0 -0.15765310297E+01  0.67258057487E+01 -0.45443689036E+02  0.46000092558E+02  0.17770000000E+01 0.  1.
         15    1    1    2    0    0  0.24773223468E+01 -0.21034227722E+00 -0.20986819965E+03  0.20989044839E+03  0.17770000000E+01 0.  1.
</event>
<event>
 6    1  0.9144256E-004  0.5003922E+03  0.7546771E-02  0.9398932E-01
        -11   -1    0    0    0    0  0.00000000000E+00  0.00000000000E+00  0.50000000000E+03  0.50000000000E+03  0.00000000000E+00 0.  1.
         11   -1    0    0    0    0 -0.00000000000E+00 -0.00000000000E+00 -0.50000000000E+03  0.50000000000E+03  0.00000000000E+00 0.  1.
        -11    1    1    2    0    0 -0.13171188391E+02 -0.90878604736E+00  0.49943329459E+03  0.49960776800E+03  0.00000000000E+00 0.  1.
         11    1    1    2    0    0 -0.76132587513E+01 -0.54426372263E+00 -0.20209367567E+03  0.20223776026E+03  0.00000000000E+00 0.  1.
        -15    1    1    2    0    0  0.30973605167E+01  0.19193058565E+01 -0.41468729418E+02  0.41666420841E+02  0.17770000000E+01 0. -1.
         15    1    1    2    0    0  0.17687086625E+02 -0.46625608655E+00 -0.25587088951E+03  0.25648805090E+03  0.17770000000E+01 0.  1.
</event>
<event>
 6    1  0.9144256E-004  0.5000506E+03  0.7546771E-02  0.9399696E-01
        -11   -1    0    0    0    0  0.00000000000E+00  0.00000000000E+00  0.50000000000E+03  0.50000000000E+03  0.00000000000E+00 0. -1.
         11   -1    0    0    0    0 -0.00000000000E+00 -0.00000000000E+00 -0.50000000000E+03  0.50000000000E+03  0.00000000000E+00 0. -1.
        -11    1    1    2    0    0 -0.56433215880E+01 -0.43908911978E+01  0.25632254325E+03  0.25642225563E+03  0.00000000000E+00 0. -1.
         11    1    1    2    0    0  0.54843660133E+01  0.44928201135E+01 -0.49989912762E+03  0.49994939894E+03  0.00000000000E+00 0. -1.
        -15    1    1    2    0    0  0.83752045115E+00 -0.16527309143E+01  0.12313502150E+03  0.12316178064E+03  0.17770000000E+01 0.  1.
         15    1    1    2    0    0 -0.67856487641E+00  0.15508019987E+01  0.12044156288E+03  0.12046656480E+03  0.17770000000E+01 0. -1.
</event>
<event>
 6    1  0.9144256E-004  0.5005021E+03  0.7546771E-02  0.9398687E-01
        -11   -1    0    0    0    0  0.00000000000E+00  0.00000000000E+00  0.50000000000E+03  0.50000000000E+03  0.00000000000E+00 0.  1.
         11   -1    0    0    0    0 -0.00000000000E+00 -0.00000000000E+00 -0.50000000000E+03  0.50000000000E+03  0.00000000000E+00 0.  1.
        -11    1    1    2    0    0 -0.87692392021E+01  0.16415328880E+01 -0.33670505845E+02  0.34832415222E+02  0.00000000000E+00 0.  1.
         11    1    1    2    0    0  0.89720128755E+01 -0.33475017580E+01 -0.46557123076E+03  0.46566970451E+03  0.00000000000E+00 0.  1.
        -15    1    1    2    0    0  0.19817080764E+00 -0.69306472587E+01  0.21472709916E+03  0.21484635902E+03  0.17770000000E+01 0. -1.
         15    1    1    2    0    0 -0.40094448110E+00  0.86366161287E+01  0.28451463745E+03  0.28465152124E+03  0.17770000000E+01 0.  1.
</event>
<event>
 6    1  0.9144256E-004  0.5002767E+03  0.7546771E-02  0.9399191E-01
        -11   -1    0    0    0    0  0.00000000000E+00  0.00000000000E+00  0.50000000000E+03  0.50000000000E+03  0.00000000000E+00 0.  1.
         11   -1    0    0    0    0 -0.00000000000E+00 -0.00000000000E+00 -0.50000000000E+03  0.50000000000E+03  0.00000000000E+00 0.  1.
        -11    1    1    2    0    0 -0.96856916096E+01  0.10975357288E+02  0.49950882664E+03  0.49972326240E+03  0.00000000000E+00 0.  1.
         11    1    1    2    0    0  0.15450836934E+01  0.40502731457E+01 -0.18585747129E+03  0.18590801927E+03  0.00000000000E+00 0.  1.
        -15    1    1    2    0    0  0.31012511839E+01  0.12635144887E+01 -0.39355598897E+02  0.39537768290E+02  0.17770000000E+01 0.  1.
         15    1    1    2    0    0  0.50393567323E+01 -0.16289144923E+02 -0.27429575646E+03  0.27483095004E+03  0.17770000000E+01 0. -1.
</event>
<event>
 6    1  0.9144256E-004  0.5004675E+03  0.7546771E-02  0.9398764E-01
        -11   -1    0    0    0    0  0.00000000000E+00  0.00000000000E+00  0.50000000000E+03  0.50000000000E+03  0.00000000000E+00 0.  1.
         11   -1    0    0    0    0 -0.00000000000E+00 -0.00000000000E+00 -0.50000000000E+03  0.50000000000E+03  0.00000000000E+00 0.  1.
        -11    1    1    2    0    0 -0.82288446442E+00 -0.71770179133E+01  0.44546405419E+03  0.44552262602E+03  0.00000000000E+00 0.  1.
         11    1    1    2    0    0 -0.54351026574E+01  0.51865676000E+01 -0.49947595655E+03  0.49953245340E+03  0.00000000000E+00 0.  1.
        -15    1    1    2    0    0  0.45853786117E+01  0.35688563243E+01  0.46415599695E+02  0.46811623092E+02  0.17770000000E+01 0.  1.
         15    1    1    2    0    0  0.16726085101E+01 -0.15784060111E+01  0.75963026714E+01  0.81332974887E+01  0.17770000000E+01 0. -1.
</event>
<event>
 6    1  0.9144256E-004  0.5013143E+03  0.7546771E-02  0.9396874E-01
        -11   -1    0    0    0    0  0.00000000000E+00  0.00000000000E+00  0.50000000000E+03  0.50000000000E+03  0.00000000000E+00 0.  1.
         11   -1    0    0    0    0 -0.00000000000E+00 -0.00000000000E+00 -0.50000000000E+03  0.50000000000E+03  0.00000000000E+00 0.  1.
        -11    1    1    2    0    0 -0.92669491543E+01  0.83751647103E+01  0.40003333361E+03  0.40022829451E+03  0.00000000000E+00 0.  1.
         11    1    1    2    0    0 -0.76910336651E+01 -0.12377541207E+00 -0.49862639020E+03  0.49868571699E+03  0.00000000000E+00 0.  1.
        -15    1    1    2    0    0  0.95107955708E+00 -0.36761329405E+01  0.37726938927E+02  0.37959164315E+02  0.17770000000E+01 0.  1.
         15    1    1    2    0    0  0.16006903262E+02 -0.45752563578E+01  0.60866117666E+02  0.63126824183E+02  0.17770000000E+01 0. -1.
</event>
<event>
 6    1  0.9144256E-004  0.5056844E+03  0.7546771E-02  0.9387179E-01
        -11   -1    0    0    0    0  0.00000000000E+00  0.00000000000E+00  0.50000000000E+03  0.50000000000E+03  0.00000000000E+00 0. -1.
         11   -1    0    0    0    0 -0.00000000000E+00 -0.00000000000E+00 -0.50000000000E+03  0.50000000000E+03  0.00000000000E+00 0.  1.
        -11    1    1    2    0    0 -0.28551253116E+02  0.65621633002E+01  0.49344670727E+03  0.49431557629E+03  0.00000000000E+00 0. -1.
         11    1    1    2    0    0  0.80009647205E+01 -0.51366381028E+00 -0.45729013083E+03  0.45736040826E+03  0.00000000000E+00 0.  1.
        -15    1    1    2    0    0 -0.45077829618E+01  0.24224409629E+01 -0.78898898329E+01  0.95706017587E+01  0.17770000000E+01 0. -1.
         15    1    1    2    0    0  0.25058071358E+02 -0.84709404528E+01 -0.28266686610E+02  0.38753413698E+02  0.17770000000E+01 0.  1.
</event>
<event>
 6    1  0.9144256E-004  0.5016716E+03  0.7546771E-02  0.9396077E-01
        -11   -1    0    0    0    0  0.00000000000E+00  0.00000000000E+00  0.50000000000E+03  0.50000000000E+03  0.00000000000E+00 0. -1.
         11   -1    0    0    0    0 -0.00000000000E+00 -0.00000000000E+00 -0.50000000000E+03  0.50000000000E+03  0.00000000000E+00 0. -1.
        -11    1    1    2    0    0  0.10480797035E+02 -0.25022954261E+02  0.49758935698E+03  0.49832836917E+03  0.00000000000E+00 0. -1.
         11    1    1    2    0    0 -0.36373394353E+01  0.47330760146E+01 -0.40522297203E+03  0.40526693586E+03  0.00000000000E+00 0. -1.
        -15    1    1    2    0    0 -0.71793965915E+00 -0.29444822779E+01 -0.12228218291E+02  0.12722911020E+02  0.17770000000E+01 0.  1.
         15    1    1    2    0    0 -0.61255179411E+01  0.23234360524E+02 -0.80138166661E+02  0.83681783943E+02  0.17770000000E+01 0.  1.
</event>
<event>
 6    1  0.9144256E-004  0.5158064E+03  0.7546771E-02  0.9365120E-01
        -11   -1    0    0    0    0  0.00000000000E+00  0.00000000000E+00  0.50000000000E+03  0.50000000000E+03  0.00000000000E+00 0. -1.
         11   -1    0    0    0    0 -0.00000000000E+00 -0.00000000000E+00 -0.50000000000E+03  0.50000000000E+03  0.00000000000E+00 0.  1.
        -11    1    1    2    0    0  0.75563712996E+01 -0.39328470668E+02  0.43575513551E+03  0.43759155096E+03  0.00000000000E+00 0. -1.
         11    1    1    2    0    0 -0.97012479010E+01 -0.17917823385E+01 -0.48409304866E+03  0.48419356094E+03  0.00000000000E+00 0.  1.
        -15    1    1    2    0    0 -0.53167376266E+01  0.41730437974E+02  0.54134472402E+02  0.68581309289E+02  0.17770000000E+01 0. -1.
         15    1    1    2    0    0  0.74616142280E+01 -0.61018496728E+00 -0.57965592447E+01  0.96335788085E+01  0.17770000000E+01 0.  1.
</event>
<event>
 6    1  0.9144256E-004  0.5300957E+03  0.7546771E-02  0.9334877E-01
        -11   -1    0    0    0    0  0.00000000000E+00  0.00000000000E+00  0.50000000000E+03  0.50000000000E+03  0.00000000000E+00 0. -1.
         11   -1    0    0    0    0 -0.00000000000E+00 -0.00000000000E+00 -0.50000000000E+03  0.50000000000E+03  0.00000000000E+00 0. -1.
        -11    1    1    2    0    0  0.64042313432E+02  0.92937958724E+02  0.19488237279E+03  0.22520661915E+03  0.00000000000E+00 0. -1.
         11    1    1    2    0    0  0.10729309417E+02  0.67897162529E+01 -0.46973268060E+03  0.46990425573E+03  0.00000000000E+00 0. -1.
        -15    1    1    2    0    0 -0.70086743132E+02 -0.95586157566E+02  0.27372638427E+03  0.29829206536E+03  0.17770000000E+01 0. -1.
         15    1    1    2    0    0 -0.46848797157E+01 -0.41415174107E+01  0.11239235383E+01  0.65970597642E+01  0.17770000000E+01 0.  1.
</event>
<event>
 6    1  0.9144256E-004  0.5024872E+03  0.7546771E-02  0.9394262E-01
        -11   -1    0    0    0    0  0.00000000000E+00  0.00000000000E+00  0.50000000000E+03  0.50000000000E+03  0.00000000000E+00 0.  1.
         11   -1    0    0    0    0 -0.00000000000E+00 -0.00000000000E+00 -0.50000000000E+03  0.50000000000E+03  0.00000000000E+00 0.  1.
        -11    1    1    2    0    0  0.26322862189E+01  0.10696482767E+02  0.10367321179E+02  0.15126963435E+02  0.00000000000E+00 0.  1.
         11    1    1    2    0    0 -0.79018625771E+01 -0.11300801895E+02 -0.49732165771E+03  0.49751279258E+03  0.00000000000E+00 0.  1.
        -15    1    1    2    0    0  0.84071138966E+01 -0.63625551610E+01  0.18862893264E+03  0.18893171685E+03  0.17770000000E+01 0. -1.
         15    1    1    2    0    0 -0.31375375383E+01  0.69668742885E+01  0.29832540388E+03  0.29842852714E+03  0.17770000000E+01 0.  1.
</event>
<event>
 6    1  0.9144256E-004  0.5070714E+03  0.7546771E-02  0.9384125E-01
        -11   -1    0    0    0    0  0.00000000000E+00  0.00000000000E+00  0.50000000000E+03  0.50000000000E+03  0.00000000000E+00 0.  1.
         11   -1    0    0    0    0 -0.00000000000E+00 -0.00000000000E+00 -0.50000000000E+03  0.50000000000E+03  0.00000000000E+00 0. -1.
        -11    1    1    2    0    0 -0.54502787985E+01  0.36204321028E+02  0.44545706218E+03  0.44695911742E+03  0.00000000000E+00 0.  1.
         11    1    1    2    0    0  0.13424588616E+01 -0.11883003994E+02 -0.49278353529E+03  0.49292861616E+03  0.00000000000E+00 0. -1.
        -15    1    1    2    0    0  0.10196182734E+02  0.40469419646E+00  0.74247571654E+01  0.12744044401E+02  0.17770000000E+01 0. -1.
         15    1    1    2    0    0 -0.60883627969E+01 -0.24726011231E+02  0.39901715943E+02  0.47368222018E+02  0.17770000000E+01 0.  1.
</event>
<event>
 6    1  0.9144256E-004  0.5088693E+03  0.7546771E-02  0.9380180E-01
        -11   -1    0    0    0    0  0.00000000000E+00  0.00000000000E+00  0.50000000000E+03  0.50000000000E+03  0.00000000000E+00 0. -1.
         11   -1    0    0    0    0 -0.00000000000E+00 -0.00000000000E+00 -0.50000000000E+03  0.50000000000E+03  0.00000000000E+00 0. -1.
        -11    1    1    2    0    0  0.17068031836E+02  0.35742615924E+01  0.49082099720E+03  0.49113067950E+03  0.00000000000E+00 0. -1.
         11    1    1    2    0    0  0.33679638905E+01 -0.68648840291E+01 -0.46692257649E+03  0.46698518418E+03  0.00000000000E+00 0. -1.
        -15    1    1    2    0    0 -0.24614103484E+01 -0.90377684612E+01 -0.16014937196E+02  0.18638018727E+02  0.17770000000E+01 0. -1.
         15    1    1    2    0    0 -0.17974585379E+02  0.12328390898E+02 -0.78834835125E+01  0.23246117589E+02  0.17770000000E+01 0.  1.
</event>
<event>
 6    1  0.9144256E-004  0.5006861E+03  0.7546771E-02  0.9398276E-01
        -11   -1    0    0    0    0  0.00000000000E+00  0.00000000000E+00  0.50000000000E+03  0.50000000000E+03  0.00000000000E+00 0. -1.
         11   -1    0    0    0    0 -0.00000000000E+00 -0.00000000000E+00 -0.50000000000E+03  0.50000000000E+03  0.00000000000E+00 0. -1.
        -11    1    1    2    0    0  0.41279726831E+01 -0.12419987466E+02  0.57958993901E+02  0.59418357611E+02  0.00000000000E+00 0. -1.
         11    1    1    2    0    0  0.32401046597E+00  0.13174156209E+02 -0.49913992297E+03  0.49931385528E+03  0.00000000000E+00 0. -1.
        -15    1    1    2    0    0 -0.50846690139E+01  0.12876374071E+01  0.35195707188E+03  0.35200063926E+03  0.17770000000E+01 0. -1.
         15    1    1    2    0    0  0.63268586485E+00 -0.20418061496E+01  0.89223857190E+02  0.89267147846E+02  0.17770000000E+01 0.  1.
</event>
<event>
 6    1  0.9144256E-004  0.5046036E+03  0.7546771E-02  0.9389567E-01
        -11   -1    0    0    0    0  0.00000000000E+00  0.00000000000E+00  0.50000000000E+03  0.50000000000E+03  0.00000000000E+00 0.  1.
         11   -1    0    0    0    0 -0.00000000000E+00 -0.00000000000E+00 -0.50000000000E+03  0.50000000000E+03  0.00000000000E+00 0. -1.
        -11    1    1    2    0    0 -0.52453943618E+01 -0.19592209466E+02  0.49498107702E+03  0.49539644270E+03  0.00000000000E+00 0.  1.
         11    1    1    2    0    0  0.14223114979E+02  0.69155584297E+00 -0.44561558183E+03  0.44584304639E+03  0.00000000000E+00 0. -1.
        -15    1    1    2    0    0 -0.35835892800E+01  0.19162978972E+01 -0.36355268690E+02  0.36624822188E+02  0.17770000000E+01 0. -1.
         15    1    1    2    0    0 -0.53941313375E+01  0.16984355726E+02 -0.13010226502E+02  0.22135688717E+02  0.17770000000E+01 0.  1.
</event>
<event>
 6    1  0.9144256E-004  0.5001426E+03  0.7546771E-02  0.9399491E-01
        -11   -1    0    0    0    0  0.00000000000E+00  0.00000000000E+00  0.50000000000E+03  0.50000000000E+03  0.00000000000E+00 0. -1.
         11   -1    0    0    0    0 -0.00000000000E+00 -0.00000000000E+00 -0.50000000000E+03  0.50000000000E+03  0.00000000000E+00 0.  1.
        -11    1    1    2    0    0  0.80480746840E+01  0.40193998366E+01  0.20347461572E+03  0.20367338148E+03  0.00000000000E+00 0. -1.
         11    1    1    2    0    0 -0.12960430590E+02  0.64664703161E+01 -0.49964753850E+03  0.49985743040E+03  0.00000000000E+00 0.  1.
        -15    1    1    2    0    0  0.56919168792E+01 -0.89120245530E+01  0.24752004609E+03  0.24775220089E+03  0.17770000000E+01 0. -1.
         15    1    1    2    0    0 -0.77956097324E+00 -0.15738455997E+01  0.48652876690E+02  0.48716987227E+02  0.17770000000E+01 0. -1.
</event>
<event>
 6    1  0.9144256E-004  0.5004069E+03  0.7546771E-02  0.9398900E-01
        -11   -1    0    0    0    0  0.00000000000E+00  0.00000000000E+00  0.50000000000E+03  0.50000000000E+03  0.00000000000E+00 0. -1.
         11   -1    0    0    0    0 -0.00000000000E+00 -0.00000000000E+00 -0.50000000000E+03  0.50000000000E+03  0.00000000000E+00 0.  1.
        -11    1    1    2    0    0 -0.14809071888E+02 -0.65884845636E+01  0.15751423651E+03  0.15834598651E+03  0.00000000000E+00 0. -1.
         11    1    1    2    0    0  0.92833060239E+01  0.52804495579E+01 -0.49947890950E+03  0.49959307836E+03  0.00000000000E+00 0.  1.
        -15    1    1    2    0    0  0.43335399282E+01 -0.44969899065E+00  0.14390542613E+03  0.14398232946E+03  0.17770000000E+01 0.  1.
         15    1    1    2    0    0  0.11922259360E+01  0.17577339963E+01  0.19805924685E+03  0.19807860567E+03  0.17770000000E+01 0. -1.
</event>
<event>
 6    1  0.9144256E-004  0.5022237E+03  0.7546771E-02  0.9394848E-01
        -11   -1    0    0    0    0  0.00000000000E+00  0.00000000000E+00  0.50000000000E+03  0.50000000000E+03  0.00000000000E+00 0. -1.
         11   -1    0    0    0    0 -0.00000000000E+00 -0.00000000000E+00 -0.50000000000E+03  0.50000000000E+03  0.00000000000E+00 0. -1.
        -11    1    1    2    0    0  0.60713388913E+01 -0.12286494738E+02  0.46839894173E+03  0.46859938937E+03  0.00000000000E+00 0. -1.
         11    1    1    2    0    0 -0.10000986979E+02 -0.15738874743E+01 -0.49767328541E+03  0.49777625081E+03  0.00000000000E+00 0. -1.
        -15    1    1    2    0    0 -0.12371611586E+01  0.27738303519E+01  0.31461353647E+01  0.47202329695E+01  0.17770000000E+01 0. -1.
         15    1    1    2    0    0  0.51668092468E+01  0.11086551861E+02  0.26128208317E+02  0.28904126848E+02  0.17770000000E+01 0.  1.
</event>
<event>
 6    1  0.9144256E-004  0.5004714E+03  0.7546771E-02  0.9398756E-01
        -11   -1    0    0    0    0  0.00000000000E+00  0.00000000000E+00  0.50000000000E+03  0.50000000000E+03  0.00000000000E+00 0.  1.
         11   -1    0    0    0    0 -0.00000000000E+00 -0.00000000000E+00 -0.50000000000E+03  0.50000000000E+03  0.00000000000E+00 0.  1.
        -11    1    1    2    0    0 -0.17823634222E+01  0.14306672441E+02  0.25277340688E+03  0.25318422724E+03  0.00000000000E+00 0.  1.
         11    1    1    2    0    0 -0.10643818416E+02 -0.45172218850E+01 -0.49939480834E+03  0.49952864859E+03  0.00000000000E+00 0.  1.
        -15    1    1    2    0    0  0.30854803792E+01 -0.61191688081E+00  0.10178790706E+03  0.10185200236E+03  0.17770000000E+01 0. -1.
         15    1    1    2    0    0  0.93407014589E+01 -0.91775336752E+01  0.14483349439E+03  0.14543512181E+03  0.17770000000E+01 0.  1.
</event>
<event>
 6    1  0.9144256E-004  0.5043226E+03  0.7546771E-02  0.9390189E-01
        -11   -1    0    0    0    0  0.00000000000E+00  0.00000000000E+00  0.50000000000E+03  0.50000000000E+03  0.00000000000E+00 0. -1.
         11   -1    0    0    0    0 -0.00000000000E+00 -0.00000000000E+00 -0.50000000000E+03  0.50000000000E+03  0.00000000000E+00 0. -1.
        -11    1    1    2    0    0  0.41223132261E+01  0.16989667684E+02  0.46082074758E+03  0.46115225650E+03  0.00000000000E+00 0. -1.
         11    1    1    2    0    0  0.95766937756E+01 -0.10606121636E+02 -0.49547139054E+03  0.49567741700E+03  0.00000000000E+00 0. -1.
        -15    1    1    2    0    0 -0.87523530713E+01  0.66923945706E+01  0.19578908343E+02  0.22536264337E+02  0.17770000000E+01 0. -1.
         15    1    1    2    0    0 -0.49466539305E+01 -0.13075940619E+02  0.15071734613E+02  0.20634062164E+02  0.17770000000E+01 0.  1.
</event>
<event>
 6    1  0.9144256E-004  0.5012085E+03  0.7546771E-02  0.9397110E-01
        -11   -1    0    0    0    0  0.00000000000E+00  0.00000000000E+00  0.50000000000E+03  0.50000000000E+03  0.00000000000E+00 0. -1.
         11   -1    0    0    0    0 -0.00000000000E+00 -0.00000000000E+00 -0.50000000000E+03  0.50000000000E+03  0.00000000000E+00 0.  1.
        -11    1    1    2    0    0 -0.40116903551E+01  0.15747709352E+02  0.49852667990E+03  0.49879147405E+03  0.00000000000E+00 0. -1.
         11    1    1    2    0    0 -0.34357127469E+01 -0.70877168462E+01 -0.41969609029E+03  0.41976999423E+03  0.00000000000E+00 0.  1.
        -15    1    1    2    0    0  0.48854158604E+01 -0.13238842660E+02 -0.46156890381E+02  0.48298555897E+02  0.17770000000E+01 0.  1.
         15    1    1    2    0    0  0.25619872416E+01  0.45788501540E+01 -0.32673699231E+02  0.33139975826E+02  0.17770000000E+01 0. -1.
</event>
<event>
 6    1  0.9144256E-004  0.5039342E+03  0.7546771E-02  0.9391049E-01
        -11   -1    0    0    0    0  0.00000000000E+00  0.00000000000E+00  0.50000000000E+03  0.50000000000E+03  0.00000000000E+00 0. -1.
         11   -1    0    0    0    0 -0.00000000000E+00 -0.00000000000E+00 -0.50000000000E+03  0.50000000000E+03  0.00000000000E+00 0. -1.
        -11    1    1    2    0    0  0.16553642222E+02 -0.99538514281E+01  0.49568961631E+03  0.49606582017E+03  0.00000000000E+00 0. -1.
         11    1    1    2    0    0 -0.64085911263E+01  0.22251289553E+01 -0.43975427865E+03  0.43980660162E+03  0.00000000000E+00 0. -1.
        -15    1    1    2    0    0 -0.15439705399E+02  0.12345130312E+02 -0.22888373124E+02  0.30295578860E+02  0.17770000000E+01 0. -1.
         15    1    1    2    0    0  0.52946543036E+01 -0.46164078392E+01 -0.33046964533E+02  0.33831999341E+02  0.17770000000E+01 0.  1.
</event>
<event>
 6    1  0.9144256E-004  0.4658048E+03  0.7546771E-02  0.9479753E-01
        -11   -1    0    0    0    0  0.00000000000E+00  0.00000000000E+00  0.50000000000E+03  0.50000000000E+03  0.00000000000E+00 0. -1.
         11   -1    0    0    0    0 -0.00000000000E+00 -0.00000000000E+00 -0.50000000000E+03  0.50000000000E+03  0.00000000000E+00 0.  1.
        -11    1    1    2    0    0 -0.24121676999E+02 -0.12029873300E+02  0.47245027636E+03  0.47321859302E+03  0.00000000000E+00 0. -1.
         11    1    1    2    0    0  0.14755250045E+02 -0.30404305626E+02 -0.45826737082E+03  0.45951183049E+03  0.00000000000E+00 0.  1.
        -15    1    1    2    0    0  0.29236918858E+02  0.24110815093E+02 -0.33128984589E+01  0.38082303685E+02  0.17770000000E+01 0. -1.
         15    1    1    2    0    0 -0.19870491904E+02  0.18323363833E+02 -0.10870007083E+02  0.29187272803E+02  0.17770000000E+01 0.  1.
</event>
<event>
 6    1  0.9144256E-004  0.5050766E+03  0.7546771E-02  0.9388522E-01
        -11   -1    0    0    0    0  0.00000000000E+00  0.00000000000E+00  0.50000000000E+03  0.50000000000E+03  0.00000000000E+00 0.  1.
         11   -1    0    0    0    0 -0.00000000000E+00 -0.00000000000E+00 -0.50000000000E+03  0.50000000000E+03  0.00000000000E+00 0. -1.
        -11    1    1    2    0    0 -0.88622433921E+01  0.13394327727E+02  0.49466272756E+03  0.49492338944E+03  0.00000000000E+00 0.  1.
         11    1    1    2    0    0 -0.12772198926E+02  0.39788030123E+01 -0.45502656067E+03  0.45522316599E+03  0.00000000000E+00 0. -1.
        -15    1    1    2    0    0  0.64734924686E+01 -0.10372437587E+02 -0.23572571775E+02  0.26614233698E+02  0.17770000000E+01 0.  1.
         15    1    1    2    0    0  0.15160949850E+02 -0.70006931516E+01 -0.16063595119E+02  0.23239210875E+02  0.17770000000E+01 0. -1.
</event>
<event>
 6    1  0.9144257E-004  0.5002008E+03  0.7546771E-02  0.9399361E-01
        -11   -1    0    0    0    0  0.00000000000E+00  0.00000000000E+00  0.50000000000E+03  0.50000000000E+03  0.00000000000E+00 0.  1.
         11   -1    0    0    0    0 -0.00000000000E+00 -0.00000000000E+00 -0.50000000000E+03  0.50000000000E+03  0.00000000000E+00 0.  1.
        -11    1    1    2    0    0  0.83813374289E+01 -0.53773932375E+01  0.49970001824E+03  0.49979923110E+03  0.00000000000E+00 0.  1.
         11    1    1    2    0    0 -0.43764614462E+01 -0.22278540964E+01 -0.29923055980E+03  0.29927085502E+03  0.00000000000E+00 0.  1.
        -15    1    1    2    0    0 -0.59859728582E+01  0.30412863220E+01 -0.67690131958E+02  0.68045521433E+02  0.17770000000E+01 0.  1.
         15    1    1    2    0    0  0.19810968755E+01  0.45639610120E+01 -0.13277932648E+03  0.13288439244E+03  0.17770000000E+01 0. -1.
</event>
<event>
 6    1  0.9144256E-004  0.5000681E+03  0.7546771E-02  0.9399657E-01
        -11   -1    0    0    0    0  0.00000000000E+00  0.00000000000E+00  0.50000000000E+03  0.50000000000E+03  0.00000000000E+00 0. -1.
         11   -1    0    0    0    0 -0.00000000000E+00 -0.00000000000E+00 -0.50000000000E+03  0.50000000000E+03  0.00000000000E+00 0. -1.
        -11    1    1    2    0    0 -0.22540235671E+01 -0.45921673893E+01  0.10465759745E+03  0.10478254305E+03  0.00000000000E+00 0. -1.
         11    1    1    2    0    0  0.99358100157E+01  0.23001464185E+01 -0.49982781772E+03  0.49993185372E+03  0.00000000000E+00 0. -1.
        -15    1    1    2    0    0 -0.38105728803E+01 -0.66803405903E+00  0.20775396334E+03  0.20779757878E+03  0.17770000000E+01 0. -1.
         15    1    1    2    0    0 -0.38712135683E+01  0.29600550298E+01  0.18741625694E+03  0.18748802445E+03  0.17770000000E+01 0. -1.
</event>
<event>
 6    1  0.9144256E-004  0.5032551E+03  0.7546771E-02  0.9392555E-01
        -11   -1    0    0    0    0  0.00000000000E+00  0.00000000000E+00  0.50000000000E+03  0.50000000000E+03  0.00000000000E+00 0.  1.
         11   -1    0    0    0    0 -0.00000000000E+00 -0.00000000000E+00 -0.50000000000E+03  0.50000000000E+03  0.00000000000E+00 0.  1.
        -11    1    1    2    0    0  0.10204426972E+02 -0.18872553328E+02  0.39072525443E+03  0.39131384853E+03  0.00000000000E+00 0.  1.
         11    1    1    2    0    0  0.36008843122E+01 -0.11486846082E+02 -0.49659896872E+03  0.49674485376E+03  0.00000000000E+00 0.  1.
        -15    1    1    2    0    0  0.14586362993E+01  0.54219542282E+01  0.91671215042E+01  0.10895827329E+02  0.17770000000E+01 0.  1.
         15    1    1    2    0    0 -0.15263947584E+02  0.24937445181E+02  0.96706592785E+02  0.10104547038E+03  0.17770000000E+01 0. -1.
</event>
<event>
 6    1  0.9144256E-004  0.5021409E+03  0.7546771E-02  0.9395032E-01
        -11   -1    0    0    0    0  0.00000000000E+00  0.00000000000E+00  0.50000000000E+03  0.50000000000E+03  0.00000000000E+00 0. -1.
         11   -1    0    0    0    0 -0.00000000000E+00 -0.00000000000E+00 -0.50000000000E+03  0.50000000000E+03  0.00000000000E+00 0. -1.
        -11    1    1    2    0    0  0.26585471780E+02 -0.59860143256E+01  0.13313038455E+03  0.13589083475E+03  0.00000000000E+00 0. -1.
         11    1    1    2    0    0 -0.73180972380E+01  0.13365116830E+02 -0.49762587408E+03  0.49785910803E+03  0.00000000000E+00 0. -1.
        -15    1    1    2    0    0 -0.21215246563E+02 -0.30246965098E+01  0.35327518336E+03  0.35392901602E+03  0.17770000000E+01 0. -1.
         15    1    1    2    0    0  0.19478720208E+01 -0.43544059942E+01  0.11220306161E+02  0.12321041203E+02  0.17770000000E+01 0.  1.
</event>
<event>
 6    1  0.9144256E-004  0.5001100E+03  0.7546771E-02  0.9399564E-01
        -11   -1    0    0    0    0  0.00000000000E+00  0.00000000000E+00  0.50000000000E+03  0.50000000000E+03  0.00000000000E+00 0.  1.
         11   -1    0    0    0    0 -0.00000000000E+00 -0.00000000000E+00 -0.50000000000E+03  0.50000000000E+03  0.00000000000E+00 0. -1.
        -11    1    1    2    0    0  0.12938369407E+02  0.34183091992E+01  0.15323965616E+03  0.15382288016E+03  0.00000000000E+00 0.  1.
         11    1    1    2    0    0 -0.21926618553E+02 -0.73299905693E+01 -0.49935509957E+03  0.49989000874E+03  0.00000000000E+00 0. -1.
        -15    1    1    2    0    0  0.49939314778E+01  0.35446625401E+01  0.23129885372E+03  0.23138673567E+03  0.17770000000E+01 0.  1.
         15    1    1    2    0    0  0.39943176680E+01  0.36701883000E+00  0.11481658969E+03  0.11490037543E+03  0.17770000000E+01 0.  1.
</event>
<event>
 6    1  0.9144256E-004  0.5123913E+03  0.7546771E-02  0.9372502E-01
        -11   -1    0    0    0    0  0.00000000000E+00  0.00000000000E+00  0.50000000000E+03  0.50000000000E+03  0.00000000000E+00 0. -1.
         11   -1    0    0    0    0 -0.00000000000E+00 -0.00000000000E+00 -0.50000000000E+03  0.50000000000E+03  0.00000000000E+00 0. -1.
        -11    1    1    2    0    0  0.32664409337E+02 -0.53871417790E+02  0.48352161577E+03  0.48760870194E+03  0.00000000000E+00 0. -1.
         11    1    1    2    0    0  0.83202611608E+01 -0.18387024237E+02 -0.36219363955E+03  0.36275548506E+03  0.00000000000E+00 0. -1.
        -15    1    1    2    0    0 -0.83105116446E+01  0.21038648403E+02 -0.15121415552E+02  0.27267274666E+02  0.17770000000E+01 0.  1.
         15    1    1    2    0    0 -0.32674158853E+02  0.51219793623E+02 -0.10620656067E+03  0.12236853833E+03  0.17770000000E+01 0. -1.
</event>
<event>
 6    1  0.9144256E-004  0.5003262E+03  0.7546771E-02  0.9399080E-01
        -11   -1    0    0    0    0  0.00000000000E+00  0.00000000000E+00  0.50000000000E+03  0.50000000000E+03  0.00000000000E+00 0. -1.
         11   -1    0    0    0    0 -0.00000000000E+00 -0.00000000000E+00 -0.50000000000E+03  0.50000000000E+03  0.00000000000E+00 0. -1.
        -11    1    1    2    0    0  0.48979491581E+01  0.55787613058E+01  0.49961859921E+03  0.49967375072E+03  0.00000000000E+00 0. -1.
         11    1    1    2    0    0 -0.93347046815E+00 -0.81876876179E+01 -0.44355497712E+03  0.44363152202E+03  0.00000000000E+00 0. -1.
        -15    1    1    2    0    0 -0.27563870944E+01 -0.12197603951E+01 -0.15282317055E+02  0.15677768617E+02  0.17770000000E+01 0.  1.
         15    1    1    2    0    0 -0.12080915955E+01  0.38286867072E+01 -0.40781305034E+02  0.41016958645E+02  0.17770000000E+01 0. -1.
</event>
<event>
 6    1  0.9144256E-004  0.5000557E+03  0.7546771E-02  0.9399685E-01
        -11   -1    0    0    0    0  0.00000000000E+00  0.00000000000E+00  0.50000000000E+03  0.50000000000E+03  0.00000000000E+00 0.  1.
         11   -1    0    0    0    0 -0.00000000000E+00 -0.00000000000E+00 -0.50000000000E+03  0.50000000000E+03  0.00000000000E+00 0.  1.
        -11    1    1    2    0    0  0.18401043933E+02 -0.77230579982E+01  0.49954585303E+03  0.49994430022E+03  0.00000000000E+00 0.  1.
         11    1    1    2    0    0 -0.22063757149E+01  0.86095089832E+00 -0.30396919255E+02  0.30489047713E+02  0.00000000000E+00 0.  1.
        -15    1    1    2    0    0 -0.78072348746E+01  0.63614237835E+01 -0.32597544301E+03  0.32613581190E+03  0.17770000000E+01 0.  1.
         15    1    1    2    0    0 -0.83874333433E+01  0.50068331645E+00 -0.14317349077E+03  0.14343084016E+03  0.17770000000E+01 0.  1.
</event>
<event>
 6    1  0.9144256E-004  0.4657651E+03  0.7546771E-02  0.9479850E-01
        -11   -1    0    0    0    0  0.00000000000E+00  0.00000000000E+00  0.50000000000E+03  0.50000000000E+03  0.00000000000E+00 0.  1.
         11   -1    0    0    0    0 -0.00000000000E+00 -0.00000000000E+00 -0.50000000000E+03  0.50000000000E+03  0.00000000000E+00 0. -1.
        -11    1    1    2    0    0 -0.45778833178E+02  0.15282511116E+02  0.45020528040E+03  0.45278477361E+03  0.00000000000E+00 0.  1.
         11    1    1    2    0    0 -0.80220585203E+01 -0.30565586648E+01 -0.48080281169E+03  0.48087944404E+03  0.00000000000E+00 0. -1.
        -15    1    1    2    0    0  0.29439707167E+02 -0.12488770612E+01  0.25643106770E+02  0.39102208452E+02  0.17770000000E+01 0.  1.
         15    1    1    2    0    0  0.24361184530E+02 -0.10977075390E+02  0.49544245211E+01  0.27233573897E+02  0.17770000000E+01 0. -1.
</event>
<event>
 6    1  0.9144256E-004  0.4292906E+03  0.7546771E-02  0.9573608E-01
        -11   -1    0    0    0    0  0.00000000000E+00  0.00000000000E+00  0.50000000000E+03  0.50000000000E+03  0.00000000000E+00 0.  1.
         11   -1    0    0    0    0 -0.00000000000E+00 -0.00000000000E+00 -0.50000000000E+03  0.50000000000E+03  0.00000000000E+00 0. -1.
        -11    1    1    2    0    0 -0.32365524582E+02  0.12860512744E+03  0.85449195366E+02  0.15776048610E+03  0.00000000000E+00 0.  1.
         11    1    1    2    0    0 -0.53453415270E+01 -0.24573939600E+01 -0.43528897242E+03  0.43532872748E+03  0.00000000000E+00 0. -1.
        -15    1    1    2    0    0  0.27334442224E+02 -0.93787111665E+02  0.35868150182E+03  0.37175095362E+03  0.17770000000E+01 0.  1.
         15    1    1    2    0    0  0.10376423885E+02 -0.32360621812E+02 -0.88417247640E+01  0.35159832800E+02  0.17770000000E+01 0. -1.
</event>
<event>
 6    1  0.9144256E-004  0.5005509E+03  0.7546771E-02  0.9398578E-01
        -11   -1    0    0    0    0  0.00000000000E+00  0.00000000000E+00  0.50000000000E+03  0.50000000000E+03  0.00000000000E+00 0. -1.
         11   -1    0    0    0    0 -0.00000000000E+00 -0.00000000000E+00 -0.50000000000E+03  0.50000000000E+03  0.00000000000E+00 0.  1.
        -11    1    1    2    0    0 -0.38085164346E+01  0.16932822360E+02  0.13532317660E+03  0.13643162168E+03  0.00000000000E+00 0. -1.
         11    1    1    2    0    0 -0.23896957682E+01 -0.11518031612E+02 -0.49931053207E+03  0.49944907962E+03  0.00000000000E+00 0.  1.
        -15    1    1    2    0    0  0.95428100171E+00 -0.30718969642E+01  0.16604124495E+03  0.16608190738E+03  0.17770000000E+01 0.  1.
         15    1    1    2    0    0  0.52439312011E+01 -0.23428937838E+01  0.19794611051E+03  0.19803739132E+03  0.17770000000E+01 0. -1.
</event>
<event>
 6    1  0.9144256E-004  0.5001864E+03  0.7546771E-02  0.9399393E-01
        -11   -1    0    0    0    0  0.00000000000E+00  0.00000000000E+00  0.50000000000E+03  0.50000000000E+03  0.00000000000E+00 0. -1.
         11   -1    0    0    0    0 -0.00000000000E+00 -0.00000000000E+00 -0.50000000000E+03  0.50000000000E+03  0.00000000000E+00 0. -1.
        -11    1    1    2    0    0  0.15216920845E+01  0.18350197237E+01  0.35202147962E+02  0.35282772926E+02  0.00000000000E+00 0. -1.
         11    1    1    2    0    0  0.12916937592E+02  0.11885962284E+01 -0.49964526168E+03  0.49981361282E+03  0.00000000000E+00 0. -1.
        -15    1    1    2    0    0 -0.31855098441E+01 -0.75385802910E+01  0.17170272956E+03  0.17190684319E+03  0.17770000000E+01 0.  1.
         15    1    1    2    0    0 -0.11253119833E+02  0.45149643389E+01  0.29274038416E+03  0.29299677107E+03  0.17770000000E+01 0. -1.
</event>
<event>
 6    1  0.9144256E-004  0.5004460E+03  0.7546771E-02  0.9398812E-01
        -11   -1    0    0    0    0  0.00000000000E+00  0.00000000000E+00  0.50000000000E+03  0.50000000000E+03  0.00000000000E+00 0.  1.
         11   -1    0    0    0    0 -0.00000000000E+00 -0.00000000000E+00 -0.50000000000E+03  0.50000000000E+03  0.00000000000E+00 0. -1.
        -11    1    1    2    0    0 -0.52123382272E+01  0.52652490302E+01  0.49949904079E+03  0.49955398414E+03  0.00000000000E+00 0.  1.
         11    1    1    2    0    0 -0.56369221497E+01 -0.23962750427E+01 -0.41133429784E+03  0.41137989937E+03  0.00000000000E+00 0. -1.
        -15    1    1    2    0    0  0.90976396694E+01 -0.30872201641E+01 -0.60004325616E+02  0.60794529339E+02  0.17770000000E+01 0.  1.
         15    1    1    2    0    0  0.17516207075E+01  0.21824617661E+00 -0.28160417334E+02  0.28271587149E+02  0.17770000000E+01 0. -1.
</event>
<event>
 6    1  0.9144256E-004  0.5049335E+03  0.7546771E-02  0.9388838E-01
        -11   -1    0    0    0    0  0.00000000000E+00  0.00000000000E+00  0.50000000000E+03  0.50000000000E+03  0.00000000000E+00 0.  1.
         11   -1    0    0    0    0 -0.00000000000E+00 -0.00000000000E+00 -0.50000000000E+03  0.50000000000E+03  0.00000000000E+00 0. -1.
        -11    1    1    2    0    0 -0.21673824752E+02  0.22397478360E+01  0.31756389886E+03  0.31831054178E+03  0.00000000000E+00 0.  1.
         11    1    1    2    0    0 -0.17288517625E+02  0.12062020712E+02 -0.49461752955E+03  0.49506654676E+03  0.00000000000E+00 0. -1.
        -15    1    1    2    0    0  0.36461622872E+02 -0.71021392143E+01  0.17445786002E+03  0.17837766950E+03  0.17770000000E+01 0.  1.
         15    1    1    2    0    0  0.25007195051E+01 -0.71996293338E+01  0.25957706644E+01  0.82452419570E+01  0.17770000000E+01 0. -1.
</event>
<event>
 6    1  0.9144256E-004  0.5007497E+03  0.7546771E-02  0.9398134E-01
        -11   -1    0    0    0    0  0.00000000000E+00  0.00000000000E+00  0.50000000000E+03  0.50000000000E+03  0.00000000000E+00 0.  1.
         11   -1    0    0    0    0 -0.00000000000E+00 -0.00000000000E+00 -0.50000000000E+03  0.50000000000E+03  0.00000000000E+00 0.  1.
        -11    1    1    2    0    0  0.17500697405E+02  0.51696229142E+00  0.49894323454E+03  0.49925033095E+03  0.00000000000E+00 0.  1.
         11    1    1    2    0    0 -0.62549514457E+01 -0.80058548428E+01 -0.32700877455E+03  0.32716655814E+03  0.00000000000E+00 0.  1.
        -15    1    1    2    0    0 -0.10210911398E+02 -0.18029859796E+01 -0.41885626980E+02  0.43186536635E+02  0.17770000000E+01 0. -1.
         15    1    1    2    0    0 -0.10348345612E+01  0.92918785310E+01 -0.13004883301E+03  0.13039657428E+03  0.17770000000E+01 0.  1.
</event>
<event>
 6    1  0.9144256E-004  0.5005403E+03  0.7546771E-02  0.9398602E-01
        -11   -1    0    0    0    0  0.00000000000E+00  0.00000000000E+00  0.50000000000E+03  0.50000000000E+03  0.00000000000E+00 0.  1.
         11   -1    0    0    0    0 -0.00000000000E+00 -0.00000000000E+00 -0.50000000000E+03  0.50000000000E+03  0.00000000000E+00 0. -1.
        -11    1    1    2    0    0 -0.10688875474E+02 -0.23782111962E+01  0.80868601541E+02  0.81606609185E+02  0.00000000000E+00 0.  1.
         11    1    1    2    0    0 -0.41869993667E+01 -0.54440702377E+01 -0.49941245678E+03  0.49945967890E+03  0.00000000000E+00 0. -1.
        -15    1    1    2    0    0  0.13009513873E+02  0.70365948167E+01  0.38216431441E+03  0.38245454901E+03  0.17770000000E+01 0.  1.
         15    1    1    2    0    0  0.18663609673E+01  0.78568661718E+00  0.36379540824E+02  0.36479162905E+02  0.17770000000E+01 0. -1.
</event>
<event>
 6    1  0.9144256E-004  0.5000725E+03  0.7546771E-02  0.9399647E-01
        -11   -1    0    0    0    0  0.00000000000E+00  0.00000000000E+00  0.50000000000E+03  0.50000000000E+03  0.00000000000E+00 0.  1.
         11   -1    0    0    0    0 -0.00000000000E+00 -0.00000000000E+00 -0.50000000000E+03  0.50000000000E+03  0.00000000000E+00 0.  1.
        -11    1    1    2    0    0  0.10424488834E+02  0.44716585991E+01  0.24993678237E+03  0.25019404645E+03  0.00000000000E+00 0.  1.
         11    1    1    2    0    0 -0.10312048806E+02 -0.71171395560E+01 -0.49977043424E+03  0.49992747371E+03  0.00000000000E+00 0.  1.
        -15    1    1    2    0    0 -0.62198123927E+00  0.14341871178E+01  0.16072187620E+03  0.16073930127E+03  0.17770000000E+01 0.  1.
         15    1    1    2    0    0  0.50954121110E+00  0.12112938391E+01  0.89111775664E+02  0.89139178570E+02  0.17770000000E+01 0.  1.
</event>
<event>
 6    1  0.9144256E-004  0.5003258E+03  0.7546771E-02  0.9399081E-01
        -11   -1    0    0    0    0  0.00000000000E+00  0.00000000000E+00  0.50000000000E+03  0.50000000000E+03  0.00000000000E+00 0. -1.
         11   -1    0    0    0    0 -0.00000000000E+00 -0.00000000000E+00 -0.50000000000E+03  0.50000000000E+03  0.00000000000E+00 0.  1.
        -11    1    1    2    0    0  0.87502468806E+01  0.52094603230E+01  0.13655377443E+03  0.13693297122E+03  0.00000000000E+00 0. -1.
         11    1    1    2    0    0 -0.24117223057E+01  0.81357318879E+01 -0.49960216908E+03  0.49967422776E+03  0.00000000000E+00 0.  1.
        -15    1    1    2    0    0 -0.53511940873E+01 -0.73314890082E+01  0.24406814735E+03  0.24424333008E+03  0.17770000000E+01 0. -1.
         15    1    1    2    0    0 -0.98733048759E+00 -0.60137032027E+01  0.11898024730E+03  0.11914947094E+03  0.17770000000E+01 0. -1.
</event>
<event>
 6    1  0.9144256E-004  0.4885054E+03  0.7546771E-02  0.9425903E-01
        -11   -1    0    0    0    0  0.00000000000E+00  0.00000000000E+00  0.50000000000E+03  0.50000000000E+03  0.00000000000E+00 0. -1.
         11   -1    0    0    0    0 -0.00000000000E+00 -0.00000000000E+00 -0.50000000000E+03  0.50000000000E+03  0.00000000000E+00 0. -1.
        -11    1    1    2    0    0 -0.49513130700E+01 -0.10663938677E+02  0.48599181204E+03  0.48613401081E+03  0.00000000000E+00 0. -1.
         11    1    1    2    0    0 -0.13251086903E+01 -0.68351318174E+01 -0.49101728533E+03  0.49106664459E+03  0.00000000000E+00 0. -1.
        -15    1    1    2    0    0  0.21306980468E+01 -0.40319684090E+00 -0.15475939488E+01  0.32023769125E+01  0.17770000000E+01 0.  1.
         15    1    1    2    0    0  0.41457237135E+01  0.17902267335E+02  0.65730672332E+01  0.19596967691E+02  0.17770000000E+01 0. -1.
</event>
<event>
 6    1  0.9144256E-004  0.5001646E+03  0.7546771E-02  0.9399442E-01
        -11   -1    0    0    0    0  0.00000000000E+00  0.00000000000E+00  0.50000000000E+03  0.50000000000E+03  0.00000000000E+00 0. -1.
         11   -1    0    0    0    0 -0.00000000000E+00 -0.00000000000E+00 -0.50000000000E+03  0.50000000000E+03  0.00000000000E+00 0. -1.
        -11    1    1    2    0    0 -0.10257098454E+02  0.55108057573E+01  0.49969979181E+03  0.49983543190E+03  0.00000000000E+00 0. -1.
         11    1    1    2    0    0 -0.34348738340E+01 -0.46853455301E+00 -0.19005782781E+03  0.19008944157E+03  0.00000000000E+00 0. -1.
        -15    1    1    2    0    0  0.34990297593E+01 -0.45738878405E+01 -0.11438000615E+03  0.11453867118E+03  0.17770000000E+01 0.  1.
         15    1    1    2    0    0  0.10192942528E+02 -0.46838336382E+00 -0.19526195785E+03  0.19553645535E+03  0.17770000000E+01 0. -1.
</event>
<event>
 6    1  0.9144256E-004  0.5083004E+03  0.7546771E-02  0.9381426E-01
        -11   -1    0    0    0    0  0.00000000000E+00  0.00000000000E+00  0.50000000000E+03  0.50000000000E+03  0.00000000000E+00 0. -1.
         11   -1    0    0    0    0 -0.00000000000E+00 -0.00000000000E+00 -0.50000000000E+03  0.50000000000E+03  0.00000000000E+00 0.  1.
        -11    1    1    2    0    0 -0.23098627491E+02 -0.65179603321E+00  0.49115630884E+03  0.49169959441E+03  0.00000000000E+00 0. -1.
         11    1    1    2    0    0 -0.14937887809E+00  0.16474951223E+02 -0.47051936691E+03  0.47080773248E+03  0.00000000000E+00 0.  1.
        -15    1    1    2    0    0  0.18734801610E+02 -0.50472534412E+01 -0.12713231368E+02  0.23264813334E+02  0.17770000000E+01 0. -1.
         15    1    1    2    0    0  0.45132047597E+01 -0.10775901749E+02 -0.79237105625E+01  0.14227859775E+02  0.17770000000E+01 0.  1.
</event>
<event>
 6    1  0.9144256E-004  0.5012425E+03  0.7546771E-02  0.9397034E-01
        -11   -1    0    0    0    0  0.00000000000E+00  0.00000000000E+00  0.50000000000E+03  0.50000000000E+03  0.00000000000E+00 0.  1.
         11   -1    0    0    0    0 -0.00000000000E+00 -0.00000000000E+00 -0.50000000000E+03  0.50000000000E+03  0.00000000000E+00 0. -1.
        -11    1    1    2    0    0 -0.71045251780E+01 -0.12183225944E+02  0.49855802939E+03  0.49875747006E+03  0.00000000000E+00 0.  1.
         11    1    1    2    0    0  0.58875304712E+01 -0.35681185932E+01 -0.34652895542E+03  0.34659733327E+03  0.00000000000E+00 0. -1.
        -15    1    1    2    0    0 -0.83197316415E+01  0.41311704708E+01 -0.25203775209E+02  0.26919742158E+02  0.17770000000E+01 0. -1.
         15    1    1    2    0    0  0.95367263482E+01  0.11620174067E+02 -0.12682529876E+03  0.12772545451E+03  0.17770000000E+01 0.  1.
</event>
<event>
 6    1  0.9144256E-004  0.5169577E+03  0.7546771E-02  0.9362645E-01
        -11   -1    0    0    0    0  0.00000000000E+00  0.00000000000E+00  0.50000000000E+03  0.50000000000E+03  0.00000000000E+00 0. -1.
         11   -1    0    0    0    0 -0.00000000000E+00 -0.00000000000E+00 -0.50000000000E+03  0.50000000000E+03  0.00000000000E+00 0.  1.
        -11    1    1    2    0    0  0.16833629856E+02  0.75562679579E+01  0.48268977571E+03  0.48304232511E+03  0.00000000000E+00 0. -1.
         11    1    1    2    0    0 -0.11273545449E+02 -0.55642319722E+01 -0.46847804894E+03  0.46864670685E+03  0.00000000000E+00 0.  1.
        -15    1    1    2    0    0 -0.18115328509E+02 -0.17523263046E+02 -0.12495832841E+02  0.28187469595E+02  0.17770000000E+01 0. -1.
         15    1    1    2    0    0  0.12555244102E+02  0.15531227061E+02 -0.17158939261E+01  0.20123498439E+02  0.17770000000E+01 0.  1.
</event>
<event>
 6    1  0.9144256E-004  0.5006552E+03  0.7546771E-02  0.9398345E-01
        -11   -1    0    0    0    0  0.00000000000E+00  0.00000000000E+00  0.50000000000E+03  0.50000000000E+03  0.00000000000E+00 0.  1.
         11   -1    0    0    0    0 -0.00000000000E+00 -0.00000000000E+00 -0.50000000000E+03  0.50000000000E+03  0.00000000000E+00 0.  1.
        -11    1    1    2    0    0  0.11068109018E+02  0.28538422578E+01  0.32864225227E+03  0.32884096070E+03  0.00000000000E+00 0.  1.
         11    1    1    2    0    0  0.57527374971E+01  0.68002362486E+01 -0.49926534705E+03  0.49934479467E+03  0.00000000000E+00 0.  1.
        -15    1    1    2    0    0 -0.22662174798E+01 -0.27462484052E+01  0.35671612989E+02  0.35892886819E+02  0.17770000000E+01 0. -1.
         15    1    1    2    0    0 -0.14554629035E+02 -0.69078301012E+01  0.13495148179E+03  0.13592135781E+03  0.17770000000E+01 0.  1.
</event>
<event>
 6    1  0.9144256E-004  0.5035047E+03  0.7546771E-02  0.9392002E-01
        -11   -1    0    0    0    0  0.00000000000E+00  0.00000000000E+00  0.50000000000E+03  0.50000000000E+03  0.00000000000E+00 0. -1.
         11   -1    0    0    0    0 -0.00000000000E+00 -0.00000000000E+00 -0.50000000000E+03  0.50000000000E+03  0.00000000000E+00 0.  1.
        -11    1    1    2    0    0 -0.12501885032E+02  0.20408767541E+02  0.49591813091E+03  0.49649532474E+03  0.00000000000E+00 0. -1.
         11    1    1    2    0    0  0.26757248508E+01  0.75793570497E+01 -0.37509754627E+03  0.37518365553E+03  0.00000000000E+00 0.  1.
        -15    1    1    2    0    0  0.60882269865E+01 -0.22537016511E+02 -0.34291440841E+02  0.41521612024E+02  0.17770000000E+01 0.  1.
         15    1    1    2    0    0  0.37379331944E+01 -0.54511080791E+01 -0.86529143793E+02  0.86799407707E+02  0.17770000000E+01 0.  1.
</event>
<event>
 6    1  0.9144256E-004  0.5019867E+03  0.7546771E-02  0.9395375E-01
        -11   -1    0    0    0    0  0.00000000000E+00  0.00000000000E+00  0.50000000000E+03  0.50000000000E+03  0.00000000000E+00 0.  1.
         11   -1    0    0    0    0 -0.00000000000E+00 -0.00000000000E+00 -0.50000000000E+03  0.50000000000E+03  0.00000000000E+00 0. -1.
        -11    1    1    2    0    0 -0.19872059671E+02 -0.71392811049E+01  0.49756541522E+03  0.49801326339E+03  0.00000000000E+00 0.  1.
         11    1    1    2    0    0  0.11200101055E+02 -0.77673725213E+00 -0.43870776295E+03  0.43885139495E+03  0.00000000000E+00 0. -1.
        -15    1    1    2    0    0 -0.24693008702E+01 -0.47008887885E+00 -0.37125735530E+02  0.37253139438E+02  0.17770000000E+01 0. -1.
         15    1    1    2    0    0  0.11141259486E+02  0.83861072359E+01 -0.21731916741E+02  0.25882202220E+02  0.17770000000E+01 0.  1.
</event>
<event>
 6    1  0.9144256E-004  0.5014940E+03  0.7546771E-02  0.9396473E-01
        -11   -1    0    0    0    0  0.00000000000E+00  0.00000000000E+00  0.50000000000E+03  0.50000000000E+03  0.00000000000E+00 0.  1.
         11   -1    0    0    0    0 -0.00000000000E+00 -0.00000000000E+00 -0.50000000000E+03  0.50000000000E+03  0.00000000000E+00 0.  1.
        -11    1    1    2    0    0 -0.84307693378E+01 -0.65137852577E+01  0.17659797616E+02  0.20624638708E+02  0.00000000000E+00 0.  1.
         11    1    1    2    0    0  0.13773545439E+02  0.11087949949E+02 -0.49819232774E+03  0.49850601663E+03  0.00000000000E+00 0.  1.
        -15    1    1    2    0    0 -0.45887148525E+01  0.54766756409E+01  0.15314343475E+03  0.15332031704E+03  0.17770000000E+01 0. -1.
         15    1    1    2    0    0 -0.75406124834E+00 -0.10050840332E+02  0.32738909538E+03  0.32754902763E+03  0.17770000000E+01 0.  1.
</event>
<event>
 6    1  0.9144256E-004  0.5043917E+03  0.7546771E-02  0.9390036E-01
        -11   -1    0    0    0    0  0.00000000000E+00  0.00000000000E+00  0.50000000000E+03  0.50000000000E+03  0.00000000000E+00 0. -1.
         11   -1    0    0    0    0 -0.00000000000E+00 -0.00000000000E+00 -0.50000000000E+03  0.50000000000E+03  0.00000000000E+00 0. -1.
        -11    1    1    2    0    0  0.40588896825E+02 -0.19474129535E+02  0.49355939975E+03  0.49560829427E+03  0.00000000000E+00 0. -1.
         11    1    1    2    0    0 -0.18557231085E+01  0.85093770127E+01 -0.25597543712E+03  0.25612355927E+03  0.00000000000E+00 0. -1.
        -15    1    1    2    0    0 -0.26122356131E+02  0.46679526687E+01 -0.23114507275E+03  0.23267008758E+03  0.17770000000E+01 0. -1.
         15    1    1    2    0    0 -0.12610817585E+02  0.62967998531E+01 -0.64388898834E+01  0.15598058869E+02  0.17770000000E+01 0.  1.
</event>
<event>
 6    1  0.9144256E-004  0.5016800E+03  0.7546771E-02  0.9396058E-01
        -11   -1    0    0    0    0  0.00000000000E+00  0.00000000000E+00  0.50000000000E+03  0.50000000000E+03  0.00000000000E+00 0. -1.
         11   -1    0    0    0    0 -0.00000000000E+00 -0.00000000000E+00 -0.50000000000E+03  0.50000000000E+03  0.00000000000E+00 0.  1.
        -11    1    1    2    0    0  0.11238336459E+02 -0.78596559998E+01  0.49813120935E+03  0.49831995357E+03  0.00000000000E+00 0. -1.
         11    1    1    2    0    0 -0.94016982420E+01 -0.54970944664E+01 -0.46411006444E+03  0.46423782902E+03  0.00000000000E+00 0.  1.
        -15    1    1    2    0    0 -0.23163007193E+01  0.75387449566E+01 -0.11158713052E+02  0.13779424172E+02  0.17770000000E+01 0.  1.
         15    1    1    2    0    0  0.47966250256E+00  0.58180055096E+01 -0.22862431862E+02  0.23662793239E+02  0.17770000000E+01 0. -1.
</event>
<event>
 6    1  0.9144256E-004  0.5000700E+03  0.7546771E-02  0.9399653E-01
        -11   -1    0    0    0    0  0.00000000000E+00  0.00000000000E+00  0.50000000000E+03  0.50000000000E+03  0.00000000000E+00 0. -1.
         11   -1    0    0    0    0 -0.00000000000E+00 -0.00000000000E+00 -0.50000000000E+03  0.50000000000E+03  0.00000000000E+00 0.  1.
        -11    1    1    2    0    0  0.44938852423E+00 -0.11016640685E+02  0.49980839649E+03  0.49992999662E+03  0.00000000000E+00 0. -1.
         11    1    1    2    0    0  0.28670642141E+01 -0.49230083224E+00 -0.10196311615E+03  0.10200460515E+03  0.00000000000E+00 0.  1.
        -15    1    1    2    0    0 -0.12402138802E+01  0.60365533165E+01 -0.13904839745E+03  0.13919623798E+03  0.17770000000E+01 0. -1.
         15    1    1    2    0    0 -0.20762388581E+01  0.54723882008E+01 -0.25879688290E+03  0.25886916024E+03  0.17770000000E+01 0.  1.
</event>
<event>
 6    1  0.9144256E-004  0.5066419E+03  0.7546771E-02  0.9385069E-01
        -11   -1    0    0    0    0  0.00000000000E+00  0.00000000000E+00  0.50000000000E+03  0.50000000000E+03  0.00000000000E+00 0. -1.
         11   -1    0    0    0    0 -0.00000000000E+00 -0.00000000000E+00 -0.50000000000E+03  0.50000000000E+03  0.00000000000E+00 0. -1.
        -11    1    1    2    0    0 -0.27779274279E+01  0.33480030795E+02  0.44095636567E+03  0.44223426571E+03  0.00000000000E+00 0. -1.
         11    1    1    2    0    0  0.72422014735E+01  0.20961434017E+01 -0.49330048757E+03  0.49335809949E+03  0.00000000000E+00 0. -1.
        -15    1    1    2    0    0 -0.89019527348E+00 -0.25393680498E+01  0.13054146062E+01  0.34788897671E+01  0.17770000000E+01 0.  1.
         15    1    1    2    0    0 -0.35740787721E+01 -0.33036806147E+02  0.51038707295E+02  0.60928745029E+02  0.17770000000E+01 0. -1.
</event>
<event>
 6    1  0.9144256E-004  0.5128860E+03  0.7546771E-02  0.9371429E-01
        -11   -1    0    0    0    0  0.00000000000E+00  0.00000000000E+00  0.50000000000E+03  0.50000000000E+03  0.00000000000E+00 0.  1.
         11   -1    0    0    0    0 -0.00000000000E+00 -0.00000000000E+00 -0.50000000000E+03  0.50000000000E+03  0.00000000000E+00 0.  1.
        -11    1    1    2    0    0 -0.34075974415E+01  0.24739234681E+02  0.48647339790E+03  0.48711395824E+03  0.00000000000E+00 0.  1.
         11    1    1    2    0    0  0.54688806176E+01 -0.43510557931E+01 -0.45535627739E+03  0.45540990294E+03  0.00000000000E+00 0.  1.
        -15    1    1    2    0    0  0.11706139704E+02 -0.15253511842E+02 -0.36850911944E+02  0.41603494690E+02  0.17770000000E+01 0.  1.
         15    1    1    2    0    0 -0.13767422880E+02 -0.51346670461E+01  0.57337914330E+01  0.15872644128E+02  0.17770000000E+01 0. -1.
</event>
<event>
 6    1  0.9144256E-004  0.5003163E+03  0.7546771E-02  0.9399102E-01
        -11   -1    0    0    0    0  0.00000000000E+00  0.00000000000E+00  0.50000000000E+03  0.50000000000E+03  0.00000000000E+00 0.  1.
         11   -1    0    0    0    0 -0.00000000000E+00 -0.00000000000E+00 -0.50000000000E+03  0.50000000000E+03  0.00000000000E+00 0.  1.
        -11    1    1    2    0    0 -0.15233077204E+00  0.81798793998E+01  0.17618212073E+03  0.17637197424E+03  0.00000000000E+00 0.  1.
         11    1    1    2    0    0 -0.62111169637E+01  0.47024834279E+01 -0.49962294993E+03  0.49968368337E+03  0.00000000000E+00 0.  1.
        -15    1    1    2    0    0  0.30951720282E+01  0.20555820693E+00  0.11758796903E+03  0.11764229908E+03  0.17770000000E+01 0.  1.
         15    1    1    2    0    0  0.32682757076E+01 -0.13087921035E+02  0.20585286017E+03  0.20630204331E+03  0.17770000000E+01 0. -1.
</event>
<event>
 6    1  0.9144256E-004  0.5027429E+03  0.7546771E-02  0.9393693E-01
        -11   -1    0    0    0    0  0.00000000000E+00  0.00000000000E+00  0.50000000000E+03  0.50000000000E+03  0.00000000000E+00 0.  1.
         11   -1    0    0    0    0 -0.00000000000E+00 -0.00000000000E+00 -0.50000000000E+03  0.50000000000E+03  0.00000000000E+00 0. -1.
        -11    1    1    2    0    0  0.36827697208E+02  0.33603948800E+00  0.49589136321E+03  0.49725711288E+03  0.00000000000E+00 0.  1.
         11    1    1    2    0    0 -0.73737632796E+01 -0.11843307482E+02 -0.37420868056E+03  0.37446865412E+03  0.00000000000E+00 0. -1.
        -15    1    1    2    0    0 -0.25590962079E+02  0.29555417024E+01 -0.53275982492E+02  0.59204059036E+02  0.17770000000E+01 0. -1.
         15    1    1    2    0    0 -0.38629718493E+01  0.85517262916E+01 -0.68406700163E+02  0.69070173956E+02  0.17770000000E+01 0.  1.
</event>
<event>
 6    1  0.9144256E-004  0.5008135E+03  0.7546771E-02  0.9397991E-01
        -11   -1    0    0    0    0  0.00000000000E+00  0.00000000000E+00  0.50000000000E+03  0.50000000000E+03  0.00000000000E+00 0. -1.
         11   -1    0    0    0    0 -0.00000000000E+00 -0.00000000000E+00 -0.50000000000E+03  0.50000000000E+03  0.00000000000E+00 0.  1.
        -11    1    1    2    0    0  0.29089677337E+01  0.88711664112E+01  0.49909917146E+03  0.49918648083E+03  0.00000000000E+00 0. -1.
         11    1    1    2    0    0  0.33884769192E+01  0.40831259575E+01 -0.35276037246E+03  0.35280027505E+03  0.00000000000E+00 0.  1.
        -15    1    1    2    0    0 -0.11270759198E+02 -0.11900522362E+02 -0.12020455217E+03  0.12132989960E+03  0.17770000000E+01 0.  1.
         15    1    1    2    0    0  0.49733145454E+01 -0.10537700071E+01 -0.26134246833E+02  0.26683344530E+02  0.17770000000E+01 0.  1.
</event>
<event>
 6    1  0.9144256E-004  0.5021069E+03  0.7546771E-02  0.9395108E-01
        -11   -1    0    0    0    0  0.00000000000E+00  0.00000000000E+00  0.50000000000E+03  0.50000000000E+03  0.00000000000E+00 0. -1.
         11   -1    0    0    0    0 -0.00000000000E+00 -0.00000000000E+00 -0.50000000000E+03  0.50000000000E+03  0.00000000000E+00 0.  1.
        -11    1    1    2    0    0  0.24753003225E+01 -0.11077449518E+02  0.42977248621E+03  0.42992234985E+03  0.00000000000E+00 0. -1.
         11    1    1    2    0    0 -0.89760003272E+01 -0.10733037764E+02 -0.49769644513E+03  0.49789307906E+03  0.00000000000E+00 0.  1.
        -15    1    1    2    0    0  0.13172308120E+01  0.11583314396E+02  0.44619262798E+02  0.46151322961E+02  0.17770000000E+01 0. -1.
         15    1    1    2    0    0  0.51834691927E+01  0.10227172887E+02  0.23304696120E+02  0.26033248133E+02  0.17770000000E+01 0.  1.
</event>
<event>
 6    1  0.9144256E-004  0.5002608E+03  0.7546771E-02  0.9399226E-01
        -11   -1    0    0    0    0  0.00000000000E+00  0.00000000000E+00  0.50000000000E+03  0.50000000000E+03  0.00000000000E+00 0.  1.
         11   -1    0    0    0    0 -0.00000000000E+00 -0.00000000000E+00 -0.50000000000E+03  0.50000000000E+03  0.00000000000E+00 0. -1.
        -11    1    1    2    0    0 -0.41087885016E+01 -0.29529056806E+01  0.22502863780E+03  0.22508551625E+03  0.00000000000E+00 0.  1.
         11    1    1    2    0    0 -0.39582661660E+01 -0.83674956136E+01 -0.49965341648E+03  0.49973915141E+03  0.00000000000E+00 0. -1.
        -15    1    1    2    0    0  0.73348970207E+01  0.84062373157E+01  0.25445788600E+03  0.25470853738E+03  0.17770000000E+01 0.  1.
         15    1    1    2    0    0  0.73215764694E+00  0.29141639784E+01  0.20166892685E+02  0.20466794963E+02  0.17770000000E+01 0. -1.
</event>
<event>
 6    1  0.9144256E-004  0.5160779E+03  0.7546771E-02  0.9364536E-01
        -11   -1    0    0    0    0  0.00000000000E+00  0.00000000000E+00  0.50000000000E+03  0.50000000000E+03  0.00000000000E+00 0. -1.
         11   -1    0    0    0    0 -0.00000000000E+00 -0.00000000000E+00 -0.50000000000E+03  0.50000000000E+03  0.00000000000E+00 0.  1.
        -11    1    1    2    0    0 -0.19601809449E+02  0.14431554112E+02  0.48330955520E+03  0.48392212890E+03  0.00000000000E+00 0. -1.
         11    1    1    2    0    0 -0.18724707742E+01  0.11683676538E+02 -0.46270794406E+03  0.46285921827E+03  0.00000000000E+00 0.  1.
        -15    1    1    2    0    0  0.12317855320E+02 -0.32383199668E+02 -0.66837331195E+01  0.35330315564E+02  0.17770000000E+01 0. -1.
         15    1    1    2    0    0  0.91564249033E+01  0.62679690176E+01 -0.13917878024E+02  0.17888337271E+02  0.17770000000E+01 0. -1.
</event>
<event>
 6    1  0.9144256E-004  0.5012422E+03  0.7546771E-02  0.9397034E-01
        -11   -1    0    0    0    0  0.00000000000E+00  0.00000000000E+00  0.50000000000E+03  0.50000000000E+03  0.00000000000E+00 0.  1.
         11   -1    0    0    0    0 -0.00000000000E+00 -0.00000000000E+00 -0.50000000000E+03  0.50000000000E+03  0.00000000000E+00 0.  1.
        -11    1    1    2    0    0  0.14125675367E+02  0.21891732019E+01  0.45525359177E+03  0.45547794678E+03  0.00000000000E+00 0.  1.
         11    1    1    2    0    0 -0.34522715380E+01 -0.78853836040E+01 -0.49868350684E+03  0.49875779437E+03  0.00000000000E+00 0.  1.
        -15    1    1    2    0    0 -0.80110233303E+01  0.70492221461E+00  0.29423597816E+02  0.30554529084E+02  0.17770000000E+01 0.  1.
         15    1    1    2    0    0 -0.26623804984E+01  0.49912881875E+01  0.14006317252E+02  0.15209729769E+02  0.17770000000E+01 0. -1.
</event>
<event>
 6    1  0.9144256E-004  0.5002389E+03  0.7546771E-02  0.9399275E-01
        -11   -1    0    0    0    0  0.00000000000E+00  0.00000000000E+00  0.50000000000E+03  0.50000000000E+03  0.00000000000E+00 0. -1.
         11   -1    0    0    0    0 -0.00000000000E+00 -0.00000000000E+00 -0.50000000000E+03  0.50000000000E+03  0.00000000000E+00 0.  1.
        -11    1    1    2    0    0 -0.39870091189E+01 -0.80895756473E+01  0.43886348482E+03  0.43895614335E+03  0.00000000000E+00 0. -1.
         11    1    1    2    0    0 -0.91722720588E+00  0.93369671674E+01 -0.49967306028E+03  0.49976113037E+03  0.00000000000E+00 0.  1.
        -15    1    1    2    0    0  0.16109668994E+01 -0.21032127292E+01  0.39622086291E+02  0.39750297725E+02  0.17770000000E+01 0. -1.
         15    1    1    2    0    0  0.32932694254E+01  0.85582120914E+00  0.21187489167E+02  0.21532428559E+02  0.17770000000E+01 0.  1.
</event>
<event>
 6    1  0.9144256E-004  0.5001371E+03  0.7546771E-02  0.9399503E-01
        -11   -1    0    0    0    0  0.00000000000E+00  0.00000000000E+00  0.50000000000E+03  0.50000000000E+03  0.00000000000E+00 0. -1.
         11   -1    0    0    0    0 -0.00000000000E+00 -0.00000000000E+00 -0.50000000000E+03  0.50000000000E+03  0.00000000000E+00 0. -1.
        -11    1    1    2    0    0  0.80677550354E+01 -0.12000226083E+02  0.49965366532E+03  0.49986286055E+03  0.00000000000E+00 0. -1.
         11    1    1    2    0    0  0.70126966016E+00  0.11419539125E+01 -0.66272682329E+02  0.66286229799E+02  0.00000000000E+00 0. -1.
        -15    1    1    2    0    0 -0.31888894012E+01  0.34706044336E+00 -0.22747911250E+02  0.23041585488E+02  0.17770000000E+01 0.  1.
         15    1    1    2    0    0 -0.55801352944E+01  0.10511211727E+02 -0.41063307174E+03  0.41080932416E+03  0.17770000000E+01 0. -1.
</event>
<event>
 6    1  0.9144256E-004  0.5011765E+03  0.7546771E-02  0.9397181E-01
        -11   -1    0    0    0    0  0.00000000000E+00  0.00000000000E+00  0.50000000000E+03  0.50000000000E+03  0.00000000000E+00 0.  1.
         11   -1    0    0    0    0 -0.00000000000E+00 -0.00000000000E+00 -0.50000000000E+03  0.50000000000E+03  0.00000000000E+00 0.  1.
        -11    1    1    2    0    0  0.64341369131E+00 -0.16124792344E+02  0.27455078924E+03  0.27502465123E+03  0.00000000000E+00 0.  1.
         11    1    1    2    0    0  0.69215919064E+01 -0.61476667209E+01 -0.49873759708E+03  0.49882350885E+03  0.00000000000E+00 0.  1.
        -15    1    1    2    0    0 -0.10992961872E+02  0.17997716051E+02  0.20576127048E+03  0.20684685434E+03  0.17770000000E+01 0. -1.
         15    1    1    2    0    0  0.34279562741E+01  0.42747430140E+01  0.18425537360E+02  0.19304985576E+02  0.17770000000E+01 0. -1.
</event>
<event>
 6    1  0.9144256E-004  0.5004145E+03  0.7546771E-02  0.9398883E-01
        -11   -1    0    0    0    0  0.00000000000E+00  0.00000000000E+00  0.50000000000E+03  0.50000000000E+03  0.00000000000E+00 0.  1.
         11   -1    0    0    0    0 -0.00000000000E+00 -0.00000000000E+00 -0.50000000000E+03  0.50000000000E+03  0.00000000000E+00 0.  1.
        -11    1    1    2    0    0  0.96774824006E+01 -0.69418441142E+00  0.28334036448E+03  0.28350643327E+03  0.00000000000E+00 0.  1.
         11    1    1    2    0    0  0.17669198394E+01  0.10670767012E+02 -0.49946839195E+03  0.49958549001E+03  0.00000000000E+00 0.  1.
        -15    1    1    2    0    0 -0.73874192413E+01 -0.77050857649E+01  0.19013810435E+03  0.19044578957E+03  0.17770000000E+01 0.  1.
         15    1    1    2    0    0 -0.40569829987E+01 -0.22714968352E+01  0.25989923110E+02  0.26462287150E+02  0.17770000000E+01 0. -1.
</event>
<event>
 6    1  0.9144256E-004  0.5002176E+03  0.7546771E-02  0.9399323E-01
        -11   -1    0    0    0    0  0.00000000000E+00  0.00000000000E+00  0.50000000000E+03  0.50000000000E+03  0.00000000000E+00 0. -1.
         11   -1    0    0    0    0 -0.00000000000E+00 -0.00000000000E+00 -0.50000000000E+03  0.50000000000E+03  0.00000000000E+00 0.  1.
        -11    1    1    2    0    0 -0.29510970588E+01  0.66424230026E+01  0.49972957331E+03  0.49978242986E+03  0.00000000000E+00 0. -1.
         11    1    1    2    0    0  0.67337529397E+01 -0.89170558954E+01 -0.34023118965E+03  0.34041462913E+03  0.00000000000E+00 0.  1.
        -15    1    1    2    0    0 -0.51390539415E+01 -0.41511744779E+00 -0.61241089654E+02  0.61483420439E+02  0.17770000000E+01 0. -1.
         15    1    1    2    0    0  0.13563980605E+01  0.26897503405E+01 -0.98257293998E+02  0.98319520572E+02  0.17770000000E+01 0.  1.
</event>
<event>
 6    1  0.9144256E-004  0.5003984E+03  0.7546771E-02  0.9398919E-01
        -11   -1    0    0    0    0  0.00000000000E+00  0.00000000000E+00  0.50000000000E+03  0.50000000000E+03  0.00000000000E+00 0. -1.
         11   -1    0    0    0    0 -0.00000000000E+00 -0.00000000000E+00 -0.50000000000E+03  0.50000000000E+03  0.00000000000E+00 0. -1.
        -11    1    1    2    0    0 -0.25049290848E+01  0.56784571539E+01  0.29104616976E+03  0.29111233652E+03  0.00000000000E+00 0. -1.
         11    1    1    2    0    0 -0.89712641636E+01 -0.57233110330E+00 -0.49952071205E+03  0.49960159418E+03  0.00000000000E+00 0. -1.
        -15    1    1    2    0    0  0.32864305788E+01 -0.57852432297E+00  0.12015264368E+02  0.12596016163E+02  0.17770000000E+01 0. -1.
         15    1    1    2    0    0  0.81897626696E+01 -0.45276017276E+01  0.19645927792E+03  0.19669005313E+03  0.17770000000E+01 0.  1.
</event>
<event>
 6    1  0.9144256E-004  0.5014657E+03  0.7546771E-02  0.9396536E-01
        -11   -1    0    0    0    0  0.00000000000E+00  0.00000000000E+00  0.50000000000E+03  0.50000000000E+03  0.00000000000E+00 0.  1.
         11   -1    0    0    0    0 -0.00000000000E+00 -0.00000000000E+00 -0.50000000000E+03  0.50000000000E+03  0.00000000000E+00 0.  1.
        -11    1    1    2    0    0  0.33621156614E+01 -0.36176743073E+02  0.14854940876E+03  0.15292804649E+03  0.00000000000E+00 0.  1.
         11    1    1    2    0    0 -0.67882047105E+01  0.40370164162E+02 -0.49685065186E+03  0.49853425171E+03  0.00000000000E+00 0.  1.
        -15    1    1    2    0    0 -0.32223527936E+01  0.14165114623E+01  0.99575961858E+02  0.99654001280E+02  0.17770000000E+01 0. -1.
         15    1    1    2    0    0  0.66484418426E+01 -0.56099325512E+01  0.24872528125E+03  0.24888370052E+03  0.17770000000E+01 0.  1.
</event>
<event>
 6    1  0.9144256E-004  0.5001891E+03  0.7546771E-02  0.9399387E-01
        -11   -1    0    0    0    0  0.00000000000E+00  0.00000000000E+00  0.50000000000E+03  0.50000000000E+03  0.00000000000E+00 0. -1.
         11   -1    0    0    0    0 -0.00000000000E+00 -0.00000000000E+00 -0.50000000000E+03  0.50000000000E+03  0.00000000000E+00 0.  1.
        -11    1    1    2    0    0 -0.13839451586E+02 -0.59321609529E+01  0.35401782866E+03  0.35433789518E+03  0.00000000000E+00 0. -1.
         11    1    1    2    0    0  0.10313865948E+02  0.24341071209E+01 -0.49969857652E+03  0.49981093234E+03  0.00000000000E+00 0.  1.
        -15    1    1    2    0    0  0.91041506212E-01  0.62811758958E+00  0.64592618395E+02  0.64620174097E+02  0.17770000000E+01 0. -1.
         15    1    1    2    0    0  0.34345441319E+01  0.28699362424E+01  0.81088129470E+02  0.81230998378E+02  0.17770000000E+01 0.  1.
</event>
<event>
 6    1  0.9144256E-004  0.5044522E+03  0.7546771E-02  0.9389902E-01
        -11   -1    0    0    0    0  0.00000000000E+00  0.00000000000E+00  0.50000000000E+03  0.50000000000E+03  0.00000000000E+00 0. -1.
         11   -1    0    0    0    0 -0.00000000000E+00 -0.00000000000E+00 -0.50000000000E+03  0.50000000000E+03  0.00000000000E+00 0. -1.
        -11    1    1    2    0    0  0.93297225202E+01  0.28717237684E+01  0.49545166928E+03  0.49554782525E+03  0.00000000000E+00 0. -1.
         11    1    1    2    0    0  0.19149419038E+01 -0.10803590505E+02 -0.48659201379E+03  0.48671569983E+03  0.00000000000E+00 0. -1.
        -15    1    1    2    0    0 -0.43251063719E+01  0.63404626075E+00 -0.48450022000E+01  0.67631601421E+01  0.17770000000E+01 0. -1.
         15    1    1    2    0    0 -0.69195580520E+01  0.72978204763E+01 -0.40146532829E+01  0.10973314783E+02  0.17770000000E+01 0.  1.
</event>
<event>
 6    1  0.9144256E-004  0.5024659E+03  0.7546771E-02  0.9394309E-01
        -11   -1    0    0    0    0  0.00000000000E+00  0.00000000000E+00  0.50000000000E+03  0.50000000000E+03  0.00000000000E+00 0. -1.
         11   -1    0    0    0    0 -0.00000000000E+00 -0.00000000000E+00 -0.50000000000E+03  0.50000000000E+03  0.00000000000E+00 0. -1.
        -11    1    1    2    0    0  0.11601178029E+02 -0.69007243228E+02  0.37736781024E+03  0.38380079618E+03  0.00000000000E+00 0. -1.
         11    1    1    2    0    0  0.26672542341E+01  0.58259553558E+02 -0.49410412675E+03  0.49753409722E+03  0.00000000000E+00 0. -1.
        -15    1    1    2    0    0 -0.85554777102E+01  0.12197157401E+02  0.76085348366E+02  0.77550659652E+02  0.17770000000E+01 0.  1.
         15    1    1    2    0    0 -0.57129545530E+01 -0.14494677316E+01  0.40650968152E+02  0.41114446939E+02  0.17770000000E+01 0. -1.
</event>
<event>
 6    1  0.9144256E-004  0.5271208E+03  0.7546771E-02  0.9341089E-01
        -11   -1    0    0    0    0  0.00000000000E+00  0.00000000000E+00  0.50000000000E+03  0.50000000000E+03  0.00000000000E+00 0.  1.
         11   -1    0    0    0    0 -0.00000000000E+00 -0.00000000000E+00 -0.50000000000E+03  0.50000000000E+03  0.00000000000E+00 0.  1.
        -11    1    1    2    0    0 -0.39380071409E+02  0.29863355400E+02  0.47028937415E+03  0.47287916581E+03  0.00000000000E+00 0.  1.
         11    1    1    2    0    0  0.42401930409E+00 -0.60409225834E+01 -0.43299294560E+03  0.43303529126E+03  0.00000000000E+00 0.  1.
        -15    1    1    2    0    0  0.22382845705E+02  0.24878959748E+02 -0.66116486241E+01  0.34158835556E+02  0.17770000000E+01 0. -1.
         15    1    1    2    0    0  0.16573206400E+02 -0.48701392565E+02 -0.30684779922E+02  0.59926707368E+02  0.17770000000E+01 0.  1.
</event>
<event>
 6    1  0.9144256E-004  0.5052134E+03  0.7546771E-02  0.9388219E-01
        -11   -1    0    0    0    0  0.00000000000E+00  0.00000000000E+00  0.50000000000E+03  0.50000000000E+03  0.00000000000E+00 0. -1.
         11   -1    0    0    0    0 -0.00000000000E+00 -0.00000000000E+00 -0.50000000000E+03  0.50000000000E+03  0.00000000000E+00 0.  1.
        -11    1    1    2    0    0  0.31732339617E+02 -0.22352106530E+02  0.45329426811E+03  0.45495302125E+03  0.00000000000E+00 0. -1.
         11    1    1    2    0    0 -0.15289396268E+02  0.40393963772E+01 -0.49453382611E+03  0.49478660808E+03  0.00000000000E+00 0.  1.
        -15    1    1    2    0    0 -0.29937590764E+01  0.12896112174E+02  0.13993069485E+02  0.19345180930E+02  0.17770000000E+01 0. -1.
         15    1    1    2    0    0 -0.13449184272E+02  0.54165979794E+01  0.27246488523E+02  0.30915189747E+02  0.17770000000E+01 0.  1.
</event>
<event>
 6    1  0.9144256E-004  0.4881426E+03  0.7546771E-02  0.9426739E-01
        -11   -1    0    0    0    0  0.00000000000E+00  0.00000000000E+00  0.50000000000E+03  0.50000000000E+03  0.00000000000E+00 0. -1.
         11   -1    0    0    0    0 -0.00000000000E+00 -0.00000000000E+00 -0.50000000000E+03  0.50000000000E+03  0.00000000000E+00 0. -1.
        -11    1    1    2    0    0 -0.12605660936E+02 -0.63192530925E+01  0.48300182574E+03  0.48320761513E+03  0.00000000000E+00 0. -1.
         11    1    1    2    0    0 -0.57150278013E+01  0.58965988611E+01 -0.49323487444E+03  0.49330322600E+03  0.00000000000E+00 0. -1.
        -15    1    1    2    0    0  0.98086220874E+01  0.39286946623E+01  0.90766503167E+01  0.14042329542E+02  0.17770000000E+01 0. -1.
         15    1    1    2    0    0  0.85120666499E+01 -0.35060404309E+01  0.11563983827E+01  0.94468293292E+01  0.17770000000E+01 0.  1.
</event>
<event>
 6    1  0.9144256E-004  0.5008087E+03  0.7546771E-02  0.9398002E-01
        -11   -1    0    0    0    0  0.00000000000E+00  0.00000000000E+00  0.50000000000E+03  0.50000000000E+03  0.00000000000E+00 0. -1.
         11   -1    0    0    0    0 -0.00000000000E+00 -0.00000000000E+00 -0.50000000000E+03  0.50000000000E+03  0.00000000000E+00 0. -1.
        -11    1    1    2    0    0 -0.13613004319E+02  0.69178492929E+01  0.74507715715E+02  0.76056362169E+02  0.00000000000E+00 0. -1.
         11    1    1    2    0    0  0.39917653657E+01 -0.76376036553E+01 -0.49911686884E+03  0.49919126188E+03  0.00000000000E+00 0. -1.
        -15    1    1    2    0    0  0.46027349536E+01  0.23189946440E+01  0.22267606587E+03  0.22274279100E+03  0.17770000000E+01 0. -1.
         15    1    1    2    0    0  0.50185039993E+01 -0.15992402816E+01  0.20193308726E+03  0.20200958494E+03  0.17770000000E+01 0. -1.
</event>
<event>
 6    1  0.9144256E-004  0.5124989E+03  0.7546771E-02  0.9372269E-01
        -11   -1    0    0    0    0  0.00000000000E+00  0.00000000000E+00  0.50000000000E+03  0.50000000000E+03  0.00000000000E+00 0.  1.
         11   -1    0    0    0    0 -0.00000000000E+00 -0.00000000000E+00 -0.50000000000E+03  0.50000000000E+03  0.00000000000E+00 0. -1.
        -11    1    1    2    0    0  0.77962938890E+02  0.28838708664E+03  0.29265749483E+03  0.41820299002E+03  0.00000000000E+00 0.  1.
         11    1    1    2    0    0 -0.11505849180E+03 -0.28695621687E+03 -0.37692836737E+03  0.48750109852E+03  0.00000000000E+00 0. -1.
        -15    1    1    2    0    0  0.39340425398E+01  0.65804515932E+01  0.11894518921E+02  0.14262410148E+02  0.17770000000E+01 0. -1.
         15    1    1    2    0    0  0.33161510373E+02 -0.80113213611E+01  0.72376353614E+02  0.80033501308E+02  0.17770000000E+01 0.  1.
</event>
<event>
 6    1  0.9144256E-004  0.5013792E+03  0.7546771E-02  0.9396729E-01
        -11   -1    0    0    0    0  0.00000000000E+00  0.00000000000E+00  0.50000000000E+03  0.50000000000E+03  0.00000000000E+00 0. -1.
         11   -1    0    0    0    0 -0.00000000000E+00 -0.00000000000E+00 -0.50000000000E+03  0.50000000000E+03  0.00000000000E+00 0. -1.
        -11    1    1    2    0    0  0.80623546118E+01  0.12168388566E+02  0.32662870650E+03  0.32695471116E+03  0.00000000000E+00 0. -1.
         11    1    1    2    0    0  0.10922640316E+02  0.20756579638E+01 -0.49849687625E+03  0.49862084599E+03  0.00000000000E+00 0. -1.
        -15    1    1    2    0    0 -0.22391325143E+01 -0.22878424500E+00  0.77234935025E+02  0.77288155457E+02  0.17770000000E+01 0. -1.
         15    1    1    2    0    0 -0.16745862413E+02 -0.14015262285E+02  0.94633234724E+02  0.97136287392E+02  0.17770000000E+01 0.  1.
</event>
<event>
 6    1  0.9144256E-004  0.5000891E+03  0.7546771E-02  0.9399610E-01
        -11   -1    0    0    0    0  0.00000000000E+00  0.00000000000E+00  0.50000000000E+03  0.50000000000E+03  0.00000000000E+00 0. -1.
         11   -1    0    0    0    0 -0.00000000000E+00 -0.00000000000E+00 -0.50000000000E+03  0.50000000000E+03  0.00000000000E+00 0. -1.
        -11    1    1    2    0    0 -0.26444539128E+01  0.47172229218E+01  0.20527499120E+03  0.20534621335E+03  0.00000000000E+00 0. -1.
         11    1    1    2    0    0 -0.65271738880E+01 -0.46093118398E+01 -0.49984703929E+03  0.49991090450E+03  0.00000000000E+00 0. -1.
        -15    1    1    2    0    0  0.39383942392E+01 -0.96464355193E+00  0.12250252157E+03  0.12258249062E+03  0.17770000000E+01 0. -1.
         15    1    1    2    0    0  0.52332335616E+01  0.85673246990E+00  0.17206952652E+03  0.17216039152E+03  0.17770000000E+01 0. -1.
</event>
<event>
 6    1  0.9144256E-004  0.5003958E+03  0.7546771E-02  0.9398925E-01
        -11   -1    0    0    0    0  0.00000000000E+00  0.00000000000E+00  0.50000000000E+03  0.50000000000E+03  0.00000000000E+00 0. -1.
         11   -1    0    0    0    0 -0.00000000000E+00 -0.00000000000E+00 -0.50000000000E+03  0.50000000000E+03  0.00000000000E+00 0. -1.
        -11    1    1    2    0    0  0.24209329324E+01 -0.10232747379E+02  0.39216230886E+03  0.39230325837E+03  0.00000000000E+00 0. -1.
         11    1    1    2    0    0  0.28838675181E+01  0.68536531164E+01 -0.49954886815E+03  0.49960420427E+03  0.00000000000E+00 0. -1.
        -15    1    1    2    0    0 -0.33610770087E+01 -0.33752829522E+01  0.44555785677E+02  0.44844900936E+02  0.17770000000E+01 0. -1.
         15    1    1    2    0    0 -0.19437234417E+01  0.67543772144E+01  0.62830773610E+02  0.63247636429E+02  0.17770000000E+01 0.  1.
</event>
<event>
 6    1  0.9144256E-004  0.5065169E+03  0.7546771E-02  0.9385345E-01
        -11   -1    0    0    0    0  0.00000000000E+00  0.00000000000E+00  0.50000000000E+03  0.50000000000E+03  0.00000000000E+00 0. -1.
         11   -1    0    0    0    0 -0.00000000000E+00 -0.00000000000E+00 -0.50000000000E+03  0.50000000000E+03  0.00000000000E+00 0.  1.
        -11    1    1    2    0    0 -0.12537501598E+02 -0.14170255400E+02  0.49312024370E+03  0.49348308971E+03  0.00000000000E+00 0. -1.
         11    1    1    2    0    0  0.47377147671E+01 -0.73465518679E+01 -0.47557381143E+03  0.47565414734E+03  0.00000000000E+00 0.  1.
        -15    1    1    2    0    0 -0.20490933862E+01  0.37810930063E+01 -0.54907219566E+01  0.71973053730E+01  0.17770000000E+01 0.  1.
         15    1    1    2    0    0  0.98488802173E+01  0.17735714261E+02 -0.12055710321E+02  0.23665457575E+02  0.17770000000E+01 0. -1.
</event>
<event>
 6    1  0.9144256E-004  0.4758768E+03  0.7546771E-02  0.9455466E-01
        -11   -1    0    0    0    0  0.00000000000E+00  0.00000000000E+00  0.50000000000E+03  0.50000000000E+03  0.00000000000E+00 0.  1.
         11   -1    0    0    0    0 -0.00000000000E+00 -0.00000000000E+00 -0.50000000000E+03  0.50000000000E+03  0.00000000000E+00 0.  1.
        -11    1    1    2    0    0 -0.38894840438E+02  0.14351758957E+02  0.24129610925E+02  0.47968945384E+02  0.00000000000E+00 0.  1.
         11    1    1    2    0    0  0.23309391825E+02  0.13856581905E+01 -0.48705844479E+03  0.48761785902E+03  0.00000000000E+00 0.  1.
        -15    1    1    2    0    0 -0.10181119952E+00 -0.12720905616E+02  0.70843599347E+02  0.71998646533E+02  0.17770000000E+01 0.  1.
         15    1    1    2    0    0  0.15687259812E+02 -0.30165115319E+01  0.39208523452E+03  0.39241454906E+03  0.17770000000E+01 0. -1.
</event>
<event>
 6    1  0.9144256E-004  0.4681268E+03  0.7546771E-02  0.9474096E-01
        -11   -1    0    0    0    0  0.00000000000E+00  0.00000000000E+00  0.50000000000E+03  0.50000000000E+03  0.00000000000E+00 0.  1.
         11   -1    0    0    0    0 -0.00000000000E+00 -0.00000000000E+00 -0.50000000000E+03  0.50000000000E+03  0.00000000000E+00 0. -1.
        -11    1    1    2    0    0  0.25539975602E+02 -0.29611022000E+02  0.46870988291E+03  0.47033823714E+03  0.00000000000E+00 0.  1.
         11    1    1    2    0    0 -0.11839132880E+02 -0.29737341933E+02 -0.46680041692E+03  0.46789646698E+03  0.00000000000E+00 0. -1.
        -15    1    1    2    0    0 -0.11975708790E+02  0.55539477228E+02 -0.17266627470E-01  0.56843725765E+02  0.17770000000E+01 0.  1.
         15    1    1    2    0    0 -0.17251339318E+01  0.38088867063E+01 -0.18921993603E+01  0.49215701197E+01  0.17770000000E+01 0. -1.
</event>
<event>
 6    1  0.9144256E-004  0.5002258E+03  0.7546771E-02  0.9399305E-01
        -11   -1    0    0    0    0  0.00000000000E+00  0.00000000000E+00  0.50000000000E+03  0.50000000000E+03  0.00000000000E+00 0.  1.
         11   -1    0    0    0    0 -0.00000000000E+00 -0.00000000000E+00 -0.50000000000E+03  0.50000000000E+03  0.00000000000E+00 0. -1.
        -11    1    1    2    0    0 -0.62964857701E+01  0.22433836501E+02  0.49923074551E+03  0.49977420904E+03  0.00000000000E+00 0.  1.
         11    1    1    2    0    0 -0.22313835066E+01  0.16950105644E+01 -0.63369892973E+02  0.63431817478E+02  0.00000000000E+00 0. -1.
        -15    1    1    2    0    0  0.83386018592E+00 -0.12811975156E+02 -0.13614118531E+03  0.13675679909E+03  0.17770000000E+01 0. -1.
         15    1    1    2    0    0  0.76940090908E+01 -0.11316871909E+02 -0.29971966723E+03  0.30003717439E+03  0.17770000000E+01 0.  1.
</event>
<event>
 6    1  0.9144256E-004  0.4897002E+03  0.7546771E-02  0.9423156E-01
        -11   -1    0    0    0    0  0.00000000000E+00  0.00000000000E+00  0.50000000000E+03  0.50000000000E+03  0.00000000000E+00 0. -1.
         11   -1    0    0    0    0 -0.00000000000E+00 -0.00000000000E+00 -0.50000000000E+03  0.50000000000E+03  0.00000000000E+00 0. -1.
        -11    1    1    2    0    0 -0.18241578168E+02  0.83020678987E+01 -0.60102555329E+01  0.20923734778E+02  0.00000000000E+00 0. -1.
         11    1    1    2    0    0  0.73144020970E+01  0.15466142503E+01 -0.48612225180E+03  0.48617973650E+03  0.00000000000E+00 0. -1.
        -15    1    1    2    0    0 -0.56407125273E+01  0.27483805682E+01  0.12592057644E+03  0.12608933553E+03  0.17770000000E+01 0.  1.
         15    1    1    2    0    0  0.16567888599E+02 -0.12597062717E+02  0.36621193089E+03  0.36680719319E+03  0.17770000000E+01 0. -1.
</event>
<event>
 6    1  0.9144256E-004  0.5002250E+03  0.7546771E-02  0.9399306E-01
        -11   -1    0    0    0    0  0.00000000000E+00  0.00000000000E+00  0.50000000000E+03  0.50000000000E+03  0.00000000000E+00 0. -1.
         11   -1    0    0    0    0 -0.00000000000E+00 -0.00000000000E+00 -0.50000000000E+03  0.50000000000E+03  0.00000000000E+00 0. -1.
        -11    1    1    2    0    0 -0.14680993131E+02 -0.85841322049E+01  0.22353824787E+03  0.22418422591E+03  0.00000000000E+00 0. -1.
         11    1    1    2    0    0  0.13198178644E+02  0.12715914105E+02 -0.49943884544E+03  0.49977499610E+03  0.00000000000E+00 0. -1.
        -15    1    1    2    0    0 -0.11026267119E+01 -0.25184915188E+01  0.22235570003E+03  0.22237979596E+03  0.17770000000E+01 0. -1.
         15    1    1    2    0    0  0.25854411983E+01 -0.16132903813E+01  0.53544897539E+02  0.53660982040E+02  0.17770000000E+01 0.  1.
</event>
<event>
 6    1  0.9144256E-004  0.5003272E+03  0.7546771E-02  0.9399078E-01
        -11   -1    0    0    0    0  0.00000000000E+00  0.00000000000E+00  0.50000000000E+03  0.50000000000E+03  0.00000000000E+00 0.  1.
         11   -1    0    0    0    0 -0.00000000000E+00 -0.00000000000E+00 -0.50000000000E+03  0.50000000000E+03  0.00000000000E+00 0. -1.
        -11    1    1    2    0    0  0.79590787695E+01  0.12876525693E+02  0.49944345657E+03  0.49967281110E+03  0.00000000000E+00 0.  1.
         11    1    1    2    0    0  0.50297416304E+01 -0.41880158633E+01 -0.27802195967E+03  0.27809898927E+03  0.00000000000E+00 0. -1.
        -15    1    1    2    0    0 -0.13311352919E+02 -0.43093500630E+01 -0.15659122078E+03  0.15722509586E+03  0.17770000000E+01 0. -1.
         15    1    1    2    0    0  0.32253251890E+00 -0.43791597665E+01 -0.64830276120E+02  0.65003103759E+02  0.17770000000E+01 0.  1.
</event>
<event>
 6    1  0.9144256E-004  0.4938216E+03  0.7546771E-02  0.9413742E-01
        -11   -1    0    0    0    0  0.00000000000E+00  0.00000000000E+00  0.50000000000E+03  0.50000000000E+03  0.00000000000E+00 0.  1.
         11   -1    0    0    0    0 -0.00000000000E+00 -0.00000000000E+00 -0.50000000000E+03  0.50000000000E+03  0.00000000000E+00 0. -1.
        -11    1    1    2    0    0 -0.85724993322E+01  0.10369372935E+02 -0.37548371478E+01  0.13968193937E+02  0.00000000000E+00 0.  1.
         11    1    1    2    0    0  0.12533913627E+02 -0.14693322616E+02 -0.49007879138E+03  0.49045918737E+03  0.00000000000E+00 0. -1.
        -15    1    1    2    0    0  0.92085104165E+01 -0.10382092101E+02  0.76518204703E+02  0.77786746174E+02  0.17770000000E+01 0. -1.
         15    1    1    2    0    0 -0.13169924712E+02  0.14706041782E+02  0.41731542382E+03  0.41778587251E+03  0.17770000000E+01 0.  1.
</event>
<event>
 6    1  0.9144256E-004  0.5010641E+03  0.7546771E-02  0.9397432E-01
        -11   -1    0    0    0    0  0.00000000000E+00  0.00000000000E+00  0.50000000000E+03  0.50000000000E+03  0.00000000000E+00 0. -1.
         11   -1    0    0    0    0 -0.00000000000E+00 -0.00000000000E+00 -0.50000000000E+03  0.50000000000E+03  0.00000000000E+00 0. -1.
        -11    1    1    2    0    0 -0.38394597656E+01  0.18899164843E+02  0.23486386103E+03  0.23565430847E+03  0.00000000000E+00 0. -1.
         11    1    1    2    0    0  0.12339616445E+02 -0.69031403178E+01 -0.49873550890E+03  0.49893589500E+03  0.00000000000E+00 0. -1.
        -15    1    1    2    0    0 -0.39282858625E+01 -0.17651524448E+02  0.23019773365E+03  0.23091375457E+03  0.17770000000E+01 0. -1.
         15    1    1    2    0    0 -0.45718708168E+01  0.56554999222E+01  0.33673914228E+02  0.34496041955E+02  0.17770000000E+01 0.  1.
</event>
<event>
 6    1  0.9144256E-004  0.4884945E+03  0.7546771E-02  0.9425929E-01
        -11   -1    0    0    0    0  0.00000000000E+00  0.00000000000E+00  0.50000000000E+03  0.50000000000E+03  0.00000000000E+00 0. -1.
         11   -1    0    0    0    0 -0.00000000000E+00 -0.00000000000E+00 -0.50000000000E+03  0.50000000000E+03  0.00000000000E+00 0.  1.
        -11    1    1    2    0    0 -0.11604190353E+02 -0.40956443639E+01  0.49043775239E+03  0.49059211215E+03  0.00000000000E+00 0. -1.
         11    1    1    2    0    0  0.20893697941E+01  0.13094334275E+02 -0.48631263547E+03  0.48649337762E+03  0.00000000000E+00 0.  1.
        -15    1    1    2    0    0  0.10712618604E+01 -0.70098646915E+01  0.60044839272E+01  0.94603044982E+01  0.17770000000E+01 0.  1.
         15    1    1    2    0    0  0.84435586982E+01 -0.19888252192E+01 -0.10129600852E+02  0.13454205724E+02  0.17770000000E+01 0. -1.
</event>
<event>
 6    1  0.9144256E-004  0.5001312E+03  0.7546771E-02  0.9399516E-01
        -11   -1    0    0    0    0  0.00000000000E+00  0.00000000000E+00  0.50000000000E+03  0.50000000000E+03  0.00000000000E+00 0.  1.
         11   -1    0    0    0    0 -0.00000000000E+00 -0.00000000000E+00 -0.50000000000E+03  0.50000000000E+03  0.00000000000E+00 0. -1.
        -11    1    1    2    0    0 -0.71906793367E+01  0.32215287613E+01  0.49980669614E+03  0.49986880041E+03  0.00000000000E+00 0.  1.
         11    1    1    2    0    0  0.22734754347E+01  0.46604969592E+01 -0.22529654771E+03  0.22535621432E+03  0.00000000000E+00 0. -1.
        -15    1    1    2    0    0  0.34602485792E+01 -0.36040403105E+01 -0.67532192013E+02  0.67740070224E+02  0.17770000000E+01 0. -1.
         15    1    1    2    0    0  0.14569553229E+01 -0.42779854100E+01 -0.20697795642E+03  0.20703491505E+03  0.17770000000E+01 0.  1.
</event>
<event>
 6    1  0.9144256E-004  0.5013361E+03  0.7546771E-02  0.9396825E-01
        -11   -1    0    0    0    0  0.00000000000E+00  0.00000000000E+00  0.50000000000E+03  0.50000000000E+03  0.00000000000E+00 0. -1.
         11   -1    0    0    0    0 -0.00000000000E+00 -0.00000000000E+00 -0.50000000000E+03  0.50000000000E+03  0.00000000000E+00 0.  1.
        -11    1    1    2    0    0  0.10533813092E+02 -0.17253054970E+02  0.49825404930E+03  0.49866394172E+03  0.00000000000E+00 0. -1.
         11    1    1    2    0    0 -0.50642566998E+01  0.46861961450E+01 -0.46156396981E+03  0.46161553847E+03  0.00000000000E+00 0.  1.
        -15    1    1    2    0    0 -0.16638899610E+00  0.71596611553E+01 -0.19608361318E+02  0.20950751674E+02  0.17770000000E+01 0. -1.
         15    1    1    2    0    0 -0.53031673957E+01  0.54071976696E+01 -0.17081718179E+02  0.18769768140E+02  0.17770000000E+01 0.  1.
</event>
<event>
 6    1  0.9144256E-004  0.4746260E+03  0.7546771E-02  0.9458447E-01
        -11   -1    0    0    0    0  0.00000000000E+00  0.00000000000E+00  0.50000000000E+03  0.50000000000E+03  0.00000000000E+00 0. -1.
         11   -1    0    0    0    0 -0.00000000000E+00 -0.00000000000E+00 -0.50000000000E+03  0.50000000000E+03  0.00000000000E+00 0.  1.
        -11    1    1    2    0    0  0.42619919388E+02 -0.33159390378E+01  0.47852139095E+03  0.48042707519E+03  0.00000000000E+00 0. -1.
         11    1    1    2    0    0 -0.45608230732E+01 -0.12443871432E+02 -0.46957352504E+03  0.46976052033E+03  0.00000000000E+00 0.  1.
        -15    1    1    2    0    0 -0.31398767808E+02  0.36757892148E+01 -0.14510413437E+02  0.34829640729E+02  0.17770000000E+01 0.  1.
         15    1    1    2    0    0 -0.66603285068E+01  0.12084021255E+02  0.55625475340E+01  0.14982763749E+02  0.17770000000E+01 0. -1.
</event>
<event>
 6    1  0.9144256E-004  0.5006109E+03  0.7546771E-02  0.9398444E-01
        -11   -1    0    0    0    0  0.00000000000E+00  0.00000000000E+00  0.50000000000E+03  0.50000000000E+03  0.00000000000E+00 0. -1.
         11   -1    0    0    0    0 -0.00000000000E+00 -0.00000000000E+00 -0.50000000000E+03  0.50000000000E+03  0.00000000000E+00 0.  1.
        -11    1    1    2    0    0  0.13015364512E+02 -0.84446021831E+01  0.44603396044E+03  0.44630371372E+03  0.00000000000E+00 0. -1.
         11    1    1    2    0    0 -0.48796751085E+01  0.46867703662E+01 -0.49934326068E+03  0.49938909583E+03  0.00000000000E+00 0.  1.
        -15    1    1    2    0    0 -0.59289098821E+01  0.11027096222E+01  0.37796667051E+02  0.38315971997E+02  0.17770000000E+01 0.  1.
         15    1    1    2    0    0 -0.22067795219E+01  0.26551221947E+01  0.15512633197E+02  0.15991218448E+02  0.17770000000E+01 0. -1.
</event>
<event>
 6    1  0.9144256E-004  0.5025356E+03  0.7546771E-02  0.9394154E-01
        -11   -1    0    0    0    0  0.00000000000E+00  0.00000000000E+00  0.50000000000E+03  0.50000000000E+03  0.00000000000E+00 0. -1.
         11   -1    0    0    0    0 -0.00000000000E+00 -0.00000000000E+00 -0.50000000000E+03  0.50000000000E+03  0.00000000000E+00 0. -1.
        -11    1    1    2    0    0  0.22049534169E+02 -0.11585845008E+02  0.35356295423E+03  0.35443924214E+03  0.00000000000E+00 0. -1.
         11    1    1    2    0    0  0.68477613015E+01  0.16157345953E+02 -0.49715477024E+03  0.49746438791E+03  0.00000000000E+00 0. -1.
        -15    1    1    2    0    0 -0.20762683971E+02  0.68668382404E+01  0.93935495723E+02  0.96463866804E+02  0.17770000000E+01 0.  1.
         15    1    1    2    0    0 -0.81346114994E+01 -0.11438339185E+02  0.49656320292E+02  0.51632503149E+02  0.17770000000E+01 0. -1.
</event>
<event>
 6    1  0.9144256E-004  0.5015100E+03  0.7546771E-02  0.9396437E-01
        -11   -1    0    0    0    0  0.00000000000E+00  0.00000000000E+00  0.50000000000E+03  0.50000000000E+03  0.00000000000E+00 0. -1.
         11   -1    0    0    0    0 -0.00000000000E+00 -0.00000000000E+00 -0.50000000000E+03  0.50000000000E+03  0.00000000000E+00 0.  1.
        -11    1    1    2    0    0 -0.41017098136E+01  0.89960117277E+01  0.43546742573E+03  0.43557964958E+03  0.00000000000E+00 0. -1.
         11    1    1    2    0    0 -0.81082379289E+01  0.64040111470E+00 -0.49842363640E+03  0.49848999485E+03  0.00000000000E+00 0.  1.
        -15    1    1    2    0    0  0.75094231397E+01 -0.27006441071E+01  0.13852071895E+02  0.16084854344E+02  0.17770000000E+01 0. -1.
         15    1    1    2    0    0  0.47005246028E+01 -0.69357687353E+01  0.49104138774E+02  0.49845501234E+02  0.17770000000E+01 0.  1.
</event>
<event>
 6    1  0.9144256E-004  0.5005128E+03  0.7546771E-02  0.9398663E-01
        -11   -1    0    0    0    0  0.00000000000E+00  0.00000000000E+00  0.50000000000E+03  0.50000000000E+03  0.00000000000E+00 0.  1.
         11   -1    0    0    0    0 -0.00000000000E+00 -0.00000000000E+00 -0.50000000000E+03  0.50000000000E+03  0.00000000000E+00 0. -1.
        -11    1    1    2    0    0  0.75321539791E+01 -0.15827823281E+02  0.49917950589E+03  0.49948716944E+03  0.00000000000E+00 0.  1.
         11    1    1    2    0    0  0.52817102657E+01  0.41932295960E-01 -0.31305171038E+03  0.31309626570E+03  0.00000000000E+00 0. -1.
        -15    1    1    2    0    0 -0.10693967617E+02  0.95693781736E+01 -0.10288871330E+03  0.10389985079E+03  0.17770000000E+01 0.  1.
         15    1    1    2    0    0 -0.21198966280E+01  0.62165128114E+01 -0.83239082213E+02  0.83516714075E+02  0.17770000000E+01 0. -1.
</event>
<event>
 6    1  0.9144256E-004  0.5026683E+03  0.7546771E-02  0.9393859E-01
        -11   -1    0    0    0    0  0.00000000000E+00  0.00000000000E+00  0.50000000000E+03  0.50000000000E+03  0.00000000000E+00 0.  1.
         11   -1    0    0    0    0 -0.00000000000E+00 -0.00000000000E+00 -0.50000000000E+03  0.50000000000E+03  0.00000000000E+00 0. -1.
        -11    1    1    2    0    0  0.13978218886E+02 -0.97910095532E+00  0.49713429046E+03  0.49733173234E+03  0.00000000000E+00 0.  1.
         11    1    1    2    0    0 -0.62593374528E+01 -0.65039152721E+01 -0.47884579230E+03  0.47893086456E+03  0.00000000000E+00 0. -1.
        -15    1    1    2    0    0 -0.86816529280E+01  0.89072878375E+01 -0.16196252412E+02  0.20498468122E+02  0.17770000000E+01 0. -1.
         15    1    1    2    0    0  0.96277149518E+00 -0.14242716101E+01 -0.20922457418E+01  0.32389349816E+01  0.17770000000E+01 0. -1.
</event>
<event>
 6    1  0.9144256E-004  0.5012741E+03  0.7546771E-02  0.9396963E-01
        -11   -1    0    0    0    0  0.00000000000E+00  0.00000000000E+00  0.50000000000E+03  0.50000000000E+03  0.00000000000E+00 0. -1.
         11   -1    0    0    0    0 -0.00000000000E+00 -0.00000000000E+00 -0.50000000000E+03  0.50000000000E+03  0.00000000000E+00 0.  1.
        -11    1    1    2    0    0 -0.47942666615E+01  0.17600938069E+02  0.26177694962E+03  0.26241179350E+03  0.00000000000E+00 0. -1.
         11    1    1    2    0    0 -0.18269914683E+02 -0.29191577328E+01 -0.49838256652E+03  0.49872587047E+03  0.00000000000E+00 0.  1.
        -15    1    1    2    0    0  0.15767660476E+02 -0.36608006552E+01  0.17871706302E+03  0.17945742371E+03  0.17770000000E+01 0.  1.
         15    1    1    2    0    0  0.72965208688E+01 -0.11020979681E+02  0.57888553873E+02  0.59404912326E+02  0.17770000000E+01 0. -1.
</event>
<event>
 6    1  0.9144256E-004  0.5003971E+03  0.7546771E-02  0.9398922E-01
        -11   -1    0    0    0    0  0.00000000000E+00  0.00000000000E+00  0.50000000000E+03  0.50000000000E+03  0.00000000000E+00 0. -1.
         11   -1    0    0    0    0 -0.00000000000E+00 -0.00000000000E+00 -0.50000000000E+03  0.50000000000E+03  0.00000000000E+00 0. -1.
        -11    1    1    2    0    0  0.60837855069E+01 -0.23204116088E+01  0.39095484850E+03  0.39100906680E+03  0.00000000000E+00 0. -1.
         11    1    1    2    0    0 -0.43193748000E+00  0.89526789896E+01 -0.49952244555E+03  0.49960285291E+03  0.00000000000E+00 0. -1.
        -15    1    1    2    0    0 -0.35221752211E+01 -0.35200957426E+00  0.76077517501E+02  0.76180548877E+02  0.17770000000E+01 0.  1.
         15    1    1    2    0    0 -0.21296728058E+01 -0.62802578066E+01  0.32490079551E+02  0.33207531414E+02  0.17770000000E+01 0. -1.
</event>
<event>
 6    1  0.9144256E-004  0.5011050E+03  0.7546771E-02  0.9397340E-01
        -11   -1    0    0    0    0  0.00000000000E+00  0.00000000000E+00  0.50000000000E+03  0.50000000000E+03  0.00000000000E+00 0. -1.
         11   -1    0    0    0    0 -0.00000000000E+00 -0.00000000000E+00 -0.50000000000E+03  0.50000000000E+03  0.00000000000E+00 0.  1.
        -11    1    1    2    0    0 -0.13911114342E+02 -0.21737162630E+01  0.44216850317E+03  0.44239261900E+03  0.00000000000E+00 0. -1.
         11    1    1    2    0    0  0.64882854009E+01 -0.25628401285E+01 -0.49884617462E+03  0.49889495079E+03  0.00000000000E+00 0.  1.
        -15    1    1    2    0    0 -0.31968474730E+01  0.27675734132E+00  0.13771309168E+02  0.14251424967E+02  0.17770000000E+01 0. -1.
         15    1    1    2    0    0  0.10619676414E+02  0.44597990501E+01  0.42906362276E+02  0.44461005246E+02  0.17770000000E+01 0.  1.
</event>
<event>
 6    1  0.9144256E-004  0.4958396E+03  0.7546771E-02  0.9409167E-01
        -11   -1    0    0    0    0  0.00000000000E+00  0.00000000000E+00  0.50000000000E+03  0.50000000000E+03  0.00000000000E+00 0. -1.
         11   -1    0    0    0    0 -0.00000000000E+00 -0.00000000000E+00 -0.50000000000E+03  0.50000000000E+03  0.00000000000E+00 0. -1.
        -11    1    1    2    0    0  0.29173943631E+01  0.81527089382E+01 -0.29494131629E+01  0.91475073602E+01  0.00000000000E+00 0. -1.
         11    1    1    2    0    0 -0.89763874178E+01 -0.78355224144E+01 -0.49342784520E+03  0.49357168615E+03  0.00000000000E+00 0. -1.
        -15    1    1    2    0    0  0.55122424208E+01  0.12549643916E+02  0.36506849277E+03  0.36533004328E+03  0.17770000000E+01 0. -1.
         15    1    1    2    0    0  0.54675063387E+00 -0.12866830440E+02  0.13130876560E+03  0.13195076322E+03  0.17770000000E+01 0.  1.
</event>
<event>
 6    1  0.9144256E-004  0.5004653E+03  0.7546771E-02  0.9398769E-01
        -11   -1    0    0    0    0  0.00000000000E+00  0.00000000000E+00  0.50000000000E+03  0.50000000000E+03  0.00000000000E+00 0.  1.
         11   -1    0    0    0    0 -0.00000000000E+00 -0.00000000000E+00 -0.50000000000E+03  0.50000000000E+03  0.00000000000E+00 0.  1.
        -11    1    1    2    0    0 -0.53229258222E+01 -0.66690105987E+01  0.34497089867E+03  0.34507641208E+03  0.00000000000E+00 0.  1.
         11    1    1    2    0    0  0.19787116130E+01  0.11174625988E+02 -0.49940574136E+03  0.49953466554E+03  0.00000000000E+00 0.  1.
        -15    1    1    2    0    0 -0.44583398363E+01 -0.59937541418E+01  0.10574532219E+03  0.10602373685E+03  0.17770000000E+01 0. -1.
         15    1    1    2    0    0  0.78025540454E+01  0.14881387520E+01  0.48689520507E+02  0.49365185534E+02  0.17770000000E+01 0.  1.
</event>
<event>
 6    1  0.9144256E-004  0.5005189E+03  0.7546771E-02  0.9398649E-01
        -11   -1    0    0    0    0  0.00000000000E+00  0.00000000000E+00  0.50000000000E+03  0.50000000000E+03  0.00000000000E+00 0.  1.
         11   -1    0    0    0    0 -0.00000000000E+00 -0.00000000000E+00 -0.50000000000E+03  0.50000000000E+03  0.00000000000E+00 0.  1.
        -11    1    1    2    0    0  0.13795089692E+02  0.61657042993E+01  0.35106210812E+03  0.35138714286E+03  0.00000000000E+00 0.  1.
         11    1    1    2    0    0 -0.37919952230E+01 -0.76479744242E+01 -0.49940819634E+03  0.49948114810E+03  0.00000000000E+00 0.  1.
        -15    1    1    2    0    0 -0.86495865129E+01  0.56516304577E+01  0.10871709350E+03  0.10922142840E+03  0.17770000000E+01 0.  1.
         15    1    1    2    0    0 -0.13535079562E+01 -0.41693603328E+01  0.39628994716E+02  0.39910280638E+02  0.17770000000E+01 0.  1.
</event>
<event>
 6    1  0.9144256E-004  0.4664835E+03  0.7546771E-02  0.9478096E-01
        -11   -1    0    0    0    0  0.00000000000E+00  0.00000000000E+00  0.50000000000E+03  0.50000000000E+03  0.00000000000E+00 0. -1.
         11   -1    0    0    0    0 -0.00000000000E+00 -0.00000000000E+00 -0.50000000000E+03  0.50000000000E+03  0.00000000000E+00 0. -1.
        -11    1    1    2    0    0 -0.33016560201E+01 -0.69140585530E+02  0.47322955205E+03  0.47826512567E+03  0.00000000000E+00 0. -1.
         11    1    1    2    0    0 -0.17148265544E+01  0.83381532338E+01 -0.45676023485E+03  0.45683955342E+03  0.00000000000E+00 0. -1.
        -15    1    1    2    0    0  0.48329344184E+01  0.13505006614E+02  0.89108965805E+00  0.14480822784E+02  0.17770000000E+01 0. -1.
         15    1    1    2    0    0  0.18354815611E+00  0.47297425682E+02 -0.17360406856E+02  0.50414498126E+02  0.17770000000E+01 0.  1.
</event>
<event>
 6    1  0.9144256E-004  0.4829870E+03  0.7546771E-02  0.9438703E-01
        -11   -1    0    0    0    0  0.00000000000E+00  0.00000000000E+00  0.50000000000E+03  0.50000000000E+03  0.00000000000E+00 0.  1.
         11   -1    0    0    0    0 -0.00000000000E+00 -0.00000000000E+00 -0.50000000000E+03  0.50000000000E+03  0.00000000000E+00 0.  1.
        -11    1    1    2    0    0  0.15212436992E+02  0.98318488632E+01  0.47696234649E+03  0.47730615275E+03  0.00000000000E+00 0.  1.
         11    1    1    2    0    0 -0.81635948390E+01  0.10976139076E+02 -0.48879881591E+03  0.48899018635E+03  0.00000000000E+00 0.  1.
        -15    1    1    2    0    0 -0.88515482808E+01 -0.14042530260E+02  0.17750780958E+02  0.24367817232E+02  0.17770000000E+01 0.  1.
         15    1    1    2    0    0  0.18027061275E+01 -0.67654576801E+01 -0.59143115347E+01  0.93358436647E+01  0.17770000000E+01 0. -1.
</event>
<event>
 6    1  0.9144256E-004  0.5125419E+03  0.7546771E-02  0.9372176E-01
        -11   -1    0    0    0    0  0.00000000000E+00  0.00000000000E+00  0.50000000000E+03  0.50000000000E+03  0.00000000000E+00 0. -1.
         11   -1    0    0    0    0 -0.00000000000E+00 -0.00000000000E+00 -0.50000000000E+03  0.50000000000E+03  0.00000000000E+00 0. -1.
        -11    1    1    2    0    0  0.14984131526E+01  0.54871943603E+02  0.19702709749E+03  0.20453081084E+03  0.00000000000E+00 0. -1.
         11    1    1    2    0    0 -0.14010850976E+02  0.26242729038E+02 -0.48654952867E+03  0.48745813012E+03  0.00000000000E+00 0. -1.
        -15    1    1    2    0    0 -0.11728289825E+02  0.45946444735E+01  0.69178575096E+02  0.70338442699E+02  0.17770000000E+01 0.  1.
         15    1    1    2    0    0  0.24240727648E+02 -0.85709317114E+02  0.22034385608E+03  0.23767261634E+03  0.17770000000E+01 0. -1.
</event>
<event>
 6    1  0.9144256E-004  0.5002087E+03  0.7546771E-02  0.9399343E-01
        -11   -1    0    0    0    0  0.00000000000E+00  0.00000000000E+00  0.50000000000E+03  0.50000000000E+03  0.00000000000E+00 0.  1.
         11   -1    0    0    0    0 -0.00000000000E+00 -0.00000000000E+00 -0.50000000000E+03  0.50000000000E+03  0.00000000000E+00 0.  1.
        -11    1    1    2    0    0 -0.21040596294E+01  0.54463006744E+01  0.35649117724E+03  0.35653898624E+03  0.00000000000E+00 0.  1.
         11    1    1    2    0    0 -0.50293839767E+01 -0.70746474016E+01 -0.49971595091E+03  0.49979133339E+03  0.00000000000E+00 0.  1.
        -15    1    1    2    0    0  0.36154494896E+01  0.44708241408E+01  0.59373448187E+02  0.59677666025E+02  0.17770000000E+01 0. -1.
         15    1    1    2    0    0  0.35179941165E+01 -0.28424774137E+01  0.83851325480E+02  0.83992014348E+02  0.17770000000E+01 0.  1.
</event>
<event>
 6    1  0.9144256E-004  0.5020836E+03  0.7546771E-02  0.9395160E-01
        -11   -1    0    0    0    0  0.00000000000E+00  0.00000000000E+00  0.50000000000E+03  0.50000000000E+03  0.00000000000E+00 0. -1.
         11   -1    0    0    0    0 -0.00000000000E+00 -0.00000000000E+00 -0.50000000000E+03  0.50000000000E+03  0.00000000000E+00 0. -1.
        -11    1    1    2    0    0  0.12347426058E+02  0.99384284190E+00  0.49776227170E+03  0.49791638433E+03  0.00000000000E+00 0. -1.
         11    1    1    2    0    0 -0.41056084793E+01  0.61551864088E+01 -0.46736557927E+03  0.46742414040E+03  0.00000000000E+00 0. -1.
        -15    1    1    2    0    0 -0.87898136979E+01 -0.18215475845E+00 -0.20834492894E+02  0.22683205866E+02  0.17770000000E+01 0. -1.
         15    1    1    2    0    0  0.54799611908E+00 -0.69668744922E+01 -0.95621995331E+01  0.11976269404E+02  0.17770000000E+01 0.  1.
</event>
<event>
 6    1  0.9144256E-004  0.5017035E+03  0.7546771E-02  0.9396006E-01
        -11   -1    0    0    0    0  0.00000000000E+00  0.00000000000E+00  0.50000000000E+03  0.50000000000E+03  0.00000000000E+00 0.  1.
         11   -1    0    0    0    0 -0.00000000000E+00 -0.00000000000E+00 -0.50000000000E+03  0.50000000000E+03  0.00000000000E+00 0.  1.
        -11    1    1    2    0    0  0.49028121108E+01  0.52363600928E+01  0.44439049374E+03  0.44444838615E+03  0.00000000000E+00 0.  1.
         11    1    1    2    0    0  0.82368365497E+01 -0.64046281463E+01 -0.49818726143E+03  0.49829651031E+03  0.00000000000E+00 0.  1.
        -15    1    1    2    0    0 -0.75056794940E+01 -0.63736068889E+01  0.26507181459E+02  0.28332781144E+02  0.17770000000E+01 0. -1.
         15    1    1    2    0    0 -0.56339691664E+01  0.75418749424E+01  0.27289586238E+02  0.28922322387E+02  0.17770000000E+01 0.  1.
</event>
<event>
 6    1  0.9144256E-004  0.5040689E+03  0.7546771E-02  0.9390751E-01
        -11   -1    0    0    0    0  0.00000000000E+00  0.00000000000E+00  0.50000000000E+03  0.50000000000E+03  0.00000000000E+00 0.  1.
         11   -1    0    0    0    0 -0.00000000000E+00 -0.00000000000E+00 -0.50000000000E+03  0.50000000000E+03  0.00000000000E+00 0. -1.
        -11    1    1    2    0    0 -0.14776158401E+02 -0.99448362469E+01  0.26881588297E+02  0.32246773706E+02  0.00000000000E+00 0.  1.
         11    1    1    2    0    0  0.67936179372E+01 -0.39782699601E+01 -0.49586861106E+03  0.49593110339E+03  0.00000000000E+00 0. -1.
        -15    1    1    2    0    0 -0.16308613397E+02 -0.72168971533E+01  0.11755467537E+03  0.11891305188E+03  0.17770000000E+01 0. -1.
         15    1    1    2    0    0  0.24291153861E+02  0.21140003360E+02  0.35143234739E+03  0.35290907103E+03  0.17770000000E+01 0.  1.
</event>
<event>
 6    1  0.9144256E-004  0.5095715E+03  0.7546771E-02  0.9378644E-01
        -11   -1    0    0    0    0  0.00000000000E+00  0.00000000000E+00  0.50000000000E+03  0.50000000000E+03  0.00000000000E+00 0. -1.
         11   -1    0    0    0    0 -0.00000000000E+00 -0.00000000000E+00 -0.50000000000E+03  0.50000000000E+03  0.00000000000E+00 0.  1.
        -11    1    1    2    0    0  0.27583890275E+02  0.47922377228E+00  0.48965192021E+03  0.49042848981E+03  0.00000000000E+00 0. -1.
         11    1    1    2    0    0  0.95466319319E+01 -0.95066994767E+01 -0.45913116658E+03  0.45932879688E+03  0.00000000000E+00 0.  1.
        -15    1    1    2    0    0 -0.32838634007E+02  0.10444033562E+02 -0.23663122659E+02  0.41839632210E+02  0.17770000000E+01 0.  1.
         15    1    1    2    0    0 -0.42918881998E+01 -0.14165578578E+01 -0.68576309641E+01  0.84030810971E+01  0.17770000000E+01 0. -1.
</event>
<event>
 6    1  0.9144256E-004  0.4874578E+03  0.7546771E-02  0.9428319E-01
        -11   -1    0    0    0    0  0.00000000000E+00  0.00000000000E+00  0.50000000000E+03  0.50000000000E+03  0.00000000000E+00 0. -1.
         11   -1    0    0    0    0 -0.00000000000E+00 -0.00000000000E+00 -0.50000000000E+03  0.50000000000E+03  0.00000000000E+00 0. -1.
        -11    1    1    2    0    0 -0.56381276445E+01 -0.20897453364E+02  0.48210392358E+03  0.48258956182E+03  0.00000000000E+00 0. -1.
         11    1    1    2    0    0 -0.84001990896E+01  0.89394790402E+01 -0.49240212204E+03  0.49255489787E+03  0.00000000000E+00 0. -1.
        -15    1    1    2    0    0  0.24257714573E+01 -0.87461834929E+00  0.62533901690E+01  0.69937073162E+01  0.17770000000E+01 0. -1.
         15    1    1    2    0    0  0.11612555277E+02  0.12832592673E+02  0.40448082871E+01  0.17861832993E+02  0.17770000000E+01 0.  1.
</event>
<event>
 6    1  0.9144256E-004  0.5029717E+03  0.7546771E-02  0.9393185E-01
        -11   -1    0    0    0    0  0.00000000000E+00  0.00000000000E+00  0.50000000000E+03  0.50000000000E+03  0.00000000000E+00 0.  1.
         11   -1    0    0    0    0 -0.00000000000E+00 -0.00000000000E+00 -0.50000000000E+03  0.50000000000E+03  0.00000000000E+00 0. -1.
        -11    1    1    2    0    0 -0.62105672525E+01 -0.27160652370E+02  0.33270700613E+03  0.33387156829E+03  0.00000000000E+00 0.  1.
         11    1    1    2    0    0 -0.30335505146E+01 -0.69066799177E+01 -0.49697108262E+03  0.49702833080E+03  0.00000000000E+00 0. -1.
        -15    1    1    2    0    0  0.32113579778E+01  0.67014043960E+01  0.11702193392E+02  0.13975718232E+02  0.17770000000E+01 0. -1.
         15    1    1    2    0    0  0.60327597894E+01  0.27365927892E+02  0.15256188309E+03  0.15512438268E+03  0.17770000000E+01 0.  1.
</event>
<event>
 6    1  0.9144256E-004  0.5019057E+03  0.7546771E-02  0.9395556E-01
        -11   -1    0    0    0    0  0.00000000000E+00  0.00000000000E+00  0.50000000000E+03  0.50000000000E+03  0.00000000000E+00 0. -1.
         11   -1    0    0    0    0 -0.00000000000E+00 -0.00000000000E+00 -0.50000000000E+03  0.50000000000E+03  0.00000000000E+00 0. -1.
        -11    1    1    2    0    0  0.72023959697E+01  0.12746271532E+02  0.49787911266E+03  0.49809432116E+03  0.00000000000E+00 0. -1.
         11    1    1    2    0    0  0.69439122895E+01  0.22820207589E+01 -0.43142508296E+03  0.43148699603E+03  0.00000000000E+00 0. -1.
        -15    1    1    2    0    0 -0.13029676622E+02 -0.15092009199E+02 -0.50428304453E+02  0.54255993526E+02  0.17770000000E+01 0. -1.
         15    1    1    2    0    0 -0.11166316371E+01  0.63716908259E-01 -0.16025725252E+02  0.16162689284E+02  0.17770000000E+01 0.  1.
</event>
<event>
 6    1  0.9144256E-004  0.5026429E+03  0.7546771E-02  0.9393915E-01
        -11   -1    0    0    0    0  0.00000000000E+00  0.00000000000E+00  0.50000000000E+03  0.50000000000E+03  0.00000000000E+00 0. -1.
         11   -1    0    0    0    0 -0.00000000000E+00 -0.00000000000E+00 -0.50000000000E+03  0.50000000000E+03  0.00000000000E+00 0.  1.
        -11    1    1    2    0    0  0.36070572281E+01  0.55069847661E+02  0.49428570837E+03  0.49735707543E+03  0.00000000000E+00 0. -1.
         11    1    1    2    0    0 -0.18895520311E+01 -0.47082360168E+00 -0.14239905682E+03  0.14241237118E+03  0.00000000000E+00 0.  1.
        -15    1    1    2    0    0 -0.99372143887E+01 -0.63187659615E+02 -0.27077965001E+03  0.27823767744E+03  0.17770000000E+01 0.  1.
         15    1    1    2    0    0  0.82197091917E+01  0.85886355559E+01 -0.81107001530E+02  0.81992875947E+02  0.17770000000E+01 0.  1.
</event>
<event>
 6    1  0.9144256E-004  0.4815340E+03  0.7546771E-02  0.9442104E-01
        -11   -1    0    0    0    0  0.00000000000E+00  0.00000000000E+00  0.50000000000E+03  0.50000000000E+03  0.00000000000E+00 0. -1.
         11   -1    0    0    0    0 -0.00000000000E+00 -0.00000000000E+00 -0.50000000000E+03  0.50000000000E+03  0.00000000000E+00 0.  1.
        -11    1    1    2    0    0  0.22155572557E+02 -0.23406706605E+01  0.48312048970E+03  0.48363390669E+03  0.00000000000E+00 0. -1.
         11    1    1    2    0    0  0.95862830359E+01 -0.11076984139E+02 -0.47983246890E+03  0.48005603279E+03  0.00000000000E+00 0.  1.
        -15    1    1    2    0    0 -0.81982118783E+01  0.58638596736E+00 -0.42476361706E+01  0.94209696179E+01  0.17770000000E+01 0.  1.
         15    1    1    2    0    0 -0.23543643714E+02  0.12831268832E+02  0.95961537765E+00  0.26889090908E+02  0.17770000000E+01 0. -1.
</event>
<event>
 6    1  0.9144256E-004  0.5004269E+03  0.7546771E-02  0.9398855E-01
        -11   -1    0    0    0    0  0.00000000000E+00  0.00000000000E+00  0.50000000000E+03  0.50000000000E+03  0.00000000000E+00 0. -1.
         11   -1    0    0    0    0 -0.00000000000E+00 -0.00000000000E+00 -0.50000000000E+03  0.50000000000E+03  0.00000000000E+00 0.  1.
        -11    1    1    2    0    0 -0.97567046436E+01 -0.76877379155E+01  0.49941864535E+03  0.49957309567E+03  0.00000000000E+00 0. -1.
         11    1    1    2    0    0  0.22289791778E+01  0.84832638279E+01 -0.39235226638E+03  0.39245029628E+03  0.00000000000E+00 0.  1.
        -15    1    1    2    0    0  0.19650681427E+01  0.10463705068E+01 -0.52225960902E+01  0.59489177977E+01  0.17770000000E+01 0. -1.
         15    1    1    2    0    0  0.55626573230E+01 -0.18418964192E+01 -0.10184378288E+03  0.10202769025E+03  0.17770000000E+01 0.  1.
</event>
<event>
 6    1  0.9144256E-004  0.4855256E+03  0.7546771E-02  0.9432793E-01
        -11   -1    0    0    0    0  0.00000000000E+00  0.00000000000E+00  0.50000000000E+03  0.50000000000E+03  0.00000000000E+00 0.  1.
         11   -1    0    0    0    0 -0.00000000000E+00 -0.00000000000E+00 -0.50000000000E+03  0.50000000000E+03  0.00000000000E+00 0.  1.
        -11    1    1    2    0    0 -0.16443217898E+02 -0.11070938617E+02  0.48916018852E+03  0.48956167653E+03  0.00000000000E+00 0.  1.
         11    1    1    2    0    0 -0.46309070409E+00 -0.69774689805E+01 -0.48178155826E+03  0.48183230423E+03  0.00000000000E+00 0.  1.
        -15    1    1    2    0    0 -0.41888303126E+00  0.64592439114E+01 -0.20518208574E+01  0.70189025304E+01  0.17770000000E+01 0.  1.
         15    1    1    2    0    0  0.17325191633E+02  0.11589163686E+02 -0.53268094042E+01  0.21587116702E+02  0.17770000000E+01 0. -1.
</event>
<event>
 6    1  0.9144256E-004  0.5011294E+03  0.7546771E-02  0.9397286E-01
        -11   -1    0    0    0    0  0.00000000000E+00  0.00000000000E+00  0.50000000000E+03  0.50000000000E+03  0.00000000000E+00 0. -1.
         11   -1    0    0    0    0 -0.00000000000E+00 -0.00000000000E+00 -0.50000000000E+03  0.50000000000E+03  0.00000000000E+00 0.  1.
        -11    1    1    2    0    0  0.44586633017E+01  0.64834297898E+01  0.43554908037E+03  0.43562015099E+03  0.00000000000E+00 0. -1.
         11    1    1    2    0    0 -0.87344639689E+00  0.82206700364E+01 -0.49880207649E+03  0.49887057824E+03  0.00000000000E+00 0.  1.
        -15    1    1    2    0    0 -0.11648287242E+01 -0.11022392762E+02  0.53445973305E+02  0.54612084374E+02  0.17770000000E+01 0. -1.
         15    1    1    2    0    0 -0.24203881806E+01 -0.36817070646E+01  0.98070228175E+01  0.10897186398E+02  0.17770000000E+01 0.  1.
</event>
<event>
 6    1  0.9144256E-004  0.5053706E+03  0.7546771E-02  0.9387872E-01
        -11   -1    0    0    0    0  0.00000000000E+00  0.00000000000E+00  0.50000000000E+03  0.50000000000E+03  0.00000000000E+00 0. -1.
         11   -1    0    0    0    0 -0.00000000000E+00 -0.00000000000E+00 -0.50000000000E+03  0.50000000000E+03  0.00000000000E+00 0.  1.
        -11    1    1    2    0    0  0.17680579035E+02 -0.43336882795E+01  0.43777788352E+03  0.43815620391E+03  0.00000000000E+00 0. -1.
         11    1    1    2    0    0  0.70953478547E+01  0.73169101841E+01 -0.49452436723E+03  0.49462938744E+03  0.00000000000E+00 0.  1.
        -15    1    1    2    0    0 -0.16256888273E+02 -0.61562095168E+01  0.11244904069E+02  0.20779579602E+02  0.17770000000E+01 0.  1.
         15    1    1    2    0    0 -0.85190386167E+01  0.31729876122E+01  0.45501579644E+02  0.46434829045E+02  0.17770000000E+01 0. -1.
</event>
<event>
 6    1  0.9144256E-004  0.4930123E+03  0.7546771E-02  0.9415582E-01
        -11   -1    0    0    0    0  0.00000000000E+00  0.00000000000E+00  0.50000000000E+03  0.50000000000E+03  0.00000000000E+00 0.  1.
         11   -1    0    0    0    0 -0.00000000000E+00 -0.00000000000E+00 -0.50000000000E+03  0.50000000000E+03  0.00000000000E+00 0.  1.
        -11    1    1    2    0    0  0.66864891522E+01  0.14924245185E+02  0.16491227865E+00  0.16354492581E+02  0.00000000000E+00 0.  1.
         11    1    1    2    0    0  0.10914306451E+02 -0.96304368470E+01 -0.49036755146E+03  0.49058353308E+03  0.00000000000E+00 0.  1.
        -15    1    1    2    0    0 -0.14753256095E+02 -0.24832057036E+02  0.18846730057E+03  0.19067608852E+03  0.17770000000E+01 0. -1.
         15    1    1    2    0    0 -0.28475395086E+01  0.19538248698E+02  0.30173533862E+03  0.30238588582E+03  0.17770000000E+01 0.  1.
</event>
<event>
 6    1  0.9144256E-004  0.5032221E+03  0.7546771E-02  0.9392629E-01
        -11   -1    0    0    0    0  0.00000000000E+00  0.00000000000E+00  0.50000000000E+03  0.50000000000E+03  0.00000000000E+00 0. -1.
         11   -1    0    0    0    0 -0.00000000000E+00 -0.00000000000E+00 -0.50000000000E+03  0.50000000000E+03  0.00000000000E+00 0.  1.
        -11    1    1    2    0    0  0.62720414000E+01  0.17425775597E+02  0.49643260405E+03  0.49677794488E+03  0.00000000000E+00 0. -1.
         11    1    1    2    0    0  0.52158436341E+01  0.84595683041E+01 -0.42772011003E+03  0.42783555467E+03  0.00000000000E+00 0.  1.
        -15    1    1    2    0    0 -0.88104282049E+01 -0.24124565157E+02 -0.49154451419E+02  0.55488161913E+02  0.17770000000E+01 0. -1.
         15    1    1    2    0    0 -0.26774568292E+01 -0.17607787444E+01 -0.19558042602E+02  0.19898338530E+02  0.17770000000E+01 0.  1.
</event>
<event>
 6    1  0.9144256E-004  0.5011741E+03  0.7546771E-02  0.9397186E-01
        -11   -1    0    0    0    0  0.00000000000E+00  0.00000000000E+00  0.50000000000E+03  0.50000000000E+03  0.00000000000E+00 0. -1.
         11   -1    0    0    0    0 -0.00000000000E+00 -0.00000000000E+00 -0.50000000000E+03  0.50000000000E+03  0.00000000000E+00 0. -1.
        -11    1    1    2    0    0  0.62867332660E+01 -0.14888949646E+02  0.29393620741E+03  0.29438019271E+03  0.00000000000E+00 0. -1.
         11    1    1    2    0    0  0.73580847682E+01  0.83180804746E-01 -0.49877164733E+03  0.49882592607E+03  0.00000000000E+00 0. -1.
        -15    1    1    2    0    0  0.91508194876E+00 -0.39707512952E+01  0.39766355493E+02  0.40014060016E+02  0.17770000000E+01 0.  1.
         15    1    1    2    0    0 -0.14559899983E+02  0.18776520137E+02  0.16506908444E+03  0.16677982121E+03  0.17770000000E+01 0. -1.
</event>
<event>
 6    1  0.9144256E-004  0.5005415E+03  0.7546771E-02  0.9398599E-01
        -11   -1    0    0    0    0  0.00000000000E+00  0.00000000000E+00  0.50000000000E+03  0.50000000000E+03  0.00000000000E+00 0.  1.
         11   -1    0    0    0    0 -0.00000000000E+00 -0.00000000000E+00 -0.50000000000E+03  0.50000000000E+03  0.00000000000E+00 0. -1.
        -11    1    1    2    0    0  0.63250358339E+02  0.19221396559E+02  0.49506432496E+03  0.49945846250E+03  0.00000000000E+00 0.  1.
         11    1    1    2    0    0 -0.10589239523E+01 -0.59337917428E+00 -0.61375809862E+02  0.61387811942E+02  0.00000000000E+00 0. -1.
        -15    1    1    2    0    0 -0.41052323022E+01  0.15057492734E+01 -0.81419689982E+02  0.81556384538E+02  0.17770000000E+01 0.  1.
         15    1    1    2    0    0 -0.58086202085E+02 -0.20133766658E+02 -0.35226882511E+03  0.35759734102E+03  0.17770000000E+01 0. -1.
</event>
<event>
 6    1  0.9144256E-004  0.5015478E+03  0.7546771E-02  0.9396353E-01
        -11   -1    0    0    0    0  0.00000000000E+00  0.00000000000E+00  0.50000000000E+03  0.50000000000E+03  0.00000000000E+00 0. -1.
         11   -1    0    0    0    0 -0.00000000000E+00 -0.00000000000E+00 -0.50000000000E+03  0.50000000000E+03  0.00000000000E+00 0. -1.
        -11    1    1    2    0    0  0.35646009768E+02 -0.17125040019E+02  0.49688093648E+03  0.49845217428E+03  0.00000000000E+00 0. -1.
         11    1    1    2    0    0 -0.47960000379E+01 -0.45790897535E+01 -0.31723267057E+03  0.31730196494E+03  0.00000000000E+00 0. -1.
        -15    1    1    2    0    0 -0.15761731508E+02  0.28925698950E+01 -0.56985744292E+02  0.59222731466E+02  0.17770000000E+01 0.  1.
         15    1    1    2    0    0 -0.15088278221E+02  0.18811559877E+02 -0.12266252162E+03  0.12502312932E+03  0.17770000000E+01 0. -1.
</event>
<event>
 6    1  0.9144256E-004  0.5007857E+03  0.7546771E-02  0.9398053E-01
        -11   -1    0    0    0    0  0.00000000000E+00  0.00000000000E+00  0.50000000000E+03  0.50000000000E+03  0.00000000000E+00 0. -1.
         11   -1    0    0    0    0 -0.00000000000E+00 -0.00000000000E+00 -0.50000000000E+03  0.50000000000E+03  0.00000000000E+00 0. -1.
        -11    1    1    2    0    0 -0.96198943866E+01 -0.72702440686E+00  0.49912112004E+03  0.49921434615E+03  0.00000000000E+00 0. -1.
         11    1    1    2    0    0  0.29299616601E+01 -0.82291198180E+01 -0.44592840020E+03  0.44601394731E+03  0.00000000000E+00 0. -1.
        -15    1    1    2    0    0  0.31048903622E+01  0.81996635527E+01 -0.38440723938E+02  0.39467984651E+02  0.17770000000E+01 0.  1.
         15    1    1    2    0    0  0.35850423642E+01  0.75648067219E+00 -0.14751995900E+02  0.15303721894E+02  0.17770000000E+01 0. -1.
</event>
<event>
 6    1  0.9144256E-004  0.4931019E+03  0.7546771E-02  0.9415378E-01
        -11   -1    0    0    0    0  0.00000000000E+00  0.00000000000E+00  0.50000000000E+03  0.50000000000E+03  0.00000000000E+00 0.  1.
         11   -1    0    0    0    0 -0.00000000000E+00 -0.00000000000E+00 -0.50000000000E+03  0.50000000000E+03  0.00000000000E+00 0.  1.
        -11    1    1    2    0    0  0.69302731766E+01 -0.33076575857E+00  0.49051941696E+03  0.49056848300E+03  0.00000000000E+00 0.  1.
         11    1    1    2    0    0  0.21979623830E+01 -0.68178227468E+01 -0.49566513258E+03  0.49571689239E+03  0.00000000000E+00 0.  1.
        -15    1    1    2    0    0 -0.31586693697E+01  0.32308058557E+01  0.39519369450E+01  0.62602582440E+01  0.17770000000E+01 0. -1.
         15    1    1    2    0    0 -0.59695661899E+01  0.39177826497E+01  0.11937786761E+01  0.74543663657E+01  0.17770000000E+01 0.  1.
</event>
<event>
 6    1  0.9144256E-004  0.5071006E+03  0.7546771E-02  0.9384060E-01
        -11   -1    0    0    0    0  0.00000000000E+00  0.00000000000E+00  0.50000000000E+03  0.50000000000E+03  0.00000000000E+00 0.  1.
         11   -1    0    0    0    0 -0.00000000000E+00 -0.00000000000E+00 -0.50000000000E+03  0.50000000000E+03  0.00000000000E+00 0. -1.
        -11    1    1    2    0    0  0.21151710524E+02  0.23497548796E+02  0.30622942488E+02  0.44014705090E+02  0.00000000000E+00 0.  1.
         11    1    1    2    0    0 -0.30955268902E+01 -0.70402916853E+01 -0.49283938930E+03  0.49289939302E+03  0.00000000000E+00 0. -1.
        -15    1    1    2    0    0 -0.13491669842E+02 -0.17979914247E+02  0.40954080771E+03  0.41016110662E+03  0.17770000000E+01 0.  1.
         15    1    1    2    0    0 -0.45645137912E+01  0.15226571364E+01  0.52675639100E+02  0.52924795271E+02  0.17770000000E+01 0. -1.
</event>
<event>
 6    1  0.9144256E-004  0.5012585E+03  0.7546771E-02  0.9396998E-01
        -11   -1    0    0    0    0  0.00000000000E+00  0.00000000000E+00  0.50000000000E+03  0.50000000000E+03  0.00000000000E+00 0.  1.
         11   -1    0    0    0    0 -0.00000000000E+00 -0.00000000000E+00 -0.50000000000E+03  0.50000000000E+03  0.00000000000E+00 0. -1.
        -11    1    1    2    0    0 -0.22110876533E+01  0.69504543547E+01  0.94612800693E+01  0.11946277449E+02  0.00000000000E+00 0.  1.
         11    1    1    2    0    0 -0.42855620977E+01 -0.54701266923E+01 -0.49869311971E+03  0.49874153223E+03  0.00000000000E+00 0. -1.
        -15    1    1    2    0    0  0.61916364822E+00  0.11236001856E+01  0.11346380219E+03  0.11348496807E+03  0.17770000000E+01 0. -1.
         15    1    1    2    0    0  0.58774861028E+01 -0.26039278480E+01  0.37576803745E+03  0.37582722225E+03  0.17770000000E+01 0.  1.
</event>
<event>
 6    1  0.9144256E-004  0.5026299E+03  0.7546771E-02  0.9393944E-01
        -11   -1    0    0    0    0  0.00000000000E+00  0.00000000000E+00  0.50000000000E+03  0.50000000000E+03  0.00000000000E+00 0.  1.
         11   -1    0    0    0    0 -0.00000000000E+00 -0.00000000000E+00 -0.50000000000E+03  0.50000000000E+03  0.00000000000E+00 0. -1.
        -11    1    1    2    0    0 -0.38578307665E+01  0.26278862380E+02  0.49666041689E+03  0.49737011487E+03  0.00000000000E+00 0.  1.
         11    1    1    2    0    0  0.36478410025E+01 -0.54143016080E+01 -0.39685654301E+03  0.39691023814E+03  0.00000000000E+00 0. -1.
        -15    1    1    2    0    0  0.30535001518E+01  0.54428735335E+01 -0.88224662944E+01  0.10951820670E+02  0.17770000000E+01 0. -1.
         15    1    1    2    0    0 -0.28435103878E+01 -0.26307434306E+02 -0.90981407580E+02  0.94767826320E+02  0.17770000000E+01 0.  1.
</event>
<event>
 6    1  0.9144256E-004  0.5001560E+03  0.7546771E-02  0.9399461E-01
        -11   -1    0    0    0    0  0.00000000000E+00  0.00000000000E+00  0.50000000000E+03  0.50000000000E+03  0.00000000000E+00 0.  1.
         11   -1    0    0    0    0 -0.00000000000E+00 -0.00000000000E+00 -0.50000000000E+03  0.50000000000E+03  0.00000000000E+00 0. -1.
        -11    1    1    2    0    0  0.28353126669E+01  0.27527894761E+01  0.23085058987E+02  0.23420862415E+02  0.00000000000E+00 0.  1.
         11    1    1    2    0    0 -0.22507730809E+01 -0.14593136086E+02 -0.49962585233E+03  0.49984399358E+03  0.00000000000E+00 0. -1.
        -15    1    1    2    0    0  0.16397367201E+01  0.74144191908E+01  0.34678242588E+03  0.34687010678E+03  0.17770000000E+01 0.  1.
         15    1    1    2    0    0 -0.22242763061E+01  0.44259274186E+01  0.12975836746E+03  0.12986503722E+03  0.17770000000E+01 0. -1.
</event>
<event>
 6    1  0.9144256E-004  0.5003707E+03  0.7546771E-02  0.9398981E-01
        -11   -1    0    0    0    0  0.00000000000E+00  0.00000000000E+00  0.50000000000E+03  0.50000000000E+03  0.00000000000E+00 0.  1.
         11   -1    0    0    0    0 -0.00000000000E+00 -0.00000000000E+00 -0.50000000000E+03  0.50000000000E+03  0.00000000000E+00 0. -1.
        -11    1    1    2    0    0  0.92068489473E+01 -0.39337054242E+01  0.49952899842E+03  0.49962932296E+03  0.00000000000E+00 0.  1.
         11    1    1    2    0    0  0.13090093086E+01  0.59842651729E+01 -0.38694873550E+03  0.38699722071E+03  0.00000000000E+00 0. -1.
        -15    1    1    2    0    0 -0.39177054446E+01 -0.11316513068E+01 -0.17972582440E+02  0.18514872378E+02  0.17770000000E+01 0. -1.
         15    1    1    2    0    0 -0.65981528113E+01 -0.91890844185E+00 -0.94607680481E+02  0.94858583946E+02  0.17770000000E+01 0.  1.
</event>
<event>
 6    1  0.9144256E-004  0.4956749E+03  0.7546771E-02  0.9409540E-01
        -11   -1    0    0    0    0  0.00000000000E+00  0.00000000000E+00  0.50000000000E+03  0.50000000000E+03  0.00000000000E+00 0. -1.
         11   -1    0    0    0    0 -0.00000000000E+00 -0.00000000000E+00 -0.50000000000E+03  0.50000000000E+03  0.00000000000E+00 0.  1.
        -11    1    1    2    0    0  0.79277317003E+01  0.37323755519E+01  0.29898368193E+00  0.87674938503E+01  0.00000000000E+00 0. -1.
         11    1    1    2    0    0 -0.10580076883E+02 -0.18209528472E+01 -0.49562411258E+03  0.49574037042E+03  0.00000000000E+00 0.  1.
        -15    1    1    2    0    0  0.65247155746E+01 -0.31158988621E+01  0.20863223517E+03  0.20876505459E+03  0.17770000000E+01 0. -1.
         15    1    1    2    0    0 -0.38723703920E+01  0.12044761574E+01  0.28669289373E+03  0.28672708114E+03  0.17770000000E+01 0.  1.
</event>
<event>
 6    1  0.9144256E-004  0.5014871E+03  0.7546771E-02  0.9396488E-01
        -11   -1    0    0    0    0  0.00000000000E+00  0.00000000000E+00  0.50000000000E+03  0.50000000000E+03  0.00000000000E+00 0.  1.
         11   -1    0    0    0    0 -0.00000000000E+00 -0.00000000000E+00 -0.50000000000E+03  0.50000000000E+03  0.00000000000E+00 0. -1.
        -11    1    1    2    0    0 -0.56349547845E+01 -0.10385344437E+02  0.49837284368E+03  0.49851288791E+03  0.00000000000E+00 0.  1.
         11    1    1    2    0    0 -0.13674001766E+01  0.99119404050E+01 -0.48297597325E+03  0.48307960740E+03  0.00000000000E+00 0. -1.
        -15    1    1    2    0    0  0.36508784260E+01 -0.23296681424E+01 -0.43272094406E+01  0.63748519573E+01  0.17770000000E+01 0. -1.
         15    1    1    2    0    0  0.33514765352E+01  0.28030721747E+01 -0.11069660988E+02  0.12032652740E+02  0.17770000000E+01 0.  1.
</event>
<event>
 6    1  0.9144256E-004  0.5081334E+03  0.7546771E-02  0.9381792E-01
        -11   -1    0    0    0    0  0.00000000000E+00  0.00000000000E+00  0.50000000000E+03  0.50000000000E+03  0.00000000000E+00 0.  1.
         11   -1    0    0    0    0 -0.00000000000E+00 -0.00000000000E+00 -0.50000000000E+03  0.50000000000E+03  0.00000000000E+00 0.  1.
        -11    1    1    2    0    0 -0.18395432753E+02 -0.93519119849E+01  0.49143351927E+03  0.49186660191E+03  0.00000000000E+00 0.  1.
         11    1    1    2    0    0 -0.14799707718E+01 -0.66612402369E+01 -0.46950756028E+03  0.46955714412E+03  0.00000000000E+00 0.  1.
        -15    1    1    2    0    0  0.26930028076E+01  0.25502945808E+00 -0.13245353219E+02  0.13635043639E+02  0.17770000000E+01 0. -1.
         15    1    1    2    0    0  0.17182400717E+02  0.15758122764E+02 -0.86806057789E+01  0.24941210338E+02  0.17770000000E+01 0.  1.
</event>
<event>
 6    1  0.9144256E-004  0.5001720E+03  0.7546771E-02  0.9399425E-01
        -11   -1    0    0    0    0  0.00000000000E+00  0.00000000000E+00  0.50000000000E+03  0.50000000000E+03  0.00000000000E+00 0.  1.
         11   -1    0    0    0    0 -0.00000000000E+00 -0.00000000000E+00 -0.50000000000E+03  0.50000000000E+03  0.00000000000E+00 0.  1.
        -11    1    1    2    0    0  0.15747377909E+00  0.58458235466E+01  0.87632191036E+02  0.87827099216E+02  0.00000000000E+00 0.  1.
         11    1    1    2    0    0 -0.53624249299E+01 -0.70586740329E+01 -0.49974942483E+03  0.49982803853E+03  0.00000000000E+00 0.  1.
        -15    1    1    2    0    0  0.89112642853E+01 -0.35288942803E+00  0.24204237396E+03  0.24221313689E+03  0.17770000000E+01 0. -1.
         15    1    1    2    0    0 -0.37063131345E+01  0.15657399143E+01  0.17007485983E+03  0.17013172536E+03  0.17770000000E+01 0.  1.
</event>
<event>
 6    1  0.9144256E-004  0.5001718E+03  0.7546771E-02  0.9399425E-01
        -11   -1    0    0    0    0  0.00000000000E+00  0.00000000000E+00  0.50000000000E+03  0.50000000000E+03  0.00000000000E+00 0.  1.
         11   -1    0    0    0    0 -0.00000000000E+00 -0.00000000000E+00 -0.50000000000E+03  0.50000000000E+03  0.00000000000E+00 0.  1.
        -11    1    1    2    0    0 -0.34231163206E+01  0.11251327069E+02  0.19183089977E+03  0.19219106168E+03  0.00000000000E+00 0.  1.
         11    1    1    2    0    0  0.55869649109E+01 -0.10638219546E+02 -0.49968370457E+03  0.49982816098E+03  0.00000000000E+00 0.  1.
        -15    1    1    2    0    0  0.15816958441E+01 -0.23104511337E+01  0.63186716183E+02  0.63273681552E+02  0.17770000000E+01 0. -1.
         15    1    1    2    0    0 -0.37455444345E+01  0.16973436106E+01  0.24466608862E+03  0.24470709579E+03  0.17770000000E+01 0.  1.
</event>
<event>
 6    1  0.9144256E-004  0.5049133E+03  0.7546771E-02  0.9388883E-01
        -11   -1    0    0    0    0  0.00000000000E+00  0.00000000000E+00  0.50000000000E+03  0.50000000000E+03  0.00000000000E+00 0. -1.
         11   -1    0    0    0    0 -0.00000000000E+00 -0.00000000000E+00 -0.50000000000E+03  0.50000000000E+03  0.00000000000E+00 0.  1.
        -11    1    1    2    0    0 -0.82006977949E+01  0.20595467399E+02  0.45498958423E+03  0.45552930365E+03  0.00000000000E+00 0. -1.
         11    1    1    2    0    0 -0.88236513724E+01  0.68714308080E+00 -0.49500760955E+03  0.49508672220E+03  0.00000000000E+00 0.  1.
        -15    1    1    2    0    0  0.11085728334E+02 -0.68341937686E+01  0.19952383215E+02  0.23892570019E+02  0.17770000000E+01 0.  1.
         15    1    1    2    0    0  0.59386208331E+01 -0.14448416711E+02  0.20065642102E+02  0.25491404135E+02  0.17770000000E+01 0. -1.
</event>
<event>
 6    1  0.9144256E-004  0.5048614E+03  0.7546771E-02  0.9388997E-01
        -11   -1    0    0    0    0  0.00000000000E+00  0.00000000000E+00  0.50000000000E+03  0.50000000000E+03  0.00000000000E+00 0.  1.
         11   -1    0    0    0    0 -0.00000000000E+00 -0.00000000000E+00 -0.50000000000E+03  0.50000000000E+03  0.00000000000E+00 0. -1.
        -11    1    1    2    0    0 -0.17358646300E+02 -0.99370085412E+01  0.45404259762E+03  0.45448294489E+03  0.00000000000E+00 0.  1.
         11    1    1    2    0    0 -0.85960639282E+01  0.39042420619E+01 -0.49504854020E+03  0.49513855896E+03  0.00000000000E+00 0. -1.
        -15    1    1    2    0    0  0.25341549045E+02  0.57830182310E+01  0.40881933781E+02  0.48478115130E+02  0.17770000000E+01 0.  1.
         15    1    1    2    0    0  0.61316118293E+00  0.24974824831E+00  0.12400879175E+00  0.19003810155E+01  0.17770000000E+01 0.  1.
</event>
<event>
 6    1  0.9144256E-004  0.5033177E+03  0.7546771E-02  0.9392417E-01
        -11   -1    0    0    0    0  0.00000000000E+00  0.00000000000E+00  0.50000000000E+03  0.50000000000E+03  0.00000000000E+00 0.  1.
         11   -1    0    0    0    0 -0.00000000000E+00 -0.00000000000E+00 -0.50000000000E+03  0.50000000000E+03  0.00000000000E+00 0. -1.
        -11    1    1    2    0    0  0.32459859420E+02 -0.34283425557E+02  0.49443337176E+03  0.49668234804E+03  0.00000000000E+00 0.  1.
         11    1    1    2    0    0  0.51868031717E+01 -0.31990920685E+00 -0.24836817949E+03  0.24842253894E+03  0.00000000000E+00 0. -1.
        -15    1    1    2    0    0 -0.41653774602E+01  0.14972699612E+01 -0.43843442832E+00  0.47897954519E+01  0.17770000000E+01 0.  1.
         15    1    1    2    0    0 -0.33481285132E+02  0.33106064802E+02 -0.24562675784E+03  0.25010531757E+03  0.17770000000E+01 0. -1.
</event>
<event>
 6    1  0.9144256E-004  0.5051418E+03  0.7546771E-02  0.9388377E-01
        -11   -1    0    0    0    0  0.00000000000E+00  0.00000000000E+00  0.50000000000E+03  0.50000000000E+03  0.00000000000E+00 0. -1.
         11   -1    0    0    0    0 -0.00000000000E+00 -0.00000000000E+00 -0.50000000000E+03  0.50000000000E+03  0.00000000000E+00 0.  1.
        -11    1    1    2    0    0 -0.90338868849E+01  0.61142346382E+01  0.47002995649E+03  0.47015652178E+03  0.00000000000E+00 0. -1.
         11    1    1    2    0    0 -0.89627983873E+01 -0.16740118513E+02 -0.49449373350E+03  0.49485817746E+03  0.00000000000E+00 0.  1.
        -15    1    1    2    0    0  0.17279801598E+02  0.36564983559E+01  0.16591703532E+02  0.24298227890E+02  0.17770000000E+01 0. -1.
         15    1    1    2    0    0  0.71688367433E+00  0.69693855185E+01  0.78720734829E+01  0.10687072875E+02  0.17770000000E+01 0.  1.
</event>
<event>
 6    1  0.9144256E-004  0.5039628E+03  0.7546771E-02  0.9390986E-01
        -11   -1    0    0    0    0  0.00000000000E+00  0.00000000000E+00  0.50000000000E+03  0.50000000000E+03  0.00000000000E+00 0. -1.
         11   -1    0    0    0    0 -0.00000000000E+00 -0.00000000000E+00 -0.50000000000E+03  0.50000000000E+03  0.00000000000E+00 0. -1.
        -11    1    1    2    0    0  0.22851622214E+02 -0.12019633127E+02  0.49536476881E+03  0.49603721876E+03  0.00000000000E+00 0. -1.
         11    1    1    2    0    0  0.98420131119E+01 -0.24609219060E+01 -0.40249178108E+03  0.40261961601E+03  0.00000000000E+00 0. -1.
        -15    1    1    2    0    0 -0.37225150152E+01 -0.13090694770E+01 -0.30055573253E+02  0.30365539572E+02  0.17770000000E+01 0.  1.
         15    1    1    2    0    0 -0.28971120311E+02  0.15789624510E+02 -0.62817414474E+02  0.70977625661E+02  0.17770000000E+01 0. -1.
</event>
<event>
 6    1  0.9144256E-004  0.5154854E+03  0.7546771E-02  0.9365811E-01
        -11   -1    0    0    0    0  0.00000000000E+00  0.00000000000E+00  0.50000000000E+03  0.50000000000E+03  0.00000000000E+00 0. -1.
         11   -1    0    0    0    0 -0.00000000000E+00 -0.00000000000E+00 -0.50000000000E+03  0.50000000000E+03  0.00000000000E+00 0. -1.
        -11    1    1    2    0    0 -0.10682653778E+02 -0.79524174559E+02  0.24590681154E+03  0.25866652932E+03  0.00000000000E+00 0. -1.
         11    1    1    2    0    0  0.10361526341E+02  0.39824143761E+01 -0.48438740176E+03  0.48451457753E+03  0.00000000000E+00 0. -1.
        -15    1    1    2    0    0 -0.51450385261E+01 -0.24718640127E+01  0.15116224828E+00  0.59801431552E+01  0.17770000000E+01 0.  1.
         15    1    1    2    0    0  0.54661659626E+01  0.78013624195E+02  0.23832942798E+03  0.25083875000E+03  0.17770000000E+01 0. -1.
</event>
<event>
 6    1  0.9144256E-004  0.5080251E+03  0.7546771E-02  0.9382030E-01
        -11   -1    0    0    0    0  0.00000000000E+00  0.00000000000E+00  0.50000000000E+03  0.50000000000E+03  0.00000000000E+00 0. -1.
         11   -1    0    0    0    0 -0.00000000000E+00 -0.00000000000E+00 -0.50000000000E+03  0.50000000000E+03  0.00000000000E+00 0.  1.
        -11    1    1    2    0    0 -0.36405674467E+02 -0.58355654706E+01  0.42022660202E+03  0.42184099375E+03  0.00000000000E+00 0. -1.
         11    1    1    2    0    0  0.66941628340E+01 -0.49292734396E+01 -0.49190461901E+03  0.49197486090E+03  0.00000000000E+00 0.  1.
        -15    1    1    2    0    0 -0.76962386634E+01  0.83758147997E+00  0.20574083243E+02  0.22054121216E+02  0.17770000000E+01 0. -1.
         15    1    1    2    0    0  0.37407750296E+02  0.99272574303E+01  0.51103933745E+02  0.64130024135E+02  0.17770000000E+01 0.  1.
</event>
<event>
 6    1  0.9144256E-004  0.5014040E+03  0.7546771E-02  0.9396674E-01
        -11   -1    0    0    0    0  0.00000000000E+00  0.00000000000E+00  0.50000000000E+03  0.50000000000E+03  0.00000000000E+00 0.  1.
         11   -1    0    0    0    0 -0.00000000000E+00 -0.00000000000E+00 -0.50000000000E+03  0.50000000000E+03  0.00000000000E+00 0.  1.
        -11    1    1    2    0    0 -0.11860443092E+02 -0.16117805531E+02 -0.55566775821E+02  0.59060311045E+02  0.00000000000E+00 0.  1.
         11    1    1    2    0    0  0.14136407601E+02  0.17719262569E+02 -0.44176253344E+03  0.44234369695E+03  0.00000000000E+00 0.  1.
        -15    1    1    2    0    0 -0.91881575234E+01  0.11996278362E+02  0.37471073807E+03  0.37501950334E+03  0.17770000000E+01 0.  1.
         15    1    1    2    0    0  0.69121930144E+01 -0.13597735399E+02  0.12261857119E+03  0.12357648866E+03  0.17770000000E+01 0. -1.
</event>
<event>
 6    1  0.9144256E-004  0.5009797E+03  0.7546771E-02  0.9397620E-01
        -11   -1    0    0    0    0  0.00000000000E+00  0.00000000000E+00  0.50000000000E+03  0.50000000000E+03  0.00000000000E+00 0.  1.
         11   -1    0    0    0    0 -0.00000000000E+00 -0.00000000000E+00 -0.50000000000E+03  0.50000000000E+03  0.00000000000E+00 0. -1.
        -11    1    1    2    0    0  0.23239386311E+01  0.24821642359E+02  0.49839720668E+03  0.49902033049E+03  0.00000000000E+00 0.  1.
         11    1    1    2    0    0  0.11566835498E+02  0.42870610610E+01 -0.24136826270E+03  0.24168328204E+03  0.00000000000E+00 0. -1.
        -15    1    1    2    0    0 -0.13476410217E+02 -0.17114693578E+02 -0.17912177010E+03  0.18045024971E+03  0.17770000000E+01 0.  1.
         15    1    1    2    0    0 -0.41436391236E+00 -0.11994009842E+02 -0.77907173873E+02  0.78846137759E+02  0.17770000000E+01 0. -1.
</event>
<event>
 6    1  0.9144256E-004  0.5022834E+03  0.7546771E-02  0.9394715E-01
        -11   -1    0    0    0    0  0.00000000000E+00  0.00000000000E+00  0.50000000000E+03  0.50000000000E+03  0.00000000000E+00 0.  1.
         11   -1    0    0    0    0 -0.00000000000E+00 -0.00000000000E+00 -0.50000000000E+03  0.50000000000E+03  0.00000000000E+00 0.  1.
        -11    1    1    2    0    0  0.12845848835E+02 -0.16270872256E+02  0.23357010844E+03  0.23448827833E+03  0.00000000000E+00 0.  1.
         11    1    1    2    0    0  0.82687833959E+01 -0.34830490219E+01 -0.49763573139E+03  0.49771661170E+03  0.00000000000E+00 0.  1.
        -15    1    1    2    0    0 -0.33099902903E+01  0.27135223678E+01  0.18273798733E+03  0.18279674227E+03  0.17770000000E+01 0. -1.
         15    1    1    2    0    0 -0.17804641940E+02  0.17040398910E+02  0.81327635611E+02  0.84998367706E+02  0.17770000000E+01 0.  1.
</event>
<event>
 6    1  0.9144256E-004  0.5000627E+03  0.7546771E-02  0.9399669E-01
        -11   -1    0    0    0    0  0.00000000000E+00  0.00000000000E+00  0.50000000000E+03  0.50000000000E+03  0.00000000000E+00 0. -1.
         11   -1    0    0    0    0 -0.00000000000E+00 -0.00000000000E+00 -0.50000000000E+03  0.50000000000E+03  0.00000000000E+00 0.  1.
        -11    1    1    2    0    0 -0.32993792515E+01  0.13329105533E+02  0.49974864226E+03  0.49993725246E+03  0.00000000000E+00 0. -1.
         11    1    1    2    0    0 -0.29612369759E+01 -0.49622581772E+01 -0.21237918892E+03  0.21245779067E+03  0.00000000000E+00 0.  1.
        -15    1    1    2    0    0  0.46971396414E+01 -0.73323466209E+01 -0.24076682477E+03  0.24093079519E+03  0.17770000000E+01 0.  1.
         15    1    1    2    0    0  0.15634765860E+01 -0.10345007351E+01 -0.46602628565E+02  0.46674161685E+02  0.17770000000E+01 0. -1.
</event>
<event>
 6    1  0.9144256E-004  0.5011285E+03  0.7546771E-02  0.9397288E-01
        -11   -1    0    0    0    0  0.00000000000E+00  0.00000000000E+00  0.50000000000E+03  0.50000000000E+03  0.00000000000E+00 0.  1.
         11   -1    0    0    0    0 -0.00000000000E+00 -0.00000000000E+00 -0.50000000000E+03  0.50000000000E+03  0.00000000000E+00 0.  1.
        -11    1    1    2    0    0  0.11970063693E+02 -0.12308263092E+02  0.54582943526E+02  0.57219520175E+02  0.00000000000E+00 0.  1.
         11    1    1    2    0    0 -0.23911299468E+02  0.65804375124E+01 -0.49825467477E+03  0.49887149982E+03  0.00000000000E+00 0.  1.
        -15    1    1    2    0    0  0.80133750818E+01  0.12954140498E+01  0.26536727079E+03  0.26549734163E+03  0.17770000000E+01 0.  1.
         15    1    1    2    0    0  0.39278606924E+01  0.44324115296E+01  0.17830446045E+03  0.17841163838E+03  0.17770000000E+01 0. -1.
</event>
<event>
 6    1  0.9144256E-004  0.5010848E+03  0.7546771E-02  0.9397386E-01
        -11   -1    0    0    0    0  0.00000000000E+00  0.00000000000E+00  0.50000000000E+03  0.50000000000E+03  0.00000000000E+00 0. -1.
         11   -1    0    0    0    0 -0.00000000000E+00 -0.00000000000E+00 -0.50000000000E+03  0.50000000000E+03  0.00000000000E+00 0. -1.
        -11    1    1    2    0    0 -0.23704112851E+02 -0.23420525783E+02  0.34954023848E+03  0.35112502661E+03  0.00000000000E+00 0. -1.
         11    1    1    2    0    0  0.11769445971E+02  0.14325247749E+02 -0.49857062241E+03  0.49891522137E+03  0.00000000000E+00 0. -1.
        -15    1    1    2    0    0  0.95229202021E+01  0.35011151235E+01  0.88331619319E+02  0.88930177763E+02  0.17770000000E+01 0. -1.
         15    1    1    2    0    0  0.24117466788E+01  0.55941629108E+01  0.60698764612E+02  0.61029574267E+02  0.17770000000E+01 0.  1.
</event>
<event>
 6    1  0.9144256E-004  0.5001358E+03  0.7546771E-02  0.9399506E-01
        -11   -1    0    0    0    0  0.00000000000E+00  0.00000000000E+00  0.50000000000E+03  0.50000000000E+03  0.00000000000E+00 0.  1.
         11   -1    0    0    0    0 -0.00000000000E+00 -0.00000000000E+00 -0.50000000000E+03  0.50000000000E+03  0.00000000000E+00 0. -1.
        -11    1    1    2    0    0  0.15136827661E+01 -0.77966120126E+01  0.93256388913E+02  0.93593976663E+02  0.00000000000E+00 0.  1.
         11    1    1    2    0    0  0.52184802382E+01  0.12961832825E+02 -0.49966889687E+03  0.49986422971E+03  0.00000000000E+00 0. -1.
        -15    1    1    2    0    0 -0.56774591239E+01 -0.51720271101E+01  0.35546118553E+03  0.35554858395E+03  0.17770000000E+01 0.  1.
         15    1    1    2    0    0 -0.10547038804E+01  0.68062978107E-02  0.50951322427E+02  0.50993209672E+02  0.17770000000E+01 0.  1.
</event>
<event>
 6    1  0.9144256E-004  0.5003707E+03  0.7546771E-02  0.9398981E-01
        -11   -1    0    0    0    0  0.00000000000E+00  0.00000000000E+00  0.50000000000E+03  0.50000000000E+03  0.00000000000E+00 0.  1.
         11   -1    0    0    0    0 -0.00000000000E+00 -0.00000000000E+00 -0.50000000000E+03  0.50000000000E+03  0.00000000000E+00 0. -1.
        -11    1    1    2    0    0  0.60062867134E+01 -0.30620281983E+00  0.25131655507E+03  0.25138850430E+03  0.00000000000E+00 0.  1.
         11    1    1    2    0    0 -0.75708105978E+01  0.46071000712E+01 -0.49955073642E+03  0.49962934342E+03  0.00000000000E+00 0. -1.
        -15    1    1    2    0    0 -0.51826414027E+01  0.32011999324E+01  0.40371436149E+02  0.40867077687E+02  0.17770000000E+01 0.  1.
         15    1    1    2    0    0  0.67471652871E+01 -0.75020971838E+01  0.20786274520E+03  0.20811507459E+03  0.17770000000E+01 0. -1.
</event>
<event>
 6    1  0.9144256E-004  0.5019219E+03  0.7546771E-02  0.9395520E-01
        -11   -1    0    0    0    0  0.00000000000E+00  0.00000000000E+00  0.50000000000E+03  0.50000000000E+03  0.00000000000E+00 0. -1.
         11   -1    0    0    0    0 -0.00000000000E+00 -0.00000000000E+00 -0.50000000000E+03  0.50000000000E+03  0.00000000000E+00 0. -1.
        -11    1    1    2    0    0 -0.15085118216E+02 -0.20122920741E+01  0.49784556418E+03  0.49807812227E+03  0.00000000000E+00 0. -1.
         11    1    1    2    0    0  0.62267772409E+01  0.44989864829E+01 -0.45657998625E+03  0.45664460741E+03  0.00000000000E+00 0. -1.
        -15    1    1    2    0    0  0.12832910929E+02 -0.36435757428E+01 -0.24913930199E+02  0.28316442115E+02  0.17770000000E+01 0. -1.
         15    1    1    2    0    0 -0.39745699532E+01  0.11568813341E+01 -0.16351647737E+02  0.16960828206E+02  0.17770000000E+01 0.  1.
</event>
<event>
 6    1  0.9144256E-004  0.5016073E+03  0.7546771E-02  0.9396221E-01
        -11   -1    0    0    0    0  0.00000000000E+00  0.00000000000E+00  0.50000000000E+03  0.50000000000E+03  0.00000000000E+00 0. -1.
         11   -1    0    0    0    0 -0.00000000000E+00 -0.00000000000E+00 -0.50000000000E+03  0.50000000000E+03  0.00000000000E+00 0.  1.
        -11    1    1    2    0    0  0.31742920418E+01  0.13793776754E+02  0.45334032892E+03  0.45356123979E+03  0.00000000000E+00 0. -1.
         11    1    1    2    0    0  0.38877938284E+01 -0.57671545634E+01 -0.49834421185E+03  0.49839274523E+03  0.00000000000E+00 0.  1.
        -15    1    1    2    0    0 -0.47162609493E+01  0.79031540982E-02  0.32538402288E+02  0.32926410862E+02  0.17770000000E+01 0. -1.
         15    1    1    2    0    0 -0.23458249209E+01 -0.80345253449E+01  0.12465480642E+02  0.15119604119E+02  0.17770000000E+01 0.  1.
</event>
<event>
 6    1  0.9144256E-004  0.5000529E+03  0.7546771E-02  0.9399691E-01
        -11   -1    0    0    0    0  0.00000000000E+00  0.00000000000E+00  0.50000000000E+03  0.50000000000E+03  0.00000000000E+00 0.  1.
         11   -1    0    0    0    0 -0.00000000000E+00 -0.00000000000E+00 -0.50000000000E+03  0.50000000000E+03  0.00000000000E+00 0. -1.
        -11    1    1    2    0    0  0.39044867683E+01 -0.48698032821E+01  0.19790775871E+03  0.19800616394E+03  0.00000000000E+00 0.  1.
         11    1    1    2    0    0 -0.41268975148E+00  0.68760307958E+01 -0.49989961318E+03  0.49994707057E+03  0.00000000000E+00 0. -1.
        -15    1    1    2    0    0 -0.12283701645E+01 -0.18446525053E+01  0.13297123661E+03  0.13300157567E+03  0.17770000000E+01 0.  1.
         15    1    1    2    0    0 -0.22634268523E+01 -0.16157500847E+00  0.16902061787E+03  0.16904518982E+03  0.17770000000E+01 0.  1.
</event>
<event>
 6    1  0.9144256E-004  0.4913603E+03  0.7546771E-02  0.9419352E-01
        -11   -1    0    0    0    0  0.00000000000E+00  0.00000000000E+00  0.50000000000E+03  0.50000000000E+03  0.00000000000E+00 0. -1.
         11   -1    0    0    0    0 -0.00000000000E+00 -0.00000000000E+00 -0.50000000000E+03  0.50000000000E+03  0.00000000000E+00 0. -1.
        -11    1    1    2    0    0 -0.74808174142E+01 -0.41117100670E+01  0.49350437207E+03  0.49357819446E+03  0.00000000000E+00 0. -1.
         11    1    1    2    0    0 -0.39894084385E+01 -0.59058831973E+01 -0.48921788327E+03  0.48926979484E+03  0.00000000000E+00 0. -1.
        -15    1    1    2    0    0  0.93221120500E+01  0.75706268939E+01 -0.97387628472E+00  0.12178765482E+02  0.17770000000E+01 0. -1.
         15    1    1    2    0    0  0.21481138028E+01  0.24469663704E+01 -0.33126125177E+01  0.49732452202E+01  0.17770000000E+01 0.  1.
</event>
<event>
 6    1  0.9144256E-004  0.5011286E+03  0.7546771E-02  0.9397288E-01
        -11   -1    0    0    0    0  0.00000000000E+00  0.00000000000E+00  0.50000000000E+03  0.50000000000E+03  0.00000000000E+00 0.  1.
         11   -1    0    0    0    0 -0.00000000000E+00 -0.00000000000E+00 -0.50000000000E+03  0.50000000000E+03  0.00000000000E+00 0.  1.
        -11    1    1    2    0    0 -0.13820976215E+02 -0.10198303994E+02  0.49857560085E+03  0.49887138077E+03  0.00000000000E+00 0.  1.
         11    1    1    2    0    0  0.40564682878E+01 -0.13277159009E+01 -0.29990913667E+03  0.29993950727E+03  0.00000000000E+00 0.  1.
        -15    1    1    2    0    0  0.56095540850E+01  0.68520050408E+01 -0.15740682726E+02  0.18147834356E+02  0.17770000000E+01 0.  1.
         15    1    1    2    0    0  0.41549538427E+01  0.46740148538E+01 -0.18292578146E+03  0.18304127761E+03  0.17770000000E+01 0. -1.
</event>
<event>
 6    1  0.9144256E-004  0.5008498E+03  0.7546771E-02  0.9397910E-01
        -11   -1    0    0    0    0  0.00000000000E+00  0.00000000000E+00  0.50000000000E+03  0.50000000000E+03  0.00000000000E+00 0. -1.
         11   -1    0    0    0    0 -0.00000000000E+00 -0.00000000000E+00 -0.50000000000E+03  0.50000000000E+03  0.00000000000E+00 0.  1.
        -11    1    1    2    0    0 -0.10010407349E+02  0.13218166039E+02  0.99992046492E+02  0.10135747397E+03  0.00000000000E+00 0. -1.
         11    1    1    2    0    0  0.20519811838E+02  0.46574906497E+01 -0.49870648487E+03  0.49915019077E+03  0.00000000000E+00 0.  1.
        -15    1    1    2    0    0 -0.11336941646E+02 -0.15903265804E+02  0.25572998378E+03  0.25648084225E+03  0.17770000000E+01 0.  1.
         15    1    1    2    0    0  0.82753715642E+00 -0.19723908850E+01  0.14298445460E+03  0.14301149300E+03  0.17770000000E+01 0. -1.
</event>
<event>
 6    1  0.9144256E-004  0.5043536E+03  0.7546771E-02  0.9390121E-01
        -11   -1    0    0    0    0  0.00000000000E+00  0.00000000000E+00  0.50000000000E+03  0.50000000000E+03  0.00000000000E+00 0.  1.
         11   -1    0    0    0    0 -0.00000000000E+00 -0.00000000000E+00 -0.50000000000E+03  0.50000000000E+03  0.00000000000E+00 0. -1.
        -11    1    1    2    0    0 -0.15954880345E+02 -0.18104056074E+02  0.45968205359E+03  0.46031500676E+03  0.00000000000E+00 0.  1.
         11    1    1    2    0    0 -0.61697084855E+01  0.79039564762E+01 -0.49554494660E+03  0.49564637791E+03  0.00000000000E+00 0. -1.
        -15    1    1    2    0    0  0.17374905195E+02  0.63135987552E+01  0.30440905136E+02  0.35658873991E+02  0.17770000000E+01 0. -1.
         15    1    1    2    0    0  0.47496836353E+01  0.38865008423E+01  0.54219878742E+01  0.83797413409E+01  0.17770000000E+01 0.  1.
</event>
<event>
 6    1  0.9144256E-004  0.5016670E+03  0.7546771E-02  0.9396087E-01
        -11   -1    0    0    0    0  0.00000000000E+00  0.00000000000E+00  0.50000000000E+03  0.50000000000E+03  0.00000000000E+00 0. -1.
         11   -1    0    0    0    0 -0.00000000000E+00 -0.00000000000E+00 -0.50000000000E+03  0.50000000000E+03  0.00000000000E+00 0. -1.
        -11    1    1    2    0    0  0.12490586956E+02  0.45712825095E+02  0.49607471377E+03  0.49833301996E+03  0.00000000000E+00 0. -1.
         11    1    1    2    0    0  0.12336960893E+01 -0.28057091501E+02 -0.77195520124E+02  0.82145424198E+02  0.00000000000E+00 0. -1.
        -15    1    1    2    0    0 -0.29847347706E+01 -0.74271497001E+01 -0.16442920995E+03  0.16463351423E+03  0.17770000000E+01 0. -1.
         15    1    1    2    0    0 -0.10739548275E+02 -0.10228583893E+02 -0.25444998370E+03  0.25488804161E+03  0.17770000000E+01 0.  1.
</event>
<event>
 6    1  0.9144256E-004  0.5001037E+03  0.7546771E-02  0.9399578E-01
        -11   -1    0    0    0    0  0.00000000000E+00  0.00000000000E+00  0.50000000000E+03  0.50000000000E+03  0.00000000000E+00 0.  1.
         11   -1    0    0    0    0 -0.00000000000E+00 -0.00000000000E+00 -0.50000000000E+03  0.50000000000E+03  0.00000000000E+00 0.  1.
        -11    1    1    2    0    0  0.30718917254E+01  0.51089888491E+01  0.23701875819E+03  0.23709371569E+03  0.00000000000E+00 0.  1.
         11    1    1    2    0    0 -0.69895716333E-01 -0.92620262467E+01 -0.49981045190E+03  0.49989626709E+03  0.00000000000E+00 0.  1.
        -15    1    1    2    0    0 -0.51503788455E+01  0.36517055209E+01  0.23079269899E+03  0.23088587872E+03  0.17770000000E+01 0. -1.
         15    1    1    2    0    0  0.21483828364E+01  0.50133187669E+00  0.31998994723E+02  0.32124138506E+02  0.17770000000E+01 0. -1.
</event>
<event>
 6    1  0.9144256E-004  0.5022335E+03  0.7546771E-02  0.9394826E-01
        -11   -1    0    0    0    0  0.00000000000E+00  0.00000000000E+00  0.50000000000E+03  0.50000000000E+03  0.00000000000E+00 0. -1.
         11   -1    0    0    0    0 -0.00000000000E+00 -0.00000000000E+00 -0.50000000000E+03  0.50000000000E+03  0.00000000000E+00 0.  1.
        -11    1    1    2    0    0  0.11708798010E+02 -0.36317795613E+01  0.49761554255E+03  0.49776652555E+03  0.00000000000E+00 0. -1.
         11    1    1    2    0    0  0.76200399985E+01  0.93730137052E+00 -0.45327678310E+03  0.45334179780E+03  0.00000000000E+00 0.  1.
        -15    1    1    2    0    0 -0.80766234443E+01 -0.14311717367E+01 -0.15884772204E+02  0.17965628733E+02  0.17770000000E+01 0. -1.
         15    1    1    2    0    0 -0.11252214564E+02  0.41256499275E+01 -0.28453987250E+02  0.30926047910E+02  0.17770000000E+01 0.  1.
</event>
<event>
 6    1  0.9144256E-004  0.5138099E+03  0.7546771E-02  0.9369428E-01
        -11   -1    0    0    0    0  0.00000000000E+00  0.00000000000E+00  0.50000000000E+03  0.50000000000E+03  0.00000000000E+00 0. -1.
         11   -1    0    0    0    0 -0.00000000000E+00 -0.00000000000E+00 -0.50000000000E+03  0.50000000000E+03  0.00000000000E+00 0. -1.
        -11    1    1    2    0    0 -0.48823130299E+02 -0.13254690503E+02  0.48355084747E+03  0.48619009344E+03  0.00000000000E+00 0. -1.
         11    1    1    2    0    0 -0.19447897568E+02  0.18224204101E+02 -0.41001749691E+03  0.41088281798E+03  0.00000000000E+00 0. -1.
        -15    1    1    2    0    0  0.19249954848E+02 -0.33073057448E+01 -0.36521910877E+02  0.41454875902E+02  0.17770000000E+01 0.  1.
         15    1    1    2    0    0  0.49021073019E+02 -0.16622078539E+01 -0.37011439682E+02  0.61472212675E+02  0.17770000000E+01 0. -1.
</event>
<event>
 6    1  0.9144256E-004  0.5083632E+03  0.7546771E-02  0.9381288E-01
        -11   -1    0    0    0    0  0.00000000000E+00  0.00000000000E+00  0.50000000000E+03  0.50000000000E+03  0.00000000000E+00 0. -1.
         11   -1    0    0    0    0 -0.00000000000E+00 -0.00000000000E+00 -0.50000000000E+03  0.50000000000E+03  0.00000000000E+00 0.  1.
        -11    1    1    2    0    0 -0.62562329635E+02 -0.10384717266E+02  0.48752933806E+03  0.49163679980E+03  0.00000000000E+00 0. -1.
         11    1    1    2    0    0 -0.10630930113E+01  0.67882674785E+01 -0.36419728033E+03  0.36426208936E+03  0.00000000000E+00 0.  1.
        -15    1    1    2    0    0  0.38327264293E+02  0.92937482410E+01 -0.10532474946E+03  0.11248028059E+03  0.17770000000E+01 0.  1.
         15    1    1    2    0    0  0.25298158354E+02 -0.56972984531E+01 -0.18007308275E+02  0.31620830256E+02  0.17770000000E+01 0. -1.
</event>
<event>
 6    1  0.9144256E-004  0.5049610E+03  0.7546771E-02  0.9388777E-01
        -11   -1    0    0    0    0  0.00000000000E+00  0.00000000000E+00  0.50000000000E+03  0.50000000000E+03  0.00000000000E+00 0.  1.
         11   -1    0    0    0    0 -0.00000000000E+00 -0.00000000000E+00 -0.50000000000E+03  0.50000000000E+03  0.00000000000E+00 0. -1.
        -11    1    1    2    0    0  0.77059740335E+01 -0.18391190249E+02  0.49463719617E+03  0.49503896185E+03  0.00000000000E+00 0.  1.
         11    1    1    2    0    0 -0.91401383585E+01  0.13678347659E+02 -0.48756492681E+03  0.48784238969E+03  0.00000000000E+00 0. -1.
        -15    1    1    2    0    0  0.70586915279E+00  0.80011205969E+01  0.90801086275E+00  0.82763757040E+01  0.17770000000E+01 0.  1.
         15    1    1    2    0    0  0.72829517229E+00 -0.32882780072E+01 -0.79802802204E+01  0.88422727569E+01  0.17770000000E+01 0. -1.
</event>
<event>
 6    1  0.9144256E-004  0.5023383E+03  0.7546771E-02  0.9394593E-01
        -11   -1    0    0    0    0  0.00000000000E+00  0.00000000000E+00  0.50000000000E+03  0.50000000000E+03  0.00000000000E+00 0.  1.
         11   -1    0    0    0    0 -0.00000000000E+00 -0.00000000000E+00 -0.50000000000E+03  0.50000000000E+03  0.00000000000E+00 0.  1.
        -11    1    1    2    0    0  0.78847793143E+01 -0.24308185089E+00  0.49759912518E+03  0.49766165034E+03  0.00000000000E+00 0.  1.
         11    1    1    2    0    0  0.49144524224E+01  0.42965173090E+01 -0.47480916176E+03  0.47485403231E+03  0.00000000000E+00 0.  1.
        -15    1    1    2    0    0 -0.84796479815E+01 -0.46032532272E+00 -0.90655507648E+01  0.12548237684E+02  0.17770000000E+01 0. -1.
         15    1    1    2    0    0 -0.43195837552E+01 -0.35931101354E+01 -0.13724412653E+02  0.14936079671E+02  0.17770000000E+01 0.  1.
</event>
<event>
 6    1  0.9144256E-004  0.5019657E+03  0.7546771E-02  0.9395422E-01
        -11   -1    0    0    0    0  0.00000000000E+00  0.00000000000E+00  0.50000000000E+03  0.50000000000E+03  0.00000000000E+00 0.  1.
         11   -1    0    0    0    0 -0.00000000000E+00 -0.00000000000E+00 -0.50000000000E+03  0.50000000000E+03  0.00000000000E+00 0. -1.
        -11    1    1    2    0    0  0.46969347716E+01 -0.14936298367E+02  0.49778814659E+03  0.49803432923E+03  0.00000000000E+00 0.  1.
         11    1    1    2    0    0 -0.18003644849E+01  0.66570122317E+01 -0.43110998374E+03  0.43116513682E+03  0.00000000000E+00 0. -1.
        -15    1    1    2    0    0 -0.19670382968E+01 -0.52344817659E+01 -0.43513566868E+02  0.43907371473E+02  0.17770000000E+01 0. -1.
         15    1    1    2    0    0 -0.92953198988E+00  0.13513767901E+02 -0.23164595978E+02  0.26893162485E+02  0.17770000000E+01 0.  1.
</event>
<event>
 6    1  0.9144256E-004  0.5002894E+03  0.7546771E-02  0.9399162E-01
        -11   -1    0    0    0    0  0.00000000000E+00  0.00000000000E+00  0.50000000000E+03  0.50000000000E+03  0.00000000000E+00 0.  1.
         11   -1    0    0    0    0 -0.00000000000E+00 -0.00000000000E+00 -0.50000000000E+03  0.50000000000E+03  0.00000000000E+00 0.  1.
        -11    1    1    2    0    0 -0.59292821976E+01  0.49047443283E+01  0.49965134817E+03  0.49971059888E+03  0.00000000000E+00 0.  1.
         11    1    1    2    0    0 -0.40094967424E+01  0.25330085297E+01 -0.30010146704E+03  0.30013893902E+03  0.00000000000E+00 0.  1.
        -15    1    1    2    0    0  0.28750824948E+01 -0.55713599673E+01 -0.13621970897E+03  0.13637548531E+03  0.17770000000E+01 0.  1.
         15    1    1    2    0    0  0.70636964453E+01 -0.18663928907E+01 -0.63330172162E+02  0.63774976793E+02  0.17770000000E+01 0. -1.
</event>
<event>
 6    1  0.9144256E-004  0.5031831E+03  0.7546771E-02  0.9392715E-01
        -11   -1    0    0    0    0  0.00000000000E+00  0.00000000000E+00  0.50000000000E+03  0.50000000000E+03  0.00000000000E+00 0. -1.
         11   -1    0    0    0    0 -0.00000000000E+00 -0.00000000000E+00 -0.50000000000E+03  0.50000000000E+03  0.00000000000E+00 0. -1.
        -11    1    1    2    0    0 -0.23363635597E+00 -0.11842634550E+02  0.46190263987E+03  0.46205448953E+03  0.00000000000E+00 0. -1.
         11    1    1    2    0    0 -0.92984970586E+01  0.23544932875E+01 -0.49672432515E+03  0.49681692894E+03  0.00000000000E+00 0. -1.
        -15    1    1    2    0    0  0.92892080656E+00  0.12449988624E+02  0.19624019708E+02  0.23326486857E+02  0.17770000000E+01 0.  1.
         15    1    1    2    0    0  0.86032126080E+01 -0.29618473615E+01  0.15197665570E+02  0.17802094673E+02  0.17770000000E+01 0. -1.
</event>
<event>
 6    1  0.9144256E-004  0.5008623E+03  0.7546771E-02  0.9397882E-01
        -11   -1    0    0    0    0  0.00000000000E+00  0.00000000000E+00  0.50000000000E+03  0.50000000000E+03  0.00000000000E+00 0.  1.
         11   -1    0    0    0    0 -0.00000000000E+00 -0.00000000000E+00 -0.50000000000E+03  0.50000000000E+03  0.00000000000E+00 0. -1.
        -11    1    1    2    0    0  0.99076427856E+01 -0.22909882167E+01  0.39565220321E+03  0.39578286461E+03  0.00000000000E+00 0.  1.
         11    1    1    2    0    0  0.60292341840E+01  0.39091750542E+01 -0.49908593336E+03  0.49913765856E+03  0.00000000000E+00 0. -1.
        -15    1    1    2    0    0 -0.11700010281E+02 -0.24507456027E+01  0.49904544726E+02  0.51347032123E+02  0.17770000000E+01 0. -1.
         15    1    1    2    0    0 -0.42368666885E+01  0.83255876529E+00  0.53529185424E+02  0.53732444711E+02  0.17770000000E+01 0.  1.
</event>
<event>
 6    1  0.9144256E-004  0.5021109E+03  0.7546771E-02  0.9395099E-01
        -11   -1    0    0    0    0  0.00000000000E+00  0.00000000000E+00  0.50000000000E+03  0.50000000000E+03  0.00000000000E+00 0.  1.
         11   -1    0    0    0    0 -0.00000000000E+00 -0.00000000000E+00 -0.50000000000E+03  0.50000000000E+03  0.00000000000E+00 0.  1.
        -11    1    1    2    0    0  0.54001732418E+01  0.13230573592E+02  0.49768398440E+03  0.49788910239E+03  0.00000000000E+00 0.  1.
         11    1    1    2    0    0  0.87057220726E+01 -0.81228614266E+00 -0.44796511204E+03  0.44805043356E+03  0.00000000000E+00 0.  1.
        -15    1    1    2    0    0 -0.39902497779E+01  0.84426418955E+00 -0.10037349729E+02  0.10979116262E+02  0.17770000000E+01 0. -1.
         15    1    1    2    0    0 -0.10115645536E+02 -0.13262551639E+02 -0.39681522624E+02  0.43081347790E+02  0.17770000000E+01 0.  1.
</event>
<event>
 6    1  0.9144256E-004  0.5004427E+03  0.7546771E-02  0.9398820E-01
        -11   -1    0    0    0    0  0.00000000000E+00  0.00000000000E+00  0.50000000000E+03  0.50000000000E+03  0.00000000000E+00 0.  1.
         11   -1    0    0    0    0 -0.00000000000E+00 -0.00000000000E+00 -0.50000000000E+03  0.50000000000E+03  0.00000000000E+00 0.  1.
        -11    1    1    2    0    0  0.52143696100E+01  0.24867431781E+01  0.26452593482E+03  0.26458900910E+03  0.00000000000E+00 0.  1.
         11    1    1    2    0    0 -0.10821076429E+02 -0.11039972633E+02 -0.49931810287E+03  0.49955734860E+03  0.00000000000E+00 0.  1.
        -15    1    1    2    0    0  0.14935599728E+01 -0.27992198192E+01  0.86622318189E+01  0.93945911072E+01  0.17770000000E+01 0. -1.
         15    1    1    2    0    0  0.41131468460E+01  0.11352449274E+02  0.22612993623E+03  0.22645905119E+03  0.17770000000E+01 0.  1.
</event>
<event>
 6    1  0.9144256E-004  0.5022413E+03  0.7546771E-02  0.9394809E-01
        -11   -1    0    0    0    0  0.00000000000E+00  0.00000000000E+00  0.50000000000E+03  0.50000000000E+03  0.00000000000E+00 0.  1.
         11   -1    0    0    0    0 -0.00000000000E+00 -0.00000000000E+00 -0.50000000000E+03  0.50000000000E+03  0.00000000000E+00 0. -1.
        -11    1    1    2    0    0  0.22735684604E+01  0.15176118619E+02  0.49752209093E+03  0.49775869118E+03  0.00000000000E+00 0.  1.
         11    1    1    2    0    0 -0.66299269459E+01 -0.60129242262E+01 -0.46017538592E+03  0.46026242188E+03  0.00000000000E+00 0. -1.
        -15    1    1    2    0    0  0.53886654326E+01 -0.17263439058E+01 -0.32112068118E+02  0.32655177633E+02  0.17770000000E+01 0.  1.
         15    1    1    2    0    0 -0.10323069472E+01 -0.74368504870E+01 -0.52346368853E+01  0.93237093005E+01  0.17770000000E+01 0. -1.
</event>
<event>
 6    1  0.9144256E-004  0.5009182E+03  0.7546771E-02  0.9397757E-01
        -11   -1    0    0    0    0  0.00000000000E+00  0.00000000000E+00  0.50000000000E+03  0.50000000000E+03  0.00000000000E+00 0.  1.
         11   -1    0    0    0    0 -0.00000000000E+00 -0.00000000000E+00 -0.50000000000E+03  0.50000000000E+03  0.00000000000E+00 0. -1.
        -11    1    1    2    0    0  0.82380005874E+01  0.26345006362E+01  0.19662227952E+03  0.19681241335E+03  0.00000000000E+00 0.  1.
         11    1    1    2    0    0  0.86371521416E+01 -0.12062423789E+02 -0.49886120477E+03  0.49908176093E+03  0.00000000000E+00 0. -1.
        -15    1    1    2    0    0 -0.16201069647E+01  0.82728646954E+01  0.23365775737E+03  0.23381653138E+03  0.17770000000E+01 0.  1.
         15    1    1    2    0    0 -0.15255045764E+02  0.11550584575E+01  0.68581167889E+02  0.70289294344E+02  0.17770000000E+01 0. -1.
</event>
<event>
 6    1  0.9144256E-004  0.5032316E+03  0.7546771E-02  0.9392608E-01
        -11   -1    0    0    0    0  0.00000000000E+00  0.00000000000E+00  0.50000000000E+03  0.50000000000E+03  0.00000000000E+00 0. -1.
         11   -1    0    0    0    0 -0.00000000000E+00 -0.00000000000E+00 -0.50000000000E+03  0.50000000000E+03  0.00000000000E+00 0. -1.
        -11    1    1    2    0    0 -0.11245174312E+01 -0.16888216674E+02  0.46844241265E+03  0.46874808839E+03  0.00000000000E+00 0. -1.
         11    1    1    2    0    0  0.83739623871E+01 -0.39898220984E+00 -0.49669760613E+03  0.49676835081E+03  0.00000000000E+00 0. -1.
        -15    1    1    2    0    0 -0.21728532795E+01  0.26411515792E+01  0.83135318973E+01  0.91634881266E+01  0.17770000000E+01 0. -1.
         15    1    1    2    0    0 -0.50765916764E+01  0.14646047304E+02  0.19941661583E+02  0.25320072677E+02  0.17770000000E+01 0.  1.
</event>
<event>
 6    1  0.9144256E-004  0.5001800E+03  0.7546771E-02  0.9399407E-01
        -11   -1    0    0    0    0  0.00000000000E+00  0.00000000000E+00  0.50000000000E+03  0.50000000000E+03  0.00000000000E+00 0.  1.
         11   -1    0    0    0    0 -0.00000000000E+00 -0.00000000000E+00 -0.50000000000E+03  0.50000000000E+03  0.00000000000E+00 0.  1.
        -11    1    1    2    0    0 -0.13659831906E+01  0.29754229750E+02  0.42512698203E+03  0.42616913420E+03  0.00000000000E+00 0.  1.
         11    1    1    2    0    0  0.31216471718E+01 -0.29956037344E+02 -0.49891169828E+03  0.49981995912E+03  0.00000000000E+00 0.  1.
        -15    1    1    2    0    0 -0.32787772505E+00 -0.19385756955E+01  0.32349590362E+02  0.32457962122E+02  0.17770000000E+01 0.  1.
         15    1    1    2    0    0 -0.14277862562E+01  0.21403832891E+01  0.41435125892E+02  0.41552944552E+02  0.17770000000E+01 0. -1.
</event>
<event>
 6    1  0.9144256E-004  0.5016242E+03  0.7546771E-02  0.9396183E-01
        -11   -1    0    0    0    0  0.00000000000E+00  0.00000000000E+00  0.50000000000E+03  0.50000000000E+03  0.00000000000E+00 0. -1.
         11   -1    0    0    0    0 -0.00000000000E+00 -0.00000000000E+00 -0.50000000000E+03  0.50000000000E+03  0.00000000000E+00 0.  1.
        -11    1    1    2    0    0  0.76235668077E+01 -0.18387413737E+01  0.45923761623E+03  0.45930456987E+03  0.00000000000E+00 0. -1.
         11    1    1    2    0    0 -0.36996242834E+01 -0.82720056928E+01 -0.49829344406E+03  0.49837583177E+03  0.00000000000E+00 0.  1.
        -15    1    1    2    0    0  0.16087897183E+01  0.69675263752E+01  0.94369119418E+01  0.11972788487E+02  0.17770000000E+01 0.  1.
         15    1    1    2    0    0 -0.55327322427E+01  0.31432206913E+01  0.29618915885E+02  0.30346809875E+02  0.17770000000E+01 0. -1.
</event>
<event>
 6    1  0.9144256E-004  0.5149339E+03  0.7546771E-02  0.9367000E-01
        -11   -1    0    0    0    0  0.00000000000E+00  0.00000000000E+00  0.50000000000E+03  0.50000000000E+03  0.00000000000E+00 0.  1.
         11   -1    0    0    0    0 -0.00000000000E+00 -0.00000000000E+00 -0.50000000000E+03  0.50000000000E+03  0.00000000000E+00 0. -1.
        -11    1    1    2    0    0 -0.47027158071E+02 -0.75727170341E+02  0.47680493783E+03  0.48506608485E+03  0.00000000000E+00 0.  1.
         11    1    1    2    0    0 -0.38419274037E+01 -0.12055961331E+02 -0.31738107594E+03  0.31763320666E+03  0.00000000000E+00 0. -1.
        -15    1    1    2    0    0  0.57502776780E+02  0.75016362311E+02 -0.10640108659E+03  0.14233191107E+03  0.17770000000E+01 0. -1.
         15    1    1    2    0    0 -0.66336913060E+01  0.12766769361E+02 -0.53022775300E+02  0.54968797420E+02  0.17770000000E+01 0.  1.
</event>
<event>
 6    1  0.9144256E-004  0.5009106E+03  0.7546771E-02  0.9397775E-01
        -11   -1    0    0    0    0  0.00000000000E+00  0.00000000000E+00  0.50000000000E+03  0.50000000000E+03  0.00000000000E+00 0. -1.
         11   -1    0    0    0    0 -0.00000000000E+00 -0.00000000000E+00 -0.50000000000E+03  0.50000000000E+03  0.00000000000E+00 0. -1.
        -11    1    1    2    0    0 -0.60588413560E+01  0.83366590280E+01  0.49898303221E+03  0.49908944676E+03  0.00000000000E+00 0. -1.
         11    1    1    2    0    0  0.68290981962E+01 -0.20516144130E+01 -0.47921731327E+03  0.47927036111E+03  0.00000000000E+00 0. -1.
        -15    1    1    2    0    0 -0.23974209744E+01 -0.31072522618E+01 -0.13859714879E+02  0.14513857843E+02  0.17770000000E+01 0.  1.
         15    1    1    2    0    0  0.16271641342E+01 -0.31777923532E+01 -0.59060040546E+01  0.71263342787E+01  0.17770000000E+01 0. -1.
</event>
<event>
 6    1  0.9144256E-004  0.5049961E+03  0.7546771E-02  0.9388699E-01
        -11   -1    0    0    0    0  0.00000000000E+00  0.00000000000E+00  0.50000000000E+03  0.50000000000E+03  0.00000000000E+00 0.  1.
         11   -1    0    0    0    0 -0.00000000000E+00 -0.00000000000E+00 -0.50000000000E+03  0.50000000000E+03  0.00000000000E+00 0. -1.
        -11    1    1    2    0    0  0.16442771289E+02  0.16544032497E+02  0.49445402779E+03  0.49500389427E+03  0.00000000000E+00 0.  1.
         11    1    1    2    0    0  0.56918709772E+01 -0.65898222584E+01 -0.45796103989E+03  0.45804381582E+03  0.00000000000E+00 0. -1.
        -15    1    1    2    0    0 -0.20741088765E+01  0.35457400871E+01 -0.10462267287E+02  0.11379409746E+02  0.17770000000E+01 0.  1.
         15    1    1    2    0    0 -0.20060533390E+02 -0.13499950326E+02 -0.26030720615E+02  0.35572880168E+02  0.17770000000E+01 0. -1.
</event>
<event>
 6    1  0.9144256E-004  0.5081516E+03  0.7546771E-02  0.9381752E-01
        -11   -1    0    0    0    0  0.00000000000E+00  0.00000000000E+00  0.50000000000E+03  0.50000000000E+03  0.00000000000E+00 0.  1.
         11   -1    0    0    0    0 -0.00000000000E+00 -0.00000000000E+00 -0.50000000000E+03  0.50000000000E+03  0.00000000000E+00 0.  1.
        -11    1    1    2    0    0  0.94655590730E+01 -0.26768474231E+02  0.44518586595E+03  0.44609035325E+03  0.00000000000E+00 0.  1.
         11    1    1    2    0    0  0.10704021260E+02 -0.77884163894E+01 -0.49167017915E+03  0.49184835119E+03  0.00000000000E+00 0.  1.
        -15    1    1    2    0    0 -0.14858219139E+02  0.27521203517E+02  0.40735895887E+02  0.51388269690E+02  0.17770000000E+01 0. -1.
         15    1    1    2    0    0 -0.53113611945E+01  0.70356871032E+01  0.57484173125E+01  0.10673025876E+02  0.17770000000E+01 0.  1.
</event>
<event>
 6    1  0.9144256E-004  0.5130415E+03  0.7546771E-02  0.9371092E-01
        -11   -1    0    0    0    0  0.00000000000E+00  0.00000000000E+00  0.50000000000E+03  0.50000000000E+03  0.00000000000E+00 0.  1.
         11   -1    0    0    0    0 -0.00000000000E+00 -0.00000000000E+00 -0.50000000000E+03  0.50000000000E+03  0.00000000000E+00 0. -1.
        -11    1    1    2    0    0 -0.35588341379E+02  0.14324264857E+01  0.44912953986E+03  0.45053959366E+03  0.00000000000E+00 0.  1.
         11    1    1    2    0    0 -0.70508814618E+01 -0.16622958134E+02 -0.48662365435E+03  0.48695853894E+03  0.00000000000E+00 0. -1.
        -15    1    1    2    0    0  0.35550065044E+02  0.80692139085E+01  0.37456035131E+02  0.52297529908E+02  0.17770000000E+01 0. -1.
         15    1    1    2    0    0  0.70891577977E+01  0.71213177399E+01  0.38079365830E-01  0.10204337493E+02  0.17770000000E+01 0.  1.
</event>
<event>
 6    1  0.9144256E-004  0.5026057E+03  0.7546771E-02  0.9393998E-01
        -11   -1    0    0    0    0  0.00000000000E+00  0.00000000000E+00  0.50000000000E+03  0.50000000000E+03  0.00000000000E+00 0. -1.
         11   -1    0    0    0    0 -0.00000000000E+00 -0.00000000000E+00 -0.50000000000E+03  0.50000000000E+03  0.00000000000E+00 0.  1.
        -11    1    1    2    0    0  0.92439270881E+01 -0.44027477376E+02  0.15070762802E+03  0.15727891815E+03  0.00000000000E+00 0. -1.
         11    1    1    2    0    0 -0.96323543638E+01  0.44461807664E+02 -0.49530945826E+03  0.49739430438E+03  0.00000000000E+00 0.  1.
        -15    1    1    2    0    0 -0.78365424085E+01 -0.70940607551E+01  0.22107037845E+03  0.22133008619E+03  0.17770000000E+01 0. -1.
         15    1    1    2    0    0  0.82249696841E+01  0.66597304675E+01  0.12353145179E+03  0.12399669127E+03  0.17770000000E+01 0.  1.
</event>
<event>
 6    1  0.9144256E-004  0.4765217E+03  0.7546771E-02  0.9453933E-01
        -11   -1    0    0    0    0  0.00000000000E+00  0.00000000000E+00  0.50000000000E+03  0.50000000000E+03  0.00000000000E+00 0. -1.
         11   -1    0    0    0    0 -0.00000000000E+00 -0.00000000000E+00 -0.50000000000E+03  0.50000000000E+03  0.00000000000E+00 0.  1.
        -11    1    1    2    0    0 -0.15156021559E+02 -0.28463612239E+02  0.48178400554E+03  0.48286199914E+03  0.00000000000E+00 0. -1.
         11    1    1    2    0    0 -0.77399549624E+01  0.34518705999E+01 -0.47077173136E+03  0.47084800664E+03  0.00000000000E+00 0.  1.
        -15    1    1    2    0    0 -0.40694946317E+00  0.13642449288E+02 -0.14587633932E+02  0.20055892480E+02  0.17770000000E+01 0. -1.
         15    1    1    2    0    0  0.23302925984E+02  0.11369292352E+02  0.35753597428E+01  0.26234101744E+02  0.17770000000E+01 0.  1.
</event>
<event>
 6    1  0.9144256E-004  0.4465915E+03  0.7546771E-02  0.9527946E-01
        -11   -1    0    0    0    0  0.00000000000E+00  0.00000000000E+00  0.50000000000E+03  0.50000000000E+03  0.00000000000E+00 0. -1.
         11   -1    0    0    0    0 -0.00000000000E+00 -0.00000000000E+00 -0.50000000000E+03  0.50000000000E+03  0.00000000000E+00 0. -1.
        -11    1    1    2    0    0 -0.33954591228E+02 -0.73669358574E+02  0.44950913683E+03  0.45676969333E+03  0.00000000000E+00 0. -1.
         11    1    1    2    0    0  0.76184931010E+00  0.59426445101E+01 -0.43960611464E+03  0.43964693956E+03  0.00000000000E+00 0. -1.
        -15    1    1    2    0    0  0.21349088348E+02  0.51563307781E+02  0.26642368633E+02  0.61867049534E+02  0.17770000000E+01 0. -1.
         15    1    1    2    0    0  0.11843653570E+02  0.16163406283E+02 -0.36545390822E+02  0.41716317574E+02  0.17770000000E+01 0.  1.
</event>
<event>
 6    1  0.9144256E-004  0.5049133E+03  0.7546771E-02  0.9388882E-01
        -11   -1    0    0    0    0  0.00000000000E+00  0.00000000000E+00  0.50000000000E+03  0.50000000000E+03  0.00000000000E+00 0.  1.
         11   -1    0    0    0    0 -0.00000000000E+00 -0.00000000000E+00 -0.50000000000E+03  0.50000000000E+03  0.00000000000E+00 0.  1.
        -11    1    1    2    0    0 -0.19441604052E+02  0.88605158421E+01  0.49462547408E+03  0.49508670384E+03  0.00000000000E+00 0.  1.
         11    1    1    2    0    0 -0.57782215014E+00  0.17809648461E+02 -0.38733389395E+03  0.38774355296E+03  0.00000000000E+00 0.  1.
        -15    1    1    2    0    0  0.19126221036E+02 -0.14181169281E+02 -0.27657812605E+02  0.36538065362E+02  0.17770000000E+01 0. -1.
         15    1    1    2    0    0  0.89320516611E+00 -0.12488995022E+02 -0.79633767524E+02  0.80631677839E+02  0.17770000000E+01 0.  1.
</event>
<event>
 6    1  0.9144256E-004  0.5027539E+03  0.7546771E-02  0.9393669E-01
        -11   -1    0    0    0    0  0.00000000000E+00  0.00000000000E+00  0.50000000000E+03  0.50000000000E+03  0.00000000000E+00 0. -1.
         11   -1    0    0    0    0 -0.00000000000E+00 -0.00000000000E+00 -0.50000000000E+03  0.50000000000E+03  0.00000000000E+00 0. -1.
        -11    1    1    2    0    0 -0.21517363932E+01 -0.78537456466E+01  0.49717936993E+03  0.49724605295E+03  0.00000000000E+00 0. -1.
         11    1    1    2    0    0  0.68721736445E+01 -0.20154320941E+01 -0.48710518076E+03  0.48715782439E+03  0.00000000000E+00 0. -1.
        -15    1    1    2    0    0 -0.98783695464E+00  0.56177516729E+01 -0.51819083031E+01  0.79085307339E+01  0.17770000000E+01 0.  1.
         15    1    1    2    0    0 -0.37326002966E+01  0.42514260677E+01 -0.48922808646E+01  0.76875919274E+01  0.17770000000E+01 0. -1.
</event>
<event>
 6    1  0.9144256E-004  0.5006664E+03  0.7546771E-02  0.9398320E-01
        -11   -1    0    0    0    0  0.00000000000E+00  0.00000000000E+00  0.50000000000E+03  0.50000000000E+03  0.00000000000E+00 0. -1.
         11   -1    0    0    0    0 -0.00000000000E+00 -0.00000000000E+00 -0.50000000000E+03  0.50000000000E+03  0.00000000000E+00 0. -1.
        -11    1    1    2    0    0  0.83073516737E+01 -0.34299456718E+01  0.49925273980E+03  0.49933363077E+03  0.00000000000E+00 0. -1.
         11    1    1    2    0    0 -0.70280912033E+01  0.96489323657E+00 -0.43506618573E+03  0.43512401801E+03  0.00000000000E+00 0. -1.
        -15    1    1    2    0    0 -0.34855605274E+01 -0.43621204780E+01 -0.29714543578E+02  0.30286780224E+02  0.17770000000E+01 0.  1.
         15    1    1    2    0    0  0.22063000569E+01  0.68271729133E+01 -0.34472010490E+02  0.35255570995E+02  0.17770000000E+01 0. -1.
</event>
<event>
 6    1  0.9144256E-004  0.4584853E+03  0.7546771E-02  0.9497816E-01
        -11   -1    0    0    0    0  0.00000000000E+00  0.00000000000E+00  0.50000000000E+03  0.50000000000E+03  0.00000000000E+00 0.  1.
         11   -1    0    0    0    0 -0.00000000000E+00 -0.00000000000E+00 -0.50000000000E+03  0.50000000000E+03  0.00000000000E+00 0. -1.
        -11    1    1    2    0    0  0.39998660022E+02 -0.43081889337E+02  0.47294266739E+03  0.47658232094E+03  0.00000000000E+00 0.  1.
         11    1    1    2    0    0  0.89874312126E+01  0.35883619417E+01 -0.44292885380E+03  0.44303455824E+03  0.00000000000E+00 0. -1.
        -15    1    1    2    0    0 -0.37435056376E+02  0.42584572181E+02 -0.35697765751E+02  0.67024752459E+02  0.17770000000E+01 0. -1.
         15    1    1    2    0    0 -0.11551034858E+02 -0.30910447851E+01  0.56839521625E+01  0.13358368364E+02  0.17770000000E+01 0.  1.
</event>
<event>
 6    1  0.9144256E-004  0.5001507E+03  0.7546771E-02  0.9399473E-01
        -11   -1    0    0    0    0  0.00000000000E+00  0.00000000000E+00  0.50000000000E+03  0.50000000000E+03  0.00000000000E+00 0. -1.
         11   -1    0    0    0    0 -0.00000000000E+00 -0.00000000000E+00 -0.50000000000E+03  0.50000000000E+03  0.00000000000E+00 0. -1.
        -11    1    1    2    0    0 -0.36884739004E+01 -0.45930051310E+01  0.38018042873E+03  0.38022606293E+03  0.00000000000E+00 0. -1.
         11    1    1    2    0    0  0.94319318292E+01 -0.14961636914E+00 -0.49976029717E+03  0.49984931565E+03  0.00000000000E+00 0. -1.
        -15    1    1    2    0    0 -0.31010468731E+01  0.94779283682E+00  0.70080420323E+02  0.70177901397E+02  0.17770000000E+01 0. -1.
         15    1    1    2    0    0 -0.26424110557E+01  0.37948286634E+01  0.49499448116E+02  0.49746720029E+02  0.17770000000E+01 0.  1.
</event>
<event>
 6    1  0.9144256E-004  0.5304924E+03  0.7546771E-02  0.9334052E-01
        -11   -1    0    0    0    0  0.00000000000E+00  0.00000000000E+00  0.50000000000E+03  0.50000000000E+03  0.00000000000E+00 0. -1.
         11   -1    0    0    0    0 -0.00000000000E+00 -0.00000000000E+00 -0.50000000000E+03  0.50000000000E+03  0.00000000000E+00 0. -1.
        -11    1    1    2    0    0  0.71251468018E+02 -0.11042498107E+02  0.94142685085E+02  0.11858142188E+03  0.00000000000E+00 0. -1.
         11    1    1    2    0    0  0.54160801800E+01  0.99304455128E+01 -0.46937128283E+03  0.46950755991E+03  0.00000000000E+00 0. -1.
        -15    1    1    2    0    0 -0.14949394586E+02 -0.15129798433E+02  0.33662968215E+03  0.33730564157E+03  0.17770000000E+01 0. -1.
         15    1    1    2    0    0 -0.61718153612E+02  0.16241851028E+02  0.38598915594E+02  0.74605376643E+02  0.17770000000E+01 0.  1.
</event>
<event>
 6    1  0.9144256E-004  0.5009089E+03  0.7546771E-02  0.9397778E-01
        -11   -1    0    0    0    0  0.00000000000E+00  0.00000000000E+00  0.50000000000E+03  0.50000000000E+03  0.00000000000E+00 0.  1.
         11   -1    0    0    0    0 -0.00000000000E+00 -0.00000000000E+00 -0.50000000000E+03  0.50000000000E+03  0.00000000000E+00 0.  1.
        -11    1    1    2    0    0  0.99628538755E+01  0.65957876496E+01  0.49894806412E+03  0.49909110748E+03  0.00000000000E+00 0.  1.
         11    1    1    2    0    0  0.42261129367E+01 -0.10671481306E+02 -0.41579342264E+03  0.41595181314E+03  0.00000000000E+00 0.  1.
        -15    1    1    2    0    0 -0.89915317190E+01  0.58156486378E+01 -0.41087170439E+02  0.42496855360E+02  0.17770000000E+01 0. -1.
         15    1    1    2    0    0 -0.51974350932E+01 -0.17399549810E+01 -0.42067471046E+02  0.42460224023E+02  0.17770000000E+01 0.  1.
</event>
<event>
 6    1  0.9144256E-004  0.4735402E+03  0.7546771E-02  0.9461043E-01
        -11   -1    0    0    0    0  0.00000000000E+00  0.00000000000E+00  0.50000000000E+03  0.50000000000E+03  0.00000000000E+00 0.  1.
         11   -1    0    0    0    0 -0.00000000000E+00 -0.00000000000E+00 -0.50000000000E+03  0.50000000000E+03  0.00000000000E+00 0. -1.
        -11    1    1    2    0    0  0.17082086705E+02  0.51762962217E+02  0.47872782503E+03  0.48182105848E+03  0.00000000000E+00 0.  1.
         11    1    1    2    0    0 -0.32263352751E+02 -0.70752217507E+01 -0.46535812087E+03  0.46652884514E+03  0.00000000000E+00 0. -1.
        -15    1    1    2    0    0 -0.81040338059E-01 -0.20620037184E+02 -0.15775762174E+01  0.20756661021E+02  0.17770000000E+01 0.  1.
         15    1    1    2    0    0  0.15262306384E+02 -0.24067703282E+02 -0.11792127942E+02  0.30893435352E+02  0.17770000000E+01 0. -1.
</event>
<event>
 6    1  0.9144256E-004  0.5019683E+03  0.7546771E-02  0.9395416E-01
        -11   -1    0    0    0    0  0.00000000000E+00  0.00000000000E+00  0.50000000000E+03  0.50000000000E+03  0.00000000000E+00 0.  1.
         11   -1    0    0    0    0 -0.00000000000E+00 -0.00000000000E+00 -0.50000000000E+03  0.50000000000E+03  0.00000000000E+00 0. -1.
        -11    1    1    2    0    0  0.30017423035E+01  0.11127225609E+02  0.49789833266E+03  0.49803170107E+03  0.00000000000E+00 0.  1.
         11    1    1    2    0    0 -0.47603582438E+01 -0.84145113714E+01 -0.43879424264E+03  0.43890073182E+03  0.00000000000E+00 0. -1.
        -15    1    1    2    0    0  0.13228951270E+01 -0.88760337052E+01 -0.10035201460E+02  0.13579286550E+02  0.17770000000E+01 0.  1.
         15    1    1    2    0    0  0.43572081331E+00  0.61633194680E+01 -0.49068888557E+02  0.49488280560E+02  0.17770000000E+01 0. -1.
</event>
<event>
 6    1  0.9144256E-004  0.5021361E+03  0.7546771E-02  0.9395043E-01
        -11   -1    0    0    0    0  0.00000000000E+00  0.00000000000E+00  0.50000000000E+03  0.50000000000E+03  0.00000000000E+00 0. -1.
         11   -1    0    0    0    0 -0.00000000000E+00 -0.00000000000E+00 -0.50000000000E+03  0.50000000000E+03  0.00000000000E+00 0. -1.
        -11    1    1    2    0    0 -0.16957339169E+02 -0.45689173794E+01  0.46457419092E+03  0.46490601763E+03  0.00000000000E+00 0. -1.
         11    1    1    2    0    0  0.23231909688E+01  0.72675867448E+01 -0.49780545648E+03  0.49786392472E+03  0.00000000000E+00 0. -1.
        -15    1    1    2    0    0  0.86236492608E+01 -0.38865867303E+01  0.14168787548E+02  0.17128489500E+02  0.17770000000E+01 0. -1.
         15    1    1    2    0    0  0.60104989389E+01  0.11879173649E+01  0.19062478010E+02  0.20101568149E+02  0.17770000000E+01 0.  1.
</event>
<event>
 6    1  0.9700605E-004  0.5000773E+03  0.7546771E-02  0.9399637E-01
        -11   -1    0    0    0    0  0.00000000000E+00  0.00000000000E+00  0.50000000000E+03  0.50000000000E+03  0.00000000000E+00 0. -1.
         11   -1    0    0    0    0 -0.00000000000E+00 -0.00000000000E+00 -0.50000000000E+03  0.50000000000E+03  0.00000000000E+00 0.  1.
        -11    1    1    2    0    0 -0.65931019051E+01 -0.70724827179E+01  0.49982922776E+03  0.49992273996E+03  0.00000000000E+00 0. -1.
         11    1    1    2    0    0 -0.95441317147E+00  0.37673141286E+00 -0.74473419571E+02  0.74480487737E+02  0.00000000000E+00 0.  1.
        -15    1    1    2    0    0  0.78770856550E+01  0.28402448367E+01 -0.36034965081E+03  0.36045130605E+03  0.17770000000E+01 0.  1.
         15    1    1    2    0    0 -0.32957057845E+00  0.38555064683E+01 -0.65006157379E+02  0.65145466251E+02  0.17770000000E+01 0. -1.
</event>
<event>
 6    1  0.9144256E-004  0.5103377E+03  0.7546771E-02  0.9376971E-01
        -11   -1    0    0    0    0  0.00000000000E+00  0.00000000000E+00  0.50000000000E+03  0.50000000000E+03  0.00000000000E+00 0. -1.
         11   -1    0    0    0    0 -0.00000000000E+00 -0.00000000000E+00 -0.50000000000E+03  0.50000000000E+03  0.00000000000E+00 0. -1.
        -11    1    1    2    0    0  0.16779383810E+02 -0.48834718312E+01  0.48935035888E+03  0.48966230175E+03  0.00000000000E+00 0. -1.
         11    1    1    2    0    0 -0.21913494993E+02  0.34841783233E+01 -0.40314212894E+03  0.40375229645E+03  0.00000000000E+00 0. -1.
        -15    1    1    2    0    0  0.22160020434E+02 -0.11824023078E+01 -0.40561687325E+01  0.22629070123E+02  0.17770000000E+01 0. -1.
         15    1    1    2    0    0 -0.17025909251E+02  0.25816958157E+01 -0.82152061209E+02  0.83956331679E+02  0.17770000000E+01 0.  1.
</event>
<event>
 6    1  0.9144256E-004  0.4351997E+03  0.7546771E-02  0.9557758E-01
        -11   -1    0    0    0    0  0.00000000000E+00  0.00000000000E+00  0.50000000000E+03  0.50000000000E+03  0.00000000000E+00 0.  1.
         11   -1    0    0    0    0 -0.00000000000E+00 -0.00000000000E+00 -0.50000000000E+03  0.50000000000E+03  0.00000000000E+00 0. -1.
        -11    1    1    2    0    0 -0.68475698845E+02 -0.78918988366E+02  0.40861939072E+03  0.42176644547E+03  0.00000000000E+00 0.  1.
         11    1    1    2    0    0  0.18563265124E+02  0.36760451302E+01 -0.45409011715E+03  0.45448426003E+03  0.00000000000E+00 0. -1.
        -15    1    1    2    0    0  0.40280627427E+02  0.88550904745E+02  0.31983902652E+02  0.10242030773E+03  0.17770000000E+01 0.  1.
         15    1    1    2    0    0  0.96318062942E+01 -0.13307961509E+02  0.13486823780E+02  0.21328986771E+02  0.17770000000E+01 0. -1.
</event>
<event>
 6    1  0.9144256E-004  0.5002702E+03  0.7546771E-02  0.9399205E-01
        -11   -1    0    0    0    0  0.00000000000E+00  0.00000000000E+00  0.50000000000E+03  0.50000000000E+03  0.00000000000E+00 0.  1.
         11   -1    0    0    0    0 -0.00000000000E+00 -0.00000000000E+00 -0.50000000000E+03  0.50000000000E+03  0.00000000000E+00 0. -1.
        -11    1    1    2    0    0 -0.87640840574E+01  0.69023934176E+01  0.10899684573E+03  0.10956625659E+03  0.00000000000E+00 0.  1.
         11    1    1    2    0    0  0.40129632382E+01 -0.11075584324E+02 -0.49959094315E+03  0.49972980991E+03  0.00000000000E+00 0. -1.
        -15    1    1    2    0    0  0.38376253069E+01 -0.26098735705E+00  0.21871883733E+03  0.21875987524E+03  0.17770000000E+01 0.  1.
         15    1    1    2    0    0  0.91349551228E+00  0.44341782634E+01  0.17187526009E+03  0.17194405826E+03  0.17770000000E+01 0.  1.
</event>
<event>
 6    1  0.9144256E-004  0.5020890E+03  0.7546771E-02  0.9395147E-01
        -11   -1    0    0    0    0  0.00000000000E+00  0.00000000000E+00  0.50000000000E+03  0.50000000000E+03  0.00000000000E+00 0. -1.
         11   -1    0    0    0    0 -0.00000000000E+00 -0.00000000000E+00 -0.50000000000E+03  0.50000000000E+03  0.00000000000E+00 0. -1.
        -11    1    1    2    0    0 -0.19571937806E+02  0.10946084595E+01  0.80032012425E+02  0.82397705854E+02  0.00000000000E+00 0. -1.
         11    1    1    2    0    0 -0.65826288150E+01 -0.51613713287E+01 -0.49784071655E+03  0.49791098583E+03  0.00000000000E+00 0. -1.
        -15    1    1    2    0    0 -0.38294063247E+01  0.56712523061E+01  0.15603971283E+03  0.15619979886E+03  0.17770000000E+01 0.  1.
         15    1    1    2    0    0  0.29983972946E+02 -0.16044894368E+01  0.26176899129E+03  0.26349150945E+03  0.17770000000E+01 0. -1.
</event>
<event>
 6    1  0.9144256E-004  0.4686576E+03  0.7546771E-02  0.9472808E-01
        -11   -1    0    0    0    0  0.00000000000E+00  0.00000000000E+00  0.50000000000E+03  0.50000000000E+03  0.00000000000E+00 0.  1.
         11   -1    0    0    0    0 -0.00000000000E+00 -0.00000000000E+00 -0.50000000000E+03  0.50000000000E+03  0.00000000000E+00 0. -1.
        -11    1    1    2    0    0  0.33308604261E+02 -0.27839000375E+02  0.45644032902E+03  0.45849999675E+03  0.00000000000E+00 0.  1.
         11    1    1    2    0    0  0.48864060300E+01 -0.85423025076E+01 -0.48050591215E+03  0.48060667859E+03  0.00000000000E+00 0. -1.
        -15    1    1    2    0    0 -0.21690417711E+01  0.22650189744E+01  0.78935060498E+01  0.86775699315E+01  0.17770000000E+01 0.  1.
         15    1    1    2    0    0 -0.36025968520E+02  0.34116283908E+02  0.16172077079E+02  0.52215754725E+02  0.17770000000E+01 0. -1.
</event>
<event>
 6    1  0.9144256E-004  0.4638020E+03  0.7546771E-02  0.9484660E-01
        -11   -1    0    0    0    0  0.00000000000E+00  0.00000000000E+00  0.50000000000E+03  0.50000000000E+03  0.00000000000E+00 0.  1.
         11   -1    0    0    0    0 -0.00000000000E+00 -0.00000000000E+00 -0.50000000000E+03  0.50000000000E+03  0.00000000000E+00 0. -1.
        -11    1    1    2    0    0  0.45721608090E+02  0.45625985102E+02  0.26826734182E+02  0.69941901817E+02  0.00000000000E+00 0.  1.
         11    1    1    2    0    0 -0.11604858860E+02 -0.93972051359E+00 -0.47652910636E+03  0.47667131761E+03  0.00000000000E+00 0. -1.
        -15    1    1    2    0    0 -0.26109033254E+02 -0.40902654239E+02  0.36934169088E+03  0.37252000093E+03  0.17770000000E+01 0.  1.
         15    1    1    2    0    0 -0.80077159756E+01 -0.37836103496E+01  0.80360681300E+02  0.80866779647E+02  0.17770000000E+01 0. -1.
</event>
<event>
 6    1  0.9144256E-004  0.5001833E+03  0.7546771E-02  0.9399400E-01
        -11   -1    0    0    0    0  0.00000000000E+00  0.00000000000E+00  0.50000000000E+03  0.50000000000E+03  0.00000000000E+00 0. -1.
         11   -1    0    0    0    0 -0.00000000000E+00 -0.00000000000E+00 -0.50000000000E+03  0.50000000000E+03  0.00000000000E+00 0. -1.
        -11    1    1    2    0    0  0.23181214000E+01  0.20554430845E+02  0.49938850457E+03  0.49981670322E+03  0.00000000000E+00 0. -1.
         11    1    1    2    0    0  0.27257287412E+01 -0.29888484453E+01 -0.23840610051E+03  0.23844041514E+03  0.00000000000E+00 0. -1.
        -15    1    1    2    0    0 -0.65477922485E+01 -0.11224307966E+02 -0.16179420470E+03  0.16232492439E+03  0.17770000000E+01 0. -1.
         15    1    1    2    0    0  0.15039421072E+01 -0.63412744340E+01 -0.99188199357E+02  0.99417957251E+02  0.17770000000E+01 0.  1.
</event>
<event>
 6    1  0.9144256E-004  0.5047494E+03  0.7546771E-02  0.9389245E-01
        -11   -1    0    0    0    0  0.00000000000E+00  0.00000000000E+00  0.50000000000E+03  0.50000000000E+03  0.00000000000E+00 0.  1.
         11   -1    0    0    0    0 -0.00000000000E+00 -0.00000000000E+00 -0.50000000000E+03  0.50000000000E+03  0.00000000000E+00 0.  1.
        -11    1    1    2    0    0 -0.27355589286E+02 -0.14497151263E+02  0.45871401432E+02  0.55341495545E+02  0.00000000000E+00 0.  1.
         11    1    1    2    0    0  0.19695151637E+02  0.62120604289E+01 -0.49481981399E+03  0.49525058002E+03  0.00000000000E+00 0.  1.
        -15    1    1    2    0    0  0.80104928010E+01  0.12835637620E+02  0.36372747924E+03  0.36404636857E+03  0.17770000000E+01 0.  1.
         15    1    1    2    0    0 -0.35005515275E+00 -0.45505467855E+01  0.85220933319E+02  0.85361555864E+02  0.17770000000E+01 0.  1.
</event>
<event>
 6    1  0.9144256E-004  0.4919469E+03  0.7546771E-02  0.9418012E-01
        -11   -1    0    0    0    0  0.00000000000E+00  0.00000000000E+00  0.50000000000E+03  0.50000000000E+03  0.00000000000E+00 0. -1.
         11   -1    0    0    0    0 -0.00000000000E+00 -0.00000000000E+00 -0.50000000000E+03  0.50000000000E+03  0.00000000000E+00 0. -1.
        -11    1    1    2    0    0  0.79032588661E+01  0.66397964877E+00  0.49175620403E+03  0.49182015674E+03  0.00000000000E+00 0. -1.
         11    1    1    2    0    0  0.47099072540E+01 -0.69465989974E+01 -0.49210312871E+03  0.49217469231E+03  0.00000000000E+00 0. -1.
        -15    1    1    2    0    0 -0.23637257414E+01 -0.33823214822E+00 -0.18153405779E+01  0.34863721517E+01  0.17770000000E+01 0.  1.
         15    1    1    2    0    0 -0.10249440379E+02  0.66208514969E+01  0.21622652516E+01  0.12518778800E+02  0.17770000000E+01 0.  1.
</event>
<event>
 6    1  0.9144256E-004  0.5009418E+03  0.7546771E-02  0.9397705E-01
        -11   -1    0    0    0    0  0.00000000000E+00  0.00000000000E+00  0.50000000000E+03  0.50000000000E+03  0.00000000000E+00 0. -1.
         11   -1    0    0    0    0 -0.00000000000E+00 -0.00000000000E+00 -0.50000000000E+03  0.50000000000E+03  0.00000000000E+00 0. -1.
        -11    1    1    2    0    0  0.69953558725E+00  0.95826837157E+01  0.49896567286E+03  0.49905817284E+03  0.00000000000E+00 0. -1.
         11    1    1    2    0    0 -0.98083410852E+01 -0.57964628611E+01 -0.44387730226E+03  0.44402349262E+03  0.00000000000E+00 0. -1.
        -15    1    1    2    0    0  0.45724303404E+01 -0.67085639924E+01 -0.26564802716E+02  0.27834482614E+02  0.17770000000E+01 0. -1.
         15    1    1    2    0    0  0.45363751576E+01  0.29223431378E+01 -0.28523567887E+02  0.29083851928E+02  0.17770000000E+01 0.  1.
</event>
<event>
 6    1  0.9144256E-004  0.5055956E+03  0.7546771E-02  0.9387376E-01
        -11   -1    0    0    0    0  0.00000000000E+00  0.00000000000E+00  0.50000000000E+03  0.50000000000E+03  0.00000000000E+00 0.  1.
         11   -1    0    0    0    0 -0.00000000000E+00 -0.00000000000E+00 -0.50000000000E+03  0.50000000000E+03  0.00000000000E+00 0. -1.
        -11    1    1    2    0    0  0.99489676376E+01 -0.11244177380E+02  0.47541117470E+03  0.47564818776E+03  0.00000000000E+00 0.  1.
         11    1    1    2    0    0  0.35896998765E+01  0.24978229139E+02 -0.49375999765E+03  0.49440442267E+03  0.00000000000E+00 0. -1.
        -15    1    1    2    0    0 -0.12568013715E+02 -0.13754682072E+02  0.19957928859E+02  0.27360974051E+02  0.17770000000E+01 0. -1.
         15    1    1    2    0    0 -0.97065379875E+00  0.20630313039E-01 -0.16091059091E+01  0.25864155184E+01  0.17770000000E+01 0.  1.
</event>
<event>
 6    1  0.9144256E-004  0.5001312E+03  0.7546771E-02  0.9399516E-01
        -11   -1    0    0    0    0  0.00000000000E+00  0.00000000000E+00  0.50000000000E+03  0.50000000000E+03  0.00000000000E+00 0.  1.
         11   -1    0    0    0    0 -0.00000000000E+00 -0.00000000000E+00 -0.50000000000E+03  0.50000000000E+03  0.00000000000E+00 0.  1.
        -11    1    1    2    0    0  0.80387728530E+01 -0.93884325370E+01  0.49971597471E+03  0.49986880270E+03  0.00000000000E+00 0.  1.
         11    1    1    2    0    0  0.29403266760E+01  0.37376431559E+00 -0.13946706323E+03  0.13949855535E+03  0.00000000000E+00 0.  1.
        -15    1    1    2    0    0 -0.96967740548E+01  0.65878903329E+01 -0.32890395354E+03  0.32911760225E+03  0.17770000000E+01 0.  1.
         15    1    1    2    0    0 -0.12823254742E+01  0.24267778885E+01 -0.31344957944E+02  0.31515039696E+02  0.17770000000E+01 0. -1.
</event>
<event>
 6    1  0.9144256E-004  0.4920885E+03  0.7546771E-02  0.9417688E-01
        -11   -1    0    0    0    0  0.00000000000E+00  0.00000000000E+00  0.50000000000E+03  0.50000000000E+03  0.00000000000E+00 0. -1.
         11   -1    0    0    0    0 -0.00000000000E+00 -0.00000000000E+00 -0.50000000000E+03  0.50000000000E+03  0.00000000000E+00 0. -1.
        -11    1    1    2    0    0 -0.91433612373E+01  0.12737634933E+02 -0.14176645281E+01  0.15743512032E+02  0.00000000000E+00 0. -1.
         11    1    1    2    0    0 -0.43850752572E+01 -0.67590251760E+01 -0.49125221387E+03  0.49131827865E+03  0.00000000000E+00 0. -1.
        -15    1    1    2    0    0  0.85908905992E+01 -0.64708738231E+01  0.30674283029E+03  0.30693647107E+03  0.17770000000E+01 0.  1.
         15    1    1    2    0    0  0.49375458953E+01  0.49226406630E+00  0.18592704811E+03  0.18600173825E+03  0.17770000000E+01 0. -1.
</event>
<event>
 6    1  0.9144256E-004  0.5006580E+03  0.7546771E-02  0.9398339E-01
        -11   -1    0    0    0    0  0.00000000000E+00  0.00000000000E+00  0.50000000000E+03  0.50000000000E+03  0.00000000000E+00 0. -1.
         11   -1    0    0    0    0 -0.00000000000E+00 -0.00000000000E+00 -0.50000000000E+03  0.50000000000E+03  0.00000000000E+00 0.  1.
        -11    1    1    2    0    0 -0.62664839356E+01 -0.12793670429E+02  0.22163866664E+03  0.22209602737E+03  0.00000000000E+00 0. -1.
         11    1    1    2    0    0 -0.77783185633E+01  0.41713732667E+01 -0.49926400341E+03  0.49934201475E+03  0.00000000000E+00 0.  1.
        -15    1    1    2    0    0  0.26295109313E+01  0.10548094680E+02  0.12179237299E+03  0.12228947819E+03  0.17770000000E+01 0.  1.
         15    1    1    2    0    0  0.11415291568E+02 -0.19257975175E+01  0.15583296378E+03  0.15627247969E+03  0.17770000000E+01 0. -1.
</event>
<event>
 6    1  0.9144256E-004  0.5001935E+03  0.7546771E-02  0.9399377E-01
        -11   -1    0    0    0    0  0.00000000000E+00  0.00000000000E+00  0.50000000000E+03  0.50000000000E+03  0.00000000000E+00 0.  1.
         11   -1    0    0    0    0 -0.00000000000E+00 -0.00000000000E+00 -0.50000000000E+03  0.50000000000E+03  0.00000000000E+00 0. -1.
        -11    1    1    2    0    0 -0.70919576832E+01 -0.70032025730E+00  0.28097442396E+03  0.28106478476E+03  0.00000000000E+00 0.  1.
         11    1    1    2    0    0  0.10035647667E+00  0.11048825901E+02 -0.49968440044E+03  0.49980654924E+03  0.00000000000E+00 0. -1.
        -15    1    1    2    0    0  0.66482378419E+01 -0.76446800771E+01  0.16591578811E+03  0.16623431256E+03  0.17770000000E+01 0.  1.
         15    1    1    2    0    0  0.34336336469E+00 -0.27038255664E+01  0.52794188368E+02  0.52894353438E+02  0.17770000000E+01 0. -1.
</event>
<event>
 6    1  0.9144256E-004  0.4847583E+03  0.7546771E-02  0.9434575E-01
        -11   -1    0    0    0    0  0.00000000000E+00  0.00000000000E+00  0.50000000000E+03  0.50000000000E+03  0.00000000000E+00 0.  1.
         11   -1    0    0    0    0 -0.00000000000E+00 -0.00000000000E+00 -0.50000000000E+03  0.50000000000E+03  0.00000000000E+00 0.  1.
        -11    1    1    2    0    0 -0.10784377401E+01  0.18097999805E+02  0.48057429736E+03  0.48091616308E+03  0.00000000000E+00 0.  1.
         11    1    1    2    0    0  0.18270041981E+02  0.39217710980E+01 -0.48867964710E+03  0.48903678002E+03  0.00000000000E+00 0.  1.
        -15    1    1    2    0    0 -0.37281793828E+01 -0.45510330636E+01 -0.79657551459E+00  0.61970545428E+01  0.17770000000E+01 0.  1.
         15    1    1    2    0    0 -0.13463424858E+02 -0.17468737840E+02  0.89019252489E+01  0.23850002364E+02  0.17770000000E+01 0. -1.
</event>
<event>
 6    1  0.9144256E-004  0.5051658E+03  0.7546771E-02  0.9388324E-01
        -11   -1    0    0    0    0  0.00000000000E+00  0.00000000000E+00  0.50000000000E+03  0.50000000000E+03  0.00000000000E+00 0. -1.
         11   -1    0    0    0    0 -0.00000000000E+00 -0.00000000000E+00 -0.50000000000E+03  0.50000000000E+03  0.00000000000E+00 0.  1.
        -11    1    1    2    0    0 -0.60771668559E+01 -0.10474573180E+02  0.49468600700E+03  0.49483420876E+03  0.00000000000E+00 0. -1.
         11    1    1    2    0    0 -0.28683668042E+01 -0.59038148924E+01 -0.47973214653E+03  0.47977704715E+03  0.00000000000E+00 0.  1.
        -15    1    1    2    0    0 -0.69252172833E+00  0.28349066794E+01 -0.86084477951E+00  0.35235018036E+01  0.17770000000E+01 0.  1.
         15    1    1    2    0    0  0.96380553885E+01  0.13543481393E+02 -0.14093015685E+02  0.21865242281E+02  0.17770000000E+01 0. -1.
</event>
<event>
 6    1  0.9144256E-004  0.5005396E+03  0.7546771E-02  0.9398603E-01
        -11   -1    0    0    0    0  0.00000000000E+00  0.00000000000E+00  0.50000000000E+03  0.50000000000E+03  0.00000000000E+00 0.  1.
         11   -1    0    0    0    0 -0.00000000000E+00 -0.00000000000E+00 -0.50000000000E+03  0.50000000000E+03  0.00000000000E+00 0. -1.
        -11    1    1    2    0    0 -0.11510817388E+02  0.24949911805E+02  0.49870397516E+03  0.49946036064E+03  0.00000000000E+00 0.  1.
         11    1    1    2    0    0 -0.51388066200E+01  0.26917022468E+01 -0.14518654797E+03  0.14530239608E+03  0.00000000000E+00 0. -1.
        -15    1    1    2    0    0  0.70948294106E+01 -0.20568396901E+02 -0.26665546491E+03  0.26754754764E+03  0.17770000000E+01 0. -1.
         15    1    1    2    0    0  0.95547945972E+01 -0.70732171509E+01 -0.86861962274E+02  0.87689695631E+02  0.17770000000E+01 0.  1.
</event>
<event>
 6    1  0.9144256E-004  0.4793569E+03  0.7546771E-02  0.9447223E-01
        -11   -1    0    0    0    0  0.00000000000E+00  0.00000000000E+00  0.50000000000E+03  0.50000000000E+03  0.00000000000E+00 0.  1.
         11   -1    0    0    0    0 -0.00000000000E+00 -0.00000000000E+00 -0.50000000000E+03  0.50000000000E+03  0.00000000000E+00 0.  1.
        -11    1    1    2    0    0 -0.28117767363E+02 -0.20862589607E+02  0.48510075837E+03  0.48636262424E+03  0.00000000000E+00 0.  1.
         11    1    1    2    0    0  0.28898197012E+01 -0.72350736976E+01 -0.47310533985E+03  0.47316948332E+03  0.00000000000E+00 0.  1.
        -15    1    1    2    0    0  0.74107245454E+01  0.39443116759E+01 -0.28186401115E+01  0.90321035181E+01  0.17770000000E+01 0. -1.
         15    1    1    2    0    0  0.17817223116E+02  0.24153351629E+02 -0.91767784081E+01  0.31435788927E+02  0.17770000000E+01 0.  1.
</event>
<event>
 6    1  0.9144256E-004  0.5001236E+03  0.7546771E-02  0.9399533E-01
        -11   -1    0    0    0    0  0.00000000000E+00  0.00000000000E+00  0.50000000000E+03  0.50000000000E+03  0.00000000000E+00 0.  1.
         11   -1    0    0    0    0 -0.00000000000E+00 -0.00000000000E+00 -0.50000000000E+03  0.50000000000E+03  0.00000000000E+00 0.  1.
        -11    1    1    2    0    0 -0.31339656338E+01  0.11264681257E+02  0.25900057423E+03  0.25926436746E+03  0.00000000000E+00 0.  1.
         11    1    1    2    0    0 -0.35736992147E+01 -0.12270631352E+02 -0.49971302806E+03  0.49987643486E+03  0.00000000000E+00 0.  1.
        -15    1    1    2    0    0  0.35679952276E+01  0.20023577976E+01  0.15659558206E+03  0.15665910148E+03  0.17770000000E+01 0.  1.
         15    1    1    2    0    0  0.31396696208E+01 -0.99640770248E+00  0.84116871770E+02  0.84200096193E+02  0.17770000000E+01 0.  1.
</event>
<event>
 6    1  0.9144256E-004  0.5022401E+03  0.7546771E-02  0.9394811E-01
        -11   -1    0    0    0    0  0.00000000000E+00  0.00000000000E+00  0.50000000000E+03  0.50000000000E+03  0.00000000000E+00 0. -1.
         11   -1    0    0    0    0 -0.00000000000E+00 -0.00000000000E+00 -0.50000000000E+03  0.50000000000E+03  0.00000000000E+00 0.  1.
        -11    1    1    2    0    0  0.81714253214E+01  0.81299729541E+01  0.46000183856E+03  0.46014623777E+03  0.00000000000E+00 0. -1.
         11    1    1    2    0    0 -0.40230765721E+01  0.88744561109E+01 -0.49766456585E+03  0.49775994336E+03  0.00000000000E+00 0.  1.
        -15    1    1    2    0    0  0.80297612950E+00 -0.56696495625E+01  0.88688907449E+01  0.10705356083E+02  0.17770000000E+01 0.  1.
         15    1    1    2    0    0 -0.49513248788E+01 -0.11334779502E+02  0.28793836541E+02  0.31388462788E+02  0.17770000000E+01 0. -1.
</event>
<event>
 6    1  0.9144256E-004  0.4838636E+03  0.7546771E-02  0.9436658E-01
        -11   -1    0    0    0    0  0.00000000000E+00  0.00000000000E+00  0.50000000000E+03  0.50000000000E+03  0.00000000000E+00 0.  1.
         11   -1    0    0    0    0 -0.00000000000E+00 -0.00000000000E+00 -0.50000000000E+03  0.50000000000E+03  0.00000000000E+00 0.  1.
        -11    1    1    2    0    0 -0.24131585098E+02 -0.18952107220E+02  0.48760495471E+03  0.48856945016E+03  0.00000000000E+00 0.  1.
         11    1    1    2    0    0 -0.10137901196E+01  0.83002366363E+01 -0.47950401888E+03  0.47957692377E+03  0.00000000000E+00 0.  1.
        -15    1    1    2    0    0  0.19305856190E+02  0.12606027426E+02 -0.99618519550E+01  0.25179837848E+02  0.17770000000E+01 0. -1.
         15    1    1    2    0    0  0.58395190279E+01 -0.19541568425E+01  0.18609161207E+01  0.66737882234E+01  0.17770000000E+01 0.  1.
</event>
<event>
 6    1  0.9144256E-004  0.5071914E+03  0.7546771E-02  0.9383861E-01
        -11   -1    0    0    0    0  0.00000000000E+00  0.00000000000E+00  0.50000000000E+03  0.50000000000E+03  0.00000000000E+00 0. -1.
         11   -1    0    0    0    0 -0.00000000000E+00 -0.00000000000E+00 -0.50000000000E+03  0.50000000000E+03  0.00000000000E+00 0.  1.
        -11    1    1    2    0    0  0.35077726538E+02 -0.28443512875E+02  0.75004042344E+02  0.87550480819E+02  0.00000000000E+00 0. -1.
         11    1    1    2    0    0 -0.23525165773E+02  0.29010468253E+01 -0.49223823925E+03  0.49280861770E+03  0.00000000000E+00 0.  1.
        -15    1    1    2    0    0 -0.85428324686E+01 -0.14102279893E+00  0.23727576726E+02  0.25281524881E+02  0.17770000000E+01 0.  1.
         15    1    1    2    0    0 -0.30097282967E+01  0.25683488848E+02  0.39350662018E+03  0.39435937660E+03  0.17770000000E+01 0. -1.
</event>
<event>
 6    1  0.9144256E-004  0.5014040E+03  0.7546771E-02  0.9396674E-01
        -11   -1    0    0    0    0  0.00000000000E+00  0.00000000000E+00  0.50000000000E+03  0.50000000000E+03  0.00000000000E+00 0.  1.
         11   -1    0    0    0    0 -0.00000000000E+00 -0.00000000000E+00 -0.50000000000E+03  0.50000000000E+03  0.00000000000E+00 0. -1.
        -11    1    1    2    0    0  0.58357723788E+01 -0.14663236539E+02  0.40873061257E+03  0.40903518234E+03  0.00000000000E+00 0.  1.
         11    1    1    2    0    0  0.22358022399E+01  0.21256519130E+02 -0.49813765716E+03  0.49859599266E+03  0.00000000000E+00 0. -1.
        -15    1    1    2    0    0 -0.25507489463E+00 -0.12390810420E+02  0.37720722090E+02  0.39744280721E+02  0.17770000000E+01 0.  1.
         15    1    1    2    0    0 -0.78164997240E+01  0.57975278285E+01  0.51686322504E+02  0.52624544272E+02  0.17770000000E+01 0. -1.
</event>
<event>
 6    1  0.9144256E-004  0.5033331E+03  0.7546771E-02  0.9392382E-01
        -11   -1    0    0    0    0  0.00000000000E+00  0.00000000000E+00  0.50000000000E+03  0.50000000000E+03  0.00000000000E+00 0. -1.
         11   -1    0    0    0    0 -0.00000000000E+00 -0.00000000000E+00 -0.50000000000E+03  0.50000000000E+03  0.00000000000E+00 0. -1.
        -11    1    1    2    0    0  0.74386382275E+01 -0.28277842092E+00  0.47496908577E+03  0.47502741578E+03  0.00000000000E+00 0. -1.
         11    1    1    2    0    0  0.18704455390E+01  0.78686667017E+01 -0.49660107882E+03  0.49666693666E+03  0.00000000000E+00 0. -1.
        -15    1    1    2    0    0 -0.70987726321E+01 -0.39764591275E+01  0.22171108276E+02  0.23683761764E+02  0.17770000000E+01 0. -1.
         15    1    1    2    0    0 -0.22103111344E+01 -0.36094291533E+01 -0.53911522737E+00  0.46218858004E+01  0.17770000000E+01 0. -1.
</event>
<event>
 6    1  0.9144256E-004  0.5061752E+03  0.7546771E-02  0.9386097E-01
        -11   -1    0    0    0    0  0.00000000000E+00  0.00000000000E+00  0.50000000000E+03  0.50000000000E+03  0.00000000000E+00 0. -1.
         11   -1    0    0    0    0 -0.00000000000E+00 -0.00000000000E+00 -0.50000000000E+03  0.50000000000E+03  0.00000000000E+00 0.  1.
        -11    1    1    2    0    0 -0.17199278756E+02 -0.15529724525E+01  0.49352274598E+03  0.49382479455E+03  0.00000000000E+00 0. -1.
         11    1    1    2    0    0 -0.47998290190E+00  0.11715661581E+02 -0.46521734099E+03  0.46536508407E+03  0.00000000000E+00 0.  1.
        -15    1    1    2    0    0  0.62663571714E+01  0.41895748937E+01 -0.91199867523E+00  0.77980279926E+01  0.17770000000E+01 0. -1.
         15    1    1    2    0    0  0.11412904487E+02 -0.14352264022E+02 -0.27393406312E+02  0.33012093386E+02  0.17770000000E+01 0.  1.
</event>
<event>
 6    1  0.9144256E-004  0.5005813E+03  0.7546771E-02  0.9398510E-01
        -11   -1    0    0    0    0  0.00000000000E+00  0.00000000000E+00  0.50000000000E+03  0.50000000000E+03  0.00000000000E+00 0. -1.
         11   -1    0    0    0    0 -0.00000000000E+00 -0.00000000000E+00 -0.50000000000E+03  0.50000000000E+03  0.00000000000E+00 0.  1.
        -11    1    1    2    0    0  0.12340303986E+02 -0.44868419855E+02  0.49724600779E+03  0.49941871257E+03  0.00000000000E+00 0. -1.
         11    1    1    2    0    0  0.25384492089E+01  0.16280390552E+01 -0.12524709885E+03  0.12528339876E+03  0.00000000000E+00 0.  1.
        -15    1    1    2    0    0 -0.98087750317E+01  0.23387890082E+02 -0.13246623145E+03  0.13488389701E+03  0.17770000000E+01 0. -1.
         15    1    1    2    0    0 -0.50699781630E+01  0.19852490718E+02 -0.23953267749E+03  0.24041399165E+03  0.17770000000E+01 0.  1.
</event>
<event>
 6    1  0.9144256E-004  0.5003906E+03  0.7546771E-02  0.9398936E-01
        -11   -1    0    0    0    0  0.00000000000E+00  0.00000000000E+00  0.50000000000E+03  0.50000000000E+03  0.00000000000E+00 0. -1.
         11   -1    0    0    0    0 -0.00000000000E+00 -0.00000000000E+00 -0.50000000000E+03  0.50000000000E+03  0.00000000000E+00 0. -1.
        -11    1    1    2    0    0  0.44437590672E+01 -0.46169290319E+01  0.44791529705E+02  0.45247587357E+02  0.00000000000E+00 0. -1.
         11    1    1    2    0    0 -0.49185273172E+01  0.85427320120E+01 -0.49951216898E+03  0.49960942459E+03  0.00000000000E+00 0. -1.
        -15    1    1    2    0    0 -0.42414003886E+01 -0.68249612739E+01  0.40499198386E+03  0.40507559084E+03  0.17770000000E+01 0.  1.
         15    1    1    2    0    0  0.47161686385E+01  0.28991582938E+01  0.49728655413E+02  0.50067397212E+02  0.17770000000E+01 0. -1.
</event>
<event>
 6    1  0.9144256E-004  0.5008446E+03  0.7546771E-02  0.9397922E-01
        -11   -1    0    0    0    0  0.00000000000E+00  0.00000000000E+00  0.50000000000E+03  0.50000000000E+03  0.00000000000E+00 0.  1.
         11   -1    0    0    0    0 -0.00000000000E+00 -0.00000000000E+00 -0.50000000000E+03  0.50000000000E+03  0.00000000000E+00 0. -1.
        -11    1    1    2    0    0  0.59397137924E+00 -0.11899090225E+02  0.13751543470E+03  0.13803056158E+03  0.00000000000E+00 0.  1.
         11    1    1    2    0    0  0.63256280410E+01 -0.37682002774E+01 -0.49910104440E+03  0.49915535199E+03  0.00000000000E+00 0. -1.
        -15    1    1    2    0    0 -0.13556551020E+02  0.15543705535E+02  0.31960861823E+03  0.32027833744E+03  0.17770000000E+01 0. -1.
         15    1    1    2    0    0  0.66369515995E+01  0.12358496802E+00  0.41976991468E+02  0.42535748982E+02  0.17770000000E+01 0.  1.
</event>
<event>
 6    1  0.9144256E-004  0.5000917E+03  0.7546771E-02  0.9399605E-01
        -11   -1    0    0    0    0  0.00000000000E+00  0.00000000000E+00  0.50000000000E+03  0.50000000000E+03  0.00000000000E+00 0. -1.
         11   -1    0    0    0    0 -0.00000000000E+00 -0.00000000000E+00 -0.50000000000E+03  0.50000000000E+03  0.00000000000E+00 0. -1.
        -11    1    1    2    0    0  0.73416204027E+01 -0.28672378693E+01  0.19021271772E+03  0.19037593972E+03  0.00000000000E+00 0. -1.
         11    1    1    2    0    0 -0.37611969108E+01  0.71953126279E+01 -0.49984235114E+03  0.49990828671E+03  0.00000000000E+00 0. -1.
        -15    1    1    2    0    0 -0.14627717716E+01 -0.34296751951E+01  0.22070194079E+03  0.22074058705E+03  0.17770000000E+01 0. -1.
         15    1    1    2    0    0 -0.21176517203E+01 -0.89839956353E+00  0.88927692626E+02  0.88975186515E+02  0.17770000000E+01 0. -1.
</event>
<event>
 6    1  0.9144256E-004  0.5008476E+03  0.7546771E-02  0.9397915E-01
        -11   -1    0    0    0    0  0.00000000000E+00  0.00000000000E+00  0.50000000000E+03  0.50000000000E+03  0.00000000000E+00 0. -1.
         11   -1    0    0    0    0 -0.00000000000E+00 -0.00000000000E+00 -0.50000000000E+03  0.50000000000E+03  0.00000000000E+00 0. -1.
        -11    1    1    2    0    0 -0.20488199779E+01  0.75698726444E+01  0.49909083598E+03  0.49915244485E+03  0.00000000000E+00 0. -1.
         11    1    1    2    0    0 -0.28781436136E+01  0.57018075711E+01 -0.42945316913E+03  0.42950066216E+03  0.00000000000E+00 0. -1.
        -15    1    1    2    0    0  0.35989997950E+01 -0.98353210494E+01 -0.38387666716E+02  0.39830353056E+02  0.17770000000E+01 0. -1.
         15    1    1    2    0    0  0.13279637964E+01 -0.34363591662E+01 -0.31250000137E+02  0.31516539939E+02  0.17770000000E+01 0.  1.
</event>
<event>
 6    1  0.9144256E-004  0.5017002E+03  0.7546771E-02  0.9396013E-01
        -11   -1    0    0    0    0  0.00000000000E+00  0.00000000000E+00  0.50000000000E+03  0.50000000000E+03  0.00000000000E+00 0.  1.
         11   -1    0    0    0    0 -0.00000000000E+00 -0.00000000000E+00 -0.50000000000E+03  0.50000000000E+03  0.00000000000E+00 0.  1.
        -11    1    1    2    0    0  0.52138981169E+01 -0.13922188010E+02  0.43770618793E+03  0.43795858138E+03  0.00000000000E+00 0.  1.
         11    1    1    2    0    0  0.80468939125E+01  0.25855350620E+01 -0.49822810609E+03  0.49829979248E+03  0.00000000000E+00 0.  1.
        -15    1    1    2    0    0 -0.76193859251E+01  0.10592290735E+02  0.49373777369E+02  0.51099699466E+02  0.17770000000E+01 0.  1.
         15    1    1    2    0    0 -0.56414061043E+01  0.74436221275E+00  0.11148140785E+02  0.12641926668E+02  0.17770000000E+01 0. -1.
</event>
<event>
 6    1  0.9144256E-004  0.5001982E+03  0.7546771E-02  0.9399366E-01
        -11   -1    0    0    0    0  0.00000000000E+00  0.00000000000E+00  0.50000000000E+03  0.50000000000E+03  0.00000000000E+00 0.  1.
         11   -1    0    0    0    0 -0.00000000000E+00 -0.00000000000E+00 -0.50000000000E+03  0.50000000000E+03  0.00000000000E+00 0. -1.
        -11    1    1    2    0    0  0.57594259587E+01 -0.12817938420E+02  0.34858900395E+03  0.34887213160E+03  0.00000000000E+00 0.  1.
         11    1    1    2    0    0 -0.11440519103E+02  0.98013280773E+01 -0.49957474650E+03  0.49980183958E+03  0.00000000000E+00 0. -1.
        -15    1    1    2    0    0 -0.21338639658E+00  0.28898838982E+01  0.31763845209E+02  0.31945211756E+02  0.17770000000E+01 0.  1.
         15    1    1    2    0    0  0.58944795405E+01  0.12672644455E+00  0.11922189734E+03  0.11938081706E+03  0.17770000000E+01 0.  1.
</event>
<event>
 6    1  0.9144256E-004  0.5015233E+03  0.7546771E-02  0.9396408E-01
        -11   -1    0    0    0    0  0.00000000000E+00  0.00000000000E+00  0.50000000000E+03  0.50000000000E+03  0.00000000000E+00 0. -1.
         11   -1    0    0    0    0 -0.00000000000E+00 -0.00000000000E+00 -0.50000000000E+03  0.50000000000E+03  0.00000000000E+00 0.  1.
        -11    1    1    2    0    0  0.77268053858E+01 -0.32661521175E+00 -0.71671577824E+01  0.10544114455E+02  0.00000000000E+00 0. -1.
         11    1    1    2    0    0  0.11192177205E+02  0.25036102884E+01 -0.49084522176E+03  0.49097918960E+03  0.00000000000E+00 0.  1.
        -15    1    1    2    0    0 -0.10131734442E+02 -0.90618559107E-01  0.15507530434E+03  0.15541611242E+03  0.17770000000E+01 0.  1.
         15    1    1    2    0    0 -0.87872481481E+01 -0.20863765176E+01  0.34293707520E+03  0.34306058353E+03  0.17770000000E+01 0. -1.
</event>
<event>
 6    1  0.9144256E-004  0.5070673E+03  0.7546771E-02  0.9384133E-01
        -11   -1    0    0    0    0  0.00000000000E+00  0.00000000000E+00  0.50000000000E+03  0.50000000000E+03  0.00000000000E+00 0. -1.
         11   -1    0    0    0    0 -0.00000000000E+00 -0.00000000000E+00 -0.50000000000E+03  0.50000000000E+03  0.00000000000E+00 0. -1.
        -11    1    1    2    0    0 -0.25680372360E+02 -0.50244113316E+00  0.44668413381E+03  0.44742200367E+03  0.00000000000E+00 0. -1.
         11    1    1    2    0    0 -0.71711390958E+01 -0.56679621618E+01 -0.49284794561E+03  0.49293270182E+03  0.00000000000E+00 0. -1.
        -15    1    1    2    0    0  0.36621553391E+01  0.22294444350E+01 -0.24772291029E+00  0.46476768236E+01  0.17770000000E+01 0. -1.
         15    1    1    2    0    0  0.29189356117E+02  0.39409588600E+01  0.46411534710E+02  0.54997617680E+02  0.17770000000E+01 0.  1.
</event>
<event>
 6    1  0.9144256E-004  0.5014115E+03  0.7546771E-02  0.9396657E-01
        -11   -1    0    0    0    0  0.00000000000E+00  0.00000000000E+00  0.50000000000E+03  0.50000000000E+03  0.00000000000E+00 0.  1.
         11   -1    0    0    0    0 -0.00000000000E+00 -0.00000000000E+00 -0.50000000000E+03  0.50000000000E+03  0.00000000000E+00 0.  1.
        -11    1    1    2    0    0  0.62271184455E+01 -0.68107210873E+01  0.49850305863E+03  0.49858846997E+03  0.00000000000E+00 0.  1.
         11    1    1    2    0    0  0.52014829710E+01  0.86820954641E+01 -0.45151019093E+03  0.45162361178E+03  0.00000000000E+00 0.  1.
        -15    1    1    2    0    0 -0.10115174985E+02 -0.35660762030E+01 -0.21008701022E+02  0.23654955339E+02  0.17770000000E+01 0.  1.
         15    1    1    2    0    0 -0.13134264318E+01  0.16947018262E+01 -0.25984166678E+02  0.26132962906E+02  0.17770000000E+01 0. -1.
</event>
<event>
 6    1  0.9144256E-004  0.5004974E+03  0.7546771E-02  0.9398698E-01
        -11   -1    0    0    0    0  0.00000000000E+00  0.00000000000E+00  0.50000000000E+03  0.50000000000E+03  0.00000000000E+00 0. -1.
         11   -1    0    0    0    0 -0.00000000000E+00 -0.00000000000E+00 -0.50000000000E+03  0.50000000000E+03  0.00000000000E+00 0. -1.
        -11    1    1    2    0    0  0.54744803186E+01  0.63484856930E+00  0.12446768553E+03  0.12458963725E+03  0.00000000000E+00 0. -1.
         11    1    1    2    0    0 -0.16724985454E+01  0.66804311633E+01 -0.49945517417E+03  0.49950264906E+03  0.00000000000E+00 0. -1.
        -15    1    1    2    0    0  0.60170547347E+01 -0.70020060652E+01  0.31134718363E+03  0.31148910016E+03  0.17770000000E+01 0. -1.
         15    1    1    2    0    0 -0.98190365080E+01 -0.31327366745E+00  0.63640305013E+02  0.64418613533E+02  0.17770000000E+01 0.  1.
</event>
<event>
 6    1  0.9144256E-004  0.5003848E+03  0.7546771E-02  0.9398949E-01
        -11   -1    0    0    0    0  0.00000000000E+00  0.00000000000E+00  0.50000000000E+03  0.50000000000E+03  0.00000000000E+00 0.  1.
         11   -1    0    0    0    0 -0.00000000000E+00 -0.00000000000E+00 -0.50000000000E+03  0.50000000000E+03  0.00000000000E+00 0.  1.
        -11    1    1    2    0    0 -0.82422309693E+01  0.47025483563E+01  0.73357479323E+02  0.73968696791E+02  0.00000000000E+00 0.  1.
         11    1    1    2    0    0  0.40436243418E+01  0.61542449383E+01 -0.49956089937E+03  0.49961516972E+03  0.00000000000E+00 0.  1.
        -15    1    1    2    0    0  0.92076398761E+00 -0.90470365149E+01  0.31189331533E+03  0.31203091922E+03  0.17770000000E+01 0.  1.
         15    1    1    2    0    0  0.32778426398E+01 -0.18097567797E+01  0.11431010473E+03  0.11438521427E+03  0.17770000000E+01 0. -1.
</event>
<event>
 6    1  0.9144256E-004  0.5001360E+03  0.7546771E-02  0.9399505E-01
        -11   -1    0    0    0    0  0.00000000000E+00  0.00000000000E+00  0.50000000000E+03  0.50000000000E+03  0.00000000000E+00 0.  1.
         11   -1    0    0    0    0 -0.00000000000E+00 -0.00000000000E+00 -0.50000000000E+03  0.50000000000E+03  0.00000000000E+00 0. -1.
        -11    1    1    2    0    0 -0.39687625201E+01  0.41243250854E+01  0.15610201098E+03  0.15620691074E+03  0.00000000000E+00 0.  1.
         11    1    1    2    0    0 -0.56223748330E+01 -0.43638314597E+01 -0.49981328511E+03  0.49986395559E+03  0.00000000000E+00 0. -1.
        -15    1    1    2    0    0  0.40158561540E+01  0.33656022308E+01  0.17509836847E+03  0.17518576069E+03  0.17770000000E+01 0.  1.
         15    1    1    2    0    0  0.55752811991E+01 -0.31260958565E+01  0.16861290567E+03  0.16874337298E+03  0.17770000000E+01 0. -1.
</event>
<event>
 6    1  0.9144256E-004  0.5002532E+03  0.7546771E-02  0.9399243E-01
        -11   -1    0    0    0    0  0.00000000000E+00  0.00000000000E+00  0.50000000000E+03  0.50000000000E+03  0.00000000000E+00 0.  1.
         11   -1    0    0    0    0 -0.00000000000E+00 -0.00000000000E+00 -0.50000000000E+03  0.50000000000E+03  0.00000000000E+00 0. -1.
        -11    1    1    2    0    0  0.97872958671E+01 -0.10826924304E+01  0.10580274323E+03  0.10625998239E+03  0.00000000000E+00 0.  1.
         11    1    1    2    0    0 -0.73022134933E+01 -0.55295082883E+01 -0.49966281565E+03  0.49974676300E+03  0.00000000000E+00 0. -1.
        -15    1    1    2    0    0 -0.15675815178E+01 -0.55483931024E+00  0.14984065957E+03  0.14986042222E+03  0.17770000000E+01 0.  1.
         15    1    1    2    0    0 -0.91750085606E+00  0.71670400289E+01  0.24401941285E+03  0.24413283239E+03  0.17770000000E+01 0.  1.
</event>
<event>
 6    1  0.9144256E-004  0.5051159E+03  0.7546771E-02  0.9388435E-01
        -11   -1    0    0    0    0  0.00000000000E+00  0.00000000000E+00  0.50000000000E+03  0.50000000000E+03  0.00000000000E+00 0. -1.
         11   -1    0    0    0    0 -0.00000000000E+00 -0.00000000000E+00 -0.50000000000E+03  0.50000000000E+03  0.00000000000E+00 0.  1.
        -11    1    1    2    0    0  0.84424362402E+01  0.89556616278E+01  0.46407830358E+03  0.46424147861E+03  0.00000000000E+00 0. -1.
         11    1    1    2    0    0  0.36178654850E+01  0.14148524993E+02 -0.49466856040E+03  0.49488408174E+03  0.00000000000E+00 0.  1.
        -15    1    1    2    0    0 -0.11803887679E+02 -0.17478058329E+02  0.22985525507E+02  0.31245902117E+02  0.17770000000E+01 0. -1.
         15    1    1    2    0    0 -0.25641404601E+00 -0.56261282916E+01  0.76047313153E+01  0.96285375367E+01  0.17770000000E+01 0.  1.
</event>
<event>
 6    1  0.9144256E-004  0.4223036E+03  0.7546771E-02  0.9592703E-01
        -11   -1    0    0    0    0  0.00000000000E+00  0.00000000000E+00  0.50000000000E+03  0.50000000000E+03  0.00000000000E+00 0.  1.
         11   -1    0    0    0    0 -0.00000000000E+00 -0.00000000000E+00 -0.50000000000E+03  0.50000000000E+03  0.00000000000E+00 0. -1.
        -11    1    1    2    0    0 -0.77973904243E+02  0.16459279459E+02  0.40121353555E+03  0.40905151110E+03  0.00000000000E+00 0.  1.
         11    1    1    2    0    0 -0.52964244625E+02  0.93356509754E+01 -0.44385015478E+03  0.44709655052E+03  0.00000000000E+00 0. -1.
        -15    1    1    2    0    0  0.10483915629E+03 -0.76206134136E+01  0.27991452088E+02  0.10879338932E+03  0.17770000000E+01 0.  1.
         15    1    1    2    0    0  0.26098992579E+02 -0.18174317021E+02  0.14645167139E+02  0.35058549062E+02  0.17770000000E+01 0. -1.
</event>
<event>
 6    1  0.9144256E-004  0.5003188E+03  0.7546771E-02  0.9399097E-01
        -11   -1    0    0    0    0  0.00000000000E+00  0.00000000000E+00  0.50000000000E+03  0.50000000000E+03  0.00000000000E+00 0.  1.
         11   -1    0    0    0    0 -0.00000000000E+00 -0.00000000000E+00 -0.50000000000E+03  0.50000000000E+03  0.00000000000E+00 0. -1.
        -11    1    1    2    0    0  0.56383088692E+01  0.13537183949E+01  0.34223575452E+03  0.34228487368E+03  0.00000000000E+00 0.  1.
         11    1    1    2    0    0 -0.49993560419E+01  0.62298449361E+01 -0.49961736528E+03  0.49968121459E+03  0.00000000000E+00 0. -1.
        -15    1    1    2    0    0  0.21974872880E+01 -0.14756640622E+01  0.10178459991E+02  0.10666082298E+02  0.17770000000E+01 0. -1.
         15    1    1    2    0    0 -0.28364401153E+01 -0.61078992688E+01  0.14720315077E+03  0.14736782943E+03  0.17770000000E+01 0.  1.
</event>
<event>
 6    1  0.9144256E-004  0.4899041E+03  0.7546771E-02  0.9422688E-01
        -11   -1    0    0    0    0  0.00000000000E+00  0.00000000000E+00  0.50000000000E+03  0.50000000000E+03  0.00000000000E+00 0. -1.
         11   -1    0    0    0    0 -0.00000000000E+00 -0.00000000000E+00 -0.50000000000E+03  0.50000000000E+03  0.00000000000E+00 0.  1.
        -11    1    1    2    0    0 -0.97439276129E+01  0.13046789419E+02  0.49326320867E+03  0.49353191981E+03  0.00000000000E+00 0. -1.
         11    1    1    2    0    0  0.56713246250E+01  0.35369702727E+01 -0.48640307549E+03  0.48644899622E+03  0.00000000000E+00 0.  1.
        -15    1    1    2    0    0  0.26642245502E+01 -0.19748624919E+01 -0.27936690274E+01  0.46862020817E+01  0.17770000000E+01 0. -1.
         15    1    1    2    0    0  0.14083784377E+01 -0.14608897199E+02 -0.40664641603E+01  0.15332881887E+02  0.17770000000E+01 0.  1.
</event>
<event>
 6    1  0.9144256E-004  0.5005414E+03  0.7546771E-02  0.9398599E-01
        -11   -1    0    0    0    0  0.00000000000E+00  0.00000000000E+00  0.50000000000E+03  0.50000000000E+03  0.00000000000E+00 0. -1.
         11   -1    0    0    0    0 -0.00000000000E+00 -0.00000000000E+00 -0.50000000000E+03  0.50000000000E+03  0.00000000000E+00 0.  1.
        -11    1    1    2    0    0  0.33106174495E+00 -0.11960485676E+02  0.49931531103E+03  0.49945864959E+03  0.00000000000E+00 0. -1.
         11    1    1    2    0    0 -0.57942368488E+01 -0.55224546307E+00 -0.21233733046E+03  0.21241708986E+03  0.00000000000E+00 0.  1.
        -15    1    1    2    0    0  0.12950453636E+02  0.12189649439E+02 -0.18845007071E+03  0.18929577038E+03  0.17770000000E+01 0. -1.
         15    1    1    2    0    0 -0.74872785318E+01  0.32308170011E+00 -0.98527909854E+02  0.98828490178E+02  0.17770000000E+01 0.  1.
</event>
<event>
 6    1  0.9144256E-004  0.5195104E+03  0.7546771E-02  0.9357182E-01
        -11   -1    0    0    0    0  0.00000000000E+00  0.00000000000E+00  0.50000000000E+03  0.50000000000E+03  0.00000000000E+00 0.  1.
         11   -1    0    0    0    0 -0.00000000000E+00 -0.00000000000E+00 -0.50000000000E+03  0.50000000000E+03  0.00000000000E+00 0. -1.
        -11    1    1    2    0    0 -0.40177966877E+01  0.77572142142E+02  0.26112447005E+03  0.27243268671E+03  0.00000000000E+00 0.  1.
         11    1    1    2    0    0 -0.17486070258E+01  0.77425998148E+01 -0.48042407453E+03  0.48048964283E+03  0.00000000000E+00 0. -1.
        -15    1    1    2    0    0  0.47602334904E+01 -0.85373147410E+02  0.22516841245E+03  0.24086345887E+03  0.17770000000E+01 0.  1.
         15    1    1    2    0    0  0.10061702231E+01  0.58405452462E-01 -0.58688079703E+01  0.62142115917E+01  0.17770000000E+01 0. -1.
</event>
<event>
 6    1  0.9144256E-004  0.4889131E+03  0.7546771E-02  0.9424965E-01
        -11   -1    0    0    0    0  0.00000000000E+00  0.00000000000E+00  0.50000000000E+03  0.50000000000E+03  0.00000000000E+00 0. -1.
         11   -1    0    0    0    0 -0.00000000000E+00 -0.00000000000E+00 -0.50000000000E+03  0.50000000000E+03  0.00000000000E+00 0.  1.
        -11    1    1    2    0    0  0.12397519312E+02 -0.35965486005E+01  0.49033375016E+03  0.49050363932E+03  0.00000000000E+00 0. -1.
         11    1    1    2    0    0  0.76601143845E+01  0.31304979138E+01 -0.48746241421E+03  0.48753264776E+03  0.00000000000E+00 0.  1.
        -15    1    1    2    0    0 -0.13244600584E+02  0.28335246217E+01 -0.44549456853E+01  0.14368457693E+02  0.17770000000E+01 0. -1.
         15    1    1    2    0    0 -0.68130331126E+01 -0.23674739350E+01  0.15836097374E+01  0.75952552180E+01  0.17770000000E+01 0.  1.
</event>
<event>
 6    1  0.9144256E-004  0.4772405E+03  0.7546771E-02  0.9452227E-01
        -11   -1    0    0    0    0  0.00000000000E+00  0.00000000000E+00  0.50000000000E+03  0.50000000000E+03  0.00000000000E+00 0.  1.
         11   -1    0    0    0    0 -0.00000000000E+00 -0.00000000000E+00 -0.50000000000E+03  0.50000000000E+03  0.00000000000E+00 0.  1.
        -11    1    1    2    0    0  0.15190699599E+02  0.17353165302E+02  0.48468485501E+03  0.48523324121E+03  0.00000000000E+00 0.  1.
         11    1    1    2    0    0  0.44736222913E+00  0.63291773334E+01 -0.46974359022E+03  0.46978643996E+03  0.00000000000E+00 0.  1.
        -15    1    1    2    0    0 -0.67446149647E+01  0.14613282597E+01 -0.16736829292E+02  0.18190780496E+02  0.17770000000E+01 0.  1.
         15    1    1    2    0    0 -0.88934468631E+01 -0.25143670895E+02  0.17955645091E+01  0.26789538333E+02  0.17770000000E+01 0. -1.
</event>
<event>
 6    1  0.9144256E-004  0.5001614E+03  0.7546771E-02  0.9399449E-01
        -11   -1    0    0    0    0  0.00000000000E+00  0.00000000000E+00  0.50000000000E+03  0.50000000000E+03  0.00000000000E+00 0.  1.
         11   -1    0    0    0    0 -0.00000000000E+00 -0.00000000000E+00 -0.50000000000E+03  0.50000000000E+03  0.00000000000E+00 0. -1.
        -11    1    1    2    0    0 -0.10304691846E+02 -0.79748333490E+01  0.49966869932E+03  0.49983856766E+03  0.00000000000E+00 0.  1.
         11    1    1    2    0    0 -0.15756974117E+01  0.39542660189E+01 -0.29626518121E+03  0.29629575873E+03  0.00000000000E+00 0. -1.
        -15    1    1    2    0    0  0.22151587712E+01 -0.53121330734E+00 -0.42508019919E+02  0.42606086448E+02  0.17770000000E+01 0. -1.
         15    1    1    2    0    0  0.96652304863E+01  0.45517806374E+01 -0.16089549819E+03  0.16125958717E+03  0.17770000000E+01 0.  1.
</event>
<event>
 6    1  0.9144256E-004  0.5000826E+03  0.7546771E-02  0.9399625E-01
        -11   -1    0    0    0    0  0.00000000000E+00  0.00000000000E+00  0.50000000000E+03  0.50000000000E+03  0.00000000000E+00 0. -1.
         11   -1    0    0    0    0 -0.00000000000E+00 -0.00000000000E+00 -0.50000000000E+03  0.50000000000E+03  0.00000000000E+00 0.  1.
        -11    1    1    2    0    0 -0.12972496707E+01  0.36022329362E+01  0.54292371883E+02  0.54427204443E+02  0.00000000000E+00 0. -1.
         11    1    1    2    0    0  0.68085666928E+01  0.62377736191E+00 -0.49987064395E+03  0.49991739954E+03  0.00000000000E+00 0.  1.
        -15    1    1    2    0    0 -0.27922105052E+01 -0.52413325326E+00  0.16751041188E+03  0.16754392550E+03  0.17770000000E+01 0.  1.
         15    1    1    2    0    0 -0.27191065169E+01 -0.37018770449E+01  0.27806786019E+03  0.27811147052E+03  0.17770000000E+01 0. -1.
</event>
<event>
 6    1  0.9144256E-004  0.5135466E+03  0.7546771E-02  0.9369998E-01
        -11   -1    0    0    0    0  0.00000000000E+00  0.00000000000E+00  0.50000000000E+03  0.50000000000E+03  0.00000000000E+00 0.  1.
         11   -1    0    0    0    0 -0.00000000000E+00 -0.00000000000E+00 -0.50000000000E+03  0.50000000000E+03  0.00000000000E+00 0.  1.
        -11    1    1    2    0    0  0.59876735649E+01  0.23829721192E+02  0.48583251027E+03  0.48645342623E+03  0.00000000000E+00 0.  1.
         11    1    1    2    0    0  0.21425376975E+02  0.83990605575E+01 -0.44705744819E+03  0.44764936388E+03  0.00000000000E+00 0.  1.
        -15    1    1    2    0    0 -0.22343160424E+02 -0.18238644457E+02 -0.41595550973E+02  0.50647927491E+02  0.17770000000E+01 0. -1.
         15    1    1    2    0    0 -0.50698901160E+01 -0.13990137292E+02  0.28204888914E+01  0.15249282404E+02  0.17770000000E+01 0.  1.
</event>
<event>
 6    1  0.9144256E-004  0.4937702E+03  0.7546771E-02  0.9413858E-01
        -11   -1    0    0    0    0  0.00000000000E+00  0.00000000000E+00  0.50000000000E+03  0.50000000000E+03  0.00000000000E+00 0.  1.
         11   -1    0    0    0    0 -0.00000000000E+00 -0.00000000000E+00 -0.50000000000E+03  0.50000000000E+03  0.00000000000E+00 0. -1.
        -11    1    1    2    0    0  0.67081948132E+01 -0.14681367035E+01  0.49365588922E+03  0.49370364822E+03  0.00000000000E+00 0.  1.
         11    1    1    2    0    0  0.39636978989E+01  0.55417919020E+01 -0.49385579864E+03  0.49390279631E+03  0.00000000000E+00 0. -1.
        -15    1    1    2    0    0 -0.85027735059E+01 -0.29357975191E+01  0.11036255059E+01  0.92353550351E+01  0.17770000000E+01 0. -1.
         15    1    1    2    0    0 -0.21691192061E+01 -0.11378576794E+01 -0.90371608490E+00  0.31582004355E+01  0.17770000000E+01 0.  1.
</event>
<event>
 6    1  0.9144256E-004  0.5136465E+03  0.7546771E-02  0.9369782E-01
        -11   -1    0    0    0    0  0.00000000000E+00  0.00000000000E+00  0.50000000000E+03  0.50000000000E+03  0.00000000000E+00 0.  1.
         11   -1    0    0    0    0 -0.00000000000E+00 -0.00000000000E+00 -0.50000000000E+03  0.50000000000E+03  0.00000000000E+00 0.  1.
        -11    1    1    2    0    0 -0.11547434246E+02 -0.19146616589E+02  0.46519770958E+03  0.46573473691E+03  0.00000000000E+00 0.  1.
         11    1    1    2    0    0  0.16636672484E+02 -0.94131232650E+01 -0.48597769111E+03  0.48635347435E+03  0.00000000000E+00 0.  1.
        -15    1    1    2    0    0  0.44317648290E+01  0.27073364901E+02  0.25078593532E+02  0.37211573591E+02  0.17770000000E+01 0. -1.
         15    1    1    2    0    0 -0.95210030672E+01  0.14863749530E+01 -0.42986120104E+01  0.10700215144E+02  0.17770000000E+01 0.  1.
</event>
<event>
 6    1  0.9144256E-004  0.5088460E+03  0.7546771E-02  0.9380231E-01
        -11   -1    0    0    0    0  0.00000000000E+00  0.00000000000E+00  0.50000000000E+03  0.50000000000E+03  0.00000000000E+00 0.  1.
         11   -1    0    0    0    0 -0.00000000000E+00 -0.00000000000E+00 -0.50000000000E+03  0.50000000000E+03  0.00000000000E+00 0.  1.
        -11    1    1    2    0    0  0.30549035282E+02  0.67431680642E+02  0.14894672582E+03  0.16632919841E+03  0.00000000000E+00 0.  1.
         11    1    1    2    0    0 -0.33848365738E+01 -0.42458367389E+02 -0.48930362276E+03  0.49115395277E+03  0.00000000000E+00 0.  1.
        -15    1    1    2    0    0 -0.18453228988E+02 -0.22283350508E+02  0.24506679742E+03  0.24677512496E+03  0.17770000000E+01 0.  1.
         15    1    1    2    0    0 -0.87109697200E+01 -0.26899627455E+01  0.95290099516E+02  0.95741723861E+02  0.17770000000E+01 0. -1.
</event>
<event>
 6    1  0.9144256E-004  0.5001018E+03  0.7546771E-02  0.9399582E-01
        -11   -1    0    0    0    0  0.00000000000E+00  0.00000000000E+00  0.50000000000E+03  0.50000000000E+03  0.00000000000E+00 0.  1.
         11   -1    0    0    0    0 -0.00000000000E+00 -0.00000000000E+00 -0.50000000000E+03  0.50000000000E+03  0.00000000000E+00 0.  1.
        -11    1    1    2    0    0  0.11950983097E+01 -0.16065706881E+02  0.36179102092E+03  0.36214952439E+03  0.00000000000E+00 0.  1.
         11    1    1    2    0    0  0.56118233987E+00  0.14816357741E+02 -0.49967823230E+03  0.49989816485E+03  0.00000000000E+00 0.  1.
        -15    1    1    2    0    0 -0.78608664484E+00  0.99882028411E+00  0.65950648156E+02  0.65986826681E+02  0.17770000000E+01 0. -1.
         15    1    1    2    0    0 -0.97019400471E+00  0.25052885622E+00  0.71936563227E+02  0.71965484081E+02  0.17770000000E+01 0.  1.
</event>
<event>
 6    1  0.9144256E-004  0.5004507E+03  0.7546771E-02  0.9398802E-01
        -11   -1    0    0    0    0  0.00000000000E+00  0.00000000000E+00  0.50000000000E+03  0.50000000000E+03  0.00000000000E+00 0. -1.
         11   -1    0    0    0    0 -0.00000000000E+00 -0.00000000000E+00 -0.50000000000E+03  0.50000000000E+03  0.00000000000E+00 0.  1.
        -11    1    1    2    0    0  0.66931118992E+01 -0.12053078389E+02  0.49935900849E+03  0.49954929067E+03  0.00000000000E+00 0. -1.
         11    1    1    2    0    0  0.43017920986E+01 -0.13303437270E+00 -0.27966729266E+03  0.27970040704E+03  0.00000000000E+00 0.  1.
        -15    1    1    2    0    0 -0.10060108868E+01  0.22379434936E+01 -0.12130443573E+03  0.12134226101E+03  0.17770000000E+01 0. -1.
         15    1    1    2    0    0 -0.99888931109E+01  0.99481692684E+01 -0.98387280099E+02  0.99408041283E+02  0.17770000000E+01 0.  1.
</event>
<event>
 6    1  0.9144256E-004  0.5108442E+03  0.7546771E-02  0.9375867E-01
        -11   -1    0    0    0    0  0.00000000000E+00  0.00000000000E+00  0.50000000000E+03  0.50000000000E+03  0.00000000000E+00 0.  1.
         11   -1    0    0    0    0 -0.00000000000E+00 -0.00000000000E+00 -0.50000000000E+03  0.50000000000E+03  0.00000000000E+00 0.  1.
        -11    1    1    2    0    0  0.18063297543E+02 -0.13891806214E+01  0.46664613984E+03  0.46699767919E+03  0.00000000000E+00 0.  1.
         11    1    1    2    0    0  0.78435872796E+01 -0.14965090981E+02 -0.48886392795E+03  0.48915581961E+03  0.00000000000E+00 0.  1.
        -15    1    1    2    0    0 -0.90354115411E+01  0.18232018313E+02  0.93116455234E+01  0.22447931415E+02  0.17770000000E+01 0.  1.
         15    1    1    2    0    0 -0.16871473281E+02 -0.18777467108E+01  0.12906142580E+02  0.21398569781E+02  0.17770000000E+01 0. -1.
</event>
<event>
 6    1  0.9144256E-004  0.5013140E+03  0.7546771E-02  0.9396874E-01
        -11   -1    0    0    0    0  0.00000000000E+00  0.00000000000E+00  0.50000000000E+03  0.50000000000E+03  0.00000000000E+00 0.  1.
         11   -1    0    0    0    0 -0.00000000000E+00 -0.00000000000E+00 -0.50000000000E+03  0.50000000000E+03  0.00000000000E+00 0. -1.
        -11    1    1    2    0    0 -0.19010922308E+02  0.34583267785E+02  0.26638935709E+03  0.26929668982E+03  0.00000000000E+00 0.  1.
         11    1    1    2    0    0  0.55651500039E+01 -0.37329464286E+02 -0.49725576412E+03  0.49868602823E+03  0.00000000000E+00 0. -1.
        -15    1    1    2    0    0  0.13842509906E+02  0.82917823760E+01  0.19546315491E+03  0.19613610425E+03  0.17770000000E+01 0.  1.
         15    1    1    2    0    0 -0.39673760166E+00 -0.55455858750E+01  0.35403252122E+02  0.35881177701E+02  0.17770000000E+01 0. -1.
</event>
<event>
 6    1  0.9144256E-004  0.5002192E+03  0.7546771E-02  0.9399319E-01
        -11   -1    0    0    0    0  0.00000000000E+00  0.00000000000E+00  0.50000000000E+03  0.50000000000E+03  0.00000000000E+00 0. -1.
         11   -1    0    0    0    0 -0.00000000000E+00 -0.00000000000E+00 -0.50000000000E+03  0.50000000000E+03  0.00000000000E+00 0.  1.
        -11    1    1    2    0    0 -0.12018254051E+01  0.31083044900E+02  0.49881187248E+03  0.49978083615E+03  0.00000000000E+00 0. -1.
         11    1    1    2    0    0 -0.31403686566E+01 -0.39177003279E+01 -0.13217021639E+03  0.13226555255E+03  0.00000000000E+00 0.  1.
        -15    1    1    2    0    0 -0.42606691033E+01 -0.15924949234E+02 -0.17621234645E+03  0.17699069490E+03  0.17770000000E+01 0. -1.
         15    1    1    2    0    0  0.86028631650E+01 -0.11240395338E+02 -0.19042930963E+03  0.19096291640E+03  0.17770000000E+01 0.  1.
</event>
<event>
 6    1  0.9144256E-004  0.5028038E+03  0.7546771E-02  0.9393558E-01
        -11   -1    0    0    0    0  0.00000000000E+00  0.00000000000E+00  0.50000000000E+03  0.50000000000E+03  0.00000000000E+00 0. -1.
         11   -1    0    0    0    0 -0.00000000000E+00 -0.00000000000E+00 -0.50000000000E+03  0.50000000000E+03  0.00000000000E+00 0.  1.
        -11    1    1    2    0    0  0.73987110239E+01 -0.18853552238E+02  0.49678351337E+03  0.49719619520E+03  0.00000000000E+00 0. -1.
         11    1    1    2    0    0  0.49170087250E+01  0.64644582221E+01 -0.46806368316E+03  0.46813414498E+03  0.00000000000E+00 0.  1.
        -15    1    1    2    0    0 -0.68533419951E+01  0.45925550173E+01 -0.72839943431E+01  0.11147832107E+02  0.17770000000E+01 0.  1.
         15    1    1    2    0    0 -0.54623777537E+01  0.77965389980E+01 -0.21435835866E+02  0.23521827721E+02  0.17770000000E+01 0. -1.
</event>
<event>
 6    1  0.9144256E-004  0.5008573E+03  0.7546771E-02  0.9397893E-01
        -11   -1    0    0    0    0  0.00000000000E+00  0.00000000000E+00  0.50000000000E+03  0.50000000000E+03  0.00000000000E+00 0.  1.
         11   -1    0    0    0    0 -0.00000000000E+00 -0.00000000000E+00 -0.50000000000E+03  0.50000000000E+03  0.00000000000E+00 0. -1.
        -11    1    1    2    0    0  0.64047100800E+01  0.77692206580E+01  0.49904112738E+03  0.49914269294E+03  0.00000000000E+00 0.  1.
         11    1    1    2    0    0 -0.81805326579E+01  0.37797538334E+01 -0.40492764262E+03  0.40502790449E+03  0.00000000000E+00 0. -1.
        -15    1    1    2    0    0 -0.49617218155E+01 -0.48452344679E+01 -0.58140106666E+02  0.58579217411E+02  0.17770000000E+01 0. -1.
         15    1    1    2    0    0  0.67375443934E+01 -0.67037400235E+01 -0.35973378086E+02  0.37250185163E+02  0.17770000000E+01 0.  1.
</event>
<event>
 6    1  0.9144256E-004  0.5001045E+03  0.7546771E-02  0.9399576E-01
        -11   -1    0    0    0    0  0.00000000000E+00  0.00000000000E+00  0.50000000000E+03  0.50000000000E+03  0.00000000000E+00 0. -1.
         11   -1    0    0    0    0 -0.00000000000E+00 -0.00000000000E+00 -0.50000000000E+03  0.50000000000E+03  0.00000000000E+00 0. -1.
        -11    1    1    2    0    0  0.65765273266E+01 -0.72365109263E+01  0.20236522753E+03  0.20260134036E+03  0.00000000000E+00 0. -1.
         11    1    1    2    0    0 -0.10662599030E+02  0.24998726863E+01 -0.49977556942E+03  0.49989554926E+03  0.00000000000E+00 0. -1.
        -15    1    1    2    0    0  0.13294856466E+01  0.20110155052E+01  0.92734935823E+02  0.92783283875E+02  0.17770000000E+01 0. -1.
         15    1    1    2    0    0  0.27565860572E+01  0.27256227348E+01  0.20467540607E+03  0.20471982651E+03  0.17770000000E+01 0. -1.
</event>
<event>
 6    1  0.9144256E-004  0.4865250E+03  0.7546771E-02  0.9430476E-01
        -11   -1    0    0    0    0  0.00000000000E+00  0.00000000000E+00  0.50000000000E+03  0.50000000000E+03  0.00000000000E+00 0.  1.
         11   -1    0    0    0    0 -0.00000000000E+00 -0.00000000000E+00 -0.50000000000E+03  0.50000000000E+03  0.00000000000E+00 0.  1.
        -11    1    1    2    0    0 -0.10719405857E+02  0.33638810580E+00  0.48888816413E+03  0.48900578304E+03  0.00000000000E+00 0.  1.
         11    1    1    2    0    0  0.92190862281E+01  0.82541948522E+01 -0.48393778919E+03  0.48409596889E+03  0.00000000000E+00 0.  1.
        -15    1    1    2    0    0  0.24931325335E+01 -0.74446660497E+01  0.93904700504E+01  0.12368404068E+02  0.17770000000E+01 0.  1.
         15    1    1    2    0    0 -0.99281290473E+00 -0.11459169082E+01 -0.14340844985E+02  0.14529844008E+02  0.17770000000E+01 0. -1.
</event>
<event>
 6    1  0.9144256E-004  0.4930863E+03  0.7546771E-02  0.9415414E-01
        -11   -1    0    0    0    0  0.00000000000E+00  0.00000000000E+00  0.50000000000E+03  0.50000000000E+03  0.00000000000E+00 0. -1.
         11   -1    0    0    0    0 -0.00000000000E+00 -0.00000000000E+00 -0.50000000000E+03  0.50000000000E+03  0.00000000000E+00 0. -1.
        -11    1    1    2    0    0  0.56757162195E+01 -0.61629714213E+01  0.49149489107E+03  0.49156629657E+03  0.00000000000E+00 0. -1.
         11    1    1    2    0    0  0.17470605982E+01  0.81552501831E+01 -0.49457069413E+03  0.49464101308E+03  0.00000000000E+00 0. -1.
        -15    1    1    2    0    0 -0.78024523554E+01 -0.52788404262E+01  0.29687574560E+01  0.10035719647E+02  0.17770000000E+01 0. -1.
         15    1    1    2    0    0  0.37967553771E+00  0.32865616644E+01  0.10704560367E+00  0.37569707011E+01  0.17770000000E+01 0.  1.
</event>
<event>
 6    1  0.9144256E-004  0.4923639E+03  0.7546771E-02  0.9417060E-01
        -11   -1    0    0    0    0  0.00000000000E+00  0.00000000000E+00  0.50000000000E+03  0.50000000000E+03  0.00000000000E+00 0.  1.
         11   -1    0    0    0    0 -0.00000000000E+00 -0.00000000000E+00 -0.50000000000E+03  0.50000000000E+03  0.00000000000E+00 0. -1.
        -11    1    1    2    0    0 -0.11257990987E+02 -0.30770288865E+00  0.49297108971E+03  0.49309971845E+03  0.00000000000E+00 0.  1.
         11    1    1    2    0    0  0.78368677033E+01  0.20735896917E+01 -0.49156983637E+03  0.49163667510E+03  0.00000000000E+00 0. -1.
        -15    1    1    2    0    0 -0.38521589691E+01 -0.11711868895E+01  0.40517312424E+01  0.59820617277E+01  0.17770000000E+01 0.  1.
         15    1    1    2    0    0  0.72732822525E+01 -0.59469991354E+00 -0.54529845770E+01  0.92815447265E+01  0.17770000000E+01 0. -1.
</event>
<event>
 6    1  0.9144256E-004  0.5024950E+03  0.7546771E-02  0.9394244E-01
        -11   -1    0    0    0    0  0.00000000000E+00  0.00000000000E+00  0.50000000000E+03  0.50000000000E+03  0.00000000000E+00 0. -1.
         11   -1    0    0    0    0 -0.00000000000E+00 -0.00000000000E+00 -0.50000000000E+03  0.50000000000E+03  0.00000000000E+00 0.  1.
        -11    1    1    2    0    0  0.12006034558E+02 -0.16504355970E+02  0.24954457653E+03  0.25037778317E+03  0.00000000000E+00 0. -1.
         11    1    1    2    0    0 -0.50281699770E+01 -0.23205738362E+02 -0.49693810475E+03  0.49750504393E+03  0.00000000000E+00 0.  1.
        -15    1    1    2    0    0  0.20349234769E+01  0.10743575871E+02  0.21474521797E+02  0.24163570752E+02  0.17770000000E+01 0.  1.
         15    1    1    2    0    0 -0.90127880583E+01  0.28966518461E+02  0.22591900642E+03  0.22795360214E+03  0.17770000000E+01 0. -1.
</event>
<event>
 6    1  0.9144256E-004  0.5027013E+03  0.7546771E-02  0.9393786E-01
        -11   -1    0    0    0    0  0.00000000000E+00  0.00000000000E+00  0.50000000000E+03  0.50000000000E+03  0.00000000000E+00 0.  1.
         11   -1    0    0    0    0 -0.00000000000E+00 -0.00000000000E+00 -0.50000000000E+03  0.50000000000E+03  0.00000000000E+00 0.  1.
        -11    1    1    2    0    0 -0.26977378741E+01  0.18639885146E+02  0.29255037116E+03  0.29315600415E+03  0.00000000000E+00 0.  1.
         11    1    1    2    0    0  0.81561038653E+01  0.75486730001E+01 -0.49717455712E+03  0.49729874798E+03  0.00000000000E+00 0.  1.
        -15    1    1    2    0    0 -0.54690829207E+01  0.14557068743E+01  0.43290214223E+01  0.73435758301E+01  0.17770000000E+01 0. -1.
         15    1    1    2    0    0  0.10716929538E-01 -0.27644265020E+02  0.20029516455E+03  0.20220167203E+03  0.17770000000E+01 0.  1.
</event>
<event>
 6    1  0.9144256E-004  0.5097202E+03  0.7546771E-02  0.9378319E-01
        -11   -1    0    0    0    0  0.00000000000E+00  0.00000000000E+00  0.50000000000E+03  0.50000000000E+03  0.00000000000E+00 0. -1.
         11   -1    0    0    0    0 -0.00000000000E+00 -0.00000000000E+00 -0.50000000000E+03  0.50000000000E+03  0.00000000000E+00 0. -1.
        -11    1    1    2    0    0  0.30833039407E+02 -0.24683946880E+02  0.48868630404E+03  0.49027979492E+03  0.00000000000E+00 0. -1.
         11    1    1    2    0    0 -0.20808872958E+01  0.29747101658E+02 -0.41061619164E+03  0.41169755523E+03  0.00000000000E+00 0. -1.
        -15    1    1    2    0    0 -0.35647832910E+02  0.19528494282E+01 -0.24044348064E+02  0.43079809829E+02  0.17770000000E+01 0. -1.
         15    1    1    2    0    0  0.68956807987E+01 -0.70160042070E+01 -0.54025764335E+02  0.54942840022E+02  0.17770000000E+01 0.  1.
</event>
<event>
 6    1  0.9144256E-004  0.5007488E+03  0.7546771E-02  0.9398136E-01
        -11   -1    0    0    0    0  0.00000000000E+00  0.00000000000E+00  0.50000000000E+03  0.50000000000E+03  0.00000000000E+00 0.  1.
         11   -1    0    0    0    0 -0.00000000000E+00 -0.00000000000E+00 -0.50000000000E+03  0.50000000000E+03  0.00000000000E+00 0.  1.
        -11    1    1    2    0    0  0.14912432617E+02  0.82046217790E+01  0.10622883376E+03  0.10758374221E+03  0.00000000000E+00 0.  1.
         11    1    1    2    0    0 -0.19033558304E+02  0.18700374645E+01 -0.49888469550E+03  0.49925115201E+03  0.00000000000E+00 0.  1.
        -15    1    1    2    0    0  0.49586531904E+01  0.29690249614E+01  0.17925868532E+03  0.17936063488E+03  0.17770000000E+01 0. -1.
         15    1    1    2    0    0 -0.83752750335E+00 -0.13043684205E+02  0.21339717641E+03  0.21380447091E+03  0.17770000000E+01 0.  1.
</event>
<event>
 6    1  0.9144256E-004  0.5008978E+03  0.7546771E-02  0.9397803E-01
        -11   -1    0    0    0    0  0.00000000000E+00  0.00000000000E+00  0.50000000000E+03  0.50000000000E+03  0.00000000000E+00 0.  1.
         11   -1    0    0    0    0 -0.00000000000E+00 -0.00000000000E+00 -0.50000000000E+03  0.50000000000E+03  0.00000000000E+00 0. -1.
        -11    1    1    2    0    0 -0.10387782118E+02 -0.10452698232E+02  0.49888460910E+03  0.49910221209E+03  0.00000000000E+00 0.  1.
         11    1    1    2    0    0 -0.84124186330E+00 -0.53666199734E+01 -0.37728987776E+03  0.37732898134E+03  0.00000000000E+00 0. -1.
        -15    1    1    2    0    0  0.74483818386E+01  0.51803249336E+01 -0.76133330066E+02  0.76692606126E+02  0.17770000000E+01 0. -1.
         15    1    1    2    0    0  0.37806421427E+01  0.10638993272E+02 -0.45461401276E+02  0.46876200441E+02  0.17770000000E+01 0.  1.
</event>
<event>
 6    1  0.9144256E-004  0.5048826E+03  0.7546771E-02  0.9388950E-01
        -11   -1    0    0    0    0  0.00000000000E+00  0.00000000000E+00  0.50000000000E+03  0.50000000000E+03  0.00000000000E+00 0.  1.
         11   -1    0    0    0    0 -0.00000000000E+00 -0.00000000000E+00 -0.50000000000E+03  0.50000000000E+03  0.00000000000E+00 0. -1.
        -11    1    1    2    0    0  0.25311338707E+02  0.55448941674E+01  0.39190033024E+03  0.39275600385E+03  0.00000000000E+00 0.  1.
         11    1    1    2    0    0 -0.74883189294E+01  0.23151398285E+01 -0.49505536633E+03  0.49511741085E+03  0.00000000000E+00 0. -1.
        -15    1    1    2    0    0 -0.38846444388E+00 -0.69811917696E+01  0.89764595273E+02  0.90054029542E+02  0.17770000000E+01 0.  1.
         15    1    1    2    0    0 -0.17434555333E+02 -0.87884222637E+00  0.13390440818E+02  0.22072555757E+02  0.17770000000E+01 0. -1.
</event>
<event>
 6    1  0.9144256E-004  0.5041542E+03  0.7546771E-02  0.9390562E-01
        -11   -1    0    0    0    0  0.00000000000E+00  0.00000000000E+00  0.50000000000E+03  0.50000000000E+03  0.00000000000E+00 0. -1.
         11   -1    0    0    0    0 -0.00000000000E+00 -0.00000000000E+00 -0.50000000000E+03  0.50000000000E+03  0.00000000000E+00 0.  1.
        -11    1    1    2    0    0  0.60956471823E+02 -0.12931010505E+01  0.49208305943E+03  0.49584584393E+03  0.00000000000E+00 0. -1.
         11    1    1    2    0    0 -0.45521842957E+01  0.67380221496E+01 -0.34023005834E+03  0.34032721890E+03  0.00000000000E+00 0.  1.
        -15    1    1    2    0    0 -0.13239748269E+01 -0.17572063842E+01 -0.72094668213E+00  0.29185915674E+01  0.17770000000E+01 0.  1.
         15    1    1    2    0    0 -0.55080312700E+02 -0.36877147149E+01 -0.15113205440E+03  0.16090834560E+03  0.17770000000E+01 0. -1.
</event>
<event>
 6    1  0.9144256E-004  0.5035202E+03  0.7546771E-02  0.9391967E-01
        -11   -1    0    0    0    0  0.00000000000E+00  0.00000000000E+00  0.50000000000E+03  0.50000000000E+03  0.00000000000E+00 0.  1.
         11   -1    0    0    0    0 -0.00000000000E+00 -0.00000000000E+00 -0.50000000000E+03  0.50000000000E+03  0.00000000000E+00 0.  1.
        -11    1    1    2    0    0 -0.12607729197E+01 -0.33585414977E+02  0.28590007104E+03  0.28786875529E+03  0.00000000000E+00 0.  1.
         11    1    1    2    0    0  0.44378137991E+02  0.88174082120E+01 -0.49441381828E+03  0.49647979770E+03  0.00000000000E+00 0.  1.
        -15    1    1    2    0    0 -0.22500198491E+02  0.20170051374E+02  0.15794373426E+03  0.16081812965E+03  0.17770000000E+01 0.  1.
         15    1    1    2    0    0 -0.20617166580E+02  0.45979553907E+01  0.50570012978E+02  0.54833317365E+02  0.17770000000E+01 0. -1.
</event>
<event>
 6    1  0.9144256E-004  0.5007495E+03  0.7546771E-02  0.9398134E-01
        -11   -1    0    0    0    0  0.00000000000E+00  0.00000000000E+00  0.50000000000E+03  0.50000000000E+03  0.00000000000E+00 0.  1.
         11   -1    0    0    0    0 -0.00000000000E+00 -0.00000000000E+00 -0.50000000000E+03  0.50000000000E+03  0.00000000000E+00 0. -1.
        -11    1    1    2    0    0 -0.39506381759E+01 -0.60924090827E+01  0.38074050459E+03  0.38080973835E+03  0.00000000000E+00 0.  1.
         11    1    1    2    0    0 -0.10791370338E+02  0.22817681481E+01 -0.49912861896E+03  0.49925047662E+03  0.00000000000E+00 0. -1.
        -15    1    1    2    0    0  0.11970710013E+01  0.22778074425E+00  0.53003457092E+02  0.53047234195E+02  0.17770000000E+01 0.  1.
         15    1    1    2    0    0  0.13544937512E+02  0.35828601903E+01  0.65384657282E+02  0.66892550828E+02  0.17770000000E+01 0. -1.
</event>
<event>
 6    1  0.9144256E-004  0.5001688E+03  0.7546771E-02  0.9399432E-01
        -11   -1    0    0    0    0  0.00000000000E+00  0.00000000000E+00  0.50000000000E+03  0.50000000000E+03  0.00000000000E+00 0.  1.
         11   -1    0    0    0    0 -0.00000000000E+00 -0.00000000000E+00 -0.50000000000E+03  0.50000000000E+03  0.00000000000E+00 0.  1.
        -11    1    1    2    0    0 -0.17167359943E+01 -0.15892213558E+02  0.49957553530E+03  0.49983119661E+03  0.00000000000E+00 0.  1.
         11    1    1    2    0    0  0.30494849530E+01 -0.23977797614E+01 -0.12207591682E+03  0.12213753794E+03  0.00000000000E+00 0.  1.
        -15    1    1    2    0    0  0.13695676304E+01  0.61657959493E+01 -0.80609999088E+02  0.80876587695E+02  0.17770000000E+01 0. -1.
         15    1    1    2    0    0 -0.27023165891E+01  0.12124197370E+02 -0.29688961940E+03  0.29715467776E+03  0.17770000000E+01 0.  1.
</event>
<event>
 6    1  0.9144256E-004  0.5014172E+03  0.7546771E-02  0.9396644E-01
        -11   -1    0    0    0    0  0.00000000000E+00  0.00000000000E+00  0.50000000000E+03  0.50000000000E+03  0.00000000000E+00 0. -1.
         11   -1    0    0    0    0 -0.00000000000E+00 -0.00000000000E+00 -0.50000000000E+03  0.50000000000E+03  0.00000000000E+00 0.  1.
        -11    1    1    2    0    0 -0.11196943449E+02 -0.10874708537E+01  0.49845590341E+03  0.49858283342E+03  0.00000000000E+00 0. -1.
         11    1    1    2    0    0 -0.92279868252E+01  0.19977052468E+01 -0.41988382108E+03  0.41998996390E+03  0.00000000000E+00 0.  1.
        -15    1    1    2    0    0  0.76645102413E+01 -0.22804507804E+01 -0.24871464062E+02  0.26185733264E+02  0.17770000000E+01 0.  1.
         15    1    1    2    0    0  0.12760420033E+02  0.13702163872E+01 -0.53700618267E+02  0.55241469419E+02  0.17770000000E+01 0. -1.
</event>
<event>
 6    1  0.9144256E-004  0.5039981E+03  0.7546771E-02  0.9390908E-01
        -11   -1    0    0    0    0  0.00000000000E+00  0.00000000000E+00  0.50000000000E+03  0.50000000000E+03  0.00000000000E+00 0. -1.
         11   -1    0    0    0    0 -0.00000000000E+00 -0.00000000000E+00 -0.50000000000E+03  0.50000000000E+03  0.00000000000E+00 0.  1.
        -11    1    1    2    0    0 -0.11475255126E+02  0.18676572744E+00  0.49586913836E+03  0.49600193421E+03  0.00000000000E+00 0. -1.
         11    1    1    2    0    0 -0.11562020728E+02 -0.44278324908E+01 -0.46059113254E+03  0.46075750390E+03  0.00000000000E+00 0.  1.
        -15    1    1    2    0    0  0.18684696256E+02  0.62657826376E+01 -0.29495668259E+02  0.35518024738E+02  0.17770000000E+01 0. -1.
         15    1    1    2    0    0  0.43525795982E+01 -0.20247158742E+01 -0.57823375538E+01  0.77225371553E+01  0.17770000000E+01 0.  1.
</event>
<event>
 6    1  0.9144256E-004  0.5004689E+03  0.7546771E-02  0.9398761E-01
        -11   -1    0    0    0    0  0.00000000000E+00  0.00000000000E+00  0.50000000000E+03  0.50000000000E+03  0.00000000000E+00 0.  1.
         11   -1    0    0    0    0 -0.00000000000E+00 -0.00000000000E+00 -0.50000000000E+03  0.50000000000E+03  0.00000000000E+00 0. -1.
        -11    1    1    2    0    0  0.11723139799E+02 -0.18786968780E+01  0.23094419537E+03  0.23124917920E+03  0.00000000000E+00 0.  1.
         11    1    1    2    0    0 -0.74194238100E+01  0.20290561737E+02 -0.49906373650E+03  0.49953114801E+03  0.00000000000E+00 0. -1.
        -15    1    1    2    0    0 -0.32796561160E+00 -0.20015377758E+01  0.13433912149E+03  0.13436618253E+03  0.17770000000E+01 0. -1.
         15    1    1    2    0    0 -0.39757503774E+01 -0.16410327083E+02  0.13378041964E+03  0.13485349026E+03  0.17770000000E+01 0.  1.
</event>
<event>
 6    1  0.9144256E-004  0.5009274E+03  0.7546771E-02  0.9397737E-01
        -11   -1    0    0    0    0  0.00000000000E+00  0.00000000000E+00  0.50000000000E+03  0.50000000000E+03  0.00000000000E+00 0.  1.
         11   -1    0    0    0    0 -0.00000000000E+00 -0.00000000000E+00 -0.50000000000E+03  0.50000000000E+03  0.00000000000E+00 0. -1.
        -11    1    1    2    0    0 -0.57183502428E+01  0.10001548330E+02  0.49893959250E+03  0.49907258737E+03  0.00000000000E+00 0.  1.
         11    1    1    2    0    0  0.66009680467E+01 -0.48802997681E+01 -0.44986113037E+03  0.44993602515E+03  0.00000000000E+00 0. -1.
        -15    1    1    2    0    0  0.31213776505E+01 -0.71540810072E+01 -0.39032650869E+02  0.39845067905E+02  0.17770000000E+01 0. -1.
         15    1    1    2    0    0 -0.40039954544E+01  0.20328324449E+01 -0.10045811257E+02  0.11146319579E+02  0.17770000000E+01 0.  1.
</event>
<event>
 6    1  0.9144256E-004  0.5032728E+03  0.7546771E-02  0.9392516E-01
        -11   -1    0    0    0    0  0.00000000000E+00  0.00000000000E+00  0.50000000000E+03  0.50000000000E+03  0.00000000000E+00 0.  1.
         11   -1    0    0    0    0 -0.00000000000E+00 -0.00000000000E+00 -0.50000000000E+03  0.50000000000E+03  0.00000000000E+00 0.  1.
        -11    1    1    2    0    0  0.57315010826E+01  0.13403669454E+02  0.49651324317E+03  0.49672719787E+03  0.00000000000E+00 0.  1.
         11    1    1    2    0    0 -0.42897554256E+01  0.66219451805E+01 -0.45372495235E+03  0.45379354838E+03  0.00000000000E+00 0.  1.
        -15    1    1    2    0    0 -0.20290958778E+00 -0.51947355795E+01 -0.27597213801E+02  0.28138770205E+02  0.17770000000E+01 0. -1.
         15    1    1    2    0    0 -0.12388360692E+01 -0.14830879055E+02 -0.15191077013E+02  0.21340483551E+02  0.17770000000E+01 0.  1.
</event>
<event>
 6    1  0.9144256E-004  0.5023797E+03  0.7546771E-02  0.9394501E-01
        -11   -1    0    0    0    0  0.00000000000E+00  0.00000000000E+00  0.50000000000E+03  0.50000000000E+03  0.00000000000E+00 0.  1.
         11   -1    0    0    0    0 -0.00000000000E+00 -0.00000000000E+00 -0.50000000000E+03  0.50000000000E+03  0.00000000000E+00 0.  1.
        -11    1    1    2    0    0  0.47160214068E+01  0.11792725755E+02  0.43931165893E+03  0.43949521375E+03  0.00000000000E+00 0.  1.
         11    1    1    2    0    0 -0.53305119510E+00  0.68836325111E+01 -0.49757238938E+03  0.49762028818E+03  0.00000000000E+00 0.  1.
        -15    1    1    2    0    0 -0.17686291416E+01 -0.54826040581E+00  0.10108938401E+01  0.27583099661E+01  0.17770000000E+01 0. -1.
         15    1    1    2    0    0 -0.24143410700E+01 -0.18128097860E+02  0.57249836609E+02  0.60126188101E+02  0.17770000000E+01 0.  1.
</event>
<event>
 6    1  0.9144256E-004  0.4763604E+03  0.7546771E-02  0.9454316E-01
        -11   -1    0    0    0    0  0.00000000000E+00  0.00000000000E+00  0.50000000000E+03  0.50000000000E+03  0.00000000000E+00 0. -1.
         11   -1    0    0    0    0 -0.00000000000E+00 -0.00000000000E+00 -0.50000000000E+03  0.50000000000E+03  0.00000000000E+00 0.  1.
        -11    1    1    2    0    0  0.96425857193E+01 -0.68602753061E+01  0.46880181470E+03  0.46895115343E+03  0.00000000000E+00 0. -1.
         11    1    1    2    0    0  0.21342417060E+02  0.64918070881E+01 -0.48387871201E+03  0.48439266123E+03  0.00000000000E+00 0.  1.
        -15    1    1    2    0    0 -0.20092343501E+02 -0.60981787765E+01 -0.60807854483E+01  0.21932253246E+02  0.17770000000E+01 0.  1.
         15    1    1    2    0    0 -0.10892659277E+02  0.64666469944E+01  0.21157682751E+02  0.24723932088E+02  0.17770000000E+01 0. -1.
</event>
<event>
 6    1  0.9144256E-004  0.4936110E+03  0.7546771E-02  0.9414220E-01
        -11   -1    0    0    0    0  0.00000000000E+00  0.00000000000E+00  0.50000000000E+03  0.50000000000E+03  0.00000000000E+00 0.  1.
         11   -1    0    0    0    0 -0.00000000000E+00 -0.00000000000E+00 -0.50000000000E+03  0.50000000000E+03  0.00000000000E+00 0. -1.
        -11    1    1    2    0    0 -0.11919139762E+02 -0.22600722434E+01  0.64895491803E+01  0.13758200019E+02  0.00000000000E+00 0.  1.
         11    1    1    2    0    0  0.32000924402E+01  0.27769091154E+02 -0.49505820745E+03  0.49584674223E+03  0.00000000000E+00 0. -1.
        -15    1    1    2    0    0  0.91551262997E+00 -0.17876955172E+02  0.44756160409E+03  0.44792295194E+03  0.17770000000E+01 0.  1.
         15    1    1    2    0    0  0.78035346917E+01 -0.76320637385E+01  0.41007054182E+02  0.42472105814E+02  0.17770000000E+01 0. -1.
</event>
<event>
 6    1  0.9144256E-004  0.5035418E+03  0.7546771E-02  0.9391919E-01
        -11   -1    0    0    0    0  0.00000000000E+00  0.00000000000E+00  0.50000000000E+03  0.50000000000E+03  0.00000000000E+00 0.  1.
         11   -1    0    0    0    0 -0.00000000000E+00 -0.00000000000E+00 -0.50000000000E+03  0.50000000000E+03  0.00000000000E+00 0.  1.
        -11    1    1    2    0    0  0.11509759177E+02 -0.61026903590E+01  0.49628720151E+03  0.49645815913E+03  0.00000000000E+00 0.  1.
         11    1    1    2    0    0  0.26906316292E+01 -0.98704317875E+01 -0.46030222814E+03  0.46041590562E+03  0.00000000000E+00 0.  1.
        -15    1    1    2    0    0 -0.46312990362E+01  0.35529332700E+01 -0.35571918636E+01  0.70628328975E+01  0.17770000000E+01 0. -1.
         15    1    1    2    0    0 -0.95690917697E+01  0.12420188877E+02 -0.32427781506E+02  0.36063102355E+02  0.17770000000E+01 0.  1.
</event>
<event>
 6    1  0.9144256E-004  0.5016334E+03  0.7546771E-02  0.9396162E-01
        -11   -1    0    0    0    0  0.00000000000E+00  0.00000000000E+00  0.50000000000E+03  0.50000000000E+03  0.00000000000E+00 0. -1.
         11   -1    0    0    0    0 -0.00000000000E+00 -0.00000000000E+00 -0.50000000000E+03  0.50000000000E+03  0.00000000000E+00 0. -1.
        -11    1    1    2    0    0 -0.40799682330E+02 -0.30993157611E+02  0.49572576962E+03  0.49836656044E+03  0.00000000000E+00 0. -1.
         11    1    1    2    0    0  0.22439021948E+02 -0.15365124994E+01 -0.24135686759E+03  0.24240257447E+03  0.00000000000E+00 0. -1.
        -15    1    1    2    0    0  0.42854350241E+01 -0.17235349308E+00 -0.34284332675E+01  0.57711820923E+01  0.17770000000E+01 0. -1.
         15    1    1    2    0    0  0.14075225358E+02  0.32702023603E+02 -0.25094046876E+03  0.25345968300E+03  0.17770000000E+01 0.  1.
</event>
<event>
 6    1  0.9144256E-004  0.5011142E+03  0.7546771E-02  0.9397320E-01
        -11   -1    0    0    0    0  0.00000000000E+00  0.00000000000E+00  0.50000000000E+03  0.50000000000E+03  0.00000000000E+00 0.  1.
         11   -1    0    0    0    0 -0.00000000000E+00 -0.00000000000E+00 -0.50000000000E+03  0.50000000000E+03  0.00000000000E+00 0. -1.
        -11    1    1    2    0    0 -0.63684118421E+02 -0.47134339095E+02  0.42524283578E+03  0.43256072666E+03  0.00000000000E+00 0.  1.
         11    1    1    2    0    0  0.63045725129E+02  0.42401052019E+02 -0.49306637800E+03  0.49888582439E+03  0.00000000000E+00 0. -1.
        -15    1    1    2    0    0 -0.41249164956E+00  0.60281591557E+01  0.60673655047E+02  0.60999663917E+02  0.17770000000E+01 0.  1.
         15    1    1    2    0    0  0.10508849415E+01 -0.12948720791E+01  0.71498871641E+01  0.75537850327E+01  0.17770000000E+01 0. -1.
</event>
<event>
 6    1  0.9144256E-004  0.5012227E+03  0.7546771E-02  0.9397078E-01
        -11   -1    0    0    0    0  0.00000000000E+00  0.00000000000E+00  0.50000000000E+03  0.50000000000E+03  0.00000000000E+00 0.  1.
         11   -1    0    0    0    0 -0.00000000000E+00 -0.00000000000E+00 -0.50000000000E+03  0.50000000000E+03  0.00000000000E+00 0.  1.
        -11    1    1    2    0    0 -0.43591127892E+01  0.84093904004E+01  0.49868736001E+03  0.49877730777E+03  0.00000000000E+00 0.  1.
         11    1    1    2    0    0 -0.34202668304E+01  0.82472169075E+01 -0.36286029846E+03  0.36297012413E+03  0.00000000000E+00 0.  1.
        -15    1    1    2    0    0  0.51529413398E+01 -0.55685943099E+01 -0.10580663689E+03  0.10609318634E+03  0.17770000000E+01 0.  1.
         15    1    1    2    0    0  0.26264382798E+01 -0.11088012998E+02 -0.30020424659E+02  0.32159381772E+02  0.17770000000E+01 0. -1.
</event>
<event>
 6    1  0.9144256E-004  0.4875507E+03  0.7546771E-02  0.9428105E-01
        -11   -1    0    0    0    0  0.00000000000E+00  0.00000000000E+00  0.50000000000E+03  0.50000000000E+03  0.00000000000E+00 0. -1.
         11   -1    0    0    0    0 -0.00000000000E+00 -0.00000000000E+00 -0.50000000000E+03  0.50000000000E+03  0.00000000000E+00 0. -1.
        -11    1    1    2    0    0 -0.10732416731E+02 -0.12666206327E+02  0.49099131002E+03  0.49127190442E+03  0.00000000000E+00 0. -1.
         11    1    1    2    0    0 -0.90619635617E+01  0.34897872482E+01 -0.48400119165E+03  0.48409859669E+03  0.00000000000E+00 0. -1.
        -15    1    1    2    0    0  0.16748646229E+02  0.95387232131E+01 -0.35290725214E+01  0.19675275676E+02  0.17770000000E+01 0. -1.
         15    1    1    2    0    0  0.30457340637E+01 -0.36230413447E+00 -0.34610458491E+01  0.49542232128E+01  0.17770000000E+01 0. -1.
</event>
<event>
 6    1  0.9144256E-004  0.5004511E+03  0.7546771E-02  0.9398801E-01
        -11   -1    0    0    0    0  0.00000000000E+00  0.00000000000E+00  0.50000000000E+03  0.50000000000E+03  0.00000000000E+00 0. -1.
         11   -1    0    0    0    0 -0.00000000000E+00 -0.00000000000E+00 -0.50000000000E+03  0.50000000000E+03  0.00000000000E+00 0.  1.
        -11    1    1    2    0    0  0.18994671250E+01  0.10384756896E+02  0.38357308092E+03  0.38371833362E+03  0.00000000000E+00 0. -1.
         11    1    1    2    0    0 -0.84057719124E+01 -0.12316447966E+01 -0.49947663786E+03  0.49954888222E+03  0.00000000000E+00 0.  1.
        -15    1    1    2    0    0  0.52515783265E+01 -0.98030693102E+01  0.10452184124E+03  0.10512683895E+03  0.17770000000E+01 0. -1.
         15    1    1    2    0    0  0.12547264609E+01  0.64995721113E+00  0.11381715705E+02  0.11605945212E+02  0.17770000000E+01 0.  1.
</event>
<event>
 6    1  0.9144256E-004  0.5021093E+03  0.7546771E-02  0.9395102E-01
        -11   -1    0    0    0    0  0.00000000000E+00  0.00000000000E+00  0.50000000000E+03  0.50000000000E+03  0.00000000000E+00 0.  1.
         11   -1    0    0    0    0 -0.00000000000E+00 -0.00000000000E+00 -0.50000000000E+03  0.50000000000E+03  0.00000000000E+00 0. -1.
        -11    1    1    2    0    0  0.54645673044E+01  0.11380247663E+02  0.49341579332E+03  0.49357726511E+03  0.00000000000E+00 0.  1.
         11    1    1    2    0    0 -0.26172281368E+01 -0.72668108804E+01 -0.49783079921E+03  0.49789071197E+03  0.00000000000E+00 0. -1.
        -15    1    1    2    0    0 -0.60506091538E+00 -0.32834233642E+01  0.40323875759E+01  0.55285482961E+01  0.17770000000E+01 0.  1.
         15    1    1    2    0    0 -0.22422782522E+01 -0.83001341866E+00  0.38261831925E+00  0.30034746234E+01  0.17770000000E+01 0. -1.
</event>
<event>
 6    1  0.9144256E-004  0.5032390E+03  0.7546771E-02  0.9392591E-01
        -11   -1    0    0    0    0  0.00000000000E+00  0.00000000000E+00  0.50000000000E+03  0.50000000000E+03  0.00000000000E+00 0.  1.
         11   -1    0    0    0    0 -0.00000000000E+00 -0.00000000000E+00 -0.50000000000E+03  0.50000000000E+03  0.00000000000E+00 0. -1.
        -11    1    1    2    0    0 -0.11367602344E+02 -0.10529519214E+01  0.46330540712E+03  0.46344603932E+03  0.00000000000E+00 0.  1.
         11    1    1    2    0    0 -0.82789709516E+01  0.29186359947E+01 -0.49668338294E+03  0.49676095124E+03  0.00000000000E+00 0. -1.
        -15    1    1    2    0    0  0.16603579599E+02 -0.61877214118E+00  0.31386988484E+02  0.35557875493E+02  0.17770000000E+01 0. -1.
         15    1    1    2    0    0  0.30429936964E+01 -0.12469119321E+01  0.19909873305E+01  0.42351339475E+01  0.17770000000E+01 0.  1.
</event>
<event>
 6    1  0.9144256E-004  0.5014807E+03  0.7546771E-02  0.9396503E-01
        -11   -1    0    0    0    0  0.00000000000E+00  0.00000000000E+00  0.50000000000E+03  0.50000000000E+03  0.00000000000E+00 0.  1.
         11   -1    0    0    0    0 -0.00000000000E+00 -0.00000000000E+00 -0.50000000000E+03  0.50000000000E+03  0.00000000000E+00 0. -1.
        -11    1    1    2    0    0  0.74268063200E+01 -0.13510566711E+02  0.39183934426E+03  0.39214253094E+03  0.00000000000E+00 0.  1.
         11    1    1    2    0    0  0.45402516880E-01 -0.70779126056E+01 -0.49846901089E+03  0.49851926113E+03  0.00000000000E+00 0. -1.
        -15    1    1    2    0    0  0.21451238337E+01  0.58594696921E+01  0.30512827231E+02  0.31194956259E+02  0.17770000000E+01 0.  1.
         15    1    1    2    0    0 -0.96173326706E+01  0.14729009625E+02  0.76116839394E+02  0.78143251664E+02  0.17770000000E+01 0. -1.
</event>
<event>
 6    1  0.9144256E-004  0.5046272E+03  0.7546771E-02  0.9389515E-01
        -11   -1    0    0    0    0  0.00000000000E+00  0.00000000000E+00  0.50000000000E+03  0.50000000000E+03  0.00000000000E+00 0.  1.
         11   -1    0    0    0    0 -0.00000000000E+00 -0.00000000000E+00 -0.50000000000E+03  0.50000000000E+03  0.00000000000E+00 0.  1.
        -11    1    1    2    0    0  0.88881014178E+01 -0.34678412773E+01  0.49009984521E+03  0.49019269940E+03  0.00000000000E+00 0.  1.
         11    1    1    2    0    0 -0.67374287758E+01  0.30989907707E+01 -0.49531728509E+03  0.49537279860E+03  0.00000000000E+00 0.  1.
        -15    1    1    2    0    0  0.36349875618E+01 -0.27747390279E+01 -0.12206108221E+01  0.50556830425E+01  0.17770000000E+01 0. -1.
         15    1    1    2    0    0 -0.57856602038E+01  0.31435895345E+01  0.64380507046E+01  0.93788189571E+01  0.17770000000E+01 0. -1.
</event>
<event>
 6    1  0.9144256E-004  0.5024202E+03  0.7546771E-02  0.9394411E-01
        -11   -1    0    0    0    0  0.00000000000E+00  0.00000000000E+00  0.50000000000E+03  0.50000000000E+03  0.00000000000E+00 0.  1.
         11   -1    0    0    0    0 -0.00000000000E+00 -0.00000000000E+00 -0.50000000000E+03  0.50000000000E+03  0.00000000000E+00 0.  1.
        -11    1    1    2    0    0 -0.40444845589E+01  0.64885963381E+01  0.49752109522E+03  0.49757984277E+03  0.00000000000E+00 0.  1.
         11    1    1    2    0    0 -0.13014258140E+02  0.31880426529E+01 -0.45522961796E+03  0.45542676645E+03  0.00000000000E+00 0.  1.
        -15    1    1    2    0    0  0.10765687194E+02 -0.84297715378E+01 -0.29931907400E+02  0.32955088811E+02  0.17770000000E+01 0.  1.
         15    1    1    2    0    0  0.62930555048E+01 -0.12468674533E+01 -0.12359569866E+02  0.14038301974E+02  0.17770000000E+01 0. -1.
</event>
<event>
 6    1  0.9144256E-004  0.1000000E+04  0.7546771E-02  0.8684367E-01
        -11   -1    0    0    0    0  0.00000000000E+00  0.00000000000E+00  0.50000000000E+03  0.50000000000E+03  0.00000000000E+00 0. -1.
         11   -1    0    0    0    0 -0.00000000000E+00 -0.00000000000E+00 -0.50000000000E+03  0.50000000000E+03  0.00000000000E+00 0. -1.
        -11    1    1    2    0    0  0.20790683186E+01  0.16595180944E+01 -0.87364425742E+02  0.87404916398E+02  0.00000000000E+00 0. -1.
         11    1    1    2    0    0 -0.14255740801E+01 -0.46033351166E+01 -0.34888949980E+03  0.34892277946E+03  0.00000000000E+00 0. -1.
        -15    1    1    2    0    0 -0.84894415028E+02  0.95352247642E+02  0.41827742128E+03  0.43733084926E+03  0.17770000000E+01 0. -1.
         15    1    1    2    0    0  0.84240920789E+02 -0.92408430620E+02  0.17976504261E+02  0.12634145487E+03  0.17770000000E+01 0.  1.
</event>
<event>
 6    1  0.9144256E-004  0.5061945E+03  0.7546771E-02  0.9386055E-01
        -11   -1    0    0    0    0  0.00000000000E+00  0.00000000000E+00  0.50000000000E+03  0.50000000000E+03  0.00000000000E+00 0.  1.
         11   -1    0    0    0    0 -0.00000000000E+00 -0.00000000000E+00 -0.50000000000E+03  0.50000000000E+03  0.00000000000E+00 0. -1.
        -11    1    1    2    0    0 -0.69545678251E+00  0.16144455959E+02  0.46944192389E+03  0.46971996660E+03  0.00000000000E+00 0.  1.
         11    1    1    2    0    0 -0.11676025529E+02 -0.44289236103E+01 -0.49364759397E+03  0.49380552039E+03  0.00000000000E+00 0. -1.
        -15    1    1    2    0    0  0.95454429838E+01  0.38601902831E+01  0.51845080628E+01  0.11664193227E+02  0.17770000000E+01 0. -1.
         15    1    1    2    0    0  0.28260393282E+01 -0.15575722632E+02  0.19021162017E+02  0.24810319774E+02  0.17770000000E+01 0.  1.
</event>
<event>
 6    1  0.9144256E-004  0.5005935E+03  0.7546771E-02  0.9398483E-01
        -11   -1    0    0    0    0  0.00000000000E+00  0.00000000000E+00  0.50000000000E+03  0.50000000000E+03  0.00000000000E+00 0.  1.
         11   -1    0    0    0    0 -0.00000000000E+00 -0.00000000000E+00 -0.50000000000E+03  0.50000000000E+03  0.00000000000E+00 0.  1.
        -11    1    1    2    0    0 -0.51123998132E+01 -0.37422942914E+01  0.42838409557E+03  0.42843094512E+03  0.00000000000E+00 0.  1.
         11    1    1    2    0    0  0.30757439857E+01 -0.64476855642E+01 -0.49935537721E+03  0.49940647332E+03  0.00000000000E+00 0.  1.
        -15    1    1    2    0    0 -0.24666564077E+01  0.30414115514E+01  0.19137492456E+02  0.19614686451E+02  0.17770000000E+01 0. -1.
         15    1    1    2    0    0  0.45033122352E+01  0.71485683041E+01  0.51833789185E+02  0.52547895107E+02  0.17770000000E+01 0.  1.
</event>
<event>
 6    1  0.9144256E-004  0.5000683E+03  0.7546771E-02  0.9399657E-01
        -11   -1    0    0    0    0  0.00000000000E+00  0.00000000000E+00  0.50000000000E+03  0.50000000000E+03  0.00000000000E+00 0.  1.
         11   -1    0    0    0    0 -0.00000000000E+00 -0.00000000000E+00 -0.50000000000E+03  0.50000000000E+03  0.00000000000E+00 0.  1.
        -11    1    1    2    0    0 -0.69120552500E+00 -0.14981681413E+02  0.49970669473E+03  0.49993170463E+03  0.00000000000E+00 0.  1.
         11    1    1    2    0    0  0.57445999370E+00 -0.60142563810E+00 -0.51516291854E+02  0.51523004993E+02  0.00000000000E+00 0.  1.
        -15    1    1    2    0    0 -0.84397891275E+00  0.13327952049E+01 -0.25649733471E+02  0.25759565206E+02  0.17770000000E+01 0.  1.
         15    1    1    2    0    0  0.96072444405E+00  0.14250311846E+02 -0.42254066940E+03  0.42278572517E+03  0.17770000000E+01 0.  1.
</event>
<event>
 6    1  0.9144256E-004  0.5033178E+03  0.7546771E-02  0.9392416E-01
        -11   -1    0    0    0    0  0.00000000000E+00  0.00000000000E+00  0.50000000000E+03  0.50000000000E+03  0.00000000000E+00 0.  1.
         11   -1    0    0    0    0 -0.00000000000E+00 -0.00000000000E+00 -0.50000000000E+03  0.50000000000E+03  0.00000000000E+00 0.  1.
        -11    1    1    2    0    0  0.17970979189E+02 -0.20093918382E+02  0.25525712046E+03  0.25667668222E+03  0.00000000000E+00 0.  1.
         11    1    1    2    0    0  0.19750981254E+02  0.86423602937E+01 -0.49621407295E+03  0.49668218998E+03  0.00000000000E+00 0.  1.
        -15    1    1    2    0    0 -0.14944230472E+02  0.38447820608E+01  0.25612021058E+02  0.29954060245E+02  0.17770000000E+01 0. -1.
         15    1    1    2    0    0 -0.22777729971E+02  0.76067760275E+01  0.21534493143E+03  0.21668706755E+03  0.17770000000E+01 0.  1.
</event>
<event>
 6    1  0.9144256E-004  0.5007061E+03  0.7546771E-02  0.9398231E-01
        -11   -1    0    0    0    0  0.00000000000E+00  0.00000000000E+00  0.50000000000E+03  0.50000000000E+03  0.00000000000E+00 0. -1.
         11   -1    0    0    0    0 -0.00000000000E+00 -0.00000000000E+00 -0.50000000000E+03  0.50000000000E+03  0.00000000000E+00 0.  1.
        -11    1    1    2    0    0 -0.23586185615E+02  0.35573904573E+00  0.49873641577E+03  0.49929394861E+03  0.00000000000E+00 0. -1.
         11    1    1    2    0    0  0.13988518331E+01 -0.30781316131E-02 -0.90656850894E+02  0.90667642574E+02  0.00000000000E+00 0.  1.
        -15    1    1    2    0    0  0.19810253252E+02  0.10796135998E+02 -0.14965716762E+03  0.15135860807E+03  0.17770000000E+01 0. -1.
         15    1    1    2    0    0  0.23770805305E+01 -0.11148796912E+02 -0.25842239725E+03  0.25867980075E+03  0.17770000000E+01 0.  1.
</event>
<event>
 6    1  0.9144256E-004  0.4609052E+03  0.7546771E-02  0.9491804E-01
        -11   -1    0    0    0    0  0.00000000000E+00  0.00000000000E+00  0.50000000000E+03  0.50000000000E+03  0.00000000000E+00 0. -1.
         11   -1    0    0    0    0 -0.00000000000E+00 -0.00000000000E+00 -0.50000000000E+03  0.50000000000E+03  0.00000000000E+00 0.  1.
        -11    1    1    2    0    0  0.51287430004E+02  0.29906043729E+02  0.44696812367E+03  0.45089386279E+03  0.00000000000E+00 0. -1.
         11    1    1    2    0    0  0.58855835120E+01  0.61141784953E+01 -0.47370038474E+03  0.47377640061E+03  0.00000000000E+00 0.  1.
        -15    1    1    2    0    0 -0.49336777439E+02 -0.32513690897E+02  0.29593814089E+02  0.66107558306E+02  0.17770000000E+01 0. -1.
         15    1    1    2    0    0 -0.78362360770E+01 -0.35065313268E+01 -0.28615530143E+01  0.92221782922E+01  0.17770000000E+01 0.  1.
</event>
<event>
 6    1  0.9144256E-004  0.4952329E+03  0.7546771E-02  0.9410540E-01
        -11   -1    0    0    0    0  0.00000000000E+00  0.00000000000E+00  0.50000000000E+03  0.50000000000E+03  0.00000000000E+00 0.  1.
         11   -1    0    0    0    0 -0.00000000000E+00 -0.00000000000E+00 -0.50000000000E+03  0.50000000000E+03  0.00000000000E+00 0.  1.
        -11    1    1    2    0    0 -0.52841387530E+01 -0.54174947216E+01  0.49648937452E+03  0.49654704751E+03  0.00000000000E+00 0.  1.
         11    1    1    2    0    0  0.78521387503E+00  0.66668005029E+01 -0.49388748799E+03  0.49393310639E+03  0.00000000000E+00 0.  1.
        -15    1    1    2    0    0  0.19825505360E-01 -0.29651995120E+01  0.56633708605E+00  0.35030369526E+01  0.17770000000E+01 0. -1.
         15    1    1    2    0    0  0.44790993726E+01  0.17158937307E+01 -0.31682236161E+01  0.60168091516E+01  0.17770000000E+01 0.  1.
</event>
<event>
 6    1  0.9144256E-004  0.5007574E+03  0.7546771E-02  0.9398117E-01
        -11   -1    0    0    0    0  0.00000000000E+00  0.00000000000E+00  0.50000000000E+03  0.50000000000E+03  0.00000000000E+00 0. -1.
         11   -1    0    0    0    0 -0.00000000000E+00 -0.00000000000E+00 -0.50000000000E+03  0.50000000000E+03  0.00000000000E+00 0.  1.
        -11    1    1    2    0    0 -0.81918939574E+01 -0.76892615446E+01  0.37930829929E+03  0.37947466027E+03  0.00000000000E+00 0. -1.
         11    1    1    2    0    0  0.11912180702E+01  0.71172011720E+01 -0.49919043949E+03  0.49924259477E+03  0.00000000000E+00 0.  1.
        -15    1    1    2    0    0  0.87337212399E+01  0.27171493416E+01  0.11514014240E+03  0.11551653954E+03  0.17770000000E+01 0.  1.
         15    1    1    2    0    0 -0.17330453527E+01 -0.21450889689E+01  0.47419977984E+01  0.57662054246E+01  0.17770000000E+01 0. -1.
</event>
<event>
 6    1  0.9144256E-004  0.5002659E+03  0.7546771E-02  0.9399215E-01
        -11   -1    0    0    0    0  0.00000000000E+00  0.00000000000E+00  0.50000000000E+03  0.50000000000E+03  0.00000000000E+00 0. -1.
         11   -1    0    0    0    0 -0.00000000000E+00 -0.00000000000E+00 -0.50000000000E+03  0.50000000000E+03  0.00000000000E+00 0.  1.
        -11    1    1    2    0    0  0.50640152725E+01  0.25025363772E+02  0.49908145885E+03  0.49973414498E+03  0.00000000000E+00 0. -1.
         11    1    1    2    0    0 -0.15658796498E+01 -0.10682911011E+01 -0.35561793445E+02  0.35612278472E+02  0.00000000000E+00 0.  1.
        -15    1    1    2    0    0 -0.10995803637E+02 -0.14881189210E+02 -0.19903749721E+03  0.19990357805E+03  0.17770000000E+01 0. -1.
         15    1    1    2    0    0  0.74976680146E+01 -0.90758834612E+01 -0.26448216820E+03  0.26474999851E+03  0.17770000000E+01 0.  1.
</event>
<event>
 6    1  0.9144256E-004  0.5004425E+03  0.7546771E-02  0.9398820E-01
        -11   -1    0    0    0    0  0.00000000000E+00  0.00000000000E+00  0.50000000000E+03  0.50000000000E+03  0.00000000000E+00 0.  1.
         11   -1    0    0    0    0 -0.00000000000E+00 -0.00000000000E+00 -0.50000000000E+03  0.50000000000E+03  0.00000000000E+00 0. -1.
        -11    1    1    2    0    0 -0.37741762368E+01 -0.57816604788E+01  0.49950979149E+03  0.49955750800E+03  0.00000000000E+00 0.  1.
         11    1    1    2    0    0 -0.48858491639E+01  0.41576722977E+01 -0.42570395155E+03  0.42575228963E+03  0.00000000000E+00 0. -1.
        -15    1    1    2    0    0  0.10046650877E+01  0.28186482555E+01 -0.20051107503E+02  0.20350891161E+02  0.17770000000E+01 0.  1.
         15    1    1    2    0    0  0.76553603129E+01 -0.11946600745E+01 -0.53754732435E+02  0.54339311206E+02  0.17770000000E+01 0. -1.
</event>
<event>
 6    1  0.9144256E-004  0.5004635E+03  0.7546771E-02  0.9398773E-01
        -11   -1    0    0    0    0  0.00000000000E+00  0.00000000000E+00  0.50000000000E+03  0.50000000000E+03  0.00000000000E+00 0. -1.
         11   -1    0    0    0    0 -0.00000000000E+00 -0.00000000000E+00 -0.50000000000E+03  0.50000000000E+03  0.00000000000E+00 0. -1.
        -11    1    1    2    0    0 -0.12169741991E+02  0.87266937359E+01  0.40559763051E+03  0.40587398990E+03  0.00000000000E+00 0. -1.
         11    1    1    2    0    0  0.56619405343E+01 -0.14777097726E+02 -0.49928579053E+03  0.49953650599E+03  0.00000000000E+00 0. -1.
        -15    1    1    2    0    0  0.15694490386E+01 -0.17514095423E+01  0.37903819810E+02  0.38018257336E+02  0.17770000000E+01 0. -1.
         15    1    1    2    0    0  0.49383524183E+01  0.78018135326E+01  0.55784340214E+02  0.56571246770E+02  0.17770000000E+01 0.  1.
</event>
<event>
 6    1  0.9144256E-004  0.5006128E+03  0.7546771E-02  0.9398440E-01
        -11   -1    0    0    0    0  0.00000000000E+00  0.00000000000E+00  0.50000000000E+03  0.50000000000E+03  0.00000000000E+00 0.  1.
         11   -1    0    0    0    0 -0.00000000000E+00 -0.00000000000E+00 -0.50000000000E+03  0.50000000000E+03  0.00000000000E+00 0. -1.
        -11    1    1    2    0    0 -0.23139853038E+01 -0.94530947246E+01  0.37626134405E+03  0.37638718702E+03  0.00000000000E+00 0.  1.
         11    1    1    2    0    0  0.94559483680E+01 -0.19226457136E+00 -0.49929762144E+03  0.49938719117E+03  0.00000000000E+00 0. -1.
        -15    1    1    2    0    0  0.26440293422E+01  0.26840681510E+01  0.17289251074E+02  0.17784010929E+02  0.17770000000E+01 0. -1.
         15    1    1    2    0    0 -0.97859924064E+01  0.69612911450E+01  0.10574702632E+03  0.10644161088E+03  0.17770000000E+01 0.  1.
</event>
