<event>
 6   1  0.3798113E-04  0.4900682E+03  0.7546771E-02  0.9422311E-01
        -11   -1    0    0    0    0  0.00000000000E+00  0.00000000000E+00  0.50000000000E+03  0.50000000000E+03  0.00000000000E+00 0. -1.
         11   -1    0    0    0    0 -0.00000000000E+00 -0.00000000000E+00 -0.50000000000E+03  0.50000000000E+03  0.00000000000E+00 0. -1.
        -11    1    1    2    0    0  0.26899041417E+02  0.59692505537E+01  0.49080155473E+03  0.49157436519E+03  0.00000000000E+00 0. -1.
         11    1    1    2    0    0 -0.14947069286E+02 -0.14175389442E+02 -0.48823821366E+03  0.48867259983E+03  0.00000000000E+00 0. -1.
        -15    1    1    2    0    0 -0.46468252829E+01 -0.10390756640E+01  0.37042472419E+01  0.62890253676E+01  0.17770000000E+01 0.  1.
         15    1    1    2    0    0 -0.73051468483E+01  0.92452145520E+01 -0.62675883156E+01  0.13464009614E+02  0.17770000000E+01 0. -1.
</event>
<event>
 6   1  0.3798113E-04  0.5030375E+03  0.7546771E-02  0.9393039E-01
        -11   -1    0    0    0    0  0.00000000000E+00  0.00000000000E+00  0.50000000000E+03  0.50000000000E+03  0.00000000000E+00 0. -1.
         11   -1    0    0    0    0 -0.00000000000E+00 -0.00000000000E+00 -0.50000000000E+03  0.50000000000E+03  0.00000000000E+00 0.  1.
        -11    1    1    2    0    0  0.12742364903E+02 -0.66068853601E+01  0.49675513556E+03  0.49696245683E+03  0.00000000000E+00 0. -1.
         11    1    1    2    0    0  0.50065578225E+01  0.37565128957E+01 -0.45671686437E+03  0.45675975217E+03  0.00000000000E+00 0.  1.
        -15    1    1    2    0    0 -0.15659599453E+02  0.41770123506E+01 -0.19071668689E+02  0.25090969746E+02  0.17770000000E+01 0.  1.
         15    1    1    2    0    0 -0.20893232724E+01 -0.13266398863E+01 -0.20966602502E+02  0.21186821248E+02  0.17770000000E+01 0.  1.
</event>
<event>
 6   1  0.3798113E-04  0.5005230E+03  0.7546771E-02  0.9398640E-01
        -11   -1    0    0    0    0  0.00000000000E+00  0.00000000000E+00  0.50000000000E+03  0.50000000000E+03  0.00000000000E+00 0.  1.
         11   -1    0    0    0    0 -0.00000000000E+00 -0.00000000000E+00 -0.50000000000E+03  0.50000000000E+03  0.00000000000E+00 0. -1.
        -11    1    1    2    0    0  0.10653421105E+02  0.48251064846E+01  0.69730373813E+02  0.70704328481E+02  0.00000000000E+00 0.  1.
         11    1    1    2    0    0 -0.43015524372E+01 -0.62717007337E+01 -0.49941912771E+03  0.49947702921E+03  0.00000000000E+00 0. -1.
        -15    1    1    2    0    0 -0.75857899103E+01  0.32709272351E+00  0.36650981017E+03  0.36659275753E+03  0.17770000000E+01 0. -1.
         15    1    1    2    0    0  0.12339212421E+01  0.11195015256E+01  0.63178943733E+02  0.63225884774E+02  0.17770000000E+01 0. -1.
</event>
<event>
 6   1  0.3798113E-04  0.5049785E+03  0.7546771E-02  0.9388738E-01
        -11   -1    0    0    0    0  0.00000000000E+00  0.00000000000E+00  0.50000000000E+03  0.50000000000E+03  0.00000000000E+00 0.  1.
         11   -1    0    0    0    0 -0.00000000000E+00 -0.00000000000E+00 -0.50000000000E+03  0.50000000000E+03  0.00000000000E+00 0.  1.
        -11    1    1    2    0    0 -0.22155627350E+02  0.19342002268E+02  0.49414699772E+03  0.49502145431E+03  0.00000000000E+00 0.  1.
         11    1    1    2    0    0  0.30070724817E+02 -0.10748428682E+02 -0.46132749909E+03  0.46243144209E+03  0.00000000000E+00 0.  1.
        -15    1    1    2    0    0  0.66200951804E+01 -0.10219617762E+02 -0.16057013945E+02  0.20229969679E+02  0.17770000000E+01 0.  1.
         15    1    1    2    0    0 -0.14535192647E+02  0.16260441754E+01 -0.16762484678E+02  0.22317133923E+02  0.17770000000E+01 0. -1.
</event>
<event>
 6   1  0.3798113E-04  0.5032198E+03  0.7546771E-02  0.9392634E-01
        -11   -1    0    0    0    0  0.00000000000E+00  0.00000000000E+00  0.50000000000E+03  0.50000000000E+03  0.00000000000E+00 0.  1.
         11   -1    0    0    0    0 -0.00000000000E+00 -0.00000000000E+00 -0.50000000000E+03  0.50000000000E+03  0.00000000000E+00 0. -1.
        -11    1    1    2    0    0  0.41325132565E+01 -0.10068138170E+02  0.49666096083E+03  0.49678018789E+03  0.00000000000E+00 0.  1.
         11    1    1    2    0    0 -0.10312991592E+02  0.42208735102E+01 -0.48598381095E+03  0.48611154901E+03  0.00000000000E+00 0. -1.
        -15    1    1    2    0    0  0.45264242580E+01 -0.17633849052E+01 -0.56954372302E+01  0.76937492245E+01  0.17770000000E+01 0. -1.
         15    1    1    2    0    0  0.16540540775E+01  0.76106495648E+01 -0.49817126443E+01  0.94145138781E+01  0.17770000000E+01 0.  1.
</event>
<event>
 6   1  0.3798113E-04  0.5005406E+03  0.7546771E-02  0.9398601E-01
        -11   -1    0    0    0    0  0.00000000000E+00  0.00000000000E+00  0.50000000000E+03  0.50000000000E+03  0.00000000000E+00 0.  1.
         11   -1    0    0    0    0 -0.00000000000E+00 -0.00000000000E+00 -0.50000000000E+03  0.50000000000E+03  0.00000000000E+00 0. -1.
        -11    1    1    2    0    0  0.61291634573E+01 -0.58081745052E+01  0.49938803040E+03  0.49945941421E+03  0.00000000000E+00 0.  1.
         11    1    1    2    0    0 -0.59800249369E+01 -0.59607768145E+01 -0.42330597533E+03  0.42339017503E+03  0.00000000000E+00 0. -1.
        -15    1    1    2    0    0  0.16949866151E+01  0.58460601813E+01 -0.38201045276E+02  0.38723726428E+02  0.17770000000E+01 0.  1.
         15    1    1    2    0    0 -0.18441251355E+01  0.59228911384E+01 -0.37881009790E+02  0.38426684331E+02  0.17770000000E+01 0. -1.
</event>
<event>
 6   1  0.3798113E-04  0.5009663E+03  0.7546771E-02  0.9397650E-01
        -11   -1    0    0    0    0  0.00000000000E+00  0.00000000000E+00  0.50000000000E+03  0.50000000000E+03  0.00000000000E+00 0.  1.
         11   -1    0    0    0    0 -0.00000000000E+00 -0.00000000000E+00 -0.50000000000E+03  0.50000000000E+03  0.00000000000E+00 0.  1.
        -11    1    1    2    0    0  0.15274576162E+02 -0.13382139798E+02  0.21275190195E+03  0.21371889511E+03  0.00000000000E+00 0.  1.
         11    1    1    2    0    0 -0.49550789455E+01  0.59914652901E+01 -0.49897308803E+03  0.49903365922E+03  0.00000000000E+00 0.  1.
        -15    1    1    2    0    0 -0.11327063058E+02  0.13295272373E+02  0.23306998710E+03  0.23373027882E+03  0.17770000000E+01 0.  1.
         15    1    1    2    0    0  0.10075658419E+01 -0.59045978652E+01  0.53151198979E+02  0.53517166842E+02  0.17770000000E+01 0. -1.
</event>
<event>
 6   1  0.3798113E-04  0.4899435E+03  0.7546771E-02  0.9422597E-01
        -11   -1    0    0    0    0  0.00000000000E+00  0.00000000000E+00  0.50000000000E+03  0.50000000000E+03  0.00000000000E+00 0. -1.
         11   -1    0    0    0    0 -0.00000000000E+00 -0.00000000000E+00 -0.50000000000E+03  0.50000000000E+03  0.00000000000E+00 0.  1.
        -11    1    1    2    0    0  0.29677195299E+01  0.66093833174E+01  0.48901495959E+03  0.48906862710E+03  0.00000000000E+00 0. -1.
         11    1    1    2    0    0 -0.68885008769E+01 -0.29794033144E+01 -0.49077722129E+03  0.49083460476E+03  0.00000000000E+00 0.  1.
        -15    1    1    2    0    0  0.84104093573E+01 -0.42789499902E-01 -0.58476436771E+01  0.10396609162E+02  0.17770000000E+01 0. -1.
         15    1    1    2    0    0 -0.44896280103E+01 -0.35871905030E+01  0.76099053777E+01  0.97001589798E+01  0.17770000000E+01 0.  1.
</event>
<event>
 6   1  0.3798113E-04  0.5046422E+03  0.7546771E-02  0.9389482E-01
        -11   -1    0    0    0    0  0.00000000000E+00  0.00000000000E+00  0.50000000000E+03  0.50000000000E+03  0.00000000000E+00 0. -1.
         11   -1    0    0    0    0 -0.00000000000E+00 -0.00000000000E+00 -0.50000000000E+03  0.50000000000E+03  0.00000000000E+00 0.  1.
        -11    1    1    2    0    0  0.21475387845E+01  0.79088749163E+01  0.48701391893E+03  0.48708286714E+03  0.00000000000E+00 0. -1.
         11    1    1    2    0    0 -0.71592860482E+01  0.42624197185E+01 -0.49528776153E+03  0.49535784068E+03  0.00000000000E+00 0.  1.
        -15    1    1    2    0    0  0.33255153897E+01 -0.49707886579E+01 -0.10936652797E+00  0.62399905870E+01  0.17770000000E+01 0. -1.
         15    1    1    2    0    0  0.16862318740E+01 -0.72005059769E+01  0.83832091328E+01  0.11319301596E+02  0.17770000000E+01 0.  1.
</event>
<event>
 6   1  0.3798113E-04  0.4898369E+03  0.7546771E-02  0.9422842E-01
        -11   -1    0    0    0    0  0.00000000000E+00  0.00000000000E+00  0.50000000000E+03  0.50000000000E+03  0.00000000000E+00 0. -1.
         11   -1    0    0    0    0 -0.00000000000E+00 -0.00000000000E+00 -0.50000000000E+03  0.50000000000E+03  0.00000000000E+00 0. -1.
        -11    1    1    2    0    0 -0.93876402035E+01 -0.23355808722E+01  0.48766063000E+03  0.48775657123E+03  0.00000000000E+00 0. -1.
         11    1    1    2    0    0  0.64876327672E+01  0.10230965765E+02 -0.49181302854E+03  0.49196221103E+03  0.00000000000E+00 0. -1.
        -15    1    1    2    0    0  0.91770006493E+00  0.56019467101E+01  0.13699809197E+00  0.59498300673E+01  0.17770000000E+01 0. -1.
         15    1    1    2    0    0  0.19823073714E+01 -0.13497331603E+02  0.40154004519E+01  0.14331387675E+02  0.17770000000E+01 0.  1.
</event>
<event>
 6   1  0.3798113E-04  0.5002000E+03  0.7546771E-02  0.9399362E-01
        -11   -1    0    0    0    0  0.00000000000E+00  0.00000000000E+00  0.50000000000E+03  0.50000000000E+03  0.00000000000E+00 0. -1.
         11   -1    0    0    0    0 -0.00000000000E+00 -0.00000000000E+00 -0.50000000000E+03  0.50000000000E+03  0.00000000000E+00 0.  1.
        -11    1    1    2    0    0 -0.94227155658E+01 -0.17668768455E+01  0.49970807948E+03  0.49980003414E+03  0.00000000000E+00 0. -1.
         11    1    1    2    0    0  0.40647774507E+01 -0.14812174994E+01 -0.25562632953E+03  0.25566293586E+03  0.00000000000E+00 0.  1.
        -15    1    1    2    0    0  0.86839442402E+01  0.64117484133E+00 -0.20408671312E+03  0.20428011698E+03  0.17770000000E+01 0.  1.
         15    1    1    2    0    0 -0.33260061251E+01  0.26069195035E+01 -0.39995036831E+02  0.40256913024E+02  0.17770000000E+01 0. -1.
</event>
<event>
 6   1  0.3798113E-04  0.5023784E+03  0.7546771E-02  0.9394504E-01
        -11   -1    0    0    0    0  0.00000000000E+00  0.00000000000E+00  0.50000000000E+03  0.50000000000E+03  0.00000000000E+00 0. -1.
         11   -1    0    0    0    0 -0.00000000000E+00 -0.00000000000E+00 -0.50000000000E+03  0.50000000000E+03  0.00000000000E+00 0. -1.
        -11    1    1    2    0    0  0.12105471202E+00 -0.19613538745E+02  0.33205895535E+03  0.33263772394E+03  0.00000000000E+00 0. -1.
         11    1    1    2    0    0 -0.16867380993E+02 -0.50039508450E+01 -0.49731047463E+03  0.49762159946E+03  0.00000000000E+00 0. -1.
        -15    1    1    2    0    0  0.10886669775E+02  0.37695271113E+01  0.10584758785E+03  0.10648755089E+03  0.17770000000E+01 0. -1.
         15    1    1    2    0    0  0.58596565068E+01  0.20847962479E+02  0.59403931433E+02  0.63253125714E+02  0.17770000000E+01 0.  1.
</event>
<event>
 6   1  0.3798113E-04  0.5007565E+03  0.7546771E-02  0.9398119E-01
        -11   -1    0    0    0    0  0.00000000000E+00  0.00000000000E+00  0.50000000000E+03  0.50000000000E+03  0.00000000000E+00 0.  1.
         11   -1    0    0    0    0 -0.00000000000E+00 -0.00000000000E+00 -0.50000000000E+03  0.50000000000E+03  0.00000000000E+00 0. -1.
        -11    1    1    2    0    0  0.29395401672E+01 -0.71741311377E+01  0.47278921109E+03  0.47285277538E+03  0.00000000000E+00 0.  1.
         11    1    1    2    0    0 -0.81024329343E+01  0.11228258091E+01 -0.49917647994E+03  0.49924349598E+03  0.00000000000E+00 0. -1.
        -15    1    1    2    0    0  0.14214170856E+01  0.13213460588E+01  0.10318957608E+02  0.10649178234E+02  0.17770000000E+01 0.  1.
         15    1    1    2    0    0  0.37414756814E+01  0.47299592697E+01  0.16068311234E+02  0.17254550411E+02  0.17770000000E+01 0. -1.
</event>
<event>
 6   1  0.3798113E-04  0.5001973E+03  0.7546771E-02  0.9399368E-01
        -11   -1    0    0    0    0  0.00000000000E+00  0.00000000000E+00  0.50000000000E+03  0.50000000000E+03  0.00000000000E+00 0.  1.
         11   -1    0    0    0    0 -0.00000000000E+00 -0.00000000000E+00 -0.50000000000E+03  0.50000000000E+03  0.00000000000E+00 0. -1.
        -11    1    1    2    0    0  0.34823489766E+01  0.11460413459E+01  0.19001228157E+02  0.19351662374E+02  0.00000000000E+00 0.  1.
         11    1    1    2    0    0  0.12575744816E+01 -0.79719011380E+01 -0.49973756599E+03  0.49980272864E+03  0.00000000000E+00 0. -1.
        -15    1    1    2    0    0 -0.49580910870E+01  0.60319813763E+01  0.42367813115E+03  0.42375380118E+03  0.17770000000E+01 0.  1.
         15    1    1    2    0    0  0.21816762879E+00  0.79387841576E+00  0.57058206680E+02  0.57091807806E+02  0.17770000000E+01 0.  1.
</event>
<event>
 6   1  0.3798113E-04  0.4878305E+03  0.7546771E-02  0.9427459E-01
        -11   -1    0    0    0    0  0.00000000000E+00  0.00000000000E+00  0.50000000000E+03  0.50000000000E+03  0.00000000000E+00 0.  1.
         11   -1    0    0    0    0 -0.00000000000E+00 -0.00000000000E+00 -0.50000000000E+03  0.50000000000E+03  0.00000000000E+00 0. -1.
        -11    1    1    2    0    0  0.11154036890E+02 -0.83672037756E+01  0.48591708239E+03  0.48611709864E+03  0.00000000000E+00 0.  1.
         11    1    1    2    0    0  0.59639400094E+01 -0.66381166304E+01 -0.48973555355E+03  0.48981684902E+03  0.00000000000E+00 0. -1.
        -15    1    1    2    0    0 -0.85031869452E+01  0.11191592712E+02  0.25536705204E+01  0.14395655518E+02  0.17770000000E+01 0. -1.
         15    1    1    2    0    0 -0.86147899538E+01  0.38137276937E+01  0.12648006461E+01  0.96703968142E+01  0.17770000000E+01 0.  1.
</event>
<event>
 6   1  0.3798113E-04  0.5090522E+03  0.7546771E-02  0.9379779E-01
        -11   -1    0    0    0    0  0.00000000000E+00  0.00000000000E+00  0.50000000000E+03  0.50000000000E+03  0.00000000000E+00 0.  1.
         11   -1    0    0    0    0 -0.00000000000E+00 -0.00000000000E+00 -0.50000000000E+03  0.50000000000E+03  0.00000000000E+00 0. -1.
        -11    1    1    2    0    0 -0.16419424839E+02 -0.15160122794E+02  0.46800162038E+03  0.46853489040E+03  0.00000000000E+00 0.  1.
         11    1    1    2    0    0  0.18896518265E+02 -0.17388639596E+02 -0.49027568982E+03  0.49094775202E+03  0.00000000000E+00 0. -1.
        -15    1    1    2    0    0  0.25939583856E+01  0.97105414986E+01  0.48953089593E+01  0.11320115508E+02  0.17770000000E+01 0. -1.
         15    1    1    2    0    0 -0.50710518121E+01  0.22838220892E+02  0.17378760475E+02  0.29197242073E+02  0.17770000000E+01 0.  1.
</event>
<event>
 6   1  0.3798113E-04  0.5039075E+03  0.7546771E-02  0.9391108E-01
        -11   -1    0    0    0    0  0.00000000000E+00  0.00000000000E+00  0.50000000000E+03  0.50000000000E+03  0.00000000000E+00 0.  1.
         11   -1    0    0    0    0 -0.00000000000E+00 -0.00000000000E+00 -0.50000000000E+03  0.50000000000E+03  0.00000000000E+00 0.  1.
        -11    1    1    2    0    0 -0.15396207097E+02 -0.29859508379E+01  0.46482470746E+03  0.46508920409E+03  0.00000000000E+00 0.  1.
         11    1    1    2    0    0  0.51288600400E+01 -0.79197007169E+01 -0.49600271877E+03  0.49609245498E+03  0.00000000000E+00 0.  1.
        -15    1    1    2    0    0  0.78557870631E+01 -0.19938309563E+01  0.55843151757E+01  0.10001552742E+02  0.17770000000E+01 0. -1.
         15    1    1    2    0    0  0.24115599936E+01  0.12899482511E+02  0.25593696136E+02  0.28816788189E+02  0.17770000000E+01 0.  1.
</event>
<event>
 6   1  0.3798113E-04  0.5000364E+03  0.7546771E-02  0.9399728E-01
        -11   -1    0    0    0    0  0.00000000000E+00  0.00000000000E+00  0.50000000000E+03  0.50000000000E+03  0.00000000000E+00 0. -1.
         11   -1    0    0    0    0 -0.00000000000E+00 -0.00000000000E+00 -0.50000000000E+03  0.50000000000E+03  0.00000000000E+00 0.  1.
        -11    1    1    2    0    0 -0.76709614230E+00 -0.12395347526E+02  0.49980931536E+03  0.49996358347E+03  0.00000000000E+00 0. -1.
         11    1    1    2    0    0  0.19037378199E+01  0.22012882342E+01 -0.17859257908E+03  0.17861629039E+03  0.00000000000E+00 0.  1.
        -15    1    1    2    0    0 -0.18161131726E+00  0.85919648243E+01 -0.26311419191E+03  0.26326049942E+03  0.17770000000E+01 0.  1.
         15    1    1    2    0    0 -0.95503036036E+00  0.16020944677E+01 -0.58102544364E+02  0.58159626721E+02  0.17770000000E+01 0.  1.
</event>
<event>
 6   1  0.3798113E-04  0.5003086E+03  0.7546771E-02  0.9399119E-01
        -11   -1    0    0    0    0  0.00000000000E+00  0.00000000000E+00  0.50000000000E+03  0.50000000000E+03  0.00000000000E+00 0.  1.
         11   -1    0    0    0    0 -0.00000000000E+00 -0.00000000000E+00 -0.50000000000E+03  0.50000000000E+03  0.00000000000E+00 0.  1.
        -11    1    1    2    0    0 -0.64028950415E+01  0.18652907556E+01  0.38920433695E+03  0.38926147031E+03  0.00000000000E+00 0.  1.
         11    1    1    2    0    0  0.33241270946E+01  0.76657197480E+01 -0.49962152021E+03  0.49969138130E+03  0.00000000000E+00 0.  1.
        -15    1    1    2    0    0  0.43263385607E+00 -0.55058335800E+01  0.37150388008E+02  0.37600670654E+02  0.17770000000E+01 0. -1.
         15    1    1    2    0    0  0.26461340908E+01 -0.40251769236E+01  0.73266795261E+02  0.73446477735E+02  0.17770000000E+01 0.  1.
</event>
<event>
 6   1  0.3798113E-04  0.5002392E+03  0.7546771E-02  0.9399275E-01
        -11   -1    0    0    0    0  0.00000000000E+00  0.00000000000E+00  0.50000000000E+03  0.50000000000E+03  0.00000000000E+00 0. -1.
         11   -1    0    0    0    0 -0.00000000000E+00 -0.00000000000E+00 -0.50000000000E+03  0.50000000000E+03  0.00000000000E+00 0.  1.
        -11    1    1    2    0    0  0.71297475225E+02  0.15500521378E+02  0.44662660554E+03  0.45254714772E+03  0.00000000000E+00 0. -1.
         11    1    1    2    0    0 -0.79794879533E+02 -0.21833072045E+02 -0.49286606754E+03  0.49976080915E+03  0.00000000000E+00 0.  1.
        -15    1    1    2    0    0  0.57966500180E+01  0.57687157724E+01  0.34708842647E+02  0.35703511312E+02  0.17770000000E+01 0.  1.
         15    1    1    2    0    0  0.27007542904E+01  0.56383489484E+00  0.11530619347E+02  0.11988531814E+02  0.17770000000E+01 0.  1.
</event>
<event>
 6   1  0.3798113E-04  0.5001456E+03  0.7546771E-02  0.9399484E-01
        -11   -1    0    0    0    0  0.00000000000E+00  0.00000000000E+00  0.50000000000E+03  0.50000000000E+03  0.00000000000E+00 0.  1.
         11   -1    0    0    0    0 -0.00000000000E+00 -0.00000000000E+00 -0.50000000000E+03  0.50000000000E+03  0.00000000000E+00 0. -1.
        -11    1    1    2    0    0 -0.72130106400E+01  0.16909030364E+02  0.49951622809E+03  0.49985438376E+03  0.00000000000E+00 0.  1.
         11    1    1    2    0    0 -0.30985218483E+01 -0.23805800291E+01 -0.94061126450E+02  0.94142251450E+02  0.00000000000E+00 0. -1.
        -15    1    1    2    0    0  0.39581560570E+01 -0.13389040480E+02 -0.23940953330E+03  0.23982288416E+03  0.17770000000E+01 0.  1.
         15    1    1    2    0    0  0.63533764313E+01 -0.11394098551E+01 -0.16604556835E+03  0.16618048063E+03  0.17770000000E+01 0. -1.
</event>
<event>
 6   1  0.3798113E-04  0.5025496E+03  0.7546771E-02  0.9394123E-01
        -11   -1    0    0    0    0  0.00000000000E+00  0.00000000000E+00  0.50000000000E+03  0.50000000000E+03  0.00000000000E+00 0. -1.
         11   -1    0    0    0    0 -0.00000000000E+00 -0.00000000000E+00 -0.50000000000E+03  0.50000000000E+03  0.00000000000E+00 0.  1.
        -11    1    1    2    0    0 -0.75479494055E+01  0.21455915544E+02  0.49693019856E+03  0.49745044988E+03  0.00000000000E+00 0. -1.
         11    1    1    2    0    0 -0.17133396584E+02 -0.62107607275E+01 -0.41181207054E+03  0.41221512378E+03  0.00000000000E+00 0.  1.
        -15    1    1    2    0    0  0.11692363121E+02 -0.11173035897E+02 -0.40275087008E+02  0.43437178189E+02  0.17770000000E+01 0.  1.
         15    1    1    2    0    0  0.12988982868E+02 -0.40721189201E+01 -0.44843041004E+02  0.46897248149E+02  0.17770000000E+01 0. -1.
</event>
<event>
 6   1  0.3798113E-04  0.5087059E+03  0.7546771E-02  0.9380538E-01
        -11   -1    0    0    0    0  0.00000000000E+00  0.00000000000E+00  0.50000000000E+03  0.50000000000E+03  0.00000000000E+00 0.  1.
         11   -1    0    0    0    0 -0.00000000000E+00 -0.00000000000E+00 -0.50000000000E+03  0.50000000000E+03  0.00000000000E+00 0. -1.
        -11    1    1    2    0    0  0.13323924725E+02  0.17968214141E+02  0.49078461456E+03  0.49129412939E+03  0.00000000000E+00 0.  1.
         11    1    1    2    0    0 -0.28705494959E+02  0.18127556594E+02 -0.44787015959E+03  0.44915508858E+03  0.00000000000E+00 0. -1.
        -15    1    1    2    0    0  0.51454851245E+01 -0.16311442332E+02 -0.10395036016E+02  0.20093622643E+02  0.17770000000E+01 0. -1.
         15    1    1    2    0    0  0.10236085109E+02 -0.19784328403E+02 -0.32519418951E+02  0.39457159383E+02  0.17770000000E+01 0.  1.
</event>
<event>
 6   1  0.3798113E-04  0.5002370E+03  0.7546771E-02  0.9399279E-01
        -11   -1    0    0    0    0  0.00000000000E+00  0.00000000000E+00  0.50000000000E+03  0.50000000000E+03  0.00000000000E+00 0.  1.
         11   -1    0    0    0    0 -0.00000000000E+00 -0.00000000000E+00 -0.50000000000E+03  0.50000000000E+03  0.00000000000E+00 0. -1.
        -11    1    1    2    0    0 -0.40589870094E+01  0.36486770234E+02  0.49841273463E+03  0.49976295763E+03  0.00000000000E+00 0.  1.
         11    1    1    2    0    0 -0.18588198124E+01 -0.31485701330E+00 -0.49633623608E+02  0.49669416531E+02  0.00000000000E+00 0. -1.
        -15    1    1    2    0    0  0.38666514202E+01 -0.54047851796E+01 -0.37161620158E+02  0.37792941640E+02  0.17770000000E+01 0.  1.
         15    1    1    2    0    0  0.20511554016E+01 -0.30767128042E+02 -0.41161749086E+03  0.41277468420E+03  0.17770000000E+01 0. -1.
</event>
<event>
 6   1  0.3798113E-04  0.5054231E+03  0.7546771E-02  0.9387756E-01
        -11   -1    0    0    0    0  0.00000000000E+00  0.00000000000E+00  0.50000000000E+03  0.50000000000E+03  0.00000000000E+00 0.  1.
         11   -1    0    0    0    0 -0.00000000000E+00 -0.00000000000E+00 -0.50000000000E+03  0.50000000000E+03  0.00000000000E+00 0. -1.
        -11    1    1    2    0    0 -0.51480006729E+02 -0.43448178470E+01  0.49187117859E+03  0.49457691501E+03  0.00000000000E+00 0.  1.
         11    1    1    2    0    0  0.33184334105E+01 -0.97145017037E+01 -0.38956557944E+03  0.38970081374E+03  0.00000000000E+00 0. -1.
        -15    1    1    2    0    0  0.22963573592E+02  0.74051305781E+01 -0.70664913123E+02  0.74691695300E+02  0.17770000000E+01 0. -1.
         15    1    1    2    0    0  0.25197999726E+02  0.66541889726E+01 -0.31640686028E+02  0.41030575946E+02  0.17770000000E+01 0.  1.
</event>
<event>
 6   1  0.3798113E-04  0.5012077E+03  0.7546771E-02  0.9397112E-01
        -11   -1    0    0    0    0  0.00000000000E+00  0.00000000000E+00  0.50000000000E+03  0.50000000000E+03  0.00000000000E+00 0.  1.
         11   -1    0    0    0    0 -0.00000000000E+00 -0.00000000000E+00 -0.50000000000E+03  0.50000000000E+03  0.00000000000E+00 0. -1.
        -11    1    1    2    0    0 -0.70672427196E+01  0.17439193564E+02  0.26907507302E+03  0.26973221223E+03  0.00000000000E+00 0.  1.
         11    1    1    2    0    0  0.82389629393E+01 -0.14167670354E+01 -0.49872227220E+03  0.49879233407E+03  0.00000000000E+00 0. -1.
        -15    1    1    2    0    0  0.32860227629E+01 -0.55975849868E+00  0.15702517045E+03  0.15707059928E+03  0.17770000000E+01 0.  1.
         15    1    1    2    0    0 -0.44577429825E+01 -0.15462668030E+02  0.72622028731E+02  0.74404854419E+02  0.17770000000E+01 0. -1.
</event>
<event>
 6   1  0.3798113E-04  0.5025120E+03  0.7546771E-02  0.9394206E-01
        -11   -1    0    0    0    0  0.00000000000E+00  0.00000000000E+00  0.50000000000E+03  0.50000000000E+03  0.00000000000E+00 0.  1.
         11   -1    0    0    0    0 -0.00000000000E+00 -0.00000000000E+00 -0.50000000000E+03  0.50000000000E+03  0.00000000000E+00 0. -1.
        -11    1    1    2    0    0 -0.24642685437E+02  0.94569136711E+01  0.36149455127E+03  0.36245690193E+03  0.00000000000E+00 0.  1.
         11    1    1    2    0    0 -0.72234829218E+01 -0.68370558829E+01 -0.49738860895E+03  0.49748804243E+03  0.00000000000E+00 0. -1.
        -15    1    1    2    0    0  0.72236949051E+01 -0.47971281802E+01  0.28970742423E+02  0.30292835001E+02  0.17770000000E+01 0.  1.
         15    1    1    2    0    0  0.24642473453E+02  0.21772703920E+01  0.10692331526E+03  0.10976222064E+03  0.17770000000E+01 0. -1.
</event>
<event>
 6   1  0.3798113E-04  0.5161095E+03  0.7546771E-02  0.9364468E-01
        -11   -1    0    0    0    0  0.00000000000E+00  0.00000000000E+00  0.50000000000E+03  0.50000000000E+03  0.00000000000E+00 0. -1.
         11   -1    0    0    0    0 -0.00000000000E+00 -0.00000000000E+00 -0.50000000000E+03  0.50000000000E+03  0.00000000000E+00 0. -1.
        -11    1    1    2    0    0  0.49932910962E+02 -0.39582897408E+02 -0.53118538968E+02  0.82955895188E+02  0.00000000000E+00 0. -1.
         11    1    1    2    0    0 -0.38797639167E+02  0.33940783467E+02 -0.43007532099E+03  0.43315357013E+03  0.00000000000E+00 0. -1.
        -15    1    1    2    0    0 -0.77076279990E+01 -0.80608939905E+01  0.17125512066E+03  0.17162709467E+03  0.17770000000E+01 0.  1.
         15    1    1    2    0    0 -0.34276437967E+01  0.13703007931E+02  0.31193873930E+03  0.31226344002E+03  0.17770000000E+01 0. -1.
</event>
<event>
 6   1  0.3798113E-04  0.5028956E+03  0.7546771E-02  0.9393354E-01
        -11   -1    0    0    0    0  0.00000000000E+00  0.00000000000E+00  0.50000000000E+03  0.50000000000E+03  0.00000000000E+00 0. -1.
         11   -1    0    0    0    0 -0.00000000000E+00 -0.00000000000E+00 -0.50000000000E+03  0.50000000000E+03  0.00000000000E+00 0.  1.
        -11    1    1    2    0    0 -0.85433583275E+01 -0.13539237461E+02  0.47701260198E+03  0.47728117747E+03  0.00000000000E+00 0. -1.
         11    1    1    2    0    0  0.42263038913E+01  0.63756293053E+01 -0.49704557351E+03  0.49710442810E+03  0.00000000000E+00 0.  1.
        -15    1    1    2    0    0  0.60173388842E+01  0.76624484048E+01  0.20760404130E+02  0.23001599758E+02  0.17770000000E+01 0.  1.
         15    1    1    2    0    0 -0.17002844481E+01 -0.49884024920E+00 -0.72743260287E+00  0.26127946705E+01  0.17770000000E+01 0. -1.
</event>
<event>
 6   1  0.3798113E-04  0.4861139E+03  0.7546771E-02  0.9431428E-01
        -11   -1    0    0    0    0  0.00000000000E+00  0.00000000000E+00  0.50000000000E+03  0.50000000000E+03  0.00000000000E+00 0. -1.
         11   -1    0    0    0    0 -0.00000000000E+00 -0.00000000000E+00 -0.50000000000E+03  0.50000000000E+03  0.00000000000E+00 0. -1.
        -11    1    1    2    0    0  0.73448812657E+01 -0.11619943953E+02  0.48904448966E+03  0.48923765518E+03  0.00000000000E+00 0. -1.
         11    1    1    2    0    0 -0.41941465331E+01 -0.72876114888E+01 -0.48312392139E+03  0.48319708564E+03  0.00000000000E+00 0. -1.
        -15    1    1    2    0    0 -0.80208311273E+01  0.17626807490E+02  0.19258121036E+00  0.19448210477E+02  0.17770000000E+01 0.  1.
         15    1    1    2    0    0  0.48700963948E+01  0.12807479517E+01 -0.61131494770E+01  0.81170487086E+01  0.17770000000E+01 0. -1.
</event>
<event>
 6   1  0.3798113E-04  0.4878173E+03  0.7546771E-02  0.9427490E-01
        -11   -1    0    0    0    0  0.00000000000E+00  0.00000000000E+00  0.50000000000E+03  0.50000000000E+03  0.00000000000E+00 0.  1.
         11   -1    0    0    0    0 -0.00000000000E+00 -0.00000000000E+00 -0.50000000000E+03  0.50000000000E+03  0.00000000000E+00 0. -1.
        -11    1    1    2    0    0  0.14861747768E+02  0.68419389577E+01  0.48372857434E+03  0.48400518314E+03  0.00000000000E+00 0.  1.
         11    1    1    2    0    0 -0.66773075543E+00  0.66976261742E+01 -0.49181412600E+03  0.49186018195E+03  0.00000000000E+00 0. -1.
        -15    1    1    2    0    0 -0.67493906370E+01 -0.28439395408E-01  0.94489969756E+00  0.70431276581E+01  0.17770000000E+01 0. -1.
         15    1    1    2    0    0 -0.74446263753E+01 -0.13511125736E+02  0.71406519628E+01  0.17091507247E+02  0.17770000000E+01 0.  1.
</event>
<event>
 6   1  0.3798113E-04  0.5004144E+03  0.7546771E-02  0.9398883E-01
        -11   -1    0    0    0    0  0.00000000000E+00  0.00000000000E+00  0.50000000000E+03  0.50000000000E+03  0.00000000000E+00 0. -1.
         11   -1    0    0    0    0 -0.00000000000E+00 -0.00000000000E+00 -0.50000000000E+03  0.50000000000E+03  0.00000000000E+00 0. -1.
        -11    1    1    2    0    0 -0.11030520780E+02 -0.29335251753E+01  0.49945517281E+03  0.49958557586E+03  0.00000000000E+00 0. -1.
         11    1    1    2    0    0 -0.42024476795E+01  0.46714958571E+01 -0.25126707853E+03  0.25134563491E+03  0.00000000000E+00 0. -1.
        -15    1    1    2    0    0  0.11987036363E+02 -0.70591109855E+00 -0.87847301930E+02  0.88681979774E+02  0.17770000000E+01 0.  1.
         15    1    1    2    0    0  0.32459320962E+01 -0.10320595833E+01 -0.16034079236E+03  0.16038680945E+03  0.17770000000E+01 0. -1.
</event>
<event>
 6   1  0.3798113E-04  0.5049859E+03  0.7546771E-02  0.9388722E-01
        -11   -1    0    0    0    0  0.00000000000E+00  0.00000000000E+00  0.50000000000E+03  0.50000000000E+03  0.00000000000E+00 0. -1.
         11   -1    0    0    0    0 -0.00000000000E+00 -0.00000000000E+00 -0.50000000000E+03  0.50000000000E+03  0.00000000000E+00 0.  1.
        -11    1    1    2    0    0 -0.15689731845E+00 -0.97886057920E+01  0.48197037021E+03  0.48206978663E+03  0.00000000000E+00 0. -1.
         11    1    1    2    0    0  0.13275881757E+02  0.15212597674E+01 -0.49483368732E+03  0.49501408199E+03  0.00000000000E+00 0.  1.
        -15    1    1    2    0    0  0.83821672592E+00  0.25885077246E+01  0.38719518494E+00  0.32727096772E+01  0.17770000000E+01 0. -1.
         15    1    1    2    0    0 -0.13957201165E+02  0.56788383000E+01  0.12476121919E+02  0.19643421696E+02  0.17770000000E+01 0.  1.
</event>
<event>
 6   1  0.3798113E-04  0.5003312E+03  0.7546771E-02  0.9399069E-01
        -11   -1    0    0    0    0  0.00000000000E+00  0.00000000000E+00  0.50000000000E+03  0.50000000000E+03  0.00000000000E+00 0. -1.
         11   -1    0    0    0    0 -0.00000000000E+00 -0.00000000000E+00 -0.50000000000E+03  0.50000000000E+03  0.00000000000E+00 0.  1.
        -11    1    1    2    0    0 -0.12773725520E+02  0.79222505189E+01  0.16534949008E+03  0.16603127412E+03  0.00000000000E+00 0. -1.
         11    1    1    2    0    0  0.88787708074E+01 -0.10017699922E+02 -0.49948950658E+03  0.49966884440E+03  0.00000000000E+00 0.  1.
        -15    1    1    2    0    0  0.61614608884E+01  0.30962677140E+01  0.25934759041E+03  0.25944533307E+03  0.17770000000E+01 0. -1.
         15    1    1    2    0    0 -0.22665061758E+01 -0.10008183113E+01  0.74792426092E+02  0.74854548407E+02  0.17770000000E+01 0. -1.
</event>
<event>
 6   1  0.3798113E-04  0.5013074E+03  0.7546771E-02  0.9396889E-01
        -11   -1    0    0    0    0  0.00000000000E+00  0.00000000000E+00  0.50000000000E+03  0.50000000000E+03  0.00000000000E+00 0. -1.
         11   -1    0    0    0    0 -0.00000000000E+00 -0.00000000000E+00 -0.50000000000E+03  0.50000000000E+03  0.00000000000E+00 0.  1.
        -11    1    1    2    0    0  0.19103831791E+02  0.16551600412E+02  0.49805156115E+03  0.49869256003E+03  0.00000000000E+00 0. -1.
         11    1    1    2    0    0  0.42089505656E+01  0.88051576498E+01 -0.29223016098E+03  0.29239307970E+03  0.00000000000E+00 0.  1.
        -15    1    1    2    0    0 -0.95991458978E+01 -0.53421123379E+01 -0.51629532810E+02  0.52815226530E+02  0.17770000000E+01 0.  1.
         15    1    1    2    0    0 -0.13713636459E+02 -0.20014645724E+02 -0.15419186736E+03  0.15609913375E+03  0.17770000000E+01 0. -1.
</event>
<event>
 6   1  0.3798113E-04  0.5005455E+03  0.7546771E-02  0.9398590E-01
        -11   -1    0    0    0    0  0.00000000000E+00  0.00000000000E+00  0.50000000000E+03  0.50000000000E+03  0.00000000000E+00 0. -1.
         11   -1    0    0    0    0 -0.00000000000E+00 -0.00000000000E+00 -0.50000000000E+03  0.50000000000E+03  0.00000000000E+00 0.  1.
        -11    1    1    2    0    0  0.76001825838E+01  0.68847131213E+01  0.49934916399E+03  0.49945445201E+03  0.00000000000E+00 0. -1.
         11    1    1    2    0    0 -0.51232153411E+01 -0.54386914035E+01 -0.43559197455E+03  0.43565605125E+03  0.00000000000E+00 0.  1.
        -15    1    1    2    0    0  0.27981847719E+01 -0.36927259192E-01 -0.48074938526E+02  0.48189092593E+02  0.17770000000E+01 0. -1.
         15    1    1    2    0    0 -0.52751520146E+01 -0.14090944586E+01 -0.15682250915E+02  0.16700404149E+02  0.17770000000E+01 0. -1.
</event>
<event>
 6   1  0.3798113E-04  0.5037021E+03  0.7546771E-02  0.9391564E-01
        -11   -1    0    0    0    0  0.00000000000E+00  0.00000000000E+00  0.50000000000E+03  0.50000000000E+03  0.00000000000E+00 0. -1.
         11   -1    0    0    0    0 -0.00000000000E+00 -0.00000000000E+00 -0.50000000000E+03  0.50000000000E+03  0.00000000000E+00 0. -1.
        -11    1    1    2    0    0 -0.11198190121E+02 -0.10399191997E+02  0.41268595044E+03  0.41296880795E+03  0.00000000000E+00 0. -1.
         11    1    1    2    0    0 -0.77975364406E+01  0.17346759798E+02 -0.49593337064E+03  0.49629791432E+03  0.00000000000E+00 0. -1.
        -15    1    1    2    0    0  0.92201075401E+01 -0.14607805546E+02  0.21075321593E+02  0.27307970909E+02  0.17770000000E+01 0.  1.
         15    1    1    2    0    0  0.97756190218E+01  0.76602377447E+01  0.62172098611E+02  0.63425306812E+02  0.17770000000E+01 0. -1.
</event>
<event>
 6   1  0.3798113E-04  0.5101686E+03  0.7546771E-02  0.9377340E-01
        -11   -1    0    0    0    0  0.00000000000E+00  0.00000000000E+00  0.50000000000E+03  0.50000000000E+03  0.00000000000E+00 0.  1.
         11   -1    0    0    0    0 -0.00000000000E+00 -0.00000000000E+00 -0.50000000000E+03  0.50000000000E+03  0.00000000000E+00 0. -1.
        -11    1    1    2    0    0  0.27409637130E+02 -0.29155566904E+02 -0.30285697759E+02  0.50185244623E+02  0.00000000000E+00 0.  1.
         11    1    1    2    0    0 -0.21594340799E+02  0.15349574124E+02 -0.45921972406E+03  0.45998334747E+03  0.00000000000E+00 0. -1.
        -15    1    1    2    0    0 -0.19008122946E-01  0.10335806467E+02  0.24146722540E+03  0.24169486533E+03  0.17770000000E+01 0. -1.
         15    1    1    2    0    0 -0.57962882084E+01  0.34701863126E+01  0.24803819642E+03  0.24813654258E+03  0.17770000000E+01 0.  1.
</event>
<event>
 6   1  0.3798113E-04  0.5007369E+03  0.7546771E-02  0.9398162E-01
        -11   -1    0    0    0    0  0.00000000000E+00  0.00000000000E+00  0.50000000000E+03  0.50000000000E+03  0.00000000000E+00 0.  1.
         11   -1    0    0    0    0 -0.00000000000E+00 -0.00000000000E+00 -0.50000000000E+03  0.50000000000E+03  0.00000000000E+00 0. -1.
        -11    1    1    2    0    0  0.19895139326E+01  0.13932822311E+02  0.49906472875E+03  0.49926314222E+03  0.00000000000E+00 0.  1.
         11    1    1    2    0    0 -0.37866051432E+01  0.64997663445E+01 -0.31601088795E+03  0.31610040596E+03  0.00000000000E+00 0. -1.
        -15    1    1    2    0    0  0.45193120739E+00 -0.12647053842E+02 -0.15226731926E+03  0.15280263890E+03  0.17770000000E+01 0. -1.
         15    1    1    2    0    0  0.13451600032E+01 -0.77855348130E+01 -0.30786521534E+02  0.31833812918E+02  0.17770000000E+01 0.  1.
</event>
<event>
 6   1  0.3798113E-04  0.5036379E+03  0.7546771E-02  0.9391706E-01
        -11   -1    0    0    0    0  0.00000000000E+00  0.00000000000E+00  0.50000000000E+03  0.50000000000E+03  0.00000000000E+00 0.  1.
         11   -1    0    0    0    0 -0.00000000000E+00 -0.00000000000E+00 -0.50000000000E+03  0.50000000000E+03  0.00000000000E+00 0. -1.
        -11    1    1    2    0    0 -0.10205886020E+02 -0.37780559884E+02  0.17478259093E+03  0.17911025908E+03  0.00000000000E+00 0.  1.
         11    1    1    2    0    0  0.39550077264E+00  0.29337761961E+02 -0.49549416844E+03  0.49636209732E+03  0.00000000000E+00 0. -1.
        -15    1    1    2    0    0  0.35156109372E+01 -0.16205780673E+02  0.52007719985E+02  0.54616366727E+02  0.17770000000E+01 0.  1.
         15    1    1    2    0    0  0.62947743106E+01  0.24648578596E+02  0.26870385752E+03  0.26991127688E+03  0.17770000000E+01 0. -1.
</event>
<event>
 6   1  0.3798113E-04  0.5034082E+03  0.7546771E-02  0.9392216E-01
        -11   -1    0    0    0    0  0.00000000000E+00  0.00000000000E+00  0.50000000000E+03  0.50000000000E+03  0.00000000000E+00 0. -1.
         11   -1    0    0    0    0 -0.00000000000E+00 -0.00000000000E+00 -0.50000000000E+03  0.50000000000E+03  0.00000000000E+00 0. -1.
        -11    1    1    2    0    0  0.33982424510E+02  0.17682510484E+02  0.31681491382E+03  0.31912249368E+03  0.00000000000E+00 0. -1.
         11    1    1    2    0    0 -0.49159948592E+01 -0.11982343789E+02 -0.49642283532E+03  0.49659175889E+03  0.00000000000E+00 0. -1.
        -15    1    1    2    0    0 -0.14826037390E+02  0.46702491352E+01  0.14035546993E+03  0.14122477927E+03  0.17770000000E+01 0.  1.
         15    1    1    2    0    0 -0.14240392261E+02 -0.10370415830E+02  0.39252451565E+02  0.43060968163E+02  0.17770000000E+01 0. -1.
</event>
<event>
 6   1  0.3798113E-04  0.5007330E+03  0.7546771E-02  0.9398171E-01
        -11   -1    0    0    0    0  0.00000000000E+00  0.00000000000E+00  0.50000000000E+03  0.50000000000E+03  0.00000000000E+00 0. -1.
         11   -1    0    0    0    0 -0.00000000000E+00 -0.00000000000E+00 -0.50000000000E+03  0.50000000000E+03  0.00000000000E+00 0. -1.
        -11    1    1    2    0    0  0.53458944111E+01 -0.53452979627E+01  0.45563360210E+03  0.45569631352E+03  0.00000000000E+00 0. -1.
         11    1    1    2    0    0  0.42029973550E+01  0.59865740023E+01 -0.49921346341E+03  0.49926704908E+03  0.00000000000E+00 0. -1.
        -15    1    1    2    0    0 -0.72698103619E+00 -0.12437467953E+01  0.10727355460E+02  0.10968559235E+02  0.17770000000E+01 0. -1.
         15    1    1    2    0    0 -0.88219107299E+01  0.60247075562E+00  0.32852505850E+02  0.34068078160E+02  0.17770000000E+01 0.  1.
</event>
<event>
 6   1  0.3798113E-04  0.5001286E+03  0.7546771E-02  0.9399522E-01
        -11   -1    0    0    0    0  0.00000000000E+00  0.00000000000E+00  0.50000000000E+03  0.50000000000E+03  0.00000000000E+00 0.  1.
         11   -1    0    0    0    0 -0.00000000000E+00 -0.00000000000E+00 -0.50000000000E+03  0.50000000000E+03  0.00000000000E+00 0.  1.
        -11    1    1    2    0    0 -0.19734001913E+01 -0.95555815345E+01  0.49977619226E+03  0.49987142926E+03  0.00000000000E+00 0.  1.
         11    1    1    2    0    0  0.45795683162E+01  0.11795994955E+01 -0.23456490566E+03  0.23461257185E+03  0.00000000000E+00 0.  1.
        -15    1    1    2    0    0  0.77722717099E-01  0.15793903549E+01 -0.14648082098E+02  0.14839964719E+02  0.17770000000E+01 0. -1.
         15    1    1    2    0    0 -0.26838908420E+01  0.67965916842E+01 -0.25056320450E+03  0.25067603417E+03  0.17770000000E+01 0.  1.
</event>
<event>
 6   1  0.3798113E-04  0.5000878E+03  0.7546771E-02  0.9399613E-01
        -11   -1    0    0    0    0  0.00000000000E+00  0.00000000000E+00  0.50000000000E+03  0.50000000000E+03  0.00000000000E+00 0.  1.
         11   -1    0    0    0    0 -0.00000000000E+00 -0.00000000000E+00 -0.50000000000E+03  0.50000000000E+03  0.00000000000E+00 0. -1.
        -11    1    1    2    0    0  0.40020133379E+01 -0.92188135660E+01  0.16684511190E+03  0.16714752167E+03  0.00000000000E+00 0.  1.
         11    1    1    2    0    0 -0.11120445175E+02  0.11572833537E+02 -0.49965447952E+03  0.49991218597E+03  0.00000000000E+00 0. -1.
        -15    1    1    2    0    0  0.58587196685E+01 -0.83536554618E+00  0.17597683216E+03  0.17608527939E+03  0.17770000000E+01 0.  1.
         15    1    1    2    0    0  0.12597121683E+01 -0.15186544245E+01  0.15683253546E+03  0.15685501297E+03  0.17770000000E+01 0.  1.
</event>
<event>
 6   1  0.3798113E-04  0.4859451E+03  0.7546771E-02  0.9431820E-01
        -11   -1    0    0    0    0  0.00000000000E+00  0.00000000000E+00  0.50000000000E+03  0.50000000000E+03  0.00000000000E+00 0. -1.
         11   -1    0    0    0    0 -0.00000000000E+00 -0.00000000000E+00 -0.50000000000E+03  0.50000000000E+03  0.00000000000E+00 0. -1.
        -11    1    1    2    0    0 -0.26970474956E+02  0.10011065059E+02  0.48698133808E+03  0.48783035123E+03  0.00000000000E+00 0. -1.
         11    1    1    2    0    0  0.10241188796E+02  0.40637141673E+01 -0.48418432384E+03  0.48430966867E+03  0.00000000000E+00 0. -1.
        -15    1    1    2    0    0  0.88350988263E+01 -0.97965037597E+01 -0.96369799045E+01  0.16433489218E+02  0.17770000000E+01 0.  1.
         15    1    1    2    0    0  0.78941873341E+01 -0.42782754666E+01  0.68399656658E+01  0.11426490885E+02  0.17770000000E+01 0. -1.
</event>
<event>
 6   1  0.3798113E-04  0.5024909E+03  0.7546771E-02  0.9394253E-01
        -11   -1    0    0    0    0  0.00000000000E+00  0.00000000000E+00  0.50000000000E+03  0.50000000000E+03  0.00000000000E+00 0.  1.
         11   -1    0    0    0    0 -0.00000000000E+00 -0.00000000000E+00 -0.50000000000E+03  0.50000000000E+03  0.00000000000E+00 0.  1.
        -11    1    1    2    0    0 -0.11010368572E+02  0.18135959271E+02  0.43205092887E+03  0.43257155058E+03  0.00000000000E+00 0.  1.
         11    1    1    2    0    0 -0.66865749860E+01 -0.36651489865E+01 -0.49745069233E+03  0.49750913047E+03  0.00000000000E+00 0.  1.
        -15    1    1    2    0    0  0.47303343135E+01 -0.61642740380E+01  0.33735345189E+02  0.34664182973E+02  0.17770000000E+01 0.  1.
         15    1    1    2    0    0  0.12966609244E+02 -0.83065362467E+01  0.31664418264E+02  0.35255135976E+02  0.17770000000E+01 0. -1.
</event>
<event>
 6   1  0.3798113E-04  0.5034362E+03  0.7546771E-02  0.9392154E-01
        -11   -1    0    0    0    0  0.00000000000E+00  0.00000000000E+00  0.50000000000E+03  0.50000000000E+03  0.00000000000E+00 0. -1.
         11   -1    0    0    0    0 -0.00000000000E+00 -0.00000000000E+00 -0.50000000000E+03  0.50000000000E+03  0.00000000000E+00 0.  1.
        -11    1    1    2    0    0 -0.27590611372E+01 -0.17217340619E+02  0.20259183852E+02  0.26729829155E+02  0.00000000000E+00 0. -1.
         11    1    1    2    0    0  0.84638396356E+01  0.36263376214E+01 -0.49647837772E+03  0.49656375870E+03  0.00000000000E+00 0.  1.
        -15    1    1    2    0    0  0.24073352172E+01  0.71055863182E+01  0.85977609823E+02  0.86322602716E+02  0.17770000000E+01 0.  1.
         15    1    1    2    0    0 -0.81121137156E+01  0.64854166789E+01  0.39024158405E+03  0.39038380943E+03  0.17770000000E+01 0. -1.
</event>
<event>
 6   1  0.3798113E-04  0.5127727E+03  0.7546771E-02  0.9371675E-01
        -11   -1    0    0    0    0  0.00000000000E+00  0.00000000000E+00  0.50000000000E+03  0.50000000000E+03  0.00000000000E+00 0.  1.
         11   -1    0    0    0    0 -0.00000000000E+00 -0.00000000000E+00 -0.50000000000E+03  0.50000000000E+03  0.00000000000E+00 0.  1.
        -11    1    1    2    0    0  0.10433631127E+02 -0.25650309292E+02  0.48643972639E+03  0.48722726364E+03  0.00000000000E+00 0.  1.
         11    1    1    2    0    0  0.14212130758E+02 -0.73818670813E+01 -0.45377861786E+03  0.45406113096E+03  0.00000000000E+00 0.  1.
        -15    1    1    2    0    0 -0.11516597430E+02  0.76888052681E+01  0.16356395266E+01  0.14056414495E+02  0.17770000000E+01 0. -1.
         15    1    1    2    0    0 -0.13129164456E+02  0.25343371105E+02 -0.34296748053E+02  0.44655190900E+02  0.17770000000E+01 0.  1.
</event>
<event>
 6   1  0.3798113E-04  0.5071157E+03  0.7546771E-02  0.9384027E-01
        -11   -1    0    0    0    0  0.00000000000E+00  0.00000000000E+00  0.50000000000E+03  0.50000000000E+03  0.00000000000E+00 0. -1.
         11   -1    0    0    0    0 -0.00000000000E+00 -0.00000000000E+00 -0.50000000000E+03  0.50000000000E+03  0.00000000000E+00 0. -1.
        -11    1    1    2    0    0 -0.18043844166E+02  0.33916775180E+02  0.42903357244E+03  0.43075019934E+03  0.00000000000E+00 0. -1.
         11    1    1    2    0    0  0.50563738459E+02 -0.11573656984E+02 -0.49014719980E+03  0.49288428526E+03  0.00000000000E+00 0. -1.
        -15    1    1    2    0    0 -0.76169175594E+01 -0.14403807551E+02  0.38172169589E+02  0.41542259991E+02  0.17770000000E+01 0.  1.
         15    1    1    2    0    0 -0.24902976733E+02 -0.79393106451E+01  0.22941457776E+02  0.34823255414E+02  0.17770000000E+01 0. -1.
</event>
<event>
 6   1  0.3798113E-04  0.5050897E+03  0.7546771E-02  0.9388493E-01
        -11   -1    0    0    0    0  0.00000000000E+00  0.00000000000E+00  0.50000000000E+03  0.50000000000E+03  0.00000000000E+00 0.  1.
         11   -1    0    0    0    0 -0.00000000000E+00 -0.00000000000E+00 -0.50000000000E+03  0.50000000000E+03  0.00000000000E+00 0. -1.
        -11    1    1    2    0    0  0.77402743741E+01 -0.16420935068E+02  0.49457728890E+03  0.49491034911E+03  0.00000000000E+00 0.  1.
         11    1    1    2    0    0  0.14907098689E+02  0.21360375263E+01 -0.46217888115E+03  0.46242415857E+03  0.00000000000E+00 0. -1.
        -15    1    1    2    0    0 -0.14929752605E+02  0.60893369044E+01 -0.21129780736E+02  0.26638372693E+02  0.17770000000E+01 0. -1.
         15    1    1    2    0    0 -0.77176204581E+01  0.81955606377E+01 -0.11268627018E+02  0.16027119628E+02  0.17770000000E+01 0.  1.
</event>
<event>
 6   1  0.3798113E-04  0.5059953E+03  0.7546771E-02  0.9386494E-01
        -11   -1    0    0    0    0  0.00000000000E+00  0.00000000000E+00  0.50000000000E+03  0.50000000000E+03  0.00000000000E+00 0. -1.
         11   -1    0    0    0    0 -0.00000000000E+00 -0.00000000000E+00 -0.50000000000E+03  0.50000000000E+03  0.00000000000E+00 0.  1.
        -11    1    1    2    0    0 -0.11600433857E+02  0.19471811678E+00  0.48255324553E+03  0.48269270012E+03  0.00000000000E+00 0. -1.
         11    1    1    2    0    0  0.19325811268E+02  0.10772681141E+02 -0.49350897734E+03  0.49400470479E+03  0.00000000000E+00 0.  1.
        -15    1    1    2    0    0  0.24355083316E+01 -0.75005019529E+01  0.92551365233E+01  0.12288389294E+02  0.17770000000E+01 0.  1.
         15    1    1    2    0    0 -0.10160885743E+02 -0.34668973050E+01  0.17005952908E+01  0.11014205797E+02  0.17770000000E+01 0. -1.
</event>
<event>
 6   1  0.3798113E-04  0.4891068E+03  0.7546771E-02  0.9424520E-01
        -11   -1    0    0    0    0  0.00000000000E+00  0.00000000000E+00  0.50000000000E+03  0.50000000000E+03  0.00000000000E+00 0.  1.
         11   -1    0    0    0    0 -0.00000000000E+00 -0.00000000000E+00 -0.50000000000E+03  0.50000000000E+03  0.00000000000E+00 0. -1.
        -11    1    1    2    0    0 -0.63589252632E+01 -0.10247384107E+02  0.48602827504E+03  0.48617787789E+03  0.00000000000E+00 0.  1.
         11    1    1    2    0    0 -0.10103063663E+02  0.15373044438E+01 -0.49212580972E+03  0.49223190448E+03  0.00000000000E+00 0. -1.
        -15    1    1    2    0    0  0.12556920252E+02  0.48560523865E+01  0.76913796218E+01  0.15606810709E+02  0.17770000000E+01 0.  1.
         15    1    1    2    0    0  0.39050686732E+01  0.38540272767E+01 -0.15938449506E+01  0.59834069157E+01  0.17770000000E+01 0. -1.
</event>
<event>
 6   1  0.3798113E-04  0.5013679E+03  0.7546771E-02  0.9396754E-01
        -11   -1    0    0    0    0  0.00000000000E+00  0.00000000000E+00  0.50000000000E+03  0.50000000000E+03  0.00000000000E+00 0.  1.
         11   -1    0    0    0    0 -0.00000000000E+00 -0.00000000000E+00 -0.50000000000E+03  0.50000000000E+03  0.00000000000E+00 0. -1.
        -11    1    1    2    0    0  0.88221694380E+01 -0.32642590185E+01  0.49854332358E+03  0.49863206029E+03  0.00000000000E+00 0.  1.
         11    1    1    2    0    0 -0.51786815890E-01 -0.77754262966E+01 -0.44958150988E+03  0.44964874509E+03  0.00000000000E+00 0. -1.
        -15    1    1    2    0    0 -0.58818379194E+01  0.54857691171E+01 -0.14750910505E+02  0.16894874070E+02  0.17770000000E+01 0.  1.
         15    1    1    2    0    0 -0.28885447027E+01  0.55539161979E+01 -0.34210903193E+02  0.34824320552E+02  0.17770000000E+01 0. -1.
</event>
<event>
 6   1  0.3798113E-04  0.5006960E+03  0.7546771E-02  0.9398254E-01
        -11   -1    0    0    0    0  0.00000000000E+00  0.00000000000E+00  0.50000000000E+03  0.50000000000E+03  0.00000000000E+00 0.  1.
         11   -1    0    0    0    0 -0.00000000000E+00 -0.00000000000E+00 -0.50000000000E+03  0.50000000000E+03  0.00000000000E+00 0.  1.
        -11    1    1    2    0    0  0.10957654522E+02 -0.50279121340E+01  0.49915838335E+03  0.49930395728E+03  0.00000000000E+00 0.  1.
         11    1    1    2    0    0  0.40429014945E+00  0.76314723126E+01 -0.42869572173E+03  0.42876383319E+03  0.00000000000E+00 0.  1.
        -15    1    1    2    0    0 -0.10052964040E+02  0.44624407633E+00 -0.42181713388E+02  0.43401795967E+02  0.17770000000E+01 0.  1.
         15    1    1    2    0    0 -0.13089806316E+01 -0.30498042549E+01 -0.28280948231E+02  0.28530413564E+02  0.17770000000E+01 0. -1.
</event>
<event>
 6   1  0.3798113E-04  0.5070926E+03  0.7546771E-02  0.9384078E-01
        -11   -1    0    0    0    0  0.00000000000E+00  0.00000000000E+00  0.50000000000E+03  0.50000000000E+03  0.00000000000E+00 0.  1.
         11   -1    0    0    0    0 -0.00000000000E+00 -0.00000000000E+00 -0.50000000000E+03  0.50000000000E+03  0.00000000000E+00 0. -1.
        -11    1    1    2    0    0 -0.59766611324E+01 -0.97325259398E+01  0.49277506183E+03  0.49290739912E+03  0.00000000000E+00 0.  1.
         11    1    1    2    0    0 -0.15905814747E+02 -0.37049195395E+01 -0.46510721922E+03  0.46539386195E+03  0.00000000000E+00 0. -1.
        -15    1    1    2    0    0  0.18340811615E+02  0.15664820196E+02 -0.15541310106E+02  0.28748252317E+02  0.17770000000E+01 0.  1.
         15    1    1    2    0    0  0.35416642646E+01 -0.22273747166E+01 -0.12126532508E+02  0.12950486615E+02  0.17770000000E+01 0. -1.
</event>
<event>
 6   1  0.3798113E-04  0.5012090E+03  0.7546771E-02  0.9397109E-01
        -11   -1    0    0    0    0  0.00000000000E+00  0.00000000000E+00  0.50000000000E+03  0.50000000000E+03  0.00000000000E+00 0. -1.
         11   -1    0    0    0    0 -0.00000000000E+00 -0.00000000000E+00 -0.50000000000E+03  0.50000000000E+03  0.00000000000E+00 0. -1.
        -11    1    1    2    0    0  0.31183799697E+01 -0.80085481545E+01  0.14745761614E+02  0.17067472653E+02  0.00000000000E+00 0. -1.
         11    1    1    2    0    0 -0.61948817416E+01  0.27366378548E+01 -0.49874507031E+03  0.49879104935E+03  0.00000000000E+00 0. -1.
        -15    1    1    2    0    0 -0.25983935556E+01 -0.13948997173E+00  0.21183329488E+03  0.21185672907E+03  0.17770000000E+01 0. -1.
         15    1    1    2    0    0  0.56748953275E+01  0.54114002714E+01  0.27216601382E+03  0.27228474893E+03  0.17770000000E+01 0. -1.
</event>
<event>
 6   1  0.3798113E-04  0.5039161E+03  0.7546771E-02  0.9391090E-01
        -11   -1    0    0    0    0  0.00000000000E+00  0.00000000000E+00  0.50000000000E+03  0.50000000000E+03  0.00000000000E+00 0. -1.
         11   -1    0    0    0    0 -0.00000000000E+00 -0.00000000000E+00 -0.50000000000E+03  0.50000000000E+03  0.00000000000E+00 0.  1.
        -11    1    1    2    0    0  0.96919236160E+01 -0.31008842276E+02  0.40202571874E+03  0.40333628675E+03  0.00000000000E+00 0. -1.
         11    1    1    2    0    0 -0.13679151036E+02  0.31495690480E+02 -0.49489407052E+03  0.49608390291E+03  0.00000000000E+00 0.  1.
        -15    1    1    2    0    0 -0.34171414757E+01  0.15661819487E+02  0.68486610655E+02  0.70360095320E+02  0.17770000000E+01 0. -1.
         15    1    1    2    0    0  0.74043688957E+01 -0.16148667690E+02  0.24381741126E+02  0.30219715026E+02  0.17770000000E+01 0.  1.
</event>
<event>
 6   1  0.3798113E-04  0.5033411E+03  0.7546771E-02  0.9392365E-01
        -11   -1    0    0    0    0  0.00000000000E+00  0.00000000000E+00  0.50000000000E+03  0.50000000000E+03  0.00000000000E+00 0.  1.
         11   -1    0    0    0    0 -0.00000000000E+00 -0.00000000000E+00 -0.50000000000E+03  0.50000000000E+03  0.00000000000E+00 0. -1.
        -11    1    1    2    0    0  0.20101082274E+01  0.30378207232E+02  0.49572489302E+03  0.49665888251E+03  0.00000000000E+00 0.  1.
         11    1    1    2    0    0 -0.93125811367E+01  0.11386537329E+02 -0.26825299445E+03  0.26865600018E+03  0.00000000000E+00 0. -1.
        -15    1    1    2    0    0 -0.22328470284E+01  0.71034341022E+01 -0.38662485875E+02  0.39413067946E+02  0.17770000000E+01 0.  1.
         15    1    1    2    0    0  0.95353199377E+01 -0.48868178663E+02 -0.18880941270E+03  0.19527204937E+03  0.17770000000E+01 0. -1.
</event>
<event>
 6   1  0.3798113E-04  0.4670952E+03  0.7546771E-02  0.9476605E-01
        -11   -1    0    0    0    0  0.00000000000E+00  0.00000000000E+00  0.50000000000E+03  0.50000000000E+03  0.00000000000E+00 0.  1.
         11   -1    0    0    0    0 -0.00000000000E+00 -0.00000000000E+00 -0.50000000000E+03  0.50000000000E+03  0.00000000000E+00 0.  1.
        -11    1    1    2    0    0  0.16619224650E+02 -0.65806884460E+01  0.47708296359E+03  0.47741769786E+03  0.00000000000E+00 0.  1.
         11    1    1    2    0    0  0.13638616221E+02 -0.92446882372E+01 -0.45730886927E+03  0.45760559221E+03  0.00000000000E+00 0.  1.
        -15    1    1    2    0    0 -0.36209390421E+02  0.10485969753E+02  0.57464276367E+01  0.38174005238E+02  0.17770000000E+01 0. -1.
         15    1    1    2    0    0  0.59515495513E+01  0.53394069302E+01 -0.25520521958E+02  0.26802704685E+02  0.17770000000E+01 0.  1.
</event>
<event>
 6   1  0.3798113E-04  0.5005821E+03  0.7546771E-02  0.9398508E-01
        -11   -1    0    0    0    0  0.00000000000E+00  0.00000000000E+00  0.50000000000E+03  0.50000000000E+03  0.00000000000E+00 0.  1.
         11   -1    0    0    0    0 -0.00000000000E+00 -0.00000000000E+00 -0.50000000000E+03  0.50000000000E+03  0.00000000000E+00 0. -1.
        -11    1    1    2    0    0  0.40119723418E+01  0.61091649182E+01  0.49936436847E+03  0.49941785142E+03  0.00000000000E+00 0.  1.
         11    1    1    2    0    0 -0.77508138355E+01 -0.50321613464E+01 -0.44407836541E+03  0.44417450669E+03  0.00000000000E+00 0. -1.
        -15    1    1    2    0    0  0.11247098724E-01 -0.24468517104E+01 -0.44175876469E+01  0.53535053384E+01  0.17770000000E+01 0. -1.
         15    1    1    2    0    0  0.37275943950E+01  0.13698481386E+01 -0.50868415411E+02  0.51054136554E+02  0.17770000000E+01 0.  1.
</event>
<event>
 6   1  0.3798113E-04  0.5007213E+03  0.7546771E-02  0.9398197E-01
        -11   -1    0    0    0    0  0.00000000000E+00  0.00000000000E+00  0.50000000000E+03  0.50000000000E+03  0.00000000000E+00 0. -1.
         11   -1    0    0    0    0 -0.00000000000E+00 -0.00000000000E+00 -0.50000000000E+03  0.50000000000E+03  0.00000000000E+00 0. -1.
        -11    1    1    2    0    0  0.11527745780E+02  0.10344659718E+02  0.23646536693E+03  0.23697208837E+03  0.00000000000E+00 0. -1.
         11    1    1    2    0    0  0.77094024901E+01 -0.52304442978E+01 -0.49919180028E+03  0.49927872566E+03  0.00000000000E+00 0. -1.
        -15    1    1    2    0    0 -0.38563169951E+01  0.33902905739E+01  0.51733787797E+02  0.52018340802E+02  0.17770000000E+01 0. -1.
         15    1    1    2    0    0 -0.15380831275E+02 -0.85045059945E+01  0.21099264554E+03  0.21173084517E+03  0.17770000000E+01 0.  1.
</event>
<event>
 6   1  0.3798113E-04  0.5022957E+03  0.7546771E-02  0.9394687E-01
        -11   -1    0    0    0    0  0.00000000000E+00  0.00000000000E+00  0.50000000000E+03  0.50000000000E+03  0.00000000000E+00 0. -1.
         11   -1    0    0    0    0 -0.00000000000E+00 -0.00000000000E+00 -0.50000000000E+03  0.50000000000E+03  0.00000000000E+00 0. -1.
        -11    1    1    2    0    0 -0.78353488242E+01 -0.94778988700E-01  0.45903808079E+03  0.45910495672E+03  0.00000000000E+00 0. -1.
         11    1    1    2    0    0 -0.42477368033E+01 -0.66622256896E+01 -0.49764156737E+03  0.49770428780E+03  0.00000000000E+00 0. -1.
        -15    1    1    2    0    0  0.10424278882E+02 -0.11985334904E+00  0.14102936565E+02  0.17627549569E+02  0.17770000000E+01 0.  1.
         15    1    1    2    0    0  0.16588067456E+01  0.68768580273E+01  0.24500550016E+02  0.25563205907E+02  0.17770000000E+01 0. -1.
</event>
<event>
 6   1  0.3798113E-04  0.5003311E+03  0.7546771E-02  0.9399069E-01
        -11   -1    0    0    0    0  0.00000000000E+00  0.00000000000E+00  0.50000000000E+03  0.50000000000E+03  0.00000000000E+00 0.  1.
         11   -1    0    0    0    0 -0.00000000000E+00 -0.00000000000E+00 -0.50000000000E+03  0.50000000000E+03  0.00000000000E+00 0. -1.
        -11    1    1    2    0    0 -0.41260394067E+01 -0.29374180359E+01  0.28924404844E+03  0.28928838930E+03  0.00000000000E+00 0.  1.
         11    1    1    2    0    0 -0.90596204154E+01 -0.60138296194E+01 -0.49955057221E+03  0.49966890744E+03  0.00000000000E+00 0. -1.
        -15    1    1    2    0    0  0.41514434130E+00  0.26632965970E+01  0.33513800970E+02  0.33668948276E+02  0.17770000000E+01 0.  1.
         15    1    1    2    0    0  0.12770515481E+02  0.62879510584E+01  0.17679272279E+03  0.17737375498E+03  0.17770000000E+01 0. -1.
</event>
<event>
 6   1  0.3798113E-04  0.5003032E+03  0.7546771E-02  0.9399132E-01
        -11   -1    0    0    0    0  0.00000000000E+00  0.00000000000E+00  0.50000000000E+03  0.50000000000E+03  0.00000000000E+00 0.  1.
         11   -1    0    0    0    0 -0.00000000000E+00 -0.00000000000E+00 -0.50000000000E+03  0.50000000000E+03  0.00000000000E+00 0.  1.
        -11    1    1    2    0    0  0.17689230232E+02 -0.18332191476E+01  0.30172842954E+03  0.30225207155E+03  0.00000000000E+00 0.  1.
         11    1    1    2    0    0 -0.11977547620E+02 -0.38538261417E+01 -0.49953835074E+03  0.49969678555E+03  0.00000000000E+00 0.  1.
        -15    1    1    2    0    0 -0.15128075104E+00  0.16239812094E+01  0.33117658165E+02  0.33205379266E+02  0.17770000000E+01 0.  1.
         15    1    1    2    0    0 -0.55604018611E+01  0.40630640799E+01  0.16469226303E+03  0.16484576364E+03  0.17770000000E+01 0. -1.
</event>
<event>
 6   1  0.3798113E-04  0.5012248E+03  0.7546771E-02  0.9397073E-01
        -11   -1    0    0    0    0  0.00000000000E+00  0.00000000000E+00  0.50000000000E+03  0.50000000000E+03  0.00000000000E+00 0. -1.
         11   -1    0    0    0    0 -0.00000000000E+00 -0.00000000000E+00 -0.50000000000E+03  0.50000000000E+03  0.00000000000E+00 0.  1.
        -11    1    1    2    0    0  0.12393312461E+02 -0.27543041862E+01  0.46734596802E+03  0.46751837848E+03  0.00000000000E+00 0. -1.
         11    1    1    2    0    0 -0.83466834067E+01  0.51641440317E+01 -0.49867865124E+03  0.49877523266E+03  0.00000000000E+00 0.  1.
        -15    1    1    2    0    0 -0.60335770119E+01  0.24857881269E+01  0.19143493770E+02  0.20303060777E+02  0.17770000000E+01 0. -1.
         15    1    1    2    0    0  0.19869479574E+01 -0.48956279724E+01  0.12189189448E+02  0.13403328088E+02  0.17770000000E+01 0.  1.
</event>
<event>
 6   1  0.3798113E-04  0.5037918E+03  0.7546771E-02  0.9391365E-01
        -11   -1    0    0    0    0  0.00000000000E+00  0.00000000000E+00  0.50000000000E+03  0.50000000000E+03  0.00000000000E+00 0. -1.
         11   -1    0    0    0    0 -0.00000000000E+00 -0.00000000000E+00 -0.50000000000E+03  0.50000000000E+03  0.00000000000E+00 0.  1.
        -11    1    1    2    0    0 -0.57310332432E+01 -0.39068363702E+01  0.49266521799E+03  0.49271403991E+03  0.00000000000E+00 0. -1.
         11    1    1    2    0    0  0.56453945061E+01  0.39985135412E+01 -0.49616000057E+03  0.49620822721E+03  0.00000000000E+00 0.  1.
        -15    1    1    2    0    0 -0.37903464320E+01  0.16165722060E+01  0.45221787753E+01  0.63708603538E+01  0.17770000000E+01 0.  1.
         15    1    1    2    0    0  0.38759851690E+01 -0.17082493770E+01 -0.10273961969E+01  0.47068725190E+01  0.17770000000E+01 0. -1.
</event>
<event>
 6   1  0.3798113E-04  0.5015999E+03  0.7546771E-02  0.9396237E-01
        -11   -1    0    0    0    0  0.00000000000E+00  0.00000000000E+00  0.50000000000E+03  0.50000000000E+03  0.00000000000E+00 0. -1.
         11   -1    0    0    0    0 -0.00000000000E+00 -0.00000000000E+00 -0.50000000000E+03  0.50000000000E+03  0.00000000000E+00 0.  1.
        -11    1    1    2    0    0  0.34891733562E+02 -0.51068937960E+02  0.49454742207E+03  0.49840006237E+03  0.00000000000E+00 0. -1.
         11    1    1    2    0    0 -0.41253035570E+02  0.52584238755E+02 -0.32682519269E+03  0.33358900115E+03  0.00000000000E+00 0.  1.
        -15    1    1    2    0    0  0.58460266099E+00  0.69930853628E-01 -0.95664423550E+02  0.95682737799E+02  0.17770000000E+01 0. -1.
         15    1    1    2    0    0  0.57766993466E+01 -0.15852316485E+01 -0.72057805830E+02  0.72328198683E+02  0.17770000000E+01 0.  1.
</event>
<event>
 6   1  0.3798113E-04  0.5046944E+03  0.7546771E-02  0.9389366E-01
        -11   -1    0    0    0    0  0.00000000000E+00  0.00000000000E+00  0.50000000000E+03  0.50000000000E+03  0.00000000000E+00 0. -1.
         11   -1    0    0    0    0 -0.00000000000E+00 -0.00000000000E+00 -0.50000000000E+03  0.50000000000E+03  0.00000000000E+00 0.  1.
        -11    1    1    2    0    0 -0.62258006933E+01 -0.30680916129E+01  0.48442772088E+03  0.48447744069E+03  0.00000000000E+00 0. -1.
         11    1    1    2    0    0  0.43256663695E+01  0.77489560645E+01 -0.49522608963E+03  0.49530560017E+03  0.00000000000E+00 0.  1.
        -15    1    1    2    0    0 -0.23218110177E+01 -0.42233741784E+01 -0.28071970866E+01  0.58536980052E+01  0.17770000000E+01 0.  1.
         15    1    1    2    0    0  0.42219453415E+01 -0.45749027320E+00  0.13605565839E+02  0.14363261141E+02  0.17770000000E+01 0. -1.
</event>
<event>
 6   1  0.3798113E-04  0.5001259E+03  0.7546771E-02  0.9399528E-01
        -11   -1    0    0    0    0  0.00000000000E+00  0.00000000000E+00  0.50000000000E+03  0.50000000000E+03  0.00000000000E+00 0. -1.
         11   -1    0    0    0    0 -0.00000000000E+00 -0.00000000000E+00 -0.50000000000E+03  0.50000000000E+03  0.00000000000E+00 0.  1.
        -11    1    1    2    0    0 -0.32205374599E+01 -0.13851858813E+01  0.81915543683E+02  0.81990529321E+02  0.00000000000E+00 0. -1.
         11    1    1    2    0    0 -0.64715837631E+01 -0.41984667549E+01 -0.49981453923E+03  0.49987406629E+03  0.00000000000E+00 0.  1.
        -15    1    1    2    0    0  0.33587333678E+01 -0.13866110431E+01  0.81996022650E+02  0.82095732163E+02  0.17770000000E+01 0.  1.
         15    1    1    2    0    0  0.63333878552E+01  0.69702636793E+01  0.33590297290E+03  0.33603967223E+03  0.17770000000E+01 0. -1.
</event>
<event>
 6   1  0.3798113E-04  0.5008280E+03  0.7546771E-02  0.9397959E-01
        -11   -1    0    0    0    0  0.00000000000E+00  0.00000000000E+00  0.50000000000E+03  0.50000000000E+03  0.00000000000E+00 0. -1.
         11   -1    0    0    0    0 -0.00000000000E+00 -0.00000000000E+00 -0.50000000000E+03  0.50000000000E+03  0.00000000000E+00 0. -1.
        -11    1    1    2    0    0  0.12923232008E+02 -0.28552804969E+02  0.28572471395E+03  0.28743848865E+03  0.00000000000E+00 0. -1.
         11    1    1    2    0    0 -0.27105501978E+02  0.16446616292E+02 -0.49816410396E+03  0.49917198830E+03  0.00000000000E+00 0. -1.
        -15    1    1    2    0    0  0.22274666812E+01  0.66255905760E+00  0.17699241537E+02  0.17939383275E+02  0.17770000000E+01 0. -1.
         15    1    1    2    0    0  0.11954803289E+02  0.11443629619E+02  0.19474014847E+03  0.19545013977E+03  0.17770000000E+01 0. -1.
</event>
<event>
 6   1  0.3798113E-04  0.4862959E+03  0.7546771E-02  0.9431007E-01
        -11   -1    0    0    0    0  0.00000000000E+00  0.00000000000E+00  0.50000000000E+03  0.50000000000E+03  0.00000000000E+00 0.  1.
         11   -1    0    0    0    0 -0.00000000000E+00 -0.00000000000E+00 -0.50000000000E+03  0.50000000000E+03  0.00000000000E+00 0.  1.
        -11    1    1    2    0    0  0.35568398844E+01 -0.11353107519E+02  0.48399738323E+03  0.48414358524E+03  0.00000000000E+00 0.  1.
         11    1    1    2    0    0 -0.73858229421E+01 -0.74079535116E+01 -0.48853518541E+03  0.48864716876E+03  0.00000000000E+00 0.  1.
        -15    1    1    2    0    0  0.61170333952E+01  0.30909035116E+01  0.82248718516E+01  0.10852558595E+02  0.17770000000E+01 0.  1.
         15    1    1    2    0    0 -0.22880503375E+01  0.15670157519E+02 -0.36870696651E+01  0.16356687401E+02  0.17770000000E+01 0. -1.
</event>
<event>
 6   1  0.3798113E-04  0.5002394E+03  0.7546771E-02  0.9399274E-01
        -11   -1    0    0    0    0  0.00000000000E+00  0.00000000000E+00  0.50000000000E+03  0.50000000000E+03  0.00000000000E+00 0.  1.
         11   -1    0    0    0    0 -0.00000000000E+00 -0.00000000000E+00 -0.50000000000E+03  0.50000000000E+03  0.00000000000E+00 0. -1.
        -11    1    1    2    0    0  0.34171662516E+01 -0.85575239453E+01  0.32453029013E+03  0.32466108090E+03  0.00000000000E+00 0.  1.
         11    1    1    2    0    0  0.10713797140E+01  0.72022107545E+01 -0.49970752285E+03  0.49976057076E+03  0.00000000000E+00 0. -1.
        -15    1    1    2    0    0 -0.38047204399E+01 -0.30327425643E+01  0.13765908318E+03  0.13775650379E+03  0.17770000000E+01 0.  1.
         15    1    1    2    0    0 -0.68382552572E+00  0.43880557551E+01  0.37518149548E+02  0.37821844550E+02  0.17770000000E+01 0. -1.
</event>
<event>
 6   1  0.3798113E-04  0.5000989E+03  0.7546771E-02  0.9399589E-01
        -11   -1    0    0    0    0  0.00000000000E+00  0.00000000000E+00  0.50000000000E+03  0.50000000000E+03  0.00000000000E+00 0. -1.
         11   -1    0    0    0    0 -0.00000000000E+00 -0.00000000000E+00 -0.50000000000E+03  0.50000000000E+03  0.00000000000E+00 0. -1.
        -11    1    1    2    0    0  0.51280756334E+01  0.16548579377E+02  0.49960084315E+03  0.49990114534E+03  0.00000000000E+00 0. -1.
         11    1    1    2    0    0 -0.59185959144E+01 -0.10687421951E+02 -0.31385978990E+03  0.31409746653E+03  0.00000000000E+00 0. -1.
        -15    1    1    2    0    0 -0.28672394475E+01 -0.13184649805E+01 -0.83733674317E+02  0.83811964274E+02  0.17770000000E+01 0.  1.
         15    1    1    2    0    0  0.36577597284E+01 -0.45426924454E+01 -0.10200737893E+03  0.10218942385E+03  0.17770000000E+01 0. -1.
</event>
<event>
 6   1  0.3798113E-04  0.5012190E+03  0.7546771E-02  0.9397086E-01
        -11   -1    0    0    0    0  0.00000000000E+00  0.00000000000E+00  0.50000000000E+03  0.50000000000E+03  0.00000000000E+00 0. -1.
         11   -1    0    0    0    0 -0.00000000000E+00 -0.00000000000E+00 -0.50000000000E+03  0.50000000000E+03  0.00000000000E+00 0. -1.
        -11    1    1    2    0    0 -0.18407363578E+02  0.11263953893E+02  0.49831392541E+03  0.49878098997E+03  0.00000000000E+00 0. -1.
         11    1    1    2    0    0 -0.10820637824E+01 -0.63769007708E+01 -0.40717989314E+03  0.40723126244E+03  0.00000000000E+00 0. -1.
        -15    1    1    2    0    0  0.54096686856E+01  0.64166447096E+00 -0.45949451214E+02  0.46305356542E+02  0.17770000000E+01 0. -1.
         15    1    1    2    0    0  0.14079758675E+02 -0.55287175928E+01 -0.45184581056E+02  0.47682391055E+02  0.17770000000E+01 0.  1.
</event>
<event>
 6   1  0.3798113E-04  0.4873929E+03  0.7546771E-02  0.9428470E-01
        -11   -1    0    0    0    0  0.00000000000E+00  0.00000000000E+00  0.50000000000E+03  0.50000000000E+03  0.00000000000E+00 0.  1.
         11   -1    0    0    0    0 -0.00000000000E+00 -0.00000000000E+00 -0.50000000000E+03  0.50000000000E+03  0.00000000000E+00 0. -1.
        -11    1    1    2    0    0 -0.21021978812E+02  0.29430016808E+01  0.49047729541E+03  0.49093641357E+03  0.00000000000E+00 0.  1.
         11    1    1    2    0    0  0.10527201290E+01  0.81979500187E+01 -0.48406800434E+03  0.48413856222E+03  0.00000000000E+00 0. -1.
        -15    1    1    2    0    0  0.15878902863E+02 -0.80434382951E+01 -0.74822761162E+01  0.19390168659E+02  0.17770000000E+01 0. -1.
         15    1    1    2    0    0  0.40903558198E+01 -0.30975134044E+01  0.10729850439E+01  0.55348555471E+01  0.17770000000E+01 0.  1.
</event>
<event>
 6   1  0.3798113E-04  0.5013545E+03  0.7546771E-02  0.9396784E-01
        -11   -1    0    0    0    0  0.00000000000E+00  0.00000000000E+00  0.50000000000E+03  0.50000000000E+03  0.00000000000E+00 0.  1.
         11   -1    0    0    0    0 -0.00000000000E+00 -0.00000000000E+00 -0.50000000000E+03  0.50000000000E+03  0.00000000000E+00 0. -1.
        -11    1    1    2    0    0 -0.16421111139E+00 -0.13789669566E+02  0.20866991019E+03  0.20912511416E+03  0.00000000000E+00 0.  1.
         11    1    1    2    0    0 -0.13407237945E+02 -0.38767936732E+00 -0.49846505222E+03  0.49864547788E+03  0.00000000000E+00 0. -1.
        -15    1    1    2    0    0 -0.78694891476E+01 -0.57384013854E+00  0.13578908882E+03  0.13602974867E+03  0.17770000000E+01 0.  1.
         15    1    1    2    0    0  0.21440938204E+02  0.14751189072E+02  0.15400605321E+03  0.15619965930E+03  0.17770000000E+01 0. -1.
</event>
<event>
 6   1  0.3798113E-04  0.5003915E+03  0.7546771E-02  0.9398934E-01
        -11   -1    0    0    0    0  0.00000000000E+00  0.00000000000E+00  0.50000000000E+03  0.50000000000E+03  0.00000000000E+00 0.  1.
         11   -1    0    0    0    0 -0.00000000000E+00 -0.00000000000E+00 -0.50000000000E+03  0.50000000000E+03  0.00000000000E+00 0.  1.
        -11    1    1    2    0    0 -0.70436029878E+01  0.44161159138E+01  0.49953930435E+03  0.49960847772E+03  0.00000000000E+00 0.  1.
         11    1    1    2    0    0 -0.36306943335E+01  0.84627293099E+01 -0.25985651723E+03  0.26001963248E+03  0.00000000000E+00 0.  1.
        -15    1    1    2    0    0  0.13585406568E+01 -0.11269403906E+01 -0.61257989820E+02  0.61309172830E+02  0.17770000000E+01 0.  1.
         15    1    1    2    0    0  0.93157566645E+01 -0.11751904833E+02 -0.17842479730E+03  0.17906271697E+03  0.17770000000E+01 0.  1.
</event>
<event>
 6   1  0.3798113E-04  0.5002978E+03  0.7546771E-02  0.9399144E-01
        -11   -1    0    0    0    0  0.00000000000E+00  0.00000000000E+00  0.50000000000E+03  0.50000000000E+03  0.00000000000E+00 0. -1.
         11   -1    0    0    0    0 -0.00000000000E+00 -0.00000000000E+00 -0.50000000000E+03  0.50000000000E+03  0.00000000000E+00 0. -1.
        -11    1    1    2    0    0 -0.41379211034E-01 -0.11464419119E+02  0.26507125068E+03  0.26531905803E+03  0.00000000000E+00 0. -1.
         11    1    1    2    0    0  0.70104592642E+01  0.36871230969E+01 -0.49963937682E+03  0.49970215957E+03  0.00000000000E+00 0. -1.
        -15    1    1    2    0    0 -0.54693771556E+01  0.56611434125E+01  0.21566919335E+03  0.21582011333E+03  0.17770000000E+01 0.  1.
         15    1    1    2    0    0 -0.14997028976E+01  0.21161526096E+01  0.18898932797E+02  0.19158669069E+02  0.17770000000E+01 0. -1.
</event>
<event>
 6   1  0.3798113E-04  0.5005554E+03  0.7546771E-02  0.9398568E-01
        -11   -1    0    0    0    0  0.00000000000E+00  0.00000000000E+00  0.50000000000E+03  0.50000000000E+03  0.00000000000E+00 0.  1.
         11   -1    0    0    0    0 -0.00000000000E+00 -0.00000000000E+00 -0.50000000000E+03  0.50000000000E+03  0.00000000000E+00 0. -1.
        -11    1    1    2    0    0  0.18575240941E+02  0.28408965074E+01  0.49909098817E+03  0.49944461629E+03  0.00000000000E+00 0.  1.
         11    1    1    2    0    0  0.46262587612E+01 -0.11197105019E+01 -0.26199850491E+03  0.26204173827E+03  0.00000000000E+00 0. -1.
        -15    1    1    2    0    0 -0.23895131062E+00  0.63074863467E+00 -0.68069941754E+01  0.70673785998E+01  0.17770000000E+01 0. -1.
         15    1    1    2    0    0 -0.22962548392E+02 -0.23519346402E+01 -0.23028548908E+03  0.23144626684E+03  0.17770000000E+01 0. -1.
</event>
<event>
 6   1  0.3798113E-04  0.5013968E+03  0.7546771E-02  0.9396690E-01
        -11   -1    0    0    0    0  0.00000000000E+00  0.00000000000E+00  0.50000000000E+03  0.50000000000E+03  0.00000000000E+00 0. -1.
         11   -1    0    0    0    0 -0.00000000000E+00 -0.00000000000E+00 -0.50000000000E+03  0.50000000000E+03  0.00000000000E+00 0.  1.
        -11    1    1    2    0    0  0.12274170327E+02 -0.11797798376E+02  0.49831250515E+03  0.49860324517E+03  0.00000000000E+00 0. -1.
         11    1    1    2    0    0 -0.46906892823E+01  0.75600219372E+01 -0.43734636389E+03  0.43743685088E+03  0.00000000000E+00 0.  1.
        -15    1    1    2    0    0 -0.91692335377E+01  0.88262208570E+01 -0.31111423881E+02  0.33660888924E+02  0.17770000000E+01 0.  1.
         15    1    1    2    0    0  0.15857524929E+01 -0.45884444187E+01 -0.29854717376E+02  0.30299015029E+02  0.17770000000E+01 0. -1.
</event>
<event>
 6   1  0.3798113E-04  0.5027693E+03  0.7546771E-02  0.9393634E-01
        -11   -1    0    0    0    0  0.00000000000E+00  0.00000000000E+00  0.50000000000E+03  0.50000000000E+03  0.00000000000E+00 0. -1.
         11   -1    0    0    0    0 -0.00000000000E+00 -0.00000000000E+00 -0.50000000000E+03  0.50000000000E+03  0.00000000000E+00 0. -1.
        -11    1    1    2    0    0 -0.10111728883E+02 -0.47333031276E+01  0.49710536151E+03  0.49723072276E+03  0.00000000000E+00 0. -1.
         11    1    1    2    0    0  0.49972973364E+01 -0.68381275639E+01 -0.48144898551E+03  0.48152347671E+03  0.00000000000E+00 0. -1.
        -15    1    1    2    0    0  0.20077600082E+01  0.76987282241E+00 -0.46011632163E+01  0.53807282367E+01  0.17770000000E+01 0. -1.
         15    1    1    2    0    0  0.31066715379E+01  0.10801557869E+02 -0.11055212777E+02  0.15865072297E+02  0.17770000000E+01 0.  1.
</event>
<event>
 6   1  0.3798113E-04  0.5004561E+03  0.7546771E-02  0.9398790E-01
        -11   -1    0    0    0    0  0.00000000000E+00  0.00000000000E+00  0.50000000000E+03  0.50000000000E+03  0.00000000000E+00 0. -1.
         11   -1    0    0    0    0 -0.00000000000E+00 -0.00000000000E+00 -0.50000000000E+03  0.50000000000E+03  0.00000000000E+00 0.  1.
        -11    1    1    2    0    0 -0.71409027776E+01  0.20068361558E+01  0.49948887528E+03  0.49954394843E+03  0.00000000000E+00 0. -1.
         11    1    1    2    0    0  0.67720980826E+01  0.40036418375E+01 -0.46439309595E+03  0.46445972702E+03  0.00000000000E+00 0.  1.
        -15    1    1    2    0    0 -0.13264932080E+01 -0.42766595370E+01 -0.25105420237E+02  0.25563435906E+02  0.17770000000E+01 0. -1.
         15    1    1    2    0    0  0.16952979030E+01 -0.17338184563E+01 -0.99903590968E+01  0.10432888637E+02  0.17770000000E+01 0.  1.
</event>
<event>
 6   1  0.3798113E-04  0.5003093E+03  0.7546771E-02  0.9399118E-01
        -11   -1    0    0    0    0  0.00000000000E+00  0.00000000000E+00  0.50000000000E+03  0.50000000000E+03  0.00000000000E+00 0.  1.
         11   -1    0    0    0    0 -0.00000000000E+00 -0.00000000000E+00 -0.50000000000E+03  0.50000000000E+03  0.00000000000E+00 0. -1.
        -11    1    1    2    0    0 -0.53029713035E+01  0.50153348306E+01  0.49963739243E+03  0.49969070334E+03  0.00000000000E+00 0.  1.
         11    1    1    2    0    0 -0.55383674913E+01 -0.94464056624E+01 -0.27284902064E+03  0.27306866564E+03  0.00000000000E+00 0. -1.
        -15    1    1    2    0    0  0.10460934052E+02  0.36630892670E+01 -0.14703874020E+03  0.14746660033E+03  0.17770000000E+01 0.  1.
         15    1    1    2    0    0  0.38040474315E+00  0.76798156479E+00 -0.79749631595E+02  0.79774030687E+02  0.17770000000E+01 0. -1.
</event>
<event>
 6   1  0.3798113E-04  0.5003591E+03  0.7546771E-02  0.9399007E-01
        -11   -1    0    0    0    0  0.00000000000E+00  0.00000000000E+00  0.50000000000E+03  0.50000000000E+03  0.00000000000E+00 0. -1.
         11   -1    0    0    0    0 -0.00000000000E+00 -0.00000000000E+00 -0.50000000000E+03  0.50000000000E+03  0.00000000000E+00 0. -1.
        -11    1    1    2    0    0 -0.39672161490E+00  0.74672731790E+01  0.81137715486E+02  0.81481571113E+02  0.00000000000E+00 0. -1.
         11    1    1    2    0    0 -0.38528917359E+02 -0.23971866342E+02 -0.49757605811E+03  0.49964093252E+03  0.00000000000E+00 0. -1.
        -15    1    1    2    0    0  0.34512283173E+02  0.15543467931E+02  0.39838538943E+03  0.40018342460E+03  0.17770000000E+01 0. -1.
         15    1    1    2    0    0  0.44133558003E+01  0.96112523293E+00  0.18052953189E+02  0.18694071760E+02  0.17770000000E+01 0.  1.
</event>
<event>
 6   1  0.3798113E-04  0.5004534E+03  0.7546771E-02  0.9398796E-01
        -11   -1    0    0    0    0  0.00000000000E+00  0.00000000000E+00  0.50000000000E+03  0.50000000000E+03  0.00000000000E+00 0.  1.
         11   -1    0    0    0    0 -0.00000000000E+00 -0.00000000000E+00 -0.50000000000E+03  0.50000000000E+03  0.00000000000E+00 0.  1.
        -11    1    1    2    0    0 -0.21576675194E+01  0.44982869248E+01  0.57529390738E+02  0.57745310745E+02  0.00000000000E+00 0.  1.
         11    1    1    2    0    0 -0.68312298577E+01  0.12253437247E+01 -0.49949837259E+03  0.49954658580E+03  0.00000000000E+00 0.  1.
        -15    1    1    2    0    0  0.30597281466E+01  0.39016006460E+01  0.23514608706E+02  0.24097281496E+02  0.17770000000E+01 0. -1.
         15    1    1    2    0    0  0.59291692304E+01 -0.96252312955E+01  0.41845437314E+03  0.41861082196E+03  0.17770000000E+01 0.  1.
</event>
<event>
 6   1  0.3798113E-04  0.5219561E+03  0.7546771E-02  0.9351978E-01
        -11   -1    0    0    0    0  0.00000000000E+00  0.00000000000E+00  0.50000000000E+03  0.50000000000E+03  0.00000000000E+00 0.  1.
         11   -1    0    0    0    0 -0.00000000000E+00 -0.00000000000E+00 -0.50000000000E+03  0.50000000000E+03  0.00000000000E+00 0. -1.
        -11    1    1    2    0    0  0.11287268934E+03 -0.91750769590E+02  0.29026274134E+03  0.32467045867E+03  0.00000000000E+00 0.  1.
         11    1    1    2    0    0 -0.54621400492E+02  0.49662702788E+02 -0.47230927520E+03  0.47804386084E+03  0.00000000000E+00 0. -1.
        -15    1    1    2    0    0 -0.28624477443E+02  0.64454218706E+01  0.62904182099E+02  0.69433407136E+02  0.17770000000E+01 0. -1.
         15    1    1    2    0    0 -0.29626811404E+02  0.35642644932E+02  0.11914235176E+03  0.12785227336E+03  0.17770000000E+01 0.  1.
</event>
<event>
 6   1  0.3798113E-04  0.5033223E+03  0.7546771E-02  0.9392406E-01
        -11   -1    0    0    0    0  0.00000000000E+00  0.00000000000E+00  0.50000000000E+03  0.50000000000E+03  0.00000000000E+00 0. -1.
         11   -1    0    0    0    0 -0.00000000000E+00 -0.00000000000E+00 -0.50000000000E+03  0.50000000000E+03  0.00000000000E+00 0. -1.
        -11    1    1    2    0    0  0.17560930830E+01 -0.13330421428E+02  0.46921341351E+03  0.46940601980E+03  0.00000000000E+00 0. -1.
         11    1    1    2    0    0 -0.54814948486E+01 -0.51471826877E+01 -0.49662078033E+03  0.49667770207E+03  0.00000000000E+00 0. -1.
        -15    1    1    2    0    0 -0.21638999325E+00  0.10011520841E+02  0.17088621722E+02  0.19886077932E+02  0.17770000000E+01 0.  1.
         15    1    1    2    0    0  0.39417917589E+01  0.84660832752E+01  0.10318745098E+02  0.14030200201E+02  0.17770000000E+01 0. -1.
</event>
<event>
 6   1  0.3798113E-04  0.5055317E+03  0.7546771E-02  0.9387517E-01
        -11   -1    0    0    0    0  0.00000000000E+00  0.00000000000E+00  0.50000000000E+03  0.50000000000E+03  0.00000000000E+00 0. -1.
         11   -1    0    0    0    0 -0.00000000000E+00 -0.00000000000E+00 -0.50000000000E+03  0.50000000000E+03  0.00000000000E+00 0.  1.
        -11    1    1    2    0    0  0.66162907670E+02 -0.61158641088E+02  0.48619029617E+03  0.49446831428E+03  0.00000000000E+00 0. -1.
         11    1    1    2    0    0 -0.46592348731E+01  0.54590134951E+01 -0.21268219367E+03  0.21280325374E+03  0.00000000000E+00 0.  1.
        -15    1    1    2    0    0  0.95554180206E+01 -0.45976637857E+01 -0.21592858818E+02  0.24121646021E+02  0.17770000000E+01 0. -1.
         15    1    1    2    0    0 -0.71059090817E+02  0.60297291378E+02 -0.25191524369E+03  0.26860678596E+03  0.17770000000E+01 0.  1.
</event>
<event>
 6   1  0.3798113E-04  0.4905056E+03  0.7546771E-02  0.9421308E-01
        -11   -1    0    0    0    0  0.00000000000E+00  0.00000000000E+00  0.50000000000E+03  0.50000000000E+03  0.00000000000E+00 0.  1.
         11   -1    0    0    0    0 -0.00000000000E+00 -0.00000000000E+00 -0.50000000000E+03  0.50000000000E+03  0.00000000000E+00 0.  1.
        -11    1    1    2    0    0 -0.71356459896E+01 -0.48656226936E+01  0.48791564784E+03  0.48799208102E+03  0.00000000000E+00 0.  1.
         11    1    1    2    0    0 -0.58935782288E+01  0.92291821013E+01 -0.49300698860E+03  0.49312858655E+03  0.00000000000E+00 0.  1.
        -15    1    1    2    0    0  0.10277730750E+02 -0.17707890197E+01 -0.18867513599E+01  0.10746394875E+02  0.17770000000E+01 0. -1.
         15    1    1    2    0    0  0.27514934687E+01 -0.25927703881E+01  0.69780921178E+01  0.81329375504E+01  0.17770000000E+01 0.  1.
</event>
<event>
 6   1  0.3798113E-04  0.4922466E+03  0.7546771E-02  0.9417328E-01
        -11   -1    0    0    0    0  0.00000000000E+00  0.00000000000E+00  0.50000000000E+03  0.50000000000E+03  0.00000000000E+00 0. -1.
         11   -1    0    0    0    0 -0.00000000000E+00 -0.00000000000E+00 -0.50000000000E+03  0.50000000000E+03  0.00000000000E+00 0.  1.
        -11    1    1    2    0    0  0.13461960660E+02  0.13389402262E+02  0.49285016275E+03  0.49321575746E+03  0.00000000000E+00 0. -1.
         11    1    1    2    0    0 -0.29505531905E+01 -0.63148478561E+01 -0.49131079349E+03  0.49136023330E+03  0.00000000000E+00 0.  1.
        -15    1    1    2    0    0 -0.74082344171E+01 -0.51321336494E+01  0.26732223470E+01  0.95668479496E+01  0.17770000000E+01 0. -1.
         15    1    1    2    0    0 -0.31031730522E+01 -0.19424207570E+01 -0.42125916103E+01  0.58571612975E+01  0.17770000000E+01 0.  1.
</event>
<event>
 6   1  0.3798113E-04  0.5030417E+03  0.7546771E-02  0.9393029E-01
        -11   -1    0    0    0    0  0.00000000000E+00  0.00000000000E+00  0.50000000000E+03  0.50000000000E+03  0.00000000000E+00 0. -1.
         11   -1    0    0    0    0 -0.00000000000E+00 -0.00000000000E+00 -0.50000000000E+03  0.50000000000E+03  0.00000000000E+00 0.  1.
        -11    1    1    2    0    0  0.14691316636E+02  0.79244716855E+01  0.46223533164E+03  0.46253662975E+03  0.00000000000E+00 0. -1.
         11    1    1    2    0    0  0.52422192938E+01 -0.67411481776E+01 -0.49688493566E+03  0.49695831136E+03  0.00000000000E+00 0.  1.
        -15    1    1    2    0    0 -0.57038061775E+01  0.16105650806E+01  0.80018823379E+01  0.10115096378E+02  0.17770000000E+01 0. -1.
         15    1    1    2    0    0 -0.14229729752E+02 -0.27938885884E+01  0.26647721678E+02  0.30389962519E+02  0.17770000000E+01 0.  1.
</event>
<event>
 6   1  0.3798113E-04  0.5004040E+03  0.7546771E-02  0.9398906E-01
        -11   -1    0    0    0    0  0.00000000000E+00  0.00000000000E+00  0.50000000000E+03  0.50000000000E+03  0.00000000000E+00 0.  1.
         11   -1    0    0    0    0 -0.00000000000E+00 -0.00000000000E+00 -0.50000000000E+03  0.50000000000E+03  0.00000000000E+00 0. -1.
        -11    1    1    2    0    0  0.87184495277E+01 -0.16407312369E+01  0.49951721324E+03  0.49959598645E+03  0.00000000000E+00 0.  1.
         11    1    1    2    0    0  0.45992715340E+01 -0.48063945692E+01 -0.31843087341E+03  0.31850035458E+03  0.00000000000E+00 0. -1.
        -15    1    1    2    0    0 -0.82544061141E+01  0.54675756133E+01 -0.15041935326E+03  0.15075532882E+03  0.17770000000E+01 0. -1.
         15    1    1    2    0    0 -0.50633149476E+01  0.97955019279E+00 -0.30666986571E+02  0.31148330150E+02  0.17770000000E+01 0.  1.
</event>
<event>
 6   1  0.3798113E-04  0.5007609E+03  0.7546771E-02  0.9398109E-01
        -11   -1    0    0    0    0  0.00000000000E+00  0.00000000000E+00  0.50000000000E+03  0.50000000000E+03  0.00000000000E+00 0.  1.
         11   -1    0    0    0    0 -0.00000000000E+00 -0.00000000000E+00 -0.50000000000E+03  0.50000000000E+03  0.00000000000E+00 0. -1.
        -11    1    1    2    0    0 -0.12968279505E+02 -0.36277457334E+01  0.49905743622E+03  0.49923908247E+03  0.00000000000E+00 0.  1.
         11    1    1    2    0    0  0.47301903058E+01 -0.37717787945E+01 -0.43788797242E+03  0.43792976310E+03  0.00000000000E+00 0. -1.
        -15    1    1    2    0    0  0.18372183991E+01  0.54870057522E+00 -0.32712673159E+02  0.32816964485E+02  0.17770000000E+01 0.  1.
         15    1    1    2    0    0  0.64008708003E+01  0.68508239526E+01 -0.28456790643E+02  0.30014189953E+02  0.17770000000E+01 0.  1.
</event>
<event>
 6   1  0.3798113E-04  0.5024114E+03  0.7546771E-02  0.9394430E-01
        -11   -1    0    0    0    0  0.00000000000E+00  0.00000000000E+00  0.50000000000E+03  0.50000000000E+03  0.00000000000E+00 0. -1.
         11   -1    0    0    0    0 -0.00000000000E+00 -0.00000000000E+00 -0.50000000000E+03  0.50000000000E+03  0.00000000000E+00 0.  1.
        -11    1    1    2    0    0 -0.39759129871E+01 -0.81308082025E+01  0.49750624385E+03  0.49758856558E+03  0.00000000000E+00 0. -1.
         11    1    1    2    0    0  0.11211660864E+02  0.10004971213E+01 -0.48594005566E+03  0.48607040646E+03  0.00000000000E+00 0.  1.
        -15    1    1    2    0    0 -0.34141743369E+01  0.60763232398E+01 -0.69453605214E+01  0.99987025303E+01  0.17770000000E+01 0. -1.
         15    1    1    2    0    0 -0.38215735401E+01  0.10539878414E+01 -0.46208276597E+01  0.63423254373E+01  0.17770000000E+01 0.  1.
</event>
<event>
 6   1  0.3798113E-04  0.5006493E+03  0.7546771E-02  0.9398358E-01
        -11   -1    0    0    0    0  0.00000000000E+00  0.00000000000E+00  0.50000000000E+03  0.50000000000E+03  0.00000000000E+00 0.  1.
         11   -1    0    0    0    0 -0.00000000000E+00 -0.00000000000E+00 -0.50000000000E+03  0.50000000000E+03  0.00000000000E+00 0.  1.
        -11    1    1    2    0    0 -0.99692049085E+00  0.10584911685E+02  0.35462086699E+03  0.35478020450E+03  0.00000000000E+00 0.  1.
         11    1    1    2    0    0 -0.11441589284E+02 -0.64525036914E+01 -0.49917792652E+03  0.49935072554E+03  0.00000000000E+00 0.  1.
        -15    1    1    2    0    0  0.28891601081E+01 -0.81939822833E+01  0.74341399491E+02  0.74868484686E+02  0.17770000000E+01 0. -1.
         15    1    1    2    0    0  0.95493496671E+01  0.40615742895E+01  0.70215660042E+02  0.71000585272E+02  0.17770000000E+01 0.  1.
</event>
<event>
 6   1  0.3798113E-04  0.5012145E+03  0.7546771E-02  0.9397096E-01
        -11   -1    0    0    0    0  0.00000000000E+00  0.00000000000E+00  0.50000000000E+03  0.50000000000E+03  0.00000000000E+00 0. -1.
         11   -1    0    0    0    0 -0.00000000000E+00 -0.00000000000E+00 -0.50000000000E+03  0.50000000000E+03  0.00000000000E+00 0.  1.
        -11    1    1    2    0    0 -0.15165305166E+00  0.12110802166E+02  0.49863844733E+03  0.49878552072E+03  0.00000000000E+00 0. -1.
         11    1    1    2    0    0  0.12519269268E+01  0.58578410473E+01 -0.39071148658E+03  0.39075740220E+03  0.00000000000E+00 0.  1.
        -15    1    1    2    0    0 -0.15319490533E+01 -0.26697700802E+01 -0.60196947066E+02  0.60301780283E+02  0.17770000000E+01 0. -1.
         15    1    1    2    0    0  0.43167517811E+00 -0.15298873133E+02 -0.47730013676E+02  0.50155296800E+02  0.17770000000E+01 0. -1.
</event>
<event>
 6   1  0.3798113E-04  0.5001078E+03  0.7546771E-02  0.9399568E-01
        -11   -1    0    0    0    0  0.00000000000E+00  0.00000000000E+00  0.50000000000E+03  0.50000000000E+03  0.00000000000E+00 0.  1.
         11   -1    0    0    0    0 -0.00000000000E+00 -0.00000000000E+00 -0.50000000000E+03  0.50000000000E+03  0.00000000000E+00 0.  1.
        -11    1    1    2    0    0 -0.18873129450E+02 -0.12893157286E+02  0.45619221521E+03  0.45676445324E+03  0.00000000000E+00 0.  1.
         11    1    1    2    0    0  0.20891880653E+02  0.15380848877E+02 -0.49921852066E+03  0.49989216093E+03  0.00000000000E+00 0.  1.
        -15    1    1    2    0    0  0.72423743569E-01 -0.74431489083E+00  0.19135706926E+02  0.19232583249E+02  0.17770000000E+01 0. -1.
         15    1    1    2    0    0 -0.20911749470E+01 -0.17433766998E+01  0.23890598518E+02  0.24110802590E+02  0.17770000000E+01 0. -1.
</event>
<event>
 6   1  0.3798113E-04  0.5015534E+03  0.7546771E-02  0.9396340E-01
        -11   -1    0    0    0    0  0.00000000000E+00  0.00000000000E+00  0.50000000000E+03  0.50000000000E+03  0.00000000000E+00 0. -1.
         11   -1    0    0    0    0 -0.00000000000E+00 -0.00000000000E+00 -0.50000000000E+03  0.50000000000E+03  0.00000000000E+00 0.  1.
        -11    1    1    2    0    0  0.16433838599E+02  0.15173109424E+02  0.64818457828E+02  0.68569138655E+02  0.00000000000E+00 0. -1.
         11    1    1    2    0    0 -0.14315199313E+02 -0.25405072108E+02 -0.49759282697E+03  0.49844655087E+03  0.00000000000E+00 0.  1.
        -15    1    1    2    0    0 -0.17463222077E+01  0.23294183561E+01  0.46531324446E+02  0.46656164811E+02  0.17770000000E+01 0.  1.
         15    1    1    2    0    0 -0.37231707807E+00  0.79025443281E+01  0.38624304470E+03  0.38632814567E+03  0.17770000000E+01 0. -1.
</event>
<event>
 6   1  0.3798113E-04  0.5036145E+03  0.7546771E-02  0.9391758E-01
        -11   -1    0    0    0    0  0.00000000000E+00  0.00000000000E+00  0.50000000000E+03  0.50000000000E+03  0.00000000000E+00 0.  1.
         11   -1    0    0    0    0 -0.00000000000E+00 -0.00000000000E+00 -0.50000000000E+03  0.50000000000E+03  0.00000000000E+00 0.  1.
        -11    1    1    2    0    0 -0.14652525871E+02 -0.47576874854E+01  0.45968679319E+03  0.45994486620E+03  0.00000000000E+00 0.  1.
         11    1    1    2    0    0 -0.69286296309E+01  0.27432301784E+01 -0.49632952904E+03  0.49638546778E+03  0.00000000000E+00 0.  1.
        -15    1    1    2    0    0  0.18212380970E+02  0.21838101123E+01  0.34923267166E+02  0.39487367166E+02  0.17770000000E+01 0.  1.
         15    1    1    2    0    0  0.33687745323E+01 -0.16935280520E+00  0.17194686845E+01  0.41822988629E+01  0.17770000000E+01 0. -1.
</event>
<event>
 6   1  0.3798113E-04  0.5011826E+03  0.7546771E-02  0.9397167E-01
        -11   -1    0    0    0    0  0.00000000000E+00  0.00000000000E+00  0.50000000000E+03  0.50000000000E+03  0.00000000000E+00 0.  1.
         11   -1    0    0    0    0 -0.00000000000E+00 -0.00000000000E+00 -0.50000000000E+03  0.50000000000E+03  0.00000000000E+00 0.  1.
        -11    1    1    2    0    0 -0.65660508468E+01  0.36498266615E+01  0.49876079447E+03  0.49881736574E+03  0.00000000000E+00 0.  1.
         11    1    1    2    0    0  0.35456341380E+00  0.64258102685E+01 -0.46509496969E+03  0.46513949261E+03  0.00000000000E+00 0.  1.
        -15    1    1    2    0    0  0.20261233074E+01 -0.13722256350E+01 -0.90020337725E+01  0.94964477512E+01  0.17770000000E+01 0. -1.
         15    1    1    2    0    0  0.41853641256E+01 -0.87034112950E+01 -0.24663791011E+02  0.26546693901E+02  0.17770000000E+01 0.  1.
</event>
<event>
 6   1  0.3798113E-04  0.5018382E+03  0.7546771E-02  0.9395706E-01
        -11   -1    0    0    0    0  0.00000000000E+00  0.00000000000E+00  0.50000000000E+03  0.50000000000E+03  0.00000000000E+00 0. -1.
         11   -1    0    0    0    0 -0.00000000000E+00 -0.00000000000E+00 -0.50000000000E+03  0.50000000000E+03  0.00000000000E+00 0. -1.
        -11    1    1    2    0    0 -0.18893712277E+02 -0.15373519294E+02  0.56201165806E+02  0.61252661142E+02  0.00000000000E+00 0. -1.
         11    1    1    2    0    0  0.35732859044E+02  0.22763506243E+02 -0.49635684294E+03  0.49816175081E+03  0.00000000000E+00 0. -1.
        -15    1    1    2    0    0 -0.68529144745E+01 -0.54346636627E+00  0.13870288692E+03  0.13888450728E+03  0.17770000000E+01 0. -1.
         15    1    1    2    0    0 -0.99862322916E+01 -0.68465205833E+01  0.30145279021E+03  0.30170108077E+03  0.17770000000E+01 0. -1.
</event>
<event>
 6   1  0.3798113E-04  0.5014417E+03  0.7546771E-02  0.9396590E-01
        -11   -1    0    0    0    0  0.00000000000E+00  0.00000000000E+00  0.50000000000E+03  0.50000000000E+03  0.00000000000E+00 0.  1.
         11   -1    0    0    0    0 -0.00000000000E+00 -0.00000000000E+00 -0.50000000000E+03  0.50000000000E+03  0.00000000000E+00 0. -1.
        -11    1    1    2    0    0  0.54390975135E+01  0.91459895089E+01  0.47067198876E+03  0.47079226195E+03  0.00000000000E+00 0.  1.
         11    1    1    2    0    0  0.49439390442E+01 -0.58277453157E+01 -0.49849973078E+03  0.49855830826E+03  0.00000000000E+00 0. -1.
        -15    1    1    2    0    0 -0.64426710703E+01 -0.19033572931E+01  0.22955492134E+02  0.23984226642E+02  0.17770000000E+01 0.  1.
         15    1    1    2    0    0 -0.39403654874E+01 -0.14148869001E+01  0.48722498850E+01  0.66652031519E+01  0.17770000000E+01 0. -1.
</event>
<event>
 6   1  0.3798113E-04  0.5019347E+03  0.7546771E-02  0.9395491E-01
        -11   -1    0    0    0    0  0.00000000000E+00  0.00000000000E+00  0.50000000000E+03  0.50000000000E+03  0.00000000000E+00 0. -1.
         11   -1    0    0    0    0 -0.00000000000E+00 -0.00000000000E+00 -0.50000000000E+03  0.50000000000E+03  0.00000000000E+00 0.  1.
        -11    1    1    2    0    0 -0.76453722040E+01  0.30306470061E+02  0.49708364951E+03  0.49806534556E+03  0.00000000000E+00 0. -1.
         11    1    1    2    0    0 -0.50962301053E+01  0.43932281227E+01 -0.26842926259E+03  0.26851357699E+03  0.00000000000E+00 0.  1.
        -15    1    1    2    0    0 -0.85455264647E+00 -0.25084505445E+01 -0.10122235284E+03  0.10127262724E+03  0.17770000000E+01 0. -1.
         15    1    1    2    0    0  0.13596154956E+02 -0.32191247639E+02 -0.12743203408E+03  0.13214845021E+03  0.17770000000E+01 0.  1.
</event>
<event>
 6   1  0.3798113E-04  0.5198681E+03  0.7546771E-02  0.9356419E-01
        -11   -1    0    0    0    0  0.00000000000E+00  0.00000000000E+00  0.50000000000E+03  0.50000000000E+03  0.00000000000E+00 0.  1.
         11   -1    0    0    0    0 -0.00000000000E+00 -0.00000000000E+00 -0.50000000000E+03  0.50000000000E+03  0.00000000000E+00 0. -1.
        -11    1    1    2    0    0  0.11171751854E+02 -0.47861458978E+02  0.40418366904E+03  0.40716085963E+03  0.00000000000E+00 0.  1.
         11    1    1    2    0    0  0.10821074462E+01 -0.16947587760E+02 -0.47983151719E+03  0.48013193663E+03  0.00000000000E+00 0. -1.
        -15    1    1    2    0    0 -0.20821199020E+02  0.60366198710E+02  0.79656139407E+02  0.10210709353E+03  0.17770000000E+01 0.  1.
         15    1    1    2    0    0  0.85673397195E+01  0.44428480279E+01 -0.40082912644E+01  0.10600110204E+02  0.17770000000E+01 0. -1.
</event>
<event>
 6   1  0.3798113E-04  0.5015634E+03  0.7546771E-02  0.9396318E-01
        -11   -1    0    0    0    0  0.00000000000E+00  0.00000000000E+00  0.50000000000E+03  0.50000000000E+03  0.00000000000E+00 0.  1.
         11   -1    0    0    0    0 -0.00000000000E+00 -0.00000000000E+00 -0.50000000000E+03  0.50000000000E+03  0.00000000000E+00 0. -1.
        -11    1    1    2    0    0 -0.15049656816E+02 -0.12678213495E+02  0.37146934002E+03  0.37199018783E+03  0.00000000000E+00 0.  1.
         11    1    1    2    0    0 -0.64084494628E+01  0.51420245610E+01 -0.49836892489E+03  0.49843664987E+03  0.00000000000E+00 0. -1.
        -15    1    1    2    0    0  0.66093374983E+01 -0.23959329691E+01  0.54534679878E+02  0.55014660549E+02  0.17770000000E+01 0.  1.
         15    1    1    2    0    0  0.14848768781E+02  0.99321219032E+01  0.72364904993E+02  0.74558501751E+02  0.17770000000E+01 0. -1.
</event>
<event>
 6   1  0.3798113E-04  0.5005877E+03  0.7546771E-02  0.9398496E-01
        -11   -1    0    0    0    0  0.00000000000E+00  0.00000000000E+00  0.50000000000E+03  0.50000000000E+03  0.00000000000E+00 0.  1.
         11   -1    0    0    0    0 -0.00000000000E+00 -0.00000000000E+00 -0.50000000000E+03  0.50000000000E+03  0.00000000000E+00 0.  1.
        -11    1    1    2    0    0 -0.27151459672E+02 -0.97048391038E+00  0.49867277511E+03  0.49941233489E+03  0.00000000000E+00 0.  1.
         11    1    1    2    0    0  0.19879053453E+02 -0.13628680341E+02 -0.23022810619E+03  0.23148628161E+03  0.00000000000E+00 0.  1.
        -15    1    1    2    0    0 -0.16908561966E+01  0.34319858291E+01 -0.75635454948E+02  0.75753001891E+02  0.17770000000E+01 0.  1.
         15    1    1    2    0    0  0.89632624164E+01  0.11167178423E+02 -0.19280921397E+03  0.19334838160E+03  0.17770000000E+01 0. -1.
</event>
<event>
 6   1  0.3798113E-04  0.5029447E+03  0.7546771E-02  0.9393245E-01
        -11   -1    0    0    0    0  0.00000000000E+00  0.00000000000E+00  0.50000000000E+03  0.50000000000E+03  0.00000000000E+00 0. -1.
         11   -1    0    0    0    0 -0.00000000000E+00 -0.00000000000E+00 -0.50000000000E+03  0.50000000000E+03  0.00000000000E+00 0.  1.
        -11    1    1    2    0    0  0.50568536521E+01 -0.51067704250E+01  0.47639199123E+03  0.47644619862E+03  0.00000000000E+00 0. -1.
         11    1    1    2    0    0 -0.32509368854E+01  0.90653505815E+01 -0.49696203718E+03  0.49705534458E+03  0.00000000000E+00 0.  1.
        -15    1    1    2    0    0 -0.23983878185E+01  0.39603764197E+01  0.67686981791E+00  0.50052699491E+01  0.17770000000E+01 0. -1.
         15    1    1    2    0    0  0.59247105180E+00 -0.79189565761E+01  0.19893176137E+02  0.21493186852E+02  0.17770000000E+01 0.  1.
</event>
<event>
 6   1  0.3798113E-04  0.4816426E+03  0.7546771E-02  0.9441849E-01
        -11   -1    0    0    0    0  0.00000000000E+00  0.00000000000E+00  0.50000000000E+03  0.50000000000E+03  0.00000000000E+00 0. -1.
         11   -1    0    0    0    0 -0.00000000000E+00 -0.00000000000E+00 -0.50000000000E+03  0.50000000000E+03  0.00000000000E+00 0. -1.
        -11    1    1    2    0    0 -0.49544929375E+01 -0.26739642073E+02  0.47343624581E+03  0.47421665334E+03  0.00000000000E+00 0. -1.
         11    1    1    2    0    0  0.13583807043E+02 -0.21899334256E+01 -0.48948164921E+03  0.48967499480E+03  0.00000000000E+00 0. -1.
        -15    1    1    2    0    0 -0.56298905157E+01  0.42505362304E+01  0.22161956814E+01  0.76047339049E+01  0.17770000000E+01 0.  1.
         15    1    1    2    0    0 -0.29994235894E+01  0.24679039268E+02  0.13829207719E+02  0.28503617949E+02  0.17770000000E+01 0. -1.
</event>
<event>
 6   1  0.3798113E-04  0.4810510E+03  0.7546771E-02  0.9443237E-01
        -11   -1    0    0    0    0  0.00000000000E+00  0.00000000000E+00  0.50000000000E+03  0.50000000000E+03  0.00000000000E+00 0.  1.
         11   -1    0    0    0    0 -0.00000000000E+00 -0.00000000000E+00 -0.50000000000E+03  0.50000000000E+03  0.00000000000E+00 0.  1.
        -11    1    1    2    0    0 -0.14981683109E+02  0.12269069545E+01  0.47724696073E+03  0.47748363077E+03  0.00000000000E+00 0.  1.
         11    1    1    2    0    0 -0.32736268061E+01 -0.58047614465E+01 -0.48478625181E+03  0.48483205529E+03  0.00000000000E+00 0.  1.
        -15    1    1    2    0    0  0.98721117035E+01  0.91004445127E+01  0.18581424832E+02  0.22993559046E+02  0.17770000000E+01 0. -1.
         15    1    1    2    0    0  0.83831982117E+01 -0.45225900207E+01 -0.11042133750E+02  0.14690754899E+02  0.17770000000E+01 0.  1.
</event>
<event>
 6   1  0.3798113E-04  0.5077985E+03  0.7546771E-02  0.9382527E-01
        -11   -1    0    0    0    0  0.00000000000E+00  0.00000000000E+00  0.50000000000E+03  0.50000000000E+03  0.00000000000E+00 0. -1.
         11   -1    0    0    0    0 -0.00000000000E+00 -0.00000000000E+00 -0.50000000000E+03  0.50000000000E+03  0.00000000000E+00 0. -1.
        -11    1    1    2    0    0  0.23745549425E+02 -0.19890477918E+02  0.43426871555E+03  0.43537202429E+03  0.00000000000E+00 0. -1.
         11    1    1    2    0    0 -0.23643771573E+01  0.20341039149E+02 -0.49177528014E+03  0.49220145704E+03  0.00000000000E+00 0. -1.
        -15    1    1    2    0    0 -0.70594193782E+01 -0.12895850730E+02  0.49654326846E+02  0.51815521531E+02  0.17770000000E+01 0.  1.
         15    1    1    2    0    0 -0.14321752889E+02  0.12445289498E+02  0.78522377443E+01  0.20610997140E+02  0.17770000000E+01 0. -1.
</event>
<event>
 6   1  0.3798113E-04  0.5003794E+03  0.7546771E-02  0.9398961E-01
        -11   -1    0    0    0    0  0.00000000000E+00  0.00000000000E+00  0.50000000000E+03  0.50000000000E+03  0.00000000000E+00 0. -1.
         11   -1    0    0    0    0 -0.00000000000E+00 -0.00000000000E+00 -0.50000000000E+03  0.50000000000E+03  0.00000000000E+00 0. -1.
        -11    1    1    2    0    0  0.98992078149E+01 -0.21061355226E+01  0.36274523522E+03  0.36288639517E+03  0.00000000000E+00 0. -1.
         11    1    1    2    0    0 -0.22986171797E+01  0.76116893013E+01 -0.49955734569E+03  0.49962061916E+03  0.00000000000E+00 0. -1.
        -15    1    1    2    0    0 -0.35253857937E+01 -0.33378527548E+01  0.11545217801E+03  0.11556787072E+03  0.17770000000E+01 0. -1.
         15    1    1    2    0    0 -0.40752048415E+01 -0.21677010240E+01  0.21359932456E+02  0.21925114955E+02  0.17770000000E+01 0.  1.
</event>
<event>
 6   1  0.3798113E-04  0.5000939E+03  0.7546771E-02  0.9399600E-01
        -11   -1    0    0    0    0  0.00000000000E+00  0.00000000000E+00  0.50000000000E+03  0.50000000000E+03  0.00000000000E+00 0. -1.
         11   -1    0    0    0    0 -0.00000000000E+00 -0.00000000000E+00 -0.50000000000E+03  0.50000000000E+03  0.00000000000E+00 0. -1.
        -11    1    1    2    0    0  0.89580223508E+01  0.35431848465E+00  0.25173710425E+03  0.25189668788E+03  0.00000000000E+00 0. -1.
         11    1    1    2    0    0 -0.71220605436E+01 -0.83730261164E+00 -0.49985464714E+03  0.49990608426E+03  0.00000000000E+00 0. -1.
        -15    1    1    2    0    0 -0.73432942081E+00  0.26469403507E+01  0.13556599661E+03  0.13560546707E+03  0.17770000000E+01 0.  1.
         15    1    1    2    0    0 -0.11016323864E+01 -0.21639562238E+01  0.11255154627E+03  0.11259176079E+03  0.17770000000E+01 0. -1.
</event>
<event>
 6   1  0.3798113E-04  0.5117877E+03  0.7546771E-02  0.9373813E-01
        -11   -1    0    0    0    0  0.00000000000E+00  0.00000000000E+00  0.50000000000E+03  0.50000000000E+03  0.00000000000E+00 0.  1.
         11   -1    0    0    0    0 -0.00000000000E+00 -0.00000000000E+00 -0.50000000000E+03  0.50000000000E+03  0.00000000000E+00 0. -1.
        -11    1    1    2    0    0  0.45824194980E+02  0.22838908760E+02  0.39689666164E+03  0.40018549776E+03  0.00000000000E+00 0.  1.
         11    1    1    2    0    0 -0.95886535094E+01  0.24828920020E+00 -0.48811805418E+03  0.48821228860E+03  0.00000000000E+00 0. -1.
        -15    1    1    2    0    0 -0.40596091420E+02 -0.10927815811E+02  0.88903146608E+02  0.98358461776E+02  0.17770000000E+01 0.  1.
         15    1    1    2    0    0  0.43605499495E+01 -0.12159382149E+02  0.23182459328E+01  0.13243751860E+02  0.17770000000E+01 0. -1.
</event>
<event>
 6   1  0.3798113E-04  0.5023393E+03  0.7546771E-02  0.9394590E-01
        -11   -1    0    0    0    0  0.00000000000E+00  0.00000000000E+00  0.50000000000E+03  0.50000000000E+03  0.00000000000E+00 0.  1.
         11   -1    0    0    0    0 -0.00000000000E+00 -0.00000000000E+00 -0.50000000000E+03  0.50000000000E+03  0.00000000000E+00 0. -1.
        -11    1    1    2    0    0  0.82969094765E+01  0.23164217333E+02  0.40647099482E+03  0.40721504062E+03  0.00000000000E+00 0.  1.
         11    1    1    2    0    0 -0.75990540274E+01 -0.62004212836E+00 -0.49760225841E+03  0.49766066516E+03  0.00000000000E+00 0. -1.
        -15    1    1    2    0    0 -0.43251673768E+01 -0.12721582902E+02  0.71795868562E+02  0.73064014507E+02  0.17770000000E+01 0.  1.
         15    1    1    2    0    0  0.36273119277E+01 -0.98225923027E+01  0.19335395026E+02  0.22060279716E+02  0.17770000000E+01 0. -1.
</event>
<event>
 6   1  0.3798113E-04  0.5015936E+03  0.7546771E-02  0.9396251E-01
        -11   -1    0    0    0    0  0.00000000000E+00  0.00000000000E+00  0.50000000000E+03  0.50000000000E+03  0.00000000000E+00 0.  1.
         11   -1    0    0    0    0 -0.00000000000E+00 -0.00000000000E+00 -0.50000000000E+03  0.50000000000E+03  0.00000000000E+00 0. -1.
        -11    1    1    2    0    0  0.16074316206E+01 -0.10082857472E+02  0.49830176154E+03  0.49840635370E+03  0.00000000000E+00 0.  1.
         11    1    1    2    0    0  0.73262340128E+01  0.25548885100E+01 -0.46715063374E+03  0.46721506372E+03  0.00000000000E+00 0. -1.
        -15    1    1    2    0    0 -0.36385776681E+01  0.77892981287E+01 -0.21524164457E+02  0.23245640394E+02  0.17770000000E+01 0.  1.
         15    1    1    2    0    0 -0.52950879653E+01 -0.26132916688E+00 -0.96269633485E+01  0.11132942190E+02  0.17770000000E+01 0. -1.
</event>
<event>
 6   1  0.3798113E-04  0.5053112E+03  0.7546771E-02  0.9388003E-01
        -11   -1    0    0    0    0  0.00000000000E+00  0.00000000000E+00  0.50000000000E+03  0.50000000000E+03  0.00000000000E+00 0.  1.
         11   -1    0    0    0    0 -0.00000000000E+00 -0.00000000000E+00 -0.50000000000E+03  0.50000000000E+03  0.00000000000E+00 0. -1.
        -11    1    1    2    0    0  0.11221020947E+02  0.13374721940E+01  0.49455967759E+03  0.49468876563E+03  0.00000000000E+00 0.  1.
         11    1    1    2    0    0  0.76573617160E+01 -0.19925074268E+01 -0.47401647501E+03  0.47408250743E+03  0.00000000000E+00 0. -1.
        -15    1    1    2    0    0 -0.31960371643E+01  0.24525129878E+00 -0.13414043073E+02  0.13905721208E+02  0.17770000000E+01 0.  1.
         15    1    1    2    0    0 -0.15682345499E+02  0.40978393407E+00 -0.71291595121E+01  0.17323005731E+02  0.17770000000E+01 0. -1.
</event>
<event>
 6   1  0.3798113E-04  0.5035617E+03  0.7546771E-02  0.9391875E-01
        -11   -1    0    0    0    0  0.00000000000E+00  0.00000000000E+00  0.50000000000E+03  0.50000000000E+03  0.00000000000E+00 0.  1.
         11   -1    0    0    0    0 -0.00000000000E+00 -0.00000000000E+00 -0.50000000000E+03  0.50000000000E+03  0.00000000000E+00 0. -1.
        -11    1    1    2    0    0 -0.75653489996E+01 -0.16902550492E+02  0.45901416924E+03  0.45938756871E+03  0.00000000000E+00 0.  1.
         11    1    1    2    0    0 -0.76121395135E+01  0.32859073768E+01 -0.49636910963E+03  0.49643834949E+03  0.00000000000E+00 0. -1.
        -15    1    1    2    0    0  0.12038688407E+02  0.14176382893E+02  0.35413859366E+02  0.40039967716E+02  0.17770000000E+01 0. -1.
         15    1    1    2    0    0  0.31388001062E+01 -0.55973977818E+00  0.19410810152E+01  0.41341140808E+01  0.17770000000E+01 0.  1.
</event>
<event>
 6   1  0.3798113E-04  0.5006425E+03  0.7546771E-02  0.9398373E-01
        -11   -1    0    0    0    0  0.00000000000E+00  0.00000000000E+00  0.50000000000E+03  0.50000000000E+03  0.00000000000E+00 0. -1.
         11   -1    0    0    0    0 -0.00000000000E+00 -0.00000000000E+00 -0.50000000000E+03  0.50000000000E+03  0.00000000000E+00 0.  1.
        -11    1    1    2    0    0  0.81166458374E+01  0.35078995331E+02  0.49805771307E+03  0.49935748858E+03  0.00000000000E+00 0. -1.
         11    1    1    2    0    0  0.48883154410E+01  0.15052207865E+01 -0.12037041913E+03  0.12047904017E+03  0.00000000000E+00 0.  1.
        -15    1    1    2    0    0  0.34273057160E+01 -0.13876686553E+02 -0.16547679287E+03  0.16610248512E+03  0.17770000000E+01 0. -1.
         15    1    1    2    0    0 -0.16432266994E+02 -0.22707529565E+02 -0.21221050106E+03  0.21406098614E+03  0.17770000000E+01 0.  1.
</event>
<event>
 6   1  0.3798113E-04  0.5243639E+03  0.7546771E-02  0.9346885E-01
        -11   -1    0    0    0    0  0.00000000000E+00  0.00000000000E+00  0.50000000000E+03  0.50000000000E+03  0.00000000000E+00 0.  1.
         11   -1    0    0    0    0 -0.00000000000E+00 -0.00000000000E+00 -0.50000000000E+03  0.50000000000E+03  0.00000000000E+00 0. -1.
        -11    1    1    2    0    0  0.47118511445E+02  0.11475906699E+03  0.45917304348E+03  0.47563608088E+03  0.00000000000E+00 0.  1.
         11    1    1    2    0    0 -0.19238169243E+02  0.21934007026E+02 -0.32108223175E+03  0.32240503620E+03  0.00000000000E+00 0. -1.
        -15    1    1    2    0    0  0.93637861264E+01 -0.35371770881E+02 -0.19191854834E+02  0.41356108217E+02  0.17770000000E+01 0.  1.
         15    1    1    2    0    0 -0.37244128328E+02 -0.10132130313E+03 -0.11889895689E+03  0.16060277470E+03  0.17770000000E+01 0. -1.
</event>
<event>
 6   1  0.3798113E-04  0.5005923E+03  0.7546771E-02  0.9398485E-01
        -11   -1    0    0    0    0  0.00000000000E+00  0.00000000000E+00  0.50000000000E+03  0.50000000000E+03  0.00000000000E+00 0. -1.
         11   -1    0    0    0    0 -0.00000000000E+00 -0.00000000000E+00 -0.50000000000E+03  0.50000000000E+03  0.00000000000E+00 0. -1.
        -11    1    1    2    0    0 -0.43541325807E+01 -0.97397375774E+01  0.26008660278E+03  0.26030532439E+03  0.00000000000E+00 0. -1.
         11    1    1    2    0    0 -0.86644863858E+01 -0.31788095017E+01 -0.49932242443E+03  0.49940771089E+03  0.00000000000E+00 0. -1.
        -15    1    1    2    0    0 -0.37346665947E+00  0.54410894866E+01  0.34868079736E+02  0.35336746393E+02  0.17770000000E+01 0. -1.
         15    1    1    2    0    0  0.13392085626E+02  0.74774575924E+01  0.20436774191E+03  0.20495021833E+03  0.17770000000E+01 0.  1.
</event>
<event>
 6   1  0.3798113E-04  0.4880910E+03  0.7546771E-02  0.9426858E-01
        -11   -1    0    0    0    0  0.00000000000E+00  0.00000000000E+00  0.50000000000E+03  0.50000000000E+03  0.00000000000E+00 0. -1.
         11   -1    0    0    0    0 -0.00000000000E+00 -0.00000000000E+00 -0.50000000000E+03  0.50000000000E+03  0.00000000000E+00 0.  1.
        -11    1    1    2    0    0 -0.63736974210E+01 -0.65032490450E+01  0.49222274400E+03  0.49230696316E+03  0.00000000000E+00 0. -1.
         11    1    1    2    0    0 -0.10793354297E+02  0.70486812440E+01 -0.48389003922E+03  0.48406172175E+03  0.00000000000E+00 0.  1.
        -15    1    1    2    0    0 -0.20838415196E+01 -0.23998546253E+00 -0.64419539277E+00  0.28235979184E+01  0.17770000000E+01 0.  1.
         15    1    1    2    0    0  0.19250893237E+02 -0.30544673643E+00 -0.76885093880E+01  0.20807717168E+02  0.17770000000E+01 0.  1.
</event>
<event>
 6   1  0.3798113E-04  0.5015156E+03  0.7546771E-02  0.9396425E-01
        -11   -1    0    0    0    0  0.00000000000E+00  0.00000000000E+00  0.50000000000E+03  0.50000000000E+03  0.00000000000E+00 0. -1.
         11   -1    0    0    0    0 -0.00000000000E+00 -0.00000000000E+00 -0.50000000000E+03  0.50000000000E+03  0.00000000000E+00 0.  1.
        -11    1    1    2    0    0  0.86285409309E+01 -0.10665651546E+02  0.56280331089E+02  0.57928261746E+02  0.00000000000E+00 0. -1.
         11    1    1    2    0    0  0.11564543209E+02 -0.54922544236E+01 -0.49831992581E+03  0.49848435480E+03  0.00000000000E+00 0.  1.
        -15    1    1    2    0    0  0.57416621370E+01 -0.68211885825E+00  0.73671294696E+02  0.73919208339E+02  0.17770000000E+01 0.  1.
         15    1    1    2    0    0 -0.25934746277E+02  0.16840024828E+02  0.36836830003E+03  0.36966817512E+03  0.17770000000E+01 0. -1.
</event>
<event>
 6   1  0.3798113E-04  0.5023912E+03  0.7546771E-02  0.9394475E-01
        -11   -1    0    0    0    0  0.00000000000E+00  0.00000000000E+00  0.50000000000E+03  0.50000000000E+03  0.00000000000E+00 0. -1.
         11   -1    0    0    0    0 -0.00000000000E+00 -0.00000000000E+00 -0.50000000000E+03  0.50000000000E+03  0.00000000000E+00 0. -1.
        -11    1    1    2    0    0 -0.70656512033E+02  0.50238208355E+01  0.27304727604E+03  0.28208579621E+03  0.00000000000E+00 0. -1.
         11    1    1    2    0    0  0.65710987318E+02 -0.27521731739E+01 -0.49324339914E+03  0.49760884147E+03  0.00000000000E+00 0. -1.
        -15    1    1    2    0    0  0.43004870954E+01 -0.16531501255E+01  0.15156573462E+03  0.15164615634E+03  0.17770000000E+01 0. -1.
         15    1    1    2    0    0  0.64503761946E+00 -0.61849753615E+00  0.68630388484E+02  0.68659205976E+02  0.17770000000E+01 0. -1.
</event>
<event>
 6   1  0.3798113E-04  0.4603181E+03  0.7546771E-02  0.9493259E-01
        -11   -1    0    0    0    0  0.00000000000E+00  0.00000000000E+00  0.50000000000E+03  0.50000000000E+03  0.00000000000E+00 0. -1.
         11   -1    0    0    0    0 -0.00000000000E+00 -0.00000000000E+00 -0.50000000000E+03  0.50000000000E+03  0.00000000000E+00 0. -1.
        -11    1    1    2    0    0  0.13506713874E+02 -0.73013475646E+02  0.20732331171E+02  0.77092337501E+02  0.00000000000E+00 0. -1.
         11    1    1    2    0    0 -0.74753013927E+01  0.83438228101E+01 -0.46892846785E+03  0.46906226395E+03  0.00000000000E+00 0. -1.
        -15    1    1    2    0    0 -0.29049517036E+00  0.41512691307E+02  0.36245916235E+03  0.36483309887E+03  0.17770000000E+01 0. -1.
         15    1    1    2    0    0 -0.57409173108E+01  0.23156961530E+02  0.85736974322E+02  0.89012299676E+02  0.17770000000E+01 0.  1.
</event>
<event>
 6   1  0.3798113E-04  0.5003536E+03  0.7546771E-02  0.9399019E-01
        -11   -1    0    0    0    0  0.00000000000E+00  0.00000000000E+00  0.50000000000E+03  0.50000000000E+03  0.00000000000E+00 0.  1.
         11   -1    0    0    0    0 -0.00000000000E+00 -0.00000000000E+00 -0.50000000000E+03  0.50000000000E+03  0.00000000000E+00 0.  1.
        -11    1    1    2    0    0 -0.61798554023E+01  0.31533932709E+02  0.49861204066E+03  0.49964642160E+03  0.00000000000E+00 0.  1.
         11    1    1    2    0    0 -0.42928669105E+01 -0.24914961278E+02 -0.40851830266E+03  0.40929987492E+03  0.00000000000E+00 0.  1.
        -15    1    1    2    0    0  0.51681138489E+01 -0.25366373229E+01 -0.50587839837E+02  0.50945374648E+02  0.17770000000E+01 0.  1.
         15    1    1    2    0    0  0.53046084638E+01 -0.40823341087E+01 -0.39505898168E+02  0.40108328833E+02  0.17770000000E+01 0.  1.
</event>
<event>
 6   1  0.3798113E-04  0.5050493E+03  0.7546771E-02  0.9388582E-01
        -11   -1    0    0    0    0  0.00000000000E+00  0.00000000000E+00  0.50000000000E+03  0.50000000000E+03  0.00000000000E+00 0.  1.
         11   -1    0    0    0    0 -0.00000000000E+00 -0.00000000000E+00 -0.50000000000E+03  0.50000000000E+03  0.00000000000E+00 0.  1.
        -11    1    1    2    0    0 -0.53355439331E+01 -0.16998616173E+02  0.46316989642E+03  0.46351243126E+03  0.00000000000E+00 0.  1.
         11    1    1    2    0    0  0.14992411328E+01 -0.79010007556E+01 -0.49488534509E+03  0.49495068272E+03  0.00000000000E+00 0.  1.
        -15    1    1    2    0    0  0.58925247244E+01  0.10531601219E+02  0.14645763100E+02  0.19060235508E+02  0.17770000000E+01 0. -1.
         15    1    1    2    0    0 -0.20562219240E+01  0.14368015710E+02  0.17069685570E+02  0.22476650518E+02  0.17770000000E+01 0.  1.
</event>
<event>
 6   1  0.3798113E-04  0.5004162E+03  0.7546771E-02  0.9398879E-01
        -11   -1    0    0    0    0  0.00000000000E+00  0.00000000000E+00  0.50000000000E+03  0.50000000000E+03  0.00000000000E+00 0.  1.
         11   -1    0    0    0    0 -0.00000000000E+00 -0.00000000000E+00 -0.50000000000E+03  0.50000000000E+03  0.00000000000E+00 0. -1.
        -11    1    1    2    0    0  0.64252899747E+00  0.10045092922E+02  0.74499765585E+02  0.75176670633E+02  0.00000000000E+00 0.  1.
         11    1    1    2    0    0  0.18242885598E+01 -0.93963074508E+01 -0.49949208953E+03  0.49958379290E+03  0.00000000000E+00 0. -1.
        -15    1    1    2    0    0 -0.44602992949E+01 -0.54041860920E+01  0.13302260118E+03  0.13321887874E+03  0.17770000000E+01 0. -1.
         15    1    1    2    0    0  0.19934817376E+01  0.47554006205E+01  0.29196972276E+03  0.29202065773E+03  0.17770000000E+01 0.  1.
</event>
<event>
 6   1  0.3798113E-04  0.5004503E+03  0.7546771E-02  0.9398803E-01
        -11   -1    0    0    0    0  0.00000000000E+00  0.00000000000E+00  0.50000000000E+03  0.50000000000E+03  0.00000000000E+00 0. -1.
         11   -1    0    0    0    0 -0.00000000000E+00 -0.00000000000E+00 -0.50000000000E+03  0.50000000000E+03  0.00000000000E+00 0. -1.
        -11    1    1    2    0    0 -0.10771161617E+02 -0.32247810802E+01  0.47707271130E+03  0.47720518543E+03  0.00000000000E+00 0. -1.
         11    1    1    2    0    0  0.91273334642E+01  0.35208929109E+01 -0.49945391116E+03  0.49954971151E+03  0.00000000000E+00 0. -1.
        -15    1    1    2    0    0  0.22551897147E+01  0.11465432706E+01  0.66139181869E+01  0.73008276862E+01  0.17770000000E+01 0. -1.
         15    1    1    2    0    0 -0.61136156233E+00 -0.14426551014E+01  0.15767281669E+02  0.15944275366E+02  0.17770000000E+01 0.  1.
</event>
<event>
 6   1  0.3798113E-04  0.5012449E+03  0.7546771E-02  0.9397028E-01
        -11   -1    0    0    0    0  0.00000000000E+00  0.00000000000E+00  0.50000000000E+03  0.50000000000E+03  0.00000000000E+00 0. -1.
         11   -1    0    0    0    0 -0.00000000000E+00 -0.00000000000E+00 -0.50000000000E+03  0.50000000000E+03  0.00000000000E+00 0. -1.
        -11    1    1    2    0    0 -0.27864120383E+01 -0.10411284876E+02  0.43358288385E+03  0.43371681557E+03  0.00000000000E+00 0. -1.
         11    1    1    2    0    0  0.64012742903E+01  0.11203537818E+02 -0.49858812091E+03  0.49875506001E+03  0.00000000000E+00 0. -1.
        -15    1    1    2    0    0  0.28822413028E+01  0.70739602954E+01  0.24796051046E+02  0.26006731930E+02  0.17770000000E+01 0. -1.
         15    1    1    2    0    0 -0.64971035548E+01 -0.78662132378E+01  0.40209186016E+02  0.41521392491E+02  0.17770000000E+01 0.  1.
</event>
<event>
 6   1  0.3798113E-04  0.5004018E+03  0.7546771E-02  0.9398911E-01
        -11   -1    0    0    0    0  0.00000000000E+00  0.00000000000E+00  0.50000000000E+03  0.50000000000E+03  0.00000000000E+00 0. -1.
         11   -1    0    0    0    0 -0.00000000000E+00 -0.00000000000E+00 -0.50000000000E+03  0.50000000000E+03  0.00000000000E+00 0.  1.
        -11    1    1    2    0    0 -0.65927042808E+01  0.25457163301E+01  0.35706876047E+03  0.35713869033E+03  0.00000000000E+00 0. -1.
         11    1    1    2    0    0 -0.67970327563E+01 -0.27624336847E+01 -0.49954436835E+03  0.49959824524E+03  0.00000000000E+00 0.  1.
        -15    1    1    2    0    0  0.31416170342E+01  0.10914607227E+01  0.61817366843E+02  0.61932266360E+02  0.17770000000E+01 0.  1.
         15    1    1    2    0    0  0.10248120003E+02 -0.87474336807E+00  0.80658241034E+02  0.81330798074E+02  0.17770000000E+01 0. -1.
</event>
<event>
 6   1  0.3798113E-04  0.5008655E+03  0.7546771E-02  0.9397875E-01
        -11   -1    0    0    0    0  0.00000000000E+00  0.00000000000E+00  0.50000000000E+03  0.50000000000E+03  0.00000000000E+00 0. -1.
         11   -1    0    0    0    0 -0.00000000000E+00 -0.00000000000E+00 -0.50000000000E+03  0.50000000000E+03  0.00000000000E+00 0. -1.
        -11    1    1    2    0    0 -0.21015875566E+02 -0.16194917629E+02  0.16019996011E+03  0.16238217144E+03  0.00000000000E+00 0. -1.
         11    1    1    2    0    0  0.20632672236E+02  0.10231582969E+02 -0.49860292555E+03  0.49913452076E+03  0.00000000000E+00 0. -1.
        -15    1    1    2    0    0 -0.82975101387E+00  0.21545235896E+01  0.16141108127E+03  0.16143737282E+03  0.17770000000E+01 0.  1.
         15    1    1    2    0    0  0.12129543437E+01  0.38088110707E+01  0.17699188417E+03  0.17704593497E+03  0.17770000000E+01 0.  1.
</event>
<event>
 6   1  0.3798113E-04  0.5282680E+03  0.7546771E-02  0.9338689E-01
        -11   -1    0    0    0    0  0.00000000000E+00  0.00000000000E+00  0.50000000000E+03  0.50000000000E+03  0.00000000000E+00 0.  1.
         11   -1    0    0    0    0 -0.00000000000E+00 -0.00000000000E+00 -0.50000000000E+03  0.50000000000E+03  0.00000000000E+00 0. -1.
        -11    1    1    2    0    0 -0.55249576794E+02  0.18112315524E+03  0.43205662550E+03  0.47173195858E+03  0.00000000000E+00 0.  1.
         11    1    1    2    0    0  0.14818536942E+02 -0.21954950954E+01 -0.17463600420E+03  0.17527733224E+03  0.00000000000E+00 0. -1.
        -15    1    1    2    0    0  0.44912794398E+02 -0.12815853208E+03 -0.58917233078E+02  0.14804109743E+03  0.17770000000E+01 0. -1.
         15    1    1    2    0    0 -0.44817545459E+01 -0.50769128067E+02 -0.19850338823E+03  0.20494961175E+03  0.17770000000E+01 0.  1.
</event>
<event>
 6   1  0.3798113E-04  0.5015356E+03  0.7546771E-02  0.9396380E-01
        -11   -1    0    0    0    0  0.00000000000E+00  0.00000000000E+00  0.50000000000E+03  0.50000000000E+03  0.00000000000E+00 0.  1.
         11   -1    0    0    0    0 -0.00000000000E+00 -0.00000000000E+00 -0.50000000000E+03  0.50000000000E+03  0.00000000000E+00 0. -1.
        -11    1    1    2    0    0  0.14118842764E+00 -0.17024612618E+02  0.27271724431E+03  0.27324815226E+03  0.00000000000E+00 0.  1.
         11    1    1    2    0    0  0.96397970848E+01  0.51099009823E+01 -0.49834498754E+03  0.49846440534E+03  0.00000000000E+00 0. -1.
        -15    1    1    2    0    0 -0.26413532143E+00  0.20355894797E+02  0.16843624088E+03  0.16967132106E+03  0.17770000000E+01 0. -1.
         15    1    1    2    0    0 -0.95168501911E+01 -0.84411831617E+01  0.57191502354E+02  0.58616121342E+02  0.17770000000E+01 0.  1.
</event>
<event>
 6   1  0.3798113E-04  0.5000913E+03  0.7546771E-02  0.9399605E-01
        -11   -1    0    0    0    0  0.00000000000E+00  0.00000000000E+00  0.50000000000E+03  0.50000000000E+03  0.00000000000E+00 0. -1.
         11   -1    0    0    0    0 -0.00000000000E+00 -0.00000000000E+00 -0.50000000000E+03  0.50000000000E+03  0.00000000000E+00 0.  1.
        -11    1    1    2    0    0  0.21569434852E+01  0.49458559928E+00  0.15991402637E+03  0.15992933705E+03  0.00000000000E+00 0. -1.
         11    1    1    2    0    0  0.10953896837E+01  0.67418550875E+01 -0.49986205814E+03  0.49990872133E+03  0.00000000000E+00 0.  1.
        -15    1    1    2    0    0 -0.11674339926E+01 -0.86854165084E+01  0.24346037557E+03  0.24362452989E+03  0.17770000000E+01 0. -1.
         15    1    1    2    0    0 -0.20848991764E+01  0.14489758216E+01  0.96487656207E+02  0.96537411737E+02  0.17770000000E+01 0.  1.
</event>
<event>
 6   1  0.3798113E-04  0.4930459E+03  0.7546771E-02  0.9415506E-01
        -11   -1    0    0    0    0  0.00000000000E+00  0.00000000000E+00  0.50000000000E+03  0.50000000000E+03  0.00000000000E+00 0. -1.
         11   -1    0    0    0    0 -0.00000000000E+00 -0.00000000000E+00 -0.50000000000E+03  0.50000000000E+03  0.00000000000E+00 0.  1.
        -11    1    1    2    0    0 -0.16067365719E+02 -0.36872675036E+01  0.87147496344E+01  0.18646797150E+02  0.00000000000E+00 0. -1.
         11    1    1    2    0    0  0.85592814275E+01  0.11868178710E+02 -0.49238188049E+03  0.49259926025E+03  0.00000000000E+00 0.  1.
        -15    1    1    2    0    0 -0.51892825939E+01 -0.13557038656E+02  0.19480578744E+02  0.24359241124E+02  0.17770000000E+01 0.  1.
         15    1    1    2    0    0  0.12697366885E+02  0.53761274497E+01  0.46418655211E+03  0.46439470148E+03  0.17770000000E+01 0. -1.
</event>
<event>
 6   1  0.3798113E-04  0.5000382E+03  0.7546771E-02  0.9399724E-01
        -11   -1    0    0    0    0  0.00000000000E+00  0.00000000000E+00  0.50000000000E+03  0.50000000000E+03  0.00000000000E+00 0. -1.
         11   -1    0    0    0    0 -0.00000000000E+00 -0.00000000000E+00 -0.50000000000E+03  0.50000000000E+03  0.00000000000E+00 0.  1.
        -11    1    1    2    0    0  0.53157798015E+01 -0.45372167942E+01  0.21228524551E+03  0.21240025733E+03  0.00000000000E+00 0. -1.
         11    1    1    2    0    0 -0.84737626635E+01  0.12272997481E+02 -0.49973934944E+03  0.49996184704E+03  0.00000000000E+00 0.  1.
        -15    1    1    2    0    0  0.95979067027E+00 -0.13384800537E+01  0.33500781014E+02  0.33588283441E+02  0.17770000000E+01 0.  1.
         15    1    1    2    0    0  0.21981921917E+01 -0.63973006327E+01  0.25395332291E+03  0.25404961219E+03  0.17770000000E+01 0. -1.
</event>
<event>
 6   1  0.3798113E-04  0.5003430E+03  0.7546771E-02  0.9399043E-01
        -11   -1    0    0    0    0  0.00000000000E+00  0.00000000000E+00  0.50000000000E+03  0.50000000000E+03  0.00000000000E+00 0. -1.
         11   -1    0    0    0    0 -0.00000000000E+00 -0.00000000000E+00 -0.50000000000E+03  0.50000000000E+03  0.00000000000E+00 0. -1.
        -11    1    1    2    0    0  0.45038007882E+01  0.70122090491E+01  0.49958747849E+03  0.49965698630E+03  0.00000000000E+00 0. -1.
         11    1    1    2    0    0  0.35557318458E+01 -0.46718549147E+01 -0.43446957155E+03  0.43450923818E+03  0.00000000000E+00 0. -1.
        -15    1    1    2    0    0 -0.39606389231E+01 -0.14423866121E+01 -0.21669234728E+02  0.22146796665E+02  0.17770000000E+01 0. -1.
         15    1    1    2    0    0 -0.40988937110E+01 -0.89796752223E+00 -0.43448672211E+02  0.43686978852E+02  0.17770000000E+01 0.  1.
</event>
<event>
 6   1  0.3798113E-04  0.5001035E+03  0.7546771E-02  0.9399578E-01
        -11   -1    0    0    0    0  0.00000000000E+00  0.00000000000E+00  0.50000000000E+03  0.50000000000E+03  0.00000000000E+00 0. -1.
         11   -1    0    0    0    0 -0.00000000000E+00 -0.00000000000E+00 -0.50000000000E+03  0.50000000000E+03  0.00000000000E+00 0.  1.
        -11    1    1    2    0    0 -0.11670563781E+01 -0.53352308720E+01  0.94279456218E+02  0.94437506181E+02  0.00000000000E+00 0. -1.
         11    1    1    2    0    0 -0.59999393365E+01  0.36250035025E+01 -0.49984733267E+03  0.49989648519E+03  0.00000000000E+00 0.  1.
        -15    1    1    2    0    0  0.11601745768E+01 -0.93692907669E-01  0.14986101800E+03  0.14987607290E+03  0.17770000000E+01 0. -1.
         15    1    1    2    0    0  0.60068211378E+01  0.18039202772E+01  0.25570685846E+03  0.25578993573E+03  0.17770000000E+01 0.  1.
</event>
<event>
 6   1  0.3798113E-04  0.5008604E+03  0.7546771E-02  0.9397887E-01
        -11   -1    0    0    0    0  0.00000000000E+00  0.00000000000E+00  0.50000000000E+03  0.50000000000E+03  0.00000000000E+00 0. -1.
         11   -1    0    0    0    0 -0.00000000000E+00 -0.00000000000E+00 -0.50000000000E+03  0.50000000000E+03  0.00000000000E+00 0. -1.
        -11    1    1    2    0    0 -0.16709761475E+02 -0.96690649159E+01  0.99819055660E+02  0.10166882914E+03  0.00000000000E+00 0. -1.
         11    1    1    2    0    0  0.27042666670E+02  0.13423128055E+01 -0.49840468826E+03  0.49913960062E+03  0.00000000000E+00 0. -1.
        -15    1    1    2    0    0  0.93596783828E+00  0.99556253394E+01  0.15392628262E+03  0.15426097602E+03  0.17770000000E+01 0.  1.
         15    1    1    2    0    0 -0.11268873034E+02 -0.16288732291E+01  0.24465934998E+03  0.24493059423E+03  0.17770000000E+01 0. -1.
</event>
<event>
 6   1  0.3798113E-04  0.5034906E+03  0.7546771E-02  0.9392033E-01
        -11   -1    0    0    0    0  0.00000000000E+00  0.00000000000E+00  0.50000000000E+03  0.50000000000E+03  0.00000000000E+00 0. -1.
         11   -1    0    0    0    0 -0.00000000000E+00 -0.00000000000E+00 -0.50000000000E+03  0.50000000000E+03  0.00000000000E+00 0.  1.
        -11    1    1    2    0    0 -0.14849244753E+02  0.81751454805E+01  0.46002200894E+03  0.46033420662E+03  0.00000000000E+00 0. -1.
         11    1    1    2    0    0  0.26579629651E+01  0.66930904225E+01 -0.49645721233E+03  0.49650944191E+03  0.00000000000E+00 0.  1.
        -15    1    1    2    0    0  0.24975224313E+01 -0.15580427441E+01  0.18203589687E+02  0.18525483043E+02  0.17770000000E+01 0. -1.
         15    1    1    2    0    0  0.96937593571E+01 -0.13310193159E+02  0.18231613700E+02  0.24630868428E+02  0.17770000000E+01 0.  1.
</event>
<event>
 6   1  0.3798113E-04  0.5003780E+03  0.7546771E-02  0.9398964E-01
        -11   -1    0    0    0    0  0.00000000000E+00  0.00000000000E+00  0.50000000000E+03  0.50000000000E+03  0.00000000000E+00 0.  1.
         11   -1    0    0    0    0 -0.00000000000E+00 -0.00000000000E+00 -0.50000000000E+03  0.50000000000E+03  0.00000000000E+00 0.  1.
        -11    1    1    2    0    0 -0.37371157664E+01 -0.20356618981E+01  0.12628432809E+02  0.13326187333E+02  0.00000000000E+00 0.  1.
         11    1    1    2    0    0  0.80606337564E+01 -0.51054939774E+00 -0.49955671606E+03  0.49962200415E+03  0.00000000000E+00 0.  1.
        -15    1    1    2    0    0  0.60162986101E+00  0.48034623296E+01  0.26585893429E+03  0.26590894283E+03  0.17770000000E+01 0.  1.
         15    1    1    2    0    0 -0.49251478510E+01 -0.22572510338E+01  0.22106934896E+03  0.22114286568E+03  0.17770000000E+01 0. -1.
</event>
<event>
 6   1  0.3798113E-04  0.5033238E+03  0.7546771E-02  0.9392403E-01
        -11   -1    0    0    0    0  0.00000000000E+00  0.00000000000E+00  0.50000000000E+03  0.50000000000E+03  0.00000000000E+00 0. -1.
         11   -1    0    0    0    0 -0.00000000000E+00 -0.00000000000E+00 -0.50000000000E+03  0.50000000000E+03  0.00000000000E+00 0. -1.
        -11    1    1    2    0    0 -0.11133622046E+02 -0.51609024511E+01  0.49652456422E+03  0.49667618760E+03  0.00000000000E+00 0. -1.
         11    1    1    2    0    0  0.88766649651E-02 -0.85008957191E+01 -0.47356352828E+03  0.47363982162E+03  0.00000000000E+00 0. -1.
        -15    1    1    2    0    0  0.76739683996E+01  0.12352149558E+02 -0.16865226383E+02  0.22339628010E+02  0.17770000000E+01 0.  1.
         15    1    1    2    0    0  0.34507769812E+01  0.13096486120E+01 -0.60958095579E+01  0.73443627652E+01  0.17770000000E+01 0. -1.
</event>
<event>
 6   1  0.3798113E-04  0.4571344E+03  0.7546771E-02  0.9501189E-01
        -11   -1    0    0    0    0  0.00000000000E+00  0.00000000000E+00  0.50000000000E+03  0.50000000000E+03  0.00000000000E+00 0.  1.
         11   -1    0    0    0    0 -0.00000000000E+00 -0.00000000000E+00 -0.50000000000E+03  0.50000000000E+03  0.00000000000E+00 0. -1.
        -11    1    1    2    0    0  0.53356762774E+02  0.26748948837E+02  0.43874369861E+03  0.44278491784E+03  0.00000000000E+00 0.  1.
         11    1    1    2    0    0 -0.74660582033E+01  0.69255758851E+01 -0.47381581845E+03  0.47392524246E+03  0.00000000000E+00 0. -1.
        -15    1    1    2    0    0  0.93965572679E+01  0.16916822256E+01  0.65054417304E+01  0.11689122223E+02  0.17770000000E+01 0.  1.
         15    1    1    2    0    0 -0.55287261838E+02 -0.35366206948E+02  0.28566678116E+02  0.71600717476E+02  0.17770000000E+01 0. -1.
</event>
<event>
 6   1  0.3798113E-04  0.4769925E+03  0.7546771E-02  0.9452815E-01
        -11   -1    0    0    0    0  0.00000000000E+00  0.00000000000E+00  0.50000000000E+03  0.50000000000E+03  0.00000000000E+00 0. -1.
         11   -1    0    0    0    0 -0.00000000000E+00 -0.00000000000E+00 -0.50000000000E+03  0.50000000000E+03  0.00000000000E+00 0.  1.
        -11    1    1    2    0    0  0.11995579618E+02  0.32820591852E+02  0.46881981687E+03  0.47012030999E+03  0.00000000000E+00 0. -1.
         11    1    1    2    0    0 -0.10356234555E+02  0.71795648051E+01 -0.48467213722E+03  0.48483592930E+03  0.00000000000E+00 0.  1.
        -15    1    1    2    0    0 -0.43611792891E+01 -0.37316195198E+02  0.15882957383E+02  0.40828230099E+02  0.17770000000E+01 0. -1.
         15    1    1    2    0    0  0.27218342256E+01 -0.26839614595E+01 -0.30637032385E-01  0.42155306067E+01  0.17770000000E+01 0.  1.
</event>
<event>
 6   1  0.3798113E-04  0.5020720E+03  0.7546771E-02  0.9395185E-01
        -11   -1    0    0    0    0  0.00000000000E+00  0.00000000000E+00  0.50000000000E+03  0.50000000000E+03  0.00000000000E+00 0. -1.
         11   -1    0    0    0    0 -0.00000000000E+00 -0.00000000000E+00 -0.50000000000E+03  0.50000000000E+03  0.00000000000E+00 0. -1.
        -11    1    1    2    0    0 -0.22330668047E+02 -0.19951817650E+02  0.49702673134E+03  0.49792801230E+03  0.00000000000E+00 0. -1.
         11    1    1    2    0    0 -0.16295380245E+01  0.93392430317E+01 -0.38551589018E+03  0.38563243955E+03  0.00000000000E+00 0. -1.
        -15    1    1    2    0    0  0.19468487789E+02  0.16717366601E+02 -0.86865333636E+02  0.90593798240E+02  0.17770000000E+01 0.  1.
         15    1    1    2    0    0  0.44917182821E+01 -0.61047919819E+01 -0.24645507525E+02  0.25845749910E+02  0.17770000000E+01 0. -1.
</event>
<event>
 6   1  0.3798113E-04  0.5000887E+03  0.7546771E-02  0.9399611E-01
        -11   -1    0    0    0    0  0.00000000000E+00  0.00000000000E+00  0.50000000000E+03  0.50000000000E+03  0.00000000000E+00 0. -1.
         11   -1    0    0    0    0 -0.00000000000E+00 -0.00000000000E+00 -0.50000000000E+03  0.50000000000E+03  0.00000000000E+00 0. -1.
        -11    1    1    2    0    0  0.87515102248E+01 -0.37155746114E+01  0.49982087288E+03  0.49991129152E+03  0.00000000000E+00 0. -1.
         11    1    1    2    0    0  0.23707384715E+01 -0.85638903179E+00 -0.10126333589E+03  0.10129470370E+03  0.00000000000E+00 0. -1.
        -15    1    1    2    0    0 -0.18085380832E+01  0.26224147820E+01 -0.71199084756E+02  0.71292462914E+02  0.17770000000E+01 0.  1.
         15    1    1    2    0    0 -0.93137106131E+01  0.19495488612E+01 -0.32735845223E+03  0.32750154186E+03  0.17770000000E+01 0. -1.
</event>
<event>
 6   1  0.3798113E-04  0.4794196E+03  0.7546771E-02  0.9447075E-01
        -11   -1    0    0    0    0  0.00000000000E+00  0.00000000000E+00  0.50000000000E+03  0.50000000000E+03  0.00000000000E+00 0.  1.
         11   -1    0    0    0    0 -0.00000000000E+00 -0.00000000000E+00 -0.50000000000E+03  0.50000000000E+03  0.00000000000E+00 0. -1.
        -11    1    1    2    0    0 -0.13108837294E+02  0.10266867701E+02  0.47103778972E+03  0.47133199502E+03  0.00000000000E+00 0.  1.
         11    1    1    2    0    0 -0.53181127001E+01  0.10382093454E+02 -0.48791549982E+03  0.48805492022E+03  0.00000000000E+00 0. -1.
        -15    1    1    2    0    0  0.19309144926E+02 -0.23183832458E+02  0.19908625573E+02  0.36191770700E+02  0.17770000000E+01 0. -1.
         15    1    1    2    0    0 -0.88219493145E+00  0.25348713036E+01 -0.30309154662E+01  0.44213140565E+01  0.17770000000E+01 0.  1.
</event>
<event>
 6   1  0.3798113E-04  0.5033096E+03  0.7546771E-02  0.9392435E-01
        -11   -1    0    0    0    0  0.00000000000E+00  0.00000000000E+00  0.50000000000E+03  0.50000000000E+03  0.00000000000E+00 0. -1.
         11   -1    0    0    0    0 -0.00000000000E+00 -0.00000000000E+00 -0.50000000000E+03  0.50000000000E+03  0.00000000000E+00 0.  1.
        -11    1    1    2    0    0  0.30223524390E+02 -0.12404808486E+03  0.48000000676E+03  0.49669044210E+03  0.00000000000E+00 0. -1.
         11    1    1    2    0    0 -0.28114321305E+02  0.11387452886E+03 -0.29573478468E+03  0.31814601405E+03  0.00000000000E+00 0.  1.
        -15    1    1    2    0    0 -0.35325835694E+01 -0.28236021614E+01 -0.39358305529E+02  0.39657103008E+02  0.17770000000E+01 0. -1.
         15    1    1    2    0    0  0.14233804840E+01  0.12997158161E+02 -0.14490691656E+03  0.14550644084E+03  0.17770000000E+01 0.  1.
</event>
<event>
 6   1  0.3798113E-04  0.5011053E+03  0.7546771E-02  0.9397340E-01
        -11   -1    0    0    0    0  0.00000000000E+00  0.00000000000E+00  0.50000000000E+03  0.50000000000E+03  0.00000000000E+00 0.  1.
         11   -1    0    0    0    0 -0.00000000000E+00 -0.00000000000E+00 -0.50000000000E+03  0.50000000000E+03  0.00000000000E+00 0. -1.
        -11    1    1    2    0    0 -0.21661121003E+01 -0.27684890551E+02  0.14106142889E+03  0.14376881417E+03  0.00000000000E+00 0.  1.
         11    1    1    2    0    0  0.11865127906E+01  0.23660354326E+02 -0.49833193933E+03  0.49889472029E+03  0.00000000000E+00 0. -1.
        -15    1    1    2    0    0 -0.66633671897E+00 -0.28634164064E+00  0.96897587710E+02  0.96916594189E+02  0.17770000000E+01 0. -1.
         15    1    1    2    0    0  0.16459360287E+01  0.43108778660E+01  0.26037292273E+03  0.26041987135E+03  0.17770000000E+01 0.  1.
</event>
<event>
 6   1  0.3798113E-04  0.5013479E+03  0.7546771E-02  0.9396799E-01
        -11   -1    0    0    0    0  0.00000000000E+00  0.00000000000E+00  0.50000000000E+03  0.50000000000E+03  0.00000000000E+00 0.  1.
         11   -1    0    0    0    0 -0.00000000000E+00 -0.00000000000E+00 -0.50000000000E+03  0.50000000000E+03  0.00000000000E+00 0. -1.
        -11    1    1    2    0    0  0.22238881354E+01  0.16012132903E+02  0.49839001574E+03  0.49865212510E+03  0.00000000000E+00 0.  1.
         11    1    1    2    0    0 -0.12706075993E+02 -0.67211884852E+01 -0.40791262225E+03  0.40816580715E+03  0.00000000000E+00 0. -1.
        -15    1    1    2    0    0  0.14161958266E+02 -0.82342145731E+01 -0.53914665471E+02  0.56376522005E+02  0.17770000000E+01 0. -1.
         15    1    1    2    0    0 -0.36797704080E+01 -0.10567298445E+01 -0.36562728020E+02  0.36805545744E+02  0.17770000000E+01 0.  1.
</event>
<event>
 6   1  0.3798113E-04  0.5002445E+03  0.7546771E-02  0.9399263E-01
        -11   -1    0    0    0    0  0.00000000000E+00  0.00000000000E+00  0.50000000000E+03  0.50000000000E+03  0.00000000000E+00 0. -1.
         11   -1    0    0    0    0 -0.00000000000E+00 -0.00000000000E+00 -0.50000000000E+03  0.50000000000E+03  0.00000000000E+00 0. -1.
        -11    1    1    2    0    0 -0.34965403066E+01  0.13447672896E+02  0.49956232287E+03  0.49975552036E+03  0.00000000000E+00 0. -1.
         11    1    1    2    0    0 -0.28837445968E+01  0.20398973578E+01 -0.50264879924E+02  0.50388841204E+02  0.00000000000E+00 0. -1.
        -15    1    1    2    0    0  0.10076538929E+02 -0.14651323909E+02 -0.32852356538E+03  0.32900925316E+03  0.17770000000E+01 0. -1.
         15    1    1    2    0    0 -0.36962540259E+01 -0.83624634455E+00 -0.12077387757E+03  0.12084638527E+03  0.17770000000E+01 0.  1.
</event>
<event>
 6   1  0.3798113E-04  0.5038159E+03  0.7546771E-02  0.9391312E-01
        -11   -1    0    0    0    0  0.00000000000E+00  0.00000000000E+00  0.50000000000E+03  0.50000000000E+03  0.00000000000E+00 0.  1.
         11   -1    0    0    0    0 -0.00000000000E+00 -0.00000000000E+00 -0.50000000000E+03  0.50000000000E+03  0.00000000000E+00 0.  1.
        -11    1    1    2    0    0  0.15933099946E+02 -0.64369526936E+02  0.49173298012E+03  0.49618406203E+03  0.00000000000E+00 0.  1.
         11    1    1    2    0    0 -0.34278763158E+01  0.28225644540E+01 -0.65201908173E+02  0.65352934406E+02  0.00000000000E+00 0.  1.
        -15    1    1    2    0    0 -0.25166356763E+01 -0.18408294609E+02 -0.49219794791E+02  0.52639763428E+02  0.17770000000E+01 0. -1.
         15    1    1    2    0    0 -0.99885879544E+01  0.79955257091E+02 -0.37731127716E+03  0.38582324013E+03  0.17770000000E+01 0.  1.
</event>
<event>
 6   1  0.3798113E-04  0.5001645E+03  0.7546771E-02  0.9399442E-01
        -11   -1    0    0    0    0  0.00000000000E+00  0.00000000000E+00  0.50000000000E+03  0.50000000000E+03  0.00000000000E+00 0.  1.
         11   -1    0    0    0    0 -0.00000000000E+00 -0.00000000000E+00 -0.50000000000E+03  0.50000000000E+03  0.00000000000E+00 0.  1.
        -11    1    1    2    0    0  0.82799532271E+01 -0.82349312543E+01  0.49969907826E+03  0.49983551348E+03  0.00000000000E+00 0.  1.
         11    1    1    2    0    0 -0.67436523007E+01  0.54478073744E+00 -0.39960259822E+03  0.39965986806E+03  0.00000000000E+00 0.  1.
        -15    1    1    2    0    0 -0.21892206791E+01  0.48776979806E+01 -0.65974258488E+02  0.66214387687E+02  0.17770000000E+01 0. -1.
         15    1    1    2    0    0  0.65291975275E+00  0.28124525362E+01 -0.34122221554E+02  0.34290230770E+02  0.17770000000E+01 0.  1.
</event>
<event>
 6   1  0.3798113E-04  0.5028188E+03  0.7546771E-02  0.9393525E-01
        -11   -1    0    0    0    0  0.00000000000E+00  0.00000000000E+00  0.50000000000E+03  0.50000000000E+03  0.00000000000E+00 0. -1.
         11   -1    0    0    0    0 -0.00000000000E+00 -0.00000000000E+00 -0.50000000000E+03  0.50000000000E+03  0.00000000000E+00 0.  1.
        -11    1    1    2    0    0 -0.18862579950E+02  0.38275310647E+01  0.28521122335E+02  0.34407867351E+02  0.00000000000E+00 0. -1.
         11    1    1    2    0    0  0.17406521889E+02  0.10417033704E+01 -0.49687535802E+03  0.49718124819E+03  0.00000000000E+00 0.  1.
        -15    1    1    2    0    0 -0.12315156080E+01 -0.19566551380E+01  0.16927139435E+03  0.16929650854E+03  0.17770000000E+01 0.  1.
         15    1    1    2    0    0  0.26875736686E+01 -0.29125792971E+01  0.29908284134E+03  0.29911437592E+03  0.17770000000E+01 0. -1.
</event>
<event>
 6   1  0.3798113E-04  0.5025175E+03  0.7546771E-02  0.9394194E-01
        -11   -1    0    0    0    0  0.00000000000E+00  0.00000000000E+00  0.50000000000E+03  0.50000000000E+03  0.00000000000E+00 0. -1.
         11   -1    0    0    0    0 -0.00000000000E+00 -0.00000000000E+00 -0.50000000000E+03  0.50000000000E+03  0.00000000000E+00 0.  1.
        -11    1    1    2    0    0  0.12552943424E+02 -0.18636888627E+02  0.49697480912E+03  0.49748253326E+03  0.00000000000E+00 0. -1.
         11    1    1    2    0    0 -0.54364678254E+01 -0.55174556391E+01 -0.43524405283E+03  0.43531297135E+03  0.00000000000E+00 0.  1.
        -15    1    1    2    0    0 -0.67566917689E+01  0.20974194198E+02 -0.45770033507E+02  0.50829355712E+02  0.17770000000E+01 0. -1.
         15    1    1    2    0    0 -0.35978382978E+00  0.31801500683E+01 -0.15960722775E+02  0.16375139674E+02  0.17770000000E+01 0. -1.
</event>
<event>
 6   1  0.3798113E-04  0.5032167E+03  0.7546771E-02  0.9392641E-01
        -11   -1    0    0    0    0  0.00000000000E+00  0.00000000000E+00  0.50000000000E+03  0.50000000000E+03  0.00000000000E+00 0.  1.
         11   -1    0    0    0    0 -0.00000000000E+00 -0.00000000000E+00 -0.50000000000E+03  0.50000000000E+03  0.00000000000E+00 0.  1.
        -11    1    1    2    0    0 -0.15482000526E+02  0.11198305890E+02  0.49641574568E+03  0.49678334005E+03  0.00000000000E+00 0.  1.
         11    1    1    2    0    0  0.33999744536E+01  0.78779555487E+01 -0.45000545284E+03  0.45008724665E+03  0.00000000000E+00 0.  1.
        -15    1    1    2    0    0  0.14040237085E+02 -0.18039423415E+02 -0.42582104131E+02  0.48362613409E+02  0.17770000000E+01 0. -1.
         15    1    1    2    0    0 -0.19582110123E+01 -0.10368380239E+01 -0.38281887061E+01  0.47667998936E+01  0.17770000000E+01 0. -1.
</event>
<event>
 6   1  0.3798113E-04  0.5069971E+03  0.7546771E-02  0.9384288E-01
        -11   -1    0    0    0    0  0.00000000000E+00  0.00000000000E+00  0.50000000000E+03  0.50000000000E+03  0.00000000000E+00 0.  1.
         11   -1    0    0    0    0 -0.00000000000E+00 -0.00000000000E+00 -0.50000000000E+03  0.50000000000E+03  0.00000000000E+00 0.  1.
        -11    1    1    2    0    0  0.26117633287E+01  0.18126648084E+02  0.47841735650E+03  0.47876775547E+03  0.00000000000E+00 0.  1.
         11    1    1    2    0    0 -0.81413420454E+01  0.20081867653E+01 -0.49293157064E+03  0.49300288802E+03  0.00000000000E+00 0.  1.
        -15    1    1    2    0    0  0.66887637750E+01 -0.13321559561E+02  0.40238458424E+01  0.15541961727E+02  0.17770000000E+01 0.  1.
         15    1    1    2    0    0 -0.11591850583E+01 -0.68132752880E+01  0.10490368298E+02  0.12687394775E+02  0.17770000000E+01 0. -1.
</event>
<event>
 6   1  0.3798113E-04  0.5045656E+03  0.7546771E-02  0.9389651E-01
        -11   -1    0    0    0    0  0.00000000000E+00  0.00000000000E+00  0.50000000000E+03  0.50000000000E+03  0.00000000000E+00 0. -1.
         11   -1    0    0    0    0 -0.00000000000E+00 -0.00000000000E+00 -0.50000000000E+03  0.50000000000E+03  0.00000000000E+00 0. -1.
        -11    1    1    2    0    0 -0.27825322218E+02  0.67946206927E+01  0.33450630886E+03  0.33573037708E+03  0.00000000000E+00 0. -1.
         11    1    1    2    0    0  0.55413122731E+01  0.30516323171E+02 -0.49446266219E+03  0.49543443201E+03  0.00000000000E+00 0. -1.
        -15    1    1    2    0    0 -0.91034678033E+00 -0.14264859612E+02  0.95064139540E+02  0.96149172157E+02  0.17770000000E+01 0.  1.
         15    1    1    2    0    0  0.23194356725E+02 -0.23046084252E+02  0.64892213789E+02  0.72686018757E+02  0.17770000000E+01 0. -1.
</event>
<event>
 6   1  0.3798113E-04  0.5002358E+03  0.7546771E-02  0.9399282E-01
        -11   -1    0    0    0    0  0.00000000000E+00  0.00000000000E+00  0.50000000000E+03  0.50000000000E+03  0.00000000000E+00 0.  1.
         11   -1    0    0    0    0 -0.00000000000E+00 -0.00000000000E+00 -0.50000000000E+03  0.50000000000E+03  0.00000000000E+00 0. -1.
        -11    1    1    2    0    0 -0.18295961674E+00  0.26303992196E+02  0.29002165937E+03  0.29121211579E+03  0.00000000000E+00 0.  1.
         11    1    1    2    0    0  0.73592139037E+01 -0.29018820442E+02 -0.49886669229E+03  0.49976417103E+03  0.00000000000E+00 0. -1.
        -15    1    1    2    0    0 -0.47725501976E+01  0.98438772174E+00  0.12546967704E+03  0.12557684436E+03  0.17770000000E+01 0.  1.
         15    1    1    2    0    0 -0.24037040893E+01  0.17304405234E+01  0.83375355886E+02  0.83446868820E+02  0.17770000000E+01 0.  1.
</event>
<event>
 6   1  0.3798113E-04  0.5013190E+03  0.7546771E-02  0.9396863E-01
        -11   -1    0    0    0    0  0.00000000000E+00  0.00000000000E+00  0.50000000000E+03  0.50000000000E+03  0.00000000000E+00 0.  1.
         11   -1    0    0    0    0 -0.00000000000E+00 -0.00000000000E+00 -0.50000000000E+03  0.50000000000E+03  0.00000000000E+00 0.  1.
        -11    1    1    2    0    0  0.79428050628E+01 -0.71197695642E+01  0.42268058213E+03  0.42281515320E+03  0.00000000000E+00 0.  1.
         11    1    1    2    0    0  0.12604322650E+01 -0.66603358396E+01 -0.49863496080E+03  0.49868103322E+03  0.00000000000E+00 0.  1.
        -15    1    1    2    0    0  0.15696664882E+01  0.54795504088E+01  0.27824341252E+02  0.28457705823E+02  0.17770000000E+01 0.  1.
         15    1    1    2    0    0 -0.10772903816E+02  0.83005549950E+01  0.48130037421E+02  0.50046107750E+02  0.17770000000E+01 0. -1.
</event>
<event>
 6   1  0.3798113E-04  0.5064993E+03  0.7546771E-02  0.9385383E-01
        -11   -1    0    0    0    0  0.00000000000E+00  0.00000000000E+00  0.50000000000E+03  0.50000000000E+03  0.00000000000E+00 0. -1.
         11   -1    0    0    0    0 -0.00000000000E+00 -0.00000000000E+00 -0.50000000000E+03  0.50000000000E+03  0.00000000000E+00 0.  1.
        -11    1    1    2    0    0 -0.68888640097E+02  0.36628525818E+02  0.48729416011E+03  0.49350065057E+03  0.00000000000E+00 0. -1.
         11    1    1    2    0    0 -0.41938454349E+01 -0.87976449468E+01 -0.32272411902E+03  0.32287124972E+03  0.00000000000E+00 0.  1.
        -15    1    1    2    0    0  0.61253866104E+02 -0.22103433170E+02 -0.15193071237E+03  0.16530788536E+03  0.17770000000E+01 0.  1.
         15    1    1    2    0    0  0.11828619428E+02 -0.57274477011E+01 -0.12639328713E+02  0.18320214357E+02  0.17770000000E+01 0. -1.
</event>
<event>
 6   1  0.3798113E-04  0.5002726E+03  0.7546771E-02  0.9399200E-01
        -11   -1    0    0    0    0  0.00000000000E+00  0.00000000000E+00  0.50000000000E+03  0.50000000000E+03  0.00000000000E+00 0. -1.
         11   -1    0    0    0    0 -0.00000000000E+00 -0.00000000000E+00 -0.50000000000E+03  0.50000000000E+03  0.00000000000E+00 0. -1.
        -11    1    1    2    0    0 -0.45599843661E+01 -0.23115876003E+02  0.28486143313E+03  0.28583417092E+03  0.00000000000E+00 0. -1.
         11    1    1    2    0    0  0.16698315958E+01  0.22578911948E+02 -0.49921427471E+03  0.49972741337E+03  0.00000000000E+00 0. -1.
        -15    1    1    2    0    0  0.76201057231E+00  0.95433536278E+00  0.15899409875E+03  0.15900871857E+03  0.17770000000E+01 0. -1.
         15    1    1    2    0    0  0.21281421980E+01 -0.41737130862E+00  0.55358742829E+02  0.55429697136E+02  0.17770000000E+01 0. -1.
</event>
<event>
 6   1  0.3798113E-04  0.5003656E+03  0.7546771E-02  0.9398992E-01
        -11   -1    0    0    0    0  0.00000000000E+00  0.00000000000E+00  0.50000000000E+03  0.50000000000E+03  0.00000000000E+00 0.  1.
         11   -1    0    0    0    0 -0.00000000000E+00 -0.00000000000E+00 -0.50000000000E+03  0.50000000000E+03  0.00000000000E+00 0. -1.
        -11    1    1    2    0    0 -0.75979944848E+01  0.11439939955E+02  0.49944564545E+03  0.49963442086E+03  0.00000000000E+00 0.  1.
         11    1    1    2    0    0  0.24479159199E+01  0.38382003970E+01 -0.33439621338E+03  0.33442719925E+03  0.00000000000E+00 0. -1.
        -15    1    1    2    0    0  0.23589982222E+01 -0.49858802580E+01 -0.39282018062E+02  0.39707159891E+02  0.17770000000E+01 0. -1.
         15    1    1    2    0    0  0.27910803427E+01 -0.10292260094E+02 -0.12576741401E+03  0.12623122000E+03  0.17770000000E+01 0.  1.
</event>
<event>
 6   1  0.3798113E-04  0.5008614E+03  0.7546771E-02  0.9397884E-01
        -11   -1    0    0    0    0  0.00000000000E+00  0.00000000000E+00  0.50000000000E+03  0.50000000000E+03  0.00000000000E+00 0.  1.
         11   -1    0    0    0    0 -0.00000000000E+00 -0.00000000000E+00 -0.50000000000E+03  0.50000000000E+03  0.00000000000E+00 0. -1.
        -11    1    1    2    0    0  0.24843547779E+02 -0.64282468839E+01  0.49847848673E+03  0.49913858391E+03  0.00000000000E+00 0.  1.
         11    1    1    2    0    0 -0.97521239547E+01 -0.79105688631E+01 -0.34303620579E+03  0.34326596031E+03  0.00000000000E+00 0. -1.
        -15    1    1    2    0    0 -0.12987600922E+02  0.15606508313E+02 -0.14989082260E+03  0.15127014678E+03  0.17770000000E+01 0. -1.
         15    1    1    2    0    0 -0.21038229019E+01 -0.12676925664E+01 -0.55514583313E+01  0.63253089924E+01  0.17770000000E+01 0.  1.
</event>
<event>
 6   1  0.3798113E-04  0.5096224E+03  0.7546771E-02  0.9378533E-01
        -11   -1    0    0    0    0  0.00000000000E+00  0.00000000000E+00  0.50000000000E+03  0.50000000000E+03  0.00000000000E+00 0. -1.
         11   -1    0    0    0    0 -0.00000000000E+00 -0.00000000000E+00 -0.50000000000E+03  0.50000000000E+03  0.00000000000E+00 0.  1.
        -11    1    1    2    0    0  0.71536633514E+01  0.80098069217E+02  0.48373886038E+03  0.49037756946E+03  0.00000000000E+00 0. -1.
         11    1    1    2    0    0 -0.18161789314E+02 -0.56046683716E+01 -0.37521450058E+03  0.37569560065E+03  0.00000000000E+00 0.  1.
        -15    1    1    2    0    0 -0.57084617963E+01 -0.24017628686E+02 -0.41937604226E+02  0.48696544035E+02  0.17770000000E+01 0. -1.
         15    1    1    2    0    0  0.16716587759E+02 -0.50475772160E+02 -0.66586755565E+02  0.85230285856E+02  0.17770000000E+01 0.  1.
</event>
<event>
 6   1  0.3798113E-04  0.5004616E+03  0.7546771E-02  0.9398777E-01
        -11   -1    0    0    0    0  0.00000000000E+00  0.00000000000E+00  0.50000000000E+03  0.50000000000E+03  0.00000000000E+00 0. -1.
         11   -1    0    0    0    0 -0.00000000000E+00 -0.00000000000E+00 -0.50000000000E+03  0.50000000000E+03  0.00000000000E+00 0. -1.
        -11    1    1    2    0    0 -0.71849692253E+01  0.40001114468E+01  0.36603366765E+03  0.36612603093E+03  0.00000000000E+00 0. -1.
         11    1    1    2    0    0  0.46875438026E+00  0.77917696179E+01 -0.49947735914E+03  0.49953835058E+03  0.00000000000E+00 0. -1.
        -15    1    1    2    0    0 -0.21661628084E+00 -0.48627180211E+01  0.33751213796E+02  0.34146670568E+02  0.17770000000E+01 0.  1.
         15    1    1    2    0    0  0.69328311259E+01 -0.69291630436E+01  0.99692477697E+02  0.10018894792E+03  0.17770000000E+01 0. -1.
</event>
<event>
 6   1  0.3798113E-04  0.5009120E+03  0.7546771E-02  0.9397771E-01
        -11   -1    0    0    0    0  0.00000000000E+00  0.00000000000E+00  0.50000000000E+03  0.50000000000E+03  0.00000000000E+00 0.  1.
         11   -1    0    0    0    0 -0.00000000000E+00 -0.00000000000E+00 -0.50000000000E+03  0.50000000000E+03  0.00000000000E+00 0.  1.
        -11    1    1    2    0    0  0.38229522993E+01  0.14187648137E+02  0.32727009960E+03  0.32759979002E+03  0.00000000000E+00 0.  1.
         11    1    1    2    0    0 -0.53599212919E+01  0.52074772418E+01 -0.49903204692E+03  0.49908799868E+03  0.00000000000E+00 0.  1.
        -15    1    1    2    0    0  0.29076996784E+01 -0.16427531586E+02  0.16198037448E+03  0.16284691571E+03  0.17770000000E+01 0.  1.
         15    1    1    2    0    0 -0.13707306858E+01 -0.29675937923E+01  0.97815728373E+01  0.10465295586E+02  0.17770000000E+01 0. -1.
</event>
<event>
 6   1  0.3798113E-04  0.4930826E+03  0.7546771E-02  0.9415422E-01
        -11   -1    0    0    0    0  0.00000000000E+00  0.00000000000E+00  0.50000000000E+03  0.50000000000E+03  0.00000000000E+00 0.  1.
         11   -1    0    0    0    0 -0.00000000000E+00 -0.00000000000E+00 -0.50000000000E+03  0.50000000000E+03  0.00000000000E+00 0. -1.
        -11    1    1    2    0    0  0.25602783681E+01 -0.67183135943E+01  0.49094105091E+03  0.49099369266E+03  0.00000000000E+00 0.  1.
         11    1    1    2    0    0  0.77897261403E+01  0.82480881395E+00 -0.49519072213E+03  0.49525267432E+03  0.00000000000E+00 0. -1.
        -15    1    1    2    0    0 -0.91775684222E+01  0.46824265999E+01  0.42973213952E+01  0.11303874609E+02  0.17770000000E+01 0. -1.
         15    1    1    2    0    0 -0.11724360861E+01  0.12110781804E+01 -0.47650174134E-01  0.24497584114E+01  0.17770000000E+01 0.  1.
</event>
<event>
 6   1  0.3798113E-04  0.5023512E+03  0.7546771E-02  0.9394564E-01
        -11   -1    0    0    0    0  0.00000000000E+00  0.00000000000E+00  0.50000000000E+03  0.50000000000E+03  0.00000000000E+00 0.  1.
         11   -1    0    0    0    0 -0.00000000000E+00 -0.00000000000E+00 -0.50000000000E+03  0.50000000000E+03  0.00000000000E+00 0. -1.
        -11    1    1    2    0    0  0.12912880765E+01  0.10189457754E+02  0.44304524078E+03  0.44316427862E+03  0.00000000000E+00 0.  1.
         11    1    1    2    0    0 -0.10214811729E+02 -0.48241883390E+01 -0.49752057312E+03  0.49764880774E+03  0.00000000000E+00 0. -1.
        -15    1    1    2    0    0  0.22902844393E+01 -0.11160800170E+02  0.16287994222E+02  0.19956586583E+02  0.17770000000E+01 0.  1.
         15    1    1    2    0    0  0.66332392134E+01  0.57955307557E+01  0.38187338117E+02  0.39230327053E+02  0.17770000000E+01 0. -1.
</event>
<event>
 6   1  0.3798113E-04  0.5026261E+03  0.7546771E-02  0.9393953E-01
        -11   -1    0    0    0    0  0.00000000000E+00  0.00000000000E+00  0.50000000000E+03  0.50000000000E+03  0.00000000000E+00 0. -1.
         11   -1    0    0    0    0 -0.00000000000E+00 -0.00000000000E+00 -0.50000000000E+03  0.50000000000E+03  0.00000000000E+00 0.  1.
        -11    1    1    2    0    0 -0.94313830689E+01  0.88348763306E+01  0.43764768553E+03  0.43783844358E+03  0.00000000000E+00 0. -1.
         11    1    1    2    0    0 -0.68860959674E+01 -0.37819794724E+01 -0.49731187353E+03  0.49737392497E+03  0.00000000000E+00 0.  1.
        -15    1    1    2    0    0  0.68123154666E+01 -0.33309578868E+00  0.40228239638E+01  0.81153827060E+01  0.17770000000E+01 0.  1.
         15    1    1    2    0    0  0.95051635696E+01 -0.47198010696E+01  0.55641364041E+02  0.56672248746E+02  0.17770000000E+01 0. -1.
</event>
<event>
 6   1  0.3798113E-04  0.5016254E+03  0.7546771E-02  0.9396180E-01
        -11   -1    0    0    0    0  0.00000000000E+00  0.00000000000E+00  0.50000000000E+03  0.50000000000E+03  0.00000000000E+00 0. -1.
         11   -1    0    0    0    0 -0.00000000000E+00 -0.00000000000E+00 -0.50000000000E+03  0.50000000000E+03  0.00000000000E+00 0. -1.
        -11    1    1    2    0    0 -0.61895605662E+01  0.78390363717E+01  0.49827446029E+03  0.49837455686E+03  0.00000000000E+00 0. -1.
         11    1    1    2    0    0  0.59986180855E+01  0.18851342155E+01 -0.45048131865E+03  0.45052519974E+03  0.00000000000E+00 0. -1.
        -15    1    1    2    0    0  0.48102697576E+01 -0.56567282606E+01 -0.90927567792E+01  0.11873214586E+02  0.17770000000E+01 0. -1.
         15    1    1    2    0    0 -0.46193272769E+01 -0.40674423267E+01 -0.38700384865E+02  0.39227028810E+02  0.17770000000E+01 0.  1.
</event>
<event>
 6   1  0.3798113E-04  0.5001535E+03  0.7546771E-02  0.9399466E-01
        -11   -1    0    0    0    0  0.00000000000E+00  0.00000000000E+00  0.50000000000E+03  0.50000000000E+03  0.00000000000E+00 0.  1.
         11   -1    0    0    0    0 -0.00000000000E+00 -0.00000000000E+00 -0.50000000000E+03  0.50000000000E+03  0.00000000000E+00 0.  1.
        -11    1    1    2    0    0  0.40937164836E+01  0.68507654385E+01  0.49978280263E+03  0.49984651775E+03  0.00000000000E+00 0.  1.
         11    1    1    2    0    0  0.37170285157E+01 -0.14573264902E+01 -0.27463518415E+03  0.27466420311E+03  0.00000000000E+00 0.  1.
        -15    1    1    2    0    0 -0.79714592968E+01 -0.44057252926E+01 -0.13498260570E+03  0.13530120528E+03  0.17770000000E+01 0.  1.
         15    1    1    2    0    0  0.16071429758E+00 -0.98771365575E+00 -0.90165012780E+02  0.90188073857E+02  0.17770000000E+01 0. -1.
</event>
<event>
 6   1  0.3798113E-04  0.5003302E+03  0.7546771E-02  0.9399071E-01
        -11   -1    0    0    0    0  0.00000000000E+00  0.00000000000E+00  0.50000000000E+03  0.50000000000E+03  0.00000000000E+00 0.  1.
         11   -1    0    0    0    0 -0.00000000000E+00 -0.00000000000E+00 -0.50000000000E+03  0.50000000000E+03  0.00000000000E+00 0.  1.
        -11    1    1    2    0    0 -0.88122072464E+01 -0.27716839956E+01  0.63292489120E+02  0.63963086290E+02  0.00000000000E+00 0.  1.
         11    1    1    2    0    0  0.11773017060E+02 -0.35368682042E+01 -0.49951860413E+03  0.49966984023E+03  0.00000000000E+00 0.  1.
        -15    1    1    2    0    0 -0.37195832132E+01  0.65818684568E+00  0.98839316536E+02  0.98927431643E+02  0.17770000000E+01 0. -1.
         15    1    1    2    0    0  0.75877339904E+00  0.56503653541E+01  0.33738679848E+03  0.33743964183E+03  0.17770000000E+01 0.  1.
</event>
<event>
 6   1  0.3798113E-04  0.5067841E+03  0.7546771E-02  0.9384757E-01
        -11   -1    0    0    0    0  0.00000000000E+00  0.00000000000E+00  0.50000000000E+03  0.50000000000E+03  0.00000000000E+00 0. -1.
         11   -1    0    0    0    0 -0.00000000000E+00 -0.00000000000E+00 -0.50000000000E+03  0.50000000000E+03  0.00000000000E+00 0.  1.
        -11    1    1    2    0    0 -0.44416137133E+02 -0.26653127105E+02  0.49048831743E+03  0.49321594860E+03  0.00000000000E+00 0. -1.
         11    1    1    2    0    0  0.40236323615E+01 -0.60131481221E+01 -0.39507606965E+03  0.39514231408E+03  0.00000000000E+00 0.  1.
        -15    1    1    2    0    0  0.28165374180E+02  0.93030434153E+01 -0.36453432289E+02  0.47030260196E+02  0.17770000000E+01 0.  1.
         15    1    1    2    0    0  0.12227130591E+02  0.23363231812E+02 -0.58958815486E+02  0.64611477120E+02  0.17770000000E+01 0. -1.
</event>
<event>
 6   1  0.3798113E-04  0.5009084E+03  0.7546771E-02  0.9397779E-01
        -11   -1    0    0    0    0  0.00000000000E+00  0.00000000000E+00  0.50000000000E+03  0.50000000000E+03  0.00000000000E+00 0.  1.
         11   -1    0    0    0    0 -0.00000000000E+00 -0.00000000000E+00 -0.50000000000E+03  0.50000000000E+03  0.00000000000E+00 0. -1.
        -11    1    1    2    0    0 -0.34699623001E+01  0.55985085364E+01  0.46081762390E+03  0.46086469427E+03  0.00000000000E+00 0.  1.
         11    1    1    2    0    0  0.66398980873E+01  0.36272426170E+01 -0.49903423413E+03  0.49909158675E+03  0.00000000000E+00 0. -1.
        -15    1    1    2    0    0 -0.46975489519E+01 -0.66865966682E+01  0.24074075849E+02  0.25485219209E+02  0.17770000000E+01 0.  1.
         15    1    1    2    0    0  0.15276131647E+01 -0.25391544851E+01  0.14142534385E+02  0.14558499762E+02  0.17770000000E+01 0. -1.
</event>
<event>
 6   1  0.3798113E-04  0.5001520E+03  0.7546771E-02  0.9399470E-01
        -11   -1    0    0    0    0  0.00000000000E+00  0.00000000000E+00  0.50000000000E+03  0.50000000000E+03  0.00000000000E+00 0. -1.
         11   -1    0    0    0    0 -0.00000000000E+00 -0.00000000000E+00 -0.50000000000E+03  0.50000000000E+03  0.00000000000E+00 0. -1.
        -11    1    1    2    0    0 -0.51093160283E+01 -0.13411129459E+02  0.49964191280E+03  0.49984798142E+03  0.00000000000E+00 0. -1.
         11    1    1    2    0    0  0.47200471204E+01  0.14052721393E+02 -0.25676355380E+03  0.25719113589E+03  0.00000000000E+00 0. -1.
        -15    1    1    2    0    0  0.67781577335E+00 -0.25718920938E+01 -0.84484756097E+02  0.84545288484E+02  0.17770000000E+01 0. -1.
         15    1    1    2    0    0 -0.28854686540E+00  0.19303001598E+01 -0.15839360290E+03  0.15841559420E+03  0.17770000000E+01 0.  1.
</event>
<event>
 6   1  0.3798113E-04  0.5002148E+03  0.7546771E-02  0.9399329E-01
        -11   -1    0    0    0    0  0.00000000000E+00  0.00000000000E+00  0.50000000000E+03  0.50000000000E+03  0.00000000000E+00 0. -1.
         11   -1    0    0    0    0 -0.00000000000E+00 -0.00000000000E+00 -0.50000000000E+03  0.50000000000E+03  0.00000000000E+00 0.  1.
        -11    1    1    2    0    0  0.13311239609E+02 -0.50628851991E+01  0.14294197163E+03  0.14364967511E+03  0.00000000000E+00 0. -1.
         11    1    1    2    0    0 -0.20702921939E+02  0.73207493628E+00 -0.49935567855E+03  0.49978519446E+03  0.00000000000E+00 0.  1.
        -15    1    1    2    0    0  0.30249279682E+01  0.29830067291E+01  0.24538097315E+03  0.24542418021E+03  0.17770000000E+01 0. -1.
         15    1    1    2    0    0  0.43667543623E+01  0.13478035337E+01  0.11103273376E+03  0.11114095021E+03  0.17770000000E+01 0. -1.
</event>
<event>
 6   1  0.3798113E-04  0.5025541E+03  0.7546771E-02  0.9394113E-01
        -11   -1    0    0    0    0  0.00000000000E+00  0.00000000000E+00  0.50000000000E+03  0.50000000000E+03  0.00000000000E+00 0.  1.
         11   -1    0    0    0    0 -0.00000000000E+00 -0.00000000000E+00 -0.50000000000E+03  0.50000000000E+03  0.00000000000E+00 0.  1.
        -11    1    1    2    0    0 -0.11986559870E+02 -0.44362859992E+01  0.45999607800E+03  0.46017360858E+03  0.00000000000E+00 0.  1.
         11    1    1    2    0    0  0.39983406698E+01 -0.75447407993E+01 -0.49737263023E+03  0.49744591981E+03  0.00000000000E+00 0.  1.
        -15    1    1    2    0    0  0.73138582042E+00  0.11461268734E+02  0.16344895352E+02  0.20055147451E+02  0.17770000000E+01 0.  1.
         15    1    1    2    0    0  0.72568333797E+01  0.51975806428E+00  0.21031656870E+02  0.22325324160E+02  0.17770000000E+01 0. -1.
</event>
<event>
 6   1  0.3798113E-04  0.5000437E+03  0.7546771E-02  0.9399712E-01
        -11   -1    0    0    0    0  0.00000000000E+00  0.00000000000E+00  0.50000000000E+03  0.50000000000E+03  0.00000000000E+00 0.  1.
         11   -1    0    0    0    0 -0.00000000000E+00 -0.00000000000E+00 -0.50000000000E+03  0.50000000000E+03  0.00000000000E+00 0. -1.
        -11    1    1    2    0    0 -0.51737472029E+01  0.69550665487E+01  0.49988117395E+03  0.49995632678E+03  0.00000000000E+00 0.  1.
         11    1    1    2    0    0 -0.15048615476E+01 -0.36024881975E+01 -0.16180509951E+03  0.16185219417E+03  0.00000000000E+00 0. -1.
        -15    1    1    2    0    0  0.56631116560E+01 -0.19494501145E+01 -0.21666731503E+03  0.21675736278E+03  0.17770000000E+01 0. -1.
         15    1    1    2    0    0  0.10154970946E+01 -0.14031282367E+01 -0.12140875941E+03  0.12143411627E+03  0.17770000000E+01 0.  1.
</event>
<event>
 6   1  0.3798113E-04  0.5010007E+03  0.7546771E-02  0.9397573E-01
        -11   -1    0    0    0    0  0.00000000000E+00  0.00000000000E+00  0.50000000000E+03  0.50000000000E+03  0.00000000000E+00 0.  1.
         11   -1    0    0    0    0 -0.00000000000E+00 -0.00000000000E+00 -0.50000000000E+03  0.50000000000E+03  0.00000000000E+00 0.  1.
        -11    1    1    2    0    0 -0.61563434688E+01  0.17946465446E+02  0.49863842350E+03  0.49899925208E+03  0.00000000000E+00 0.  1.
         11    1    1    2    0    0 -0.50973904831E+01  0.53176240619E+01 -0.32108839896E+03  0.32117288251E+03  0.00000000000E+00 0.  1.
        -15    1    1    2    0    0  0.10881195159E+02 -0.14535438491E+02 -0.90368608462E+02  0.92191770265E+02  0.17770000000E+01 0. -1.
         15    1    1    2    0    0  0.37253879332E+00 -0.87286510174E+01 -0.87181416076E+02  0.87636095142E+02  0.17770000000E+01 0.  1.
</event>
<event>
 6   1  0.3798113E-04  0.5004308E+03  0.7546771E-02  0.9398846E-01
        -11   -1    0    0    0    0  0.00000000000E+00  0.00000000000E+00  0.50000000000E+03  0.50000000000E+03  0.00000000000E+00 0. -1.
         11   -1    0    0    0    0 -0.00000000000E+00 -0.00000000000E+00 -0.50000000000E+03  0.50000000000E+03  0.00000000000E+00 0.  1.
        -11    1    1    2    0    0  0.57841848165E+01  0.49665000684E+01  0.61453763664E+02  0.61924857572E+02  0.00000000000E+00 0. -1.
         11    1    1    2    0    0  0.11054418166E+01  0.13724905226E+02 -0.49937938795E+03  0.49956918253E+03  0.00000000000E+00 0.  1.
        -15    1    1    2    0    0 -0.67510177018E+01 -0.64540198342E+01  0.24499956927E+03  0.24518396621E+03  0.17770000000E+01 0. -1.
         15    1    1    2    0    0 -0.13860893123E+00 -0.12237385460E+02  0.19292605501E+03  0.19332199370E+03  0.17770000000E+01 0.  1.
</event>
<event>
 6   1  0.3798113E-04  0.5000761E+03  0.7546771E-02  0.9399640E-01
        -11   -1    0    0    0    0  0.00000000000E+00  0.00000000000E+00  0.50000000000E+03  0.50000000000E+03  0.00000000000E+00 0.  1.
         11   -1    0    0    0    0 -0.00000000000E+00 -0.00000000000E+00 -0.50000000000E+03  0.50000000000E+03  0.00000000000E+00 0. -1.
        -11    1    1    2    0    0  0.10624408242E+02 -0.19016390186E+01  0.49980739716E+03  0.49992392275E+03  0.00000000000E+00 0.  1.
         11    1    1    2    0    0 -0.18377426857E+01 -0.14702094306E+01 -0.12745236514E+03  0.12747409224E+03  0.00000000000E+00 0. -1.
        -15    1    1    2    0    0  0.15507728688E+00 -0.14240609387E+01 -0.14013808317E+03  0.14015666977E+03  0.17770000000E+01 0. -1.
         15    1    1    2    0    0 -0.89417428429E+01  0.47959093878E+01 -0.23221694885E+03  0.23244531524E+03  0.17770000000E+01 0. -1.
</event>
<event>
 6   1  0.3798113E-04  0.5023001E+03  0.7546771E-02  0.9394678E-01
        -11   -1    0    0    0    0  0.00000000000E+00  0.00000000000E+00  0.50000000000E+03  0.50000000000E+03  0.00000000000E+00 0. -1.
         11   -1    0    0    0    0 -0.00000000000E+00 -0.00000000000E+00 -0.50000000000E+03  0.50000000000E+03  0.00000000000E+00 0.  1.
        -11    1    1    2    0    0 -0.30289809660E+02 -0.10457706473E+02  0.96108721289E+02  0.10131003159E+03  0.00000000000E+00 0. -1.
         11    1    1    2    0    0  0.21569963006E+02  0.18861927249E+02 -0.49687439216E+03  0.49769990676E+03  0.00000000000E+00 0.  1.
        -15    1    1    2    0    0  0.25758065071E+01 -0.27719418136E+01  0.78043586485E+02  0.78155470448E+02  0.17770000000E+01 0. -1.
         15    1    1    2    0    0  0.61440401467E+01 -0.56322789622E+01  0.32272208439E+03  0.32283459120E+03  0.17770000000E+01 0. -1.
</event>
<event>
 6   1  0.3798113E-04  0.5011970E+03  0.7546771E-02  0.9397135E-01
        -11   -1    0    0    0    0  0.00000000000E+00  0.00000000000E+00  0.50000000000E+03  0.50000000000E+03  0.00000000000E+00 0. -1.
         11   -1    0    0    0    0 -0.00000000000E+00 -0.00000000000E+00 -0.50000000000E+03  0.50000000000E+03  0.00000000000E+00 0.  1.
        -11    1    1    2    0    0  0.16174082394E+02 -0.72235958592E+01  0.38427730984E+03  0.38468536772E+03  0.00000000000E+00 0. -1.
         11    1    1    2    0    0 -0.14777485802E+02  0.18822566629E+01 -0.49858046563E+03  0.49880296480E+03  0.00000000000E+00 0.  1.
        -15    1    1    2    0    0  0.72977151002E+01 -0.47743115511E+01  0.37758545246E+02  0.38793248956E+02  0.17770000000E+01 0.  1.
         15    1    1    2    0    0 -0.86943116920E+01  0.10115650747E+02  0.76544610545E+02  0.77718418527E+02  0.17770000000E+01 0. -1.
</event>
<event>
 6   1  0.3798113E-04  0.5006668E+03  0.7546771E-02  0.9398319E-01
        -11   -1    0    0    0    0  0.00000000000E+00  0.00000000000E+00  0.50000000000E+03  0.50000000000E+03  0.00000000000E+00 0. -1.
         11   -1    0    0    0    0 -0.00000000000E+00 -0.00000000000E+00 -0.50000000000E+03  0.50000000000E+03  0.00000000000E+00 0.  1.
        -11    1    1    2    0    0 -0.77576762739E+01 -0.45750999852E+02  0.29204734230E+03  0.29571098335E+03  0.00000000000E+00 0. -1.
         11    1    1    2    0    0  0.27603864503E+02  0.51948037297E+02 -0.49585588675E+03  0.49933318770E+03  0.00000000000E+00 0.  1.
        -15    1    1    2    0    0 -0.10148809975E+02 -0.51334328485E+01  0.12413593452E+03  0.12466851425E+03  0.17770000000E+01 0. -1.
         15    1    1    2    0    0 -0.96973782539E+01 -0.10636045965E+01  0.79672609925E+02  0.80287314696E+02  0.17770000000E+01 0.  1.
</event>
<event>
 6   1  0.3798113E-04  0.5000625E+03  0.7546771E-02  0.9399670E-01
        -11   -1    0    0    0    0  0.00000000000E+00  0.00000000000E+00  0.50000000000E+03  0.50000000000E+03  0.00000000000E+00 0. -1.
         11   -1    0    0    0    0 -0.00000000000E+00 -0.00000000000E+00 -0.50000000000E+03  0.50000000000E+03  0.00000000000E+00 0.  1.
        -11    1    1    2    0    0 -0.10724990565E+01 -0.81958451469E+01  0.49986916724E+03  0.49993750259E+03  0.00000000000E+00 0. -1.
         11    1    1    2    0    0 -0.24442932071E+01 -0.79154221488E+00 -0.14589799738E+03  0.14592061797E+03  0.00000000000E+00 0.  1.
        -15    1    1    2    0    0  0.10067309308E+01  0.20640433201E+01 -0.15379683909E+03  0.15382424784E+03  0.17770000000E+01 0.  1.
         15    1    1    2    0    0  0.25100613328E+01  0.69233440417E+01 -0.20017433077E+03  0.20031763160E+03  0.17770000000E+01 0. -1.
</event>
<event>
 6   1  0.3798113E-04  0.5012483E+03  0.7546771E-02  0.9397021E-01
        -11   -1    0    0    0    0  0.00000000000E+00  0.00000000000E+00  0.50000000000E+03  0.50000000000E+03  0.00000000000E+00 0. -1.
         11   -1    0    0    0    0 -0.00000000000E+00 -0.00000000000E+00 -0.50000000000E+03  0.50000000000E+03  0.00000000000E+00 0.  1.
        -11    1    1    2    0    0 -0.53908174063E+01 -0.11359356410E+01  0.47980725461E+01  0.73056664478E+01  0.00000000000E+00 0. -1.
         11    1    1    2    0    0  0.78915419806E+01 -0.83408204899E+01 -0.49861954932E+03  0.49875174254E+03  0.00000000000E+00 0.  1.
        -15    1    1    2    0    0 -0.20496281685E+01  0.31764723838E+01  0.14830718117E+03  0.14836599566E+03  0.17770000000E+01 0. -1.
         15    1    1    2    0    0 -0.45109640575E+00  0.63002837470E+01  0.34551429560E+03  0.34557659535E+03  0.17770000000E+01 0. -1.
</event>
<event>
 6   1  0.3798113E-04  0.5017355E+03  0.7546771E-02  0.9395935E-01
        -11   -1    0    0    0    0  0.00000000000E+00  0.00000000000E+00  0.50000000000E+03  0.50000000000E+03  0.00000000000E+00 0.  1.
         11   -1    0    0    0    0 -0.00000000000E+00 -0.00000000000E+00 -0.50000000000E+03  0.50000000000E+03  0.00000000000E+00 0. -1.
        -11    1    1    2    0    0 -0.88269047578E+01  0.14886403524E+02  0.49796380431E+03  0.49826445755E+03  0.00000000000E+00 0.  1.
         11    1    1    2    0    0 -0.85259009283E+01 -0.36110450867E+01 -0.41830679567E+03  0.41840925651E+03  0.00000000000E+00 0. -1.
        -15    1    1    2    0    0  0.16342673186E+02 -0.13161951075E+02 -0.75013051314E+02  0.77912999682E+02  0.17770000000E+01 0. -1.
         15    1    1    2    0    0  0.10101325001E+01  0.18865926382E+01 -0.46439573241E+01  0.54132862550E+01  0.17770000000E+01 0.  1.
</event>
<event>
 6   1  0.3798113E-04  0.5039800E+03  0.7546771E-02  0.9390948E-01
        -11   -1    0    0    0    0  0.00000000000E+00  0.00000000000E+00  0.50000000000E+03  0.50000000000E+03  0.00000000000E+00 0.  1.
         11   -1    0    0    0    0 -0.00000000000E+00 -0.00000000000E+00 -0.50000000000E+03  0.50000000000E+03  0.00000000000E+00 0. -1.
        -11    1    1    2    0    0  0.23079821650E+02 -0.13881584903E+02  0.49528827143E+03  0.49602000805E+03  0.00000000000E+00 0.  1.
         11    1    1    2    0    0  0.20759980341E+00  0.12119026435E+02 -0.45293664207E+03  0.45309879235E+03  0.00000000000E+00 0. -1.
        -15    1    1    2    0    0 -0.21988315003E+02  0.63591640912E+01 -0.36514414578E+02  0.43132182482E+02  0.17770000000E+01 0. -1.
         15    1    1    2    0    0 -0.12991064502E+01 -0.45966056235E+01 -0.58372147809E+01  0.77490171135E+01  0.17770000000E+01 0.  1.
</event>
<event>
 6   1  0.3798113E-04  0.5016109E+03  0.7546771E-02  0.9396212E-01
        -11   -1    0    0    0    0  0.00000000000E+00  0.00000000000E+00  0.50000000000E+03  0.50000000000E+03  0.00000000000E+00 0.  1.
         11   -1    0    0    0    0 -0.00000000000E+00 -0.00000000000E+00 -0.50000000000E+03  0.50000000000E+03  0.00000000000E+00 0.  1.
        -11    1    1    2    0    0  0.14764785255E+02 -0.15994987901E+02  0.32574191644E+03  0.32646842826E+03  0.00000000000E+00 0.  1.
         11    1    1    2    0    0  0.79359620356E+01 -0.27517548824E+00 -0.49832581233E+03  0.49838907537E+03  0.00000000000E+00 0.  1.
        -15    1    1    2    0    0 -0.87995739566E+01  0.25731461057E+01  0.37536227389E+02  0.38680481878E+02  0.17770000000E+01 0. -1.
         15    1    1    2    0    0 -0.13901173334E+02  0.13697017284E+02  0.13504766850E+03  0.13646201449E+03  0.17770000000E+01 0.  1.
</event>
<event>
 6   1  0.3798113E-04  0.5005212E+03  0.7546771E-02  0.9398644E-01
        -11   -1    0    0    0    0  0.00000000000E+00  0.00000000000E+00  0.50000000000E+03  0.50000000000E+03  0.00000000000E+00 0. -1.
         11   -1    0    0    0    0 -0.00000000000E+00 -0.00000000000E+00 -0.50000000000E+03  0.50000000000E+03  0.00000000000E+00 0. -1.
        -11    1    1    2    0    0  0.51269102008E+02  0.72339895322E+01  0.49678792057E+03  0.49947881782E+03  0.00000000000E+00 0. -1.
         11    1    1    2    0    0 -0.53989545953E+02 -0.10624493762E+02 -0.44745670745E+03  0.45082730173E+03  0.00000000000E+00 0. -1.
        -15    1    1    2    0    0  0.92231805797E+00  0.10247836912E+01 -0.27274285077E+02  0.27366863315E+02  0.17770000000E+01 0.  1.
         15    1    1    2    0    0  0.17981258866E+01  0.23657205385E+01 -0.22056928045E+02  0.22327017135E+02  0.17770000000E+01 0. -1.
</event>
<event>
 6   1  0.3798113E-04  0.5003191E+03  0.7546771E-02  0.9399096E-01
        -11   -1    0    0    0    0  0.00000000000E+00  0.00000000000E+00  0.50000000000E+03  0.50000000000E+03  0.00000000000E+00 0.  1.
         11   -1    0    0    0    0 -0.00000000000E+00 -0.00000000000E+00 -0.50000000000E+03  0.50000000000E+03  0.00000000000E+00 0. -1.
        -11    1    1    2    0    0 -0.20618114640E+02 -0.31756884137E+01  0.31201794889E+03  0.31271455368E+03  0.00000000000E+00 0.  1.
         11    1    1    2    0    0  0.16042126046E+02  0.61964686566E+00 -0.49942298298E+03  0.49968094791E+03  0.00000000000E+00 0. -1.
        -15    1    1    2    0    0  0.55797962283E+01  0.16504273375E+01  0.11078329037E+03  0.11095022843E+03  0.17770000000E+01 0.  1.
         15    1    1    2    0    0 -0.10038076339E+01  0.90561421052E+00  0.76621743722E+02  0.76654269984E+02  0.17770000000E+01 0. -1.
</event>
<event>
 6   1  0.3798113E-04  0.5000364E+03  0.7546771E-02  0.9399728E-01
        -11   -1    0    0    0    0  0.00000000000E+00  0.00000000000E+00  0.50000000000E+03  0.50000000000E+03  0.00000000000E+00 0. -1.
         11   -1    0    0    0    0 -0.00000000000E+00 -0.00000000000E+00 -0.50000000000E+03  0.50000000000E+03  0.00000000000E+00 0. -1.
        -11    1    1    2    0    0 -0.69072285565E+01  0.12073720657E+00  0.29529778611E+03  0.29537858227E+03  0.00000000000E+00 0. -1.
         11    1    1    2    0    0  0.77242748876E+01  0.12808510069E+01 -0.49990226340E+03  0.49996357663E+03  0.00000000000E+00 0. -1.
        -15    1    1    2    0    0 -0.11232486330E+01 -0.18582104474E+01  0.11732280485E+03  0.11735635007E+03  0.17770000000E+01 0. -1.
         15    1    1    2    0    0  0.30620230199E+00  0.45662223394E+00  0.87281672440E+02  0.87301491033E+02  0.17770000000E+01 0.  1.
</event>
<event>
 6   1  0.3798113E-04  0.5071842E+03  0.7546771E-02  0.9383877E-01
        -11   -1    0    0    0    0  0.00000000000E+00  0.00000000000E+00  0.50000000000E+03  0.50000000000E+03  0.00000000000E+00 0. -1.
         11   -1    0    0    0    0 -0.00000000000E+00 -0.00000000000E+00 -0.50000000000E+03  0.50000000000E+03  0.00000000000E+00 0.  1.
        -11    1    1    2    0    0 -0.22906038465E+02  0.17965748268E+02  0.49195528032E+03  0.49281584040E+03  0.00000000000E+00 0. -1.
         11    1    1    2    0    0  0.80055053276E+01 -0.26972320744E+01 -0.43902259972E+03  0.43910386726E+03  0.00000000000E+00 0.  1.
        -15    1    1    2    0    0  0.18064999333E+02 -0.29387789900E+01 -0.58830241228E+01  0.19306691189E+02  0.17770000000E+01 0. -1.
         15    1    1    2    0    0 -0.31644661956E+01 -0.12329737204E+02 -0.47049656479E+02  0.48773601155E+02  0.17770000000E+01 0.  1.
</event>
<event>
 6   1  0.3798113E-04  0.5218427E+03  0.7546771E-02  0.9352219E-01
        -11   -1    0    0    0    0  0.00000000000E+00  0.00000000000E+00  0.50000000000E+03  0.50000000000E+03  0.00000000000E+00 0.  1.
         11   -1    0    0    0    0 -0.00000000000E+00 -0.00000000000E+00 -0.50000000000E+03  0.50000000000E+03  0.00000000000E+00 0. -1.
        -11    1    1    2    0    0 -0.24630338501E+02  0.73544550460E+02  0.47182507708E+03  0.47815725221E+03  0.00000000000E+00 0.  1.
         11    1    1    2    0    0 -0.38926299489E+01  0.61352294669E+02 -0.80688418259E+02  0.10143903327E+03  0.00000000000E+00 0. -1.
        -15    1    1    2    0    0  0.25924144692E+02 -0.10970717603E+03 -0.21811922050E+03  0.24553386290E+03  0.17770000000E+01 0. -1.
         15    1    1    2    0    0  0.25988237582E+01 -0.25189669104E+02 -0.17301743833E+03  0.17486985163E+03  0.17770000000E+01 0.  1.
</event>
<event>
 6   1  0.3798113E-04  0.5014057E+03  0.7546771E-02  0.9396670E-01
        -11   -1    0    0    0    0  0.00000000000E+00  0.00000000000E+00  0.50000000000E+03  0.50000000000E+03  0.00000000000E+00 0. -1.
         11   -1    0    0    0    0 -0.00000000000E+00 -0.00000000000E+00 -0.50000000000E+03  0.50000000000E+03  0.00000000000E+00 0. -1.
        -11    1    1    2    0    0 -0.86309698917E+01 -0.89623651518E+01  0.26488759124E+02  0.29265542713E+02  0.00000000000E+00 0. -1.
         11    1    1    2    0    0  0.11730229266E+02  0.89885699877E+01 -0.49837521389E+03  0.49859427042E+03  0.00000000000E+00 0. -1.
        -15    1    1    2    0    0 -0.47321441066E+01 -0.64608475163E+01  0.30891125375E+03  0.30902015494E+03  0.17770000000E+01 0. -1.
         15    1    1    2    0    0  0.16328847325E+01  0.64346426804E+01  0.16297520102E+03  0.16312003193E+03  0.17770000000E+01 0.  1.
</event>
<event>
 6   1  0.3798113E-04  0.5013999E+03  0.7546771E-02  0.9396683E-01
        -11   -1    0    0    0    0  0.00000000000E+00  0.00000000000E+00  0.50000000000E+03  0.50000000000E+03  0.00000000000E+00 0.  1.
         11   -1    0    0    0    0 -0.00000000000E+00 -0.00000000000E+00 -0.50000000000E+03  0.50000000000E+03  0.00000000000E+00 0. -1.
        -11    1    1    2    0    0  0.61288947800E+01  0.17787398656E+02  0.27264178798E+03  0.27329013787E+03  0.00000000000E+00 0.  1.
         11    1    1    2    0    0 -0.15636901518E+02  0.21703964099E+00 -0.49835479744E+03  0.49860010422E+03  0.00000000000E+00 0. -1.
        -15    1    1    2    0    0  0.10032739705E+02 -0.22018450736E+02  0.21687320116E+03  0.21822605516E+03  0.17770000000E+01 0.  1.
         15    1    1    2    0    0 -0.52473296707E+00  0.40140124383E+01  0.88398082926E+01  0.98837027572E+01  0.17770000000E+01 0. -1.
</event>
<event>
 6   1  0.3798113E-04  0.5010760E+03  0.7546771E-02  0.9397405E-01
        -11   -1    0    0    0    0  0.00000000000E+00  0.00000000000E+00  0.50000000000E+03  0.50000000000E+03  0.00000000000E+00 0.  1.
         11   -1    0    0    0    0 -0.00000000000E+00 -0.00000000000E+00 -0.50000000000E+03  0.50000000000E+03  0.00000000000E+00 0.  1.
        -11    1    1    2    0    0 -0.45733832205E+01  0.88418501843E+01  0.49882469114E+03  0.49892400888E+03  0.00000000000E+00 0.  1.
         11    1    1    2    0    0  0.24041144169E+01  0.33841679435E+01 -0.24803039161E+03  0.24806512758E+03  0.00000000000E+00 0.  1.
        -15    1    1    2    0    0 -0.14094411865E+02 -0.87654307385E+01 -0.12675116521E+03  0.12784561327E+03  0.17770000000E+01 0. -1.
         15    1    1    2    0    0  0.16263680668E+02 -0.34605873893E+01 -0.12404313432E+03  0.12516525027E+03  0.17770000000E+01 0.  1.
</event>
<event>
 6   1  0.3798113E-04  0.5010764E+03  0.7546771E-02  0.9397405E-01
        -11   -1    0    0    0    0  0.00000000000E+00  0.00000000000E+00  0.50000000000E+03  0.50000000000E+03  0.00000000000E+00 0.  1.
         11   -1    0    0    0    0 -0.00000000000E+00 -0.00000000000E+00 -0.50000000000E+03  0.50000000000E+03  0.00000000000E+00 0.  1.
        -11    1    1    2    0    0  0.14841009038E+01 -0.18206853223E+02  0.45362176035E+03  0.45398942006E+03  0.00000000000E+00 0.  1.
         11    1    1    2    0    0 -0.36543535508E+01  0.10944675903E+02 -0.49879020237E+03  0.49892364768E+03  0.00000000000E+00 0.  1.
        -15    1    1    2    0    0 -0.30374012398E+01 -0.57921774489E+00  0.15725249992E+02  0.16124593508E+02  0.17770000000E+01 0. -1.
         15    1    1    2    0    0  0.52076538868E+01  0.78413950648E+01  0.29443192027E+02  0.30962338757E+02  0.17770000000E+01 0.  1.
</event>
<event>
 6   1  0.3798113E-04  0.5005724E+03  0.7546771E-02  0.9398530E-01
        -11   -1    0    0    0    0  0.00000000000E+00  0.00000000000E+00  0.50000000000E+03  0.50000000000E+03  0.00000000000E+00 0.  1.
         11   -1    0    0    0    0 -0.00000000000E+00 -0.00000000000E+00 -0.50000000000E+03  0.50000000000E+03  0.00000000000E+00 0. -1.
        -11    1    1    2    0    0  0.64680149298E+01 -0.68134419580E+01  0.49933925609E+03  0.49942762326E+03  0.00000000000E+00 0.  1.
         11    1    1    2    0    0 -0.39071208127E+01  0.61775522214E+01 -0.48426802338E+03  0.48432318364E+03  0.00000000000E+00 0. -1.
        -15    1    1    2    0    0 -0.72545584060E+00  0.73346904819E+00 -0.17929304145E+01  0.27270114581E+01  0.17770000000E+01 0. -1.
         15    1    1    2    0    0 -0.18354382766E+01 -0.97579311585E-01 -0.13278302294E+02  0.13522181636E+02  0.17770000000E+01 0. -1.
</event>
<event>
 6   1  0.3798113E-04  0.5036412E+03  0.7546771E-02  0.9391699E-01
        -11   -1    0    0    0    0  0.00000000000E+00  0.00000000000E+00  0.50000000000E+03  0.50000000000E+03  0.00000000000E+00 0.  1.
         11   -1    0    0    0    0 -0.00000000000E+00 -0.00000000000E+00 -0.50000000000E+03  0.50000000000E+03  0.00000000000E+00 0.  1.
        -11    1    1    2    0    0 -0.22376883216E+01 -0.10004787736E+02  0.47460369204E+03  0.47471440627E+03  0.00000000000E+00 0.  1.
         11    1    1    2    0    0  0.66734165632E+01 -0.41205330415E+01 -0.49629682436E+03  0.49635879276E+03  0.00000000000E+00 0.  1.
        -15    1    1    2    0    0 -0.55369700759E+01  0.57236990203E+01  0.37001909462E+01  0.89592360240E+01  0.17770000000E+01 0. -1.
         15    1    1    2    0    0  0.11012418342E+01  0.84016217569E+01  0.17992941371E+02  0.19967564947E+02  0.17770000000E+01 0.  1.
</event>
<event>
 6   1  0.3798113E-04  0.5002506E+03  0.7546771E-02  0.9399249E-01
        -11   -1    0    0    0    0  0.00000000000E+00  0.00000000000E+00  0.50000000000E+03  0.50000000000E+03  0.00000000000E+00 0. -1.
         11   -1    0    0    0    0 -0.00000000000E+00 -0.00000000000E+00 -0.50000000000E+03  0.50000000000E+03  0.00000000000E+00 0. -1.
        -11    1    1    2    0    0 -0.33308718157E+01  0.64960260250E+01  0.12399672650E+03  0.12421143766E+03  0.00000000000E+00 0. -1.
         11    1    1    2    0    0 -0.95161633654E+01 -0.47538584758E+01 -0.49963619039E+03  0.49974941649E+03  0.00000000000E+00 0. -1.
        -15    1    1    2    0    0  0.58296610926E+01 -0.93539463146E+00  0.29677540562E+03  0.29683944991E+03  0.17770000000E+01 0. -1.
         15    1    1    2    0    0  0.70173740885E+01 -0.80677291779E+00  0.78864058269E+02  0.79199695942E+02  0.17770000000E+01 0.  1.
</event>
<event>
 6   1  0.3798113E-04  0.5089087E+03  0.7546771E-02  0.9380094E-01
        -11   -1    0    0    0    0  0.00000000000E+00  0.00000000000E+00  0.50000000000E+03  0.50000000000E+03  0.00000000000E+00 0. -1.
         11   -1    0    0    0    0 -0.00000000000E+00 -0.00000000000E+00 -0.50000000000E+03  0.50000000000E+03  0.00000000000E+00 0. -1.
        -11    1    1    2    0    0 -0.50793921520E+02  0.54513757547E+02  0.48540590267E+03  0.49109129760E+03  0.00000000000E+00 0. -1.
         11    1    1    2    0    0  0.88581532836E+01 -0.62813681341E+01 -0.36177674941E+03  0.36193968956E+03  0.00000000000E+00 0. -1.
        -15    1    1    2    0    0 -0.63970168339E+01 -0.14905383848E+02 -0.51086420846E+02  0.53629025871E+02  0.17770000000E+01 0.  1.
         15    1    1    2    0    0  0.48332785070E+02 -0.33327005564E+02 -0.72542732415E+02  0.93339986971E+02  0.17770000000E+01 0. -1.
</event>
<event>
 6   1  0.3798113E-04  0.5000694E+03  0.7546771E-02  0.9399655E-01
        -11   -1    0    0    0    0  0.00000000000E+00  0.00000000000E+00  0.50000000000E+03  0.50000000000E+03  0.00000000000E+00 0. -1.
         11   -1    0    0    0    0 -0.00000000000E+00 -0.00000000000E+00 -0.50000000000E+03  0.50000000000E+03  0.00000000000E+00 0. -1.
        -11    1    1    2    0    0 -0.38258976597E+01 -0.59541254116E+01  0.49988053074E+03  0.49993062930E+03  0.00000000000E+00 0. -1.
         11    1    1    2    0    0  0.40476300477E+01 -0.49219865956E+00 -0.14365015990E+03  0.14370801651E+03  0.00000000000E+00 0. -1.
        -15    1    1    2    0    0 -0.22461702239E+01  0.29181432937E+00 -0.12659684715E+03  0.12662957740E+03  0.17770000000E+01 0.  1.
         15    1    1    2    0    0  0.20244378359E+01  0.61545097418E+01 -0.22963352369E+03  0.22973177679E+03  0.17770000000E+01 0. -1.
</event>
<event>
 6   1  0.3798113E-04  0.4894830E+03  0.7546771E-02  0.9423655E-01
        -11   -1    0    0    0    0  0.00000000000E+00  0.00000000000E+00  0.50000000000E+03  0.50000000000E+03  0.00000000000E+00 0. -1.
         11   -1    0    0    0    0 -0.00000000000E+00 -0.00000000000E+00 -0.50000000000E+03  0.50000000000E+03  0.00000000000E+00 0. -1.
        -11    1    1    2    0    0 -0.65874206181E+01 -0.98289168410E+01  0.48740513411E+03  0.48754873241E+03  0.00000000000E+00 0. -1.
         11    1    1    2    0    0  0.70560106482E+01 -0.85185475947E+01 -0.49147333354E+03  0.49159779345E+03  0.00000000000E+00 0. -1.
        -15    1    1    2    0    0 -0.16850875730E+01  0.15451011676E+02  0.60056372674E+01  0.16757048963E+02  0.17770000000E+01 0. -1.
         15    1    1    2    0    0  0.12164975429E+01  0.28964527596E+01 -0.19374378369E+01  0.40964251772E+01  0.17770000000E+01 0.  1.
</event>
<event>
 6   1  0.3798113E-04  0.5026146E+03  0.7546771E-02  0.9393978E-01
        -11   -1    0    0    0    0  0.00000000000E+00  0.00000000000E+00  0.50000000000E+03  0.50000000000E+03  0.00000000000E+00 0.  1.
         11   -1    0    0    0    0 -0.00000000000E+00 -0.00000000000E+00 -0.50000000000E+03  0.50000000000E+03  0.00000000000E+00 0. -1.
        -11    1    1    2    0    0  0.60049366695E+02 -0.59452580131E+01  0.30162128775E+03  0.30759823432E+03  0.00000000000E+00 0.  1.
         11    1    1    2    0    0 -0.44954766464E+02 -0.70863129371E+01 -0.49529894087E+03  0.49738535129E+03  0.00000000000E+00 0. -1.
        -15    1    1    2    0    0 -0.14551757249E+02  0.78980382392E+01  0.12200694120E+03  0.12313806916E+03  0.17770000000E+01 0.  1.
         15    1    1    2    0    0 -0.54284298202E+00  0.51335327110E+01  0.71670711916E+02  0.71878345224E+02  0.17770000000E+01 0. -1.
</event>
<event>
 6   1  0.3798113E-04  0.5028162E+03  0.7546771E-02  0.9393530E-01
        -11   -1    0    0    0    0  0.00000000000E+00  0.00000000000E+00  0.50000000000E+03  0.50000000000E+03  0.00000000000E+00 0. -1.
         11   -1    0    0    0    0 -0.00000000000E+00 -0.00000000000E+00 -0.50000000000E+03  0.50000000000E+03  0.00000000000E+00 0.  1.
        -11    1    1    2    0    0 -0.13233384806E+01 -0.31505999508E+02  0.49618274040E+03  0.49718375989E+03  0.00000000000E+00 0. -1.
         11    1    1    2    0    0  0.24282533733E+01 -0.45920198909E+01 -0.35674030550E+03  0.35677812241E+03  0.00000000000E+00 0.  1.
        -15    1    1    2    0    0 -0.80399510654E+00  0.34607432601E+01 -0.60034242881E+02  0.60165531655E+02  0.17770000000E+01 0.  1.
         15    1    1    2    0    0 -0.30091978619E+00  0.32637276139E+02 -0.79408192014E+02  0.85872586047E+02  0.17770000000E+01 0. -1.
</event>
<event>
 6   1  0.3798113E-04  0.5007259E+03  0.7546771E-02  0.9398187E-01
        -11   -1    0    0    0    0  0.00000000000E+00  0.00000000000E+00  0.50000000000E+03  0.50000000000E+03  0.00000000000E+00 0. -1.
         11   -1    0    0    0    0 -0.00000000000E+00 -0.00000000000E+00 -0.50000000000E+03  0.50000000000E+03  0.00000000000E+00 0.  1.
        -11    1    1    2    0    0 -0.12941064945E+01 -0.74209430860E+01  0.43221158484E+03  0.43227722492E+03  0.00000000000E+00 0. -1.
         11    1    1    2    0    0  0.72015341275E+01 -0.94517723671E+00 -0.49922126477E+03  0.49927409972E+03  0.00000000000E+00 0.  1.
        -15    1    1    2    0    0 -0.10741264311E+01  0.85842844957E+00  0.27681378162E+01  0.35652437452E+01  0.17770000000E+01 0.  1.
         15    1    1    2    0    0 -0.48333012019E+01  0.75076918731E+01  0.64241542106E+02  0.64883431621E+02  0.17770000000E+01 0. -1.
</event>
<event>
 6   1  0.3798113E-04  0.5040014E+03  0.7546771E-02  0.9390901E-01
        -11   -1    0    0    0    0  0.00000000000E+00  0.00000000000E+00  0.50000000000E+03  0.50000000000E+03  0.00000000000E+00 0. -1.
         11   -1    0    0    0    0 -0.00000000000E+00 -0.00000000000E+00 -0.50000000000E+03  0.50000000000E+03  0.00000000000E+00 0.  1.
        -11    1    1    2    0    0  0.87598352673E+01 -0.16167934950E+02  0.49565765410E+03  0.49599863599E+03  0.00000000000E+00 0. -1.
         11    1    1    2    0    0 -0.61305828699E+01 -0.47931162450E+01 -0.43423454304E+03  0.43430426706E+03  0.00000000000E+00 0.  1.
        -15    1    1    2    0    0  0.14291477218E+00  0.16433052071E+02 -0.13208830072E+02  0.21158840844E+02  0.17770000000E+01 0.  1.
         15    1    1    2    0    0 -0.27721671696E+01  0.45279991248E+01 -0.48214280982E+02  0.48538256113E+02  0.17770000000E+01 0. -1.
</event>
<event>
 6   1  0.3798113E-04  0.4723358E+03  0.7546771E-02  0.9463931E-01
        -11   -1    0    0    0    0  0.00000000000E+00  0.00000000000E+00  0.50000000000E+03  0.50000000000E+03  0.00000000000E+00 0.  1.
         11   -1    0    0    0    0 -0.00000000000E+00 -0.00000000000E+00 -0.50000000000E+03  0.50000000000E+03  0.00000000000E+00 0. -1.
        -11    1    1    2    0    0 -0.29585000399E+02  0.14082695286E+02  0.48305744423E+03  0.48416741834E+03  0.00000000000E+00 0.  1.
         11    1    1    2    0    0 -0.71066013392E+01  0.18925703883E+01 -0.46153774740E+03  0.46159633651E+03  0.00000000000E+00 0. -1.
        -15    1    1    2    0    0  0.13777669518E+02 -0.13925305732E+02  0.37423461567E+01  0.20022517345E+02  0.17770000000E+01 0. -1.
         15    1    1    2    0    0  0.22913932219E+02 -0.20499599422E+01 -0.25262042984E+02  0.34213727804E+02  0.17770000000E+01 0.  1.
</event>
<event>
 6   1  0.3798113E-04  0.5025455E+03  0.7546771E-02  0.9394132E-01
        -11   -1    0    0    0    0  0.00000000000E+00  0.00000000000E+00  0.50000000000E+03  0.50000000000E+03  0.00000000000E+00 0.  1.
         11   -1    0    0    0    0 -0.00000000000E+00 -0.00000000000E+00 -0.50000000000E+03  0.50000000000E+03  0.00000000000E+00 0.  1.
        -11    1    1    2    0    0 -0.11838958764E+02  0.17284363531E+02  0.38350260529E+02  0.43699572651E+02  0.00000000000E+00 0.  1.
         11    1    1    2    0    0  0.38373754762E+01 -0.18468008132E+02 -0.49709673487E+03  0.49745447690E+03  0.00000000000E+00 0.  1.
        -15    1    1    2    0    0  0.23302990484E+01  0.18631751401E+01  0.20161150140E+03  0.20164140681E+03  0.17770000000E+01 0.  1.
         15    1    1    2    0    0  0.56712842393E+01 -0.67953053880E+00  0.25713497294E+03  0.25720454363E+03  0.17770000000E+01 0.  1.
</event>
<event>
 6   1  0.3798113E-04  0.5060595E+03  0.7546771E-02  0.9386352E-01
        -11   -1    0    0    0    0  0.00000000000E+00  0.00000000000E+00  0.50000000000E+03  0.50000000000E+03  0.00000000000E+00 0. -1.
         11   -1    0    0    0    0 -0.00000000000E+00 -0.00000000000E+00 -0.50000000000E+03  0.50000000000E+03  0.00000000000E+00 0. -1.
        -11    1    1    2    0    0 -0.58855368976E+01 -0.84761180230E+01  0.49383266441E+03  0.49394046662E+03  0.00000000000E+00 0. -1.
         11    1    1    2    0    0 -0.87386468266E+01  0.81386934976E+01 -0.47720891471E+03  0.47735830417E+03  0.00000000000E+00 0. -1.
        -15    1    1    2    0    0  0.92455213852E+01  0.67415313782E+01 -0.19848422613E+01  0.11748414310E+02  0.17770000000E+01 0. -1.
         15    1    1    2    0    0  0.53786623390E+01 -0.64041068529E+01 -0.14638907438E+02  0.16952814903E+02  0.17770000000E+01 0.  1.
</event>
<event>
 6   1  0.3798113E-04  0.5002688E+03  0.7546771E-02  0.9399209E-01
        -11   -1    0    0    0    0  0.00000000000E+00  0.00000000000E+00  0.50000000000E+03  0.50000000000E+03  0.00000000000E+00 0. -1.
         11   -1    0    0    0    0 -0.00000000000E+00 -0.00000000000E+00 -0.50000000000E+03  0.50000000000E+03  0.00000000000E+00 0.  1.
        -11    1    1    2    0    0  0.19369348497E+02  0.46558239315E+02  0.49718051788E+03  0.49973123644E+03  0.00000000000E+00 0. -1.
         11    1    1    2    0    0 -0.14936966694E+02 -0.31150913589E+02 -0.35064340444E+03  0.35234115495E+03  0.00000000000E+00 0.  1.
        -15    1    1    2    0    0 -0.23674449076E+01 -0.14806969600E+02 -0.85245028512E+02  0.86572072629E+02  0.17770000000E+01 0.  1.
         15    1    1    2    0    0 -0.20649368948E+01 -0.60035612552E+00 -0.61292084927E+02  0.61355535981E+02  0.17770000000E+01 0. -1.
</event>
<event>
 6   1  0.3798113E-04  0.5016883E+03  0.7546771E-02  0.9396040E-01
        -11   -1    0    0    0    0  0.00000000000E+00  0.00000000000E+00  0.50000000000E+03  0.50000000000E+03  0.00000000000E+00 0.  1.
         11   -1    0    0    0    0 -0.00000000000E+00 -0.00000000000E+00 -0.50000000000E+03  0.50000000000E+03  0.00000000000E+00 0. -1.
        -11    1    1    2    0    0 -0.44211940507E+02  0.17451942234E+02  0.49603956780E+03  0.49831166833E+03  0.00000000000E+00 0.  1.
         11    1    1    2    0    0  0.76028146691E+01  0.28788235204E+01 -0.27794417080E+03  0.27806303692E+03  0.00000000000E+00 0. -1.
        -15    1    1    2    0    0  0.36854734288E+02 -0.15673838094E+02 -0.21195431635E+03  0.21571214752E+03  0.17770000000E+01 0. -1.
         15    1    1    2    0    0 -0.24560845021E+00 -0.46569276605E+01 -0.61410806485E+01  0.79131472422E+01  0.17770000000E+01 0. -1.
</event>
<event>
 6   1  0.3798113E-04  0.4690490E+03  0.7546771E-02  0.9471859E-01
        -11   -1    0    0    0    0  0.00000000000E+00  0.00000000000E+00  0.50000000000E+03  0.50000000000E+03  0.00000000000E+00 0.  1.
         11   -1    0    0    0    0 -0.00000000000E+00 -0.00000000000E+00 -0.50000000000E+03  0.50000000000E+03  0.00000000000E+00 0. -1.
        -11    1    1    2    0    0  0.16554963414E+02 -0.47281009940E+02  0.35453825201E+02  0.61372098188E+02  0.00000000000E+00 0.  1.
         11    1    1    2    0    0  0.96435113199E+01 -0.14213409269E+01 -0.48453179921E+03  0.48462984015E+03  0.00000000000E+00 0. -1.
        -15    1    1    2    0    0  0.49115865545E+01  0.20007951586E+01  0.12263081488E+03  0.12275830461E+03  0.17770000000E+01 0. -1.
         15    1    1    2    0    0 -0.31110061288E+02  0.46701555708E+02  0.32644715913E+03  0.33123975705E+03  0.17770000000E+01 0.  1.
</event>
<event>
 6   1  0.3798113E-04  0.5009134E+03  0.7546771E-02  0.9397768E-01
        -11   -1    0    0    0    0  0.00000000000E+00  0.00000000000E+00  0.50000000000E+03  0.50000000000E+03  0.00000000000E+00 0.  1.
         11   -1    0    0    0    0 -0.00000000000E+00 -0.00000000000E+00 -0.50000000000E+03  0.50000000000E+03  0.00000000000E+00 0. -1.
        -11    1    1    2    0    0 -0.16963058506E+02  0.16030120045E+02  0.13087576367E+03  0.13294049653E+03  0.00000000000E+00 0.  1.
         11    1    1    2    0    0  0.15844164037E+02 -0.14296045818E+02 -0.49863018300E+03  0.49908663964E+03  0.00000000000E+00 0. -1.
        -15    1    1    2    0    0  0.60676644197E+01  0.86764901108E+00  0.23851462215E+03  0.23859998339E+03  0.17770000000E+01 0.  1.
         15    1    1    2    0    0 -0.49487699511E+01 -0.26017232383E+01  0.12923979718E+03  0.12937288044E+03  0.17770000000E+01 0. -1.
</event>
<event>
 6   1  0.3798113E-04  0.5076317E+03  0.7546771E-02  0.9382893E-01
        -11   -1    0    0    0    0  0.00000000000E+00  0.00000000000E+00  0.50000000000E+03  0.50000000000E+03  0.00000000000E+00 0. -1.
         11   -1    0    0    0    0 -0.00000000000E+00 -0.00000000000E+00 -0.50000000000E+03  0.50000000000E+03  0.00000000000E+00 0. -1.
        -11    1    1    2    0    0 -0.41427256594E+02  0.19894396048E+02  0.49021885138E+03  0.49236828374E+03  0.00000000000E+00 0. -1.
         11    1    1    2    0    0  0.11767147057E+02  0.63663703592E+01 -0.44820784822E+03  0.44840748391E+03  0.00000000000E+00 0. -1.
        -15    1    1    2    0    0  0.25271243305E+02 -0.15942998938E+02 -0.26330263737E+02  0.39865467146E+02  0.17770000000E+01 0. -1.
         15    1    1    2    0    0  0.43888662320E+01 -0.10317767470E+02 -0.15680739426E+02  0.19358765206E+02  0.17770000000E+01 0.  1.
</event>
<event>
 6   1  0.3798113E-04  0.5058430E+03  0.7546771E-02  0.9386830E-01
        -11   -1    0    0    0    0  0.00000000000E+00  0.00000000000E+00  0.50000000000E+03  0.50000000000E+03  0.00000000000E+00 0. -1.
         11   -1    0    0    0    0 -0.00000000000E+00 -0.00000000000E+00 -0.50000000000E+03  0.50000000000E+03  0.00000000000E+00 0.  1.
        -11    1    1    2    0    0 -0.82450488870E+01 -0.13470708425E+02  0.49390454063E+03  0.49415699537E+03  0.00000000000E+00 0. -1.
         11    1    1    2    0    0 -0.52545247704E+00  0.81766928867E+01 -0.48526907373E+03  0.48533824115E+03  0.00000000000E+00 0.  1.
        -15    1    1    2    0    0  0.65280834090E+01  0.10356818881E+02 -0.78131809579E+01  0.14631578726E+02  0.17770000000E+01 0. -1.
         15    1    1    2    0    0  0.22424179551E+01 -0.50628033427E+01 -0.82228594897E+00  0.58731847540E+01  0.17770000000E+01 0.  1.
</event>
<event>
 6   1  0.3798113E-04  0.5015039E+03  0.7546771E-02  0.9396451E-01
        -11   -1    0    0    0    0  0.00000000000E+00  0.00000000000E+00  0.50000000000E+03  0.50000000000E+03  0.00000000000E+00 0.  1.
         11   -1    0    0    0    0 -0.00000000000E+00 -0.00000000000E+00 -0.50000000000E+03  0.50000000000E+03  0.00000000000E+00 0.  1.
        -11    1    1    2    0    0 -0.55660735408E+01  0.13718698197E+02  0.40769402285E+02  0.43374278294E+02  0.00000000000E+00 0.  1.
         11    1    1    2    0    0 -0.25020073419E+01 -0.18560413312E+02 -0.49814417772E+03  0.49849610909E+03  0.00000000000E+00 0.  1.
        -15    1    1    2    0    0 -0.69057173211E+01 -0.28853428524E+01  0.78452908751E+02  0.78829123777E+02  0.17770000000E+01 0. -1.
         15    1    1    2    0    0  0.14973798204E+02  0.77270579673E+01  0.37892186668E+03  0.37930048884E+03  0.17770000000E+01 0.  1.
</event>
<event>
 6   1  0.3798113E-04  0.4754433E+03  0.7546771E-02  0.9456498E-01
        -11   -1    0    0    0    0  0.00000000000E+00  0.00000000000E+00  0.50000000000E+03  0.50000000000E+03  0.00000000000E+00 0.  1.
         11   -1    0    0    0    0 -0.00000000000E+00 -0.00000000000E+00 -0.50000000000E+03  0.50000000000E+03  0.00000000000E+00 0.  1.
        -11    1    1    2    0    0  0.21615822615E+02 -0.71720617097E+00  0.47728853882E+03  0.47777830367E+03  0.00000000000E+00 0.  1.
         11    1    1    2    0    0  0.11054399530E+02  0.54927426875E+01 -0.47352793652E+03  0.47368879725E+03  0.00000000000E+00 0.  1.
        -15    1    1    2    0    0 -0.15071500677E+01  0.35330152867E+01 -0.14017861335E+02  0.14642809285E+02  0.17770000000E+01 0. -1.
         15    1    1    2    0    0 -0.31163072077E+02 -0.83085518033E+01  0.10257259038E+02  0.33890089795E+02  0.17770000000E+01 0.  1.
</event>
<event>
 6   1  0.3798113E-04  0.5062376E+03  0.7546771E-02  0.9385960E-01
        -11   -1    0    0    0    0  0.00000000000E+00  0.00000000000E+00  0.50000000000E+03  0.50000000000E+03  0.00000000000E+00 0. -1.
         11   -1    0    0    0    0 -0.00000000000E+00 -0.00000000000E+00 -0.50000000000E+03  0.50000000000E+03  0.00000000000E+00 0. -1.
        -11    1    1    2    0    0  0.80946374226E+01  0.52091232724E+01  0.49366855440E+03  0.49376239197E+03  0.00000000000E+00 0. -1.
         11    1    1    2    0    0 -0.24734994597E+01  0.73790362942E+01 -0.48445490931E+03  0.48451741716E+03  0.00000000000E+00 0. -1.
        -15    1    1    2    0    0 -0.71399954722E+01 -0.54248198562E+01  0.81330733191E+00  0.91775488902E+01  0.17770000000E+01 0. -1.
         15    1    1    2    0    0  0.15188575093E+01 -0.71633397104E+01 -0.10026952419E+02  0.12542641977E+02  0.17770000000E+01 0.  1.
</event>
<event>
 6   1  0.3798113E-04  0.5024520E+03  0.7546771E-02  0.9394340E-01
        -11   -1    0    0    0    0  0.00000000000E+00  0.00000000000E+00  0.50000000000E+03  0.50000000000E+03  0.00000000000E+00 0. -1.
         11   -1    0    0    0    0 -0.00000000000E+00 -0.00000000000E+00 -0.50000000000E+03  0.50000000000E+03  0.00000000000E+00 0. -1.
        -11    1    1    2    0    0  0.63878480694E+01  0.84250852764E+01  0.49743569319E+03  0.49754804343E+03  0.00000000000E+00 0. -1.
         11    1    1    2    0    0  0.61837050993E+01  0.92971533768E+01 -0.42440979149E+03  0.42455664685E+03  0.00000000000E+00 0. -1.
        -15    1    1    2    0    0 -0.13461771227E+02 -0.11896368016E+02 -0.35072015188E+02  0.39445491946E+02  0.17770000000E+01 0.  1.
         15    1    1    2    0    0  0.89021805862E+00 -0.58258706375E+01 -0.37953886508E+02  0.38449817776E+02  0.17770000000E+01 0. -1.
</event>
<event>
 6   1  0.3798113E-04  0.5103020E+03  0.7546771E-02  0.9377049E-01
        -11   -1    0    0    0    0  0.00000000000E+00  0.00000000000E+00  0.50000000000E+03  0.50000000000E+03  0.00000000000E+00 0.  1.
         11   -1    0    0    0    0 -0.00000000000E+00 -0.00000000000E+00 -0.50000000000E+03  0.50000000000E+03  0.00000000000E+00 0.  1.
        -11    1    1    2    0    0 -0.14434293499E+02  0.25863157578E+01  0.48947843017E+03  0.48969804110E+03  0.00000000000E+00 0.  1.
         11    1    1    2    0    0 -0.18134337553E+01 -0.20356933506E+02 -0.46757920418E+03  0.46802564617E+03  0.00000000000E+00 0.  1.
        -15    1    1    2    0    0  0.27504636101E+01  0.38315784405E+01 -0.22225128846E+02  0.22789473988E+02  0.17770000000E+01 0.  1.
         15    1    1    2    0    0  0.13497263644E+02  0.13939039308E+02  0.32590286580E+00  0.19486838748E+02  0.17770000000E+01 0. -1.
</event>
<event>
 6   1  0.3798113E-04  0.5002680E+03  0.7546771E-02  0.9399210E-01
        -11   -1    0    0    0    0  0.00000000000E+00  0.00000000000E+00  0.50000000000E+03  0.50000000000E+03  0.00000000000E+00 0. -1.
         11   -1    0    0    0    0 -0.00000000000E+00 -0.00000000000E+00 -0.50000000000E+03  0.50000000000E+03  0.00000000000E+00 0.  1.
        -11    1    1    2    0    0  0.20133207311E+02 -0.47487934926E+01  0.49930370037E+03  0.49973201046E+03  0.00000000000E+00 0. -1.
         11    1    1    2    0    0  0.20462203981E+01  0.75304412849E+00 -0.15328545620E+03  0.15330096273E+03  0.00000000000E+00 0.  1.
        -15    1    1    2    0    0 -0.62975377096E+01 -0.39357167627E+01 -0.86582516193E+02  0.86918575040E+02  0.17770000000E+01 0. -1.
         15    1    1    2    0    0 -0.15881890000E+02  0.79314661267E+01 -0.25943572798E+03  0.26004845177E+03  0.17770000000E+01 0.  1.
</event>
<event>
 6   1  0.3798113E-04  0.5032218E+03  0.7546771E-02  0.9392629E-01
        -11   -1    0    0    0    0  0.00000000000E+00  0.00000000000E+00  0.50000000000E+03  0.50000000000E+03  0.00000000000E+00 0.  1.
         11   -1    0    0    0    0 -0.00000000000E+00 -0.00000000000E+00 -0.50000000000E+03  0.50000000000E+03  0.00000000000E+00 0.  1.
        -11    1    1    2    0    0 -0.11814316957E+02  0.72481626038E+01  0.45675355457E+03  0.45696380990E+03  0.00000000000E+00 0.  1.
         11    1    1    2    0    0  0.53383032621E+01  0.81705358453E+01 -0.49668231765E+03  0.49677819981E+03  0.00000000000E+00 0.  1.
        -15    1    1    2    0    0  0.56435909872E+01 -0.92250187343E+01  0.37898137472E+02  0.39450952368E+02  0.17770000000E+01 0.  1.
         15    1    1    2    0    0  0.83242270806E+00 -0.61936797148E+01  0.20306256096E+01  0.68070379271E+01  0.17770000000E+01 0. -1.
</event>
<event>
 6   1  0.3798113E-04  0.5007480E+03  0.7546771E-02  0.9398138E-01
        -11   -1    0    0    0    0  0.00000000000E+00  0.00000000000E+00  0.50000000000E+03  0.50000000000E+03  0.00000000000E+00 0.  1.
         11   -1    0    0    0    0 -0.00000000000E+00 -0.00000000000E+00 -0.50000000000E+03  0.50000000000E+03  0.00000000000E+00 0. -1.
        -11    1    1    2    0    0  0.59334605792E+01  0.91703946194E+01  0.49913247724E+03  0.49925197238E+03  0.00000000000E+00 0.  1.
         11    1    1    2    0    0  0.16868852404E+01 -0.92915817872E+01 -0.36557652173E+03  0.36569847185E+03  0.00000000000E+00 0. -1.
        -15    1    1    2    0    0  0.93927887514E+00  0.79586341360E+01 -0.60990608505E+02  0.61540508261E+02  0.17770000000E+01 0. -1.
         15    1    1    2    0    0 -0.85596246947E+01 -0.78374469682E+01 -0.72565347005E+02  0.73509047504E+02  0.17770000000E+01 0. -1.
</event>
<event>
 6   1  0.3798113E-04  0.5001315E+03  0.7546771E-02  0.9399516E-01
        -11   -1    0    0    0    0  0.00000000000E+00  0.00000000000E+00  0.50000000000E+03  0.50000000000E+03  0.00000000000E+00 0. -1.
         11   -1    0    0    0    0 -0.00000000000E+00 -0.00000000000E+00 -0.50000000000E+03  0.50000000000E+03  0.00000000000E+00 0.  1.
        -11    1    1    2    0    0 -0.74174489568E+01 -0.88735004023E+01  0.20555528203E+03  0.20588038161E+03  0.00000000000E+00 0. -1.
         11    1    1    2    0    0  0.67403877232E+01  0.81593920743E+01 -0.49975647355E+03  0.49986852407E+03  0.00000000000E+00 0.  1.
        -15    1    1    2    0    0  0.11936295501E+01  0.20975036051E+01  0.19480536555E+03  0.19482841797E+03  0.17770000000E+01 0. -1.
         15    1    1    2    0    0 -0.51656831655E+00 -0.13833952771E+01  0.99395825959E+02  0.99422676349E+02  0.17770000000E+01 0.  1.
</event>
<event>
 6   1  0.3798113E-04  0.5017967E+03  0.7546771E-02  0.9395798E-01
        -11   -1    0    0    0    0  0.00000000000E+00  0.00000000000E+00  0.50000000000E+03  0.50000000000E+03  0.00000000000E+00 0. -1.
         11   -1    0    0    0    0 -0.00000000000E+00 -0.00000000000E+00 -0.50000000000E+03  0.50000000000E+03  0.00000000000E+00 0. -1.
        -11    1    1    2    0    0 -0.44683980366E+02  0.88154089720E+01  0.49611705539E+03  0.49820327396E+03  0.00000000000E+00 0. -1.
         11    1    1    2    0    0  0.66834790065E+01  0.25491787236E+01 -0.31583666444E+03  0.31591765669E+03  0.00000000000E+00 0. -1.
        -15    1    1    2    0    0  0.40382497149E+02 -0.97751446961E+01 -0.15977006311E+03  0.16509370165E+03  0.17770000000E+01 0. -1.
         15    1    1    2    0    0 -0.23819957893E+01 -0.15894429995E+01 -0.20510327846E+02  0.20785367698E+02  0.17770000000E+01 0.  1.
</event>
<event>
 6   1  0.3798113E-04  0.5032802E+03  0.7546771E-02  0.9392500E-01
        -11   -1    0    0    0    0  0.00000000000E+00  0.00000000000E+00  0.50000000000E+03  0.50000000000E+03  0.00000000000E+00 0.  1.
         11   -1    0    0    0    0 -0.00000000000E+00 -0.00000000000E+00 -0.50000000000E+03  0.50000000000E+03  0.00000000000E+00 0. -1.
        -11    1    1    2    0    0 -0.47231538333E+02  0.38058149255E+02  0.26705990841E+03  0.27386170893E+03  0.00000000000E+00 0.  1.
         11    1    1    2    0    0  0.55844399060E+02 -0.11499505769E+02 -0.49343666788E+03  0.49671982117E+03  0.00000000000E+00 0. -1.
        -15    1    1    2    0    0 -0.15945028904E+02 -0.23747130621E+02  0.15897522332E+03  0.16153776499E+03  0.17770000000E+01 0.  1.
         15    1    1    2    0    0  0.73321681771E+01 -0.28115128651E+01  0.67401536141E+02  0.67880704902E+02  0.17770000000E+01 0. -1.
</event>
<event>
 6   1  0.3798113E-04  0.5022701E+03  0.7546771E-02  0.9394744E-01
        -11   -1    0    0    0    0  0.00000000000E+00  0.00000000000E+00  0.50000000000E+03  0.50000000000E+03  0.00000000000E+00 0. -1.
         11   -1    0    0    0    0 -0.00000000000E+00 -0.00000000000E+00 -0.50000000000E+03  0.50000000000E+03  0.00000000000E+00 0.  1.
        -11    1    1    2    0    0  0.26815090418E+01  0.11844060979E+02  0.40720601779E+03  0.40738705575E+03  0.00000000000E+00 0. -1.
         11    1    1    2    0    0  0.19617914258E+01  0.68769946496E+01 -0.49767848198E+03  0.49772985957E+03  0.00000000000E+00 0.  1.
        -15    1    1    2    0    0  0.11447058386E+01 -0.21604738035E+02  0.64318372831E+02  0.67882883480E+02  0.17770000000E+01 0. -1.
         15    1    1    2    0    0 -0.57880063062E+01  0.28836824069E+01  0.26154091358E+02  0.27000201203E+02  0.17770000000E+01 0.  1.
</event>
<event>
 6   1  0.3798113E-04  0.5033036E+03  0.7546771E-02  0.9392448E-01
        -11   -1    0    0    0    0  0.00000000000E+00  0.00000000000E+00  0.50000000000E+03  0.50000000000E+03  0.00000000000E+00 0.  1.
         11   -1    0    0    0    0 -0.00000000000E+00 -0.00000000000E+00 -0.50000000000E+03  0.50000000000E+03  0.00000000000E+00 0. -1.
        -11    1    1    2    0    0 -0.60977448409E+01  0.33615567332E+01  0.63870634046E+02  0.64249050182E+02  0.00000000000E+00 0.  1.
         11    1    1    2    0    0 -0.16607817265E+01 -0.28030541788E+02 -0.49590205090E+03  0.49669639978E+03  0.00000000000E+00 0. -1.
        -15    1    1    2    0    0 -0.19327875811E+02  0.26921996833E+02  0.89732170686E+02  0.95673302869E+02  0.17770000000E+01 0.  1.
         15    1    1    2    0    0  0.27086402379E+02 -0.22530117777E+01  0.34229924616E+03  0.34338124717E+03  0.17770000000E+01 0. -1.
</event>
<event>
 6   1  0.3798113E-04  0.5014005E+03  0.7546771E-02  0.9396682E-01
        -11   -1    0    0    0    0  0.00000000000E+00  0.00000000000E+00  0.50000000000E+03  0.50000000000E+03  0.00000000000E+00 0.  1.
         11   -1    0    0    0    0 -0.00000000000E+00 -0.00000000000E+00 -0.50000000000E+03  0.50000000000E+03  0.00000000000E+00 0.  1.
        -11    1    1    2    0    0 -0.13706353696E+02 -0.18887909086E+01  0.31608177005E+02  0.34503746410E+02  0.00000000000E+00 0.  1.
         11    1    1    2    0    0  0.11625562216E+02  0.74833446441E+01 -0.49840781209E+03  0.49859954001E+03  0.00000000000E+00 0.  1.
        -15    1    1    2    0    0 -0.84915751109E+00 -0.56832438305E+01  0.26761499290E+03  0.26768257785E+03  0.17770000000E+01 0.  1.
         15    1    1    2    0    0  0.29299489918E+01  0.88690095010E-01  0.19918464218E+03  0.19921413573E+03  0.17770000000E+01 0. -1.
</event>
<event>
 6   1  0.3798113E-04  0.5006607E+03  0.7546771E-02  0.9398333E-01
        -11   -1    0    0    0    0  0.00000000000E+00  0.00000000000E+00  0.50000000000E+03  0.50000000000E+03  0.00000000000E+00 0.  1.
         11   -1    0    0    0    0 -0.00000000000E+00 -0.00000000000E+00 -0.50000000000E+03  0.50000000000E+03  0.00000000000E+00 0.  1.
        -11    1    1    2    0    0 -0.19993239939E+02  0.56910421122E+01  0.49890645740E+03  0.49933933436E+03  0.00000000000E+00 0.  1.
         11    1    1    2    0    0 -0.43925627690E+01 -0.20510501747E+00 -0.25491495905E+03  0.25495288393E+03  0.00000000000E+00 0.  1.
        -15    1    1    2    0    0  0.22431318503E+02 -0.38151200105E+01 -0.15598492738E+03  0.15764572461E+03  0.17770000000E+01 0.  1.
         15    1    1    2    0    0  0.19544842051E+01 -0.16708170843E+01 -0.88006570971E+02  0.88062057104E+02  0.17770000000E+01 0. -1.
</event>
<event>
 6   1  0.3798113E-04  0.4807728E+03  0.7546771E-02  0.9443891E-01
        -11   -1    0    0    0    0  0.00000000000E+00  0.00000000000E+00  0.50000000000E+03  0.50000000000E+03  0.00000000000E+00 0.  1.
         11   -1    0    0    0    0 -0.00000000000E+00 -0.00000000000E+00 -0.50000000000E+03  0.50000000000E+03  0.00000000000E+00 0.  1.
        -11    1    1    2    0    0 -0.77969475777E+01 -0.24119478689E+02  0.47596849071E+03  0.47664299616E+03  0.00000000000E+00 0.  1.
         11    1    1    2    0    0  0.27084205478E+01 -0.65930601942E+01 -0.48540026530E+03  0.48545259453E+03  0.00000000000E+00 0.  1.
        -15    1    1    2    0    0  0.42845919446E+01  0.25700416160E+02 -0.10356064448E+01  0.26136168974E+02  0.17770000000E+01 0. -1.
         15    1    1    2    0    0  0.80393508524E+00  0.50121227234E+01  0.10467381035E+02  0.11768240334E+02  0.17770000000E+01 0.  1.
</event>
<event>
 6   1  0.3798113E-04  0.5025247E+03  0.7546771E-02  0.9394178E-01
        -11   -1    0    0    0    0  0.00000000000E+00  0.00000000000E+00  0.50000000000E+03  0.50000000000E+03  0.00000000000E+00 0.  1.
         11   -1    0    0    0    0 -0.00000000000E+00 -0.00000000000E+00 -0.50000000000E+03  0.50000000000E+03  0.00000000000E+00 0. -1.
        -11    1    1    2    0    0  0.15966373682E+02 -0.59973146425E+01  0.32880231602E+02  0.37040552124E+02  0.00000000000E+00 0.  1.
         11    1    1    2    0    0  0.71274266475E+01 -0.34620075430E+01 -0.49741216182E+03  0.49747527017E+03  0.00000000000E+00 0. -1.
        -15    1    1    2    0    0 -0.88543629892E+01  0.80133481616E+01  0.32157267364E+03  0.32179924744E+03  0.17770000000E+01 0.  1.
         15    1    1    2    0    0 -0.14239437341E+02  0.14459740240E+01  0.14295925658E+03  0.14368493027E+03  0.17770000000E+01 0. -1.
</event>
<event>
 6   1  0.3798113E-04  0.5004894E+03  0.7546771E-02  0.9398715E-01
        -11   -1    0    0    0    0  0.00000000000E+00  0.00000000000E+00  0.50000000000E+03  0.50000000000E+03  0.00000000000E+00 0.  1.
         11   -1    0    0    0    0 -0.00000000000E+00 -0.00000000000E+00 -0.50000000000E+03  0.50000000000E+03  0.00000000000E+00 0. -1.
        -11    1    1    2    0    0 -0.46425597294E+01 -0.67462023160E+01  0.21919896334E+03  0.21935188656E+03  0.00000000000E+00 0.  1.
         11    1    1    2    0    0 -0.14131324111E+01 -0.78293581886E+01 -0.49944719034E+03  0.49951055217E+03  0.00000000000E+00 0. -1.
        -15    1    1    2    0    0 -0.33287597141E+01  0.58477882952E+00  0.10577036171E+03  0.10583926376E+03  0.17770000000E+01 0.  1.
         15    1    1    2    0    0  0.93844518546E+01  0.13990781675E+02  0.17447786528E+03  0.17529829751E+03  0.17770000000E+01 0.  1.
</event>
<event>
 6   1  0.3798113E-04  0.5040261E+03  0.7546771E-02  0.9390846E-01
        -11   -1    0    0    0    0  0.00000000000E+00  0.00000000000E+00  0.50000000000E+03  0.50000000000E+03  0.00000000000E+00 0.  1.
         11   -1    0    0    0    0 -0.00000000000E+00 -0.00000000000E+00 -0.50000000000E+03  0.50000000000E+03  0.00000000000E+00 0.  1.
        -11    1    1    2    0    0  0.26511447532E+02 -0.71257507852E+01  0.38625423722E+03  0.38722857454E+03  0.00000000000E+00 0.  1.
         11    1    1    2    0    0 -0.24500633418E+01  0.72299517381E+01 -0.49591512269E+03  0.49597387424E+03  0.00000000000E+00 0.  1.
        -15    1    1    2    0    0 -0.10306868704E+02 -0.65553658128E+01  0.97693940776E+01  0.15741764611E+02  0.17770000000E+01 0. -1.
         15    1    1    2    0    0 -0.13754515486E+02  0.64511648599E+01  0.99891491399E+02  0.10105578661E+03  0.17770000000E+01 0.  1.
</event>
<event>
 6   1  0.3798113E-04  0.5073781E+03  0.7546771E-02  0.9383450E-01
        -11   -1    0    0    0    0  0.00000000000E+00  0.00000000000E+00  0.50000000000E+03  0.50000000000E+03  0.00000000000E+00 0. -1.
         11   -1    0    0    0    0 -0.00000000000E+00 -0.00000000000E+00 -0.50000000000E+03  0.50000000000E+03  0.00000000000E+00 0. -1.
        -11    1    1    2    0    0 -0.40857889539E+02 -0.72746539691E+01  0.43394411149E+02  0.60044672094E+02  0.00000000000E+00 0. -1.
         11    1    1    2    0    0  0.39874410299E+02  0.28254288321E+02 -0.49019191001E+03  0.49262194637E+03  0.00000000000E+00 0. -1.
        -15    1    1    2    0    0  0.11772739294E+01 -0.16371676945E+02  0.30133785708E+03  0.30178979376E+03  0.17770000000E+01 0. -1.
         15    1    1    2    0    0 -0.19379468941E+00 -0.46079574071E+01  0.14545964178E+03  0.14554358778E+03  0.17770000000E+01 0.  1.
</event>
<event>
 6   1  0.3798113E-04  0.5063879E+03  0.7546771E-02  0.9385629E-01
        -11   -1    0    0    0    0  0.00000000000E+00  0.00000000000E+00  0.50000000000E+03  0.50000000000E+03  0.00000000000E+00 0.  1.
         11   -1    0    0    0    0 -0.00000000000E+00 -0.00000000000E+00 -0.50000000000E+03  0.50000000000E+03  0.00000000000E+00 0. -1.
        -11    1    1    2    0    0 -0.10311467684E+02  0.48336275192E+02  0.43627042024E+03  0.43906104523E+03  0.00000000000E+00 0.  1.
         11    1    1    2    0    0 -0.79914742129E+01 -0.19698165826E+02 -0.49315413248E+03  0.49361207418E+03  0.00000000000E+00 0. -1.
        -15    1    1    2    0    0  0.10750626485E+02 -0.18615497113E+02  0.25017378333E+02  0.33032403034E+02  0.17770000000E+01 0.  1.
         15    1    1    2    0    0  0.75523154122E+01 -0.10022612253E+02  0.31866333912E+02  0.34294477550E+02  0.17770000000E+01 0.  1.
</event>
<event>
 6   1  0.3798113E-04  0.5015160E+03  0.7546771E-02  0.9396424E-01
        -11   -1    0    0    0    0  0.00000000000E+00  0.00000000000E+00  0.50000000000E+03  0.50000000000E+03  0.00000000000E+00 0. -1.
         11   -1    0    0    0    0 -0.00000000000E+00 -0.00000000000E+00 -0.50000000000E+03  0.50000000000E+03  0.00000000000E+00 0. -1.
        -11    1    1    2    0    0  0.12324502009E+02 -0.69745724489E+01  0.47321284280E+03  0.47342468524E+03  0.00000000000E+00 0. -1.
         11    1    1    2    0    0 -0.77279423927E+01 -0.10754356893E+01 -0.49842294978E+03  0.49848401631E+03  0.00000000000E+00 0. -1.
        -15    1    1    2    0    0  0.41065771653E+00  0.19026359644E+01  0.14001609844E+02  0.14247507522E+02  0.17770000000E+01 0.  1.
         15    1    1    2    0    0 -0.50072173328E+01  0.61473721739E+01  0.11208497134E+02  0.13843790921E+02  0.17770000000E+01 0. -1.
</event>
<event>
 6   1  0.3798113E-04  0.4770395E+03  0.7546771E-02  0.9452704E-01
        -11   -1    0    0    0    0  0.00000000000E+00  0.00000000000E+00  0.50000000000E+03  0.50000000000E+03  0.00000000000E+00 0.  1.
         11   -1    0    0    0    0 -0.00000000000E+00 -0.00000000000E+00 -0.50000000000E+03  0.50000000000E+03  0.00000000000E+00 0. -1.
        -11    1    1    2    0    0  0.11656707913E+02  0.29919852791E+02  0.46884493737E+03  0.46994324309E+03  0.00000000000E+00 0.  1.
         11    1    1    2    0    0 -0.62970403079E+01 -0.38669900151E+01 -0.48457980859E+03  0.48463614931E+03  0.00000000000E+00 0. -1.
        -15    1    1    2    0    0 -0.92394090904E+01 -0.26202683460E+02  0.23582743657E+02  0.36486310148E+02  0.17770000000E+01 0. -1.
         15    1    1    2    0    0  0.38797414851E+01  0.14982068377E+00 -0.78478724309E+01  0.89342974497E+01  0.17770000000E+01 0.  1.
</event>
<event>
 6   1  0.3798113E-04  0.5122546E+03  0.7546771E-02  0.9372799E-01
        -11   -1    0    0    0    0  0.00000000000E+00  0.00000000000E+00  0.50000000000E+03  0.50000000000E+03  0.00000000000E+00 0.  1.
         11   -1    0    0    0    0 -0.00000000000E+00 -0.00000000000E+00 -0.50000000000E+03  0.50000000000E+03  0.00000000000E+00 0. -1.
        -11    1    1    2    0    0  0.27298225704E+02  0.34364360065E+02  0.42978070331E+03  0.43201568873E+03  0.00000000000E+00 0.  1.
         11    1    1    2    0    0 -0.12122940183E+02  0.12756598187E+02 -0.48742781777E+03  0.48774539876E+03  0.00000000000E+00 0. -1.
        -15    1    1    2    0    0  0.24079024241E+01  0.19302696407E+01  0.50509831589E+01  0.61801371216E+01  0.17770000000E+01 0. -1.
         15    1    1    2    0    0 -0.17583187946E+02 -0.49051227892E+02  0.52596131300E+02  0.74058775394E+02  0.17770000000E+01 0.  1.
</event>
<event>
 6   1  0.3798113E-04  0.5081924E+03  0.7546771E-02  0.9381663E-01
        -11   -1    0    0    0    0  0.00000000000E+00  0.00000000000E+00  0.50000000000E+03  0.50000000000E+03  0.00000000000E+00 0.  1.
         11   -1    0    0    0    0 -0.00000000000E+00 -0.00000000000E+00 -0.50000000000E+03  0.50000000000E+03  0.00000000000E+00 0.  1.
        -11    1    1    2    0    0  0.23555922551E+02 -0.44302355590E+01  0.49122321703E+03  0.49180764271E+03  0.00000000000E+00 0.  1.
         11    1    1    2    0    0  0.36385150755E+01  0.64434627883E+01 -0.47260150862E+03  0.47265943654E+03  0.00000000000E+00 0.  1.
        -15    1    1    2    0    0 -0.22291318360E+02 -0.29200143756E+01 -0.84812123753E+01  0.24093942196E+02  0.17770000000E+01 0.  1.
         15    1    1    2    0    0 -0.49031192663E+01  0.90678714627E+00 -0.10140496041E+02  0.11438978557E+02  0.17770000000E+01 0. -1.
</event>
<event>
 6   1  0.3798113E-04  0.5057046E+03  0.7546771E-02  0.9387135E-01
        -11   -1    0    0    0    0  0.00000000000E+00  0.00000000000E+00  0.50000000000E+03  0.50000000000E+03  0.00000000000E+00 0. -1.
         11   -1    0    0    0    0 -0.00000000000E+00 -0.00000000000E+00 -0.50000000000E+03  0.50000000000E+03  0.00000000000E+00 0.  1.
        -11    1    1    2    0    0  0.25165372251E+02  0.30562851151E+02  0.49270741084E+03  0.49429543446E+03  0.00000000000E+00 0. -1.
         11    1    1    2    0    0 -0.10120301943E+02 -0.12581345916E+02 -0.43299625271E+03  0.43329720243E+03  0.00000000000E+00 0.  1.
        -15    1    1    2    0    0  0.66860698158E+01  0.24598249320E+01 -0.27513169050E+02  0.28476068346E+02  0.17770000000E+01 0. -1.
         15    1    1    2    0    0 -0.21731140124E+02 -0.20441330166E+02 -0.32197989076E+02  0.43931294764E+02  0.17770000000E+01 0.  1.
</event>
<event>
 6   1  0.3798113E-04  0.5005862E+03  0.7546771E-02  0.9398499E-01
        -11   -1    0    0    0    0  0.00000000000E+00  0.00000000000E+00  0.50000000000E+03  0.50000000000E+03  0.00000000000E+00 0.  1.
         11   -1    0    0    0    0 -0.00000000000E+00 -0.00000000000E+00 -0.50000000000E+03  0.50000000000E+03  0.00000000000E+00 0. -1.
        -11    1    1    2    0    0  0.57030732993E+02 -0.15356460857E+02  0.49590909422E+03  0.49941381151E+03  0.00000000000E+00 0.  1.
         11    1    1    2    0    0 -0.68137931426E+01 -0.42668824142E+01 -0.14452689630E+03  0.14475032924E+03  0.00000000000E+00 0. -1.
        -15    1    1    2    0    0 -0.39850960595E+02  0.84691060814E+01 -0.25206893330E+03  0.25534629365E+03  0.17770000000E+01 0.  1.
         15    1    1    2    0    0 -0.10365979255E+02  0.11154237190E+02 -0.99313264627E+02  0.10048956559E+03  0.17770000000E+01 0. -1.
</event>
<event>
 6   1  0.3798113E-04  0.5074731E+03  0.7546771E-02  0.9383242E-01
        -11   -1    0    0    0    0  0.00000000000E+00  0.00000000000E+00  0.50000000000E+03  0.50000000000E+03  0.00000000000E+00 0. -1.
         11   -1    0    0    0    0 -0.00000000000E+00 -0.00000000000E+00 -0.50000000000E+03  0.50000000000E+03  0.00000000000E+00 0. -1.
        -11    1    1    2    0    0  0.74854929974E+01  0.16380845928E+02  0.46594359196E+03  0.46629153500E+03  0.00000000000E+00 0. -1.
         11    1    1    2    0    0  0.92169928014E+01  0.12873322174E+01 -0.49243892202E+03  0.49252685419E+03  0.00000000000E+00 0. -1.
        -15    1    1    2    0    0 -0.61543567561E+01  0.36752065259E+01  0.40964434594E+01  0.84452251660E+01  0.17770000000E+01 0. -1.
         15    1    1    2    0    0 -0.10548129043E+02 -0.21343384671E+02  0.22398886597E+02  0.32736385648E+02  0.17770000000E+01 0.  1.
</event>
<event>
 6   1  0.3798113E-04  0.5171961E+03  0.7546771E-02  0.9362133E-01
        -11   -1    0    0    0    0  0.00000000000E+00  0.00000000000E+00  0.50000000000E+03  0.50000000000E+03  0.00000000000E+00 0.  1.
         11   -1    0    0    0    0 -0.00000000000E+00 -0.00000000000E+00 -0.50000000000E+03  0.50000000000E+03  0.00000000000E+00 0. -1.
        -11    1    1    2    0    0 -0.33348390203E+02 -0.27219343050E+02  0.48088102816E+03  0.48280386391E+03  0.00000000000E+00 0.  1.
         11    1    1    2    0    0  0.31527237691E+02  0.11446553027E+02 -0.44089892827E+03  0.44217287936E+03  0.00000000000E+00 0. -1.
        -15    1    1    2    0    0 -0.25830379225E+02 -0.24657543341E+01 -0.31373139276E+02  0.40751932867E+02  0.17770000000E+01 0. -1.
         15    1    1    2    0    0  0.27651531737E+02  0.18238544356E+02 -0.86089606108E+01  0.34271323865E+02  0.17770000000E+01 0.  1.
</event>
<event>
 6   1  0.3798113E-04  0.4925297E+03  0.7546771E-02  0.9416682E-01
        -11   -1    0    0    0    0  0.00000000000E+00  0.00000000000E+00  0.50000000000E+03  0.50000000000E+03  0.00000000000E+00 0. -1.
         11   -1    0    0    0    0 -0.00000000000E+00 -0.00000000000E+00 -0.50000000000E+03  0.50000000000E+03  0.00000000000E+00 0.  1.
        -11    1    1    2    0    0 -0.72544297452E+01 -0.10162963054E+02  0.49470013476E+03  0.49485769258E+03  0.00000000000E+00 0. -1.
         11    1    1    2    0    0 -0.10666136642E+01  0.10725200257E+02 -0.49012911935E+03  0.49024761215E+03  0.00000000000E+00 0.  1.
        -15    1    1    2    0    0  0.71088941146E+01  0.43472269614E+01 -0.42597300061E+01  0.95256383782E+01  0.17770000000E+01 0.  1.
         15    1    1    2    0    0  0.12121492947E+01 -0.49094641648E+01 -0.31128540167E+00  0.53690568911E+01  0.17770000000E+01 0. -1.
</event>
<event>
 6   1  0.3798113E-04  0.5007171E+03  0.7546771E-02  0.9398207E-01
        -11   -1    0    0    0    0  0.00000000000E+00  0.00000000000E+00  0.50000000000E+03  0.50000000000E+03  0.00000000000E+00 0.  1.
         11   -1    0    0    0    0 -0.00000000000E+00 -0.00000000000E+00 -0.50000000000E+03  0.50000000000E+03  0.00000000000E+00 0.  1.
        -11    1    1    2    0    0 -0.63662059542E+01  0.16623623077E+02  0.49896548472E+03  0.49928291415E+03  0.00000000000E+00 0.  1.
         11    1    1    2    0    0 -0.72606056293E+01  0.28526759466E+01 -0.17780228950E+03  0.17797333594E+03  0.00000000000E+00 0.  1.
        -15    1    1    2    0    0  0.21151654607E+01 -0.18740906508E+02 -0.15152690686E+03  0.15270643972E+03  0.17770000000E+01 0.  1.
         15    1    1    2    0    0  0.11511646123E+02 -0.73539251578E+00 -0.16963628836E+03  0.17003731019E+03  0.17770000000E+01 0. -1.
</event>
<event>
 6   1  0.3798113E-04  0.4588352E+03  0.7546771E-02  0.9496944E-01
        -11   -1    0    0    0    0  0.00000000000E+00  0.00000000000E+00  0.50000000000E+03  0.50000000000E+03  0.00000000000E+00 0.  1.
         11   -1    0    0    0    0 -0.00000000000E+00 -0.00000000000E+00 -0.50000000000E+03  0.50000000000E+03  0.00000000000E+00 0.  1.
        -11    1    1    2    0    0 -0.31622858152E+02  0.70287275730E+02  0.45775586988E+03  0.46419903349E+03  0.00000000000E+00 0.  1.
         11    1    1    2    0    0 -0.68312821637E+01 -0.36613839181E+01 -0.45662496571E+03  0.45669073941E+03  0.00000000000E+00 0.  1.
        -15    1    1    2    0    0  0.33612997319E+02 -0.50880033683E+02 -0.72757286511E+01  0.61438630948E+02  0.17770000000E+01 0.  1.
         15    1    1    2    0    0  0.48411429969E+01 -0.15745858129E+02  0.61448244842E+01  0.17671596156E+02  0.17770000000E+01 0. -1.
</event>
<event>
 6   1  0.3798113E-04  0.5012998E+03  0.7546771E-02  0.9396906E-01
        -11   -1    0    0    0    0  0.00000000000E+00  0.00000000000E+00  0.50000000000E+03  0.50000000000E+03  0.00000000000E+00 0.  1.
         11   -1    0    0    0    0 -0.00000000000E+00 -0.00000000000E+00 -0.50000000000E+03  0.50000000000E+03  0.00000000000E+00 0.  1.
        -11    1    1    2    0    0  0.25529441023E+02 -0.60395186749E+01  0.37311592991E+03  0.37403706407E+03  0.00000000000E+00 0.  1.
         11    1    1    2    0    0 -0.68613757420E+01  0.12196434031E+02 -0.49850382127E+03  0.49870020182E+03  0.00000000000E+00 0.  1.
        -15    1    1    2    0    0 -0.15335297956E+02 -0.70892380025E+01  0.11323973125E+03  0.11450686932E+03  0.17770000000E+01 0.  1.
         15    1    1    2    0    0 -0.33327673245E+01  0.93232264654E+00  0.12148160106E+02  0.12755864789E+02  0.17770000000E+01 0.  1.
</event>
<event>
 6   1  0.3798113E-04  0.5000617E+03  0.7546771E-02  0.9399672E-01
        -11   -1    0    0    0    0  0.00000000000E+00  0.00000000000E+00  0.50000000000E+03  0.50000000000E+03  0.00000000000E+00 0.  1.
         11   -1    0    0    0    0 -0.00000000000E+00 -0.00000000000E+00 -0.50000000000E+03  0.50000000000E+03  0.00000000000E+00 0. -1.
        -11    1    1    2    0    0  0.60918374874E+01 -0.90370924143E+01  0.38605995884E+03  0.38621376379E+03  0.00000000000E+00 0.  1.
         11    1    1    2    0    0 -0.72565621004E+01  0.74317114661E+01 -0.49983041233E+03  0.49993832531E+03  0.00000000000E+00 0. -1.
        -15    1    1    2    0    0  0.49387355489E+00  0.64679684501E+00  0.41282323884E+02  0.41328564595E+02  0.17770000000E+01 0.  1.
         15    1    1    2    0    0  0.67085105810E+00  0.95858410316E+00  0.72488129611E+02  0.72519346302E+02  0.17770000000E+01 0. -1.
</event>
<event>
 6   1  0.3798113E-04  0.5072143E+03  0.7546771E-02  0.9383810E-01
        -11   -1    0    0    0    0  0.00000000000E+00  0.00000000000E+00  0.50000000000E+03  0.50000000000E+03  0.00000000000E+00 0.  1.
         11   -1    0    0    0    0 -0.00000000000E+00 -0.00000000000E+00 -0.50000000000E+03  0.50000000000E+03  0.00000000000E+00 0. -1.
        -11    1    1    2    0    0  0.27656533164E+02  0.65464871549E+01  0.49196542047E+03  0.49278566868E+03  0.00000000000E+00 0.  1.
         11    1    1    2    0    0  0.59729077991E+01  0.44360144490E+01 -0.45462532006E+03  0.45468619452E+03  0.00000000000E+00 0. -1.
        -15    1    1    2    0    0 -0.32905185474E+02 -0.11051750619E+02 -0.36590128254E+02  0.50466698301E+02  0.17770000000E+01 0.  1.
         15    1    1    2    0    0 -0.72425548915E+00  0.69249014591E-01 -0.74997215804E+00  0.20614384971E+01  0.17770000000E+01 0. -1.
</event>
<event>
 6   1  0.3798113E-04  0.5007041E+03  0.7546771E-02  0.9398236E-01
        -11   -1    0    0    0    0  0.00000000000E+00  0.00000000000E+00  0.50000000000E+03  0.50000000000E+03  0.00000000000E+00 0.  1.
         11   -1    0    0    0    0 -0.00000000000E+00 -0.00000000000E+00 -0.50000000000E+03  0.50000000000E+03  0.00000000000E+00 0. -1.
        -11    1    1    2    0    0 -0.94625239163E+00 -0.80430908026E+01  0.49923023620E+03  0.49929591971E+03  0.00000000000E+00 0.  1.
         11    1    1    2    0    0 -0.59250940437E+01  0.60120562152E+01 -0.43417609572E+03  0.43425814173E+03  0.00000000000E+00 0. -1.
        -15    1    1    2    0    0  0.23775932095E+01  0.35428327868E+01 -0.54950966368E+02  0.55145000204E+02  0.17770000000E+01 0.  1.
         15    1    1    2    0    0  0.44937532258E+01 -0.15117981994E+01 -0.10103174106E+02  0.11300938362E+02  0.17770000000E+01 0. -1.
</event>
<event>
 6   1  0.3798113E-04  0.5010767E+03  0.7546771E-02  0.9397404E-01
        -11   -1    0    0    0    0  0.00000000000E+00  0.00000000000E+00  0.50000000000E+03  0.50000000000E+03  0.00000000000E+00 0. -1.
         11   -1    0    0    0    0 -0.00000000000E+00 -0.00000000000E+00 -0.50000000000E+03  0.50000000000E+03  0.00000000000E+00 0. -1.
        -11    1    1    2    0    0 -0.10804077953E+02 -0.64002774712E+01  0.37890168977E+02  0.39916870584E+02  0.00000000000E+00 0. -1.
         11    1    1    2    0    0  0.11497571173E+02  0.30848428715E+01 -0.49878126048E+03  0.49892329691E+03  0.00000000000E+00 0. -1.
        -15    1    1    2    0    0 -0.54395997381E+01  0.25633406113E+01  0.83921430479E+02  0.84155357423E+02  0.17770000000E+01 0. -1.
         15    1    1    2    0    0  0.47461065188E+01  0.75209398844E+00  0.37696966102E+03  0.37700447508E+03  0.17770000000E+01 0.  1.
</event>
<event>
 6   1  0.3798113E-04  0.5007631E+03  0.7546771E-02  0.9398104E-01
        -11   -1    0    0    0    0  0.00000000000E+00  0.00000000000E+00  0.50000000000E+03  0.50000000000E+03  0.00000000000E+00 0. -1.
         11   -1    0    0    0    0 -0.00000000000E+00 -0.00000000000E+00 -0.50000000000E+03  0.50000000000E+03  0.00000000000E+00 0. -1.
        -11    1    1    2    0    0 -0.13974372770E+02 -0.27927678694E+02  0.49825919041E+03  0.49923687680E+03  0.00000000000E+00 0. -1.
         11    1    1    2    0    0 -0.68742184670E+01 -0.12519040457E+01 -0.16789831797E+03  0.16804364707E+03  0.00000000000E+00 0. -1.
        -15    1    1    2    0    0  0.15199815812E+02  0.29845697846E+02 -0.27441617453E+03  0.27645830546E+03  0.17770000000E+01 0. -1.
         15    1    1    2    0    0  0.56487754251E+01 -0.66611510631E+00 -0.55944697903E+02  0.56261170674E+02  0.17770000000E+01 0.  1.
</event>
<event>
 6   1  0.3798113E-04  0.5203025E+03  0.7546771E-02  0.9355493E-01
        -11   -1    0    0    0    0  0.00000000000E+00  0.00000000000E+00  0.50000000000E+03  0.50000000000E+03  0.00000000000E+00 0. -1.
         11   -1    0    0    0    0 -0.00000000000E+00 -0.00000000000E+00 -0.50000000000E+03  0.50000000000E+03  0.00000000000E+00 0.  1.
        -11    1    1    2    0    0 -0.36099518264E+02  0.59767125772E+01  0.42239950241E+03  0.42398140991E+03  0.00000000000E+00 0. -1.
         11    1    1    2    0    0 -0.22800793748E+02  0.32392198201E+02 -0.47805918417E+03  0.47969752372E+03  0.00000000000E+00 0.  1.
        -15    1    1    2    0    0 -0.19337879015E+01 -0.11826803236E+02  0.68771320691E+01  0.13930738851E+02  0.17770000000E+01 0. -1.
         15    1    1    2    0    0  0.60834099914E+02 -0.26542107542E+02  0.48782549686E+02  0.82390327514E+02  0.17770000000E+01 0.  1.
</event>
<event>
 6   1  0.3798113E-04  0.5152215E+03  0.7546771E-02  0.9366380E-01
        -11   -1    0    0    0    0  0.00000000000E+00  0.00000000000E+00  0.50000000000E+03  0.50000000000E+03  0.00000000000E+00 0.  1.
         11   -1    0    0    0    0 -0.00000000000E+00 -0.00000000000E+00 -0.50000000000E+03  0.50000000000E+03  0.00000000000E+00 0. -1.
        -11    1    1    2    0    0 -0.15457992744E+03  0.40938657786E+02 -0.10915989749E+03  0.19361511018E+03  0.00000000000E+00 0.  1.
         11    1    1    2    0    0  0.98870218844E+01  0.69646398861E+01 -0.32137889476E+03  0.32160636406E+03  0.00000000000E+00 0. -1.
        -15    1    1    2    0    0  0.14747984668E+03 -0.32771115562E+02  0.44094966988E+03  0.46611588719E+03  0.17770000000E+01 0.  1.
         15    1    1    2    0    0 -0.27869411259E+01 -0.15132182110E+02 -0.10410877633E+02  0.18662638568E+02  0.17770000000E+01 0. -1.
</event>
<event>
 6   1  0.3798113E-04  0.5003435E+03  0.7546771E-02  0.9399041E-01
        -11   -1    0    0    0    0  0.00000000000E+00  0.00000000000E+00  0.50000000000E+03  0.50000000000E+03  0.00000000000E+00 0. -1.
         11   -1    0    0    0    0 -0.00000000000E+00 -0.00000000000E+00 -0.50000000000E+03  0.50000000000E+03  0.00000000000E+00 0. -1.
        -11    1    1    2    0    0  0.25190145691E+01 -0.75036184163E+01  0.49959381380E+03  0.49965651052E+03  0.00000000000E+00 0. -1.
         11    1    1    2    0    0  0.40188810254E+01  0.74433159238E+01 -0.44467770933E+03  0.44475815848E+03  0.00000000000E+00 0. -1.
        -15    1    1    2    0    0 -0.60259241730E+01 -0.11529191630E+01 -0.41003244864E+02  0.41497768653E+02  0.17770000000E+01 0.  1.
         15    1    1    2    0    0 -0.51197142148E+00  0.12132216555E+01 -0.13912859602E+02  0.14087562345E+02  0.17770000000E+01 0. -1.
</event>
<event>
 6   1  0.3798113E-04  0.5012692E+03  0.7546771E-02  0.9396974E-01
        -11   -1    0    0    0    0  0.00000000000E+00  0.00000000000E+00  0.50000000000E+03  0.50000000000E+03  0.00000000000E+00 0.  1.
         11   -1    0    0    0    0 -0.00000000000E+00 -0.00000000000E+00 -0.50000000000E+03  0.50000000000E+03  0.00000000000E+00 0.  1.
        -11    1    1    2    0    0 -0.90590240600E+01 -0.36876004849E+01  0.49863488076E+03  0.49873079775E+03  0.00000000000E+00 0.  1.
         11    1    1    2    0    0 -0.70678711279E+01  0.56728054090E+00 -0.43038870455E+03  0.43044710896E+03  0.00000000000E+00 0.  1.
        -15    1    1    2    0    0  0.14881901278E+02  0.51207419141E+01 -0.54068075121E+02  0.56340105251E+02  0.17770000000E+01 0.  1.
         15    1    1    2    0    0  0.12449939096E+01 -0.20004219701E+01 -0.14178101093E+02  0.14481988037E+02  0.17770000000E+01 0.  1.
</event>
<event>
 6   1  0.3798113E-04  0.5053362E+03  0.7546771E-02  0.9387948E-01
        -11   -1    0    0    0    0  0.00000000000E+00  0.00000000000E+00  0.50000000000E+03  0.50000000000E+03  0.00000000000E+00 0. -1.
         11   -1    0    0    0    0 -0.00000000000E+00 -0.00000000000E+00 -0.50000000000E+03  0.50000000000E+03  0.00000000000E+00 0. -1.
        -11    1    1    2    0    0 -0.12403239737E+02 -0.10683057634E+01  0.49450707954E+03  0.49466375787E+03  0.00000000000E+00 0. -1.
         11    1    1    2    0    0 -0.38711606651E+01 -0.11198495443E+02 -0.47093036090E+03  0.47107939565E+03  0.00000000000E+00 0. -1.
        -15    1    1    2    0    0  0.15872705121E+02  0.11512279084E+02 -0.13222187175E+02  0.23716224410E+02  0.17770000000E+01 0.  1.
         15    1    1    2    0    0  0.40169528053E+00  0.75452212205E+00 -0.10354531466E+02  0.10540622069E+02  0.17770000000E+01 0. -1.
</event>
<event>
 6   1  0.3798113E-04  0.5017051E+03  0.7546771E-02  0.9396002E-01
        -11   -1    0    0    0    0  0.00000000000E+00  0.00000000000E+00  0.50000000000E+03  0.50000000000E+03  0.00000000000E+00 0. -1.
         11   -1    0    0    0    0 -0.00000000000E+00 -0.00000000000E+00 -0.50000000000E+03  0.50000000000E+03  0.00000000000E+00 0.  1.
        -11    1    1    2    0    0  0.11758944105E+02  0.26864840832E+02  0.25867847704E+03  0.26033545076E+03  0.00000000000E+00 0. -1.
         11    1    1    2    0    0 -0.60859979922E+01 -0.85971742969E+01 -0.49818355196E+03  0.49829489484E+03  0.00000000000E+00 0.  1.
        -15    1    1    2    0    0 -0.22257260694E+00  0.50314808648E+01  0.65614003528E+02  0.65830999736E+02  0.17770000000E+01 0.  1.
         15    1    1    2    0    0 -0.54503735053E+01 -0.23299147400E+02  0.17389107140E+03  0.17553865466E+03  0.17770000000E+01 0. -1.
</event>
<event>
 6   1  0.3798113E-04  0.5001981E+03  0.7546771E-02  0.9399366E-01
        -11   -1    0    0    0    0  0.00000000000E+00  0.00000000000E+00  0.50000000000E+03  0.50000000000E+03  0.00000000000E+00 0. -1.
         11   -1    0    0    0    0 -0.00000000000E+00 -0.00000000000E+00 -0.50000000000E+03  0.50000000000E+03  0.00000000000E+00 0.  1.
        -11    1    1    2    0    0 -0.76148991985E+01  0.14413693983E+02  0.14784132295E+03  0.14873734580E+03  0.00000000000E+00 0. -1.
         11    1    1    2    0    0  0.18378040421E+02 -0.21633614954E+02 -0.49899511425E+03  0.49980185045E+03  0.00000000000E+00 0.  1.
        -15    1    1    2    0    0 -0.36198399356E+01  0.59944496450E+01  0.17175983893E+03  0.17191171184E+03  0.17770000000E+01 0. -1.
         15    1    1    2    0    0 -0.71433012870E+01  0.12254713254E+01  0.17939395237E+03  0.17954909192E+03  0.17770000000E+01 0. -1.
</event>
<event>
 6   1  0.3798113E-04  0.5015356E+03  0.7546771E-02  0.9396380E-01
        -11   -1    0    0    0    0  0.00000000000E+00  0.00000000000E+00  0.50000000000E+03  0.50000000000E+03  0.00000000000E+00 0. -1.
         11   -1    0    0    0    0 -0.00000000000E+00 -0.00000000000E+00 -0.50000000000E+03  0.50000000000E+03  0.00000000000E+00 0. -1.
        -11    1    1    2    0    0  0.13231161637E+01  0.82358440117E+01  0.42465635708E+03  0.42473827396E+03  0.00000000000E+00 0. -1.
         11    1    1    2    0    0 -0.52032353872E+01  0.87483555382E+01 -0.49836041531E+03  0.49846435272E+03  0.00000000000E+00 0. -1.
        -15    1    1    2    0    0  0.15604560006E+01 -0.16368773412E+02  0.70514632202E+02  0.72428190986E+02  0.17770000000E+01 0. -1.
         15    1    1    2    0    0  0.23196632228E+01 -0.61542613761E+00  0.31894260331E+01  0.43691823284E+01  0.17770000000E+01 0.  1.
</event>
<event>
 6   1  0.3798113E-04  0.5007469E+03  0.7546771E-02  0.9398140E-01
        -11   -1    0    0    0    0  0.00000000000E+00  0.00000000000E+00  0.50000000000E+03  0.50000000000E+03  0.00000000000E+00 0.  1.
         11   -1    0    0    0    0 -0.00000000000E+00 -0.00000000000E+00 -0.50000000000E+03  0.50000000000E+03  0.00000000000E+00 0. -1.
        -11    1    1    2    0    0 -0.49984401801E+01 -0.14335360442E+02  0.49902220549E+03  0.49925309066E+03  0.00000000000E+00 0.  1.
         11    1    1    2    0    0 -0.19545085252E+01 -0.72872581561E+01 -0.24578453535E+03  0.24590030918E+03  0.00000000000E+00 0. -1.
        -15    1    1    2    0    0  0.52636535635E+01  0.75196882319E+01 -0.37991300613E+02  0.39124780015E+02  0.17770000000E+01 0.  1.
         15    1    1    2    0    0  0.16892951418E+01  0.14102930366E+02 -0.21524636952E+03  0.21572182014E+03  0.17770000000E+01 0. -1.
</event>
<event>
 6   1  0.3798113E-04  0.5017517E+03  0.7546771E-02  0.9395899E-01
        -11   -1    0    0    0    0  0.00000000000E+00  0.00000000000E+00  0.50000000000E+03  0.50000000000E+03  0.00000000000E+00 0. -1.
         11   -1    0    0    0    0 -0.00000000000E+00 -0.00000000000E+00 -0.50000000000E+03  0.50000000000E+03  0.00000000000E+00 0.  1.
        -11    1    1    2    0    0  0.17571108014E+02 -0.58068480163E+01  0.39499157025E+03  0.39542483975E+03  0.00000000000E+00 0. -1.
         11    1    1    2    0    0 -0.48099529257E+00 -0.88615346609E+01 -0.49816927636E+03  0.49824831767E+03  0.00000000000E+00 0.  1.
        -15    1    1    2    0    0 -0.65255826701E+01  0.27310151017E+01  0.56529856991E+02  0.56998457287E+02  0.17770000000E+01 0. -1.
         15    1    1    2    0    0 -0.10564530052E+02  0.11937367575E+02  0.46647849119E+02  0.49328385300E+02  0.17770000000E+01 0.  1.
</event>
<event>
 6   1  0.3798113E-04  0.5102517E+03  0.7546771E-02  0.9377159E-01
        -11   -1    0    0    0    0  0.00000000000E+00  0.00000000000E+00  0.50000000000E+03  0.50000000000E+03  0.00000000000E+00 0.  1.
         11   -1    0    0    0    0 -0.00000000000E+00 -0.00000000000E+00 -0.50000000000E+03  0.50000000000E+03  0.00000000000E+00 0.  1.
        -11    1    1    2    0    0 -0.17728709045E+02  0.29733714357E+01  0.44502967130E+03  0.44539258683E+03  0.00000000000E+00 0.  1.
         11    1    1    2    0    0 -0.26965973008E+02 -0.99685776534E+01 -0.48890377351E+03  0.48974833945E+03  0.00000000000E+00 0.  1.
        -15    1    1    2    0    0  0.43575193682E+02  0.40581066610E+01  0.42395269697E+02  0.60957217421E+02  0.17770000000E+01 0.  1.
         15    1    1    2    0    0  0.11194883714E+01  0.29370995566E+01  0.14788325092E+01  0.39018563031E+01  0.17770000000E+01 0. -1.
</event>
<event>
 6   1  0.3798113E-04  0.5053677E+03  0.7546771E-02  0.9387879E-01
        -11   -1    0    0    0    0  0.00000000000E+00  0.00000000000E+00  0.50000000000E+03  0.50000000000E+03  0.00000000000E+00 0. -1.
         11   -1    0    0    0    0 -0.00000000000E+00 -0.00000000000E+00 -0.50000000000E+03  0.50000000000E+03  0.00000000000E+00 0.  1.
        -11    1    1    2    0    0  0.73084565709E+02  0.88070131636E+01  0.35060377403E+03  0.35824841045E+03  0.00000000000E+00 0. -1.
         11    1    1    2    0    0 -0.39544698131E+02 -0.26824123745E+02 -0.49231884131E+03  0.49463234657E+03  0.00000000000E+00 0.  1.
        -15    1    1    2    0    0 -0.11787193314E+02  0.11789398585E+02  0.56706540262E+02  0.59133047298E+02  0.17770000000E+01 0.  1.
         15    1    1    2    0    0 -0.21752674264E+02  0.62277119960E+01  0.85008527024E+02  0.87986195679E+02  0.17770000000E+01 0. -1.
</event>
<event>
 6   1  0.3798113E-04  0.5008275E+03  0.7546771E-02  0.9397960E-01
        -11   -1    0    0    0    0  0.00000000000E+00  0.00000000000E+00  0.50000000000E+03  0.50000000000E+03  0.00000000000E+00 0.  1.
         11   -1    0    0    0    0 -0.00000000000E+00 -0.00000000000E+00 -0.50000000000E+03  0.50000000000E+03  0.00000000000E+00 0. -1.
        -11    1    1    2    0    0  0.59629359965E+01 -0.34455405123E+01 -0.82788408169E+01  0.10768823538E+02  0.00000000000E+00 0.  1.
         11    1    1    2    0    0 -0.71564309036E+01  0.27612208055E+01 -0.48999859846E+03  0.49005863459E+03  0.00000000000E+00 0. -1.
        -15    1    1    2    0    0  0.67436253008E+01 -0.12926341340E+01  0.47621814127E+03  0.47627095564E+03  0.17770000000E+01 0.  1.
         15    1    1    2    0    0 -0.55501303937E+01  0.19769538408E+01  0.22059298009E+02  0.22901586223E+02  0.17770000000E+01 0. -1.
</event>
<event>
 6   1  0.3798113E-04  0.5003340E+03  0.7546771E-02  0.9399063E-01
        -11   -1    0    0    0    0  0.00000000000E+00  0.00000000000E+00  0.50000000000E+03  0.50000000000E+03  0.00000000000E+00 0. -1.
         11   -1    0    0    0    0 -0.00000000000E+00 -0.00000000000E+00 -0.50000000000E+03  0.50000000000E+03  0.00000000000E+00 0. -1.
        -11    1    1    2    0    0  0.16112004084E+01 -0.60030078739E+01  0.33023491097E+03  0.33029339759E+03  0.00000000000E+00 0. -1.
         11    1    1    2    0    0 -0.85523106914E+01 -0.48959420180E+01 -0.49956877741E+03  0.49966596405E+03  0.00000000000E+00 0. -1.
        -15    1    1    2    0    0  0.49767134442E+01  0.62049137726E+01  0.13847237636E+03  0.13871202319E+03  0.17770000000E+01 0. -1.
         15    1    1    2    0    0  0.19643968389E+01  0.46940361193E+01  0.30861490072E+02  0.31328615171E+02  0.17770000000E+01 0.  1.
</event>
<event>
 6   1  0.3798113E-04  0.5017312E+03  0.7546771E-02  0.9395944E-01
        -11   -1    0    0    0    0  0.00000000000E+00  0.00000000000E+00  0.50000000000E+03  0.50000000000E+03  0.00000000000E+00 0. -1.
         11   -1    0    0    0    0 -0.00000000000E+00 -0.00000000000E+00 -0.50000000000E+03  0.50000000000E+03  0.00000000000E+00 0.  1.
        -11    1    1    2    0    0  0.23656401679E+02  0.25095711303E+02  0.49707381979E+03  0.49826880535E+03  0.00000000000E+00 0. -1.
         11    1    1    2    0    0 -0.61302576719E+01  0.49998914252E+01 -0.22724533507E+03  0.22738298372E+03  0.00000000000E+00 0.  1.
        -15    1    1    2    0    0 -0.13006326978E+02 -0.30802810311E+02 -0.12411803085E+03  0.12855512816E+03  0.17770000000E+01 0. -1.
         15    1    1    2    0    0 -0.45198170295E+01  0.70720758361E+00 -0.14571045387E+03  0.14579308277E+03  0.17770000000E+01 0.  1.
</event>
<event>
 6   1  0.3798113E-04  0.5023508E+03  0.7546771E-02  0.9394565E-01
        -11   -1    0    0    0    0  0.00000000000E+00  0.00000000000E+00  0.50000000000E+03  0.50000000000E+03  0.00000000000E+00 0. -1.
         11   -1    0    0    0    0 -0.00000000000E+00 -0.00000000000E+00 -0.50000000000E+03  0.50000000000E+03  0.00000000000E+00 0. -1.
        -11    1    1    2    0    0 -0.14280815447E+02  0.17596943946E+02  0.32540619539E+03  0.32619439929E+03  0.00000000000E+00 0. -1.
         11    1    1    2    0    0 -0.48495632656E+01  0.59092873745E+01 -0.49759050981E+03  0.49764922727E+03  0.00000000000E+00 0. -1.
        -15    1    1    2    0    0  0.14288770469E+00  0.36031994834E+01  0.16472529486E+02  0.16955984786E+02  0.17770000000E+01 0. -1.
         15    1    1    2    0    0  0.18987491008E+02 -0.27109430804E+02  0.15571178493E+03  0.15920038866E+03  0.17770000000E+01 0.  1.
</event>
<event>
 6   1  0.3798113E-04  0.5003843E+03  0.7546771E-02  0.9398950E-01
        -11   -1    0    0    0    0  0.00000000000E+00  0.00000000000E+00  0.50000000000E+03  0.50000000000E+03  0.00000000000E+00 0. -1.
         11   -1    0    0    0    0 -0.00000000000E+00 -0.00000000000E+00 -0.50000000000E+03  0.50000000000E+03  0.00000000000E+00 0. -1.
        -11    1    1    2    0    0  0.35209887248E+01  0.10629316766E+02  0.49949016256E+03  0.49961565451E+03  0.00000000000E+00 0. -1.
         11    1    1    2    0    0  0.50971206465E+01  0.51246772634E+01 -0.21988978433E+03  0.22000854576E+03  0.00000000000E+00 0. -1.
        -15    1    1    2    0    0  0.46946606394E+00 -0.50480307847E+01 -0.40207112847E+02  0.40564426110E+02  0.17770000000E+01 0.  1.
         15    1    1    2    0    0 -0.90875754353E+01 -0.10705963244E+02 -0.23939326538E+03  0.23981137362E+03  0.17770000000E+01 0. -1.
</event>
<event>
 6   1  0.3798113E-04  0.5077769E+03  0.7546771E-02  0.9382574E-01
        -11   -1    0    0    0    0  0.00000000000E+00  0.00000000000E+00  0.50000000000E+03  0.50000000000E+03  0.00000000000E+00 0.  1.
         11   -1    0    0    0    0 -0.00000000000E+00 -0.00000000000E+00 -0.50000000000E+03  0.50000000000E+03  0.00000000000E+00 0.  1.
        -11    1    1    2    0    0  0.84124136764E+02  0.62974777707E+02  0.36614811670E+03  0.38092930627E+03  0.00000000000E+00 0.  1.
         11    1    1    2    0    0 -0.72789212680E+02 -0.32727354972E+02 -0.48570999714E+03  0.49222306992E+03  0.00000000000E+00 0.  1.
        -15    1    1    2    0    0  0.56025470373E+01  0.10320607171E+00  0.76410260120E+01  0.96406531063E+01  0.17770000000E+01 0. -1.
         15    1    1    2    0    0 -0.16937471121E+02 -0.30350628807E+02  0.11192085442E+03  0.11720697070E+03  0.17770000000E+01 0.  1.
</event>
<event>
 6   1  0.3798113E-04  0.5010835E+03  0.7546771E-02  0.9397389E-01
        -11   -1    0    0    0    0  0.00000000000E+00  0.00000000000E+00  0.50000000000E+03  0.50000000000E+03  0.00000000000E+00 0.  1.
         11   -1    0    0    0    0 -0.00000000000E+00 -0.00000000000E+00 -0.50000000000E+03  0.50000000000E+03  0.00000000000E+00 0. -1.
        -11    1    1    2    0    0  0.12768423667E+02  0.11768598761E+02  0.44041466109E+03  0.44075685617E+03  0.00000000000E+00 0.  1.
         11    1    1    2    0    0 -0.12920401378E+02 -0.91683107054E+01 -0.49866488294E+03  0.49891648617E+03  0.00000000000E+00 0. -1.
        -15    1    1    2    0    0 -0.11914114672E+01 -0.74388319691E+01  0.16355211921E+02  0.18094373942E+02  0.17770000000E+01 0.  1.
         15    1    1    2    0    0  0.13433891783E+01  0.48385439135E+01  0.41895009933E+02  0.42232283717E+02  0.17770000000E+01 0. -1.
</event>
<event>
 6   1  0.3798113E-04  0.4849547E+03  0.7546771E-02  0.9434119E-01
        -11   -1    0    0    0    0  0.00000000000E+00  0.00000000000E+00  0.50000000000E+03  0.50000000000E+03  0.00000000000E+00 0. -1.
         11   -1    0    0    0    0 -0.00000000000E+00 -0.00000000000E+00 -0.50000000000E+03  0.50000000000E+03  0.00000000000E+00 0. -1.
        -11    1    1    2    0    0  0.11132928883E+02 -0.20630457698E+02  0.48174802354E+03  0.48231806526E+03  0.00000000000E+00 0. -1.
         11    1    1    2    0    0  0.13698826532E+02  0.21586448742E+02 -0.48725501736E+03  0.48792528584E+03  0.00000000000E+00 0. -1.
        -15    1    1    2    0    0 -0.11244093600E+02 -0.39526219249E+01  0.93045496770E+01  0.15224494562E+02  0.17770000000E+01 0.  1.
         15    1    1    2    0    0 -0.13587661814E+02  0.29966308807E+01 -0.37975558610E+01  0.14532154339E+02  0.17770000000E+01 0. -1.
</event>
<event>
 6   1  0.3798113E-04  0.5001629E+03  0.7546771E-02  0.9399445E-01
        -11   -1    0    0    0    0  0.00000000000E+00  0.00000000000E+00  0.50000000000E+03  0.50000000000E+03  0.00000000000E+00 0.  1.
         11   -1    0    0    0    0 -0.00000000000E+00 -0.00000000000E+00 -0.50000000000E+03  0.50000000000E+03  0.00000000000E+00 0. -1.
        -11    1    1    2    0    0 -0.41276953431E+01 -0.56013957107E+01  0.49978864006E+03  0.49983707169E+03  0.00000000000E+00 0.  1.
         11    1    1    2    0    0  0.28031081282E+01 -0.36384979679E+01 -0.30830030664E+03  0.30833451827E+03  0.00000000000E+00 0. -1.
        -15    1    1    2    0    0 -0.18103607641E+01  0.16980466242E+01 -0.54083078250E+02  0.54169159588E+02  0.17770000000E+01 0.  1.
         15    1    1    2    0    0  0.31349479790E+01  0.75418470545E+01 -0.13740525517E+03  0.13765925045E+03  0.17770000000E+01 0. -1.
</event>
<event>
 6   1  0.3798113E-04  0.5023230E+03  0.7546771E-02  0.9394627E-01
        -11   -1    0    0    0    0  0.00000000000E+00  0.00000000000E+00  0.50000000000E+03  0.50000000000E+03  0.00000000000E+00 0.  1.
         11   -1    0    0    0    0 -0.00000000000E+00 -0.00000000000E+00 -0.50000000000E+03  0.50000000000E+03  0.00000000000E+00 0. -1.
        -11    1    1    2    0    0 -0.46582631916E+00 -0.87378547290E+01  0.49760008687E+03  0.49767701731E+03  0.00000000000E+00 0.  1.
         11    1    1    2    0    0 -0.69603191336E+01 -0.25255248952E+01 -0.45906737219E+03  0.45912708102E+03  0.00000000000E+00 0. -1.
        -15    1    1    2    0    0 -0.24788496565E+00 -0.13832380914E+01 -0.16147769941E+02  0.16305919098E+02  0.17770000000E+01 0.  1.
         15    1    1    2    0    0  0.76740304184E+01  0.12646617716E+02 -0.22384944747E+02  0.26889982574E+02  0.17770000000E+01 0. -1.
</event>
<event>
 6   1  0.3798113E-04  0.4810967E+03  0.7546771E-02  0.9443130E-01
        -11   -1    0    0    0    0  0.00000000000E+00  0.00000000000E+00  0.50000000000E+03  0.50000000000E+03  0.00000000000E+00 0. -1.
         11   -1    0    0    0    0 -0.00000000000E+00 -0.00000000000E+00 -0.50000000000E+03  0.50000000000E+03  0.00000000000E+00 0.  1.
        -11    1    1    2    0    0 -0.12830975774E+01  0.18852092328E+02  0.48458433982E+03  0.48495260606E+03  0.00000000000E+00 0. -1.
         11    1    1    2    0    0  0.67684406431E+01  0.12310946693E+02 -0.47757978718E+03  0.47778637938E+03  0.00000000000E+00 0.  1.
        -15    1    1    2    0    0 -0.26371855165E+00 -0.40033473760E+01 -0.84370749258E+01  0.95099053618E+01  0.17770000000E+01 0. -1.
         15    1    1    2    0    0 -0.52216245140E+01 -0.27159691646E+02  0.14325222812E+01  0.27751109202E+02  0.17770000000E+01 0.  1.
</event>
<event>
 6   1  0.3798113E-04  0.4746959E+03  0.7546771E-02  0.9458281E-01
        -11   -1    0    0    0    0  0.00000000000E+00  0.00000000000E+00  0.50000000000E+03  0.50000000000E+03  0.00000000000E+00 0.  1.
         11   -1    0    0    0    0 -0.00000000000E+00 -0.00000000000E+00 -0.50000000000E+03  0.50000000000E+03  0.00000000000E+00 0. -1.
        -11    1    1    2    0    0  0.52493458207E+02 -0.17161328202E+02  0.46934843953E+03  0.47258653390E+03  0.00000000000E+00 0.  1.
         11    1    1    2    0    0 -0.11534642223E+02  0.49436587724E+01 -0.47763818493E+03  0.47780301740E+03  0.00000000000E+00 0. -1.
        -15    1    1    2    0    0 -0.40350079042E+00 -0.39023148040E+01 -0.19822570064E+01  0.47410911779E+01  0.17770000000E+01 0. -1.
         15    1    1    2    0    0 -0.40555315194E+02  0.16119984234E+02  0.10272002408E+02  0.44869357524E+02  0.17770000000E+01 0.  1.
</event>
<event>
 6   1  0.3798113E-04  0.5029360E+03  0.7546771E-02  0.9393264E-01
        -11   -1    0    0    0    0  0.00000000000E+00  0.00000000000E+00  0.50000000000E+03  0.50000000000E+03  0.00000000000E+00 0. -1.
         11   -1    0    0    0    0 -0.00000000000E+00 -0.00000000000E+00 -0.50000000000E+03  0.50000000000E+03  0.00000000000E+00 0.  1.
        -11    1    1    2    0    0  0.69858769913E+01 -0.58409979611E+01  0.49698063168E+03  0.49706404818E+03  0.00000000000E+00 0. -1.
         11    1    1    2    0    0 -0.38820039621E+01  0.63277703885E+01 -0.47119744712E+03  0.47125592283E+03  0.00000000000E+00 0.  1.
        -15    1    1    2    0    0 -0.88582033775E+01  0.26506931003E+01 -0.21945223896E+02  0.23879793169E+02  0.17770000000E+01 0.  1.
         15    1    1    2    0    0  0.57543303484E+01 -0.31374655276E+01 -0.38379606597E+01  0.78002358119E+01  0.17770000000E+01 0. -1.
</event>
<event>
 6   1  0.3798113E-04  0.5061608E+03  0.7546771E-02  0.9386129E-01
        -11   -1    0    0    0    0  0.00000000000E+00  0.00000000000E+00  0.50000000000E+03  0.50000000000E+03  0.00000000000E+00 0.  1.
         11   -1    0    0    0    0 -0.00000000000E+00 -0.00000000000E+00 -0.50000000000E+03  0.50000000000E+03  0.00000000000E+00 0. -1.
        -11    1    1    2    0    0  0.15595408004E+01  0.19626424439E+02  0.46433859023E+03  0.46475580155E+03  0.00000000000E+00 0.  1.
         11    1    1    2    0    0 -0.12560437376E+02  0.50569335928E+01 -0.49365349159E+03  0.49383915086E+03  0.00000000000E+00 0. -1.
        -15    1    1    2    0    0  0.80113126911E+01 -0.16578150838E+02  0.26157025738E+02  0.32036915280E+02  0.17770000000E+01 0.  1.
         15    1    1    2    0    0  0.29895838848E+01 -0.81052071942E+01  0.31578756257E+01  0.93681323076E+01  0.17770000000E+01 0. -1.
</event>
<event>
 6   1  0.3798113E-04  0.5079008E+03  0.7546771E-02  0.9382303E-01
        -11   -1    0    0    0    0  0.00000000000E+00  0.00000000000E+00  0.50000000000E+03  0.50000000000E+03  0.00000000000E+00 0.  1.
         11   -1    0    0    0    0 -0.00000000000E+00 -0.00000000000E+00 -0.50000000000E+03  0.50000000000E+03  0.00000000000E+00 0. -1.
        -11    1    1    2    0    0  0.28724590020E+02 -0.15083455798E+02  0.25017092741E+02  0.40969105920E+02  0.00000000000E+00 0.  1.
         11    1    1    2    0    0 -0.20634579605E+02  0.75991555347E+01 -0.49160766256E+03  0.49209920435E+03  0.00000000000E+00 0. -1.
        -15    1    1    2    0    0 -0.91920574015E+01  0.93860902077E+01  0.43826196921E+03  0.43846243168E+03  0.17770000000E+01 0.  1.
         15    1    1    2    0    0  0.11020469865E+01 -0.19017899441E+01  0.28328600604E+02  0.28469258047E+02  0.17770000000E+01 0. -1.
</event>
<event>
 6   1  0.3798113E-04  0.5032962E+03  0.7546771E-02  0.9392464E-01
        -11   -1    0    0    0    0  0.00000000000E+00  0.00000000000E+00  0.50000000000E+03  0.50000000000E+03  0.00000000000E+00 0. -1.
         11   -1    0    0    0    0 -0.00000000000E+00 -0.00000000000E+00 -0.50000000000E+03  0.50000000000E+03  0.00000000000E+00 0.  1.
        -11    1    1    2    0    0 -0.52540250093E+01 -0.26231075478E+02  0.31067681329E+03  0.31182648447E+03  0.00000000000E+00 0. -1.
         11    1    1    2    0    0  0.45280667596E+00  0.76838832475E+01 -0.49664417665E+03  0.49670382050E+03  0.00000000000E+00 0.  1.
        -15    1    1    2    0    0 -0.94320047761E+01  0.27167673277E+02  0.12058940370E+03  0.12398389895E+03  0.17770000000E+01 0. -1.
         15    1    1    2    0    0  0.14233223110E+02 -0.86204810470E+01  0.65377959668E+02  0.67485796083E+02  0.17770000000E+01 0.  1.
</event>
<event>
 6   1  0.3798113E-04  0.5009002E+03  0.7546771E-02  0.9397798E-01
        -11   -1    0    0    0    0  0.00000000000E+00  0.00000000000E+00  0.50000000000E+03  0.50000000000E+03  0.00000000000E+00 0.  1.
         11   -1    0    0    0    0 -0.00000000000E+00 -0.00000000000E+00 -0.50000000000E+03  0.50000000000E+03  0.00000000000E+00 0. -1.
        -11    1    1    2    0    0 -0.24758952926E+01 -0.77197668734E+01  0.34087977754E+03  0.34097616866E+03  0.00000000000E+00 0.  1.
         11    1    1    2    0    0 -0.10508430598E+02  0.16673518515E+02 -0.49871051929E+03  0.49909980503E+03  0.00000000000E+00 0. -1.
        -15    1    1    2    0    0  0.11084883507E+01 -0.10212094601E+02  0.11352481887E+03  0.11400244669E+03  0.17770000000E+01 0.  1.
         15    1    1    2    0    0  0.11875837540E+02  0.12583429602E+01  0.44305922875E+02  0.45921579623E+02  0.17770000000E+01 0. -1.
</event>
<event>
 6   1  0.3798113E-04  0.5005473E+03  0.7546771E-02  0.9398586E-01
        -11   -1    0    0    0    0  0.00000000000E+00  0.00000000000E+00  0.50000000000E+03  0.50000000000E+03  0.00000000000E+00 0. -1.
         11   -1    0    0    0    0 -0.00000000000E+00 -0.00000000000E+00 -0.50000000000E+03  0.50000000000E+03  0.00000000000E+00 0.  1.
        -11    1    1    2    0    0  0.40999008581E+01 -0.17551774332E+02  0.49912733518E+03  0.49945267113E+03  0.00000000000E+00 0. -1.
         11    1    1    2    0    0 -0.63360034047E+00 -0.46536310980E+01 -0.28655190278E+03  0.28659038839E+03  0.00000000000E+00 0.  1.
        -15    1    1    2    0    0  0.11043566590E+01  0.25434743334E+01 -0.15721965535E+02  0.16063212462E+02  0.17770000000E+01 0.  1.
         15    1    1    2    0    0 -0.45706571766E+01  0.19661931097E+02 -0.19685346687E+03  0.19789372802E+03  0.17770000000E+01 0. -1.
</event>
<event>
 6   1  0.3798113E-04  0.5043653E+03  0.7546771E-02  0.9390095E-01
        -11   -1    0    0    0    0  0.00000000000E+00  0.00000000000E+00  0.50000000000E+03  0.50000000000E+03  0.00000000000E+00 0.  1.
         11   -1    0    0    0    0 -0.00000000000E+00 -0.00000000000E+00 -0.50000000000E+03  0.50000000000E+03  0.00000000000E+00 0.  1.
        -11    1    1    2    0    0  0.43190774398E+02  0.16865053749E+02  0.11242257347E+03  0.12160883215E+03  0.00000000000E+00 0.  1.
         11    1    1    2    0    0 -0.29593563181E+02 -0.19363141304E+02 -0.49437139263E+03  0.49563472848E+03  0.00000000000E+00 0.  1.
        -15    1    1    2    0    0 -0.17766831282E+02 -0.17958621188E+01  0.23978574231E+03  0.24045632734E+03  0.17770000000E+01 0. -1.
         15    1    1    2    0    0  0.41696200643E+01  0.42939496741E+01  0.14216307685E+03  0.14230011203E+03  0.17770000000E+01 0.  1.
</event>
<event>
 6   1  0.3798113E-04  0.5037999E+03  0.7546771E-02  0.9391347E-01
        -11   -1    0    0    0    0  0.00000000000E+00  0.00000000000E+00  0.50000000000E+03  0.50000000000E+03  0.00000000000E+00 0.  1.
         11   -1    0    0    0    0 -0.00000000000E+00 -0.00000000000E+00 -0.50000000000E+03  0.50000000000E+03  0.00000000000E+00 0. -1.
        -11    1    1    2    0    0  0.38796391640E+02 -0.40208601683E+02  0.49304430663E+03  0.49620014103E+03  0.00000000000E+00 0.  1.
         11    1    1    2    0    0 -0.86612560456E+00  0.84922501192E+01 -0.34619464526E+03  0.34629987134E+03  0.00000000000E+00 0. -1.
        -15    1    1    2    0    0 -0.34018524618E+02  0.36810037876E+02 -0.12615447664E+03  0.13575842004E+03  0.17770000000E+01 0. -1.
         15    1    1    2    0    0 -0.39117414170E+01 -0.50936863127E+01 -0.20695184734E+02  0.21741567592E+02  0.17770000000E+01 0.  1.
</event>
<event>
 6   1  0.3798113E-04  0.5000220E+03  0.7546771E-02  0.9399760E-01
        -11   -1    0    0    0    0  0.00000000000E+00  0.00000000000E+00  0.50000000000E+03  0.50000000000E+03  0.00000000000E+00 0. -1.
         11   -1    0    0    0    0 -0.00000000000E+00 -0.00000000000E+00 -0.50000000000E+03  0.50000000000E+03  0.00000000000E+00 0.  1.
        -11    1    1    2    0    0 -0.24678203401E+01 -0.39044260057E+01  0.24195645301E+03  0.24200053684E+03  0.00000000000E+00 0. -1.
         11    1    1    2    0    0  0.48241878284E+01  0.65921632978E+01 -0.49991123667E+03  0.49997797347E+03  0.00000000000E+00 0.  1.
        -15    1    1    2    0    0 -0.17560026945E+01 -0.85676781733E+00  0.18640516631E+03  0.18642387549E+03  0.17770000000E+01 0. -1.
         15    1    1    2    0    0 -0.60036479380E+00 -0.18309694748E+01  0.71549617357E+02  0.71597614206E+02  0.17770000000E+01 0. -1.
</event>
<event>
 6   1  0.3798113E-04  0.5039685E+03  0.7546771E-02  0.9390973E-01
        -11   -1    0    0    0    0  0.00000000000E+00  0.00000000000E+00  0.50000000000E+03  0.50000000000E+03  0.00000000000E+00 0. -1.
         11   -1    0    0    0    0 -0.00000000000E+00 -0.00000000000E+00 -0.50000000000E+03  0.50000000000E+03  0.00000000000E+00 0. -1.
        -11    1    1    2    0    0  0.31235241625E+02  0.15312313637E+02  0.39188372168E+03  0.39342465427E+03  0.00000000000E+00 0. -1.
         11    1    1    2    0    0  0.19488196395E+00 -0.94616210669E+01 -0.49594124629E+03  0.49603153128E+03  0.00000000000E+00 0. -1.
        -15    1    1    2    0    0 -0.14022949917E+01  0.16946801413E+01  0.11290130395E+01  0.30447941586E+01  0.17770000000E+01 0. -1.
         15    1    1    2    0    0 -0.30027828597E+02 -0.75453727114E+01  0.10292851158E+03  0.10749902029E+03  0.17770000000E+01 0.  1.
</event>
<event>
 6   1  0.3798113E-04  0.5041727E+03  0.7546771E-02  0.9390521E-01
        -11   -1    0    0    0    0  0.00000000000E+00  0.00000000000E+00  0.50000000000E+03  0.50000000000E+03  0.00000000000E+00 0. -1.
         11   -1    0    0    0    0 -0.00000000000E+00 -0.00000000000E+00 -0.50000000000E+03  0.50000000000E+03  0.00000000000E+00 0. -1.
        -11    1    1    2    0    0 -0.71883047820E+01 -0.49483632547E+01  0.44246588543E+03  0.44255193796E+03  0.00000000000E+00 0. -1.
         11    1    1    2    0    0 -0.48796039914E+01 -0.63461715556E+01 -0.49576269624E+03  0.49582732419E+03  0.00000000000E+00 0. -1.
        -15    1    1    2    0    0 -0.10156058305E-01  0.45811228323E+01 -0.14546138055E+01  0.51244921576E+01  0.17770000000E+01 0.  1.
         15    1    1    2    0    0  0.12078064832E+02  0.67134119780E+01  0.54751424621E+02  0.56496245694E+02  0.17770000000E+01 0. -1.
</event>
<event>
 6   1  0.3798113E-04  0.5009876E+03  0.7546771E-02  0.9397603E-01
        -11   -1    0    0    0    0  0.00000000000E+00  0.00000000000E+00  0.50000000000E+03  0.50000000000E+03  0.00000000000E+00 0.  1.
         11   -1    0    0    0    0 -0.00000000000E+00 -0.00000000000E+00 -0.50000000000E+03  0.50000000000E+03  0.00000000000E+00 0. -1.
        -11    1    1    2    0    0 -0.80487158709E+01  0.24294514256E+02  0.49835570675E+03  0.49901244043E+03  0.00000000000E+00 0.  1.
         11    1    1    2    0    0  0.21193740346E+01  0.53522830870E+01 -0.30785982020E+03  0.30791363656E+03  0.00000000000E+00 0. -1.
        -15    1    1    2    0    0  0.32021936820E+01 -0.26203163507E+02 -0.15173122461E+03  0.15402071962E+03  0.17770000000E+01 0. -1.
         15    1    1    2    0    0  0.27271481543E+01 -0.34436338358E+01 -0.38764661938E+02  0.39053203393E+02  0.17770000000E+01 0.  1.
</event>
<event>
 6   1  0.3798113E-04  0.5018291E+03  0.7546771E-02  0.9395726E-01
        -11   -1    0    0    0    0  0.00000000000E+00  0.00000000000E+00  0.50000000000E+03  0.50000000000E+03  0.00000000000E+00 0. -1.
         11   -1    0    0    0    0 -0.00000000000E+00 -0.00000000000E+00 -0.50000000000E+03  0.50000000000E+03  0.00000000000E+00 0.  1.
        -11    1    1    2    0    0 -0.21776888805E+02 -0.11152930361E+02  0.49756972870E+03  0.49817091009E+03  0.00000000000E+00 0. -1.
         11    1    1    2    0    0  0.29397988462E+01 -0.78244746535E+01 -0.14912320646E+03  0.14935727476E+03  0.00000000000E+00 0.  1.
        -15    1    1    2    0    0 -0.14422354550E+02  0.12520674270E+02 -0.12888328665E+03  0.13030284303E+03  0.17770000000E+01 0. -1.
         15    1    1    2    0    0  0.33259444508E+02  0.64567307441E+01 -0.21956323559E+03  0.22216897212E+03  0.17770000000E+01 0.  1.
</event>
<event>
 6   1  0.3798113E-04  0.5013594E+03  0.7546771E-02  0.9396773E-01
        -11   -1    0    0    0    0  0.00000000000E+00  0.00000000000E+00  0.50000000000E+03  0.50000000000E+03  0.00000000000E+00 0.  1.
         11   -1    0    0    0    0 -0.00000000000E+00 -0.00000000000E+00 -0.50000000000E+03  0.50000000000E+03  0.00000000000E+00 0. -1.
        -11    1    1    2    0    0  0.12508730030E+02  0.11337465214E+02  0.49835471548E+03  0.49864058086E+03  0.00000000000E+00 0.  1.
         11    1    1    2    0    0 -0.91170672155E+01  0.18255993907E+02 -0.29514481509E+03  0.29584939430E+03  0.00000000000E+00 0. -1.
        -15    1    1    2    0    0 -0.39643915673E+01 -0.26504016134E+02 -0.17063906411E+03  0.17273976728E+03  0.17770000000E+01 0. -1.
         15    1    1    2    0    0  0.57272875263E+00 -0.30894429870E+01 -0.32570836270E+02  0.32770257560E+02  0.17770000000E+01 0.  1.
</event>
<event>
 6   1  0.3798113E-04  0.5030697E+03  0.7546771E-02  0.9392967E-01
        -11   -1    0    0    0    0  0.00000000000E+00  0.00000000000E+00  0.50000000000E+03  0.50000000000E+03  0.00000000000E+00 0.  1.
         11   -1    0    0    0    0 -0.00000000000E+00 -0.00000000000E+00 -0.50000000000E+03  0.50000000000E+03  0.00000000000E+00 0. -1.
        -11    1    1    2    0    0  0.73517770742E+01  0.42379561641E+01  0.49685783419E+03  0.49693029319E+03  0.00000000000E+00 0.  1.
         11    1    1    2    0    0  0.58826409807E+01  0.61341432933E+01 -0.46527975331E+03  0.46535737022E+03  0.00000000000E+00 0. -1.
        -15    1    1    2    0    0 -0.63212537004E+00 -0.93818825721E+00 -0.13549419456E+02  0.13712194437E+02  0.17770000000E+01 0. -1.
         15    1    1    2    0    0 -0.12602292685E+02 -0.94339112001E+01 -0.18028661422E+02  0.24000142147E+02  0.17770000000E+01 0.  1.
</event>
<event>
 6   1  0.3798113E-04  0.4689845E+03  0.7546771E-02  0.9472015E-01
        -11   -1    0    0    0    0  0.00000000000E+00  0.00000000000E+00  0.50000000000E+03  0.50000000000E+03  0.00000000000E+00 0. -1.
         11   -1    0    0    0    0 -0.00000000000E+00 -0.00000000000E+00 -0.50000000000E+03  0.50000000000E+03  0.00000000000E+00 0. -1.
        -11    1    1    2    0    0  0.49285248287E+00  0.54860543290E+02  0.45216946101E+03  0.45548561292E+03  0.00000000000E+00 0. -1.
         11    1    1    2    0    0  0.60254029693E+01 -0.53326355522E+01 -0.48429508837E+03  0.48436192573E+03  0.00000000000E+00 0. -1.
        -15    1    1    2    0    0  0.13536078770E+01 -0.42724683491E+01  0.21907600421E+01  0.52956018204E+01  0.17770000000E+01 0.  1.
         15    1    1    2    0    0 -0.78718633291E+01 -0.45255439389E+02  0.29934867318E+02  0.54856859525E+02  0.17770000000E+01 0.  1.
</event>
<event>
 6   1  0.3798113E-04  0.4904530E+03  0.7546771E-02  0.9421429E-01
        -11   -1    0    0    0    0  0.00000000000E+00  0.00000000000E+00  0.50000000000E+03  0.50000000000E+03  0.00000000000E+00 0. -1.
         11   -1    0    0    0    0 -0.00000000000E+00 -0.00000000000E+00 -0.50000000000E+03  0.50000000000E+03  0.00000000000E+00 0. -1.
        -11    1    1    2    0    0 -0.16304581236E+02  0.37185302112E+01  0.11399795005E+02  0.20239124546E+02  0.00000000000E+00 0. -1.
         11    1    1    2    0    0  0.29507566175E+02 -0.31705466026E+01 -0.49435950125E+03  0.49524949803E+03  0.00000000000E+00 0. -1.
        -15    1    1    2    0    0 -0.24173210217E+01 -0.16217415126E+02  0.13109570903E+03  0.13212906815E+03  0.17770000000E+01 0.  1.
         15    1    1    2    0    0 -0.10785663917E+02  0.15669431518E+02  0.35186399721E+03  0.35238230927E+03  0.17770000000E+01 0. -1.
</event>
<event>
 6   1  0.3798113E-04  0.5062619E+03  0.7546771E-02  0.9385906E-01
        -11   -1    0    0    0    0  0.00000000000E+00  0.00000000000E+00  0.50000000000E+03  0.50000000000E+03  0.00000000000E+00 0. -1.
         11   -1    0    0    0    0 -0.00000000000E+00 -0.00000000000E+00 -0.50000000000E+03  0.50000000000E+03  0.00000000000E+00 0.  1.
        -11    1    1    2    0    0  0.26904048244E+02  0.20045794227E+02  0.18399883140E+03  0.18703270205E+03  0.00000000000E+00 0. -1.
         11    1    1    2    0    0  0.28856203142E+02 -0.54666818810E+02 -0.48985324841E+03  0.49373813557E+03  0.00000000000E+00 0.  1.
        -15    1    1    2    0    0 -0.12405536765E+02  0.23051979389E+02  0.30483246901E+02  0.40220357617E+02  0.17770000000E+01 0.  1.
         15    1    1    2    0    0 -0.43354714622E+02  0.11569045193E+02  0.27537117010E+03  0.27900880477E+03  0.17770000000E+01 0. -1.
</event>
<event>
 6   1  0.3798113E-04  0.5018325E+03  0.7546771E-02  0.9395719E-01
        -11   -1    0    0    0    0  0.00000000000E+00  0.00000000000E+00  0.50000000000E+03  0.50000000000E+03  0.00000000000E+00 0.  1.
         11   -1    0    0    0    0 -0.00000000000E+00 -0.00000000000E+00 -0.50000000000E+03  0.50000000000E+03  0.00000000000E+00 0. -1.
        -11    1    1    2    0    0  0.17649655423E+02  0.44685088046E+01  0.40480494855E+02  0.44386353434E+02  0.00000000000E+00 0.  1.
         11    1    1    2    0    0 -0.16653498584E+02 -0.11509927329E+02 -0.49775597684E+03  0.49816747176E+03  0.00000000000E+00 0. -1.
        -15    1    1    2    0    0 -0.39714193522E+01  0.50305395357E+01  0.38660274889E+03  0.38665995614E+03  0.17770000000E+01 0.  1.
         15    1    1    2    0    0  0.29752625137E+01  0.20108789884E+01  0.70672733094E+02  0.70786218668E+02  0.17770000000E+01 0.  1.
</event>
<event>
 6   1  0.3798113E-04  0.5000739E+03  0.7546771E-02  0.9399644E-01
        -11   -1    0    0    0    0  0.00000000000E+00  0.00000000000E+00  0.50000000000E+03  0.50000000000E+03  0.00000000000E+00 0. -1.
         11   -1    0    0    0    0 -0.00000000000E+00 -0.00000000000E+00 -0.50000000000E+03  0.50000000000E+03  0.00000000000E+00 0.  1.
        -11    1    1    2    0    0 -0.69303405422E+01  0.33572140008E+01  0.17291512930E+03  0.17308651723E+03  0.00000000000E+00 0. -1.
         11    1    1    2    0    0  0.80524255020E+01 -0.11963095243E+01 -0.49985978642E+03  0.49992607333E+03  0.00000000000E+00 0.  1.
        -15    1    1    2    0    0 -0.19804687474E+01 -0.17838981769E+01  0.22657335374E+03  0.22659599931E+03  0.17770000000E+01 0. -1.
         15    1    1    2    0    0  0.85838378751E+00 -0.37700629964E+00  0.10037130338E+03  0.10039141013E+03  0.17770000000E+01 0. -1.
</event>
<event>
 6   1  0.3798113E-04  0.5001649E+03  0.7546771E-02  0.9399441E-01
        -11   -1    0    0    0    0  0.00000000000E+00  0.00000000000E+00  0.50000000000E+03  0.50000000000E+03  0.00000000000E+00 0.  1.
         11   -1    0    0    0    0 -0.00000000000E+00 -0.00000000000E+00 -0.50000000000E+03  0.50000000000E+03  0.00000000000E+00 0.  1.
        -11    1    1    2    0    0 -0.82127473862E+01 -0.31041750527E+01  0.66445484283E+02  0.67023037114E+02  0.00000000000E+00 0.  1.
         11    1    1    2    0    0  0.42150105360E+02  0.79305812758E+01 -0.49799154765E+03  0.49983507984E+03  0.00000000000E+00 0.  1.
        -15    1    1    2    0    0 -0.13217814582E+02 -0.87657956443E+01  0.19289944700E+03  0.19355852907E+03  0.17770000000E+01 0.  1.
         15    1    1    2    0    0 -0.20719543391E+02  0.39393894212E+01  0.23864661638E+03  0.23958335398E+03  0.17770000000E+01 0. -1.
</event>
<event>
 6   1  0.3798113E-04  0.5000854E+03  0.7546771E-02  0.9399619E-01
        -11   -1    0    0    0    0  0.00000000000E+00  0.00000000000E+00  0.50000000000E+03  0.50000000000E+03  0.00000000000E+00 0. -1.
         11   -1    0    0    0    0 -0.00000000000E+00 -0.00000000000E+00 -0.50000000000E+03  0.50000000000E+03  0.00000000000E+00 0. -1.
        -11    1    1    2    0    0  0.90918703742E+00 -0.26901486913E+01  0.31712981224E+02  0.31839860225E+02  0.00000000000E+00 0. -1.
         11    1    1    2    0    0  0.69967975758E+01  0.10528218614E+01 -0.49986451940E+03  0.49991459407E+03  0.00000000000E+00 0. -1.
        -15    1    1    2    0    0 -0.13753992755E+01 -0.25114996688E+00  0.14496385783E+03  0.14498149056E+03  0.17770000000E+01 0. -1.
         15    1    1    2    0    0 -0.65305853377E+01  0.18884767967E+01  0.32318768035E+03  0.32326405514E+03  0.17770000000E+01 0. -1.
</event>
<event>
 6   1  0.3798113E-04  0.5038515E+03  0.7546771E-02  0.9391233E-01
        -11   -1    0    0    0    0  0.00000000000E+00  0.00000000000E+00  0.50000000000E+03  0.50000000000E+03  0.00000000000E+00 0. -1.
         11   -1    0    0    0    0 -0.00000000000E+00 -0.00000000000E+00 -0.50000000000E+03  0.50000000000E+03  0.00000000000E+00 0.  1.
        -11    1    1    2    0    0  0.32568839132E+02  0.47964902096E+02  0.23014905324E+03  0.23733930948E+03  0.00000000000E+00 0. -1.
         11    1    1    2    0    0 -0.38837657452E+02 -0.16300278599E+02 -0.49435743619E+03  0.49614850341E+03  0.00000000000E+00 0.  1.
        -15    1    1    2    0    0  0.48368242606E+01 -0.31923836691E+02  0.25390365732E+03  0.25595458806E+03  0.17770000000E+01 0. -1.
         15    1    1    2    0    0  0.14319940596E+01  0.25921319396E+00  0.10304725626E+02  0.10557599049E+02  0.17770000000E+01 0.  1.
</event>
<event>
 6   1  0.3798113E-04  0.5011462E+03  0.7546771E-02  0.9397249E-01
        -11   -1    0    0    0    0  0.00000000000E+00  0.00000000000E+00  0.50000000000E+03  0.50000000000E+03  0.00000000000E+00 0. -1.
         11   -1    0    0    0    0 -0.00000000000E+00 -0.00000000000E+00 -0.50000000000E+03  0.50000000000E+03  0.00000000000E+00 0.  1.
        -11    1    1    2    0    0 -0.10482361661E+02 -0.53318762232E+01  0.31998237087E+02  0.34090995683E+02  0.00000000000E+00 0. -1.
         11    1    1    2    0    0  0.63419062308E+01 -0.29508394519E+01 -0.49880473568E+03  0.49885377774E+03  0.00000000000E+00 0.  1.
        -15    1    1    2    0    0  0.79358097515E+01  0.46432635232E+01  0.33705175338E+03  0.33718181914E+03  0.17770000000E+01 0. -1.
         15    1    1    2    0    0 -0.37953543218E+01  0.36394521519E+01  0.12975474521E+03  0.12987340744E+03  0.17770000000E+01 0.  1.
</event>
<event>
 6   1  0.3798113E-04  0.5063515E+03  0.7546771E-02  0.9385709E-01
        -11   -1    0    0    0    0  0.00000000000E+00  0.00000000000E+00  0.50000000000E+03  0.50000000000E+03  0.00000000000E+00 0.  1.
         11   -1    0    0    0    0 -0.00000000000E+00 -0.00000000000E+00 -0.50000000000E+03  0.50000000000E+03  0.00000000000E+00 0. -1.
        -11    1    1    2    0    0 -0.34526888052E+02  0.27604752300E+02  0.33457553402E+03  0.33748320893E+03  0.00000000000E+00 0.  1.
         11    1    1    2    0    0 -0.18852340802E+02 -0.27110472648E+02 -0.49254284545E+03  0.49364850155E+03  0.00000000000E+00 0. -1.
        -15    1    1    2    0    0  0.45862136818E+02 -0.39216209691E+01  0.15114222414E+03  0.15800583645E+03  0.17770000000E+01 0.  1.
         15    1    1    2    0    0  0.75170920366E+01  0.34273413164E+01  0.68250872829E+01  0.10862453066E+02  0.17770000000E+01 0. -1.
</event>
<event>
 6   1  0.3798113E-04  0.5009138E+03  0.7546771E-02  0.9397767E-01
        -11   -1    0    0    0    0  0.00000000000E+00  0.00000000000E+00  0.50000000000E+03  0.50000000000E+03  0.00000000000E+00 0. -1.
         11   -1    0    0    0    0 -0.00000000000E+00 -0.00000000000E+00 -0.50000000000E+03  0.50000000000E+03  0.00000000000E+00 0. -1.
        -11    1    1    2    0    0  0.20317721420E+02 -0.20518307897E+02  0.22565692827E+03  0.22749694512E+03  0.00000000000E+00 0. -1.
         11    1    1    2    0    0 -0.45289812566E+01  0.28024701659E+02 -0.49827816933E+03  0.49908619456E+03  0.00000000000E+00 0. -1.
        -15    1    1    2    0    0 -0.96257531286E+01 -0.95607856320E+00  0.19642861067E+03  0.19667467053E+03  0.17770000000E+01 0. -1.
         15    1    1    2    0    0 -0.61629870352E+01 -0.65503151985E+01  0.76192630394E+02  0.76742189790E+02  0.17770000000E+01 0. -1.
</event>
<event>
 6   1  0.3798113E-04  0.4899703E+03  0.7546771E-02  0.9422536E-01
        -11   -1    0    0    0    0  0.00000000000E+00  0.00000000000E+00  0.50000000000E+03  0.50000000000E+03  0.00000000000E+00 0. -1.
         11   -1    0    0    0    0 -0.00000000000E+00 -0.00000000000E+00 -0.50000000000E+03  0.50000000000E+03  0.00000000000E+00 0. -1.
        -11    1    1    2    0    0  0.14067879528E+02  0.57842496091E+01  0.48834073273E+03  0.48857756193E+03  0.00000000000E+00 0. -1.
         11    1    1    2    0    0 -0.35867578494E+01  0.95305734151E+01 -0.49143823057E+03  0.49154372250E+03  0.00000000000E+00 0. -1.
        -15    1    1    2    0    0 -0.95619456990E+01 -0.12937351706E+02  0.39426640773E+01  0.16658577483E+02  0.17770000000E+01 0. -1.
         15    1    1    2    0    0 -0.91917598006E+00 -0.23774713181E+01 -0.84516623192E+00  0.32201380887E+01  0.17770000000E+01 0.  1.
</event>
<event>
 6   1  0.3798113E-04  0.5034008E+03  0.7546771E-02  0.9392232E-01
        -11   -1    0    0    0    0  0.00000000000E+00  0.00000000000E+00  0.50000000000E+03  0.50000000000E+03  0.00000000000E+00 0.  1.
         11   -1    0    0    0    0 -0.00000000000E+00 -0.00000000000E+00 -0.50000000000E+03  0.50000000000E+03  0.00000000000E+00 0. -1.
        -11    1    1    2    0    0 -0.79643843733E+01 -0.21514493420E+01  0.49653063315E+03  0.49659916413E+03  0.00000000000E+00 0.  1.
         11    1    1    2    0    0  0.40339046231E+01  0.93523977780E+01 -0.48274466247E+03  0.48285209835E+03  0.00000000000E+00 0. -1.
        -15    1    1    2    0    0  0.75200545192E+01 -0.91444705313E+00 -0.68403543106E+01  0.10360290029E+02  0.17770000000E+01 0.  1.
         15    1    1    2    0    0 -0.35895747691E+01 -0.62865013829E+01 -0.69456163705E+01  0.10188447498E+02  0.17770000000E+01 0. -1.
</event>
<event>
 6   1  0.3798113E-04  0.4865610E+03  0.7546771E-02  0.9430393E-01
        -11   -1    0    0    0    0  0.00000000000E+00  0.00000000000E+00  0.50000000000E+03  0.50000000000E+03  0.00000000000E+00 0.  1.
         11   -1    0    0    0    0 -0.00000000000E+00 -0.00000000000E+00 -0.50000000000E+03  0.50000000000E+03  0.00000000000E+00 0. -1.
        -11    1    1    2    0    0  0.18895530309E+02  0.14388768808E+02  0.48804098114E+03  0.48861853936E+03  0.00000000000E+00 0.  1.
         11    1    1    2    0    0 -0.84817639372E+01  0.74648709226E+01 -0.48467859475E+03  0.48481027715E+03  0.00000000000E+00 0. -1.
        -15    1    1    2    0    0 -0.74603141170E+01 -0.98946246167E+01 -0.59475739080E+01  0.13859698677E+02  0.17770000000E+01 0. -1.
         15    1    1    2    0    0 -0.29534522553E+01 -0.11959015114E+02  0.25851875212E+01  0.12711484817E+02  0.17770000000E+01 0.  1.
</event>
<event>
 6   1  0.3798113E-04  0.5012934E+03  0.7546771E-02  0.9396920E-01
        -11   -1    0    0    0    0  0.00000000000E+00  0.00000000000E+00  0.50000000000E+03  0.50000000000E+03  0.00000000000E+00 0.  1.
         11   -1    0    0    0    0 -0.00000000000E+00 -0.00000000000E+00 -0.50000000000E+03  0.50000000000E+03  0.00000000000E+00 0. -1.
        -11    1    1    2    0    0  0.20959636667E+02 -0.88048379767E+01  0.49818817598E+03  0.49870661739E+03  0.00000000000E+00 0.  1.
         11    1    1    2    0    0 -0.54968707903E+00 -0.85999733993E+01 -0.35830259679E+03  0.35840621167E+03  0.00000000000E+00 0. -1.
        -15    1    1    2    0    0 -0.63147022278E+01  0.84670564499E+01 -0.33080736926E+02  0.34771531368E+02  0.17770000000E+01 0.  1.
         15    1    1    2    0    0 -0.14095247361E+02  0.89377549261E+01 -0.10680484226E+03  0.10811563957E+03  0.17770000000E+01 0. -1.
</event>
<event>
 6   1  0.3798113E-04  0.5020647E+03  0.7546771E-02  0.9395202E-01
        -11   -1    0    0    0    0  0.00000000000E+00  0.00000000000E+00  0.50000000000E+03  0.50000000000E+03  0.00000000000E+00 0.  1.
         11   -1    0    0    0    0 -0.00000000000E+00 -0.00000000000E+00 -0.50000000000E+03  0.50000000000E+03  0.00000000000E+00 0.  1.
        -11    1    1    2    0    0  0.15813563834E+02 -0.79882074970E+01  0.49761997679E+03  0.49793525840E+03  0.00000000000E+00 0.  1.
         11    1    1    2    0    0 -0.76298360694E+01  0.87502816537E+01 -0.46034223204E+03  0.46048860184E+03  0.00000000000E+00 0.  1.
        -15    1    1    2    0    0 -0.89166600420E+01  0.39006205874E+01 -0.10899143505E+02  0.14719739312E+02  0.17770000000E+01 0. -1.
         15    1    1    2    0    0  0.73293227729E+00 -0.46626947441E+01 -0.26378601245E+02  0.26856400440E+02  0.17770000000E+01 0.  1.
</event>
<event>
 6   1  0.3798113E-04  0.5001193E+03  0.7546771E-02  0.9399543E-01
        -11   -1    0    0    0    0  0.00000000000E+00  0.00000000000E+00  0.50000000000E+03  0.50000000000E+03  0.00000000000E+00 0. -1.
         11   -1    0    0    0    0 -0.00000000000E+00 -0.00000000000E+00 -0.50000000000E+03  0.50000000000E+03  0.00000000000E+00 0.  1.
        -11    1    1    2    0    0  0.86269163539E+01 -0.35574390707E+01  0.49979355039E+03  0.49988065783E+03  0.00000000000E+00 0. -1.
         11    1    1    2    0    0 -0.86811129417E+00  0.57194217908E+01 -0.29995647792E+03  0.30001225650E+03  0.00000000000E+00 0.  1.
        -15    1    1    2    0    0 -0.52842765020E+01  0.12363434815E+01 -0.95914065069E+02  0.96083909841E+02  0.17770000000E+01 0.  1.
         15    1    1    2    0    0 -0.24745285578E+01 -0.33983262015E+01 -0.10392300741E+03  0.10402317583E+03  0.17770000000E+01 0. -1.
</event>
<event>
 6   1  0.3798113E-04  0.4912747E+03  0.7546771E-02  0.9419548E-01
        -11   -1    0    0    0    0  0.00000000000E+00  0.00000000000E+00  0.50000000000E+03  0.50000000000E+03  0.00000000000E+00 0. -1.
         11   -1    0    0    0    0 -0.00000000000E+00 -0.00000000000E+00 -0.50000000000E+03  0.50000000000E+03  0.00000000000E+00 0. -1.
        -11    1    1    2    0    0 -0.71648864251E+01  0.24886072290E+01  0.48823200920E+03  0.48829092104E+03  0.00000000000E+00 0. -1.
         11    1    1    2    0    0 -0.39409506630E+01 -0.88288180887E+01 -0.49426561514E+03  0.49436016974E+03  0.00000000000E+00 0. -1.
        -15    1    1    2    0    0  0.15718591437E+00  0.31778467599E+01  0.43787280100E+01  0.56968768133E+01  0.17770000000E+01 0.  1.
         15    1    1    2    0    0  0.10948651174E+02  0.31623640998E+01  0.16548779314E+01  0.11652032406E+02  0.17770000000E+01 0.  1.
</event>
<event>
 6   1  0.3798113E-04  0.5012351E+03  0.7546771E-02  0.9397050E-01
        -11   -1    0    0    0    0  0.00000000000E+00  0.00000000000E+00  0.50000000000E+03  0.50000000000E+03  0.00000000000E+00 0. -1.
         11   -1    0    0    0    0 -0.00000000000E+00 -0.00000000000E+00 -0.50000000000E+03  0.50000000000E+03  0.00000000000E+00 0. -1.
        -11    1    1    2    0    0 -0.55405079054E+01  0.50701141294E+01  0.49870839493E+03  0.49876494109E+03  0.00000000000E+00 0. -1.
         11    1    1    2    0    0  0.37834306148E+01  0.53811182795E+01 -0.46697205825E+03  0.46701838718E+03  0.00000000000E+00 0. -1.
        -15    1    1    2    0    0  0.38454708208E+01 -0.54271108158E+01 -0.14426764918E+02  0.15985319911E+02  0.17770000000E+01 0.  1.
         15    1    1    2    0    0 -0.20883935302E+01 -0.50241215931E+01 -0.17309571765E+02  0.18231351815E+02  0.17770000000E+01 0. -1.
</event>
<event>
 6   1  0.3798113E-04  0.5002674E+03  0.7546771E-02  0.9399212E-01
        -11   -1    0    0    0    0  0.00000000000E+00  0.00000000000E+00  0.50000000000E+03  0.50000000000E+03  0.00000000000E+00 0.  1.
         11   -1    0    0    0    0 -0.00000000000E+00 -0.00000000000E+00 -0.50000000000E+03  0.50000000000E+03  0.00000000000E+00 0.  1.
        -11    1    1    2    0    0 -0.90017746953E+00 -0.10176282747E+02  0.49962814284E+03  0.49973257665E+03  0.00000000000E+00 0.  1.
         11    1    1    2    0    0  0.44078259472E+01 -0.25347347985E+01 -0.16661644148E+03  0.16669400824E+03  0.00000000000E+00 0.  1.
        -15    1    1    2    0    0 -0.24843629303E+01  0.11579665418E+01 -0.20476714807E+03  0.20479320204E+03  0.17770000000E+01 0.  1.
         15    1    1    2    0    0 -0.10232855474E+01  0.11553051004E+02 -0.12824455329E+03  0.12878021307E+03  0.17770000000E+01 0.  1.
</event>
<event>
 6   1  0.3798113E-04  0.5019938E+03  0.7546771E-02  0.9395360E-01
        -11   -1    0    0    0    0  0.00000000000E+00  0.00000000000E+00  0.50000000000E+03  0.50000000000E+03  0.00000000000E+00 0. -1.
         11   -1    0    0    0    0 -0.00000000000E+00 -0.00000000000E+00 -0.50000000000E+03  0.50000000000E+03  0.00000000000E+00 0. -1.
        -11    1    1    2    0    0  0.14192475870E+02 -0.30699356311E+02  0.49685644117E+03  0.49800622485E+03  0.00000000000E+00 0. -1.
         11    1    1    2    0    0 -0.22955000331E+01  0.11498493325E+02 -0.36372933237E+03  0.36391827640E+03  0.00000000000E+00 0. -1.
        -15    1    1    2    0    0 -0.18306095162E+02  0.22564623006E+02 -0.10927356695E+03  0.11308468285E+03  0.17770000000E+01 0. -1.
         15    1    1    2    0    0  0.64091193254E+01 -0.33637600196E+01 -0.23853541848E+02  0.24990815907E+02  0.17770000000E+01 0.  1.
</event>
<event>
 6   1  0.3798113E-04  0.4837504E+03  0.7546771E-02  0.9436922E-01
        -11   -1    0    0    0    0  0.00000000000E+00  0.00000000000E+00  0.50000000000E+03  0.50000000000E+03  0.00000000000E+00 0.  1.
         11   -1    0    0    0    0 -0.00000000000E+00 -0.00000000000E+00 -0.50000000000E+03  0.50000000000E+03  0.00000000000E+00 0. -1.
        -11    1    1    2    0    0 -0.15735259525E+02  0.30226030390E+01  0.47719483361E+03  0.47746376171E+03  0.00000000000E+00 0.  1.
         11    1    1    2    0    0  0.76041590118E+00  0.12423704033E+02 -0.49020571498E+03  0.49036371160E+03  0.00000000000E+00 0. -1.
        -15    1    1    2    0    0  0.11267828601E+02 -0.80023480343E+01  0.17648719100E+02  0.22486363652E+02  0.17770000000E+01 0.  1.
         15    1    1    2    0    0  0.37070150226E+01 -0.74439590382E+01 -0.46378377306E+01  0.96861630358E+01  0.17770000000E+01 0. -1.
</event>
<event>
 6   1  0.3798113E-04  0.4792896E+03  0.7546771E-02  0.9447382E-01
        -11   -1    0    0    0    0  0.00000000000E+00  0.00000000000E+00  0.50000000000E+03  0.50000000000E+03  0.00000000000E+00 0.  1.
         11   -1    0    0    0    0 -0.00000000000E+00 -0.00000000000E+00 -0.50000000000E+03  0.50000000000E+03  0.00000000000E+00 0. -1.
        -11    1    1    2    0    0  0.19131181784E+02  0.19604781309E+02  0.48286629291E+03  0.48364264328E+03  0.00000000000E+00 0.  1.
         11    1    1    2    0    0 -0.79412183902E+01  0.15203568771E+02 -0.47535356185E+03  0.47566292710E+03  0.00000000000E+00 0. -1.
        -15    1    1    2    0    0  0.11209344031E+01 -0.37285188669E+01  0.34196172663E+01  0.54781254207E+01  0.17770000000E+01 0.  1.
         15    1    1    2    0    0 -0.12310897797E+02 -0.31079831213E+02 -0.10932348331E+02  0.35216304205E+02  0.17770000000E+01 0. -1.
</event>
<event>
 6   1  0.3798113E-04  0.4650208E+03  0.7546771E-02  0.9481670E-01
        -11   -1    0    0    0    0  0.00000000000E+00  0.00000000000E+00  0.50000000000E+03  0.50000000000E+03  0.00000000000E+00 0. -1.
         11   -1    0    0    0    0 -0.00000000000E+00 -0.00000000000E+00 -0.50000000000E+03  0.50000000000E+03  0.00000000000E+00 0. -1.
        -11    1    1    2    0    0 -0.14603324325E+01 -0.47080146808E+02  0.47963833907E+03  0.48194564953E+03  0.00000000000E+00 0. -1.
         11    1    1    2    0    0  0.24804475134E+01 -0.96367338878E+01 -0.45017990268E+03  0.45028986668E+03  0.00000000000E+00 0. -1.
        -15    1    1    2    0    0 -0.76959059598E+01  0.67204591782E+01 -0.70637787876E+01  0.12547758360E+02  0.17770000000E+01 0.  1.
         15    1    1    2    0    0  0.66757908789E+01  0.49996421518E+02 -0.22394657610E+02  0.55216725428E+02  0.17770000000E+01 0. -1.
</event>
<event>
 6   1  0.3798113E-04  0.4693515E+03  0.7546771E-02  0.9471127E-01
        -11   -1    0    0    0    0  0.00000000000E+00  0.00000000000E+00  0.50000000000E+03  0.50000000000E+03  0.00000000000E+00 0.  1.
         11   -1    0    0    0    0 -0.00000000000E+00 -0.00000000000E+00 -0.50000000000E+03  0.50000000000E+03  0.00000000000E+00 0.  1.
        -11    1    1    2    0    0  0.20171488015E+02 -0.44684792605E+02  0.46260933600E+03  0.46519997568E+03  0.00000000000E+00 0.  1.
         11    1    1    2    0    0  0.10750315863E+02 -0.34315938885E+01 -0.47519409238E+03  0.47532806624E+03  0.00000000000E+00 0.  1.
        -15    1    1    2    0    0 -0.62552927469E+01  0.89523119886E+01 -0.12401718819E+01  0.11134106726E+02  0.17770000000E+01 0. -1.
         15    1    1    2    0    0 -0.24666511132E+02  0.39164074505E+02  0.13824928263E+02  0.48337851356E+02  0.17770000000E+01 0.  1.
</event>
<event>
 6   1  0.3798113E-04  0.5029066E+03  0.7546771E-02  0.9393329E-01
        -11   -1    0    0    0    0  0.00000000000E+00  0.00000000000E+00  0.50000000000E+03  0.50000000000E+03  0.00000000000E+00 0. -1.
         11   -1    0    0    0    0 -0.00000000000E+00 -0.00000000000E+00 -0.50000000000E+03  0.50000000000E+03  0.00000000000E+00 0.  1.
        -11    1    1    2    0    0  0.11626954892E+00 -0.25414505818E+02  0.20839949286E+03  0.20994346679E+03  0.00000000000E+00 0. -1.
         11    1    1    2    0    0  0.36516088503E+02  0.28230315472E+02 -0.49494593683E+03  0.49709340753E+03  0.00000000000E+00 0.  1.
        -15    1    1    2    0    0 -0.32425227423E+02 -0.90043991284E+01  0.28204560923E+03  0.28405168190E+03  0.17770000000E+01 0. -1.
         15    1    1    2    0    0 -0.42071306288E+01  0.61885894745E+01  0.45008347467E+01  0.89114437791E+01  0.17770000000E+01 0.  1.
</event>
<event>
 6   1  0.3798113E-04  0.5008272E+03  0.7546771E-02  0.9397961E-01
        -11   -1    0    0    0    0  0.00000000000E+00  0.00000000000E+00  0.50000000000E+03  0.50000000000E+03  0.00000000000E+00 0.  1.
         11   -1    0    0    0    0 -0.00000000000E+00 -0.00000000000E+00 -0.50000000000E+03  0.50000000000E+03  0.00000000000E+00 0.  1.
        -11    1    1    2    0    0 -0.28031186171E+02 -0.69124546991E+01  0.49833721887E+03  0.49917282893E+03  0.00000000000E+00 0.  1.
         11    1    1    2    0    0 -0.27434759300E+01  0.72240711686E+00 -0.11553268336E+03  0.11556751039E+03  0.00000000000E+00 0.  1.
        -15    1    1    2    0    0 -0.15263681075E+01 -0.48619356634E+01 -0.13504412823E+03  0.13515192384E+03  0.17770000000E+01 0. -1.
         15    1    1    2    0    0  0.32301030209E+02  0.11051983246E+02 -0.24776040728E+03  0.25010773685E+03  0.17770000000E+01 0.  1.
</event>
<event>
 6   1  0.3798113E-04  0.5050128E+03  0.7546771E-02  0.9388663E-01
        -11   -1    0    0    0    0  0.00000000000E+00  0.00000000000E+00  0.50000000000E+03  0.50000000000E+03  0.00000000000E+00 0.  1.
         11   -1    0    0    0    0 -0.00000000000E+00 -0.00000000000E+00 -0.50000000000E+03  0.50000000000E+03  0.00000000000E+00 0.  1.
        -11    1    1    2    0    0  0.40934383922E+01 -0.10364548232E+02  0.49486175567E+03  0.49498720925E+03  0.00000000000E+00 0.  1.
         11    1    1    2    0    0 -0.25188740029E+01  0.18117591725E+02 -0.48648042563E+03  0.48682419453E+03  0.00000000000E+00 0.  1.
        -15    1    1    2    0    0 -0.73962661200E+01 -0.26487946706E+01 -0.54310227531E+01  0.97146591742E+01  0.17770000000E+01 0. -1.
         15    1    1    2    0    0  0.58217017307E+01 -0.51042488224E+01 -0.29503072821E+01  0.84739370508E+01  0.17770000000E+01 0.  1.
</event>
<event>
 6   1  0.3798113E-04  0.4737267E+03  0.7546771E-02  0.9460597E-01
        -11   -1    0    0    0    0  0.00000000000E+00  0.00000000000E+00  0.50000000000E+03  0.50000000000E+03  0.00000000000E+00 0. -1.
         11   -1    0    0    0    0 -0.00000000000E+00 -0.00000000000E+00 -0.50000000000E+03  0.50000000000E+03  0.00000000000E+00 0. -1.
        -11    1    1    2    0    0  0.33814822202E+02  0.19152737531E+02  0.46935695582E+03  0.47096307873E+03  0.00000000000E+00 0. -1.
         11    1    1    2    0    0 -0.63403772061E+01  0.18089098328E+01 -0.47710636310E+03  0.47715191947E+03  0.00000000000E+00 0. -1.
        -15    1    1    2    0    0 -0.36585367186E+02 -0.18296952528E+02  0.28173260898E+01  0.41040987065E+02  0.17770000000E+01 0.  1.
         15    1    1    2    0    0  0.91109221900E+01 -0.26646948353E+01  0.49320811949E+01  0.10844014738E+02  0.17770000000E+01 0. -1.
</event>
<event>
 6   1  0.3798113E-04  0.4786294E+03  0.7546771E-02  0.9448940E-01
        -11   -1    0    0    0    0  0.00000000000E+00  0.00000000000E+00  0.50000000000E+03  0.50000000000E+03  0.00000000000E+00 0. -1.
         11   -1    0    0    0    0 -0.00000000000E+00 -0.00000000000E+00 -0.50000000000E+03  0.50000000000E+03  0.00000000000E+00 0.  1.
        -11    1    1    2    0    0 -0.41056638106E+02  0.12741783123E+02  0.47887485779E+03  0.48080050956E+03  0.00000000000E+00 0. -1.
         11    1    1    2    0    0  0.77622267409E+01 -0.92970849777E+00 -0.47704766027E+03  0.47711171301E+03  0.00000000000E+00 0.  1.
        -15    1    1    2    0    0  0.35540447123E+02 -0.82599965908E+01  0.13034723951E+01  0.36554174791E+02  0.17770000000E+01 0.  1.
         15    1    1    2    0    0 -0.22460357586E+01 -0.35520780342E+01 -0.31306699222E+01  0.55336026377E+01  0.17770000000E+01 0. -1.
</event>
<event>
 6   1  0.3798113E-04  0.5004325E+03  0.7546771E-02  0.9398842E-01
        -11   -1    0    0    0    0  0.00000000000E+00  0.00000000000E+00  0.50000000000E+03  0.50000000000E+03  0.00000000000E+00 0.  1.
         11   -1    0    0    0    0 -0.00000000000E+00 -0.00000000000E+00 -0.50000000000E+03  0.50000000000E+03  0.00000000000E+00 0.  1.
        -11    1    1    2    0    0  0.69413705894E+01  0.85829057484E+01  0.49944552260E+03  0.49956749188E+03  0.00000000000E+00 0.  1.
         11    1    1    2    0    0  0.54182071247E+01 -0.12964470681E+01 -0.36103363551E+03  0.36107661751E+03  0.00000000000E+00 0.  1.
        -15    1    1    2    0    0 -0.58027424706E+01 -0.30172804844E+01 -0.92519594200E+02  0.92767498843E+02  0.17770000000E+01 0. -1.
         15    1    1    2    0    0 -0.65568352435E+01 -0.42691781958E+01 -0.45892292892E+02  0.46588391760E+02  0.17770000000E+01 0.  1.
</event>
<event>
 6   1  0.3798113E-04  0.5016824E+03  0.7546771E-02  0.9396053E-01
        -11   -1    0    0    0    0  0.00000000000E+00  0.00000000000E+00  0.50000000000E+03  0.50000000000E+03  0.00000000000E+00 0. -1.
         11   -1    0    0    0    0 -0.00000000000E+00 -0.00000000000E+00 -0.50000000000E+03  0.50000000000E+03  0.00000000000E+00 0. -1.
        -11    1    1    2    0    0  0.11700980963E+02 -0.62790231341E+01  0.39387171425E+02  0.41565470764E+02  0.00000000000E+00 0. -1.
         11    1    1    2    0    0 -0.18634861862E+02  0.31679265432E+02 -0.49696033372E+03  0.49831757668E+03  0.00000000000E+00 0. -1.
        -15    1    1    2    0    0  0.16089107320E+02 -0.29030938424E+02  0.23730181032E+03  0.23961836672E+03  0.17770000000E+01 0. -1.
         15    1    1    2    0    0 -0.91552264199E+01  0.36306961258E+01  0.22027135198E+03  0.22049858584E+03  0.17770000000E+01 0.  1.
</event>
<event>
 6   1  0.3798113E-04  0.5018769E+03  0.7546771E-02  0.9395620E-01
        -11   -1    0    0    0    0  0.00000000000E+00  0.00000000000E+00  0.50000000000E+03  0.50000000000E+03  0.00000000000E+00 0.  1.
         11   -1    0    0    0    0 -0.00000000000E+00 -0.00000000000E+00 -0.50000000000E+03  0.50000000000E+03  0.00000000000E+00 0. -1.
        -11    1    1    2    0    0  0.10014508960E+00  0.15920105060E+02  0.36862767910E+02  0.40153747423E+02  0.00000000000E+00 0.  1.
         11    1    1    2    0    0 -0.79479835444E+01  0.12820216699E+01 -0.49805801607E+03  0.49812307856E+03  0.00000000000E+00 0. -1.
        -15    1    1    2    0    0  0.59791934406E+01 -0.13594666581E+02  0.42412277065E+03  0.42438643714E+03  0.17770000000E+01 0.  1.
         15    1    1    2    0    0  0.18686450142E+01 -0.36074601492E+01  0.37072477511E+02  0.37336736878E+02  0.17770000000E+01 0.  1.
</event>
<event>
 6   1  0.3798113E-04  0.5040622E+03  0.7546771E-02  0.9390766E-01
        -11   -1    0    0    0    0  0.00000000000E+00  0.00000000000E+00  0.50000000000E+03  0.50000000000E+03  0.00000000000E+00 0. -1.
         11   -1    0    0    0    0 -0.00000000000E+00 -0.00000000000E+00 -0.50000000000E+03  0.50000000000E+03  0.00000000000E+00 0.  1.
        -11    1    1    2    0    0 -0.88537141245E+01  0.69957455621E+00  0.46739151300E+03  0.46747588610E+03  0.00000000000E+00 0. -1.
         11    1    1    2    0    0  0.59718667973E+00  0.15845834887E+02 -0.49568423597E+03  0.49593780750E+03  0.00000000000E+00 0.  1.
        -15    1    1    2    0    0 -0.23652710287E+01 -0.28885828410E+01  0.10513527172E+01  0.42663203589E+01  0.17770000000E+01 0.  1.
         15    1    1    2    0    0  0.10621798473E+02 -0.13656826603E+02  0.27241370251E+02  0.32319986043E+02  0.17770000000E+01 0. -1.
</event>
<event>
 6   1  0.3798113E-04  0.5056422E+03  0.7546771E-02  0.9387273E-01
        -11   -1    0    0    0    0  0.00000000000E+00  0.00000000000E+00  0.50000000000E+03  0.50000000000E+03  0.00000000000E+00 0.  1.
         11   -1    0    0    0    0 -0.00000000000E+00 -0.00000000000E+00 -0.50000000000E+03  0.50000000000E+03  0.00000000000E+00 0. -1.
        -11    1    1    2    0    0  0.13886249287E+02 -0.21973278477E+02  0.42360673590E+03  0.42440348677E+03  0.00000000000E+00 0.  1.
         11    1    1    2    0    0 -0.48860621706E+01 -0.75539481782E+01 -0.49427592277E+03  0.49435778902E+03  0.00000000000E+00 0. -1.
        -15    1    1    2    0    0  0.61179821849E+01  0.21467548492E+02  0.45878685254E+02  0.51051903333E+02  0.17770000000E+01 0. -1.
         15    1    1    2    0    0 -0.15118169301E+02  0.80596781633E+01  0.24790501617E+02  0.30186820875E+02  0.17770000000E+01 0.  1.
</event>
<event>
 6   1  0.3798113E-04  0.5010784E+03  0.7546771E-02  0.9397400E-01
        -11   -1    0    0    0    0  0.00000000000E+00  0.00000000000E+00  0.50000000000E+03  0.50000000000E+03  0.00000000000E+00 0.  1.
         11   -1    0    0    0    0 -0.00000000000E+00 -0.00000000000E+00 -0.50000000000E+03  0.50000000000E+03  0.00000000000E+00 0.  1.
        -11    1    1    2    0    0 -0.63104789800E+01  0.10104874717E+02  0.91415070933E+02  0.92188100272E+02  0.00000000000E+00 0.  1.
         11    1    1    2    0    0 -0.70091699939E+01 -0.10149833290E+01 -0.49887128186E+03  0.49892155146E+03  0.00000000000E+00 0.  1.
        -15    1    1    2    0    0  0.10021089388E+02 -0.10199436898E+02  0.40155042008E+03  0.40180884552E+03  0.17770000000E+01 0.  1.
         15    1    1    2    0    0  0.32985595864E+01  0.11095455102E+01  0.59057908474E+01  0.70815027443E+01  0.17770000000E+01 0. -1.
</event>
<event>
 6   1  0.3798113E-04  0.5027112E+03  0.7546771E-02  0.9393764E-01
        -11   -1    0    0    0    0  0.00000000000E+00  0.00000000000E+00  0.50000000000E+03  0.50000000000E+03  0.00000000000E+00 0. -1.
         11   -1    0    0    0    0 -0.00000000000E+00 -0.00000000000E+00 -0.50000000000E+03  0.50000000000E+03  0.00000000000E+00 0. -1.
        -11    1    1    2    0    0 -0.89773779448E+01 -0.24867454071E+01  0.45853401779E+03  0.45862863265E+03  0.00000000000E+00 0. -1.
         11    1    1    2    0    0 -0.63652097469E+01  0.32277314879E+01 -0.49723762835E+03  0.49728884282E+03  0.00000000000E+00 0. -1.
        -15    1    1    2    0    0  0.15031963179E+02 -0.53936255921E+01  0.28292170893E+02  0.32536990901E+02  0.17770000000E+01 0. -1.
         15    1    1    2    0    0  0.31062451251E+00  0.46526395113E+01  0.10411439667E+02  0.11545533636E+02  0.17770000000E+01 0. -1.
</event>
<event>
 6   1  0.3798113E-04  0.5078455E+03  0.7546771E-02  0.9382424E-01
        -11   -1    0    0    0    0  0.00000000000E+00  0.00000000000E+00  0.50000000000E+03  0.50000000000E+03  0.00000000000E+00 0. -1.
         11   -1    0    0    0    0 -0.00000000000E+00 -0.00000000000E+00 -0.50000000000E+03  0.50000000000E+03  0.00000000000E+00 0.  1.
        -11    1    1    2    0    0  0.14130640333E+02 -0.13516066348E+02  0.47815620085E+03  0.47855586033E+03  0.00000000000E+00 0. -1.
         11    1    1    2    0    0 -0.48021629716E+01 -0.61342732369E+01 -0.49209279697E+03  0.49215445839E+03  0.00000000000E+00 0.  1.
        -15    1    1    2    0    0 -0.12534203419E+02  0.16246171174E+02  0.12469248528E+02  0.24076632260E+02  0.17770000000E+01 0.  1.
         15    1    1    2    0    0  0.32057260578E+01  0.34041684112E+01  0.14673475904E+01  0.52130490196E+01  0.17770000000E+01 0. -1.
</event>
<event>
 6   1  0.3798113E-04  0.5023197E+03  0.7546771E-02  0.9394634E-01
        -11   -1    0    0    0    0  0.00000000000E+00  0.00000000000E+00  0.50000000000E+03  0.50000000000E+03  0.00000000000E+00 0.  1.
         11   -1    0    0    0    0 -0.00000000000E+00 -0.00000000000E+00 -0.50000000000E+03  0.50000000000E+03  0.00000000000E+00 0. -1.
        -11    1    1    2    0    0 -0.21120418671E+02  0.18313135883E+02  0.26307284214E+03  0.26455389489E+03  0.00000000000E+00 0.  1.
         11    1    1    2    0    0  0.99977716351E+01 -0.87397702214E+01 -0.49750310092E+03  0.49768029341E+03  0.00000000000E+00 0. -1.
        -15    1    1    2    0    0 -0.10148375413E+02 -0.14456557286E+02  0.11015760384E+03  0.11157883753E+03  0.17770000000E+01 0. -1.
         15    1    1    2    0    0  0.21271022449E+02  0.48831916237E+01  0.12427265493E+03  0.12618697417E+03  0.17770000000E+01 0.  1.
</event>
<event>
 6   1  0.3798113E-04  0.5048555E+03  0.7546771E-02  0.9389010E-01
        -11   -1    0    0    0    0  0.00000000000E+00  0.00000000000E+00  0.50000000000E+03  0.50000000000E+03  0.00000000000E+00 0. -1.
         11   -1    0    0    0    0 -0.00000000000E+00 -0.00000000000E+00 -0.50000000000E+03  0.50000000000E+03  0.00000000000E+00 0. -1.
        -11    1    1    2    0    0  0.10080852594E+02  0.94320921301E+01  0.49495202435E+03  0.49514451866E+03  0.00000000000E+00 0. -1.
         11    1    1    2    0    0  0.35410960635E+01 -0.85380803102E+01 -0.48512728853E+03  0.48521533802E+03  0.00000000000E+00 0. -1.
        -15    1    1    2    0    0 -0.11630984237E+02 -0.25891617874E+01 -0.10954138602E+02  0.16282949198E+02  0.17770000000E+01 0.  1.
         15    1    1    2    0    0 -0.19909644197E+01  0.16951499676E+01  0.11294027779E+01  0.33571941213E+01  0.17770000000E+01 0. -1.
</event>
<event>
 6   1  0.3798113E-04  0.5004461E+03  0.7546771E-02  0.9398812E-01
        -11   -1    0    0    0    0  0.00000000000E+00  0.00000000000E+00  0.50000000000E+03  0.50000000000E+03  0.00000000000E+00 0.  1.
         11   -1    0    0    0    0 -0.00000000000E+00 -0.00000000000E+00 -0.50000000000E+03  0.50000000000E+03  0.00000000000E+00 0. -1.
        -11    1    1    2    0    0 -0.66625589720E+01 -0.13325138687E+02  0.11347720108E+03  0.11445096844E+03  0.00000000000E+00 0.  1.
         11    1    1    2    0    0  0.73163209082E+01  0.87196880975E+01 -0.49942421956E+03  0.49955391360E+03  0.00000000000E+00 0. -1.
        -15    1    1    2    0    0 -0.12050811855E+00  0.13857153931E+01  0.11055038872E+03  0.11057341862E+03  0.17770000000E+01 0.  1.
         15    1    1    2    0    0 -0.53325381756E+00  0.32197351960E+01  0.27539662976E+03  0.27542169934E+03  0.17770000000E+01 0.  1.
</event>
<event>
 6   1  0.3798113E-04  0.5057463E+03  0.7546771E-02  0.9387043E-01
        -11   -1    0    0    0    0  0.00000000000E+00  0.00000000000E+00  0.50000000000E+03  0.50000000000E+03  0.00000000000E+00 0. -1.
         11   -1    0    0    0    0 -0.00000000000E+00 -0.00000000000E+00 -0.50000000000E+03  0.50000000000E+03  0.00000000000E+00 0. -1.
        -11    1    1    2    0    0  0.17921110207E+02 -0.15486389426E+02  0.49368590514E+03  0.49425374797E+03  0.00000000000E+00 0. -1.
         11    1    1    2    0    0 -0.18713939086E+02 -0.80030872397E+01 -0.47191280675E+03  0.47235151963E+03  0.00000000000E+00 0. -1.
        -15    1    1    2    0    0 -0.34271312534E+01  0.15040792469E+02 -0.11465841018E+02  0.19302691677E+02  0.17770000000E+01 0.  1.
         15    1    1    2    0    0  0.42199601319E+01  0.84486841964E+01 -0.10307257375E+02  0.14092040724E+02  0.17770000000E+01 0. -1.
</event>
<event>
 6   1  0.3798113E-04  0.5047035E+03  0.7546771E-02  0.9389346E-01
        -11   -1    0    0    0    0  0.00000000000E+00  0.00000000000E+00  0.50000000000E+03  0.50000000000E+03  0.00000000000E+00 0.  1.
         11   -1    0    0    0    0 -0.00000000000E+00 -0.00000000000E+00 -0.50000000000E+03  0.50000000000E+03  0.00000000000E+00 0. -1.
        -11    1    1    2    0    0 -0.38597655120E+01 -0.68306904902E+01  0.48424708995E+03  0.48431064437E+03  0.00000000000E+00 0.  1.
         11    1    1    2    0    0 -0.81859637002E+01 -0.20702874332E+01 -0.49522451586E+03  0.49529649423E+03  0.00000000000E+00 0. -1.
        -15    1    1    2    0    0  0.80853013559E+01  0.71478355474E+01  0.33417059119E+01  0.11436274674E+02  0.17770000000E+01 0. -1.
         15    1    1    2    0    0  0.39604278563E+01  0.17531423760E+01  0.76357199925E+01  0.89565867270E+01  0.17770000000E+01 0.  1.
</event>
<event>
 6   1  0.3798113E-04  0.5000831E+03  0.7546771E-02  0.9399624E-01
        -11   -1    0    0    0    0  0.00000000000E+00  0.00000000000E+00  0.50000000000E+03  0.50000000000E+03  0.00000000000E+00 0.  1.
         11   -1    0    0    0    0 -0.00000000000E+00 -0.00000000000E+00 -0.50000000000E+03  0.50000000000E+03  0.00000000000E+00 0.  1.
        -11    1    1    2    0    0 -0.65588370752E+01 -0.21868842368E+01  0.36038493001E+03  0.36045124300E+03  0.00000000000E+00 0.  1.
         11    1    1    2    0    0  0.10194251471E+02 -0.21172791635E+01 -0.49980841486E+03  0.49991685029E+03  0.00000000000E+00 0.  1.
        -15    1    1    2    0    0 -0.20684269862E+01  0.25562053600E+01  0.10953615707E+03  0.10959990881E+03  0.17770000000E+01 0.  1.
         15    1    1    2    0    0 -0.15669874094E+01  0.17479580402E+01  0.29887327782E+02  0.30031997899E+02  0.17770000000E+01 0. -1.
</event>
<event>
 6   1  0.3798113E-04  0.5021731E+03  0.7546771E-02  0.9394960E-01
        -11   -1    0    0    0    0  0.00000000000E+00  0.00000000000E+00  0.50000000000E+03  0.50000000000E+03  0.00000000000E+00 0. -1.
         11   -1    0    0    0    0 -0.00000000000E+00 -0.00000000000E+00 -0.50000000000E+03  0.50000000000E+03  0.00000000000E+00 0.  1.
        -11    1    1    2    0    0 -0.71079956785E+01 -0.96517511342E+01  0.49768252995E+03  0.49782685797E+03  0.00000000000E+00 0. -1.
         11    1    1    2    0    0 -0.47109809063E+01  0.50019460704E+01 -0.46105965862E+03  0.46111085610E+03  0.00000000000E+00 0.  1.
        -15    1    1    2    0    0  0.95513896330E+01 -0.23555555664E+01 -0.27159137144E+02  0.28940527731E+02  0.17770000000E+01 0. -1.
         15    1    1    2    0    0  0.22675869517E+01  0.70053606302E+01 -0.94637341783E+01  0.12121758195E+02  0.17770000000E+01 0.  1.
</event>
<event>
 6   1  0.3798113E-04  0.5020715E+03  0.7546771E-02  0.9395187E-01
        -11   -1    0    0    0    0  0.00000000000E+00  0.00000000000E+00  0.50000000000E+03  0.50000000000E+03  0.00000000000E+00 0. -1.
         11   -1    0    0    0    0 -0.00000000000E+00 -0.00000000000E+00 -0.50000000000E+03  0.50000000000E+03  0.00000000000E+00 0.  1.
        -11    1    1    2    0    0  0.10833103882E-01 -0.19389979769E+02  0.51186369665E+02  0.54735873723E+02  0.00000000000E+00 0. -1.
         11    1    1    2    0    0  0.10685147557E+02  0.47444502868E+01 -0.49779127194E+03  0.49792854166E+03  0.00000000000E+00 0.  1.
        -15    1    1    2    0    0 -0.52415681279E+00  0.12462762845E+02  0.33388946977E+03  0.33412711795E+03  0.17770000000E+01 0. -1.
         15    1    1    2    0    0 -0.10171823848E+02  0.21827666378E+01  0.11271543250E+03  0.11320846666E+03  0.17770000000E+01 0.  1.
</event>
<event>
 6   1  0.3798113E-04  0.4908678E+03  0.7546771E-02  0.9420479E-01
        -11   -1    0    0    0    0  0.00000000000E+00  0.00000000000E+00  0.50000000000E+03  0.50000000000E+03  0.00000000000E+00 0. -1.
         11   -1    0    0    0    0 -0.00000000000E+00 -0.00000000000E+00 -0.50000000000E+03  0.50000000000E+03  0.00000000000E+00 0.  1.
        -11    1    1    2    0    0  0.12655408240E+02 -0.16383444526E+00  0.49092058502E+03  0.49108370671E+03  0.00000000000E+00 0. -1.
         11    1    1    2    0    0  0.75581658181E+00 -0.80370579534E+01 -0.49071134786E+03  0.49077774244E+03  0.00000000000E+00 0.  1.
        -15    1    1    2    0    0 -0.51086852954E+01 -0.10170693611E+01  0.81786362157E+00  0.55641464248E+01  0.17770000000E+01 0.  1.
         15    1    1    2    0    0 -0.83025395266E+01  0.92179617597E+01 -0.10271007823E+01  0.12574404424E+02  0.17770000000E+01 0. -1.
</event>
<event>
 6   1  0.3798113E-04  0.5001076E+03  0.7546771E-02  0.9399569E-01
        -11   -1    0    0    0    0  0.00000000000E+00  0.00000000000E+00  0.50000000000E+03  0.50000000000E+03  0.00000000000E+00 0.  1.
         11   -1    0    0    0    0 -0.00000000000E+00 -0.00000000000E+00 -0.50000000000E+03  0.50000000000E+03  0.00000000000E+00 0.  1.
        -11    1    1    2    0    0 -0.59755455579E+01 -0.30710226227E+01  0.31092787687E+03  0.31100045489E+03  0.00000000000E+00 0.  1.
         11    1    1    2    0    0  0.50446509621E+01  0.52150925664E+01 -0.49983971106E+03  0.49989237086E+03  0.00000000000E+00 0.  1.
        -15    1    1    2    0    0 -0.32498501707E+01 -0.42531455057E+00  0.78052517689E+02  0.78141510513E+02  0.17770000000E+01 0. -1.
         15    1    1    2    0    0  0.41807447666E+01 -0.17187553931E+01  0.11085931650E+03  0.11096566374E+03  0.17770000000E+01 0.  1.
</event>
<event>
 6   1  0.3798113E-04  0.5022931E+03  0.7546771E-02  0.9394693E-01
        -11   -1    0    0    0    0  0.00000000000E+00  0.00000000000E+00  0.50000000000E+03  0.50000000000E+03  0.00000000000E+00 0.  1.
         11   -1    0    0    0    0 -0.00000000000E+00 -0.00000000000E+00 -0.50000000000E+03  0.50000000000E+03  0.00000000000E+00 0. -1.
        -11    1    1    2    0    0  0.10424413093E+02  0.23605145885E+02  0.49703748279E+03  0.49770687217E+03  0.00000000000E+00 0.  1.
         11    1    1    2    0    0 -0.11978011380E+02  0.16036788005E+01 -0.32288544866E+03  0.32311152486E+03  0.00000000000E+00 0. -1.
        -15    1    1    2    0    0  0.16618311086E+01  0.46924763958E+01 -0.84351921628E+02  0.84517367616E+02  0.17770000000E+01 0. -1.
         15    1    1    2    0    0 -0.10823282187E+00 -0.29901301081E+02 -0.89800112502E+02  0.94664235354E+02  0.17770000000E+01 0.  1.
</event>
<event>
 6   1  0.3798113E-04  0.5001293E+03  0.7546771E-02  0.9399520E-01
        -11   -1    0    0    0    0  0.00000000000E+00  0.00000000000E+00  0.50000000000E+03  0.50000000000E+03  0.00000000000E+00 0. -1.
         11   -1    0    0    0    0 -0.00000000000E+00 -0.00000000000E+00 -0.50000000000E+03  0.50000000000E+03  0.00000000000E+00 0.  1.
        -11    1    1    2    0    0  0.10025077131E+02  0.59266316368E+01  0.49973503849E+03  0.49987071911E+03  0.00000000000E+00 0. -1.
         11    1    1    2    0    0 -0.17377927865E+01  0.39516165310E+01 -0.21900127351E+03  0.21904381524E+03  0.00000000000E+00 0.  1.
        -15    1    1    2    0    0 -0.56795763161E+01 -0.81459857260E+01 -0.23182697730E+03  0.23204637425E+03  0.17770000000E+01 0.  1.
         15    1    1    2    0    0 -0.26077080287E+01 -0.17322624417E+01 -0.48906787680E+02  0.49039091391E+02  0.17770000000E+01 0. -1.
</event>
<event>
 6   1  0.3798113E-04  0.5001458E+03  0.7546771E-02  0.9399483E-01
        -11   -1    0    0    0    0  0.00000000000E+00  0.00000000000E+00  0.50000000000E+03  0.50000000000E+03  0.00000000000E+00 0. -1.
         11   -1    0    0    0    0 -0.00000000000E+00 -0.00000000000E+00 -0.50000000000E+03  0.50000000000E+03  0.00000000000E+00 0.  1.
        -11    1    1    2    0    0 -0.67127684027E+01 -0.49150758619E+01  0.49978490862E+03  0.49985415284E+03  0.00000000000E+00 0. -1.
         11    1    1    2    0    0  0.11983810252E+00  0.45155115312E+01 -0.32935222115E+03  0.32938319597E+03  0.00000000000E+00 0.  1.
        -15    1    1    2    0    0  0.26309927441E+01  0.39026834336E+01 -0.81529077936E+02  0.81684155985E+02  0.17770000000E+01 0.  1.
         15    1    1    2    0    0  0.39619375561E+01 -0.35031191029E+01 -0.88903609527E+02  0.89078495208E+02  0.17770000000E+01 0. -1.
</event>
<event>
 6   1  0.3798113E-04  0.5000559E+03  0.7546771E-02  0.9399685E-01
        -11   -1    0    0    0    0  0.00000000000E+00  0.00000000000E+00  0.50000000000E+03  0.50000000000E+03  0.00000000000E+00 0. -1.
         11   -1    0    0    0    0 -0.00000000000E+00 -0.00000000000E+00 -0.50000000000E+03  0.50000000000E+03  0.00000000000E+00 0. -1.
        -11    1    1    2    0    0  0.25632383877E+01 -0.86498222665E+01  0.49986271214E+03  0.49994411749E+03  0.00000000000E+00 0. -1.
         11    1    1    2    0    0 -0.12677397760E+01  0.44361692056E+01 -0.15906402348E+03  0.15913092197E+03  0.00000000000E+00 0. -1.
        -15    1    1    2    0    0  0.22648427985E+01  0.52239218428E+00 -0.57594286127E+02  0.57668552349E+02  0.17770000000E+01 0. -1.
         15    1    1    2    0    0 -0.35603414102E+01  0.36912608766E+01 -0.28320440254E+03  0.28325640820E+03  0.17770000000E+01 0. -1.
</event>
<event>
 6   1  0.3798113E-04  0.5007653E+03  0.7546771E-02  0.9398099E-01
        -11   -1    0    0    0    0  0.00000000000E+00  0.00000000000E+00  0.50000000000E+03  0.50000000000E+03  0.00000000000E+00 0.  1.
         11   -1    0    0    0    0 -0.00000000000E+00 -0.00000000000E+00 -0.50000000000E+03  0.50000000000E+03  0.00000000000E+00 0. -1.
        -11    1    1    2    0    0 -0.27549368511E+01 -0.65324598580E+01  0.49918437424E+03  0.49923471654E+03  0.00000000000E+00 0.  1.
         11    1    1    2    0    0  0.38937013472E+01  0.55091847758E+01 -0.47147851382E+03  0.47152677657E+03  0.00000000000E+00 0. -1.
        -15    1    1    2    0    0 -0.23439640720E+01  0.35065784491E+01 -0.76412709013E+01  0.89071325340E+01  0.17770000000E+01 0.  1.
         15    1    1    2    0    0  0.12051995759E+01 -0.24833033669E+01 -0.20064589522E+02  0.20331374359E+02  0.17770000000E+01 0. -1.
</event>
<event>
 6   1  0.3798113E-04  0.5011824E+03  0.7546771E-02  0.9397168E-01
        -11   -1    0    0    0    0  0.00000000000E+00  0.00000000000E+00  0.50000000000E+03  0.50000000000E+03  0.00000000000E+00 0. -1.
         11   -1    0    0    0    0 -0.00000000000E+00 -0.00000000000E+00 -0.50000000000E+03  0.50000000000E+03  0.00000000000E+00 0.  1.
        -11    1    1    2    0    0 -0.53062858814E+00 -0.18227343839E+02  0.68016370408E+02  0.70418351824E+02  0.00000000000E+00 0. -1.
         11    1    1    2    0    0  0.22556459661E+02  0.14404630968E+02 -0.49809906099E+03  0.49881756367E+03  0.00000000000E+00 0.  1.
        -15    1    1    2    0    0 -0.16207196141E+02  0.12946063341E+01  0.36031224932E+03  0.36068327373E+03  0.17770000000E+01 0. -1.
         15    1    1    2    0    0 -0.58186349318E+01  0.25281065373E+01  0.69770441264E+02  0.70080810771E+02  0.17770000000E+01 0. -1.
</event>
<event>
 6   1  0.3798113E-04  0.5001577E+03  0.7546771E-02  0.9399457E-01
        -11   -1    0    0    0    0  0.00000000000E+00  0.00000000000E+00  0.50000000000E+03  0.50000000000E+03  0.00000000000E+00 0.  1.
         11   -1    0    0    0    0 -0.00000000000E+00 -0.00000000000E+00 -0.50000000000E+03  0.50000000000E+03  0.00000000000E+00 0. -1.
        -11    1    1    2    0    0  0.23890583253E+01  0.37104099202E+01  0.25817812116E+03  0.25821583411E+03  0.00000000000E+00 0.  1.
         11    1    1    2    0    0  0.25120177094E+01  0.64025328920E+01 -0.49979493924E+03  0.49984225907E+03  0.00000000000E+00 0. -1.
        -15    1    1    2    0    0 -0.19076288592E+01 -0.21101425995E+01  0.10015424703E+03  0.10021039206E+03  0.17770000000E+01 0.  1.
         15    1    1    2    0    0 -0.29934471755E+01 -0.80028002127E+01  0.14146257105E+03  0.14173151475E+03  0.17770000000E+01 0. -1.
</event>
<event>
 6   1  0.3798113E-04  0.5038354E+03  0.7546771E-02  0.9391268E-01
        -11   -1    0    0    0    0  0.00000000000E+00  0.00000000000E+00  0.50000000000E+03  0.50000000000E+03  0.00000000000E+00 0.  1.
         11   -1    0    0    0    0 -0.00000000000E+00 -0.00000000000E+00 -0.50000000000E+03  0.50000000000E+03  0.00000000000E+00 0. -1.
        -11    1    1    2    0    0  0.60092195048E+01  0.22963547753E+02  0.46163914440E+03  0.46224899663E+03  0.00000000000E+00 0.  1.
         11    1    1    2    0    0  0.45137507627E+01 -0.90093167801E+01 -0.49606223709E+03  0.49616457431E+03  0.00000000000E+00 0. -1.
        -15    1    1    2    0    0 -0.27082049038E+01 -0.81072234440E+01  0.40306765342E+01  0.96158997548E+01  0.17770000000E+01 0. -1.
         15    1    1    2    0    0 -0.78147653637E+01 -0.58470075291E+01  0.30392416161E+02  0.31970529301E+02  0.17770000000E+01 0.  1.
</event>
<event>
 6   1  0.3798113E-04  0.5031774E+03  0.7546771E-02  0.9392728E-01
        -11   -1    0    0    0    0  0.00000000000E+00  0.00000000000E+00  0.50000000000E+03  0.50000000000E+03  0.00000000000E+00 0.  1.
         11   -1    0    0    0    0 -0.00000000000E+00 -0.00000000000E+00 -0.50000000000E+03  0.50000000000E+03  0.00000000000E+00 0.  1.
        -11    1    1    2    0    0  0.55770410944E+00 -0.18900701231E+02  0.61443307202E+02  0.64287071335E+02  0.00000000000E+00 0.  1.
         11    1    1    2    0    0 -0.35648207162E+01  0.64311885120E+01 -0.49676821684E+03  0.49682263374E+03  0.00000000000E+00 0.  1.
        -15    1    1    2    0    0 -0.11411720476E+02  0.17369820437E+02  0.39790236217E+03  0.39844872390E+03  0.17770000000E+01 0.  1.
         15    1    1    2    0    0  0.14418837083E+02 -0.49003077178E+01  0.37422547471E+02  0.40441571022E+02  0.17770000000E+01 0. -1.
</event>
<event>
 6   1  0.3798113E-04  0.5019329E+03  0.7546771E-02  0.9395495E-01
        -11   -1    0    0    0    0  0.00000000000E+00  0.00000000000E+00  0.50000000000E+03  0.50000000000E+03  0.00000000000E+00 0. -1.
         11   -1    0    0    0    0 -0.00000000000E+00 -0.00000000000E+00 -0.50000000000E+03  0.50000000000E+03  0.00000000000E+00 0. -1.
        -11    1    1    2    0    0 -0.43380810800E+01 -0.17370019420E+02  0.43102468101E+03  0.43139635158E+03  0.00000000000E+00 0. -1.
         11    1    1    2    0    0  0.10948556457E+02 -0.22526179129E+01 -0.49794163365E+03  0.49806707952E+03  0.00000000000E+00 0. -1.
        -15    1    1    2    0    0 -0.54594278057E+01  0.55217219502E+01  0.21177492292E+02  0.22626061832E+02  0.17770000000E+01 0.  1.
         15    1    1    2    0    0 -0.11510475716E+01  0.14100915383E+02  0.45739460353E+02  0.47910507068E+02  0.17770000000E+01 0. -1.
</event>
<event>
 6   1  0.3798113E-04  0.5001115E+03  0.7546771E-02  0.9399560E-01
        -11   -1    0    0    0    0  0.00000000000E+00  0.00000000000E+00  0.50000000000E+03  0.50000000000E+03  0.00000000000E+00 0.  1.
         11   -1    0    0    0    0 -0.00000000000E+00 -0.00000000000E+00 -0.50000000000E+03  0.50000000000E+03  0.00000000000E+00 0.  1.
        -11    1    1    2    0    0 -0.10731540340E+02  0.16841199766E+01  0.23654437636E+03  0.23679367433E+03  0.00000000000E+00 0.  1.
         11    1    1    2    0    0  0.98848197436E+01 -0.58596382158E+01 -0.49975645447E+03  0.49988854638E+03  0.00000000000E+00 0.  1.
        -15    1    1    2    0    0  0.21156652821E+01  0.41080951236E+00  0.68260794436E+02  0.68317922905E+02  0.17770000000E+01 0. -1.
         15    1    1    2    0    0 -0.12689446862E+01  0.37647087268E+01  0.19495128367E+03  0.19499985638E+03  0.17770000000E+01 0.  1.
</event>
<event>
 6   1  0.3798113E-04  0.5024078E+03  0.7546771E-02  0.9394438E-01
        -11   -1    0    0    0    0  0.00000000000E+00  0.00000000000E+00  0.50000000000E+03  0.50000000000E+03  0.00000000000E+00 0. -1.
         11   -1    0    0    0    0 -0.00000000000E+00 -0.00000000000E+00 -0.50000000000E+03  0.50000000000E+03  0.00000000000E+00 0.  1.
        -11    1    1    2    0    0  0.19368484444E+02  0.51411763987E+01  0.36537562104E+03  0.36592473862E+03  0.00000000000E+00 0. -1.
         11    1    1    2    0    0  0.12537779927E+02 -0.15910261934E+01 -0.49743167467E+03  0.49759220076E+03  0.00000000000E+00 0.  1.
        -15    1    1    2    0    0 -0.16988990335E+01  0.24684768926E+01  0.10056913924E+02  0.10643255271E+02  0.17770000000E+01 0.  1.
         15    1    1    2    0    0 -0.30207365337E+02 -0.60186270979E+01  0.12199913970E+03  0.12583980535E+03  0.17770000000E+01 0. -1.
</event>
<event>
 6   1  0.3798113E-04  0.5021293E+03  0.7546771E-02  0.9395058E-01
        -11   -1    0    0    0    0  0.00000000000E+00  0.00000000000E+00  0.50000000000E+03  0.50000000000E+03  0.00000000000E+00 0.  1.
         11   -1    0    0    0    0 -0.00000000000E+00 -0.00000000000E+00 -0.50000000000E+03  0.50000000000E+03  0.00000000000E+00 0. -1.
        -11    1    1    2    0    0  0.65238885244E+02  0.11576950282E+02  0.15158226867E+03  0.16543071692E+03  0.00000000000E+00 0.  1.
         11    1    1    2    0    0 -0.10959665148E+03 -0.33321940135E+02 -0.48451361132E+03  0.49787068327E+03  0.00000000000E+00 0. -1.
        -15    1    1    2    0    0  0.52458777796E+01  0.55109555666E+01  0.56058799622E+02  0.56600676753E+02  0.17770000000E+01 0.  1.
         15    1    1    2    0    0  0.39111888461E+02  0.16234034286E+02  0.27687254303E+03  0.28009792305E+03  0.17770000000E+01 0. -1.
</event>
<event>
 6   1  0.3798113E-04  0.5030148E+03  0.7546771E-02  0.9393089E-01
        -11   -1    0    0    0    0  0.00000000000E+00  0.00000000000E+00  0.50000000000E+03  0.50000000000E+03  0.00000000000E+00 0.  1.
         11   -1    0    0    0    0 -0.00000000000E+00 -0.00000000000E+00 -0.50000000000E+03  0.50000000000E+03  0.00000000000E+00 0.  1.
        -11    1    1    2    0    0 -0.10899190670E+02 -0.34572277578E+01  0.47474227407E+03  0.47487995490E+03  0.00000000000E+00 0.  1.
         11    1    1    2    0    0 -0.22109210813E+01  0.91861154418E+01 -0.49689540882E+03  0.49698523136E+03  0.00000000000E+00 0.  1.
        -15    1    1    2    0    0  0.25799549429E+01  0.87370448326E-01  0.11657892448E+02  0.12071784724E+02  0.17770000000E+01 0.  1.
         15    1    1    2    0    0  0.10530156808E+02 -0.58162581324E+01  0.10495242300E+02  0.16063029011E+02  0.17770000000E+01 0. -1.
</event>
<event>
 6   1  0.3798113E-04  0.5010957E+03  0.7546771E-02  0.9397361E-01
        -11   -1    0    0    0    0  0.00000000000E+00  0.00000000000E+00  0.50000000000E+03  0.50000000000E+03  0.00000000000E+00 0. -1.
         11   -1    0    0    0    0 -0.00000000000E+00 -0.00000000000E+00 -0.50000000000E+03  0.50000000000E+03  0.00000000000E+00 0. -1.
        -11    1    1    2    0    0  0.18656392352E+02 -0.15064532725E+01  0.72493709991E+02  0.74871011516E+02  0.00000000000E+00 0. -1.
         11    1    1    2    0    0 -0.22204505634E+02 -0.27528573405E+02 -0.49764914157E+03  0.49890433004E+03  0.00000000000E+00 0. -1.
        -15    1    1    2    0    0  0.27843975113E+01  0.75330364764E+01  0.14885570606E+03  0.14908279064E+03  0.17770000000E+01 0.  1.
         15    1    1    2    0    0  0.76371577043E+00  0.21501990201E+02  0.27629972551E+03  0.27714186781E+03  0.17770000000E+01 0. -1.
</event>
<event>
 6   1  0.3798113E-04  0.5023539E+03  0.7546771E-02  0.9394558E-01
        -11   -1    0    0    0    0  0.00000000000E+00  0.00000000000E+00  0.50000000000E+03  0.50000000000E+03  0.00000000000E+00 0.  1.
         11   -1    0    0    0    0 -0.00000000000E+00 -0.00000000000E+00 -0.50000000000E+03  0.50000000000E+03  0.00000000000E+00 0.  1.
        -11    1    1    2    0    0  0.13874392716E+02  0.28111345180E+01  0.45560840142E+03  0.45582827544E+03  0.00000000000E+00 0.  1.
         11    1    1    2    0    0 -0.13088275145E+02  0.15844724942E+02 -0.49722156942E+03  0.49764610653E+03  0.00000000000E+00 0.  1.
        -15    1    1    2    0    0  0.89539751677E+00 -0.17770249556E+02  0.38626263526E+02  0.42564415525E+02  0.17770000000E+01 0.  1.
         15    1    1    2    0    0 -0.16815150873E+01 -0.88560990469E+00  0.29869044724E+01  0.39612024966E+01  0.17770000000E+01 0.  1.
</event>
<event>
 6   1  0.3798113E-04  0.5018471E+03  0.7546771E-02  0.9395686E-01
        -11   -1    0    0    0    0  0.00000000000E+00  0.00000000000E+00  0.50000000000E+03  0.50000000000E+03  0.00000000000E+00 0.  1.
         11   -1    0    0    0    0 -0.00000000000E+00 -0.00000000000E+00 -0.50000000000E+03  0.50000000000E+03  0.00000000000E+00 0.  1.
        -11    1    1    2    0    0 -0.20151229583E+02 -0.55012253381E+01  0.24160696393E+03  0.24250826904E+03  0.00000000000E+00 0.  1.
         11    1    1    2    0    0 -0.16379899928E+00 -0.93768772006E+01 -0.49806457831E+03  0.49815286492E+03  0.00000000000E+00 0.  1.
        -15    1    1    2    0    0  0.15974022008E+02  0.13758422094E+02  0.25162093104E+03  0.25250883989E+03  0.17770000000E+01 0. -1.
         15    1    1    2    0    0  0.43410065752E+01  0.11196804446E+01  0.48366833485E+01  0.68300261491E+01  0.17770000000E+01 0.  1.
</event>
<event>
 6   1  0.3798113E-04  0.4838315E+03  0.7546771E-02  0.9436733E-01
        -11   -1    0    0    0    0  0.00000000000E+00  0.00000000000E+00  0.50000000000E+03  0.50000000000E+03  0.00000000000E+00 0.  1.
         11   -1    0    0    0    0 -0.00000000000E+00 -0.00000000000E+00 -0.50000000000E+03  0.50000000000E+03  0.00000000000E+00 0. -1.
        -11    1    1    2    0    0 -0.15209580954E+01 -0.22386175417E+02  0.47775089680E+03  0.47827750684E+03  0.00000000000E+00 0.  1.
         11    1    1    2    0    0  0.12894656192E+02 -0.37871493646E+01 -0.48969560814E+03  0.48987998866E+03  0.00000000000E+00 0. -1.
        -15    1    1    2    0    0 -0.81914035475E+01  0.18108186575E+02  0.49425288238E+01  0.20557038534E+02  0.17770000000E+01 0. -1.
         15    1    1    2    0    0 -0.31822945489E+01  0.80651382073E+01  0.70021825222E+01  0.11285465962E+02  0.17770000000E+01 0.  1.
</event>
<event>
 6   1  0.3798113E-04  0.5018877E+03  0.7546771E-02  0.9395596E-01
        -11   -1    0    0    0    0  0.00000000000E+00  0.00000000000E+00  0.50000000000E+03  0.50000000000E+03  0.00000000000E+00 0.  1.
         11   -1    0    0    0    0 -0.00000000000E+00 -0.00000000000E+00 -0.50000000000E+03  0.50000000000E+03  0.00000000000E+00 0.  1.
        -11    1    1    2    0    0  0.17768774758E+02  0.15499119209E+01  0.49779284248E+03  0.49811228212E+03  0.00000000000E+00 0.  1.
         11    1    1    2    0    0 -0.60733461354E+01 -0.91539318219E+01 -0.46582849725E+03  0.46595801190E+03  0.00000000000E+00 0.  1.
        -15    1    1    2    0    0 -0.38391435689E+01  0.37167028773E+01 -0.21197537489E+02  0.21932766086E+02  0.17770000000E+01 0.  1.
         15    1    1    2    0    0 -0.78562850536E+01  0.38873170238E+01 -0.10766807734E+02  0.13996939889E+02  0.17770000000E+01 0. -1.
</event>
<event>
 6   1  0.3798113E-04  0.5006508E+03  0.7546771E-02  0.9398355E-01
        -11   -1    0    0    0    0  0.00000000000E+00  0.00000000000E+00  0.50000000000E+03  0.50000000000E+03  0.00000000000E+00 0. -1.
         11   -1    0    0    0    0 -0.00000000000E+00 -0.00000000000E+00 -0.50000000000E+03  0.50000000000E+03  0.00000000000E+00 0. -1.
        -11    1    1    2    0    0  0.10334007233E+02  0.46393208045E+01  0.30059870059E+03  0.30081205727E+03  0.00000000000E+00 0. -1.
         11    1    1    2    0    0  0.44312565983E+01 -0.88652435789E+01 -0.49925078466E+03  0.49934915095E+03  0.00000000000E+00 0. -1.
        -15    1    1    2    0    0 -0.25592956760E+01  0.81460094650E+01  0.71616572410E+02  0.72145676498E+02  0.17770000000E+01 0.  1.
         15    1    1    2    0    0 -0.12205968155E+02 -0.39200866906E+01  0.12703551166E+03  0.12769311528E+03  0.17770000000E+01 0. -1.
</event>
<event>
 6   1  0.3798113E-04  0.4785213E+03  0.7546771E-02  0.9449195E-01
        -11   -1    0    0    0    0  0.00000000000E+00  0.00000000000E+00  0.50000000000E+03  0.50000000000E+03  0.00000000000E+00 0.  1.
         11   -1    0    0    0    0 -0.00000000000E+00 -0.00000000000E+00 -0.50000000000E+03  0.50000000000E+03  0.00000000000E+00 0.  1.
        -11    1    1    2    0    0  0.13276900619E+02  0.14277010010E+02  0.47765279634E+03  0.47805052344E+03  0.00000000000E+00 0.  1.
         11    1    1    2    0    0 -0.50181800609E+01 -0.11298289256E+02 -0.47887365701E+03  0.47903320642E+03  0.00000000000E+00 0.  1.
        -15    1    1    2    0    0 -0.80226929121E+01  0.16709191235E+02  0.10168915071E+02  0.21216155071E+02  0.17770000000E+01 0.  1.
         15    1    1    2    0    0 -0.23602764596E+00 -0.19687911989E+02 -0.89480544044E+01  0.21700115073E+02  0.17770000000E+01 0. -1.
</event>
<event>
 6   1  0.3798113E-04  0.5004390E+03  0.7546771E-02  0.9398828E-01
        -11   -1    0    0    0    0  0.00000000000E+00  0.00000000000E+00  0.50000000000E+03  0.50000000000E+03  0.00000000000E+00 0.  1.
         11   -1    0    0    0    0 -0.00000000000E+00 -0.00000000000E+00 -0.50000000000E+03  0.50000000000E+03  0.00000000000E+00 0. -1.
        -11    1    1    2    0    0 -0.26059828933E+01  0.58566490885E+01  0.33074885810E+03  0.33081097113E+03  0.00000000000E+00 0.  1.
         11    1    1    2    0    0  0.87815706205E+01 -0.57298709587E+01 -0.49945090167E+03  0.49956095782E+03  0.00000000000E+00 0. -1.
        -15    1    1    2    0    0  0.17078789161E+01 -0.66690037565E+01  0.81128853303E+02  0.81439800029E+02  0.17770000000E+01 0. -1.
         15    1    1    2    0    0 -0.78834666433E+01  0.65422256267E+01  0.87573190264E+02  0.88188271014E+02  0.17770000000E+01 0. -1.
</event>
<event>
 6   1  0.3798113E-04  0.5033997E+03  0.7546771E-02  0.9392235E-01
        -11   -1    0    0    0    0  0.00000000000E+00  0.00000000000E+00  0.50000000000E+03  0.50000000000E+03  0.00000000000E+00 0.  1.
         11   -1    0    0    0    0 -0.00000000000E+00 -0.00000000000E+00 -0.50000000000E+03  0.50000000000E+03  0.00000000000E+00 0.  1.
        -11    1    1    2    0    0  0.13605316826E+02  0.17286581515E+02  0.44210289156E+03  0.44264985855E+03  0.00000000000E+00 0.  1.
         11    1    1    2    0    0 -0.72510213248E+01  0.10913621223E+00 -0.49654730571E+03  0.49660025778E+03  0.00000000000E+00 0.  1.
        -15    1    1    2    0    0  0.25330585513E+01  0.30618998297E+01  0.62727174024E+01  0.76352032587E+01  0.17770000000E+01 0.  1.
         15    1    1    2    0    0 -0.88873540529E+01 -0.20457617557E+02  0.48171696751E+02  0.53114680410E+02  0.17770000000E+01 0. -1.
</event>
<event>
 6   1  0.3798113E-04  0.5007268E+03  0.7546771E-02  0.9398185E-01
        -11   -1    0    0    0    0  0.00000000000E+00  0.00000000000E+00  0.50000000000E+03  0.50000000000E+03  0.00000000000E+00 0. -1.
         11   -1    0    0    0    0 -0.00000000000E+00 -0.00000000000E+00 -0.50000000000E+03  0.50000000000E+03  0.00000000000E+00 0. -1.
        -11    1    1    2    0    0 -0.43613040865E+01 -0.31915421048E+02  0.49823296246E+03  0.49927317167E+03  0.00000000000E+00 0. -1.
         11    1    1    2    0    0  0.10803702306E+02  0.20732161905E+02 -0.12219579624E+03  0.12441203776E+03  0.00000000000E+00 0. -1.
        -15    1    1    2    0    0 -0.34479635840E+01  0.16209711536E+01 -0.93643059148E+02  0.93737379183E+02  0.17770000000E+01 0.  1.
         15    1    1    2    0    0 -0.29944346357E+01  0.95622879897E+01 -0.28239410707E+03  0.28257741139E+03  0.17770000000E+01 0. -1.
</event>
<event>
 6   1  0.3798113E-04  0.5001338E+03  0.7546771E-02  0.9399510E-01
        -11   -1    0    0    0    0  0.00000000000E+00  0.00000000000E+00  0.50000000000E+03  0.50000000000E+03  0.00000000000E+00 0. -1.
         11   -1    0    0    0    0 -0.00000000000E+00 -0.00000000000E+00 -0.50000000000E+03  0.50000000000E+03  0.00000000000E+00 0. -1.
        -11    1    1    2    0    0  0.98004110829E+01 -0.28434903606E+01  0.49976203300E+03  0.49986620522E+03  0.00000000000E+00 0. -1.
         11    1    1    2    0    0 -0.16258795883E+01 -0.35394835936E+01 -0.28201297590E+03  0.28203987308E+03  0.00000000000E+00 0. -1.
        -15    1    1    2    0    0 -0.27231117818E+01  0.37353536854E+01 -0.55042560653E+02  0.55264902219E+02  0.17770000000E+01 0. -1.
         15    1    1    2    0    0 -0.54514197128E+01  0.26476202687E+01 -0.16270649644E+03  0.16282901948E+03  0.17770000000E+01 0.  1.
</event>
<event>
 6   1  0.3798113E-04  0.5000773E+03  0.7546771E-02  0.9399637E-01
        -11   -1    0    0    0    0  0.00000000000E+00  0.00000000000E+00  0.50000000000E+03  0.50000000000E+03  0.00000000000E+00 0. -1.
         11   -1    0    0    0    0 -0.00000000000E+00 -0.00000000000E+00 -0.50000000000E+03  0.50000000000E+03  0.00000000000E+00 0. -1.
        -11    1    1    2    0    0 -0.22046595229E+01  0.46997372041E+01  0.90643584344E+02  0.90792111089E+02  0.00000000000E+00 0. -1.
         11    1    1    2    0    0 -0.26958370392E+00 -0.89556648798E+01 -0.49984238931E+03  0.49992268478E+03  0.00000000000E+00 0. -1.
        -15    1    1    2    0    0  0.33774926648E+01  0.41323751291E+00  0.14439682001E+03  0.14444783688E+03  0.17770000000E+01 0. -1.
         15    1    1    2    0    0 -0.90324943803E+00  0.38426901628E+01  0.26480198495E+03  0.26483736725E+03  0.17770000000E+01 0.  1.
</event>
<event>
 6   1  0.3798113E-04  0.5001436E+03  0.7546771E-02  0.9399488E-01
        -11   -1    0    0    0    0  0.00000000000E+00  0.00000000000E+00  0.50000000000E+03  0.50000000000E+03  0.00000000000E+00 0. -1.
         11   -1    0    0    0    0 -0.00000000000E+00 -0.00000000000E+00 -0.50000000000E+03  0.50000000000E+03  0.00000000000E+00 0.  1.
        -11    1    1    2    0    0  0.58962216969E+01  0.65242854155E+00  0.41679621269E+03  0.41683842674E+03  0.00000000000E+00 0. -1.
         11    1    1    2    0    0 -0.47660463415E+01 -0.57093314173E+01 -0.49980107473E+03  0.49985640534E+03  0.00000000000E+00 0.  1.
        -15    1    1    2    0    0  0.82696328893E+00  0.29165486834E+01  0.50734775013E+02  0.50856319657E+02  0.17770000000E+01 0.  1.
         15    1    1    2    0    0 -0.19571386443E+01  0.21403541924E+01  0.32270087028E+02  0.32448848262E+02  0.17770000000E+01 0. -1.
</event>
<event>
 6   1  0.3798113E-04  0.5010788E+03  0.7546771E-02  0.9397399E-01
        -11   -1    0    0    0    0  0.00000000000E+00  0.00000000000E+00  0.50000000000E+03  0.50000000000E+03  0.00000000000E+00 0.  1.
         11   -1    0    0    0    0 -0.00000000000E+00 -0.00000000000E+00 -0.50000000000E+03  0.50000000000E+03  0.00000000000E+00 0. -1.
        -11    1    1    2    0    0 -0.13245868126E+02  0.72000322567E+00  0.49874481294E+03  0.49892119604E+03  0.00000000000E+00 0.  1.
         11    1    1    2    0    0 -0.20248614829E+01 -0.80044397941E+01 -0.39251898239E+03  0.39260581077E+03  0.00000000000E+00 0. -1.
        -15    1    1    2    0    0  0.65491512881E+01  0.94495509708E+01 -0.76136300918E+02  0.77019993785E+02  0.17770000000E+01 0.  1.
         15    1    1    2    0    0  0.87215783204E+01 -0.21651144024E+01 -0.30089529632E+02  0.31452999400E+02  0.17770000000E+01 0. -1.
</event>
<event>
 6   1  0.3798113E-04  0.5020526E+03  0.7546771E-02  0.9395229E-01
        -11   -1    0    0    0    0  0.00000000000E+00  0.00000000000E+00  0.50000000000E+03  0.50000000000E+03  0.00000000000E+00 0.  1.
         11   -1    0    0    0    0 -0.00000000000E+00 -0.00000000000E+00 -0.50000000000E+03  0.50000000000E+03  0.00000000000E+00 0.  1.
        -11    1    1    2    0    0 -0.49794672204E+00 -0.12355942602E+02  0.43419798211E+03  0.43437403805E+03  0.00000000000E+00 0.  1.
         11    1    1    2    0    0 -0.37085312946E+00 -0.79188739103E+01 -0.49788432661E+03  0.49794743576E+03  0.00000000000E+00 0.  1.
        -15    1    1    2    0    0  0.17321737667E-01  0.16636855544E+02  0.59439672820E+02  0.61749637217E+02  0.17770000000E+01 0.  1.
         15    1    1    2    0    0  0.85147811383E+00  0.36379609678E+01  0.42466716852E+01  0.59288889670E+01  0.17770000000E+01 0. -1.
</event>
<event>
 6   1  0.3798113E-04  0.5068640E+03  0.7546771E-02  0.9384581E-01
        -11   -1    0    0    0    0  0.00000000000E+00  0.00000000000E+00  0.50000000000E+03  0.50000000000E+03  0.00000000000E+00 0. -1.
         11   -1    0    0    0    0 -0.00000000000E+00 -0.00000000000E+00 -0.50000000000E+03  0.50000000000E+03  0.00000000000E+00 0. -1.
        -11    1    1    2    0    0 -0.14526731468E+01 -0.12032840588E+02  0.49298706913E+03  0.49313603584E+03  0.00000000000E+00 0. -1.
         11    1    1    2    0    0  0.27109069004E+01 -0.12565555189E+02 -0.47015730568E+03  0.47033300360E+03  0.00000000000E+00 0. -1.
        -15    1    1    2    0    0 -0.68938419226E+01  0.71213438930E+01 -0.80194120977E+01  0.12872734546E+02  0.17770000000E+01 0.  1.
         15    1    1    2    0    0  0.56356081690E+01  0.17477051884E+02 -0.14810351358E+02  0.23658226019E+02  0.17770000000E+01 0. -1.
</event>
<event>
 6   1  0.3798113E-04  0.5024253E+03  0.7546771E-02  0.9394399E-01
        -11   -1    0    0    0    0  0.00000000000E+00  0.00000000000E+00  0.50000000000E+03  0.50000000000E+03  0.00000000000E+00 0. -1.
         11   -1    0    0    0    0 -0.00000000000E+00 -0.00000000000E+00 -0.50000000000E+03  0.50000000000E+03  0.00000000000E+00 0. -1.
        -11    1    1    2    0    0  0.39700091150E+02  0.54751156704E+00  0.49598810394E+03  0.49757471425E+03  0.00000000000E+00 0. -1.
         11    1    1    2    0    0  0.17506144200E+01 -0.69284115706E+01 -0.31723586625E+03  0.31731634432E+03  0.00000000000E+00 0. -1.
        -15    1    1    2    0    0 -0.31944618895E+01  0.19927649810E+01 -0.62371286624E+02  0.62510085771E+02  0.17770000000E+01 0. -1.
         15    1    1    2    0    0 -0.38256243680E+02  0.43881350225E+01 -0.11638095107E+03  0.12259885567E+03  0.17770000000E+01 0. -1.
</event>
<event>
 6   1  0.3798113E-04  0.5024273E+03  0.7546771E-02  0.9394395E-01
        -11   -1    0    0    0    0  0.00000000000E+00  0.00000000000E+00  0.50000000000E+03  0.50000000000E+03  0.00000000000E+00 0. -1.
         11   -1    0    0    0    0 -0.00000000000E+00 -0.00000000000E+00 -0.50000000000E+03  0.50000000000E+03  0.00000000000E+00 0.  1.
        -11    1    1    2    0    0  0.54193098923E+01 -0.14829603247E+02  0.21905974763E+02  0.27002921740E+02  0.00000000000E+00 0. -1.
         11    1    1    2    0    0 -0.96087929439E+01  0.15780412243E+02 -0.49722958018E+03  0.49757271400E+03  0.00000000000E+00 0.  1.
        -15    1    1    2    0    0  0.51487083994E+01  0.22141936839E+01  0.32940778815E+03  0.32946025629E+03  0.17770000000E+01 0. -1.
         15    1    1    2    0    0 -0.95922534781E+00 -0.31650026803E+01  0.14591581727E+03  0.14596410796E+03  0.17770000000E+01 0. -1.
</event>
<event>
 6   1  0.3798113E-04  0.5008056E+03  0.7546771E-02  0.9398009E-01
        -11   -1    0    0    0    0  0.00000000000E+00  0.00000000000E+00  0.50000000000E+03  0.50000000000E+03  0.00000000000E+00 0.  1.
         11   -1    0    0    0    0 -0.00000000000E+00 -0.00000000000E+00 -0.50000000000E+03  0.50000000000E+03  0.00000000000E+00 0. -1.
        -11    1    1    2    0    0 -0.30048084951E+01  0.32514789071E+01  0.60628197933E+02  0.60789632124E+02  0.00000000000E+00 0.  1.
         11    1    1    2    0    0 -0.59603310997E+01  0.98886096848E+01 -0.49906088294E+03  0.49919442608E+03  0.00000000000E+00 0. -1.
        -15    1    1    2    0    0 -0.75581428380E+01 -0.68981684349E+01  0.32809288320E+03  0.32825722839E+03  0.17770000000E+01 0.  1.
         15    1    1    2    0    0  0.16523282433E+02 -0.62419201570E+01  0.11033980181E+03  0.11175871340E+03  0.17770000000E+01 0. -1.
</event>
<event>
 6   1  0.3798113E-04  0.5030541E+03  0.7546771E-02  0.9393002E-01
        -11   -1    0    0    0    0  0.00000000000E+00  0.00000000000E+00  0.50000000000E+03  0.50000000000E+03  0.00000000000E+00 0. -1.
         11   -1    0    0    0    0 -0.00000000000E+00 -0.00000000000E+00 -0.50000000000E+03  0.50000000000E+03  0.00000000000E+00 0. -1.
        -11    1    1    2    0    0 -0.12325503385E+01 -0.75467923000E+01  0.49688702109E+03  0.49694585719E+03  0.00000000000E+00 0. -1.
         11    1    1    2    0    0  0.16292212361E+02  0.56970933156E+01 -0.47505015110E+03  0.47536358623E+03  0.00000000000E+00 0. -1.
        -15    1    1    2    0    0 -0.11088516083E+02  0.22211892643E+00 -0.10245282082E+02  0.15202896424E+02  0.17770000000E+01 0. -1.
         15    1    1    2    0    0 -0.39711459398E+01  0.16275800579E+01 -0.11591587903E+02  0.12487660150E+02  0.17770000000E+01 0.  1.
</event>
<event>
 6   1  0.3798113E-04  0.5053120E+03  0.7546771E-02  0.9388002E-01
        -11   -1    0    0    0    0  0.00000000000E+00  0.00000000000E+00  0.50000000000E+03  0.50000000000E+03  0.00000000000E+00 0. -1.
         11   -1    0    0    0    0 -0.00000000000E+00 -0.00000000000E+00 -0.50000000000E+03  0.50000000000E+03  0.00000000000E+00 0. -1.
        -11    1    1    2    0    0 -0.15689923553E+01 -0.23638424956E+02  0.49412041074E+03  0.49468799984E+03  0.00000000000E+00 0. -1.
         11    1    1    2    0    0 -0.72068942668E+01  0.21757114902E+01 -0.45252681498E+03  0.45258942908E+03  0.00000000000E+00 0. -1.
        -15    1    1    2    0    0  0.15352893341E+02  0.92392413415E+01 -0.27427820790E+02  0.32810333689E+02  0.17770000000E+01 0. -1.
         15    1    1    2    0    0 -0.65770067185E+01  0.12223472124E+02 -0.14165774975E+02  0.19912237388E+02  0.17770000000E+01 0.  1.
</event>
<event>
 6   1  0.3798113E-04  0.5040931E+03  0.7546771E-02  0.9390697E-01
        -11   -1    0    0    0    0  0.00000000000E+00  0.00000000000E+00  0.50000000000E+03  0.50000000000E+03  0.00000000000E+00 0. -1.
         11   -1    0    0    0    0 -0.00000000000E+00 -0.00000000000E+00 -0.50000000000E+03  0.50000000000E+03  0.00000000000E+00 0.  1.
        -11    1    1    2    0    0 -0.27719275527E+02  0.72098821371E+01  0.44586025427E+03  0.44677925979E+03  0.00000000000E+00 0. -1.
         11    1    1    2    0    0  0.36915638938E+01 -0.60402297432E+01 -0.49585633977E+03  0.49590686798E+03  0.00000000000E+00 0.  1.
        -15    1    1    2    0    0 -0.53180227397E+00  0.16871736766E+01  0.17054464163E+01  0.30324322173E+01  0.17770000000E+01 0. -1.
         15    1    1    2    0    0  0.24559513907E+02 -0.28568260705E+01  0.48290639077E+02  0.54281440015E+02  0.17770000000E+01 0.  1.
</event>
<event>
 6   1  0.3798113E-04  0.5104774E+03  0.7546771E-02  0.9376666E-01
        -11   -1    0    0    0    0  0.00000000000E+00  0.00000000000E+00  0.50000000000E+03  0.50000000000E+03  0.00000000000E+00 0.  1.
         11   -1    0    0    0    0 -0.00000000000E+00 -0.00000000000E+00 -0.50000000000E+03  0.50000000000E+03  0.00000000000E+00 0.  1.
        -11    1    1    2    0    0  0.34187673298E+02 -0.62760451663E+02  0.13965256819E+03  0.15687737600E+03  0.00000000000E+00 0.  1.
         11    1    1    2    0    0 -0.35436042667E+02  0.77224882498E+01 -0.48817723187E+03  0.48952258341E+03  0.00000000000E+00 0.  1.
        -15    1    1    2    0    0  0.10898515618E+02  0.40510231382E+02  0.25782707465E+03  0.26122368698E+03  0.17770000000E+01 0.  1.
         15    1    1    2    0    0 -0.96501462487E+01  0.14527732032E+02  0.90697589030E+02  0.92376353606E+02  0.17770000000E+01 0. -1.
</event>
<event>
 6   1  0.3798113E-04  0.5020924E+03  0.7546771E-02  0.9395140E-01
        -11   -1    0    0    0    0  0.00000000000E+00  0.00000000000E+00  0.50000000000E+03  0.50000000000E+03  0.00000000000E+00 0. -1.
         11   -1    0    0    0    0 -0.00000000000E+00 -0.00000000000E+00 -0.50000000000E+03  0.50000000000E+03  0.00000000000E+00 0.  1.
        -11    1    1    2    0    0  0.21609317377E+01  0.69015721928E+01  0.48353752608E+03  0.48359160503E+03  0.00000000000E+00 0. -1.
         11    1    1    2    0    0 -0.88273189508E+01  0.13820081337E+01 -0.49782742546E+03  0.49790759890E+03  0.00000000000E+00 0.  1.
        -15    1    1    2    0    0  0.12868341883E+01 -0.36834480778E+01  0.38449421853E+01  0.57589097387E+01  0.17770000000E+01 0.  1.
         15    1    1    2    0    0  0.53795530249E+01 -0.46001322486E+01  0.10444957195E+02  0.12741886330E+02  0.17770000000E+01 0. -1.
</event>
<event>
 6   1  0.3798113E-04  0.5001178E+03  0.7546771E-02  0.9399546E-01
        -11   -1    0    0    0    0  0.00000000000E+00  0.00000000000E+00  0.50000000000E+03  0.50000000000E+03  0.00000000000E+00 0. -1.
         11   -1    0    0    0    0 -0.00000000000E+00 -0.00000000000E+00 -0.50000000000E+03  0.50000000000E+03  0.00000000000E+00 0. -1.
        -11    1    1    2    0    0  0.81036281355E+01 -0.11449739499E+02  0.26693575399E+03  0.26730406297E+03  0.00000000000E+00 0. -1.
         11    1    1    2    0    0 -0.10948583862E+02  0.20964601596E+02 -0.49932239515E+03  0.49988222644E+03  0.00000000000E+00 0. -1.
        -15    1    1    2    0    0  0.34690985517E+01 -0.19376113982E+01  0.34557842689E+02  0.34830894375E+02  0.17770000000E+01 0.  1.
         15    1    1    2    0    0 -0.62414282476E+00 -0.75772506985E+01  0.19782879848E+03  0.19798281622E+03  0.17770000000E+01 0. -1.
</event>
<event>
 6   1  0.3798113E-04  0.5042071E+03  0.7546771E-02  0.9390445E-01
        -11   -1    0    0    0    0  0.00000000000E+00  0.00000000000E+00  0.50000000000E+03  0.50000000000E+03  0.00000000000E+00 0.  1.
         11   -1    0    0    0    0 -0.00000000000E+00 -0.00000000000E+00 -0.50000000000E+03  0.50000000000E+03  0.00000000000E+00 0.  1.
        -11    1    1    2    0    0 -0.16237869133E+02 -0.67211251105E+01  0.49548129099E+03  0.49579285154E+03  0.00000000000E+00 0.  1.
         11    1    1    2    0    0  0.23121354489E+01  0.87799348535E+01 -0.45077235378E+03  0.45086378005E+03  0.00000000000E+00 0.  1.
        -15    1    1    2    0    0  0.29713787037E+01 -0.91054048945E+01 -0.36653352436E+02  0.37925762530E+02  0.17770000000E+01 0. -1.
         15    1    1    2    0    0  0.10954354980E+02  0.70465951515E+01 -0.80555847671E+01  0.15417605884E+02  0.17770000000E+01 0.  1.
</event>
<event>
 6   1  0.3798113E-04  0.5010290E+03  0.7546771E-02  0.9397510E-01
        -11   -1    0    0    0    0  0.00000000000E+00  0.00000000000E+00  0.50000000000E+03  0.50000000000E+03  0.00000000000E+00 0. -1.
         11   -1    0    0    0    0 -0.00000000000E+00 -0.00000000000E+00 -0.50000000000E+03  0.50000000000E+03  0.00000000000E+00 0. -1.
        -11    1    1    2    0    0  0.19945622752E+02  0.12937088581E+02  0.49840434076E+03  0.49897102423E+03  0.00000000000E+00 0. -1.
         11    1    1    2    0    0  0.72720902966E+00 -0.41992842608E+01 -0.28867278465E+03  0.28870424212E+03  0.00000000000E+00 0. -1.
        -15    1    1    2    0    0 -0.40399550719E+00  0.70102100560E+01 -0.39275485570E+02  0.39937798552E+02  0.17770000000E+01 0.  1.
         15    1    1    2    0    0 -0.20268836275E+02 -0.15748014376E+02 -0.17045607054E+03  0.17238693510E+03  0.17770000000E+01 0. -1.
</event>
<event>
 6   1  0.3798113E-04  0.4377233E+03  0.7546771E-02  0.9551071E-01
        -11   -1    0    0    0    0  0.00000000000E+00  0.00000000000E+00  0.50000000000E+03  0.50000000000E+03  0.00000000000E+00 0. -1.
         11   -1    0    0    0    0 -0.00000000000E+00 -0.00000000000E+00 -0.50000000000E+03  0.50000000000E+03  0.00000000000E+00 0.  1.
        -11    1    1    2    0    0 -0.48671645498E+02  0.29495676868E+03  0.30298629851E+03  0.42563966162E+03  0.00000000000E+00 0. -1.
         11    1    1    2    0    0 -0.10744279418E+02  0.27504274940E+02 -0.57855349439E+02  0.64955108644E+02  0.00000000000E+00 0.  1.
        -15    1    1    2    0    0 -0.99294119553E+01  0.52927401358E+02  0.32363238007E+01  0.53977166997E+02  0.17770000000E+01 0. -1.
         15    1    1    2    0    0  0.69345336872E+02 -0.37538844497E+03 -0.24836727287E+03  0.45542806274E+03  0.17770000000E+01 0.  1.
</event>
<event>
 6   1  0.3798113E-04  0.4932350E+03  0.7546771E-02  0.9415076E-01
        -11   -1    0    0    0    0  0.00000000000E+00  0.00000000000E+00  0.50000000000E+03  0.50000000000E+03  0.00000000000E+00 0.  1.
         11   -1    0    0    0    0 -0.00000000000E+00 -0.00000000000E+00 -0.50000000000E+03  0.50000000000E+03  0.00000000000E+00 0. -1.
        -11    1    1    2    0    0  0.96037039610E+01 -0.23984394820E+01  0.49248606598E+03  0.49258553453E+03  0.00000000000E+00 0.  1.
         11    1    1    2    0    0 -0.18352576166E+01 -0.67302793355E+01 -0.49390897980E+03  0.49395824232E+03  0.00000000000E+00 0. -1.
        -15    1    1    2    0    0 -0.59726283450E+01  0.64385102688E+01  0.29912739065E+01  0.94462771721E+01  0.17770000000E+01 0.  1.
         15    1    1    2    0    0 -0.17958179994E+01  0.26902085487E+01 -0.15683600885E+01  0.40099459709E+01  0.17770000000E+01 0. -1.
</event>
<event>
 6   1  0.3798113E-04  0.5000637E+03  0.7546771E-02  0.9399667E-01
        -11   -1    0    0    0    0  0.00000000000E+00  0.00000000000E+00  0.50000000000E+03  0.50000000000E+03  0.00000000000E+00 0. -1.
         11   -1    0    0    0    0 -0.00000000000E+00 -0.00000000000E+00 -0.50000000000E+03  0.50000000000E+03  0.00000000000E+00 0. -1.
        -11    1    1    2    0    0  0.13214359183E+02  0.58490816515E+01  0.39923036304E+03  0.39949181947E+03  0.00000000000E+00 0. -1.
         11    1    1    2    0    0 -0.15408756293E+02 -0.42961053093E+01 -0.49968034456E+03  0.49993632898E+03  0.00000000000E+00 0. -1.
        -15    1    1    2    0    0  0.15765179851E+01 -0.15452738489E+01  0.44429674798E+02  0.44519961949E+02  0.17770000000E+01 0.  1.
         15    1    1    2    0    0  0.61787912528E+00 -0.77024933700E-02  0.56020306722E+02  0.56051889604E+02  0.17770000000E+01 0. -1.
</event>
<event>
 6   1  0.3798113E-04  0.5027566E+03  0.7546771E-02  0.9393663E-01
        -11   -1    0    0    0    0  0.00000000000E+00  0.00000000000E+00  0.50000000000E+03  0.50000000000E+03  0.00000000000E+00 0. -1.
         11   -1    0    0    0    0 -0.00000000000E+00 -0.00000000000E+00 -0.50000000000E+03  0.50000000000E+03  0.00000000000E+00 0.  1.
        -11    1    1    2    0    0  0.12945833907E+02 -0.10693906583E+02  0.46748050898E+03  0.46778197970E+03  0.00000000000E+00 0. -1.
         11    1    1    2    0    0 -0.81101002601E+01 -0.50550585327E+01 -0.49715155131E+03  0.49724339343E+03  0.00000000000E+00 0.  1.
        -15    1    1    2    0    0 -0.21876045784E+01  0.22005232166E+01  0.22539227362E+01  0.42267970047E+01  0.17770000000E+01 0.  1.
         15    1    1    2    0    0 -0.26481290684E+01  0.13548441899E+02  0.27417119590E+02  0.30747829859E+02  0.17770000000E+01 0. -1.
</event>
<event>
 6   1  0.3798113E-04  0.4902609E+03  0.7546771E-02  0.9421869E-01
        -11   -1    0    0    0    0  0.00000000000E+00  0.00000000000E+00  0.50000000000E+03  0.50000000000E+03  0.00000000000E+00 0. -1.
         11   -1    0    0    0    0 -0.00000000000E+00 -0.00000000000E+00 -0.50000000000E+03  0.50000000000E+03  0.00000000000E+00 0.  1.
        -11    1    1    2    0    0  0.73870731876E+01  0.81234511189E+01  0.48858876819E+03  0.48871212764E+03  0.00000000000E+00 0. -1.
         11    1    1    2    0    0 -0.53560355527E+01  0.98764106332E+01 -0.49185408622E+03  0.49198239067E+03  0.00000000000E+00 0.  1.
        -15    1    1    2    0    0 -0.23807532748E+01 -0.10675061737E+02  0.38670963355E+01  0.11736144696E+02  0.17770000000E+01 0. -1.
         15    1    1    2    0    0  0.34971563987E+00 -0.73248000149E+01 -0.60177830214E+00  0.75693369863E+01  0.17770000000E+01 0.  1.
</event>
<event>
 6   1  0.3798113E-04  0.5004810E+03  0.7546771E-02  0.9398734E-01
        -11   -1    0    0    0    0  0.00000000000E+00  0.00000000000E+00  0.50000000000E+03  0.50000000000E+03  0.00000000000E+00 0.  1.
         11   -1    0    0    0    0 -0.00000000000E+00 -0.00000000000E+00 -0.50000000000E+03  0.50000000000E+03  0.00000000000E+00 0. -1.
        -11    1    1    2    0    0 -0.17763313458E+02 -0.16678318527E+02  0.49892440428E+03  0.49951903147E+03  0.00000000000E+00 0.  1.
         11    1    1    2    0    0  0.12568824339E+01 -0.43096895527E+01 -0.19219818713E+03  0.19225060809E+03  0.00000000000E+00 0. -1.
        -15    1    1    2    0    0  0.96640960400E+01  0.79756160606E+01 -0.20959765457E+03  0.20997937931E+03  0.17770000000E+01 0. -1.
         15    1    1    2    0    0  0.68423349843E+01  0.13012392019E+02 -0.97128562585E+02  0.98250981129E+02  0.17770000000E+01 0.  1.
</event>
<event>
 6   1  0.3798113E-04  0.5099484E+03  0.7546771E-02  0.9377821E-01
        -11   -1    0    0    0    0  0.00000000000E+00  0.00000000000E+00  0.50000000000E+03  0.50000000000E+03  0.00000000000E+00 0. -1.
         11   -1    0    0    0    0 -0.00000000000E+00 -0.00000000000E+00 -0.50000000000E+03  0.50000000000E+03  0.00000000000E+00 0. -1.
        -11    1    1    2    0    0 -0.45763193920E+02 -0.65994792653E+00  0.38356204612E+03  0.38628299040E+03  0.00000000000E+00 0. -1.
         11    1    1    2    0    0  0.16156621030E+01  0.33399224377E+02 -0.48890950096E+03  0.49005164900E+03  0.00000000000E+00 0. -1.
        -15    1    1    2    0    0  0.40782972431E+02 -0.11469989641E+02  0.78329904166E+02  0.89070439082E+02  0.17770000000E+01 0. -1.
         15    1    1    2    0    0  0.33645593866E+01 -0.21269286809E+02  0.27017550677E+02  0.34594921518E+02  0.17770000000E+01 0.  1.
</event>
<event>
 6   1  0.3798113E-04  0.5054653E+03  0.7546771E-02  0.9387663E-01
        -11   -1    0    0    0    0  0.00000000000E+00  0.00000000000E+00  0.50000000000E+03  0.50000000000E+03  0.00000000000E+00 0.  1.
         11   -1    0    0    0    0 -0.00000000000E+00 -0.00000000000E+00 -0.50000000000E+03  0.50000000000E+03  0.00000000000E+00 0. -1.
        -11    1    1    2    0    0 -0.18558865356E+02 -0.11540586227E+02  0.49405154282E+03  0.49453467378E+03  0.00000000000E+00 0.  1.
         11    1    1    2    0    0  0.81010324793E+01 -0.59892877704E+01 -0.46024618208E+03  0.46035643410E+03  0.00000000000E+00 0. -1.
        -15    1    1    2    0    0 -0.44378030612E+01  0.20139119675E+01 -0.16946688825E+02  0.17722808145E+02  0.17770000000E+01 0.  1.
         15    1    1    2    0    0  0.14895635937E+02  0.15515962030E+02 -0.16858671911E+02  0.27386083972E+02  0.17770000000E+01 0. -1.
</event>
<event>
 6   1  0.3798113E-04  0.5012156E+03  0.7546771E-02  0.9397094E-01
        -11   -1    0    0    0    0  0.00000000000E+00  0.00000000000E+00  0.50000000000E+03  0.50000000000E+03  0.00000000000E+00 0.  1.
         11   -1    0    0    0    0 -0.00000000000E+00 -0.00000000000E+00 -0.50000000000E+03  0.50000000000E+03  0.00000000000E+00 0.  1.
        -11    1    1    2    0    0  0.80157462494E+01  0.10929384633E+02  0.49860017509E+03  0.49878436046E+03  0.00000000000E+00 0.  1.
         11    1    1    2    0    0 -0.13618816483E+02  0.12268736903E+02 -0.25185932703E+03  0.25252547333E+03  0.00000000000E+00 0.  1.
        -15    1    1    2    0    0  0.36261324548E+01 -0.16143824367E+02 -0.76802298988E+02  0.78584494403E+02  0.17770000000E+01 0. -1.
         15    1    1    2    0    0  0.19769377783E+01 -0.70542971691E+01 -0.16993854908E+03  0.17010567181E+03  0.17770000000E+01 0.  1.
</event>
<event>
 6   1  0.3798113E-04  0.4839440E+03  0.7546771E-02  0.9436471E-01
        -11   -1    0    0    0    0  0.00000000000E+00  0.00000000000E+00  0.50000000000E+03  0.50000000000E+03  0.00000000000E+00 0.  1.
         11   -1    0    0    0    0 -0.00000000000E+00 -0.00000000000E+00 -0.50000000000E+03  0.50000000000E+03  0.00000000000E+00 0. -1.
        -11    1    1    2    0    0 -0.22595556619E+02  0.20874451736E+02  0.73592577564E+01  0.31630058314E+02  0.00000000000E+00 0.  1.
         11    1    1    2    0    0  0.18907687188E+02 -0.25422574093E+02 -0.48731476798E+03  0.48834361980E+03  0.00000000000E+00 0. -1.
        -15    1    1    2    0    0  0.21476619474E+01  0.51006383447E+01  0.32477582524E+03  0.32482783648E+03  0.17770000000E+01 0.  1.
         15    1    1    2    0    0  0.15402074839E+01 -0.55251598762E+00  0.15517968498E+03  0.15519848541E+03  0.17770000000E+01 0.  1.
</event>
<event>
 6   1  0.3798113E-04  0.5003033E+03  0.7546771E-02  0.9399131E-01
        -11   -1    0    0    0    0  0.00000000000E+00  0.00000000000E+00  0.50000000000E+03  0.50000000000E+03  0.00000000000E+00 0.  1.
         11   -1    0    0    0    0 -0.00000000000E+00 -0.00000000000E+00 -0.50000000000E+03  0.50000000000E+03  0.00000000000E+00 0.  1.
        -11    1    1    2    0    0  0.15672963758E+02  0.12483069101E+02  0.49929486903E+03  0.49969674308E+03  0.00000000000E+00 0.  1.
         11    1    1    2    0    0 -0.41896872041E+01 -0.10747382243E+02 -0.22063100633E+03  0.22093234408E+03  0.00000000000E+00 0.  1.
        -15    1    1    2    0    0 -0.25268862999E+01  0.14766334258E-01 -0.84470933263E+01  0.89942474438E+01  0.17770000000E+01 0. -1.
         15    1    1    2    0    0 -0.89563902536E+01 -0.17504531924E+01 -0.27021676937E+03  0.27037666540E+03  0.17770000000E+01 0.  1.
</event>
<event>
 6   1  0.3798113E-04  0.5001943E+03  0.7546771E-02  0.9399375E-01
        -11   -1    0    0    0    0  0.00000000000E+00  0.00000000000E+00  0.50000000000E+03  0.50000000000E+03  0.00000000000E+00 0. -1.
         11   -1    0    0    0    0 -0.00000000000E+00 -0.00000000000E+00 -0.50000000000E+03  0.50000000000E+03  0.00000000000E+00 0.  1.
        -11    1    1    2    0    0  0.53832175545E+01 -0.83704235258E+01  0.13413484151E+03  0.13450352683E+03  0.00000000000E+00 0. -1.
         11    1    1    2    0    0 -0.10606960554E+02  0.24056749006E+01 -0.49968729993E+03  0.49980565483E+03  0.00000000000E+00 0.  1.
        -15    1    1    2    0    0  0.59071033163E+01  0.44921429692E+01  0.26748204731E+03  0.26759087536E+03  0.17770000000E+01 0. -1.
         15    1    1    2    0    0 -0.68336031680E+00  0.14726056560E+01  0.98070411111E+02  0.98099942982E+02  0.17770000000E+01 0. -1.
</event>
<event>
 6   1  0.3798113E-04  0.5002790E+03  0.7546771E-02  0.9399186E-01
        -11   -1    0    0    0    0  0.00000000000E+00  0.00000000000E+00  0.50000000000E+03  0.50000000000E+03  0.00000000000E+00 0. -1.
         11   -1    0    0    0    0 -0.00000000000E+00 -0.00000000000E+00 -0.50000000000E+03  0.50000000000E+03  0.00000000000E+00 0. -1.
        -11    1    1    2    0    0  0.65602316423E+01 -0.16195068673E+02  0.49941538215E+03  0.49972096296E+03  0.00000000000E+00 0. -1.
         11    1    1    2    0    0  0.56293619575E+00 -0.46860594079E+01 -0.11341117522E+03  0.11350934197E+03  0.00000000000E+00 0. -1.
        -15    1    1    2    0    0 -0.14912798389E+01  0.73791701181E+01 -0.70827006970E+02  0.71248148836E+02  0.17770000000E+01 0.  1.
         15    1    1    2    0    0 -0.56318879991E+01  0.13501957963E+02 -0.31517719996E+03  0.31552154623E+03  0.17770000000E+01 0. -1.
</event>
<event>
 6   1  0.3798113E-04  0.5008669E+03  0.7546771E-02  0.9397872E-01
        -11   -1    0    0    0    0  0.00000000000E+00  0.00000000000E+00  0.50000000000E+03  0.50000000000E+03  0.00000000000E+00 0.  1.
         11   -1    0    0    0    0 -0.00000000000E+00 -0.00000000000E+00 -0.50000000000E+03  0.50000000000E+03  0.00000000000E+00 0. -1.
        -11    1    1    2    0    0  0.10905680612E+02  0.11797137315E+02  0.71456246398E+02  0.73240026405E+02  0.00000000000E+00 0.  1.
         11    1    1    2    0    0 -0.26151460142E+01 -0.15771607792E+02 -0.49887699441E+03  0.49913308662E+03  0.00000000000E+00 0. -1.
        -15    1    1    2    0    0 -0.12248893385E+01  0.31340833235E+01  0.53906813099E+02  0.54040957243E+02  0.17770000000E+01 0.  1.
         15    1    1    2    0    0 -0.70656452597E+01  0.84038715354E+00  0.37351393491E+03  0.37358592974E+03  0.17770000000E+01 0.  1.
</event>
<event>
 6   1  0.3798113E-04  0.5001026E+03  0.7546771E-02  0.9399580E-01
        -11   -1    0    0    0    0  0.00000000000E+00  0.00000000000E+00  0.50000000000E+03  0.50000000000E+03  0.00000000000E+00 0.  1.
         11   -1    0    0    0    0 -0.00000000000E+00 -0.00000000000E+00 -0.50000000000E+03  0.50000000000E+03  0.00000000000E+00 0.  1.
        -11    1    1    2    0    0 -0.10333543189E+02  0.26603396690E+02  0.49908209332E+03  0.49989744819E+03  0.00000000000E+00 0.  1.
         11    1    1    2    0    0  0.73246343470E+01 -0.16603536363E+02 -0.32754462231E+03  0.32804695898E+03  0.00000000000E+00 0.  1.
        -15    1    1    2    0    0  0.35721657102E+01 -0.85960380834E+01 -0.92607624383E+02  0.93091256633E+02  0.17770000000E+01 0.  1.
         15    1    1    2    0    0 -0.56325686799E+00 -0.14038222436E+01 -0.78929846625E+02  0.78964336205E+02  0.17770000000E+01 0. -1.
</event>
<event>
 6   1  0.3798113E-04  0.5016809E+03  0.7546771E-02  0.9396056E-01
        -11   -1    0    0    0    0  0.00000000000E+00  0.00000000000E+00  0.50000000000E+03  0.50000000000E+03  0.00000000000E+00 0.  1.
         11   -1    0    0    0    0 -0.00000000000E+00 -0.00000000000E+00 -0.50000000000E+03  0.50000000000E+03  0.00000000000E+00 0. -1.
        -11    1    1    2    0    0 -0.11780848337E+01  0.13974182023E+02  0.44121786613E+03  0.44144067670E+03  0.00000000000E+00 0.  1.
         11    1    1    2    0    0  0.10377184354E+02 -0.90442707040E+00 -0.49821020090E+03  0.49831908274E+03  0.00000000000E+00 0. -1.
        -15    1    1    2    0    0 -0.50846557400E+01  0.29739817635E+00  0.17023594957E+02  0.17857846564E+02  0.17770000000E+01 0.  1.
         15    1    1    2    0    0 -0.41144437807E+01 -0.13367153129E+02  0.39968739808E+02  0.42382394001E+02  0.17770000000E+01 0. -1.
</event>
<event>
 6   1  0.3798113E-04  0.5020681E+03  0.7546771E-02  0.9395194E-01
        -11   -1    0    0    0    0  0.00000000000E+00  0.00000000000E+00  0.50000000000E+03  0.50000000000E+03  0.00000000000E+00 0. -1.
         11   -1    0    0    0    0 -0.00000000000E+00 -0.00000000000E+00 -0.50000000000E+03  0.50000000000E+03  0.00000000000E+00 0.  1.
        -11    1    1    2    0    0  0.65528523163E+01  0.22322870864E+01  0.45145603953E+03  0.45150911243E+03  0.00000000000E+00 0. -1.
         11    1    1    2    0    0 -0.78721085225E+01 -0.42468222694E+01 -0.49785153371E+03  0.49793187808E+03  0.00000000000E+00 0.  1.
        -15    1    1    2    0    0  0.72438839785E+01 -0.47785907826E+01  0.33969757792E+02  0.35105711193E+02  0.17770000000E+01 0.  1.
         15    1    1    2    0    0 -0.59246277723E+01  0.67931259657E+01  0.12425736382E+02  0.15453298297E+02  0.17770000000E+01 0. -1.
</event>
<event>
 6   1  0.3798113E-04  0.5072115E+03  0.7546771E-02  0.9383816E-01
        -11   -1    0    0    0    0  0.00000000000E+00  0.00000000000E+00  0.50000000000E+03  0.50000000000E+03  0.00000000000E+00 0. -1.
         11   -1    0    0    0    0 -0.00000000000E+00 -0.00000000000E+00 -0.50000000000E+03  0.50000000000E+03  0.00000000000E+00 0.  1.
        -11    1    1    2    0    0  0.22709123364E+02 -0.49712204252E+02  0.87954791681E+02  0.10355217485E+03  0.00000000000E+00 0. -1.
         11    1    1    2    0    0 -0.13952531797E+02  0.37755924937E+02 -0.49114186561E+03  0.49278850957E+03  0.00000000000E+00 0.  1.
        -15    1    1    2    0    0  0.30187099471E+01  0.26373207734E+01  0.84468348593E+02  0.84582076787E+02  0.17770000000E+01 0.  1.
         15    1    1    2    0    0 -0.11775301514E+02  0.93189585418E+01  0.31871872533E+03  0.31907723880E+03  0.17770000000E+01 0. -1.
</event>
<event>
 6   1  0.3798113E-04  0.5063317E+03  0.7546771E-02  0.9385752E-01
        -11   -1    0    0    0    0  0.00000000000E+00  0.00000000000E+00  0.50000000000E+03  0.50000000000E+03  0.00000000000E+00 0. -1.
         11   -1    0    0    0    0 -0.00000000000E+00 -0.00000000000E+00 -0.50000000000E+03  0.50000000000E+03  0.00000000000E+00 0.  1.
        -11    1    1    2    0    0  0.39152936068E+02 -0.28843033603E+02  0.16832621995E+03  0.17521012903E+03  0.00000000000E+00 0. -1.
         11    1    1    2    0    0 -0.16269359180E+02 -0.32142526424E+02 -0.49235204356E+03  0.49366827815E+03  0.00000000000E+00 0.  1.
        -15    1    1    2    0    0 -0.55432111035E+01  0.35290009843E+01  0.17639334689E+02  0.18907270944E+02  0.17770000000E+01 0.  1.
         15    1    1    2    0    0 -0.17340365785E+02  0.57456559043E+02  0.30638648892E+03  0.31221432188E+03  0.17770000000E+01 0. -1.
</event>
<event>
 6   1  0.3798113E-04  0.5011377E+03  0.7546771E-02  0.9397268E-01
        -11   -1    0    0    0    0  0.00000000000E+00  0.00000000000E+00  0.50000000000E+03  0.50000000000E+03  0.00000000000E+00 0. -1.
         11   -1    0    0    0    0 -0.00000000000E+00 -0.00000000000E+00 -0.50000000000E+03  0.50000000000E+03  0.00000000000E+00 0.  1.
        -11    1    1    2    0    0  0.15044220168E+02 -0.51563662343E+00  0.49863517086E+03  0.49886233378E+03  0.00000000000E+00 0. -1.
         11    1    1    2    0    0 -0.23719551048E+01 -0.61304379366E+01 -0.42283380815E+03  0.42288489894E+03  0.00000000000E+00 0.  1.
        -15    1    1    2    0    0 -0.12790545321E+02  0.49287164322E+00 -0.54362639439E+02  0.55877502341E+02  0.17770000000E+01 0. -1.
         15    1    1    2    0    0  0.11828025792E+00  0.61532029168E+01 -0.21438723275E+02  0.22375264938E+02  0.17770000000E+01 0.  1.
</event>
<event>
 6   1  0.3798113E-04  0.5035570E+03  0.7546771E-02  0.9391886E-01
        -11   -1    0    0    0    0  0.00000000000E+00  0.00000000000E+00  0.50000000000E+03  0.50000000000E+03  0.00000000000E+00 0.  1.
         11   -1    0    0    0    0 -0.00000000000E+00 -0.00000000000E+00 -0.50000000000E+03  0.50000000000E+03  0.00000000000E+00 0.  1.
        -11    1    1    2    0    0  0.93663956882E+02  0.14741539582E+03  0.37914977336E+03  0.41744315348E+03  0.00000000000E+00 0.  1.
         11    1    1    2    0    0 -0.94098216505E+02 -0.14638607319E+03 -0.46494331869E+03  0.49644299408E+03  0.00000000000E+00 0.  1.
        -15    1    1    2    0    0  0.28417066754E+01  0.39194615315E+00  0.24554960139E+02  0.24785736121E+02  0.17770000000E+01 0. -1.
         15    1    1    2    0    0 -0.24074470523E+01 -0.14212687847E+01  0.61238585192E+02  0.61328116322E+02  0.17770000000E+01 0.  1.
</event>
<event>
 6   1  0.3798113E-04  0.5001747E+03  0.7546771E-02  0.9399419E-01
        -11   -1    0    0    0    0  0.00000000000E+00  0.00000000000E+00  0.50000000000E+03  0.50000000000E+03  0.00000000000E+00 0. -1.
         11   -1    0    0    0    0 -0.00000000000E+00 -0.00000000000E+00 -0.50000000000E+03  0.50000000000E+03  0.00000000000E+00 0. -1.
        -11    1    1    2    0    0 -0.20053179515E+01 -0.94283456334E+01  0.49973237124E+03  0.49982532736E+03  0.00000000000E+00 0. -1.
         11    1    1    2    0    0  0.20678550159E+01 -0.35744288654E+01 -0.21431415142E+03  0.21435393177E+03  0.00000000000E+00 0. -1.
        -15    1    1    2    0    0 -0.34290355148E+01  0.55619681204E+01 -0.13735452087E+03  0.13752132892E+03  0.17770000000E+01 0. -1.
         15    1    1    2    0    0  0.33664984504E+01  0.74408063784E+01 -0.14806369894E+03  0.14829941195E+03  0.17770000000E+01 0.  1.
</event>
<event>
 6   1  0.3798113E-04  0.5009330E+03  0.7546771E-02  0.9397724E-01
        -11   -1    0    0    0    0  0.00000000000E+00  0.00000000000E+00  0.50000000000E+03  0.50000000000E+03  0.00000000000E+00 0. -1.
         11   -1    0    0    0    0 -0.00000000000E+00 -0.00000000000E+00 -0.50000000000E+03  0.50000000000E+03  0.00000000000E+00 0.  1.
        -11    1    1    2    0    0 -0.27143172838E+00  0.20615000418E+02  0.26962930110E+03  0.27041636772E+03  0.00000000000E+00 0. -1.
         11    1    1    2    0    0  0.85269982433E+01 -0.23281130347E+01 -0.49898868726E+03  0.49906696928E+03  0.00000000000E+00 0.  1.
        -15    1    1    2    0    0 -0.10291214059E+02 -0.12543476101E+02  0.18268003707E+03  0.18340774671E+03  0.17770000000E+01 0.  1.
         15    1    1    2    0    0  0.20356475441E+01 -0.57434112827E+01  0.46679349087E+02  0.47108916293E+02  0.17770000000E+01 0. -1.
</event>
<event>
 6   1  0.3798113E-04  0.5097695E+03  0.7546771E-02  0.9378211E-01
        -11   -1    0    0    0    0  0.00000000000E+00  0.00000000000E+00  0.50000000000E+03  0.50000000000E+03  0.00000000000E+00 0.  1.
         11   -1    0    0    0    0 -0.00000000000E+00 -0.00000000000E+00 -0.50000000000E+03  0.50000000000E+03  0.00000000000E+00 0. -1.
        -11    1    1    2    0    0 -0.14937975185E+02  0.51498366057E+02  0.48633155922E+02  0.72390666968E+02  0.00000000000E+00 0.  1.
         11    1    1    2    0    0  0.72450845127E+02 -0.65162322785E+02 -0.48044839820E+03  0.49023047294E+03  0.00000000000E+00 0. -1.
        -15    1    1    2    0    0 -0.38120302453E+02  0.25928338812E+02  0.26549259218E+03  0.26947153921E+03  0.17770000000E+01 0.  1.
         15    1    1    2    0    0 -0.19392567488E+02 -0.12264382084E+02  0.16632265010E+03  0.16790732088E+03  0.17770000000E+01 0. -1.
</event>
<event>
 6   1  0.3798113E-04  0.5020026E+03  0.7546771E-02  0.9395340E-01
        -11   -1    0    0    0    0  0.00000000000E+00  0.00000000000E+00  0.50000000000E+03  0.50000000000E+03  0.00000000000E+00 0.  1.
         11   -1    0    0    0    0 -0.00000000000E+00 -0.00000000000E+00 -0.50000000000E+03  0.50000000000E+03  0.00000000000E+00 0.  1.
        -11    1    1    2    0    0 -0.22224823781E+02  0.16752658941E+01  0.49749835803E+03  0.49799735496E+03  0.00000000000E+00 0.  1.
         11    1    1    2    0    0 -0.11974919896E+02  0.19698858240E+01 -0.32537129670E+03  0.32559754279E+03  0.00000000000E+00 0.  1.
        -15    1    1    2    0    0  0.29826721033E+02 -0.23193076508E+01 -0.10770856848E+03  0.11180029485E+03  0.17770000000E+01 0.  1.
         15    1    1    2    0    0  0.43730226439E+01 -0.13258440673E+01 -0.64418492843E+02  0.64604807396E+02  0.17770000000E+01 0. -1.
</event>
<event>
 6   1  0.3798113E-04  0.5051773E+03  0.7546771E-02  0.9388299E-01
        -11   -1    0    0    0    0  0.00000000000E+00  0.00000000000E+00  0.50000000000E+03  0.50000000000E+03  0.00000000000E+00 0.  1.
         11   -1    0    0    0    0 -0.00000000000E+00 -0.00000000000E+00 -0.50000000000E+03  0.50000000000E+03  0.00000000000E+00 0.  1.
        -11    1    1    2    0    0  0.15444470707E+02 -0.40773718391E+02  0.13556821960E+03  0.14240705724E+03  0.00000000000E+00 0.  1.
         11    1    1    2    0    0 -0.38361405894E+01 -0.70752575467E+01 -0.49475727642E+03  0.49482273373E+03  0.00000000000E+00 0.  1.
        -15    1    1    2    0    0 -0.77449077600E+01  0.44191268276E+02  0.30419270403E+03  0.30748855377E+03  0.17770000000E+01 0. -1.
         15    1    1    2    0    0 -0.38634223574E+01  0.36577076624E+01  0.54996352796E+02  0.55281655253E+02  0.17770000000E+01 0.  1.
</event>
<event>
 6   1  0.3798113E-04  0.5008785E+03  0.7546771E-02  0.9397846E-01
        -11   -1    0    0    0    0  0.00000000000E+00  0.00000000000E+00  0.50000000000E+03  0.50000000000E+03  0.00000000000E+00 0.  1.
         11   -1    0    0    0    0 -0.00000000000E+00 -0.00000000000E+00 -0.50000000000E+03  0.50000000000E+03  0.00000000000E+00 0.  1.
        -11    1    1    2    0    0  0.99322215128E+01 -0.14966427234E+02  0.49879818641E+03  0.49912150197E+03  0.00000000000E+00 0.  1.
         11    1    1    2    0    0  0.45648141843E+01 -0.13874878232E+01 -0.35272474221E+03  0.35275700761E+03  0.00000000000E+00 0.  1.
        -15    1    1    2    0    0 -0.56045945494E+01  0.76788628361E+01 -0.34035538393E+02  0.35382933983E+02  0.17770000000E+01 0.  1.
         15    1    1    2    0    0 -0.88924411477E+01  0.86750522215E+01 -0.11203790580E+03  0.11273855643E+03  0.17770000000E+01 0. -1.
</event>
<event>
 6   1  0.3798113E-04  0.4623712E+03  0.7546771E-02  0.9488182E-01
        -11   -1    0    0    0    0  0.00000000000E+00  0.00000000000E+00  0.50000000000E+03  0.50000000000E+03  0.00000000000E+00 0.  1.
         11   -1    0    0    0    0 -0.00000000000E+00 -0.00000000000E+00 -0.50000000000E+03  0.50000000000E+03  0.00000000000E+00 0. -1.
        -11    1    1    2    0    0  0.54338287435E+01 -0.67206895627E+02  0.47559151631E+03  0.48034735734E+03  0.00000000000E+00 0.  1.
         11    1    1    2    0    0  0.44845754609E+01  0.63638111575E+01 -0.44682595561E+03  0.44689377274E+03  0.00000000000E+00 0. -1.
        -15    1    1    2    0    0 -0.77918879525E+01  0.62593434441E+02 -0.25288055127E+02  0.67980107488E+02  0.17770000000E+01 0.  1.
         15    1    1    2    0    0 -0.21265162519E+01 -0.17503499715E+01 -0.34775055727E+01  0.47787624340E+01  0.17770000000E+01 0. -1.
</event>
<event>
 6   1  0.3798113E-04  0.5010432E+03  0.7546771E-02  0.9397478E-01
        -11   -1    0    0    0    0  0.00000000000E+00  0.00000000000E+00  0.50000000000E+03  0.50000000000E+03  0.00000000000E+00 0. -1.
         11   -1    0    0    0    0 -0.00000000000E+00 -0.00000000000E+00 -0.50000000000E+03  0.50000000000E+03  0.00000000000E+00 0.  1.
        -11    1    1    2    0    0 -0.10239912319E+02  0.21327580619E+02  0.15628750464E+03  0.15806804107E+03  0.00000000000E+00 0. -1.
         11    1    1    2    0    0 -0.14147771663E+02 -0.21542176527E+02 -0.49829069816E+03  0.49895675633E+03  0.00000000000E+00 0.  1.
        -15    1    1    2    0    0  0.18491821000E+02 -0.23590154262E+01  0.27632013167E+03  0.27695394074E+03  0.17770000000E+01 0. -1.
         15    1    1    2    0    0  0.58958629829E+01  0.25736113341E+01  0.65683061846E+02  0.66021261864E+02  0.17770000000E+01 0.  1.
</event>
<event>
 6   1  0.3798113E-04  0.5000970E+03  0.7546771E-02  0.9399593E-01
        -11   -1    0    0    0    0  0.00000000000E+00  0.00000000000E+00  0.50000000000E+03  0.50000000000E+03  0.00000000000E+00 0. -1.
         11   -1    0    0    0    0 -0.00000000000E+00 -0.00000000000E+00 -0.50000000000E+03  0.50000000000E+03  0.00000000000E+00 0.  1.
        -11    1    1    2    0    0  0.48373369137E+01 -0.26667180920E+01  0.78481821748E+02  0.78675965572E+02  0.00000000000E+00 0. -1.
         11    1    1    2    0    0 -0.74344297172E+01  0.52217872192E+01 -0.49982048020E+03  0.49990304083E+03  0.00000000000E+00 0.  1.
        -15    1    1    2    0    0 -0.67468431636E+00  0.13743843702E+01  0.67115662909E+02  0.67156638303E+02  0.17770000000E+01 0. -1.
         15    1    1    2    0    0  0.32717771199E+01 -0.39294534974E+01  0.35422299554E+03  0.35426435529E+03  0.17770000000E+01 0. -1.
</event>
<event>
 6   1  0.3798113E-04  0.4881454E+03  0.7546771E-02  0.9426733E-01
        -11   -1    0    0    0    0  0.00000000000E+00  0.00000000000E+00  0.50000000000E+03  0.50000000000E+03  0.00000000000E+00 0.  1.
         11   -1    0    0    0    0 -0.00000000000E+00 -0.00000000000E+00 -0.50000000000E+03  0.50000000000E+03  0.00000000000E+00 0.  1.
        -11    1    1    2    0    0 -0.12505915123E+02  0.11000937160E+02  0.48766632874E+03  0.48795068062E+03  0.00000000000E+00 0.  1.
         11    1    1    2    0    0  0.55422320293E+01 -0.37645294836E+01 -0.48834606168E+03  0.48839201875E+03  0.00000000000E+00 0.  1.
        -15    1    1    2    0    0  0.12499482151E+02 -0.10400916612E+02  0.30243075315E+01  0.16634911645E+02  0.17770000000E+01 0.  1.
         15    1    1    2    0    0 -0.55357990576E+01  0.31645089353E+01 -0.23445745980E+01  0.70223889848E+01  0.17770000000E+01 0.  1.
</event>
<event>
 6   1  0.3798113E-04  0.5008883E+03  0.7546771E-02  0.9397824E-01
        -11   -1    0    0    0    0  0.00000000000E+00  0.00000000000E+00  0.50000000000E+03  0.50000000000E+03  0.00000000000E+00 0.  1.
         11   -1    0    0    0    0 -0.00000000000E+00 -0.00000000000E+00 -0.50000000000E+03  0.50000000000E+03  0.00000000000E+00 0. -1.
        -11    1    1    2    0    0 -0.94369395908E+01  0.88956234375E+01  0.36045581685E+03  0.36068904038E+03  0.00000000000E+00 0.  1.
         11    1    1    2    0    0 -0.61047268868E+01 -0.32881703681E+01 -0.49906349397E+03  0.49911166162E+03  0.00000000000E+00 0. -1.
        -15    1    1    2    0    0  0.82076895455E+01 -0.93153920679E+01  0.90020522537E+02  0.90890015425E+02  0.17770000000E+01 0. -1.
         15    1    1    2    0    0  0.73339769321E+01  0.37079389984E+01  0.48587154580E+02  0.49309282579E+02  0.17770000000E+01 0.  1.
</event>
<event>
 6   1  0.3798113E-04  0.5001755E+03  0.7546771E-02  0.9399417E-01
        -11   -1    0    0    0    0  0.00000000000E+00  0.00000000000E+00  0.50000000000E+03  0.50000000000E+03  0.00000000000E+00 0. -1.
         11   -1    0    0    0    0 -0.00000000000E+00 -0.00000000000E+00 -0.50000000000E+03  0.50000000000E+03  0.00000000000E+00 0.  1.
        -11    1    1    2    0    0  0.68900179727E+01 -0.48102169707E+00  0.19727882853E+03  0.19739969584E+03  0.00000000000E+00 0. -1.
         11    1    1    2    0    0  0.13979543325E+01 -0.80120978523E+01 -0.49975828658E+03  0.49982446218E+03  0.00000000000E+00 0.  1.
        -15    1    1    2    0    0 -0.51663528459E+01  0.32415746888E+01  0.10356466601E+03  0.10375932143E+03  0.17770000000E+01 0. -1.
         15    1    1    2    0    0 -0.31216194593E+01  0.52515448607E+01  0.19891479204E+03  0.19901652055E+03  0.17770000000E+01 0.  1.
</event>
<event>
 6   1  0.3798113E-04  0.5002211E+03  0.7546771E-02  0.9399315E-01
        -11   -1    0    0    0    0  0.00000000000E+00  0.00000000000E+00  0.50000000000E+03  0.50000000000E+03  0.00000000000E+00 0. -1.
         11   -1    0    0    0    0 -0.00000000000E+00 -0.00000000000E+00 -0.50000000000E+03  0.50000000000E+03  0.00000000000E+00 0.  1.
        -11    1    1    2    0    0  0.82119817974E+01  0.22275893280E+02  0.41566828099E+03  0.41634573601E+03  0.00000000000E+00 0. -1.
         11    1    1    2    0    0 -0.86611419256E+01 -0.18823519874E+02 -0.49934923376E+03  0.49977894868E+03  0.00000000000E+00 0.  1.
        -15    1    1    2    0    0 -0.49419148410E+00 -0.22302902548E+01  0.29085051256E+02  0.29228690620E+02  0.17770000000E+01 0.  1.
         15    1    1    2    0    0  0.94335161231E+00 -0.12220831517E+01  0.54595901516E+02  0.54646624697E+02  0.17770000000E+01 0. -1.
</event>
<event>
 6   1  0.3798113E-04  0.4465028E+03  0.7546771E-02  0.9528175E-01
        -11   -1    0    0    0    0  0.00000000000E+00  0.00000000000E+00  0.50000000000E+03  0.50000000000E+03  0.00000000000E+00 0. -1.
         11   -1    0    0    0    0 -0.00000000000E+00 -0.00000000000E+00 -0.50000000000E+03  0.50000000000E+03  0.00000000000E+00 0. -1.
        -11    1    1    2    0    0  0.26955824907E+02 -0.67598421708E+02  0.41720953672E+03  0.42350910338E+03  0.00000000000E+00 0. -1.
         11    1    1    2    0    0  0.76783811341E+01  0.45147739665E+01 -0.47411329236E+03  0.47419695772E+03  0.00000000000E+00 0. -1.
        -15    1    1    2    0    0  0.56353754878E+00  0.20386892253E+02  0.39106230967E+02  0.44140661297E+02  0.17770000000E+01 0. -1.
         15    1    1    2    0    0 -0.35197743590E+02  0.42696755489E+02  0.17797524668E+02  0.58153277606E+02  0.17770000000E+01 0.  1.
</event>
<event>
 6   1  0.3798113E-04  0.4928665E+03  0.7546771E-02  0.9415915E-01
        -11   -1    0    0    0    0  0.00000000000E+00  0.00000000000E+00  0.50000000000E+03  0.50000000000E+03  0.00000000000E+00 0. -1.
         11   -1    0    0    0    0 -0.00000000000E+00 -0.00000000000E+00 -0.50000000000E+03  0.50000000000E+03  0.00000000000E+00 0. -1.
        -11    1    1    2    0    0  0.12500425439E+02  0.69850707386E+01  0.14403739112E+01  0.14391890994E+02  0.00000000000E+00 0. -1.
         11    1    1    2    0    0 -0.10042355180E+02 -0.91527433118E+01 -0.49331010206E+03  0.49349719189E+03  0.00000000000E+00 0. -1.
        -15    1    1    2    0    0 -0.16851160972E+01  0.81508613254E+01  0.21242240400E+03  0.21259283056E+03  0.17770000000E+01 0.  1.
         15    1    1    2    0    0 -0.77295416174E+00 -0.59831887522E+01  0.27944732415E+03  0.27951808655E+03  0.17770000000E+01 0. -1.
</event>
<event>
 6   1  0.3798113E-04  0.5016240E+03  0.7546771E-02  0.9396183E-01
        -11   -1    0    0    0    0  0.00000000000E+00  0.00000000000E+00  0.50000000000E+03  0.50000000000E+03  0.00000000000E+00 0. -1.
         11   -1    0    0    0    0 -0.00000000000E+00 -0.00000000000E+00 -0.50000000000E+03  0.50000000000E+03  0.00000000000E+00 0. -1.
        -11    1    1    2    0    0 -0.53910868414E+01 -0.11055564030E+02  0.49822415766E+03  0.49837596310E+03  0.00000000000E+00 0. -1.
         11    1    1    2    0    0  0.12689728548E+02  0.82929434410E+01 -0.47770727987E+03  0.47794774543E+03  0.00000000000E+00 0. -1.
        -15    1    1    2    0    0 -0.82004525565E+01  0.33983781382E+01 -0.12778974855E+02  0.15660661654E+02  0.17770000000E+01 0. -1.
         15    1    1    2    0    0  0.90181085011E+00 -0.63575754927E+00 -0.77379029381E+01  0.80156298162E+01  0.17770000000E+01 0.  1.
</event>
<event>
 6   1  0.3798113E-04  0.5024665E+03  0.7546771E-02  0.9394308E-01
        -11   -1    0    0    0    0  0.00000000000E+00  0.00000000000E+00  0.50000000000E+03  0.50000000000E+03  0.00000000000E+00 0.  1.
         11   -1    0    0    0    0 -0.00000000000E+00 -0.00000000000E+00 -0.50000000000E+03  0.50000000000E+03  0.00000000000E+00 0.  1.
        -11    1    1    2    0    0 -0.65808679947E+00  0.92924347593E+01  0.49744627245E+03  0.49753349274E+03  0.00000000000E+00 0.  1.
         11    1    1    2    0    0  0.22412325455E+01  0.64028295008E+01 -0.46792789171E+03  0.46797706268E+03  0.00000000000E+00 0.  1.
        -15    1    1    2    0    0 -0.34860040607E+01 -0.14332607648E+02 -0.25478199545E+02  0.29493596718E+02  0.17770000000E+01 0. -1.
         15    1    1    2    0    0  0.19028583147E+01 -0.13626566118E+01 -0.40401811966E+01  0.49958478669E+01  0.17770000000E+01 0. -1.
</event>
<event>
 6   1  0.3798113E-04  0.4562520E+03  0.7546771E-02  0.9503399E-01
        -11   -1    0    0    0    0  0.00000000000E+00  0.00000000000E+00  0.50000000000E+03  0.50000000000E+03  0.00000000000E+00 0.  1.
         11   -1    0    0    0    0 -0.00000000000E+00 -0.00000000000E+00 -0.50000000000E+03  0.50000000000E+03  0.00000000000E+00 0. -1.
        -11    1    1    2    0    0 -0.44828043301E+02 -0.64789505517E+02  0.45453971643E+03  0.46131723066E+03  0.00000000000E+00 0.  1.
         11    1    1    2    0    0 -0.69571609429E+01  0.33909980485E+01 -0.45464909377E+03  0.45471496503E+03  0.00000000000E+00 0. -1.
        -15    1    1    2    0    0  0.15254123167E+02  0.28218381070E+02 -0.98267173864E+01  0.33595943317E+02  0.17770000000E+01 0.  1.
         15    1    1    2    0    0  0.36531081078E+02  0.33180126399E+02  0.99360947317E+01  0.50371860994E+02  0.17770000000E+01 0. -1.
</event>
<event>
 6   1  0.3798113E-04  0.5021823E+03  0.7546771E-02  0.9394940E-01
        -11   -1    0    0    0    0  0.00000000000E+00  0.00000000000E+00  0.50000000000E+03  0.50000000000E+03  0.00000000000E+00 0.  1.
         11   -1    0    0    0    0 -0.00000000000E+00 -0.00000000000E+00 -0.50000000000E+03  0.50000000000E+03  0.00000000000E+00 0.  1.
        -11    1    1    2    0    0 -0.12158025384E+02 -0.10032464096E+02  0.85899401775E+02  0.87333699924E+02  0.00000000000E+00 0.  1.
         11    1    1    2    0    0  0.10181813225E+02 -0.10326006066E+02 -0.49760647893E+03  0.49781774134E+03  0.00000000000E+00 0.  1.
        -15    1    1    2    0    0 -0.12543422029E+02  0.84697007338E+01  0.34988249966E+03  0.35021421240E+03  0.17770000000E+01 0. -1.
         15    1    1    2    0    0  0.14519634187E+02  0.11888769427E+02  0.61824577489E+02  0.64634346335E+02  0.17770000000E+01 0.  1.
</event>
<event>
 6   1  0.3798113E-04  0.5003913E+03  0.7546771E-02  0.9398934E-01
        -11   -1    0    0    0    0  0.00000000000E+00  0.00000000000E+00  0.50000000000E+03  0.50000000000E+03  0.00000000000E+00 0.  1.
         11   -1    0    0    0    0 -0.00000000000E+00 -0.00000000000E+00 -0.50000000000E+03  0.50000000000E+03  0.00000000000E+00 0.  1.
        -11    1    1    2    0    0 -0.11167980195E+01  0.84802264957E+01  0.47673473955E+02  0.48434714804E+02  0.00000000000E+00 0.  1.
         11    1    1    2    0    0  0.26039039542E+00 -0.91606986068E+01 -0.49952460037E+03  0.49960865943E+03  0.00000000000E+00 0.  1.
        -15    1    1    2    0    0 -0.20368722112E+01 -0.32725724591E+01  0.14813684686E+03  0.14819764406E+03  0.17770000000E+01 0. -1.
         15    1    1    2    0    0  0.28932798352E+01  0.39530445703E+01  0.30371427956E+03  0.30375898170E+03  0.17770000000E+01 0.  1.
</event>
<event>
 6   1  0.3798113E-04  0.5029898E+03  0.7546771E-02  0.9393144E-01
        -11   -1    0    0    0    0  0.00000000000E+00  0.00000000000E+00  0.50000000000E+03  0.50000000000E+03  0.00000000000E+00 0. -1.
         11   -1    0    0    0    0 -0.00000000000E+00 -0.00000000000E+00 -0.50000000000E+03  0.50000000000E+03  0.00000000000E+00 0.  1.
        -11    1    1    2    0    0 -0.53778137115E+01 -0.78726819728E+01  0.48264253604E+03  0.48273669593E+03  0.00000000000E+00 0. -1.
         11    1    1    2    0    0 -0.72423151679E+01  0.51544274734E+01 -0.49693064976E+03  0.49701015073E+03  0.00000000000E+00 0.  1.
        -15    1    1    2    0    0  0.95705934391E+01  0.30669701208E+01  0.12889189546E+02  0.16440544415E+02  0.17770000000E+01 0.  1.
         15    1    1    2    0    0  0.30495354403E+01 -0.34871562136E+00  0.13989241775E+01  0.38126089284E+01  0.17770000000E+01 0. -1.
</event>
<event>
 6   1  0.3798113E-04  0.5003569E+03  0.7546771E-02  0.9399012E-01
        -11   -1    0    0    0    0  0.00000000000E+00  0.00000000000E+00  0.50000000000E+03  0.50000000000E+03  0.00000000000E+00 0. -1.
         11   -1    0    0    0    0 -0.00000000000E+00 -0.00000000000E+00 -0.50000000000E+03  0.50000000000E+03  0.00000000000E+00 0. -1.
        -11    1    1    2    0    0  0.10262075327E+02  0.96855514727E+00  0.21893925536E+03  0.21918176436E+03  0.00000000000E+00 0. -1.
         11    1    1    2    0    0 -0.62676022128E+01 -0.67914200623E+01 -0.49955763720E+03  0.49964311174E+03  0.00000000000E+00 0. -1.
        -15    1    1    2    0    0  0.50885513972E+01  0.30031817657E+01  0.54191366000E+02  0.54541491857E+02  0.17770000000E+01 0.  1.
         15    1    1    2    0    0 -0.90830245112E+01  0.28196831493E+01  0.22642701583E+03  0.22663363205E+03  0.17770000000E+01 0. -1.
</event>
<event>
 6   1  0.3798113E-04  0.4809676E+03  0.7546771E-02  0.9443433E-01
        -11   -1    0    0    0    0  0.00000000000E+00  0.00000000000E+00  0.50000000000E+03  0.50000000000E+03  0.00000000000E+00 0. -1.
         11   -1    0    0    0    0 -0.00000000000E+00 -0.00000000000E+00 -0.50000000000E+03  0.50000000000E+03  0.00000000000E+00 0. -1.
        -11    1    1    2    0    0 -0.33122949653E+02 -0.86534569635E+01  0.47917298611E+03  0.48039438249E+03  0.00000000000E+00 0. -1.
         11    1    1    2    0    0  0.89239081252E+01 -0.10012376255E+01 -0.48181343579E+03  0.48189711093E+03  0.00000000000E+00 0. -1.
        -15    1    1    2    0    0  0.25311857532E+02  0.27188610793E+01  0.99738756639E+01  0.27399238348E+02  0.17770000000E+01 0.  1.
         15    1    1    2    0    0 -0.11128160039E+01  0.69358335097E+01 -0.73334259840E+01  0.10309268238E+02  0.17770000000E+01 0. -1.
</event>
<event>
 6   1  0.3798113E-04  0.5028930E+03  0.7546771E-02  0.9393360E-01
        -11   -1    0    0    0    0  0.00000000000E+00  0.00000000000E+00  0.50000000000E+03  0.50000000000E+03  0.00000000000E+00 0.  1.
         11   -1    0    0    0    0 -0.00000000000E+00 -0.00000000000E+00 -0.50000000000E+03  0.50000000000E+03  0.00000000000E+00 0.  1.
        -11    1    1    2    0    0  0.18730147972E+02  0.17506200291E+01  0.49675090056E+03  0.49710697070E+03  0.00000000000E+00 0.  1.
         11    1    1    2    0    0 -0.20307124523E+00 -0.85959799648E+01 -0.43879740677E+03  0.43888164269E+03  0.00000000000E+00 0.  1.
        -15    1    1    2    0    0 -0.71778510157E+01  0.29349460967E+01 -0.43819319294E+01  0.90826488553E+01  0.17770000000E+01 0. -1.
         15    1    1    2    0    0 -0.11349225711E+02  0.39104138390E+01 -0.53571561867E+02  0.54928737747E+02  0.17770000000E+01 0.  1.
</event>
<event>
 6   1  0.3798113E-04  0.5047964E+03  0.7546771E-02  0.9389141E-01
        -11   -1    0    0    0    0  0.00000000000E+00  0.00000000000E+00  0.50000000000E+03  0.50000000000E+03  0.00000000000E+00 0.  1.
         11   -1    0    0    0    0 -0.00000000000E+00 -0.00000000000E+00 -0.50000000000E+03  0.50000000000E+03  0.00000000000E+00 0.  1.
        -11    1    1    2    0    0 -0.48226288461E+01 -0.59497840122E+01  0.45583092985E+03  0.45589526680E+03  0.00000000000E+00 0.  1.
         11    1    1    2    0    0 -0.66661467674E+01  0.57871758943E+01 -0.49512494398E+03  0.49520363394E+03  0.00000000000E+00 0.  1.
        -15    1    1    2    0    0  0.10711708670E+02 -0.87692733961E+00  0.43126920551E+02  0.44481442303E+02  0.17770000000E+01 0.  1.
         15    1    1    2    0    0  0.77706694342E+00  0.10395354575E+01 -0.38329064210E+01  0.44196569588E+01  0.17770000000E+01 0. -1.
</event>
<event>
 6   1  0.3798113E-04  0.5003996E+03  0.7546771E-02  0.9398916E-01
        -11   -1    0    0    0    0  0.00000000000E+00  0.00000000000E+00  0.50000000000E+03  0.50000000000E+03  0.00000000000E+00 0.  1.
         11   -1    0    0    0    0 -0.00000000000E+00 -0.00000000000E+00 -0.50000000000E+03  0.50000000000E+03  0.00000000000E+00 0.  1.
        -11    1    1    2    0    0  0.22251121594E+01 -0.48877674474E+01  0.27700721566E+02  0.28216508821E+02  0.00000000000E+00 0.  1.
         11    1    1    2    0    0  0.10142040955E+02  0.20383805617E+01 -0.49949331249E+03  0.49960042555E+03  0.00000000000E+00 0.  1.
        -15    1    1    2    0    0  0.25160025151E+01 -0.11491497821E+01  0.51913982567E+02  0.52017978900E+02  0.17770000000E+01 0. -1.
         15    1    1    2    0    0 -0.14883155630E+02  0.39985366677E+01  0.41987860836E+03  0.42016508673E+03  0.17770000000E+01 0.  1.
</event>
<event>
 6   1  0.3798113E-04  0.5075908E+03  0.7546771E-02  0.9382983E-01
        -11   -1    0    0    0    0  0.00000000000E+00  0.00000000000E+00  0.50000000000E+03  0.50000000000E+03  0.00000000000E+00 0.  1.
         11   -1    0    0    0    0 -0.00000000000E+00 -0.00000000000E+00 -0.50000000000E+03  0.50000000000E+03  0.00000000000E+00 0. -1.
        -11    1    1    2    0    0  0.29422570198E+02  0.18595952779E+02  0.49117748347E+03  0.49240919708E+03  0.00000000000E+00 0.  1.
         11    1    1    2    0    0  0.17954720477E+01 -0.13514645263E+02 -0.46134028565E+03  0.46154168666E+03  0.00000000000E+00 0. -1.
        -15    1    1    2    0    0 -0.23577306361E+02  0.10362610788E+01 -0.14460248819E+02  0.27734810927E+02  0.17770000000E+01 0. -1.
         15    1    1    2    0    0 -0.76407358851E+01 -0.61175685957E+01 -0.15376948999E+02  0.18314305335E+02  0.17770000000E+01 0.  1.
</event>
<event>
 6   1  0.3798113E-04  0.5002460E+03  0.7546771E-02  0.9399259E-01
        -11   -1    0    0    0    0  0.00000000000E+00  0.00000000000E+00  0.50000000000E+03  0.50000000000E+03  0.00000000000E+00 0.  1.
         11   -1    0    0    0    0 -0.00000000000E+00 -0.00000000000E+00 -0.50000000000E+03  0.50000000000E+03  0.00000000000E+00 0. -1.
        -11    1    1    2    0    0 -0.21555626816E+02  0.17503912648E+00  0.49928888246E+03  0.49975400332E+03  0.00000000000E+00 0.  1.
         11    1    1    2    0    0  0.95954352442E+00 -0.35858837318E+01 -0.24339157370E+03  0.24341987888E+03  0.00000000000E+00 0. -1.
        -15    1    1    2    0    0  0.28165792151E+01  0.13563353722E+01 -0.58811347026E+02  0.58921176432E+02  0.17770000000E+01 0. -1.
         15    1    1    2    0    0  0.17779504077E+02  0.20545092331E+01 -0.19708596174E+03  0.19790494137E+03  0.17770000000E+01 0. -1.
</event>
<event>
 6   1  0.3798113E-04  0.5029314E+03  0.7546771E-02  0.9393274E-01
        -11   -1    0    0    0    0  0.00000000000E+00  0.00000000000E+00  0.50000000000E+03  0.50000000000E+03  0.00000000000E+00 0. -1.
         11   -1    0    0    0    0 -0.00000000000E+00 -0.00000000000E+00 -0.50000000000E+03  0.50000000000E+03  0.00000000000E+00 0.  1.
        -11    1    1    2    0    0  0.40933136926E+02 -0.43843628837E+02  0.49343637296E+03  0.49706864682E+03  0.00000000000E+00 0. -1.
         11    1    1    2    0    0  0.36576272790E+01  0.53144881944E+01 -0.29935491934E+03  0.29942443079E+03  0.00000000000E+00 0.  1.
        -15    1    1    2    0    0 -0.41580724654E+02  0.34865480108E+02 -0.18750342056E+03  0.19520565775E+03  0.17770000000E+01 0. -1.
         15    1    1    2    0    0 -0.30100395507E+01  0.36636605344E+01 -0.65780330646E+01  0.83012646391E+01  0.17770000000E+01 0.  1.
</event>
<event>
 6   1  0.3798113E-04  0.5012328E+03  0.7546771E-02  0.9397055E-01
        -11   -1    0    0    0    0  0.00000000000E+00  0.00000000000E+00  0.50000000000E+03  0.50000000000E+03  0.00000000000E+00 0.  1.
         11   -1    0    0    0    0 -0.00000000000E+00 -0.00000000000E+00 -0.50000000000E+03  0.50000000000E+03  0.00000000000E+00 0. -1.
        -11    1    1    2    0    0 -0.34976250259E+01 -0.33049361690E+02  0.49765876609E+03  0.49876722141E+03  0.00000000000E+00 0.  1.
         11    1    1    2    0    0 -0.19239313759E+02  0.28602276056E+01 -0.11771131358E+03  0.11930752466E+03  0.00000000000E+00 0. -1.
        -15    1    1    2    0    0  0.72383745300E+01  0.16296438997E+02 -0.17942607013E+03  0.18031871883E+03  0.17770000000E+01 0.  1.
         15    1    1    2    0    0  0.15498564255E+02  0.13892695088E+02 -0.20052138238E+03  0.20160653509E+03  0.17770000000E+01 0. -1.
</event>
<event>
 6   1  0.3798113E-04  0.4869339E+03  0.7546771E-02  0.9429530E-01
        -11   -1    0    0    0    0  0.00000000000E+00  0.00000000000E+00  0.50000000000E+03  0.50000000000E+03  0.00000000000E+00 0. -1.
         11   -1    0    0    0    0 -0.00000000000E+00 -0.00000000000E+00 -0.50000000000E+03  0.50000000000E+03  0.00000000000E+00 0. -1.
        -11    1    1    2    0    0 -0.54217235422E+01  0.13490952007E+02  0.48581045899E+03  0.48602798576E+03  0.00000000000E+00 0. -1.
         11    1    1    2    0    0 -0.61830417854E+01  0.52360488558E+01 -0.48802425817E+03  0.48809151066E+03  0.00000000000E+00 0. -1.
        -15    1    1    2    0    0  0.76195836594E+01 -0.19183659772E+02  0.40750091634E+01  0.21114788326E+02  0.17770000000E+01 0.  1.
         15    1    1    2    0    0  0.39851816683E+01  0.45665890887E+00 -0.18612099816E+01  0.47657152541E+01  0.17770000000E+01 0. -1.
</event>
<event>
 6   1  0.3798113E-04  0.4742386E+03  0.7546771E-02  0.9459373E-01
        -11   -1    0    0    0    0  0.00000000000E+00  0.00000000000E+00  0.50000000000E+03  0.50000000000E+03  0.00000000000E+00 0. -1.
         11   -1    0    0    0    0 -0.00000000000E+00 -0.00000000000E+00 -0.50000000000E+03  0.50000000000E+03  0.00000000000E+00 0. -1.
        -11    1    1    2    0    0 -0.32923913242E+02 -0.12975717826E+02  0.47873256819E+03  0.48003877464E+03  0.00000000000E+00 0. -1.
         11    1    1    2    0    0 -0.59854144336E+00 -0.13517709236E+02 -0.46925267512E+03  0.46944771788E+03  0.00000000000E+00 0. -1.
        -15    1    1    2    0    0  0.22854902861E+02  0.30434379328E+02 -0.75453654203E+01  0.38841836957E+02  0.17770000000E+01 0. -1.
         15    1    1    2    0    0  0.10667551824E+02 -0.39409522654E+01 -0.19345276492E+01  0.11671670527E+02  0.17770000000E+01 0.  1.
</event>
<event>
 6   1  0.3798113E-04  0.4886933E+03  0.7546771E-02  0.9425471E-01
        -11   -1    0    0    0    0  0.00000000000E+00  0.00000000000E+00  0.50000000000E+03  0.50000000000E+03  0.00000000000E+00 0. -1.
         11   -1    0    0    0    0 -0.00000000000E+00 -0.00000000000E+00 -0.50000000000E+03  0.50000000000E+03  0.00000000000E+00 0.  1.
        -11    1    1    2    0    0  0.48599301415E+01  0.54417478833E+01  0.48835440396E+03  0.48840890186E+03  0.00000000000E+00 0. -1.
         11    1    1    2    0    0 -0.86560769047E+01  0.47274051834E+01 -0.48893862380E+03  0.48903809041E+03  0.00000000000E+00 0.  1.
        -15    1    1    2    0    0 -0.77808000973E+01 -0.39117685365E+01  0.22529845901E+01  0.91693212291E+01  0.17770000000E+01 0.  1.
         15    1    1    2    0    0  0.11576946861E+02 -0.62573845301E+01 -0.16687647562E+01  0.13383686509E+02  0.17770000000E+01 0. -1.
</event>
<event>
 6   1  0.3798113E-04  0.5017723E+03  0.7546771E-02  0.9395853E-01
        -11   -1    0    0    0    0  0.00000000000E+00  0.00000000000E+00  0.50000000000E+03  0.50000000000E+03  0.00000000000E+00 0. -1.
         11   -1    0    0    0    0 -0.00000000000E+00 -0.00000000000E+00 -0.50000000000E+03  0.50000000000E+03  0.00000000000E+00 0. -1.
        -11    1    1    2    0    0 -0.18385448015E+02  0.10662290426E+02  0.42908931894E+03  0.42961535443E+03  0.00000000000E+00 0. -1.
         11    1    1    2    0    0  0.93657294240E+00 -0.77375376268E+01 -0.49816676284E+03  0.49822772931E+03  0.00000000000E+00 0. -1.
        -15    1    1    2    0    0  0.14714810289E+02 -0.35274957881E+01  0.65623134165E+02  0.67368555981E+02  0.17770000000E+01 0. -1.
         15    1    1    2    0    0  0.27340647829E+01  0.60274298872E+00  0.34543097382E+01  0.47883602742E+01  0.17770000000E+01 0.  1.
</event>
<event>
 6   1  0.3798113E-04  0.4898284E+03  0.7546771E-02  0.9422862E-01
        -11   -1    0    0    0    0  0.00000000000E+00  0.00000000000E+00  0.50000000000E+03  0.50000000000E+03  0.00000000000E+00 0. -1.
         11   -1    0    0    0    0 -0.00000000000E+00 -0.00000000000E+00 -0.50000000000E+03  0.50000000000E+03  0.00000000000E+00 0.  1.
        -11    1    1    2    0    0  0.91735585848E+01 -0.10959640711E+01  0.48624145837E+03  0.48632922096E+03  0.00000000000E+00 0. -1.
         11    1    1    2    0    0  0.61272163466E+01  0.42111097980E+01 -0.49342234018E+03  0.49347835009E+03  0.00000000000E+00 0.  1.
        -15    1    1    2    0    0 -0.63391371491E+00 -0.17487488118E+01 -0.15241718639E+01  0.29901166993E+01  0.17770000000E+01 0.  1.
         15    1    1    2    0    0 -0.14666861216E+02 -0.13663969151E+01  0.87050536651E+01  0.17202312251E+02  0.17770000000E+01 0. -1.
</event>
<event>
 6   1  0.3798113E-04  0.5003270E+03  0.7546771E-02  0.9399078E-01
        -11   -1    0    0    0    0  0.00000000000E+00  0.00000000000E+00  0.50000000000E+03  0.50000000000E+03  0.00000000000E+00 0.  1.
         11   -1    0    0    0    0 -0.00000000000E+00 -0.00000000000E+00 -0.50000000000E+03  0.50000000000E+03  0.00000000000E+00 0. -1.
        -11    1    1    2    0    0  0.88518948069E+01  0.82344713913E+01  0.49952675531E+03  0.49967303493E+03  0.00000000000E+00 0.  1.
         11    1    1    2    0    0 -0.10030848892E+02 -0.36264284302E+01 -0.44134706850E+03  0.44147593794E+03  0.00000000000E+00 0. -1.
        -15    1    1    2    0    0  0.33743918342E+01 -0.44404857521E+01 -0.44372505315E+02  0.44756914448E+02  0.17770000000E+01 0.  1.
         15    1    1    2    0    0 -0.21954377492E+01 -0.16755720893E+00 -0.13807181501E+02  0.14094112683E+02  0.17770000000E+01 0. -1.
</event>
<event>
 6   1  0.3798113E-04  0.5014253E+03  0.7546771E-02  0.9396626E-01
        -11   -1    0    0    0    0  0.00000000000E+00  0.00000000000E+00  0.50000000000E+03  0.50000000000E+03  0.00000000000E+00 0. -1.
         11   -1    0    0    0    0 -0.00000000000E+00 -0.00000000000E+00 -0.50000000000E+03  0.50000000000E+03  0.00000000000E+00 0. -1.
        -11    1    1    2    0    0  0.75846067530E+01  0.19168608433E+02  0.12869270415E+03  0.13033331850E+03  0.00000000000E+00 0. -1.
         11    1    1    2    0    0  0.13618993723E+02  0.35479388058E+01 -0.49837599151E+03  0.49857466219E+03  0.00000000000E+00 0. -1.
        -15    1    1    2    0    0 -0.13516341756E+02 -0.11206283037E+02  0.24372595435E+03  0.24436401295E+03  0.17770000000E+01 0. -1.
         15    1    1    2    0    0 -0.76872587200E+01 -0.11510264202E+02  0.12595733301E+03  0.12672800636E+03  0.17770000000E+01 0. -1.
</event>
<event>
 6   1  0.3798113E-04  0.5005956E+03  0.7546771E-02  0.9398478E-01
        -11   -1    0    0    0    0  0.00000000000E+00  0.00000000000E+00  0.50000000000E+03  0.50000000000E+03  0.00000000000E+00 0.  1.
         11   -1    0    0    0    0 -0.00000000000E+00 -0.00000000000E+00 -0.50000000000E+03  0.50000000000E+03  0.00000000000E+00 0. -1.
        -11    1    1    2    0    0 -0.53936299726E+01  0.59713833993E+01  0.49933953052E+03  0.49940436061E+03  0.00000000000E+00 0.  1.
         11    1    1    2    0    0 -0.50408263405E+00  0.85257658008E+01 -0.33840070719E+03  0.33850846579E+03  0.00000000000E+00 0. -1.
        -15    1    1    2    0    0 -0.25617295569E+01 -0.10982165517E+01 -0.25791604864E+02  0.26002560419E+02  0.17770000000E+01 0. -1.
         15    1    1    2    0    0  0.84594421635E+01 -0.13398932648E+02 -0.13514721846E+03  0.13608461318E+03  0.17770000000E+01 0.  1.
</event>
<event>
 6   1  0.3798113E-04  0.5095076E+03  0.7546771E-02  0.9378783E-01
        -11   -1    0    0    0    0  0.00000000000E+00  0.00000000000E+00  0.50000000000E+03  0.50000000000E+03  0.00000000000E+00 0.  1.
         11   -1    0    0    0    0 -0.00000000000E+00 -0.00000000000E+00 -0.50000000000E+03  0.50000000000E+03  0.00000000000E+00 0.  1.
        -11    1    1    2    0    0 -0.26634870373E+02 -0.47928763968E+02  0.48741789622E+03  0.49049239372E+03  0.00000000000E+00 0.  1.
         11    1    1    2    0    0 -0.37530075817E+02  0.20756289069E+01 -0.33111148820E+03  0.33323810173E+03  0.00000000000E+00 0.  1.
        -15    1    1    2    0    0  0.16180988415E+02  0.11079730494E+02 -0.22391702369E+02  0.29818297703E+02  0.17770000000E+01 0.  1.
         15    1    1    2    0    0  0.47983957775E+02  0.34773404567E+02 -0.13391470565E+03  0.14645120685E+03  0.17770000000E+01 0. -1.
</event>
<event>
 6   1  0.3798113E-04  0.5017028E+03  0.7546771E-02  0.9396008E-01
        -11   -1    0    0    0    0  0.00000000000E+00  0.00000000000E+00  0.50000000000E+03  0.50000000000E+03  0.00000000000E+00 0. -1.
         11   -1    0    0    0    0 -0.00000000000E+00 -0.00000000000E+00 -0.50000000000E+03  0.50000000000E+03  0.00000000000E+00 0. -1.
        -11    1    1    2    0    0 -0.75304815291E+01 -0.22512794274E+02  0.49773137222E+03  0.49829715326E+03  0.00000000000E+00 0. -1.
         11    1    1    2    0    0 -0.11713691639E+02  0.11921152256E+01 -0.22453648540E+03  0.22484497990E+03  0.00000000000E+00 0. -1.
        -15    1    1    2    0    0  0.12854204036E+02  0.55084565990E+01 -0.30977908469E+02  0.34034720472E+02  0.17770000000E+01 0.  1.
         15    1    1    2    0    0  0.63899691329E+01  0.15812222449E+02 -0.24221697835E+03  0.24282314637E+03  0.17770000000E+01 0. -1.
</event>
<event>
 6   1  0.3798113E-04  0.5009165E+03  0.7546771E-02  0.9397761E-01
        -11   -1    0    0    0    0  0.00000000000E+00  0.00000000000E+00  0.50000000000E+03  0.50000000000E+03  0.00000000000E+00 0. -1.
         11   -1    0    0    0    0 -0.00000000000E+00 -0.00000000000E+00 -0.50000000000E+03  0.50000000000E+03  0.00000000000E+00 0.  1.
        -11    1    1    2    0    0 -0.55136413417E+02 -0.11416947052E+02  0.49589712648E+03  0.49908349082E+03  0.00000000000E+00 0. -1.
         11    1    1    2    0    0 -0.17885237980E+01  0.59511946978E+01 -0.25228178207E+02  0.25982234534E+02  0.00000000000E+00 0.  1.
        -15    1    1    2    0    0  0.17640784905E+02  0.14777552535E+02 -0.17618799988E+03  0.17769339431E+03  0.17770000000E+01 0. -1.
         15    1    1    2    0    0  0.39284152310E+02 -0.93118001810E+01 -0.29448094839E+03  0.29724088033E+03  0.17770000000E+01 0.  1.
</event>
<event>
 6   1  0.3798113E-04  0.5010471E+03  0.7546771E-02  0.9397470E-01
        -11   -1    0    0    0    0  0.00000000000E+00  0.00000000000E+00  0.50000000000E+03  0.50000000000E+03  0.00000000000E+00 0. -1.
         11   -1    0    0    0    0 -0.00000000000E+00 -0.00000000000E+00 -0.50000000000E+03  0.50000000000E+03  0.00000000000E+00 0.  1.
        -11    1    1    2    0    0 -0.77272194395E+01  0.24094439477E+02  0.49831085327E+03  0.49895286192E+03  0.00000000000E+00 0. -1.
         11    1    1    2    0    0 -0.17231950427E+01 -0.85985827809E+01 -0.41813000126E+03  0.41822195421E+03  0.00000000000E+00 0.  1.
        -15    1    1    2    0    0  0.83517011922E+01 -0.89884781885E+01 -0.35011812996E+02  0.37142003597E+02  0.17770000000E+01 0. -1.
         15    1    1    2    0    0  0.10987132900E+01 -0.65073785073E+01 -0.45169039008E+02  0.45683180273E+02  0.17770000000E+01 0.  1.
</event>
<event>
 6   1  0.3798113E-04  0.5018580E+03  0.7546771E-02  0.9395662E-01
        -11   -1    0    0    0    0  0.00000000000E+00  0.00000000000E+00  0.50000000000E+03  0.50000000000E+03  0.00000000000E+00 0. -1.
         11   -1    0    0    0    0 -0.00000000000E+00 -0.00000000000E+00 -0.50000000000E+03  0.50000000000E+03  0.00000000000E+00 0.  1.
        -11    1    1    2    0    0 -0.19246078912E+03 -0.93951566780E+02  0.38741785302E+03  0.44267442335E+03  0.00000000000E+00 0. -1.
         11    1    1    2    0    0  0.21246199258E+03  0.10588510218E+03 -0.43794262526E+03  0.49814204417E+03  0.00000000000E+00 0.  1.
        -15    1    1    2    0    0 -0.17740200451E+02 -0.36103596831E+00  0.22372683394E+02  0.28610133699E+02  0.17770000000E+01 0.  1.
         15    1    1    2    0    0 -0.22610030084E+01 -0.11572499436E+02  0.28152088839E+02  0.30573398777E+02  0.17770000000E+01 0. -1.
</event>
<event>
 6   1  0.3798113E-04  0.5001682E+03  0.7546771E-02  0.9399433E-01
        -11   -1    0    0    0    0  0.00000000000E+00  0.00000000000E+00  0.50000000000E+03  0.50000000000E+03  0.00000000000E+00 0. -1.
         11   -1    0    0    0    0 -0.00000000000E+00 -0.00000000000E+00 -0.50000000000E+03  0.50000000000E+03  0.00000000000E+00 0.  1.
        -11    1    1    2    0    0 -0.32920828492E+01  0.21681684746E+02  0.49935048384E+03  0.49983181068E+03  0.00000000000E+00 0. -1.
         11    1    1    2    0    0  0.87644880781E+01 -0.10050034499E+02 -0.21432831685E+03  0.21474274574E+03  0.00000000000E+00 0.  1.
        -15    1    1    2    0    0 -0.55274341636E+01 -0.33998689131E+01 -0.11980658424E+03  0.11999536238E+03  0.17770000000E+01 0. -1.
         15    1    1    2    0    0  0.55028934692E-01 -0.82317813340E+01 -0.16521558275E+03  0.16543008120E+03  0.17770000000E+01 0.  1.
</event>
<event>
 6   1  0.3798113E-04  0.5002135E+03  0.7546771E-02  0.9399332E-01
        -11   -1    0    0    0    0  0.00000000000E+00  0.00000000000E+00  0.50000000000E+03  0.50000000000E+03  0.00000000000E+00 0. -1.
         11   -1    0    0    0    0 -0.00000000000E+00 -0.00000000000E+00 -0.50000000000E+03  0.50000000000E+03  0.00000000000E+00 0. -1.
        -11    1    1    2    0    0  0.36753357998E+01 -0.69022971517E+01  0.49972527865E+03  0.49978645832E+03  0.00000000000E+00 0. -1.
         11    1    1    2    0    0  0.37968259588E+01 -0.91271279697E+00 -0.27523782863E+03  0.27526552861E+03  0.00000000000E+00 0. -1.
        -15    1    1    2    0    0  0.17038375124E+01  0.74557285330E+00 -0.31347184274E+02  0.31452545716E+02  0.17770000000E+01 0.  1.
         15    1    1    2    0    0 -0.91759992709E+01  0.70694370954E+01 -0.19314026575E+03  0.19349546735E+03  0.17770000000E+01 0. -1.
</event>
<event>
 6   1  0.3798113E-04  0.4839048E+03  0.7546771E-02  0.9436562E-01
        -11   -1    0    0    0    0  0.00000000000E+00  0.00000000000E+00  0.50000000000E+03  0.50000000000E+03  0.00000000000E+00 0.  1.
         11   -1    0    0    0    0 -0.00000000000E+00 -0.00000000000E+00 -0.50000000000E+03  0.50000000000E+03  0.00000000000E+00 0.  1.
        -11    1    1    2    0    0  0.12897135217E+02 -0.14203458327E+02  0.48689768832E+03  0.48727552085E+03  0.00000000000E+00 0.  1.
         11    1    1    2    0    0 -0.82519150284E+01 -0.10031873152E+02 -0.48069295581E+03  0.48086843351E+03  0.00000000000E+00 0.  1.
        -15    1    1    2    0    0  0.15565233151E+01  0.57029890389E+01 -0.10112439634E+02  0.11847616349E+02  0.17770000000E+01 0.  1.
         15    1    1    2    0    0 -0.62017435036E+01  0.18532342440E+02  0.39077071265E+01  0.20008429293E+02  0.17770000000E+01 0. -1.
</event>
<event>
 6   1  0.3798113E-04  0.5015421E+03  0.7546771E-02  0.9396366E-01
        -11   -1    0    0    0    0  0.00000000000E+00  0.00000000000E+00  0.50000000000E+03  0.50000000000E+03  0.00000000000E+00 0. -1.
         11   -1    0    0    0    0 -0.00000000000E+00 -0.00000000000E+00 -0.50000000000E+03  0.50000000000E+03  0.00000000000E+00 0. -1.
        -11    1    1    2    0    0 -0.31990893183E+01 -0.10588167427E+02  0.49833511814E+03  0.49845785523E+03  0.00000000000E+00 0. -1.
         11    1    1    2    0    0 -0.17731685687E+01  0.69572911308E+01 -0.46934289699E+03  0.46939780888E+03  0.00000000000E+00 0. -1.
        -15    1    1    2    0    0  0.41835898559E+01  0.75715669955E+01 -0.14281635356E+02  0.16791482611E+02  0.17770000000E+01 0. -1.
         15    1    1    2    0    0  0.78866803114E+00 -0.39406906989E+01 -0.14710585800E+02  0.15352853286E+02  0.17770000000E+01 0. -1.
</event>
<event>
 6   1  0.3798113E-04  0.5057421E+03  0.7546771E-02  0.9387052E-01
        -11   -1    0    0    0    0  0.00000000000E+00  0.00000000000E+00  0.50000000000E+03  0.50000000000E+03  0.00000000000E+00 0. -1.
         11   -1    0    0    0    0 -0.00000000000E+00 -0.00000000000E+00 -0.50000000000E+03  0.50000000000E+03  0.00000000000E+00 0.  1.
        -11    1    1    2    0    0  0.12667949376E+02 -0.10080713764E+02  0.47203770643E+03  0.47231524856E+03  0.00000000000E+00 0. -1.
         11    1    1    2    0    0  0.66110062498E+01 -0.12663039528E+01 -0.49421206606E+03  0.49425790350E+03  0.00000000000E+00 0.  1.
        -15    1    1    2    0    0 -0.19674549653E+02  0.10972317415E+02  0.22036076937E+02  0.31563049112E+02  0.17770000000E+01 0.  1.
         15    1    1    2    0    0  0.39559402745E+00  0.37470030221E+00  0.13828269234E+00  0.18637988234E+01  0.17770000000E+01 0.  1.
</event>
<event>
 6   1  0.3798113E-04  0.5003806E+03  0.7546771E-02  0.9398959E-01
        -11   -1    0    0    0    0  0.00000000000E+00  0.00000000000E+00  0.50000000000E+03  0.50000000000E+03  0.00000000000E+00 0.  1.
         11   -1    0    0    0    0 -0.00000000000E+00 -0.00000000000E+00 -0.50000000000E+03  0.50000000000E+03  0.00000000000E+00 0. -1.
        -11    1    1    2    0    0  0.58612543874E+01 -0.12007010310E+02  0.10789122440E+03  0.10871540324E+03  0.00000000000E+00 0.  1.
         11    1    1    2    0    0 -0.96371150534E+01  0.70001843366E+01 -0.49947742534E+03  0.49961943015E+03  0.00000000000E+00 0. -1.
        -15    1    1    2    0    0  0.10938256415E+01  0.22996629127E+00  0.11144544987E+03  0.11146522043E+03  0.17770000000E+01 0.  1.
         15    1    1    2    0    0  0.26820350245E+01  0.47768596824E+01  0.28014075106E+03  0.28019994617E+03  0.17770000000E+01 0.  1.
</event>
<event>
 6   1  0.3798113E-04  0.5005387E+03  0.7546771E-02  0.9398605E-01
        -11   -1    0    0    0    0  0.00000000000E+00  0.00000000000E+00  0.50000000000E+03  0.50000000000E+03  0.00000000000E+00 0. -1.
         11   -1    0    0    0    0 -0.00000000000E+00 -0.00000000000E+00 -0.50000000000E+03  0.50000000000E+03  0.00000000000E+00 0.  1.
        -11    1    1    2    0    0 -0.10334315315E+02 -0.15300178583E+02  0.49911991689E+03  0.49946129477E+03  0.00000000000E+00 0. -1.
         11    1    1    2    0    0  0.69219329193E+01  0.11280637343E+01 -0.34434798231E+03  0.34441939348E+03  0.00000000000E+00 0.  1.
        -15    1    1    2    0    0  0.66768924513E+01  0.10875353040E+02 -0.68294904509E+02  0.69499682787E+02  0.17770000000E+01 0.  1.
         15    1    1    2    0    0 -0.32645100556E+01  0.32967618090E+01 -0.86477030065E+02  0.86619628966E+02  0.17770000000E+01 0. -1.
</event>
<event>
 6   1  0.3798113E-04  0.5043218E+03  0.7546771E-02  0.9390191E-01
        -11   -1    0    0    0    0  0.00000000000E+00  0.00000000000E+00  0.50000000000E+03  0.50000000000E+03  0.00000000000E+00 0.  1.
         11   -1    0    0    0    0 -0.00000000000E+00 -0.00000000000E+00 -0.50000000000E+03  0.50000000000E+03  0.00000000000E+00 0. -1.
        -11    1    1    2    0    0  0.50387834206E+01  0.19593944457E+02  0.47442288132E+03  0.47485406423E+03  0.00000000000E+00 0.  1.
         11    1    1    2    0    0 -0.17174119539E+02 -0.46716140290E+01 -0.49535856217E+03  0.49567820153E+03  0.00000000000E+00 0. -1.
        -15    1    1    2    0    0  0.61929475145E+01 -0.12331935411E+02  0.12708835968E+02  0.18844136238E+02  0.17770000000E+01 0.  1.
         15    1    1    2    0    0  0.59423886041E+01 -0.25903950176E+01  0.82268448865E+01  0.10623598000E+02  0.17770000000E+01 0. -1.
</event>
<event>
 6   1  0.3798113E-04  0.5002366E+03  0.7546771E-02  0.9399280E-01
        -11   -1    0    0    0    0  0.00000000000E+00  0.00000000000E+00  0.50000000000E+03  0.50000000000E+03  0.00000000000E+00 0.  1.
         11   -1    0    0    0    0 -0.00000000000E+00 -0.00000000000E+00 -0.50000000000E+03  0.50000000000E+03  0.00000000000E+00 0. -1.
        -11    1    1    2    0    0  0.15399460621E+02 -0.84907642866E+01  0.49945392037E+03  0.49976339906E+03  0.00000000000E+00 0.  1.
         11    1    1    2    0    0 -0.23205572321E+01 -0.32519881691E+01 -0.19391143830E+03  0.19395258781E+03  0.00000000000E+00 0. -1.
        -15    1    1    2    0    0 -0.10491286660E+01  0.27804961413E+01 -0.14279187581E+03  0.14283385227E+03  0.17770000000E+01 0. -1.
         15    1    1    2    0    0 -0.12029774722E+02  0.89622563145E+01 -0.16275060626E+03  0.16345016086E+03  0.17770000000E+01 0.  1.
</event>
<event>
 6   1  0.3798113E-04  0.5026618E+03  0.7546771E-02  0.9393873E-01
        -11   -1    0    0    0    0  0.00000000000E+00  0.00000000000E+00  0.50000000000E+03  0.50000000000E+03  0.00000000000E+00 0. -1.
         11   -1    0    0    0    0 -0.00000000000E+00 -0.00000000000E+00 -0.50000000000E+03  0.50000000000E+03  0.00000000000E+00 0. -1.
        -11    1    1    2    0    0 -0.77547391527E+01  0.17720486998E+01  0.49727455696E+03  0.49733817583E+03  0.00000000000E+00 0. -1.
         11    1    1    2    0    0  0.16022371876E+01  0.10855326619E+02 -0.47707477457E+03  0.47720094909E+03  0.00000000000E+00 0. -1.
        -15    1    1    2    0    0  0.65581016120E+01 -0.78294754610E+01 -0.13554463381E+02  0.17064307466E+02  0.17770000000E+01 0. -1.
         15    1    1    2    0    0 -0.40559964693E+00 -0.47978998573E+01 -0.66453190099E+01  0.83965676236E+01  0.17770000000E+01 0.  1.
</event>
<event>
 6   1  0.3798113E-04  0.5010221E+03  0.7546771E-02  0.9397526E-01
        -11   -1    0    0    0    0  0.00000000000E+00  0.00000000000E+00  0.50000000000E+03  0.50000000000E+03  0.00000000000E+00 0.  1.
         11   -1    0    0    0    0 -0.00000000000E+00 -0.00000000000E+00 -0.50000000000E+03  0.50000000000E+03  0.00000000000E+00 0. -1.
        -11    1    1    2    0    0  0.60576555786E+01  0.28152387472E+02  0.49814622398E+03  0.49897786783E+03  0.00000000000E+00 0.  1.
         11    1    1    2    0    0 -0.23412736167E+01 -0.70816947099E+01 -0.34328305505E+03  0.34336407478E+03  0.00000000000E+00 0. -1.
        -15    1    1    2    0    0  0.47571174944E+01  0.26233554325E+00 -0.52094290997E+02  0.52341874921E+02  0.17770000000E+01 0. -1.
         15    1    1    2    0    0 -0.84734994563E+01 -0.21333028306E+02 -0.10276887794E+03  0.10531618247E+03  0.17770000000E+01 0.  1.
</event>
<event>
 6   1  0.3798113E-04  0.5009682E+03  0.7546771E-02  0.9397646E-01
        -11   -1    0    0    0    0  0.00000000000E+00  0.00000000000E+00  0.50000000000E+03  0.50000000000E+03  0.00000000000E+00 0.  1.
         11   -1    0    0    0    0 -0.00000000000E+00 -0.00000000000E+00 -0.50000000000E+03  0.50000000000E+03  0.00000000000E+00 0.  1.
        -11    1    1    2    0    0  0.91053422240E+01 -0.78644466536E+01  0.49888669850E+03  0.49903175723E+03  0.00000000000E+00 0.  1.
         11    1    1    2    0    0  0.48948911731E-01 -0.31335716893E+01 -0.11604789742E+03  0.11609020700E+03  0.00000000000E+00 0.  1.
        -15    1    1    2    0    0  0.13061187085E+02  0.23498411834E+01 -0.20542771041E+03  0.20586359147E+03  0.17770000000E+01 0.  1.
         15    1    1    2    0    0 -0.22215478221E+02  0.86481771594E+01 -0.17741109068E+03  0.17901444430E+03  0.17770000000E+01 0. -1.
</event>
<event>
 6   1  0.3798113E-04  0.5013018E+03  0.7546771E-02  0.9396902E-01
        -11   -1    0    0    0    0  0.00000000000E+00  0.00000000000E+00  0.50000000000E+03  0.50000000000E+03  0.00000000000E+00 0. -1.
         11   -1    0    0    0    0 -0.00000000000E+00 -0.00000000000E+00 -0.50000000000E+03  0.50000000000E+03  0.00000000000E+00 0. -1.
        -11    1    1    2    0    0 -0.13390664143E+02 -0.16334588591E+02  0.49825073927E+03  0.49869823326E+03  0.00000000000E+00 0. -1.
         11    1    1    2    0    0  0.76392370679E+01  0.25206327884E+01 -0.40426346801E+03  0.40434349642E+03  0.00000000000E+00 0. -1.
        -15    1    1    2    0    0 -0.48385529653E+01  0.52517003670E+01 -0.57552155473E+02  0.58020688381E+02  0.17770000000E+01 0. -1.
         15    1    1    2    0    0  0.10589980041E+02  0.85622554351E+01 -0.36435115793E+02  0.38937581939E+02  0.17770000000E+01 0.  1.
</event>
<event>
 6   1  0.3798113E-04  0.4832047E+03  0.7546771E-02  0.9438195E-01
        -11   -1    0    0    0    0  0.00000000000E+00  0.00000000000E+00  0.50000000000E+03  0.50000000000E+03  0.00000000000E+00 0.  1.
         11   -1    0    0    0    0 -0.00000000000E+00 -0.00000000000E+00 -0.50000000000E+03  0.50000000000E+03  0.00000000000E+00 0. -1.
        -11    1    1    2    0    0 -0.19959336374E+02 -0.24127807907E+02 -0.20299894947E+02  0.37317716406E+02  0.00000000000E+00 0.  1.
         11    1    1    2    0    0  0.25998794863E+01  0.29100027315E+02 -0.46839030325E+03  0.46930059358E+03  0.00000000000E+00 0. -1.
        -15    1    1    2    0    0 -0.10019257915E+01 -0.30012290600E+02  0.13421913705E+03  0.13754881287E+03  0.17770000000E+01 0. -1.
         15    1    1    2    0    0  0.18361382679E+02  0.25040071192E+02  0.35447106114E+03  0.35583287714E+03  0.17770000000E+01 0.  1.
</event>
<event>
 6   1  0.3798113E-04  0.5030294E+03  0.7546771E-02  0.9393057E-01
        -11   -1    0    0    0    0  0.00000000000E+00  0.00000000000E+00  0.50000000000E+03  0.50000000000E+03  0.00000000000E+00 0. -1.
         11   -1    0    0    0    0 -0.00000000000E+00 -0.00000000000E+00 -0.50000000000E+03  0.50000000000E+03  0.00000000000E+00 0.  1.
        -11    1    1    2    0    0  0.30589953947E+02 -0.16659986589E+02  0.49574843577E+03  0.49697063495E+03  0.00000000000E+00 0. -1.
         11    1    1    2    0    0 -0.32981246166E+01  0.17668841780E+02 -0.40763491044E+03  0.40803098633E+03  0.00000000000E+00 0.  1.
        -15    1    1    2    0    0  0.11091545462E+01 -0.60502166815E+01 -0.20237062608E+02  0.21225733855E+02  0.17770000000E+01 0. -1.
         15    1    1    2    0    0 -0.28400983877E+02  0.50413614902E+01 -0.67876462718E+02  0.73772644869E+02  0.17770000000E+01 0.  1.
</event>
<event>
 6   1  0.3798113E-04  0.5024066E+03  0.7546771E-02  0.9394441E-01
        -11   -1    0    0    0    0  0.00000000000E+00  0.00000000000E+00  0.50000000000E+03  0.50000000000E+03  0.00000000000E+00 0.  1.
         11   -1    0    0    0    0 -0.00000000000E+00 -0.00000000000E+00 -0.50000000000E+03  0.50000000000E+03  0.00000000000E+00 0. -1.
        -11    1    1    2    0    0 -0.11151562243E+02  0.10356193052E+02  0.49736066093E+03  0.49759344361E+03  0.00000000000E+00 0.  1.
         11    1    1    2    0    0  0.20978813282E+01  0.59409590011E+01 -0.40108355684E+03  0.40113303986E+03  0.00000000000E+00 0. -1.
        -15    1    1    2    0    0 -0.55427978182E+01 -0.41028188141E+01 -0.58592831536E+02  0.59024006695E+02  0.17770000000E+01 0. -1.
         15    1    1    2    0    0  0.14596478733E+02 -0.12194333239E+02 -0.37684272554E+02  0.42249509837E+02  0.17770000000E+01 0.  1.
</event>
<event>
 6   1  0.3798113E-04  0.5019369E+03  0.7546771E-02  0.9395486E-01
        -11   -1    0    0    0    0  0.00000000000E+00  0.00000000000E+00  0.50000000000E+03  0.50000000000E+03  0.00000000000E+00 0.  1.
         11   -1    0    0    0    0 -0.00000000000E+00 -0.00000000000E+00 -0.50000000000E+03  0.50000000000E+03  0.00000000000E+00 0.  1.
        -11    1    1    2    0    0  0.24150504683E+02  0.78441839328E+01  0.36550630040E+03  0.36638727288E+03  0.00000000000E+00 0.  1.
         11    1    1    2    0    0  0.29521672058E+01 -0.11832349910E+02 -0.49791382102E+03  0.49806314154E+03  0.00000000000E+00 0.  1.
        -15    1    1    2    0    0 -0.19108124640E+02  0.14522386215E+00  0.10333956431E+03  0.10510644508E+03  0.17770000000E+01 0.  1.
         15    1    1    2    0    0 -0.79945472492E+01  0.38429421148E+01  0.29067956310E+02  0.30443140489E+02  0.17770000000E+01 0. -1.
</event>
<event>
 6   1  0.3798113E-04  0.4939326E+03  0.7546771E-02  0.9413489E-01
        -11   -1    0    0    0    0  0.00000000000E+00  0.00000000000E+00  0.50000000000E+03  0.50000000000E+03  0.00000000000E+00 0.  1.
         11   -1    0    0    0    0 -0.00000000000E+00 -0.00000000000E+00 -0.50000000000E+03  0.50000000000E+03  0.00000000000E+00 0. -1.
        -11    1    1    2    0    0 -0.55049308230E+01  0.55083996862E+01  0.49370175275E+03  0.49376316935E+03  0.00000000000E+00 0.  1.
         11    1    1    2    0    0 -0.24861780594E+01 -0.91655078585E+01 -0.49404998883E+03  0.49414125417E+03  0.00000000000E+00 0. -1.
        -15    1    1    2    0    0  0.57955718775E+01  0.15132666155E+01  0.36621715726E+01  0.72420893991E+01  0.17770000000E+01 0. -1.
         15    1    1    2    0    0  0.21955370048E+01  0.21438415568E+01 -0.33139354990E+01  0.48534870817E+01  0.17770000000E+01 0.  1.
</event>
<event>
 6   1  0.3798113E-04  0.5002383E+03  0.7546771E-02  0.9399277E-01
        -11   -1    0    0    0    0  0.00000000000E+00  0.00000000000E+00  0.50000000000E+03  0.50000000000E+03  0.00000000000E+00 0. -1.
         11   -1    0    0    0    0 -0.00000000000E+00 -0.00000000000E+00 -0.50000000000E+03  0.50000000000E+03  0.00000000000E+00 0. -1.
        -11    1    1    2    0    0 -0.82311548608E+01 -0.19442199994E+01  0.49969015796E+03  0.49976172909E+03  0.00000000000E+00 0. -1.
         11    1    1    2    0    0  0.79066528003E+01  0.26806863035E+00 -0.33651529105E+03  0.33660827103E+03  0.00000000000E+00 0. -1.
        -15    1    1    2    0    0  0.45345453172E+01  0.31822946153E+01 -0.47476782056E+02  0.47831910516E+02  0.17770000000E+01 0.  1.
         15    1    1    2    0    0 -0.42100432566E+01 -0.15061432462E+01 -0.11569808486E+03  0.11579808936E+03  0.17770000000E+01 0. -1.
</event>
<event>
 6   1  0.3798113E-04  0.5001721E+03  0.7546771E-02  0.9399425E-01
        -11   -1    0    0    0    0  0.00000000000E+00  0.00000000000E+00  0.50000000000E+03  0.50000000000E+03  0.00000000000E+00 0.  1.
         11   -1    0    0    0    0 -0.00000000000E+00 -0.00000000000E+00 -0.50000000000E+03  0.50000000000E+03  0.00000000000E+00 0.  1.
        -11    1    1    2    0    0 -0.40694507133E+01  0.77087396408E+00  0.28636467742E+02  0.28934442461E+02  0.00000000000E+00 0.  1.
         11    1    1    2    0    0  0.38727459687E+01  0.81062507825E+01 -0.49974711306E+03  0.49982785684E+03  0.00000000000E+00 0.  1.
        -15    1    1    2    0    0  0.12070082921E+01 -0.68588924287E+01  0.40612841166E+03  0.40619200603E+03  0.17770000000E+01 0.  1.
         15    1    1    2    0    0 -0.10103035474E+01 -0.20182323179E+01  0.64982233656E+02  0.65045694668E+02  0.17770000000E+01 0.  1.
</event>
<event>
 6   1  0.3798113E-04  0.5057128E+03  0.7546771E-02  0.9387117E-01
        -11   -1    0    0    0    0  0.00000000000E+00  0.00000000000E+00  0.50000000000E+03  0.50000000000E+03  0.00000000000E+00 0. -1.
         11   -1    0    0    0    0 -0.00000000000E+00 -0.00000000000E+00 -0.50000000000E+03  0.50000000000E+03  0.00000000000E+00 0. -1.
        -11    1    1    2    0    0 -0.17542476217E+02  0.17035421505E+02  0.28189453141E+02  0.37317413174E+02  0.00000000000E+00 0. -1.
         11    1    1    2    0    0  0.73995265724E+01 -0.75869753764E+00 -0.49423118720E+03  0.49428715846E+03  0.00000000000E+00 0. -1.
        -15    1    1    2    0    0 -0.41286252408E+01 -0.22235082419E+02  0.39579093325E+03  0.39644049365E+03  0.17770000000E+01 0. -1.
         15    1    1    2    0    0  0.14271574885E+02  0.59583584520E+01  0.70250800814E+02  0.71954934711E+02  0.17770000000E+01 0.  1.
</event>
<event>
 6   1  0.3798113E-04  0.5018988E+03  0.7546771E-02  0.9395571E-01
        -11   -1    0    0    0    0  0.00000000000E+00  0.00000000000E+00  0.50000000000E+03  0.50000000000E+03  0.00000000000E+00 0. -1.
         11   -1    0    0    0    0 -0.00000000000E+00 -0.00000000000E+00 -0.50000000000E+03  0.50000000000E+03  0.00000000000E+00 0.  1.
        -11    1    1    2    0    0  0.10189400106E+02  0.10641296917E+02  0.35514084983E+03  0.35544631703E+03  0.00000000000E+00 0. -1.
         11    1    1    2    0    0  0.46412976168E+01  0.10501563633E+02 -0.49796884197E+03  0.49810118656E+03  0.00000000000E+00 0.  1.
        -15    1    1    2    0    0 -0.17527314299E+02 -0.12534456427E+02  0.11826455235E+03  0.12022471217E+03  0.17770000000E+01 0.  1.
         15    1    1    2    0    0  0.26966165762E+01 -0.86084041233E+01  0.24563439792E+02  0.26227784236E+02  0.17770000000E+01 0. -1.
</event>
<event>
 6   1  0.3798113E-04  0.5020959E+03  0.7546771E-02  0.9395132E-01
        -11   -1    0    0    0    0  0.00000000000E+00  0.00000000000E+00  0.50000000000E+03  0.50000000000E+03  0.00000000000E+00 0.  1.
         11   -1    0    0    0    0 -0.00000000000E+00 -0.00000000000E+00 -0.50000000000E+03  0.50000000000E+03  0.00000000000E+00 0.  1.
        -11    1    1    2    0    0 -0.63271399603E+01  0.39099762419E+01  0.47387710444E+03  0.47393547106E+03  0.00000000000E+00 0.  1.
         11    1    1    2    0    0 -0.69902388960E+01 -0.78608224395E+00 -0.49785444005E+03  0.49790413218E+03  0.00000000000E+00 0.  1.
        -15    1    1    2    0    0  0.72414081674E+01 -0.30934109493E+01  0.10278432931E+02  0.13069471912E+02  0.17770000000E+01 0.  1.
         15    1    1    2    0    0  0.60759706889E+01 -0.30483048693E-01  0.13698902684E+02  0.15090924848E+02  0.17770000000E+01 0. -1.
</event>
<event>
 6   1  0.3798113E-04  0.5003114E+03  0.7546771E-02  0.9399113E-01
        -11   -1    0    0    0    0  0.00000000000E+00  0.00000000000E+00  0.50000000000E+03  0.50000000000E+03  0.00000000000E+00 0.  1.
         11   -1    0    0    0    0 -0.00000000000E+00 -0.00000000000E+00 -0.50000000000E+03  0.50000000000E+03  0.00000000000E+00 0.  1.
        -11    1    1    2    0    0 -0.17576146821E+02 -0.36572683633E+02  0.49803835877E+03  0.49968859195E+03  0.00000000000E+00 0.  1.
         11    1    1    2    0    0  0.96056433118E+01  0.18490360651E+02 -0.13078550964E+03  0.13243493252E+03  0.00000000000E+00 0.  1.
        -15    1    1    2    0    0  0.75231848325E+01  0.17741754371E+02 -0.31796378435E+03  0.31855218418E+03  0.17770000000E+01 0.  1.
         15    1    1    2    0    0  0.44731867716E+00  0.34056861007E+00 -0.49289064783E+02  0.49324291350E+02  0.17770000000E+01 0.  1.
</event>
<event>
 6   1  0.3798113E-04  0.5027934E+03  0.7546771E-02  0.9393581E-01
        -11   -1    0    0    0    0  0.00000000000E+00  0.00000000000E+00  0.50000000000E+03  0.50000000000E+03  0.00000000000E+00 0.  1.
         11   -1    0    0    0    0 -0.00000000000E+00 -0.00000000000E+00 -0.50000000000E+03  0.50000000000E+03  0.00000000000E+00 0.  1.
        -11    1    1    2    0    0 -0.16418555054E+02  0.69011806545E+01  0.39858523849E+03  0.39898294147E+03  0.00000000000E+00 0.  1.
         11    1    1    2    0    0 -0.83966084758E+01  0.76477776681E+01 -0.49707682376E+03  0.49720655693E+03  0.00000000000E+00 0.  1.
        -15    1    1    2    0    0  0.20120472521E+02 -0.13729524917E+02  0.93671774824E+02  0.96803369759E+02  0.17770000000E+01 0.  1.
         15    1    1    2    0    0  0.46946910097E+01 -0.81943340541E+00  0.48198104508E+01  0.70071318358E+01  0.17770000000E+01 0. -1.
</event>
<event>
 6   1  0.3798113E-04  0.5003669E+03  0.7546771E-02  0.9398989E-01
        -11   -1    0    0    0    0  0.00000000000E+00  0.00000000000E+00  0.50000000000E+03  0.50000000000E+03  0.00000000000E+00 0.  1.
         11   -1    0    0    0    0 -0.00000000000E+00 -0.00000000000E+00 -0.50000000000E+03  0.50000000000E+03  0.00000000000E+00 0. -1.
        -11    1    1    2    0    0  0.60319635092E+01  0.45687792945E+01  0.28464467557E+03  0.28474523641E+03  0.00000000000E+00 0.  1.
         11    1    1    2    0    0  0.14879624725E+01  0.76026166863E+01 -0.49957298939E+03  0.49963305089E+03  0.00000000000E+00 0. -1.
        -15    1    1    2    0    0 -0.20515751338E+01 -0.44753848152E+01  0.30691843660E+02  0.31134948627E+02  0.17770000000E+01 0. -1.
         15    1    1    2    0    0 -0.54683508479E+01 -0.76960111657E+01  0.18423647016E+03  0.18448676407E+03  0.17770000000E+01 0.  1.
</event>
<event>
 6   1  0.3798113E-04  0.5061318E+03  0.7546771E-02  0.9386193E-01
        -11   -1    0    0    0    0  0.00000000000E+00  0.00000000000E+00  0.50000000000E+03  0.50000000000E+03  0.00000000000E+00 0.  1.
         11   -1    0    0    0    0 -0.00000000000E+00 -0.00000000000E+00 -0.50000000000E+03  0.50000000000E+03  0.00000000000E+00 0. -1.
        -11    1    1    2    0    0  0.53307496121E+01  0.24047133322E+02  0.49325362529E+03  0.49386822167E+03  0.00000000000E+00 0.  1.
         11    1    1    2    0    0 -0.89146072818E+01 -0.54971080910E+01 -0.48054405152E+03  0.48065816738E+03  0.00000000000E+00 0. -1.
        -15    1    1    2    0    0  0.38357651402E+01 -0.67996609166E+01  0.88315488515E-01  0.80071225429E+01  0.17770000000E+01 0. -1.
         15    1    1    2    0    0 -0.25190747058E+00 -0.11750364314E+02 -0.12797889261E+02  0.17466488412E+02  0.17770000000E+01 0.  1.
</event>
<event>
 6   1  0.3798113E-04  0.5000812E+03  0.7546771E-02  0.9399628E-01
        -11   -1    0    0    0    0  0.00000000000E+00  0.00000000000E+00  0.50000000000E+03  0.50000000000E+03  0.00000000000E+00 0. -1.
         11   -1    0    0    0    0 -0.00000000000E+00 -0.00000000000E+00 -0.50000000000E+03  0.50000000000E+03  0.00000000000E+00 0.  1.
        -11    1    1    2    0    0  0.68226816269E+01 -0.13913827681E+02  0.49967851049E+03  0.49991875083E+03  0.00000000000E+00 0. -1.
         11    1    1    2    0    0 -0.30251237098E+01  0.66692835421E+01 -0.35916582944E+03  0.35924048179E+03  0.00000000000E+00 0.  1.
        -15    1    1    2    0    0 -0.13378398967E+01  0.43564644455E+01 -0.52167055957E+02  0.52395878219E+02  0.17770000000E+01 0. -1.
         15    1    1    2    0    0 -0.24597180204E+01  0.28880796931E+01 -0.88345625093E+02  0.88444889163E+02  0.17770000000E+01 0.  1.
</event>
<event>
 6   1  0.3798113E-04  0.5020240E+03  0.7546771E-02  0.9395292E-01
        -11   -1    0    0    0    0  0.00000000000E+00  0.00000000000E+00  0.50000000000E+03  0.50000000000E+03  0.00000000000E+00 0. -1.
         11   -1    0    0    0    0 -0.00000000000E+00 -0.00000000000E+00 -0.50000000000E+03  0.50000000000E+03  0.00000000000E+00 0.  1.
        -11    1    1    2    0    0 -0.23695292864E+02  0.18343383025E+01  0.49740854315E+03  0.49797599390E+03  0.00000000000E+00 0. -1.
         11    1    1    2    0    0  0.46134610849E+01 -0.49397757929E+01 -0.40236742565E+03  0.40242419240E+03  0.00000000000E+00 0.  1.
        -15    1    1    2    0    0 -0.52779324980E+00 -0.58813563298E+01 -0.39712485638E+02  0.40188408311E+02  0.17770000000E+01 0.  1.
         15    1    1    2    0    0  0.19609625029E+02  0.89867938202E+01 -0.55328631868E+02  0.59411405389E+02  0.17770000000E+01 0. -1.
</event>
<event>
 6   1  0.3798113E-04  0.5062245E+03  0.7546771E-02  0.9385989E-01
        -11   -1    0    0    0    0  0.00000000000E+00  0.00000000000E+00  0.50000000000E+03  0.50000000000E+03  0.00000000000E+00 0. -1.
         11   -1    0    0    0    0 -0.00000000000E+00 -0.00000000000E+00 -0.50000000000E+03  0.50000000000E+03  0.00000000000E+00 0. -1.
        -11    1    1    2    0    0  0.18995386482E+02  0.97712914487E+01  0.49331321056E+03  0.49377548193E+03  0.00000000000E+00 0. -1.
         11    1    1    2    0    0  0.49658492926E+01 -0.63784084642E+01 -0.47229950352E+03  0.47236867464E+03  0.00000000000E+00 0. -1.
        -15    1    1    2    0    0 -0.57968230871E+01  0.73877646771E+00 -0.56005834667E+00  0.61335424450E+01  0.17770000000E+01 0.  1.
         15    1    1    2    0    0 -0.18164412688E+02 -0.41316594522E+01 -0.20453648694E+02  0.27722300987E+02  0.17770000000E+01 0. -1.
</event>
<event>
 6   1  0.3798113E-04  0.5184218E+03  0.7546771E-02  0.9359508E-01
        -11   -1    0    0    0    0  0.00000000000E+00  0.00000000000E+00  0.50000000000E+03  0.50000000000E+03  0.00000000000E+00 0.  1.
         11   -1    0    0    0    0 -0.00000000000E+00 -0.00000000000E+00 -0.50000000000E+03  0.50000000000E+03  0.00000000000E+00 0.  1.
        -11    1    1    2    0    0  0.51087675468E+02 -0.30339078044E+02  0.47789873419E+03  0.48157824949E+03  0.00000000000E+00 0.  1.
         11    1    1    2    0    0  0.71449707032E+01 -0.98929396177E+01 -0.42108550027E+03  0.42126229288E+03  0.00000000000E+00 0.  1.
        -15    1    1    2    0    0 -0.59666772959E+02  0.39128357863E+02 -0.59889691233E+02  0.93172340474E+02  0.17770000000E+01 0.  1.
         15    1    1    2    0    0  0.14341267875E+01  0.11036597981E+01  0.30764573152E+01  0.39871171546E+01  0.17770000000E+01 0. -1.
</event>
<event>
 6   1  0.3798113E-04  0.5042394E+03  0.7546771E-02  0.9390373E-01
        -11   -1    0    0    0    0  0.00000000000E+00  0.00000000000E+00  0.50000000000E+03  0.50000000000E+03  0.00000000000E+00 0. -1.
         11   -1    0    0    0    0 -0.00000000000E+00 -0.00000000000E+00 -0.50000000000E+03  0.50000000000E+03  0.00000000000E+00 0.  1.
        -11    1    1    2    0    0 -0.11612167348E+02 -0.60682341213E+02  0.16802910518E+03  0.17902784463E+03  0.00000000000E+00 0. -1.
         11    1    1    2    0    0  0.35694922228E+01  0.52479858162E+02 -0.49296218400E+03  0.49576061930E+03  0.00000000000E+00 0.  1.
        -15    1    1    2    0    0  0.18714578096E+01  0.23348420091E+01  0.41722071622E+02  0.41866965868E+02  0.17770000000E+01 0. -1.
         15    1    1    2    0    0  0.61712173158E+01  0.58676410415E+01  0.28321100720E+03  0.28334457020E+03  0.17770000000E+01 0. -1.
</event>
<event>
 6   1  0.3798113E-04  0.5006210E+03  0.7546771E-02  0.9398421E-01
        -11   -1    0    0    0    0  0.00000000000E+00  0.00000000000E+00  0.50000000000E+03  0.50000000000E+03  0.00000000000E+00 0. -1.
         11   -1    0    0    0    0 -0.00000000000E+00 -0.00000000000E+00 -0.50000000000E+03  0.50000000000E+03  0.00000000000E+00 0.  1.
        -11    1    1    2    0    0  0.88180411766E+01 -0.18929022671E+02  0.36244014441E+03  0.36304121533E+03  0.00000000000E+00 0. -1.
         11    1    1    2    0    0  0.46307514202E+01  0.20027423491E+02 -0.49895573205E+03  0.49937897843E+03  0.00000000000E+00 0.  1.
        -15    1    1    2    0    0 -0.73584318687E+01 -0.64822117773E+00  0.11183776770E+03  0.11209554283E+03  0.17770000000E+01 0. -1.
         15    1    1    2    0    0 -0.60903607281E+01 -0.45017964165E+00  0.24677819937E+02  0.25484263406E+02  0.17770000000E+01 0.  1.
</event>
<event>
 6   1  0.3798113E-04  0.5000346E+03  0.7546771E-02  0.9399732E-01
        -11   -1    0    0    0    0  0.00000000000E+00  0.00000000000E+00  0.50000000000E+03  0.50000000000E+03  0.00000000000E+00 0.  1.
         11   -1    0    0    0    0 -0.00000000000E+00 -0.00000000000E+00 -0.50000000000E+03  0.50000000000E+03  0.00000000000E+00 0.  1.
        -11    1    1    2    0    0 -0.95866384687E+01 -0.72394244330E+01  0.49982101547E+03  0.49996535921E+03  0.00000000000E+00 0.  1.
         11    1    1    2    0    0 -0.18771051953E+00 -0.97794161707E+00 -0.42231676893E+02  0.42243415324E+02  0.00000000000E+00 0.  1.
        -15    1    1    2    0    0  0.36105125815E+01  0.33971968894E+01 -0.13629398720E+03  0.13639569430E+03  0.17770000000E+01 0. -1.
         15    1    1    2    0    0  0.61638364068E+01  0.48201691607E+01 -0.32129535138E+03  0.32139553117E+03  0.17770000000E+01 0.  1.
</event>
<event>
 6   1  0.3798113E-04  0.5037516E+03  0.7546771E-02  0.9391454E-01
        -11   -1    0    0    0    0  0.00000000000E+00  0.00000000000E+00  0.50000000000E+03  0.50000000000E+03  0.00000000000E+00 0.  1.
         11   -1    0    0    0    0 -0.00000000000E+00 -0.00000000000E+00 -0.50000000000E+03  0.50000000000E+03  0.00000000000E+00 0.  1.
        -11    1    1    2    0    0 -0.96676936124E+01 -0.66293820215E+01  0.49610996265E+03  0.49624843380E+03  0.00000000000E+00 0.  1.
         11    1    1    2    0    0  0.48006406024E+01 -0.95973276945E+01 -0.47577817415E+03  0.47589917614E+03  0.00000000000E+00 0.  1.
        -15    1    1    2    0    0  0.15402130891E+01  0.57496425691E+01 -0.22304257083E+01  0.66002404405E+01  0.17770000000E+01 0. -1.
         15    1    1    2    0    0  0.33268399209E+01  0.10477067147E+02 -0.18101362788E+02  0.21252149624E+02  0.17770000000E+01 0.  1.
</event>
<event>
 6   1  0.3798113E-04  0.5028945E+03  0.7546771E-02  0.9393356E-01
        -11   -1    0    0    0    0  0.00000000000E+00  0.00000000000E+00  0.50000000000E+03  0.50000000000E+03  0.00000000000E+00 0. -1.
         11   -1    0    0    0    0 -0.00000000000E+00 -0.00000000000E+00 -0.50000000000E+03  0.50000000000E+03  0.00000000000E+00 0. -1.
        -11    1    1    2    0    0  0.10896385352E+02  0.10204908481E+02  0.42479368832E+03  0.42505593633E+03  0.00000000000E+00 0. -1.
         11    1    1    2    0    0  0.61733874691E+01  0.33617929531E+01 -0.49705582136E+03  0.49710552392E+03  0.00000000000E+00 0. -1.
        -15    1    1    2    0    0 -0.17197650153E+02 -0.69292888704E+01  0.65870569288E+02  0.68453369839E+02  0.17770000000E+01 0.  1.
         15    1    1    2    0    0  0.12787733107E+00 -0.66374125635E+01  0.63915637508E+01  0.93851699148E+01  0.17770000000E+01 0. -1.
</event>
<event>
 6   1  0.3798113E-04  0.4883136E+03  0.7546771E-02  0.9426345E-01
        -11   -1    0    0    0    0  0.00000000000E+00  0.00000000000E+00  0.50000000000E+03  0.50000000000E+03  0.00000000000E+00 0.  1.
         11   -1    0    0    0    0 -0.00000000000E+00 -0.00000000000E+00 -0.50000000000E+03  0.50000000000E+03  0.00000000000E+00 0. -1.
        -11    1    1    2    0    0 -0.39590282152E+01  0.19640419617E+02  0.11656738494E+02  0.23179722592E+02  0.00000000000E+00 0.  1.
         11    1    1    2    0    0 -0.31418296457E+02 -0.81647729511E+01 -0.49294578603E+03  0.49401348244E+03  0.00000000000E+00 0. -1.
        -15    1    1    2    0    0  0.19154614359E+02 -0.82723014897E+01  0.22220165656E+03  0.22318616474E+03  0.17770000000E+01 0.  1.
         15    1    1    2    0    0  0.16222710314E+02 -0.32033451756E+01  0.25908739098E+03  0.25962063023E+03  0.17770000000E+01 0.  1.
</event>
<event>
 6   1  0.3798113E-04  0.4713098E+03  0.7546771E-02  0.9466398E-01
        -11   -1    0    0    0    0  0.00000000000E+00  0.00000000000E+00  0.50000000000E+03  0.50000000000E+03  0.00000000000E+00 0. -1.
         11   -1    0    0    0    0 -0.00000000000E+00 -0.00000000000E+00 -0.50000000000E+03  0.50000000000E+03  0.00000000000E+00 0. -1.
        -11    1    1    2    0    0 -0.23432495321E+02 -0.10524322143E+02  0.47788978357E+03  0.47857965736E+03  0.00000000000E+00 0. -1.
         11    1    1    2    0    0 -0.14892032501E+02 -0.20573545085E+02 -0.46472942082E+03  0.46542290228E+03  0.00000000000E+00 0. -1.
        -15    1    1    2    0    0  0.87705134441E+01  0.31313326120E+01 -0.11947244078E+02  0.15251934961E+02  0.17770000000E+01 0.  1.
         15    1    1    2    0    0  0.29554014378E+02  0.27966534616E+02 -0.12131186693E+01  0.40745505399E+02  0.17770000000E+01 0. -1.
</event>
<event>
 6   1  0.3798113E-04  0.5001201E+03  0.7546771E-02  0.9399541E-01
        -11   -1    0    0    0    0  0.00000000000E+00  0.00000000000E+00  0.50000000000E+03  0.50000000000E+03  0.00000000000E+00 0. -1.
         11   -1    0    0    0    0 -0.00000000000E+00 -0.00000000000E+00 -0.50000000000E+03  0.50000000000E+03  0.00000000000E+00 0.  1.
        -11    1    1    2    0    0  0.43854654880E+01  0.23633351911E+01  0.96859124482E+02  0.96987152016E+02  0.00000000000E+00 0. -1.
         11    1    1    2    0    0 -0.11939263900E+02  0.44557288658E+01 -0.49971740360E+03  0.49987986857E+03  0.00000000000E+00 0.  1.
        -15    1    1    2    0    0  0.73323099575E+01  0.10710438456E-01  0.16934086611E+03  0.16950884799E+03  0.17770000000E+01 0.  1.
         15    1    1    2    0    0  0.22148845434E+00 -0.68297744954E+01  0.23351741300E+03  0.23362413142E+03  0.17770000000E+01 0. -1.
</event>
<event>
 6   1  0.3798113E-04  0.4884168E+03  0.7546771E-02  0.9426108E-01
        -11   -1    0    0    0    0  0.00000000000E+00  0.00000000000E+00  0.50000000000E+03  0.50000000000E+03  0.00000000000E+00 0. -1.
         11   -1    0    0    0    0 -0.00000000000E+00 -0.00000000000E+00 -0.50000000000E+03  0.50000000000E+03  0.00000000000E+00 0.  1.
        -11    1    1    2    0    0 -0.70212983352E+01  0.12341111640E+02  0.49158656478E+03  0.49179157408E+03  0.00000000000E+00 0. -1.
         11    1    1    2    0    0 -0.91653436704E+01 -0.40716251528E+00 -0.48518318831E+03  0.48526992027E+03  0.00000000000E+00 0.  1.
        -15    1    1    2    0    0  0.87054699333E+01 -0.73285392179E+01 -0.77397978117E+01  0.13876414991E+02  0.17770000000E+01 0. -1.
         15    1    1    2    0    0  0.74811720723E+01 -0.46054099065E+01  0.13364213406E+01  0.90620906518E+01  0.17770000000E+01 0.  1.
</event>
<event>
 6   1  0.3798113E-04  0.5009323E+03  0.7546771E-02  0.9397726E-01
        -11   -1    0    0    0    0  0.00000000000E+00  0.00000000000E+00  0.50000000000E+03  0.50000000000E+03  0.00000000000E+00 0. -1.
         11   -1    0    0    0    0 -0.00000000000E+00 -0.00000000000E+00 -0.50000000000E+03  0.50000000000E+03  0.00000000000E+00 0.  1.
        -11    1    1    2    0    0  0.68238922637E+01 -0.19698224989E+01  0.49901720432E+03  0.49906774682E+03  0.00000000000E+00 0. -1.
         11    1    1    2    0    0  0.98735799370E+01 -0.11308025470E+01 -0.41138208636E+03  0.41150211090E+03  0.00000000000E+00 0.  1.
        -15    1    1    2    0    0 -0.13465281151E+02  0.12437110638E+01 -0.64021412608E+02  0.65458075247E+02  0.17770000000E+01 0. -1.
         15    1    1    2    0    0 -0.32321910492E+01  0.18569139821E+01 -0.23613705352E+02  0.23972067035E+02  0.17770000000E+01 0.  1.
</event>
<event>
 6   1  0.3798113E-04  0.5003273E+03  0.7546771E-02  0.9399078E-01
        -11   -1    0    0    0    0  0.00000000000E+00  0.00000000000E+00  0.50000000000E+03  0.50000000000E+03  0.00000000000E+00 0. -1.
         11   -1    0    0    0    0 -0.00000000000E+00 -0.00000000000E+00 -0.50000000000E+03  0.50000000000E+03  0.00000000000E+00 0. -1.
        -11    1    1    2    0    0 -0.89067455779E+01 -0.94547131734E+00  0.49959243990E+03  0.49967272293E+03  0.00000000000E+00 0. -1.
         11    1    1    2    0    0  0.50252589224E+01  0.51197758441E+01 -0.42369019419E+03  0.42375092447E+03  0.00000000000E+00 0. -1.
        -15    1    1    2    0    0  0.16428817233E+01 -0.30860054736E+01 -0.12508617402E+02  0.13108994182E+02  0.17770000000E+01 0. -1.
         15    1    1    2    0    0  0.22386049322E+01 -0.10882990532E+01 -0.63393628303E+02  0.63467358424E+02  0.17770000000E+01 0.  1.
</event>
<event>
 6   1  0.3798113E-04  0.5013828E+03  0.7546771E-02  0.9396721E-01
        -11   -1    0    0    0    0  0.00000000000E+00  0.00000000000E+00  0.50000000000E+03  0.50000000000E+03  0.00000000000E+00 0.  1.
         11   -1    0    0    0    0 -0.00000000000E+00 -0.00000000000E+00 -0.50000000000E+03  0.50000000000E+03  0.00000000000E+00 0.  1.
        -11    1    1    2    0    0  0.15804243605E+02 -0.97536627366E+01  0.61177520450E+02  0.63934318336E+02  0.00000000000E+00 0.  1.
         11    1    1    2    0    0 -0.90896023232E+01  0.11579142637E+02 -0.49839981477E+03  0.49861716053E+03  0.00000000000E+00 0.  1.
        -15    1    1    2    0    0 -0.15339135065E+01 -0.33126269303E+01  0.44403410206E+02  0.44588641544E+02  0.17770000000E+01 0. -1.
         15    1    1    2    0    0 -0.51807277755E+01  0.14871470296E+01  0.39281888411E+03  0.39285987959E+03  0.17770000000E+01 0.  1.
</event>
<event>
 6   1  0.3798113E-04  0.5037176E+03  0.7546771E-02  0.9391530E-01
        -11   -1    0    0    0    0  0.00000000000E+00  0.00000000000E+00  0.50000000000E+03  0.50000000000E+03  0.00000000000E+00 0.  1.
         11   -1    0    0    0    0 -0.00000000000E+00 -0.00000000000E+00 -0.50000000000E+03  0.50000000000E+03  0.00000000000E+00 0.  1.
        -11    1    1    2    0    0  0.26195180028E+02  0.26380759946E+01  0.41419555829E+03  0.41503145352E+03  0.00000000000E+00 0.  1.
         11    1    1    2    0    0  0.89869523677E+00  0.13141284188E+02 -0.49610759893E+03  0.49628243040E+03  0.00000000000E+00 0.  1.
        -15    1    1    2    0    0 -0.18621418362E+02 -0.41062315925E+01  0.40544652054E+02  0.44840215196E+02  0.17770000000E+01 0.  1.
         15    1    1    2    0    0 -0.84724569024E+01 -0.11673128590E+02  0.41367388587E+02  0.43845900887E+02  0.17770000000E+01 0. -1.
</event>
<event>
 6   1  0.3798113E-04  0.5040380E+03  0.7546771E-02  0.9390819E-01
        -11   -1    0    0    0    0  0.00000000000E+00  0.00000000000E+00  0.50000000000E+03  0.50000000000E+03  0.00000000000E+00 0. -1.
         11   -1    0    0    0    0 -0.00000000000E+00 -0.00000000000E+00 -0.50000000000E+03  0.50000000000E+03  0.00000000000E+00 0.  1.
        -11    1    1    2    0    0 -0.74347647296E+01 -0.50380190473E+01  0.47698364536E+03  0.47706818727E+03  0.00000000000E+00 0. -1.
         11    1    1    2    0    0  0.72180133283E+01  0.33859106950E-01 -0.49590944175E+03  0.49596196959E+03  0.00000000000E+00 0.  1.
        -15    1    1    2    0    0 -0.37654625353E+01  0.32676371845E+01 -0.18985871230E+01  0.56230350290E+01  0.17770000000E+01 0. -1.
         15    1    1    2    0    0  0.39822139365E+01  0.17365227559E+01  0.20824383507E+02  0.21346808112E+02  0.17770000000E+01 0.  1.
</event>
<event>
 6   1  0.3798113E-04  0.5017713E+03  0.7546771E-02  0.9395855E-01
        -11   -1    0    0    0    0  0.00000000000E+00  0.00000000000E+00  0.50000000000E+03  0.50000000000E+03  0.00000000000E+00 0.  1.
         11   -1    0    0    0    0 -0.00000000000E+00 -0.00000000000E+00 -0.50000000000E+03  0.50000000000E+03  0.00000000000E+00 0. -1.
        -11    1    1    2    0    0  0.10173169419E+02 -0.10037549357E+02  0.49802371275E+03  0.49822872683E+03  0.00000000000E+00 0.  1.
         11    1    1    2    0    0  0.59371035409E+01  0.55718644172E-01 -0.43053430217E+03  0.43057524040E+03  0.00000000000E+00 0. -1.
        -15    1    1    2    0    0 -0.56747613639E+01 -0.14697988646E+01 -0.29520016945E+02  0.30148836706E+02  0.17770000000E+01 0. -1.
         15    1    1    2    0    0 -0.10435511596E+02  0.11451629578E+02 -0.37969393641E+02  0.41047196064E+02  0.17770000000E+01 0.  1.
</event>
<event>
 6   1  0.3798113E-04  0.4813714E+03  0.7546771E-02  0.9442485E-01
        -11   -1    0    0    0    0  0.00000000000E+00  0.00000000000E+00  0.50000000000E+03  0.50000000000E+03  0.00000000000E+00 0. -1.
         11   -1    0    0    0    0 -0.00000000000E+00 -0.00000000000E+00 -0.50000000000E+03  0.50000000000E+03  0.00000000000E+00 0.  1.
        -11    1    1    2    0    0  0.16551907008E+01 -0.17772337142E+02  0.48147449329E+03  0.48180523379E+03  0.00000000000E+00 0. -1.
         11    1    1    2    0    0  0.67196084132E+01 -0.15995344182E+02 -0.48125337023E+03  0.48156599811E+03  0.00000000000E+00 0.  1.
        -15    1    1    2    0    0  0.36148737486E+00  0.26874772626E+01 -0.26736784389E+01  0.42023199014E+01  0.17770000000E+01 0. -1.
         15    1    1    2    0    0 -0.87362864888E+01  0.31080204061E+02  0.24525553835E+01  0.32426448202E+02  0.17770000000E+01 0.  1.
</event>
<event>
 6   1  0.3798113E-04  0.5002839E+03  0.7546771E-02  0.9399175E-01
        -11   -1    0    0    0    0  0.00000000000E+00  0.00000000000E+00  0.50000000000E+03  0.50000000000E+03  0.00000000000E+00 0. -1.
         11   -1    0    0    0    0 -0.00000000000E+00 -0.00000000000E+00 -0.50000000000E+03  0.50000000000E+03  0.00000000000E+00 0. -1.
        -11    1    1    2    0    0 -0.68575908578E+01  0.84833080911E+00  0.18930104801E+03  0.18942711790E+03  0.00000000000E+00 0. -1.
         11    1    1    2    0    0 -0.80818089975E+01 -0.51198843558E+00 -0.49965047235E+03  0.49971609169E+03  0.00000000000E+00 0. -1.
        -15    1    1    2    0    0  0.26034675079E+01  0.35005667349E+01  0.80226934178E+02  0.80365108767E+02  0.17770000000E+01 0.  1.
         15    1    1    2    0    0  0.12335932347E+02 -0.38369091084E+01  0.23012249017E+03  0.23049168165E+03  0.17770000000E+01 0. -1.
</event>
<event>
 6   1  0.3798113E-04  0.5001616E+03  0.7546771E-02  0.9399448E-01
        -11   -1    0    0    0    0  0.00000000000E+00  0.00000000000E+00  0.50000000000E+03  0.50000000000E+03  0.00000000000E+00 0. -1.
         11   -1    0    0    0    0 -0.00000000000E+00 -0.00000000000E+00 -0.50000000000E+03  0.50000000000E+03  0.00000000000E+00 0. -1.
        -11    1    1    2    0    0  0.15565901844E+01 -0.46556421408E+01  0.22801043832E+03  0.22806327622E+03  0.00000000000E+00 0. -1.
         11    1    1    2    0    0 -0.63828459391E+01 -0.33930732036E+01 -0.49978614370E+03  0.49983841700E+03  0.00000000000E+00 0. -1.
        -15    1    1    2    0    0  0.13070865613E+01  0.51738857768E+01  0.22470707500E+03  0.22477745628E+03  0.17770000000E+01 0. -1.
         15    1    1    2    0    0  0.35191691935E+01  0.28748295677E+01  0.47068630386E+02  0.47320850503E+02  0.17770000000E+01 0.  1.
</event>
<event>
 6   1  0.3798113E-04  0.4926952E+03  0.7546771E-02  0.9416305E-01
        -11   -1    0    0    0    0  0.00000000000E+00  0.00000000000E+00  0.50000000000E+03  0.50000000000E+03  0.00000000000E+00 0.  1.
         11   -1    0    0    0    0 -0.00000000000E+00 -0.00000000000E+00 -0.50000000000E+03  0.50000000000E+03  0.00000000000E+00 0. -1.
        -11    1    1    2    0    0  0.46214442710E+01  0.51724952460E+01  0.49588837090E+03  0.49593687990E+03  0.00000000000E+00 0.  1.
         11    1    1    2    0    0  0.68994473180E+01 -0.27697709080E+01 -0.48948814623E+03  0.48954460399E+03  0.00000000000E+00 0. -1.
        -15    1    1    2    0    0 -0.72444835909E+01 -0.34528506897E+01 -0.47384709982E+01  0.94876528596E+01  0.17770000000E+01 0.  1.
         15    1    1    2    0    0 -0.42764079981E+01  0.10501263518E+01 -0.16617536727E+01  0.50308632450E+01  0.17770000000E+01 0. -1.
</event>
<event>
 6   1  0.3798113E-04  0.5073177E+03  0.7546771E-02  0.9383583E-01
        -11   -1    0    0    0    0  0.00000000000E+00  0.00000000000E+00  0.50000000000E+03  0.50000000000E+03  0.00000000000E+00 0. -1.
         11   -1    0    0    0    0 -0.00000000000E+00 -0.00000000000E+00 -0.50000000000E+03  0.50000000000E+03  0.00000000000E+00 0.  1.
        -11    1    1    2    0    0  0.63570711116E+01 -0.10547717078E+02  0.47721735859E+03  0.47737623949E+03  0.00000000000E+00 0. -1.
         11    1    1    2    0    0  0.82691224688E+01  0.11628563202E+01 -0.49261152663E+03  0.49268229802E+03  0.00000000000E+00 0.  1.
        -15    1    1    2    0    0 -0.58876082684E+01 -0.48338434452E+01  0.11069127747E+01  0.79001872425E+01  0.17770000000E+01 0.  1.
         15    1    1    2    0    0 -0.87385853120E+01  0.14218704203E+02  0.14287255257E+02  0.22041275241E+02  0.17770000000E+01 0. -1.
</event>
<event>
 6   1  0.3798113E-04  0.5056432E+03  0.7546771E-02  0.9387270E-01
        -11   -1    0    0    0    0  0.00000000000E+00  0.00000000000E+00  0.50000000000E+03  0.50000000000E+03  0.00000000000E+00 0. -1.
         11   -1    0    0    0    0 -0.00000000000E+00 -0.00000000000E+00 -0.50000000000E+03  0.50000000000E+03  0.00000000000E+00 0.  1.
        -11    1    1    2    0    0  0.52505613295E+00  0.71303392953E+02  0.48918731493E+03  0.49435683329E+03  0.00000000000E+00 0. -1.
         11    1    1    2    0    0 -0.14244990051E+02 -0.52554056724E+02 -0.11081598434E+03  0.12347076984E+03  0.00000000000E+00 0.  1.
        -15    1    1    2    0    0 -0.12853281019E+02 -0.12160516417E+02 -0.26232315435E+03  0.26292523658E+03  0.17770000000E+01 0.  1.
         15    1    1    2    0    0  0.26573214936E+02 -0.65888198119E+01 -0.11604817624E+03  0.11924716029E+03  0.17770000000E+01 0. -1.
</event>
<event>
 6   1  0.3798113E-04  0.5022374E+03  0.7546771E-02  0.9394817E-01
        -11   -1    0    0    0    0  0.00000000000E+00  0.00000000000E+00  0.50000000000E+03  0.50000000000E+03  0.00000000000E+00 0. -1.
         11   -1    0    0    0    0 -0.00000000000E+00 -0.00000000000E+00 -0.50000000000E+03  0.50000000000E+03  0.00000000000E+00 0. -1.
        -11    1    1    2    0    0 -0.28432202038E+02 -0.61899867665E+01  0.49691133086E+03  0.49776257070E+03  0.00000000000E+00 0. -1.
         11    1    1    2    0    0 -0.83396269154E+00  0.92220708361E+01 -0.40532039152E+03  0.40542614847E+03  0.00000000000E+00 0. -1.
        -15    1    1    2    0    0  0.25578680470E+02 -0.41923189450E+01 -0.85651689611E+02  0.89505385843E+02  0.17770000000E+01 0.  1.
         15    1    1    2    0    0  0.36874842600E+01  0.11602348755E+01 -0.59392497367E+01  0.73058949875E+01  0.17770000000E+01 0. -1.
</event>
<event>
 6   1  0.3798113E-04  0.5038683E+03  0.7546771E-02  0.9391196E-01
        -11   -1    0    0    0    0  0.00000000000E+00  0.00000000000E+00  0.50000000000E+03  0.50000000000E+03  0.00000000000E+00 0.  1.
         11   -1    0    0    0    0 -0.00000000000E+00 -0.00000000000E+00 -0.50000000000E+03  0.50000000000E+03  0.00000000000E+00 0.  1.
        -11    1    1    2    0    0 -0.12104289165E+02 -0.12316745122E+02  0.49583109068E+03  0.49613172294E+03  0.00000000000E+00 0.  1.
         11    1    1    2    0    0  0.13744296399E+02 -0.71327378200E+01 -0.47246929196E+03  0.47272297752E+03  0.00000000000E+00 0.  1.
        -15    1    1    2    0    0  0.95001332782E+00  0.10944938040E+02 -0.15876188388E+02  0.19388276890E+02  0.17770000000E+01 0.  1.
         15    1    1    2    0    0 -0.25900205619E+01  0.85045449020E+01 -0.74856103324E+01  0.11757022648E+02  0.17770000000E+01 0. -1.
</event>
<event>
 6   1  0.3798113E-04  0.5002590E+03  0.7546771E-02  0.9399230E-01
        -11   -1    0    0    0    0  0.00000000000E+00  0.00000000000E+00  0.50000000000E+03  0.50000000000E+03  0.00000000000E+00 0.  1.
         11   -1    0    0    0    0 -0.00000000000E+00 -0.00000000000E+00 -0.50000000000E+03  0.50000000000E+03  0.00000000000E+00 0. -1.
        -11    1    1    2    0    0  0.13222082323E+02 -0.37331498424E+01  0.37278453899E+03  0.37303762864E+03  0.00000000000E+00 0.  1.
         11    1    1    2    0    0 -0.99165363793E+01 -0.24820559362E+01 -0.49963645556E+03  0.49974101895E+03  0.00000000000E+00 0. -1.
        -15    1    1    2    0    0  0.14872215953E+01  0.19751869426E+01  0.38608452459E+02  0.38728329706E+02  0.17770000000E+01 0.  1.
         15    1    1    2    0    0 -0.47927675388E+01  0.42400188360E+01  0.88243464112E+02  0.88493022707E+02  0.17770000000E+01 0. -1.
</event>
<event>
 6   1  0.3798113E-04  0.5035492E+03  0.7546771E-02  0.9391903E-01
        -11   -1    0    0    0    0  0.00000000000E+00  0.00000000000E+00  0.50000000000E+03  0.50000000000E+03  0.00000000000E+00 0. -1.
         11   -1    0    0    0    0 -0.00000000000E+00 -0.00000000000E+00 -0.50000000000E+03  0.50000000000E+03  0.00000000000E+00 0. -1.
        -11    1    1    2    0    0 -0.13440387927E+02  0.29455287469E+01  0.44082704671E+03  0.44104172737E+03  0.00000000000E+00 0. -1.
         11    1    1    2    0    0 -0.78315149041E+01 -0.86888073057E+01 -0.49631298605E+03  0.49645081138E+03  0.00000000000E+00 0. -1.
        -15    1    1    2    0    0  0.10545502538E+02 -0.64040632393E+01  0.23013072528E+02  0.26172101290E+02  0.17770000000E+01 0. -1.
         15    1    1    2    0    0  0.10726400293E+02  0.12147341798E+02  0.32472866810E+02  0.36335359966E+02  0.17770000000E+01 0.  1.
</event>
<event>
 6   1  0.3798113E-04  0.5014798E+03  0.7546771E-02  0.9396505E-01
        -11   -1    0    0    0    0  0.00000000000E+00  0.00000000000E+00  0.50000000000E+03  0.50000000000E+03  0.00000000000E+00 0. -1.
         11   -1    0    0    0    0 -0.00000000000E+00 -0.00000000000E+00 -0.50000000000E+03  0.50000000000E+03  0.00000000000E+00 0.  1.
        -11    1    1    2    0    0  0.13378650306E+02  0.95128079301E+01  0.33873904844E+03  0.33913658714E+03  0.00000000000E+00 0. -1.
         11    1    1    2    0    0  0.10144791077E+02 -0.10676306782E+01 -0.49841583737E+03  0.49852021380E+03  0.00000000000E+00 0.  1.
        -15    1    1    2    0    0 -0.11696176216E+02 -0.11220163593E+01  0.11250661514E+03  0.11313246942E+03  0.17770000000E+01 0.  1.
         15    1    1    2    0    0 -0.11827265166E+02 -0.73231608926E+01  0.47170173797E+02  0.49210729641E+02  0.17770000000E+01 0. -1.
</event>
<event>
 6   1  0.3798113E-04  0.5176653E+03  0.7546771E-02  0.9361127E-01
        -11   -1    0    0    0    0  0.00000000000E+00  0.00000000000E+00  0.50000000000E+03  0.50000000000E+03  0.00000000000E+00 0. -1.
         11   -1    0    0    0    0 -0.00000000000E+00 -0.00000000000E+00 -0.50000000000E+03  0.50000000000E+03  0.00000000000E+00 0.  1.
        -11    1    1    2    0    0 -0.59157716197E+02  0.20756953104E+02  0.47824289974E+03  0.48233469463E+03  0.00000000000E+00 0. -1.
         11    1    1    2    0    0 -0.71398096381E+01 -0.51851325581E+01 -0.41639283073E+03  0.41648631666E+03  0.00000000000E+00 0.  1.
        -15    1    1    2    0    0  0.64922831007E+02 -0.13588206586E+02 -0.36651973130E+02  0.75803286258E+02  0.17770000000E+01 0. -1.
         15    1    1    2    0    0  0.13746948283E+01 -0.19836139599E+01 -0.25198095880E+02  0.25375702457E+02  0.17770000000E+01 0.  1.
</event>
<event>
 6   1  0.3798113E-04  0.5000544E+03  0.7546771E-02  0.9399688E-01
        -11   -1    0    0    0    0  0.00000000000E+00  0.00000000000E+00  0.50000000000E+03  0.50000000000E+03  0.00000000000E+00 0. -1.
         11   -1    0    0    0    0 -0.00000000000E+00 -0.00000000000E+00 -0.50000000000E+03  0.50000000000E+03  0.00000000000E+00 0. -1.
        -11    1    1    2    0    0 -0.29190591275E+00 -0.84070359215E+01  0.49987482221E+03  0.49994559838E+03  0.00000000000E+00 0. -1.
         11    1    1    2    0    0  0.20968481001E+01  0.78839331796E+01 -0.25712808875E+03  0.25725747259E+03  0.00000000000E+00 0. -1.
        -15    1    1    2    0    0 -0.21919826413E-01  0.12056109232E+01 -0.14290168223E+03  0.14291781726E+03  0.17770000000E+01 0. -1.
         15    1    1    2    0    0 -0.17830223609E+01 -0.68250818127E+00 -0.99845051222E+02  0.99879111773E+02  0.17770000000E+01 0. -1.
</event>
<event>
 6   1  0.3798113E-04  0.5061096E+03  0.7546771E-02  0.9386242E-01
        -11   -1    0    0    0    0  0.00000000000E+00  0.00000000000E+00  0.50000000000E+03  0.50000000000E+03  0.00000000000E+00 0. -1.
         11   -1    0    0    0    0 -0.00000000000E+00 -0.00000000000E+00 -0.50000000000E+03  0.50000000000E+03  0.00000000000E+00 0.  1.
        -11    1    1    2    0    0 -0.63274683589E+01 -0.99848718692E+01  0.46787608133E+03  0.46802538607E+03  0.00000000000E+00 0. -1.
         11    1    1    2    0    0 -0.56195024652E+01 -0.13409534049E+02 -0.49367630148E+03  0.49389035732E+03  0.00000000000E+00 0.  1.
        -15    1    1    2    0    0  0.26313332751E+01  0.82671888758E+00  0.15567603365E+01  0.36316126815E+01  0.17770000000E+01 0. -1.
         15    1    1    2    0    0  0.93156375490E+01  0.22567687030E+02  0.24243459817E+02  0.34452643930E+02  0.17770000000E+01 0.  1.
</event>
<event>
 6   1  0.3798113E-04  0.5006196E+03  0.7546771E-02  0.9398424E-01
        -11   -1    0    0    0    0  0.00000000000E+00  0.00000000000E+00  0.50000000000E+03  0.50000000000E+03  0.00000000000E+00 0. -1.
         11   -1    0    0    0    0 -0.00000000000E+00 -0.00000000000E+00 -0.50000000000E+03  0.50000000000E+03  0.00000000000E+00 0. -1.
        -11    1    1    2    0    0 -0.52609288535E+01  0.55177906829E+01  0.38249574730E+03  0.38257171888E+03  0.00000000000E+00 0. -1.
         11    1    1    2    0    0 -0.66404693635E+01  0.45027590912E+01 -0.49931597488E+03  0.49938042958E+03  0.00000000000E+00 0. -1.
        -15    1    1    2    0    0  0.29777578894E+01 -0.23049695630E+01  0.49830861952E+02  0.50004524381E+02  0.17770000000E+01 0. -1.
         15    1    1    2    0    0  0.89236403275E+01 -0.77155802111E+01  0.66989365633E+02  0.68043327165E+02  0.17770000000E+01 0.  1.
</event>
<event>
 6   1  0.3798113E-04  0.4957606E+03  0.7546771E-02  0.9409346E-01
        -11   -1    0    0    0    0  0.00000000000E+00  0.00000000000E+00  0.50000000000E+03  0.50000000000E+03  0.00000000000E+00 0.  1.
         11   -1    0    0    0    0 -0.00000000000E+00 -0.00000000000E+00 -0.50000000000E+03  0.50000000000E+03  0.00000000000E+00 0. -1.
        -11    1    1    2    0    0  0.15387560603E+03  0.17635358678E+02  0.47021080908E+03  0.49506253442E+03  0.00000000000E+00 0.  1.
         11    1    1    2    0    0 -0.14807899174E+03 -0.16935936904E+02 -0.47358188329E+03  0.49648163504E+03  0.00000000000E+00 0. -1.
        -15    1    1    2    0    0 -0.40634827367E+01  0.46284777778E+00  0.50090552461E+00  0.44871767696E+01  0.17770000000E+01 0.  1.
         15    1    1    2    0    0 -0.17331315541E+01 -0.11622695519E+01  0.28701686814E+01  0.39686537711E+01  0.17770000000E+01 0. -1.
</event>
<event>
 6   1  0.3798113E-04  0.5060043E+03  0.7546771E-02  0.9386474E-01
        -11   -1    0    0    0    0  0.00000000000E+00  0.00000000000E+00  0.50000000000E+03  0.50000000000E+03  0.00000000000E+00 0.  1.
         11   -1    0    0    0    0 -0.00000000000E+00 -0.00000000000E+00 -0.50000000000E+03  0.50000000000E+03  0.00000000000E+00 0. -1.
        -11    1    1    2    0    0 -0.11312597201E+02  0.38888445453E+02  0.49233266520E+03  0.49399568750E+03  0.00000000000E+00 0.  1.
         11    1    1    2    0    0 -0.12211970947E+01  0.91621411952E+01 -0.35654576468E+03  0.35666555548E+03  0.00000000000E+00 0. -1.
        -15    1    1    2    0    0  0.15603739984E+02 -0.44730268084E+02 -0.77500498578E+02  0.90850198641E+02  0.17770000000E+01 0. -1.
         15    1    1    2    0    0 -0.30699456881E+01 -0.33203185642E+01 -0.58286401936E+02  0.58488558381E+02  0.17770000000E+01 0.  1.
</event>
<event>
 6   1  0.3798113E-04  0.4842744E+03  0.7546771E-02  0.9435701E-01
        -11   -1    0    0    0    0  0.00000000000E+00  0.00000000000E+00  0.50000000000E+03  0.50000000000E+03  0.00000000000E+00 0. -1.
         11   -1    0    0    0    0 -0.00000000000E+00 -0.00000000000E+00 -0.50000000000E+03  0.50000000000E+03  0.00000000000E+00 0.  1.
        -11    1    1    2    0    0  0.16223372039E+02  0.62438877863E+01  0.47978674571E+03  0.48010155727E+03  0.00000000000E+00 0. -1.
         11    1    1    2    0    0 -0.59150802832E+01  0.11991102200E+02 -0.48853029788E+03  0.48871323560E+03  0.00000000000E+00 0.  1.
        -15    1    1    2    0    0 -0.89098729988E+01 -0.11848661593E+02  0.15566776783E+02  0.21569860612E+02  0.17770000000E+01 0.  1.
         15    1    1    2    0    0 -0.13984187572E+01 -0.63863283933E+01 -0.68232246183E+01  0.96153465127E+01  0.17770000000E+01 0. -1.
</event>
<event>
 6   1  0.3798113E-04  0.5004299E+03  0.7546771E-02  0.9398848E-01
        -11   -1    0    0    0    0  0.00000000000E+00  0.00000000000E+00  0.50000000000E+03  0.50000000000E+03  0.00000000000E+00 0. -1.
         11   -1    0    0    0    0 -0.00000000000E+00 -0.00000000000E+00 -0.50000000000E+03  0.50000000000E+03  0.00000000000E+00 0.  1.
        -11    1    1    2    0    0  0.64173161689E+01  0.25697871397E+01  0.49952225193E+03  0.49957008109E+03  0.00000000000E+00 0. -1.
         11    1    1    2    0    0 -0.23641723758E+01  0.86119239594E+01 -0.34115153091E+03  0.34126840110E+03  0.00000000000E+00 0.  1.
        -15    1    1    2    0    0 -0.22995769379E+01 -0.98039409253E+01 -0.14937688719E+03  0.14972647550E+03  0.17770000000E+01 0.  1.
         15    1    1    2    0    0 -0.17535668553E+01 -0.13777701738E+01 -0.89938338289E+01  0.94350423056E+01  0.17770000000E+01 0. -1.
</event>
<event>
 6   1  0.3798113E-04  0.4470634E+03  0.7546771E-02  0.9526732E-01
        -11   -1    0    0    0    0  0.00000000000E+00  0.00000000000E+00  0.50000000000E+03  0.50000000000E+03  0.00000000000E+00 0. -1.
         11   -1    0    0    0    0 -0.00000000000E+00 -0.00000000000E+00 -0.50000000000E+03  0.50000000000E+03  0.00000000000E+00 0. -1.
        -11    1    1    2    0    0 -0.11450728706E+02 -0.80934693585E+02  0.43081415728E+03  0.43850015043E+03  0.00000000000E+00 0. -1.
         11    1    1    2    0    0  0.65392183763E+01 -0.58211124461E+01 -0.46023750735E+03  0.46032076849E+03  0.00000000000E+00 0. -1.
        -15    1    1    2    0    0 -0.89239009678E+00 -0.21409613808E+01 -0.48901828816E+01  0.56966387752E+01  0.17770000000E+01 0. -1.
         15    1    1    2    0    0  0.58039004261E+01  0.88896767412E+02  0.34313532954E+02  0.95482442309E+02  0.17770000000E+01 0.  1.
</event>
<event>
 6   1  0.3798113E-04  0.5015795E+03  0.7546771E-02  0.9396282E-01
        -11   -1    0    0    0    0  0.00000000000E+00  0.00000000000E+00  0.50000000000E+03  0.50000000000E+03  0.00000000000E+00 0. -1.
         11   -1    0    0    0    0 -0.00000000000E+00 -0.00000000000E+00 -0.50000000000E+03  0.50000000000E+03  0.00000000000E+00 0.  1.
        -11    1    1    2    0    0 -0.98530236326E+01 -0.19817409287E+02  0.37259782922E+03  0.37325454334E+03  0.00000000000E+00 0. -1.
         11    1    1    2    0    0  0.67303298032E+01  0.12287155250E+02 -0.49822361355E+03  0.49842054595E+03  0.00000000000E+00 0.  1.
        -15    1    1    2    0    0 -0.25505330599E+01 -0.44516798509E+01  0.65839686431E+01  0.85339934660E+01  0.17770000000E+01 0. -1.
         15    1    1    2    0    0  0.56732268893E+01  0.11981933888E+02  0.11904181569E+03  0.11979091725E+03  0.17770000000E+01 0.  1.
</event>
<event>
 6   1  0.3798113E-04  0.5047415E+03  0.7546771E-02  0.9389262E-01
        -11   -1    0    0    0    0  0.00000000000E+00  0.00000000000E+00  0.50000000000E+03  0.50000000000E+03  0.00000000000E+00 0.  1.
         11   -1    0    0    0    0 -0.00000000000E+00 -0.00000000000E+00 -0.50000000000E+03  0.50000000000E+03  0.00000000000E+00 0. -1.
        -11    1    1    2    0    0 -0.45568326924E+01 -0.84365764909E+01  0.49516570858E+03  0.49525853803E+03  0.00000000000E+00 0.  1.
         11    1    1    2    0    0  0.67503137224E+01 -0.32023364622E+01 -0.48692927865E+03  0.48698659540E+03  0.00000000000E+00 0. -1.
        -15    1    1    2    0    0  0.19159019389E-01  0.97413244710E+01 -0.12522120942E+01  0.99809585534E+01  0.17770000000E+01 0. -1.
         15    1    1    2    0    0 -0.22126400495E+01  0.18975884821E+01 -0.69842178339E+01  0.77739080126E+01  0.17770000000E+01 0.  1.
</event>
<event>
 6   1  0.3798113E-04  0.5002448E+03  0.7546771E-02  0.9399262E-01
        -11   -1    0    0    0    0  0.00000000000E+00  0.00000000000E+00  0.50000000000E+03  0.50000000000E+03  0.00000000000E+00 0.  1.
         11   -1    0    0    0    0 -0.00000000000E+00 -0.00000000000E+00 -0.50000000000E+03  0.50000000000E+03  0.00000000000E+00 0. -1.
        -11    1    1    2    0    0 -0.10440335145E+02 -0.13674521922E+02  0.49945897393E+03  0.49975519986E+03  0.00000000000E+00 0.  1.
         11    1    1    2    0    0 -0.26978137836E+01 -0.17388144602E+01 -0.98910087579E+02  0.98962149834E+02  0.00000000000E+00 0. -1.
        -15    1    1    2    0    0  0.40295769642E+01 -0.15119291802E+01 -0.10578548728E+03  0.10588791465E+03  0.17770000000E+01 0. -1.
         15    1    1    2    0    0  0.91085719645E+01  0.16925265562E+02 -0.29476339907E+03  0.29539473566E+03  0.17770000000E+01 0. -1.
</event>
<event>
 6   1  0.3798113E-04  0.5017627E+03  0.7546771E-02  0.9395874E-01
        -11   -1    0    0    0    0  0.00000000000E+00  0.00000000000E+00  0.50000000000E+03  0.50000000000E+03  0.00000000000E+00 0. -1.
         11   -1    0    0    0    0 -0.00000000000E+00 -0.00000000000E+00 -0.50000000000E+03  0.50000000000E+03  0.00000000000E+00 0. -1.
        -11    1    1    2    0    0 -0.45072193681E+01  0.11732268895E+02  0.42327873224E+03  0.42346528349E+03  0.00000000000E+00 0. -1.
         11    1    1    2    0    0  0.47480674369E+01  0.50649260394E+01 -0.49818893922E+03  0.49823730971E+03  0.00000000000E+00 0. -1.
        -15    1    1    2    0    0 -0.61266231965E+01 -0.26830736761E+01  0.16501835282E+02  0.17894208360E+02  0.17770000000E+01 0.  1.
         15    1    1    2    0    0  0.58857751277E+01 -0.14114121259E+02  0.58408371704E+02  0.60403198441E+02  0.17770000000E+01 0. -1.
</event>
<event>
 6   1  0.3798113E-04  0.5013301E+03  0.7546771E-02  0.9396839E-01
        -11   -1    0    0    0    0  0.00000000000E+00  0.00000000000E+00  0.50000000000E+03  0.50000000000E+03  0.00000000000E+00 0. -1.
         11   -1    0    0    0    0 -0.00000000000E+00 -0.00000000000E+00 -0.50000000000E+03  0.50000000000E+03  0.00000000000E+00 0. -1.
        -11    1    1    2    0    0  0.24601560662E+02  0.10517351007E+02  0.22737014628E+03  0.22893893264E+03  0.00000000000E+00 0. -1.
         11    1    1    2    0    0 -0.54182896390E+01 -0.17381087466E+02 -0.49833748094E+03  0.49866993591E+03  0.00000000000E+00 0. -1.
        -15    1    1    2    0    0 -0.19585504302E+02 -0.10436013288E+01  0.18928140536E+03  0.19030315086E+03  0.17770000000E+01 0. -1.
         15    1    1    2    0    0  0.40223327852E+00  0.79073377870E+01  0.81685929305E+02  0.82087980593E+02  0.17770000000E+01 0.  1.
</event>
<event>
 6   1  0.3798113E-04  0.5028784E+03  0.7546771E-02  0.9393392E-01
        -11   -1    0    0    0    0  0.00000000000E+00  0.00000000000E+00  0.50000000000E+03  0.50000000000E+03  0.00000000000E+00 0. -1.
         11   -1    0    0    0    0 -0.00000000000E+00 -0.00000000000E+00 -0.50000000000E+03  0.50000000000E+03  0.00000000000E+00 0. -1.
        -11    1    1    2    0    0 -0.34891457727E+01  0.10709895444E+02  0.44584786699E+03  0.44599013049E+03  0.00000000000E+00 0. -1.
         11    1    1    2    0    0  0.44568124584E+01  0.84267633468E+01 -0.49703015820E+03  0.49712156629E+03  0.00000000000E+00 0. -1.
        -15    1    1    2    0    0 -0.76166741706E+00 -0.13984931803E+02  0.16221490962E+02  0.21504719315E+02  0.17770000000E+01 0. -1.
         15    1    1    2    0    0 -0.20599926867E+00 -0.51517269885E+01  0.34960800249E+02  0.35383583901E+02  0.17770000000E+01 0.  1.
</event>
<event>
 6   1  0.3798113E-04  0.4793972E+03  0.7546771E-02  0.9447128E-01
        -11   -1    0    0    0    0  0.00000000000E+00  0.00000000000E+00  0.50000000000E+03  0.50000000000E+03  0.00000000000E+00 0. -1.
         11   -1    0    0    0    0 -0.00000000000E+00 -0.00000000000E+00 -0.50000000000E+03  0.50000000000E+03  0.00000000000E+00 0.  1.
        -11    1    1    2    0    0  0.29939126277E+02 -0.10298692910E+02  0.47728459568E+03  0.47833356523E+03  0.00000000000E+00 0. -1.
         11    1    1    2    0    0  0.52185401182E+00  0.15999322115E+02 -0.48070115072E+03  0.48096761527E+03  0.00000000000E+00 0.  1.
        -15    1    1    2    0    0 -0.13072062306E+02 -0.12265888801E+02 -0.69907511206E+01  0.19322504269E+02  0.17770000000E+01 0. -1.
         15    1    1    2    0    0 -0.17388917983E+02  0.65652595960E+01  0.10407306158E+02  0.21376315226E+02  0.17770000000E+01 0.  1.
</event>
<event>
 6   1  0.3798113E-04  0.5001119E+03  0.7546771E-02  0.9399559E-01
        -11   -1    0    0    0    0  0.00000000000E+00  0.00000000000E+00  0.50000000000E+03  0.50000000000E+03  0.00000000000E+00 0.  1.
         11   -1    0    0    0    0 -0.00000000000E+00 -0.00000000000E+00 -0.50000000000E+03  0.50000000000E+03  0.00000000000E+00 0.  1.
        -11    1    1    2    0    0 -0.54385839969E+01  0.67168254366E+01  0.18799285804E+03  0.18819141483E+03  0.00000000000E+00 0.  1.
         11    1    1    2    0    0 -0.24252038934E+00 -0.77235005302E+01 -0.49982832276E+03  0.49988805098E+03  0.00000000000E+00 0.  1.
        -15    1    1    2    0    0  0.26026086465E+01  0.13585845089E+01  0.19590298666E+03  0.19593304273E+03  0.17770000000E+01 0.  1.
         15    1    1    2    0    0  0.30784957398E+01 -0.35190941537E+00  0.11593247806E+03  0.11598749146E+03  0.17770000000E+01 0.  1.
</event>
<event>
 6   1  0.3798113E-04  0.5028403E+03  0.7546771E-02  0.9393477E-01
        -11   -1    0    0    0    0  0.00000000000E+00  0.00000000000E+00  0.50000000000E+03  0.50000000000E+03  0.00000000000E+00 0. -1.
         11   -1    0    0    0    0 -0.00000000000E+00 -0.00000000000E+00 -0.50000000000E+03  0.50000000000E+03  0.00000000000E+00 0.  1.
        -11    1    1    2    0    0 -0.32370680331E+02 -0.17471002022E+02  0.10631087287E+03  0.11249488232E+03  0.00000000000E+00 0. -1.
         11    1    1    2    0    0  0.39237668521E+02  0.73168254763E+01 -0.49555485200E+03  0.49715967445E+03  0.00000000000E+00 0.  1.
        -15    1    1    2    0    0  0.56294866277E+01  0.93345076613E+01  0.30067948866E+03  0.30088226399E+03  0.17770000000E+01 0. -1.
         15    1    1    2    0    0 -0.12496474818E+02  0.81966888410E+00  0.88564490462E+02  0.89463179240E+02  0.17770000000E+01 0.  1.
</event>
<event>
 6   1  0.3798113E-04  0.4632253E+03  0.7546771E-02  0.9486078E-01
        -11   -1    0    0    0    0  0.00000000000E+00  0.00000000000E+00  0.50000000000E+03  0.50000000000E+03  0.00000000000E+00 0.  1.
         11   -1    0    0    0    0 -0.00000000000E+00 -0.00000000000E+00 -0.50000000000E+03  0.50000000000E+03  0.00000000000E+00 0. -1.
        -11    1    1    2    0    0  0.37213722483E+02  0.14266491599E+01  0.46469373399E+03  0.46618361498E+03  0.00000000000E+00 0.  1.
         11    1    1    2    0    0  0.12316100302E+02  0.30476909377E+02 -0.46097526864E+03  0.46214578504E+03  0.00000000000E+00 0. -1.
        -15    1    1    2    0    0 -0.29848317483E+01 -0.63541992895E+01  0.13921711359E+02  0.15692572936E+02  0.17770000000E+01 0. -1.
         15    1    1    2    0    0 -0.46544991037E+02 -0.25549359247E+02 -0.17640176700E+02  0.55978027042E+02  0.17770000000E+01 0.  1.
</event>
<event>
 6   1  0.3798113E-04  0.5027319E+03  0.7546771E-02  0.9393718E-01
        -11   -1    0    0    0    0  0.00000000000E+00  0.00000000000E+00  0.50000000000E+03  0.50000000000E+03  0.00000000000E+00 0.  1.
         11   -1    0    0    0    0 -0.00000000000E+00 -0.00000000000E+00 -0.50000000000E+03  0.50000000000E+03  0.00000000000E+00 0.  1.
        -11    1    1    2    0    0  0.10485143136E+02 -0.10033846398E+02  0.47558839409E+03  0.47580976965E+03  0.00000000000E+00 0.  1.
         11    1    1    2    0    0  0.38702437163E+01  0.61267993387E+01 -0.49721530128E+03  0.49726810905E+03  0.00000000000E+00 0.  1.
        -15    1    1    2    0    0 -0.46618675032E+01  0.22088835820E+01  0.44266830631E+01  0.70260534610E+01  0.17770000000E+01 0.  1.
         15    1    1    2    0    0 -0.96935193488E+01  0.16981634769E+01  0.17200224124E+02  0.19896067839E+02  0.17770000000E+01 0. -1.
</event>
<event>
 6   1  0.3798113E-04  0.5008730E+03  0.7546771E-02  0.9397858E-01
        -11   -1    0    0    0    0  0.00000000000E+00  0.00000000000E+00  0.50000000000E+03  0.50000000000E+03  0.00000000000E+00 0.  1.
         11   -1    0    0    0    0 -0.00000000000E+00 -0.00000000000E+00 -0.50000000000E+03  0.50000000000E+03  0.00000000000E+00 0.  1.
        -11    1    1    2    0    0  0.12699774180E+02 -0.64720606018E+00  0.30926945703E+03  0.30953077422E+03  0.00000000000E+00 0.  1.
         11    1    1    2    0    0  0.10045740466E+02  0.14878389077E+01 -0.49902367329E+03  0.49912699493E+03  0.00000000000E+00 0.  1.
        -15    1    1    2    0    0 -0.56363769220E+01 -0.32567939287E+01  0.71724235654E+02  0.72040954746E+02  0.17770000000E+01 0. -1.
         15    1    1    2    0    0 -0.17109137724E+02  0.24161610812E+01  0.11802998061E+03  0.11930127610E+03  0.17770000000E+01 0.  1.
</event>
<event>
 6   1  0.3798113E-04  0.5000970E+03  0.7546771E-02  0.9399593E-01
        -11   -1    0    0    0    0  0.00000000000E+00  0.00000000000E+00  0.50000000000E+03  0.50000000000E+03  0.00000000000E+00 0. -1.
         11   -1    0    0    0    0 -0.00000000000E+00 -0.00000000000E+00 -0.50000000000E+03  0.50000000000E+03  0.00000000000E+00 0.  1.
        -11    1    1    2    0    0  0.44546223946E+01 -0.31141835513E+01  0.21349134546E+03  0.21356052160E+03  0.00000000000E+00 0. -1.
         11    1    1    2    0    0 -0.94629451109E+01  0.52320817487E+01 -0.49978609071E+03  0.49990304907E+03  0.00000000000E+00 0.  1.
        -15    1    1    2    0    0  0.76586023466E+00 -0.55906764726E+01  0.16235903640E+03  0.16246678625E+03  0.17770000000E+01 0. -1.
         15    1    1    2    0    0  0.42424624817E+01  0.34727782752E+01  0.12393570885E+03  0.12406964308E+03  0.17770000000E+01 0.  1.
</event>
<event>
 6   1  0.3798113E-04  0.5019146E+03  0.7546771E-02  0.9395536E-01
        -11   -1    0    0    0    0  0.00000000000E+00  0.00000000000E+00  0.50000000000E+03  0.50000000000E+03  0.00000000000E+00 0. -1.
         11   -1    0    0    0    0 -0.00000000000E+00 -0.00000000000E+00 -0.50000000000E+03  0.50000000000E+03  0.00000000000E+00 0. -1.
        -11    1    1    2    0    0  0.30926933824E+01 -0.71426366038E+01  0.46507515909E+03  0.46514028595E+03  0.00000000000E+00 0. -1.
         11    1    1    2    0    0 -0.40133770994E+01 -0.68147521364E+01 -0.49802257894E+03  0.49808537138E+03  0.00000000000E+00 0. -1.
        -15    1    1    2    0    0  0.73434041692E-01  0.12732424464E+02  0.31546077523E+02  0.34065125295E+02  0.17770000000E+01 0. -1.
         15    1    1    2    0    0  0.84724967535E+00  0.12249642762E+01  0.14013423266E+01  0.27092173790E+01  0.17770000000E+01 0.  1.
</event>
<event>
 6   1  0.3798113E-04  0.5000959E+03  0.7546771E-02  0.9399595E-01
        -11   -1    0    0    0    0  0.00000000000E+00  0.00000000000E+00  0.50000000000E+03  0.50000000000E+03  0.00000000000E+00 0.  1.
         11   -1    0    0    0    0 -0.00000000000E+00 -0.00000000000E+00 -0.50000000000E+03  0.50000000000E+03  0.00000000000E+00 0. -1.
        -11    1    1    2    0    0 -0.86922301209E+01  0.36223110828E+01  0.27380790664E+03  0.27396978983E+03  0.00000000000E+00 0.  1.
         11    1    1    2    0    0  0.60851119521E+01 -0.64513459301E+01 -0.49982539468E+03  0.49990406441E+03  0.00000000000E+00 0. -1.
        -15    1    1    2    0    0 -0.32808653301E+00  0.13948159907E+01  0.36017274956E+02  0.36089541098E+02  0.17770000000E+01 0.  1.
         15    1    1    2    0    0  0.29352047018E+01  0.14342188566E+01  0.19000021308E+03  0.19003660466E+03  0.17770000000E+01 0.  1.
</event>
<event>
 6   1  0.3798113E-04  0.5001599E+03  0.7546771E-02  0.9399452E-01
        -11   -1    0    0    0    0  0.00000000000E+00  0.00000000000E+00  0.50000000000E+03  0.50000000000E+03  0.00000000000E+00 0. -1.
         11   -1    0    0    0    0 -0.00000000000E+00 -0.00000000000E+00 -0.50000000000E+03  0.50000000000E+03  0.00000000000E+00 0. -1.
        -11    1    1    2    0    0 -0.78510542463E+01  0.86209697669E+01  0.36386238824E+03  0.36404916941E+03  0.00000000000E+00 0. -1.
         11    1    1    2    0    0  0.84399965017E+01 -0.40569206963E+01 -0.49975238668E+03  0.49984011458E+03  0.00000000000E+00 0. -1.
        -15    1    1    2    0    0 -0.17821122881E+01 -0.35289787283E+01  0.11570797149E+03  0.11578912734E+03  0.17770000000E+01 0.  1.
         15    1    1    2    0    0  0.11931700328E+01 -0.10350703423E+01  0.20182026946E+02  0.20321588667E+02  0.17770000000E+01 0. -1.
</event>
<event>
 6   1  0.3798113E-04  0.5093282E+03  0.7546771E-02  0.9379176E-01
        -11   -1    0    0    0    0  0.00000000000E+00  0.00000000000E+00  0.50000000000E+03  0.50000000000E+03  0.00000000000E+00 0. -1.
         11   -1    0    0    0    0 -0.00000000000E+00 -0.00000000000E+00 -0.50000000000E+03  0.50000000000E+03  0.00000000000E+00 0. -1.
        -11    1    1    2    0    0 -0.28755625456E+02  0.68308440179E+02  0.19428643056E+03  0.20794265098E+03  0.00000000000E+00 0. -1.
         11    1    1    2    0    0  0.18793929502E+02 -0.38092236582E+02 -0.48882983054E+03  0.49067181853E+03  0.00000000000E+00 0. -1.
        -15    1    1    2    0    0 -0.15036602701E+02 -0.13157282348E+01  0.25881793091E+02  0.30014255016E+02  0.17770000000E+01 0.  1.
         15    1    1    2    0    0  0.24998298654E+02 -0.28900475362E+02  0.26866160689E+03  0.27137127548E+03  0.17770000000E+01 0. -1.
</event>
<event>
 6   1  0.3798113E-04  0.5001508E+03  0.7546771E-02  0.9399472E-01
        -11   -1    0    0    0    0  0.00000000000E+00  0.00000000000E+00  0.50000000000E+03  0.50000000000E+03  0.00000000000E+00 0.  1.
         11   -1    0    0    0    0 -0.00000000000E+00 -0.00000000000E+00 -0.50000000000E+03  0.50000000000E+03  0.00000000000E+00 0.  1.
        -11    1    1    2    0    0 -0.21283846096E+01  0.41652444261E+01  0.17355229495E+03  0.17361531719E+03  0.00000000000E+00 0.  1.
         11    1    1    2    0    0 -0.57848835295E+01  0.58833223714E+01 -0.49978111124E+03  0.49984921478E+03  0.00000000000E+00 0.  1.
        -15    1    1    2    0    0  0.63780714344E+01 -0.86201832687E+01  0.28948597004E+03  0.28968995829E+03  0.17770000000E+01 0.  1.
         15    1    1    2    0    0  0.15351967047E+01 -0.14283835287E+01  0.36742846252E+02  0.36845509742E+02  0.17770000000E+01 0.  1.
</event>
<event>
 6   1  0.3798113E-04  0.5011334E+03  0.7546771E-02  0.9397277E-01
        -11   -1    0    0    0    0  0.00000000000E+00  0.00000000000E+00  0.50000000000E+03  0.50000000000E+03  0.00000000000E+00 0. -1.
         11   -1    0    0    0    0 -0.00000000000E+00 -0.00000000000E+00 -0.50000000000E+03  0.50000000000E+03  0.00000000000E+00 0.  1.
        -11    1    1    2    0    0  0.20195695781E+02  0.50315872791E+01  0.10850964184E+03  0.11048767067E+03  0.00000000000E+00 0. -1.
         11    1    1    2    0    0 -0.59486516707E+01 -0.80496816814E+01 -0.49876618225E+03  0.49886660380E+03  0.00000000000E+00 0.  1.
        -15    1    1    2    0    0 -0.13577846368E+02  0.13896935539E+01  0.25909649143E+03  0.25946182525E+03  0.17770000000E+01 0. -1.
         15    1    1    2    0    0 -0.66919774295E+00  0.16284008483E+01  0.13116004898E+03  0.13118390028E+03  0.17770000000E+01 0.  1.
</event>
<event>
 6   1  0.3798113E-04  0.4908983E+03  0.7546771E-02  0.9420409E-01
        -11   -1    0    0    0    0  0.00000000000E+00  0.00000000000E+00  0.50000000000E+03  0.50000000000E+03  0.00000000000E+00 0.  1.
         11   -1    0    0    0    0 -0.00000000000E+00 -0.00000000000E+00 -0.50000000000E+03  0.50000000000E+03  0.00000000000E+00 0.  1.
        -11    1    1    2    0    0 -0.15007756764E+02 -0.40580576113E+01  0.49379483305E+03  0.49403951031E+03  0.00000000000E+00 0.  1.
         11    1    1    2    0    0  0.30439551294E+01 -0.59936170207E+01 -0.48785310522E+03  0.48789941728E+03  0.00000000000E+00 0.  1.
        -15    1    1    2    0    0  0.45442152560E+01  0.30198824883E+01  0.64022164946E+00  0.57738371380E+01  0.17770000000E+01 0. -1.
         15    1    1    2    0    0  0.74195863782E+01  0.70317921437E+01 -0.65819494764E+01  0.12287235274E+02  0.17770000000E+01 0.  1.
</event>
<event>
 6   1  0.3798113E-04  0.5001331E+03  0.7546771E-02  0.9399512E-01
        -11   -1    0    0    0    0  0.00000000000E+00  0.00000000000E+00  0.50000000000E+03  0.50000000000E+03  0.00000000000E+00 0.  1.
         11   -1    0    0    0    0 -0.00000000000E+00 -0.00000000000E+00 -0.50000000000E+03  0.50000000000E+03  0.00000000000E+00 0.  1.
        -11    1    1    2    0    0  0.95329334931E+01  0.12983656411E+02  0.49960727502E+03  0.49986686368E+03  0.00000000000E+00 0.  1.
         11    1    1    2    0    0  0.11808460845E+00 -0.18687921669E+01 -0.70044558967E+02  0.70069583766E+02  0.00000000000E+00 0.  1.
        -15    1    1    2    0    0 -0.54222214294E+01  0.82777626046E+00 -0.59239489189E+02  0.59519412860E+02  0.17770000000E+01 0. -1.
         15    1    1    2    0    0 -0.42287966721E+01 -0.11942640504E+02 -0.37032322686E+03  0.37054413970E+03  0.17770000000E+01 0.  1.
</event>
<event>
 6   1  0.3798113E-04  0.4662336E+03  0.7546771E-02  0.9478705E-01
        -11   -1    0    0    0    0  0.00000000000E+00  0.00000000000E+00  0.50000000000E+03  0.50000000000E+03  0.00000000000E+00 0.  1.
         11   -1    0    0    0    0 -0.00000000000E+00 -0.00000000000E+00 -0.50000000000E+03  0.50000000000E+03  0.00000000000E+00 0.  1.
        -11    1    1    2    0    0 -0.30595243665E+02 -0.22927047018E+02  0.47535643762E+03  0.47689145642E+03  0.00000000000E+00 0.  1.
         11    1    1    2    0    0 -0.65992859690E+01 -0.25863673364E+01 -0.45679547026E+03  0.45685045860E+03  0.00000000000E+00 0.  1.
        -15    1    1    2    0    0  0.28685665617E+01 -0.16836395913E+00 -0.22885938870E+02  0.23133978203E+02  0.17770000000E+01 0. -1.
         15    1    1    2    0    0  0.34325963073E+02  0.25681778314E+02  0.43249715146E+01  0.43124106783E+02  0.17770000000E+01 0.  1.
</event>
<event>
 6   1  0.3798113E-04  0.5041222E+03  0.7546771E-02  0.9390633E-01
        -11   -1    0    0    0    0  0.00000000000E+00  0.00000000000E+00  0.50000000000E+03  0.50000000000E+03  0.00000000000E+00 0. -1.
         11   -1    0    0    0    0 -0.00000000000E+00 -0.00000000000E+00 -0.50000000000E+03  0.50000000000E+03  0.00000000000E+00 0. -1.
        -11    1    1    2    0    0  0.16613061971E+02 -0.71825320189E+00  0.49559896198E+03  0.49587784870E+03  0.00000000000E+00 0. -1.
         11    1    1    2    0    0 -0.11930103031E+01  0.10050332968E+02 -0.47544910475E+03  0.47555681435E+03  0.00000000000E+00 0. -1.
        -15    1    1    2    0    0 -0.81776520921E+01 -0.94759761773E+01 -0.14294446966E+02  0.19082899709E+02  0.17770000000E+01 0.  1.
         15    1    1    2    0    0 -0.72423995759E+01  0.14389641125E+00 -0.58554102561E+01  0.94824372427E+01  0.17770000000E+01 0. -1.
</event>
<event>
 6   1  0.3798113E-04  0.5000506E+03  0.7546771E-02  0.9399697E-01
        -11   -1    0    0    0    0  0.00000000000E+00  0.00000000000E+00  0.50000000000E+03  0.50000000000E+03  0.00000000000E+00 0.  1.
         11   -1    0    0    0    0 -0.00000000000E+00 -0.00000000000E+00 -0.50000000000E+03  0.50000000000E+03  0.00000000000E+00 0. -1.
        -11    1    1    2    0    0 -0.17460576779E+02  0.65830213694E+01  0.38481000788E+03  0.38526218355E+03  0.00000000000E+00 0.  1.
         11    1    1    2    0    0  0.24284200055E+02 -0.66123014861E+01 -0.49931551489E+03  0.49994942575E+03  0.00000000000E+00 0. -1.
        -15    1    1    2    0    0 -0.17640256519E+01  0.23061519770E+00  0.26351452642E+02  0.26471149488E+02  0.17770000000E+01 0. -1.
         15    1    1    2    0    0 -0.50595976239E+01 -0.20133508100E+00  0.88154054368E+02  0.88317241207E+02  0.17770000000E+01 0.  1.
</event>
<event>
 6   1  0.3798113E-04  0.5006490E+03  0.7546771E-02  0.9398359E-01
        -11   -1    0    0    0    0  0.00000000000E+00  0.00000000000E+00  0.50000000000E+03  0.50000000000E+03  0.00000000000E+00 0. -1.
         11   -1    0    0    0    0 -0.00000000000E+00 -0.00000000000E+00 -0.50000000000E+03  0.50000000000E+03  0.00000000000E+00 0.  1.
        -11    1    1    2    0    0 -0.13812275741E+00 -0.24446025800E+02  0.49875220810E+03  0.49935097110E+03  0.00000000000E+00 0. -1.
         11    1    1    2    0    0 -0.14962505943E+01 -0.86523570151E+01 -0.77052233508E+02  0.77550942846E+02  0.00000000000E+00 0.  1.
        -15    1    1    2    0    0  0.39535416307E+01  0.85307359530E+01 -0.12893797421E+03  0.12929254762E+03  0.17770000000E+01 0.  1.
         15    1    1    2    0    0 -0.23191682789E+01  0.24567646862E+02 -0.29276200039E+03  0.29380553843E+03  0.17770000000E+01 0.  1.
</event>
<event>
 6   1  0.3798113E-04  0.5030895E+03  0.7546771E-02  0.9392923E-01
        -11   -1    0    0    0    0  0.00000000000E+00  0.00000000000E+00  0.50000000000E+03  0.50000000000E+03  0.00000000000E+00 0. -1.
         11   -1    0    0    0    0 -0.00000000000E+00 -0.00000000000E+00 -0.50000000000E+03  0.50000000000E+03  0.00000000000E+00 0.  1.
        -11    1    1    2    0    0  0.34769984482E+01  0.10373500273E+02  0.48962248706E+03  0.48974470784E+03  0.00000000000E+00 0. -1.
         11    1    1    2    0    0  0.52276222832E+01 -0.71106069927E+01 -0.49683209086E+03  0.49691047007E+03  0.00000000000E+00 0.  1.
        -15    1    1    2    0    0 -0.50927488444E+01 -0.86222514384E+00  0.98087157846E+00  0.55497172040E+01  0.17770000000E+01 0. -1.
         15    1    1    2    0    0 -0.36118718870E+01 -0.24006681362E+01  0.62287322171E+01  0.77951048781E+01  0.17770000000E+01 0.  1.
</event>
<event>
 6   1  0.3798113E-04  0.5001582E+03  0.7546771E-02  0.9399456E-01
        -11   -1    0    0    0    0  0.00000000000E+00  0.00000000000E+00  0.50000000000E+03  0.50000000000E+03  0.00000000000E+00 0.  1.
         11   -1    0    0    0    0 -0.00000000000E+00 -0.00000000000E+00 -0.50000000000E+03  0.50000000000E+03  0.00000000000E+00 0. -1.
        -11    1    1    2    0    0  0.21530054501E+02  0.25850709013E+02  0.40699628536E+03  0.40838435169E+03  0.00000000000E+00 0.  1.
         11    1    1    2    0    0 -0.19523590134E+02 -0.31125766293E+02 -0.49848957403E+03  0.49984181429E+03  0.00000000000E+00 0. -1.
        -15    1    1    2    0    0 -0.11706981001E+01  0.16463111421E+01  0.23089895885E+02  0.23246115706E+02  0.17770000000E+01 0.  1.
         15    1    1    2    0    0 -0.83576626658E+00  0.36287461380E+01  0.68403392785E+02  0.68527718313E+02  0.17770000000E+01 0.  1.
</event>
<event>
 6   1  0.3798113E-04  0.5074734E+03  0.7546771E-02  0.9383241E-01
        -11   -1    0    0    0    0  0.00000000000E+00  0.00000000000E+00  0.50000000000E+03  0.50000000000E+03  0.00000000000E+00 0. -1.
         11   -1    0    0    0    0 -0.00000000000E+00 -0.00000000000E+00 -0.50000000000E+03  0.50000000000E+03  0.00000000000E+00 0. -1.
        -11    1    1    2    0    0  0.63767005221E+02 -0.15242161876E+02  0.48814328562E+03  0.49252656959E+03  0.00000000000E+00 0. -1.
         11    1    1    2    0    0 -0.67029479923E+01 -0.11033267593E+02 -0.32786973541E+03  0.32812379661E+03  0.00000000000E+00 0. -1.
        -15    1    1    2    0    0 -0.63152854408E+02  0.13821385642E+02 -0.14427082861E+03  0.15810295202E+03  0.17770000000E+01 0. -1.
         15    1    1    2    0    0  0.60887971798E+01  0.12454043827E+02 -0.16002721598E+02  0.21246681771E+02  0.17770000000E+01 0.  1.
</event>
<event>
 6   1  0.3798113E-04  0.4438227E+03  0.7546771E-02  0.9535104E-01
        -11   -1    0    0    0    0  0.00000000000E+00  0.00000000000E+00  0.50000000000E+03  0.50000000000E+03  0.00000000000E+00 0. -1.
         11   -1    0    0    0    0 -0.00000000000E+00 -0.00000000000E+00 -0.50000000000E+03  0.50000000000E+03  0.00000000000E+00 0. -1.
        -11    1    1    2    0    0 -0.97221001315E+02  0.60744492593E+01  0.45046526175E+03  0.46087717895E+03  0.00000000000E+00 0. -1.
         11    1    1    2    0    0 -0.18656635630E+01 -0.85197778747E+01 -0.43238012476E+03  0.43246807929E+03  0.00000000000E+00 0. -1.
        -15    1    1    2    0    0  0.76621675231E+01  0.27493419973E+01  0.80141322039E+01  0.11560784426E+02  0.17770000000E+01 0. -1.
         15    1    1    2    0    0  0.91424497355E+02 -0.30401338183E+00 -0.26099269198E+02  0.95093957339E+02  0.17770000000E+01 0.  1.
</event>
<event>
 6   1  0.3798113E-04  0.5043410E+03  0.7546771E-02  0.9390149E-01
        -11   -1    0    0    0    0  0.00000000000E+00  0.00000000000E+00  0.50000000000E+03  0.50000000000E+03  0.00000000000E+00 0.  1.
         11   -1    0    0    0    0 -0.00000000000E+00 -0.00000000000E+00 -0.50000000000E+03  0.50000000000E+03  0.00000000000E+00 0. -1.
        -11    1    1    2    0    0  0.30661141410E+02  0.17577543808E+02  0.49439740688E+03  0.49565902753E+03  0.00000000000E+00 0.  1.
         11    1    1    2    0    0  0.11800035027E+01  0.30830124136E+02 -0.27439018325E+03  0.27611928876E+03  0.00000000000E+00 0. -1.
        -15    1    1    2    0    0 -0.45979528060E+01 -0.10494966077E+02 -0.74530795809E+02  0.75427334143E+02  0.17770000000E+01 0.  1.
         15    1    1    2    0    0 -0.27243192107E+02 -0.37912701867E+02 -0.14547642782E+03  0.15279434957E+03  0.17770000000E+01 0. -1.
</event>
<event>
 6   1  0.3798113E-04  0.5021601E+03  0.7546771E-02  0.9394989E-01
        -11   -1    0    0    0    0  0.00000000000E+00  0.00000000000E+00  0.50000000000E+03  0.50000000000E+03  0.00000000000E+00 0. -1.
         11   -1    0    0    0    0 -0.00000000000E+00 -0.00000000000E+00 -0.50000000000E+03  0.50000000000E+03  0.00000000000E+00 0.  1.
        -11    1    1    2    0    0  0.63870571029E+01 -0.31008973914E+01  0.49778927949E+03  0.49783991085E+03  0.00000000000E+00 0. -1.
         11    1    1    2    0    0  0.31546942837E+01 -0.76641464951E+01 -0.46567173417E+03  0.46574548333E+03  0.00000000000E+00 0.  1.
        -15    1    1    2    0    0 -0.71215029133E+01  0.10735258618E+02 -0.30121759401E+02  0.32809140491E+02  0.17770000000E+01 0. -1.
         15    1    1    2    0    0 -0.24202484732E+01  0.29785268536E-01 -0.19957859177E+01  0.36054653325E+01  0.17770000000E+01 0.  1.
</event>
<event>
 6   1  0.3798113E-04  0.5017148E+03  0.7546771E-02  0.9395981E-01
        -11   -1    0    0    0    0  0.00000000000E+00  0.00000000000E+00  0.50000000000E+03  0.50000000000E+03  0.00000000000E+00 0.  1.
         11   -1    0    0    0    0 -0.00000000000E+00 -0.00000000000E+00 -0.50000000000E+03  0.50000000000E+03  0.00000000000E+00 0.  1.
        -11    1    1    2    0    0 -0.25847001552E+01  0.88598797970E+01  0.11816437924E+02  0.14993543615E+02  0.00000000000E+00 0.  1.
         11    1    1    2    0    0 -0.98813419719E+01  0.11999954619E+00 -0.49818720278E+03  0.49828520381E+03  0.00000000000E+00 0.  1.
        -15    1    1    2    0    0  0.43561712646E+01 -0.31762976983E+01  0.31514384934E+03  0.31519496919E+03  0.17770000000E+01 0.  1.
         15    1    1    2    0    0  0.81098708625E+01 -0.58035816449E+01  0.17122691552E+03  0.17152628339E+03  0.17770000000E+01 0. -1.
</event>
<event>
 6   1  0.3798113E-04  0.5098882E+03  0.7546771E-02  0.9377952E-01
        -11   -1    0    0    0    0  0.00000000000E+00  0.00000000000E+00  0.50000000000E+03  0.50000000000E+03  0.00000000000E+00 0. -1.
         11   -1    0    0    0    0 -0.00000000000E+00 -0.00000000000E+00 -0.50000000000E+03  0.50000000000E+03  0.00000000000E+00 0. -1.
        -11    1    1    2    0    0  0.67750720367E+01 -0.16326735835E+02  0.46046955842E+03  0.46080872186E+03  0.00000000000E+00 0. -1.
         11    1    1    2    0    0 -0.30147969972E+02  0.56009342949E+01 -0.48915166744E+03  0.49011184878E+03  0.00000000000E+00 0. -1.
        -15    1    1    2    0    0  0.21406648573E+02  0.74617013458E+01  0.34851354131E+02  0.41613654056E+02  0.17770000000E+01 0.  1.
         15    1    1    2    0    0  0.19662493620E+01  0.32641001942E+01 -0.61692451155E+01  0.74657753065E+01  0.17770000000E+01 0. -1.
</event>
<event>
 6   1  0.3798113E-04  0.5083434E+03  0.7546771E-02  0.9381332E-01
        -11   -1    0    0    0    0  0.00000000000E+00  0.00000000000E+00  0.50000000000E+03  0.50000000000E+03  0.00000000000E+00 0.  1.
         11   -1    0    0    0    0 -0.00000000000E+00 -0.00000000000E+00 -0.50000000000E+03  0.50000000000E+03  0.00000000000E+00 0. -1.
        -11    1    1    2    0    0  0.11576727437E+02  0.82306677629E+01  0.49145136632E+03  0.49165659761E+03  0.00000000000E+00 0.  1.
         11    1    1    2    0    0  0.12181372642E+02  0.34354799674E+01 -0.47199885978E+03  0.47216852076E+03  0.00000000000E+00 0. -1.
        -15    1    1    2    0    0 -0.26267162877E+01  0.32312878411E+01 -0.37008905120E+01  0.58476644184E+01  0.17770000000E+01 0. -1.
         15    1    1    2    0    0 -0.21131383791E+02 -0.14897435571E+02 -0.15751616028E+02  0.30327217215E+02  0.17770000000E+01 0.  1.
</event>
<event>
 6   1  0.3798113E-04  0.5003083E+03  0.7546771E-02  0.9399120E-01
        -11   -1    0    0    0    0  0.00000000000E+00  0.00000000000E+00  0.50000000000E+03  0.50000000000E+03  0.00000000000E+00 0. -1.
         11   -1    0    0    0    0 -0.00000000000E+00 -0.00000000000E+00 -0.50000000000E+03  0.50000000000E+03  0.00000000000E+00 0. -1.
        -11    1    1    2    0    0 -0.81508063338E+01  0.73365084579E+01  0.83763271532E+02  0.84478077973E+02  0.00000000000E+00 0. -1.
         11    1    1    2    0    0  0.93238227766E+01 -0.12063438135E+02 -0.49945908437E+03  0.49969174215E+03  0.00000000000E+00 0. -1.
        -15    1    1    2    0    0 -0.32764096272E+01 -0.12055792740E+01  0.18611911328E+03  0.18616033504E+03  0.17770000000E+01 0.  1.
         15    1    1    2    0    0  0.21033931844E+01  0.59325089513E+01  0.22957669955E+03  0.22966984485E+03  0.17770000000E+01 0. -1.
</event>
<event>
 6   1  0.3798113E-04  0.5002845E+03  0.7546771E-02  0.9399173E-01
        -11   -1    0    0    0    0  0.00000000000E+00  0.00000000000E+00  0.50000000000E+03  0.50000000000E+03  0.00000000000E+00 0.  1.
         11   -1    0    0    0    0 -0.00000000000E+00 -0.00000000000E+00 -0.50000000000E+03  0.50000000000E+03  0.00000000000E+00 0. -1.
        -11    1    1    2    0    0 -0.36090469384E+02 -0.27512984960E+02  0.49765054171E+03  0.49971546703E+03  0.00000000000E+00 0.  1.
         11    1    1    2    0    0  0.27448993525E+02  0.26978231209E+02 -0.33228318758E+03  0.33450469198E+03  0.00000000000E+00 0. -1.
        -15    1    1    2    0    0  0.56317104801E+01 -0.20067883897E+01 -0.59868318215E+02  0.60192330221E+02  0.17770000000E+01 0.  1.
         15    1    1    2    0    0  0.30097653784E+01  0.25415421408E+01 -0.10549903591E+03  0.10558751077E+03  0.17770000000E+01 0. -1.
</event>
<event>
 6   1  0.3798113E-04  0.5009148E+03  0.7546771E-02  0.9397765E-01
        -11   -1    0    0    0    0  0.00000000000E+00  0.00000000000E+00  0.50000000000E+03  0.50000000000E+03  0.00000000000E+00 0. -1.
         11   -1    0    0    0    0 -0.00000000000E+00 -0.00000000000E+00 -0.50000000000E+03  0.50000000000E+03  0.00000000000E+00 0.  1.
        -11    1    1    2    0    0 -0.14117482844E+02 -0.10963309870E+02  0.15979774030E+03  0.16079432605E+03  0.00000000000E+00 0. -1.
         11    1    1    2    0    0 -0.17664845432E+00 -0.70425543356E+01 -0.49903546556E+03  0.49908518778E+03  0.00000000000E+00 0.  1.
        -15    1    1    2    0    0  0.87315455163E+01  0.13165813843E+02  0.27022403276E+03  0.27069127092E+03  0.17770000000E+01 0.  1.
         15    1    1    2    0    0  0.55625857825E+01  0.48400503624E+01  0.69013692499E+02  0.69429215244E+02  0.17770000000E+01 0. -1.
</event>
<event>
 6   1  0.3798113E-04  0.4693756E+03  0.7546771E-02  0.9471068E-01
        -11   -1    0    0    0    0  0.00000000000E+00  0.00000000000E+00  0.50000000000E+03  0.50000000000E+03  0.00000000000E+00 0. -1.
         11   -1    0    0    0    0 -0.00000000000E+00 -0.00000000000E+00 -0.50000000000E+03  0.50000000000E+03  0.00000000000E+00 0.  1.
        -11    1    1    2    0    0  0.46834163652E+02 -0.30969035196E+01  0.47587739240E+03  0.47818649322E+03  0.00000000000E+00 0. -1.
         11    1    1    2    0    0  0.48891834939E+01  0.49508037008E+01 -0.46203985510E+03  0.46209224433E+03  0.00000000000E+00 0.  1.
        -15    1    1    2    0    0 -0.48702074811E+02  0.98670515778E+00 -0.40118595306E+01  0.48909287706E+02  0.17770000000E+01 0. -1.
         15    1    1    2    0    0 -0.30212723352E+01 -0.28406053390E+01 -0.98256777700E+01  0.10811974744E+02  0.17770000000E+01 0. -1.
</event>
<event>
 6   1  0.3798113E-04  0.5148686E+03  0.7546771E-02  0.9367141E-01
        -11   -1    0    0    0    0  0.00000000000E+00  0.00000000000E+00  0.50000000000E+03  0.50000000000E+03  0.00000000000E+00 0. -1.
         11   -1    0    0    0    0 -0.00000000000E+00 -0.00000000000E+00 -0.50000000000E+03  0.50000000000E+03  0.00000000000E+00 0.  1.
        -11    1    1    2    0    0 -0.22674680879E+02 -0.11449875530E+02  0.44999278341E+03  0.45070915891E+03  0.00000000000E+00 0. -1.
         11    1    1    2    0    0 -0.11484080098E+02  0.36391465108E+02 -0.48362821618E+03  0.48513139902E+03  0.00000000000E+00 0.  1.
        -15    1    1    2    0    0  0.16366226714E+02  0.69657805054E+01  0.13555085908E+02  0.22433759334E+02  0.17770000000E+01 0. -1.
         15    1    1    2    0    0  0.17792534264E+02 -0.31907370083E+02  0.20080346862E+02  0.41725682742E+02  0.17770000000E+01 0.  1.
</event>
<event>
 6   1  0.3798113E-04  0.5009212E+03  0.7546771E-02  0.9397751E-01
        -11   -1    0    0    0    0  0.00000000000E+00  0.00000000000E+00  0.50000000000E+03  0.50000000000E+03  0.00000000000E+00 0.  1.
         11   -1    0    0    0    0 -0.00000000000E+00 -0.00000000000E+00 -0.50000000000E+03  0.50000000000E+03  0.00000000000E+00 0.  1.
        -11    1    1    2    0    0  0.25812363525E+02  0.13729437124E+02  0.26736966908E+03  0.26896340921E+03  0.00000000000E+00 0.  1.
         11    1    1    2    0    0 -0.26613737348E+02  0.26659611680E+01 -0.49836160728E+03  0.49907884145E+03  0.00000000000E+00 0.  1.
        -15    1    1    2    0    0 -0.29100564185E+01 -0.11041662421E+02  0.19472239637E+03  0.19506500484E+03  0.17770000000E+01 0.  1.
         15    1    1    2    0    0  0.37114302422E+01 -0.53537358709E+01  0.36269541838E+02  0.36892744495E+02  0.17770000000E+01 0. -1.
</event>
<event>
 6   1  0.3798113E-04  0.5000488E+03  0.7546771E-02  0.9399701E-01
        -11   -1    0    0    0    0  0.00000000000E+00  0.00000000000E+00  0.50000000000E+03  0.50000000000E+03  0.00000000000E+00 0.  1.
         11   -1    0    0    0    0 -0.00000000000E+00 -0.00000000000E+00 -0.50000000000E+03  0.50000000000E+03  0.00000000000E+00 0. -1.
        -11    1    1    2    0    0 -0.10489191056E+02 -0.54344723030E+01  0.49981162538E+03  0.49995121510E+03  0.00000000000E+00 0.  1.
         11    1    1    2    0    0 -0.46470096686E+00  0.24180381138E+01 -0.15698693770E+03  0.15700624658E+03  0.00000000000E+00 0. -1.
        -15    1    1    2    0    0  0.27346940697E+01  0.17915310740E+01 -0.10004541554E+03  0.10011458952E+03  0.17770000000E+01 0.  1.
         15    1    1    2    0    0  0.82191979528E+01  0.12249031152E+01 -0.24277927213E+03  0.24292794880E+03  0.17770000000E+01 0. -1.
</event>
<event>
 6   1  0.3798113E-04  0.5011172E+03  0.7546771E-02  0.9397313E-01
        -11   -1    0    0    0    0  0.00000000000E+00  0.00000000000E+00  0.50000000000E+03  0.50000000000E+03  0.00000000000E+00 0. -1.
         11   -1    0    0    0    0 -0.00000000000E+00 -0.00000000000E+00 -0.50000000000E+03  0.50000000000E+03  0.00000000000E+00 0.  1.
        -11    1    1    2    0    0  0.93837413352E+00 -0.85832172780E+01  0.49880807829E+03  0.49888280301E+03  0.00000000000E+00 0. -1.
         11    1    1    2    0    0  0.70113166334E+01 -0.18837722625E+01 -0.44542158698E+03  0.44548074853E+03  0.00000000000E+00 0.  1.
        -15    1    1    2    0    0 -0.71539153561E+01  0.30586981692E+01 -0.25787279575E+02  0.26993992967E+02  0.17770000000E+01 0. -1.
         15    1    1    2    0    0 -0.79577541081E+00  0.74082913713E+01 -0.27599211737E+02  0.28642455500E+02  0.17770000000E+01 0.  1.
</event>
<event>
 6   1  0.3798113E-04  0.5025794E+03  0.7546771E-02  0.9394057E-01
        -11   -1    0    0    0    0  0.00000000000E+00  0.00000000000E+00  0.50000000000E+03  0.50000000000E+03  0.00000000000E+00 0. -1.
         11   -1    0    0    0    0 -0.00000000000E+00 -0.00000000000E+00 -0.50000000000E+03  0.50000000000E+03  0.00000000000E+00 0. -1.
        -11    1    1    2    0    0 -0.20536165601E+02  0.19451885867E+02  0.35975550160E+03  0.36086580732E+03  0.00000000000E+00 0. -1.
         11    1    1    2    0    0  0.62399766200E+01  0.49386270763E+01 -0.49735692929E+03  0.49742058909E+03  0.00000000000E+00 0. -1.
        -15    1    1    2    0    0  0.98691853469E+01 -0.20040747010E+02  0.63627208820E+02  0.67458222563E+02  0.17770000000E+01 0.  1.
         15    1    1    2    0    0  0.44270036340E+01 -0.43497659334E+01  0.73974218868E+02  0.74255381024E+02  0.17770000000E+01 0. -1.
</event>
<event>
 6   1  0.3798113E-04  0.5147211E+03  0.7546771E-02  0.9367460E-01
        -11   -1    0    0    0    0  0.00000000000E+00  0.00000000000E+00  0.50000000000E+03  0.50000000000E+03  0.00000000000E+00 0. -1.
         11   -1    0    0    0    0 -0.00000000000E+00 -0.00000000000E+00 -0.50000000000E+03  0.50000000000E+03  0.00000000000E+00 0. -1.
        -11    1    1    2    0    0 -0.32490342054E+01  0.75529643135E+02  0.17122460506E+03  0.18717144172E+03  0.00000000000E+00 0. -1.
         11    1    1    2    0    0  0.18105110018E+02  0.12388585044E+02 -0.48478279956E+03  0.48527892474E+03  0.00000000000E+00 0. -1.
        -15    1    1    2    0    0  0.36769379191E+01 -0.31667929459E+01  0.56888533539E+01  0.76856510137E+01  0.17770000000E+01 0.  1.
         15    1    1    2    0    0 -0.18533013732E+02 -0.84751435233E+02  0.30786934114E+03  0.31986398253E+03  0.17770000000E+01 0. -1.
</event>
<event>
 6   1  0.3798113E-04  0.5003235E+03  0.7546771E-02  0.9399086E-01
        -11   -1    0    0    0    0  0.00000000000E+00  0.00000000000E+00  0.50000000000E+03  0.50000000000E+03  0.00000000000E+00 0.  1.
         11   -1    0    0    0    0 -0.00000000000E+00 -0.00000000000E+00 -0.50000000000E+03  0.50000000000E+03  0.00000000000E+00 0. -1.
        -11    1    1    2    0    0 -0.10985775372E+02  0.23644305501E+02  0.49899590029E+03  0.49967654433E+03  0.00000000000E+00 0.  1.
         11    1    1    2    0    0 -0.37674986837E+00 -0.34757532954E+01 -0.12593448422E+03  0.12598300329E+03  0.00000000000E+00 0. -1.
        -15    1    1    2    0    0  0.82978854335E+01 -0.21833857674E+02 -0.22279981016E+03  0.22402786742E+03  0.17770000000E+01 0.  1.
         15    1    1    2    0    0  0.30646398066E+01  0.16653054688E+01 -0.15026160590E+03  0.15031258496E+03  0.17770000000E+01 0. -1.
</event>
<event>
 6   1  0.3798113E-04  0.5065828E+03  0.7546771E-02  0.9385200E-01
        -11   -1    0    0    0    0  0.00000000000E+00  0.00000000000E+00  0.50000000000E+03  0.50000000000E+03  0.00000000000E+00 0.  1.
         11   -1    0    0    0    0 -0.00000000000E+00 -0.00000000000E+00 -0.50000000000E+03  0.50000000000E+03  0.00000000000E+00 0.  1.
        -11    1    1    2    0    0 -0.28702626508E+02  0.20631472874E+02  0.45028276354E+03  0.45166809228E+03  0.00000000000E+00 0.  1.
         11    1    1    2    0    0  0.11766938272E+02 -0.50857807354E-01 -0.49327691106E+03  0.49341724170E+03  0.00000000000E+00 0.  1.
        -15    1    1    2    0    0  0.12550936018E+02 -0.15621306309E+01  0.26028631040E+02  0.28993337336E+02  0.17770000000E+01 0.  1.
         15    1    1    2    0    0  0.43847522172E+01 -0.19018484436E+02  0.16965516477E+02  0.25921328681E+02  0.17770000000E+01 0. -1.
</event>
<event>
 6   1  0.3798113E-04  0.5004855E+03  0.7546771E-02  0.9398724E-01
        -11   -1    0    0    0    0  0.00000000000E+00  0.00000000000E+00  0.50000000000E+03  0.50000000000E+03  0.00000000000E+00 0.  1.
         11   -1    0    0    0    0 -0.00000000000E+00 -0.00000000000E+00 -0.50000000000E+03  0.50000000000E+03  0.00000000000E+00 0. -1.
        -11    1    1    2    0    0  0.17856513015E+02  0.56003487597E+01  0.49916384723E+03  0.49951452966E+03  0.00000000000E+00 0.  1.
         11    1    1    2    0    0 -0.71143308118E+01 -0.84884132189E+01 -0.42290861606E+03  0.42305361882E+03  0.00000000000E+00 0. -1.
        -15    1    1    2    0    0 -0.52605436551E-01  0.17770861625E+01 -0.16792614685E+02  0.16979706697E+02  0.17770000000E+01 0. -1.
         15    1    1    2    0    0 -0.10689576767E+02  0.11109782968E+01 -0.59462616486E+02  0.60452144813E+02  0.17770000000E+01 0.  1.
</event>
<event>
 6   1  0.3798113E-04  0.5006817E+03  0.7546771E-02  0.9398286E-01
        -11   -1    0    0    0    0  0.00000000000E+00  0.00000000000E+00  0.50000000000E+03  0.50000000000E+03  0.00000000000E+00 0.  1.
         11   -1    0    0    0    0 -0.00000000000E+00 -0.00000000000E+00 -0.50000000000E+03  0.50000000000E+03  0.00000000000E+00 0.  1.
        -11    1    1    2    0    0  0.17985361239E+01 -0.15862850290E+02  0.49906306626E+03  0.49931834420E+03  0.00000000000E+00 0.  1.
         11    1    1    2    0    0  0.61438552371E+01  0.10289178432E+01 -0.39288052057E+03  0.39292990351E+03  0.00000000000E+00 0.  1.
        -15    1    1    2    0    0 -0.39720905200E+01  0.27138469710E+01 -0.40068085049E+02  0.40394945686E+02  0.17770000000E+01 0.  1.
         15    1    1    2    0    0 -0.39703008411E+01  0.12120085476E+02 -0.66114460644E+02  0.67356806604E+02  0.17770000000E+01 0. -1.
</event>
<event>
 6   1  0.3798113E-04  0.4688157E+03  0.7546771E-02  0.9472425E-01
        -11   -1    0    0    0    0  0.00000000000E+00  0.00000000000E+00  0.50000000000E+03  0.50000000000E+03  0.00000000000E+00 0. -1.
         11   -1    0    0    0    0 -0.00000000000E+00 -0.00000000000E+00 -0.50000000000E+03  0.50000000000E+03  0.00000000000E+00 0.  1.
        -11    1    1    2    0    0 -0.26561206430E+02 -0.12533334865E+02  0.47569713059E+03  0.47660291881E+03  0.00000000000E+00 0. -1.
         11    1    1    2    0    0 -0.11249618506E+02 -0.64074211688E+01 -0.46190160379E+03  0.46208300180E+03  0.00000000000E+00 0.  1.
        -15    1    1    2    0    0  0.34735614264E+02  0.40950073896E+01  0.68031087699E+01  0.35675930286E+02  0.17770000000E+01 0.  1.
         15    1    1    2    0    0  0.30752106725E+01  0.14845748644E+02 -0.20598635566E+02  0.25638149107E+02  0.17770000000E+01 0. -1.
</event>
<event>
 6   1  0.3798113E-04  0.3944722E+03  0.7546771E-02  0.9672876E-01
        -11   -1    0    0    0    0  0.00000000000E+00  0.00000000000E+00  0.50000000000E+03  0.50000000000E+03  0.00000000000E+00 0. -1.
         11   -1    0    0    0    0 -0.00000000000E+00 -0.00000000000E+00 -0.50000000000E+03  0.50000000000E+03  0.00000000000E+00 0.  1.
        -11    1    1    2    0    0 -0.83982915999E+02 -0.77518780245E+02  0.41346375939E+03  0.42896919680E+03  0.00000000000E+00 0. -1.
         11    1    1    2    0    0 -0.67757713116E+02  0.49824216386E+02 -0.36674846508E+03  0.37626851697E+03  0.00000000000E+00 0.  1.
        -15    1    1    2    0    0  0.60564377452E+02 -0.20468541024E+02  0.25511521001E+02  0.68854922994E+02  0.17770000000E+01 0. -1.
         15    1    1    2    0    0  0.91176251662E+02  0.48163104883E+02 -0.72226815314E+02  0.12590736324E+03  0.17770000000E+01 0.  1.
</event>
<event>
 6   1  0.3798113E-04  0.5004001E+03  0.7546771E-02  0.9398915E-01
        -11   -1    0    0    0    0  0.00000000000E+00  0.00000000000E+00  0.50000000000E+03  0.50000000000E+03  0.00000000000E+00 0. -1.
         11   -1    0    0    0    0 -0.00000000000E+00 -0.00000000000E+00 -0.50000000000E+03  0.50000000000E+03  0.00000000000E+00 0. -1.
        -11    1    1    2    0    0 -0.18413519717E+01 -0.20853812209E+02  0.14877831222E+03  0.15024399571E+03  0.00000000000E+00 0. -1.
         11    1    1    2    0    0  0.78364857466E+01  0.27247518458E+02 -0.49879477904E+03  0.49959990929E+03  0.00000000000E+00 0. -1.
        -15    1    1    2    0    0 -0.30045458758E+01 -0.43968870530E+01  0.24216732919E+03  0.24223239455E+03  0.17770000000E+01 0. -1.
         15    1    1    2    0    0 -0.29905878991E+01 -0.19968191962E+01  0.10784913762E+03  0.10792370045E+03  0.17770000000E+01 0. -1.
</event>
<event>
 6   1  0.3798113E-04  0.5025973E+03  0.7546771E-02  0.9394017E-01
        -11   -1    0    0    0    0  0.00000000000E+00  0.00000000000E+00  0.50000000000E+03  0.50000000000E+03  0.00000000000E+00 0.  1.
         11   -1    0    0    0    0 -0.00000000000E+00 -0.00000000000E+00 -0.50000000000E+03  0.50000000000E+03  0.00000000000E+00 0.  1.
        -11    1    1    2    0    0  0.13937995158E+02  0.11249040016E+02  0.38415059057E+03  0.38456791968E+03  0.00000000000E+00 0.  1.
         11    1    1    2    0    0  0.54946564540E+01  0.12162446096E+02 -0.49722357820E+03  0.49740265687E+03  0.00000000000E+00 0.  1.
        -15    1    1    2    0    0 -0.78982010096E+01 -0.63948867238E+01  0.63514788544E+02  0.64347200780E+02  0.17770000000E+01 0.  1.
         15    1    1    2    0    0 -0.11534450602E+02 -0.17016599388E+02  0.49558199082E+02  0.53682222669E+02  0.17770000000E+01 0.  1.
</event>
<event>
 6   1  0.3798113E-04  0.5001163E+03  0.7546771E-02  0.9399550E-01
        -11   -1    0    0    0    0  0.00000000000E+00  0.00000000000E+00  0.50000000000E+03  0.50000000000E+03  0.00000000000E+00 0. -1.
         11   -1    0    0    0    0 -0.00000000000E+00 -0.00000000000E+00 -0.50000000000E+03  0.50000000000E+03  0.00000000000E+00 0. -1.
        -11    1    1    2    0    0 -0.97492798192E+01 -0.17651533704E+02  0.49947681681E+03  0.49988370210E+03  0.00000000000E+00 0. -1.
         11    1    1    2    0    0  0.31316394010E+01  0.15397176244E+02 -0.39776970381E+03  0.39807991343E+03  0.00000000000E+00 0. -1.
        -15    1    1    2    0    0  0.43897281971E+01  0.77155129927E+00 -0.50047425461E+02  0.50276908510E+02  0.17770000000E+01 0. -1.
         15    1    1    2    0    0  0.22279122211E+01  0.14828061610E+01 -0.51659687533E+02  0.51759475963E+02  0.17770000000E+01 0. -1.
</event>
<event>
 6   1  0.3798113E-04  0.5100883E+03  0.7546771E-02  0.9377515E-01
        -11   -1    0    0    0    0  0.00000000000E+00  0.00000000000E+00  0.50000000000E+03  0.50000000000E+03  0.00000000000E+00 0.  1.
         11   -1    0    0    0    0 -0.00000000000E+00 -0.00000000000E+00 -0.50000000000E+03  0.50000000000E+03  0.00000000000E+00 0.  1.
        -11    1    1    2    0    0 -0.42507296545E+02  0.35246048917E+02  0.48678985769E+03  0.48991174692E+03  0.00000000000E+00 0.  1.
         11    1    1    2    0    0 -0.31071089714E+01 -0.48497660589E+01 -0.36932358357E+03  0.36936849315E+03  0.00000000000E+00 0.  1.
        -15    1    1    2    0    0  0.42252617192E+01  0.52313637275E+01 -0.63644385664E+02  0.64023320427E+02  0.17770000000E+01 0.  1.
         15    1    1    2    0    0  0.41389143797E+02 -0.35627646586E+02 -0.53821888457E+02  0.76696439497E+02  0.17770000000E+01 0. -1.
</event>
<event>
 6   1  0.3798113E-04  0.5003951E+03  0.7546771E-02  0.9398926E-01
        -11   -1    0    0    0    0  0.00000000000E+00  0.00000000000E+00  0.50000000000E+03  0.50000000000E+03  0.00000000000E+00 0. -1.
         11   -1    0    0    0    0 -0.00000000000E+00 -0.00000000000E+00 -0.50000000000E+03  0.50000000000E+03  0.00000000000E+00 0.  1.
        -11    1    1    2    0    0 -0.13854062479E+02 -0.73991791104E+01  0.12368955929E+03  0.12468275733E+03  0.00000000000E+00 0. -1.
         11    1    1    2    0    0  0.10544467362E+02  0.13233545694E+02 -0.49931825111E+03  0.49960487229E+03  0.00000000000E+00 0.  1.
        -15    1    1    2    0    0  0.30236225852E+00 -0.25681897520E+01  0.15782110654E+03  0.15785229305E+03  0.17770000000E+01 0.  1.
         15    1    1    2    0    0  0.30072328581E+01 -0.32661768314E+01  0.21780758528E+03  0.21786007733E+03  0.17770000000E+01 0. -1.
</event>
<event>
 6   1  0.3798113E-04  0.4822459E+03  0.7546771E-02  0.9440436E-01
        -11   -1    0    0    0    0  0.00000000000E+00  0.00000000000E+00  0.50000000000E+03  0.50000000000E+03  0.00000000000E+00 0. -1.
         11   -1    0    0    0    0 -0.00000000000E+00 -0.00000000000E+00 -0.50000000000E+03  0.50000000000E+03  0.00000000000E+00 0. -1.
        -11    1    1    2    0    0 -0.24621862379E+02 -0.93515727287E+01  0.47941013540E+03  0.48013307108E+03  0.00000000000E+00 0. -1.
         11    1    1    2    0    0 -0.75260501096E+01  0.65126964552E+01 -0.48481149083E+03  0.48491364003E+03  0.00000000000E+00 0. -1.
        -15    1    1    2    0    0  0.80955232773E+01  0.12316973113E+01 -0.36539814143E+01  0.91413283813E+01  0.17770000000E+01 0. -1.
         15    1    1    2    0    0  0.24052389211E+02  0.16071789622E+01  0.90553368430E+01  0.25811960509E+02  0.17770000000E+01 0.  1.
</event>
<event>
 6   1  0.3798113E-04  0.5012494E+03  0.7546771E-02  0.9397018E-01
        -11   -1    0    0    0    0  0.00000000000E+00  0.00000000000E+00  0.50000000000E+03  0.50000000000E+03  0.00000000000E+00 0. -1.
         11   -1    0    0    0    0 -0.00000000000E+00 -0.00000000000E+00 -0.50000000000E+03  0.50000000000E+03  0.00000000000E+00 0. -1.
        -11    1    1    2    0    0 -0.11820875918E+02  0.76076625288E+01  0.40731386047E+03  0.40755636490E+03  0.00000000000E+00 0. -1.
         11    1    1    2    0    0 -0.60325577418E+00 -0.70915256512E+01 -0.49869980175E+03  0.49875058488E+03  0.00000000000E+00 0. -1.
        -15    1    1    2    0    0  0.23552992623E+01  0.68742758604E+01  0.24088791699E+02  0.25223614288E+02  0.17770000000E+01 0. -1.
         15    1    1    2    0    0  0.10068832430E+02 -0.73904127380E+01  0.67297149579E+02  0.68469435936E+02  0.17770000000E+01 0.  1.
</event>
<event>
 6   1  0.3798113E-04  0.5001029E+03  0.7546771E-02  0.9399580E-01
        -11   -1    0    0    0    0  0.00000000000E+00  0.00000000000E+00  0.50000000000E+03  0.50000000000E+03  0.00000000000E+00 0. -1.
         11   -1    0    0    0    0 -0.00000000000E+00 -0.00000000000E+00 -0.50000000000E+03  0.50000000000E+03  0.00000000000E+00 0. -1.
        -11    1    1    2    0    0  0.36392425294E+01 -0.16672161040E+02  0.42691581426E+03  0.42725673489E+03  0.00000000000E+00 0. -1.
         11    1    1    2    0    0 -0.62428156635E+01  0.17142882345E+02 -0.49956407915E+03  0.49989710975E+03  0.00000000000E+00 0. -1.
        -15    1    1    2    0    0  0.76794942864E-02 -0.11440749598E+01  0.32980843691E+02  0.33048490828E+02  0.17770000000E+01 0. -1.
         15    1    1    2    0    0  0.25958936398E+01  0.67335365425E+00  0.39667421195E+02  0.39797664532E+02  0.17770000000E+01 0.  1.
</event>
<event>
 6   1  0.3798113E-04  0.5005841E+03  0.7546771E-02  0.9398504E-01
        -11   -1    0    0    0    0  0.00000000000E+00  0.00000000000E+00  0.50000000000E+03  0.50000000000E+03  0.00000000000E+00 0.  1.
         11   -1    0    0    0    0 -0.00000000000E+00 -0.00000000000E+00 -0.50000000000E+03  0.50000000000E+03  0.00000000000E+00 0. -1.
        -11    1    1    2    0    0 -0.13272915263E+01 -0.11195487746E+02  0.17657073515E+03  0.17693028334E+03  0.00000000000E+00 0.  1.
         11    1    1    2    0    0  0.10740642932E+02  0.67024507754E+00 -0.49929989434E+03  0.49941585390E+03  0.00000000000E+00 0. -1.
        -15    1    1    2    0    0 -0.14844246192E+02  0.37455590073E+01  0.18595215951E+03  0.18658977521E+03  0.17770000000E+01 0. -1.
         15    1    1    2    0    0  0.54308947861E+01  0.67796836607E+01  0.13677699967E+03  0.13706408756E+03  0.17770000000E+01 0.  1.
</event>
<event>
 6   1  0.3798113E-04  0.5010565E+03  0.7546771E-02  0.9397449E-01
        -11   -1    0    0    0    0  0.00000000000E+00  0.00000000000E+00  0.50000000000E+03  0.50000000000E+03  0.00000000000E+00 0.  1.
         11   -1    0    0    0    0 -0.00000000000E+00 -0.00000000000E+00 -0.50000000000E+03  0.50000000000E+03  0.00000000000E+00 0. -1.
        -11    1    1    2    0    0 -0.56004061243E+01  0.89748235097E+01  0.49883136945E+03  0.49894353102E+03  0.00000000000E+00 0.  1.
         11    1    1    2    0    0 -0.66605048789E+01  0.87155869080E+00 -0.37830844999E+03  0.37836808174E+03  0.00000000000E+00 0. -1.
        -15    1    1    2    0    0  0.90968618760E+00 -0.27176205739E+01 -0.77882910494E+02  0.77955875125E+02  0.17770000000E+01 0. -1.
         15    1    1    2    0    0  0.11351224816E+02 -0.71287616265E+01 -0.42640008960E+02  0.44732512116E+02  0.17770000000E+01 0.  1.
</event>
<event>
 6   1  0.3798113E-04  0.5003667E+03  0.7546771E-02  0.9398990E-01
        -11   -1    0    0    0    0  0.00000000000E+00  0.00000000000E+00  0.50000000000E+03  0.50000000000E+03  0.00000000000E+00 0.  1.
         11   -1    0    0    0    0 -0.00000000000E+00 -0.00000000000E+00 -0.50000000000E+03  0.50000000000E+03  0.00000000000E+00 0.  1.
        -11    1    1    2    0    0  0.33390037515E+00  0.93600247974E+01  0.38097776032E+03  0.38109286980E+03  0.00000000000E+00 0.  1.
         11    1    1    2    0    0  0.64926854788E+01 -0.78384469631E+01 -0.49952959073E+03  0.49963327374E+03  0.00000000000E+00 0.  1.
        -15    1    1    2    0    0 -0.15475245707E+01 -0.45625795590E+01  0.83098892640E+02  0.83257405986E+02  0.17770000000E+01 0.  1.
         15    1    1    2    0    0 -0.52790612833E+01  0.30410017247E+01  0.35452937765E+02  0.36016450473E+02  0.17770000000E+01 0. -1.
</event>
<event>
 6   1  0.3798113E-04  0.5250701E+03  0.7546771E-02  0.9345397E-01
        -11   -1    0    0    0    0  0.00000000000E+00  0.00000000000E+00  0.50000000000E+03  0.50000000000E+03  0.00000000000E+00 0.  1.
         11   -1    0    0    0    0 -0.00000000000E+00 -0.00000000000E+00 -0.50000000000E+03  0.50000000000E+03  0.00000000000E+00 0.  1.
        -11    1    1    2    0    0 -0.62404695666E+02  0.30303892895E+02  0.38948096351E+03  0.39561103739E+03  0.00000000000E+00 0.  1.
         11    1    1    2    0    0 -0.14525440577E+02  0.21290240546E+02 -0.47423001577E+03  0.47492985864E+03  0.00000000000E+00 0.  1.
        -15    1    1    2    0    0  0.63060141759E+02 -0.37386429953E+02  0.80839841109E+02  0.10914469416E+03  0.17770000000E+01 0.  1.
         15    1    1    2    0    0  0.13869994483E+02 -0.14207703488E+02  0.39092111485E+01  0.20314409816E+02  0.17770000000E+01 0. -1.
</event>
<event>
 6   1  0.3798113E-04  0.5002411E+03  0.7546771E-02  0.9399270E-01
        -11   -1    0    0    0    0  0.00000000000E+00  0.00000000000E+00  0.50000000000E+03  0.50000000000E+03  0.00000000000E+00 0. -1.
         11   -1    0    0    0    0 -0.00000000000E+00 -0.00000000000E+00 -0.50000000000E+03  0.50000000000E+03  0.00000000000E+00 0.  1.
        -11    1    1    2    0    0  0.82746594516E+01  0.76349861969E+01  0.42880718070E+03  0.42895496409E+03  0.00000000000E+00 0. -1.
         11    1    1    2    0    0 -0.72641597804E+01 -0.14953043695E+01 -0.49970388159E+03  0.49975891511E+03  0.00000000000E+00 0.  1.
        -15    1    1    2    0    0 -0.70314879839E+00 -0.33918743028E+01  0.28908269854E+02  0.29169247924E+02  0.17770000000E+01 0.  1.
         15    1    1    2    0    0 -0.30735087287E+00 -0.27478075245E+01  0.41988431040E+02  0.42116872877E+02  0.17770000000E+01 0.  1.
</event>
<event>
 6   1  0.3798113E-04  0.5214105E+03  0.7546771E-02  0.9353137E-01
        -11   -1    0    0    0    0  0.00000000000E+00  0.00000000000E+00  0.50000000000E+03  0.50000000000E+03  0.00000000000E+00 0. -1.
         11   -1    0    0    0    0 -0.00000000000E+00 -0.00000000000E+00 -0.50000000000E+03  0.50000000000E+03  0.00000000000E+00 0. -1.
        -11    1    1    2    0    0  0.51266898084E+02 -0.38667821550E+02  0.29505193376E+03  0.30195883640E+03  0.00000000000E+00 0. -1.
         11    1    1    2    0    0  0.58217765152E+01  0.89392681770E+01 -0.47847063499E+03  0.47858954454E+03  0.00000000000E+00 0. -1.
        -15    1    1    2    0    0  0.24906903220E+02  0.15042411156E+02  0.88369861720E+02  0.93053845438E+02  0.17770000000E+01 0. -1.
         15    1    1    2    0    0 -0.81995577820E+02  0.14686142217E+02  0.95048839506E+02  0.12639777362E+03  0.17770000000E+01 0.  1.
</event>
<event>
 6   1  0.3798113E-04  0.5020535E+03  0.7546771E-02  0.9395227E-01
        -11   -1    0    0    0    0  0.00000000000E+00  0.00000000000E+00  0.50000000000E+03  0.50000000000E+03  0.00000000000E+00 0. -1.
         11   -1    0    0    0    0 -0.00000000000E+00 -0.00000000000E+00 -0.50000000000E+03  0.50000000000E+03  0.00000000000E+00 0. -1.
        -11    1    1    2    0    0 -0.11165610254E+00 -0.20546762839E+02  0.49752240442E+03  0.49794650800E+03  0.00000000000E+00 0. -1.
         11    1    1    2    0    0 -0.72719487679E+01 -0.19609376555E+01 -0.33731975160E+03  0.33740382531E+03  0.00000000000E+00 0. -1.
        -15    1    1    2    0    0  0.14384647880E+02  0.39067600447E+01 -0.38517004129E+02  0.41338822005E+02  0.17770000000E+01 0.  1.
         15    1    1    2    0    0 -0.70010430096E+01  0.18600940450E+02 -0.12168564869E+03  0.12331084468E+03  0.17770000000E+01 0. -1.
</event>
<event>
 6   1  0.3798113E-04  0.5110458E+03  0.7546771E-02  0.9375428E-01
        -11   -1    0    0    0    0  0.00000000000E+00  0.00000000000E+00  0.50000000000E+03  0.50000000000E+03  0.00000000000E+00 0.  1.
         11   -1    0    0    0    0 -0.00000000000E+00 -0.00000000000E+00 -0.50000000000E+03  0.50000000000E+03  0.00000000000E+00 0. -1.
        -11    1    1    2    0    0  0.18061794971E+02  0.27466022598E+02  0.41981172577E+03  0.42109677739E+03  0.00000000000E+00 0.  1.
         11    1    1    2    0    0 -0.39230917010E+01  0.70420169487E+01 -0.48888778059E+03  0.48895423370E+03  0.00000000000E+00 0. -1.
        -15    1    1    2    0    0 -0.15978849164E+02 -0.30108130776E+02  0.74842349502E+02  0.82257876020E+02  0.17770000000E+01 0. -1.
         15    1    1    2    0    0  0.18401458937E+01 -0.43999087707E+01 -0.57662946818E+01  0.76911128881E+01  0.17770000000E+01 0.  1.
</event>
<event>
 6   1  0.3798113E-04  0.5023177E+03  0.7546771E-02  0.9394638E-01
        -11   -1    0    0    0    0  0.00000000000E+00  0.00000000000E+00  0.50000000000E+03  0.50000000000E+03  0.00000000000E+00 0.  1.
         11   -1    0    0    0    0 -0.00000000000E+00 -0.00000000000E+00 -0.50000000000E+03  0.50000000000E+03  0.00000000000E+00 0. -1.
        -11    1    1    2    0    0  0.92765136516E+01  0.11107459972E+02  0.49747181216E+03  0.49768226135E+03  0.00000000000E+00 0.  1.
         11    1    1    2    0    0 -0.62790197991E+01  0.69555522020E+00 -0.46373299045E+03  0.46377601956E+03  0.00000000000E+00 0. -1.
        -15    1    1    2    0    0 -0.49440725057E+01 -0.11645114298E+02 -0.15379425895E+02  0.19993424165E+02  0.17770000000E+01 0. -1.
         15    1    1    2    0    0  0.19465786532E+01 -0.15790089395E+00 -0.18359395811E+02  0.18548294927E+02  0.17770000000E+01 0.  1.
</event>
<event>
 6   1  0.3798113E-04  0.5053814E+03  0.7546771E-02  0.9387848E-01
        -11   -1    0    0    0    0  0.00000000000E+00  0.00000000000E+00  0.50000000000E+03  0.50000000000E+03  0.00000000000E+00 0.  1.
         11   -1    0    0    0    0 -0.00000000000E+00 -0.00000000000E+00 -0.50000000000E+03  0.50000000000E+03  0.00000000000E+00 0. -1.
        -11    1    1    2    0    0 -0.10949128474E+02  0.32238686805E+00  0.47376638385E+03  0.47389299828E+03  0.00000000000E+00 0.  1.
         11    1    1    2    0    0 -0.39891160462E+00 -0.68563286173E+01 -0.49457095111E+03  0.49461863497E+03  0.00000000000E+00 0. -1.
        -15    1    1    2    0    0  0.67472998195E+00 -0.29561635292E+01  0.15899241982E+02  0.16283052169E+02  0.17770000000E+01 0.  1.
         15    1    1    2    0    0  0.10673310097E+02  0.94901052785E+01  0.49053252793E+01  0.15205314588E+02  0.17770000000E+01 0. -1.
</event>
<event>
 6   1  0.3798113E-04  0.5013510E+03  0.7546771E-02  0.9396792E-01
        -11   -1    0    0    0    0  0.00000000000E+00  0.00000000000E+00  0.50000000000E+03  0.50000000000E+03  0.00000000000E+00 0. -1.
         11   -1    0    0    0    0 -0.00000000000E+00 -0.00000000000E+00 -0.50000000000E+03  0.50000000000E+03  0.00000000000E+00 0.  1.
        -11    1    1    2    0    0 -0.92324916213E+01  0.80644489256E+01  0.49849834143E+03  0.49864904556E+03  0.00000000000E+00 0. -1.
         11    1    1    2    0    0 -0.69602588130E+01 -0.72689140836E+00 -0.42549464890E+03  0.42555219400E+03  0.00000000000E+00 0.  1.
        -15    1    1    2    0    0  0.10677948111E+02 -0.81757791457E+01 -0.38929518727E+02  0.41225321076E+02  0.17770000000E+01 0.  1.
         15    1    1    2    0    0  0.55148023232E+01  0.83822162850E+00 -0.34074173798E+02  0.34573439360E+02  0.17770000000E+01 0. -1.
</event>
<event>
 6   1  0.3798113E-04  0.4853927E+03  0.7546771E-02  0.9433101E-01
        -11   -1    0    0    0    0  0.00000000000E+00  0.00000000000E+00  0.50000000000E+03  0.50000000000E+03  0.00000000000E+00 0. -1.
         11   -1    0    0    0    0 -0.00000000000E+00 -0.00000000000E+00 -0.50000000000E+03  0.50000000000E+03  0.00000000000E+00 0.  1.
        -11    1    1    2    0    0 -0.15325965199E+02  0.49271895976E+01  0.49022411486E+03  0.49048837417E+03  0.00000000000E+00 0. -1.
         11    1    1    2    0    0 -0.88893035285E+01  0.29557993496E+01 -0.48058740985E+03  0.48067870243E+03  0.00000000000E+00 0.  1.
        -15    1    1    2    0    0  0.15227321468E+01 -0.95629617604E+00  0.10664142426E+01  0.27437536158E+01  0.17770000000E+01 0. -1.
         15    1    1    2    0    0  0.22692536581E+02 -0.69266927712E+01 -0.10703119256E+02  0.26089169784E+02  0.17770000000E+01 0.  1.
</event>
<event>
 6   1  0.3798113E-04  0.5017570E+03  0.7546771E-02  0.9395887E-01
        -11   -1    0    0    0    0  0.00000000000E+00  0.00000000000E+00  0.50000000000E+03  0.50000000000E+03  0.00000000000E+00 0.  1.
         11   -1    0    0    0    0 -0.00000000000E+00 -0.00000000000E+00 -0.50000000000E+03  0.50000000000E+03  0.00000000000E+00 0. -1.
        -11    1    1    2    0    0  0.18196402930E+02 -0.34460511998E+02  0.16677806851E+03  0.17127042974E+03  0.00000000000E+00 0.  1.
         11    1    1    2    0    0  0.52484163409E+01  0.45117240237E+02 -0.49616829006E+03  0.49824299624E+03  0.00000000000E+00 0. -1.
        -15    1    1    2    0    0 -0.19838214560E+02 -0.83804621986E+01  0.29450975657E+03  0.29530144149E+03  0.17770000000E+01 0.  1.
         15    1    1    2    0    0 -0.36066047104E+01 -0.22762660396E+01  0.34880464987E+02  0.35185132532E+02  0.17770000000E+01 0.  1.
</event>
<event>
 6   1  0.3798113E-04  0.5017240E+03  0.7546771E-02  0.9395960E-01
        -11   -1    0    0    0    0  0.00000000000E+00  0.00000000000E+00  0.50000000000E+03  0.50000000000E+03  0.00000000000E+00 0.  1.
         11   -1    0    0    0    0 -0.00000000000E+00 -0.00000000000E+00 -0.50000000000E+03  0.50000000000E+03  0.00000000000E+00 0.  1.
        -11    1    1    2    0    0 -0.15906732159E+02  0.82486664385E+01  0.46008519998E+03  0.46043398644E+03  0.00000000000E+00 0.  1.
         11    1    1    2    0    0  0.60697513405E+01 -0.16311772271E+02 -0.49797189478E+03  0.49827595144E+03  0.00000000000E+00 0.  1.
        -15    1    1    2    0    0  0.86812979865E+01  0.90753910274E+00  0.19086413728E+02  0.21062703529E+02  0.17770000000E+01 0.  1.
         15    1    1    2    0    0  0.11556828322E+01  0.71555667293E+01  0.18800281068E+02  0.20227358584E+02  0.17770000000E+01 0. -1.
</event>
<event>
 6   1  0.3798113E-04  0.4664736E+03  0.7546771E-02  0.9478120E-01
        -11   -1    0    0    0    0  0.00000000000E+00  0.00000000000E+00  0.50000000000E+03  0.50000000000E+03  0.00000000000E+00 0.  1.
         11   -1    0    0    0    0 -0.00000000000E+00 -0.00000000000E+00 -0.50000000000E+03  0.50000000000E+03  0.00000000000E+00 0.  1.
        -11    1    1    2    0    0 -0.15436027822E+02  0.18373376654E+02  0.47671239781E+03  0.47731599822E+03  0.00000000000E+00 0.  1.
         11    1    1    2    0    0  0.11721331316E+02  0.16944011649E+02 -0.45606985334E+03  0.45653499348E+03  0.00000000000E+00 0.  1.
        -15    1    1    2    0    0 -0.62320929301E+01 -0.19505759593E+02  0.15286280729E+02  0.25615263947E+02  0.17770000000E+01 0.  1.
         15    1    1    2    0    0  0.99467894365E+01 -0.15811628710E+02 -0.35928825198E+02  0.40533744358E+02  0.17770000000E+01 0. -1.
</event>
<event>
 6   1  0.3798113E-04  0.5006401E+03  0.7546771E-02  0.9398379E-01
        -11   -1    0    0    0    0  0.00000000000E+00  0.00000000000E+00  0.50000000000E+03  0.50000000000E+03  0.00000000000E+00 0. -1.
         11   -1    0    0    0    0 -0.00000000000E+00 -0.00000000000E+00 -0.50000000000E+03  0.50000000000E+03  0.00000000000E+00 0.  1.
        -11    1    1    2    0    0  0.66808689439E+02 -0.27040850010E+01  0.49486321862E+03  0.49935990849E+03  0.00000000000E+00 0. -1.
         11    1    1    2    0    0 -0.43896753492E+02 -0.74705515161E+00 -0.40784900838E+03  0.41020518852E+03  0.00000000000E+00 0.  1.
        -15    1    1    2    0    0 -0.18343563875E+02  0.35585336176E+01 -0.56680652465E+02  0.59707651018E+02  0.17770000000E+01 0.  1.
         15    1    1    2    0    0 -0.45683720722E+01 -0.10739346504E+00 -0.30333557783E+02  0.30727251968E+02  0.17770000000E+01 0. -1.
</event>
<event>
 6   1  0.3798113E-04  0.5062013E+03  0.7546771E-02  0.9386040E-01
        -11   -1    0    0    0    0  0.00000000000E+00  0.00000000000E+00  0.50000000000E+03  0.50000000000E+03  0.00000000000E+00 0.  1.
         11   -1    0    0    0    0 -0.00000000000E+00 -0.00000000000E+00 -0.50000000000E+03  0.50000000000E+03  0.00000000000E+00 0. -1.
        -11    1    1    2    0    0  0.16377510176E+02 -0.28958048965E+01  0.46361549027E+03  0.46391371109E+03  0.00000000000E+00 0.  1.
         11    1    1    2    0    0  0.23295797843E+01  0.14821779912E+02 -0.49357067687E+03  0.49379866866E+03  0.00000000000E+00 0. -1.
        -15    1    1    2    0    0 -0.53825005122E+01 -0.69986034990E+01 -0.88951338768E-01  0.90065200850E+01  0.17770000000E+01 0. -1.
         15    1    1    2    0    0 -0.13324589448E+02 -0.49273715169E+01  0.30044137945E+02  0.33281100160E+02  0.17770000000E+01 0.  1.
</event>
<event>
 6   1  0.3798113E-04  0.5044367E+03  0.7546771E-02  0.9389937E-01
        -11   -1    0    0    0    0  0.00000000000E+00  0.00000000000E+00  0.50000000000E+03  0.50000000000E+03  0.00000000000E+00 0. -1.
         11   -1    0    0    0    0 -0.00000000000E+00 -0.00000000000E+00 -0.50000000000E+03  0.50000000000E+03  0.00000000000E+00 0.  1.
        -11    1    1    2    0    0  0.36938327172E+01 -0.22838829470E+02  0.23681493232E+02  0.33106942677E+02  0.00000000000E+00 0. -1.
         11    1    1    2    0    0 -0.95116600220E+01  0.26105228577E+02 -0.49478384878E+03  0.49556332759E+03  0.00000000000E+00 0.  1.
        -15    1    1    2    0    0 -0.32079181629E+01 -0.30100063008E+01  0.99022726166E+02  0.99136314755E+02  0.17770000000E+01 0.  1.
         15    1    1    2    0    0  0.90257454677E+01 -0.25639280606E+00  0.37207962939E+03  0.37219341498E+03  0.17770000000E+01 0. -1.
</event>
<event>
 6   1  0.3798113E-04  0.5030638E+03  0.7546771E-02  0.9392980E-01
        -11   -1    0    0    0    0  0.00000000000E+00  0.00000000000E+00  0.50000000000E+03  0.50000000000E+03  0.00000000000E+00 0.  1.
         11   -1    0    0    0    0 -0.00000000000E+00 -0.00000000000E+00 -0.50000000000E+03  0.50000000000E+03  0.00000000000E+00 0. -1.
        -11    1    1    2    0    0  0.68697705665E+01  0.24387202754E+02  0.33761173414E+03  0.33856109114E+03  0.00000000000E+00 0.  1.
         11    1    1    2    0    0 -0.53027789602E+01  0.84823425338E+01 -0.49683554345E+03  0.49693624021E+03  0.00000000000E+00 0. -1.
        -15    1    1    2    0    0 -0.67619298671E+01 -0.33836943709E+02  0.14788151252E+03  0.15186428787E+03  0.17770000000E+01 0.  1.
         15    1    1    2    0    0  0.51949382608E+01  0.96739842084E+00  0.11342296789E+02  0.12638380778E+02  0.17770000000E+01 0. -1.
</event>
<event>
 6   1  0.3798113E-04  0.5018815E+03  0.7546771E-02  0.9395610E-01
        -11   -1    0    0    0    0  0.00000000000E+00  0.00000000000E+00  0.50000000000E+03  0.50000000000E+03  0.00000000000E+00 0. -1.
         11   -1    0    0    0    0 -0.00000000000E+00 -0.00000000000E+00 -0.50000000000E+03  0.50000000000E+03  0.00000000000E+00 0. -1.
        -11    1    1    2    0    0 -0.57232517474E+01  0.63654585222E+01  0.49804495011E+03  0.49811850698E+03  0.00000000000E+00 0. -1.
         11    1    1    2    0    0 -0.63368809027E+01 -0.39443763373E+01 -0.47159009316E+03  0.47164916000E+03  0.00000000000E+00 0. -1.
        -15    1    1    2    0    0  0.45305070214E+01 -0.94534197012E+00 -0.18031029885E+02  0.18700131898E+02  0.17770000000E+01 0.  1.
         15    1    1    2    0    0  0.75296256287E+01 -0.14757402147E+01 -0.84238270636E+01  0.11532201121E+02  0.17770000000E+01 0. -1.
</event>
<event>
 6   1  0.3798113E-04  0.5030916E+03  0.7546771E-02  0.9392918E-01
        -11   -1    0    0    0    0  0.00000000000E+00  0.00000000000E+00  0.50000000000E+03  0.50000000000E+03  0.00000000000E+00 0.  1.
         11   -1    0    0    0    0 -0.00000000000E+00 -0.00000000000E+00 -0.50000000000E+03  0.50000000000E+03  0.00000000000E+00 0. -1.
        -11    1    1    2    0    0 -0.94361887504E+01  0.65289482357E+01  0.41553789625E+03  0.41569629784E+03  0.00000000000E+00 0.  1.
         11    1    1    2    0    0  0.45776089023E+01  0.15035001237E+02 -0.49665978297E+03  0.49690838772E+03  0.00000000000E+00 0. -1.
        -15    1    1    2    0    0 -0.12394980401E+01 -0.25044039326E+02  0.66102949387E+02  0.70721269133E+02  0.17770000000E+01 0. -1.
         15    1    1    2    0    0  0.60980778882E+01  0.34800898533E+01  0.15018937331E+02  0.16674045306E+02  0.17770000000E+01 0.  1.
</event>
<event>
 6   1  0.3798113E-04  0.5000672E+03  0.7546771E-02  0.9399659E-01
        -11   -1    0    0    0    0  0.00000000000E+00  0.00000000000E+00  0.50000000000E+03  0.50000000000E+03  0.00000000000E+00 0.  1.
         11   -1    0    0    0    0 -0.00000000000E+00 -0.00000000000E+00 -0.50000000000E+03  0.50000000000E+03  0.00000000000E+00 0. -1.
        -11    1    1    2    0    0  0.85679417026E+01  0.65016207787E+01  0.49981706377E+03  0.49993277341E+03  0.00000000000E+00 0.  1.
         11    1    1    2    0    0 -0.15534325280E+00 -0.27282359115E+01 -0.15901753803E+03  0.15904101611E+03  0.00000000000E+00 0. -1.
        -15    1    1    2    0    0 -0.23202469296E+01  0.18824468753E+01 -0.14586806144E+03  0.14590947957E+03  0.17770000000E+01 0. -1.
         15    1    1    2    0    0 -0.60923515202E+01 -0.56558317425E+01 -0.19493146429E+03  0.19511673091E+03  0.17770000000E+01 0.  1.
</event>
<event>
 6   1  0.3798113E-04  0.4850849E+03  0.7546771E-02  0.9433816E-01
        -11   -1    0    0    0    0  0.00000000000E+00  0.00000000000E+00  0.50000000000E+03  0.50000000000E+03  0.00000000000E+00 0. -1.
         11   -1    0    0    0    0 -0.00000000000E+00 -0.00000000000E+00 -0.50000000000E+03  0.50000000000E+03  0.00000000000E+00 0.  1.
        -11    1    1    2    0    0 -0.28311437997E+02  0.11771621959E+01 -0.11099244911E+02  0.30432161768E+02  0.00000000000E+00 0. -1.
         11    1    1    2    0    0  0.66149066865E+01 -0.42811972980E+01 -0.47842337680E+03  0.47848825807E+03  0.00000000000E+00 0.  1.
        -15    1    1    2    0    0  0.83722689062E+00 -0.26915025152E+01  0.46499151020E+01  0.57205396696E+01  0.17770000000E+01 0. -1.
         15    1    1    2    0    0  0.20859304420E+02  0.57955376174E+01  0.48487270661E+03  0.48535904049E+03  0.17770000000E+01 0. -1.
</event>
<event>
 6   1  0.3798113E-04  0.5036037E+03  0.7546771E-02  0.9391782E-01
        -11   -1    0    0    0    0  0.00000000000E+00  0.00000000000E+00  0.50000000000E+03  0.50000000000E+03  0.00000000000E+00 0. -1.
         11   -1    0    0    0    0 -0.00000000000E+00 -0.00000000000E+00 -0.50000000000E+03  0.50000000000E+03  0.00000000000E+00 0. -1.
        -11    1    1    2    0    0 -0.92879186509E+01 -0.14105586086E+02  0.39346395330E+03  0.39382625044E+03  0.00000000000E+00 0. -1.
         11    1    1    2    0    0  0.50660495392E+01 -0.17356009816E+02 -0.49606687346E+03  0.49639625188E+03  0.00000000000E+00 0. -1.
        -15    1    1    2    0    0  0.47814928358E+01  0.14175677311E+02  0.79217149466E+02  0.80637007630E+02  0.17770000000E+01 0. -1.
         15    1    1    2    0    0 -0.55962372412E+00  0.17285918591E+02  0.23385770699E+02  0.29140490051E+02  0.17770000000E+01 0.  1.
</event>
<event>
 6   1  0.3798113E-04  0.4848345E+03  0.7546771E-02  0.9434398E-01
        -11   -1    0    0    0    0  0.00000000000E+00  0.00000000000E+00  0.50000000000E+03  0.50000000000E+03  0.00000000000E+00 0.  1.
         11   -1    0    0    0    0 -0.00000000000E+00 -0.00000000000E+00 -0.50000000000E+03  0.50000000000E+03  0.00000000000E+00 0. -1.
        -11    1    1    2    0    0  0.16958219617E+02  0.15989241668E+02  0.48749545687E+03  0.48805231024E+03  0.00000000000E+00 0.  1.
         11    1    1    2    0    0  0.50809537921E+01 -0.62017846840E+01 -0.48186613436E+03  0.48193282692E+03  0.00000000000E+00 0. -1.
        -15    1    1    2    0    0 -0.23960289641E+02 -0.10439303738E+02 -0.32102854768E+01  0.26392010231E+02  0.17770000000E+01 0. -1.
         15    1    1    2    0    0  0.19211162322E+01  0.65184675356E+00 -0.24190370389E+01  0.36228526003E+01  0.17770000000E+01 0. -1.
</event>
<event>
 6   1  0.3798113E-04  0.5103162E+03  0.7546771E-02  0.9377018E-01
        -11   -1    0    0    0    0  0.00000000000E+00  0.00000000000E+00  0.50000000000E+03  0.50000000000E+03  0.00000000000E+00 0. -1.
         11   -1    0    0    0    0 -0.00000000000E+00 -0.00000000000E+00 -0.50000000000E+03  0.50000000000E+03  0.00000000000E+00 0. -1.
        -11    1    1    2    0    0  0.36734630282E+01 -0.53939463341E+02  0.41792621798E+03  0.42140868964E+03  0.00000000000E+00 0. -1.
         11    1    1    2    0    0  0.17339854672E+02  0.11057673211E+02 -0.48925174423E+03  0.48968378769E+03  0.00000000000E+00 0. -1.
        -15    1    1    2    0    0 -0.20280855946E+02  0.22160065993E+02  0.29243537856E+02  0.41960980423E+02  0.17770000000E+01 0.  1.
         15    1    1    2    0    0 -0.73246175468E+00  0.20721724137E+02  0.42081988399E+02  0.46946542237E+02  0.17770000000E+01 0. -1.
</event>
<event>
 6   1  0.3798113E-04  0.5063822E+03  0.7546771E-02  0.9385641E-01
        -11   -1    0    0    0    0  0.00000000000E+00  0.00000000000E+00  0.50000000000E+03  0.50000000000E+03  0.00000000000E+00 0.  1.
         11   -1    0    0    0    0 -0.00000000000E+00 -0.00000000000E+00 -0.50000000000E+03  0.50000000000E+03  0.00000000000E+00 0. -1.
        -11    1    1    2    0    0  0.24638521753E+02 -0.30538577752E+02  0.40995730278E+03  0.41183085313E+03  0.00000000000E+00 0.  1.
         11    1    1    2    0    0  0.44309791412E+01  0.12633552477E+02 -0.49343618166E+03  0.49361777277E+03  0.00000000000E+00 0. -1.
        -15    1    1    2    0    0 -0.22329982018E+02  0.14055695973E+01  0.26006077780E+02  0.34352256598E+02  0.17770000000E+01 0.  1.
         15    1    1    2    0    0 -0.67395188755E+01  0.16499455678E+02  0.57472801103E+02  0.60199117501E+02  0.17770000000E+01 0. -1.
</event>
<event>
 6   1  0.3798113E-04  0.5002206E+03  0.7546771E-02  0.9399316E-01
        -11   -1    0    0    0    0  0.00000000000E+00  0.00000000000E+00  0.50000000000E+03  0.50000000000E+03  0.00000000000E+00 0.  1.
         11   -1    0    0    0    0 -0.00000000000E+00 -0.00000000000E+00 -0.50000000000E+03  0.50000000000E+03  0.00000000000E+00 0. -1.
        -11    1    1    2    0    0  0.38468082578E+00  0.43710226435E+01  0.54895924057E+02  0.55071011397E+02  0.00000000000E+00 0.  1.
         11    1    1    2    0    0  0.82952696371E+01  0.11268909689E+01 -0.49970927234E+03  0.49977938957E+03  0.00000000000E+00 0. -1.
        -15    1    1    2    0    0 -0.64775962337E+01 -0.12244369626E+01  0.39764130327E+03  0.39769991488E+03  0.17770000000E+01 0.  1.
         15    1    1    2    0    0 -0.22023542292E+01 -0.42734766499E+01  0.47172045008E+02  0.47449684151E+02  0.17770000000E+01 0. -1.
</event>
<event>
 6   1  0.3798113E-04  0.5031204E+03  0.7546771E-02  0.9392855E-01
        -11   -1    0    0    0    0  0.00000000000E+00  0.00000000000E+00  0.50000000000E+03  0.50000000000E+03  0.00000000000E+00 0. -1.
         11   -1    0    0    0    0 -0.00000000000E+00 -0.00000000000E+00 -0.50000000000E+03  0.50000000000E+03  0.00000000000E+00 0.  1.
        -11    1    1    2    0    0  0.65241549218E+01  0.44942419858E+01  0.49681643119E+03  0.49687959217E+03  0.00000000000E+00 0. -1.
         11    1    1    2    0    0 -0.23456661081E+01  0.67719766633E+01 -0.48394767019E+03  0.48400073275E+03  0.00000000000E+00 0.  1.
        -15    1    1    2    0    0 -0.50863450254E+01 -0.55706089755E+01 -0.50800533068E+01  0.92664589071E+01  0.17770000000E+01 0.  1.
         15    1    1    2    0    0  0.90785621171E+00 -0.56956096735E+01 -0.77887076970E+01  0.98532161776E+01  0.17770000000E+01 0. -1.
</event>
<event>
 6   1  0.3798113E-04  0.5068436E+03  0.7546771E-02  0.9384626E-01
        -11   -1    0    0    0    0  0.00000000000E+00  0.00000000000E+00  0.50000000000E+03  0.50000000000E+03  0.00000000000E+00 0.  1.
         11   -1    0    0    0    0 -0.00000000000E+00 -0.00000000000E+00 -0.50000000000E+03  0.50000000000E+03  0.00000000000E+00 0. -1.
        -11    1    1    2    0    0 -0.22112319635E+02 -0.68232242234E+02  0.48791256583E+03  0.49315643102E+03  0.00000000000E+00 0.  1.
         11    1    1    2    0    0  0.46723945146E+01  0.29281666953E+02 -0.40024464227E+03  0.40134152658E+03  0.00000000000E+00 0. -1.
        -15    1    1    2    0    0 -0.64742211316E+01 -0.43120565095E+01 -0.58491787667E+01  0.98934317528E+01  0.17770000000E+01 0.  1.
         15    1    1    2    0    0  0.23914146252E+02  0.43262631791E+02 -0.81818744800E+02  0.95608610648E+02  0.17770000000E+01 0. -1.
</event>
<event>
 6   1  0.3798113E-04  0.5075506E+03  0.7546771E-02  0.9383071E-01
        -11   -1    0    0    0    0  0.00000000000E+00  0.00000000000E+00  0.50000000000E+03  0.50000000000E+03  0.00000000000E+00 0. -1.
         11   -1    0    0    0    0 -0.00000000000E+00 -0.00000000000E+00 -0.50000000000E+03  0.50000000000E+03  0.00000000000E+00 0. -1.
        -11    1    1    2    0    0  0.99852461356E+01  0.16990186575E+02  0.47199624358E+03  0.47240747828E+03  0.00000000000E+00 0. -1.
         11    1    1    2    0    0 -0.20814286575E+01  0.74719322710E+01 -0.49238827712E+03  0.49244936548E+03  0.00000000000E+00 0. -1.
        -15    1    1    2    0    0 -0.14219901861E+01 -0.12881029091E+02  0.34110190846E+01  0.13517978648E+02  0.17770000000E+01 0.  1.
         15    1    1    2    0    0 -0.64818272920E+01 -0.11581089754E+02  0.16981014455E+02  0.21625177591E+02  0.17770000000E+01 0. -1.
</event>
<event>
 6   1  0.3798113E-04  0.5003132E+03  0.7546771E-02  0.9399109E-01
        -11   -1    0    0    0    0  0.00000000000E+00  0.00000000000E+00  0.50000000000E+03  0.50000000000E+03  0.00000000000E+00 0.  1.
         11   -1    0    0    0    0 -0.00000000000E+00 -0.00000000000E+00 -0.50000000000E+03  0.50000000000E+03  0.00000000000E+00 0.  1.
        -11    1    1    2    0    0  0.91605243099E+01  0.52009571270E+01  0.12691111030E+03  0.12734753660E+03  0.00000000000E+00 0.  1.
         11    1    1    2    0    0 -0.27530166028E+00 -0.96753103254E+01 -0.49959301796E+03  0.49968677290E+03  0.00000000000E+00 0.  1.
        -15    1    1    2    0    0 -0.75687288688E+00  0.57057689465E+01  0.13323655092E+03  0.13337265419E+03  0.17770000000E+01 0.  1.
         15    1    1    2    0    0 -0.81283497627E+01 -0.12314157480E+01  0.23944535674E+03  0.23959303631E+03  0.17770000000E+01 0. -1.
</event>
<event>
 6   1  0.3798113E-04  0.5001607E+03  0.7546771E-02  0.9399450E-01
        -11   -1    0    0    0    0  0.00000000000E+00  0.00000000000E+00  0.50000000000E+03  0.50000000000E+03  0.00000000000E+00 0. -1.
         11   -1    0    0    0    0 -0.00000000000E+00 -0.00000000000E+00 -0.50000000000E+03  0.50000000000E+03  0.00000000000E+00 0.  1.
        -11    1    1    2    0    0  0.13521084630E+01 -0.74123513832E+01  0.49978246935E+03  0.49983926198E+03  0.00000000000E+00 0. -1.
         11    1    1    2    0    0 -0.20526739448E+01  0.29793543911E+01 -0.25552044762E+03  0.25554606077E+03  0.00000000000E+00 0.  1.
        -15    1    1    2    0    0  0.11220359505E+01  0.80069670840E+01 -0.19994166018E+03  0.20011295733E+03  0.17770000000E+01 0.  1.
         15    1    1    2    0    0 -0.42147046875E+00 -0.35739700918E+01 -0.44320361537E+02  0.44501719914E+02  0.17770000000E+01 0. -1.
</event>
<event>
 6   1  0.3798113E-04  0.5002350E+03  0.7546771E-02  0.9399284E-01
        -11   -1    0    0    0    0  0.00000000000E+00  0.00000000000E+00  0.50000000000E+03  0.50000000000E+03  0.00000000000E+00 0.  1.
         11   -1    0    0    0    0 -0.00000000000E+00 -0.00000000000E+00 -0.50000000000E+03  0.50000000000E+03  0.00000000000E+00 0.  1.
        -11    1    1    2    0    0  0.95340810617E+01  0.24100617670E+00  0.99129083289E+02  0.99586806051E+02  0.00000000000E+00 0.  1.
         11    1    1    2    0    0 -0.67716410532E+01 -0.38721130038E+01 -0.49970407524E+03  0.49976495595E+03  0.00000000000E+00 0.  1.
        -15    1    1    2    0    0 -0.24953431466E+01  0.42356602111E+01  0.34765040413E+03  0.34768970186E+03  0.17770000000E+01 0.  1.
         15    1    1    2    0    0 -0.26709686189E+00 -0.60455338399E+00  0.52924587821E+02  0.52958536144E+02  0.17770000000E+01 0.  1.
</event>
<event>
 6   1  0.3798113E-04  0.5017268E+03  0.7546771E-02  0.9395954E-01
        -11   -1    0    0    0    0  0.00000000000E+00  0.00000000000E+00  0.50000000000E+03  0.50000000000E+03  0.00000000000E+00 0. -1.
         11   -1    0    0    0    0 -0.00000000000E+00 -0.00000000000E+00 -0.50000000000E+03  0.50000000000E+03  0.00000000000E+00 0. -1.
        -11    1    1    2    0    0  0.18221205671E+02  0.60392899423E+01  0.32236905456E+03  0.32294007602E+03  0.00000000000E+00 0. -1.
         11    1    1    2    0    0 -0.82702319413E+01  0.10939698340E+02 -0.49808441762E+03  0.49827317890E+03  0.00000000000E+00 0. -1.
        -15    1    1    2    0    0 -0.14506627936E+02 -0.83791876316E+01  0.15406392949E+03  0.15498227363E+03  0.17770000000E+01 0. -1.
         15    1    1    2    0    0  0.45556542062E+01 -0.85998006507E+01  0.21651433573E+02  0.23804471454E+02  0.17770000000E+01 0.  1.
</event>
<event>
 6   1  0.3798113E-04  0.5068250E+03  0.7546771E-02  0.9384667E-01
        -11   -1    0    0    0    0  0.00000000000E+00  0.00000000000E+00  0.50000000000E+03  0.50000000000E+03  0.00000000000E+00 0.  1.
         11   -1    0    0    0    0 -0.00000000000E+00 -0.00000000000E+00 -0.50000000000E+03  0.50000000000E+03  0.00000000000E+00 0.  1.
        -11    1    1    2    0    0  0.10826135683E+02  0.10989414900E+02  0.49293371165E+03  0.49317503641E+03  0.00000000000E+00 0.  1.
         11    1    1    2    0    0  0.68654259740E+01  0.77310215940E+01 -0.47351388201E+03  0.47362675096E+03  0.00000000000E+00 0.  1.
        -15    1    1    2    0    0 -0.12004735717E+01 -0.38618402872E+01 -0.49842383645E+01  0.66599780986E+01  0.17770000000E+01 0.  1.
         15    1    1    2    0    0 -0.16491088086E+02 -0.14858596207E+02 -0.14435591275E+02  0.26538234530E+02  0.17770000000E+01 0. -1.
</event>
<event>
 6   1  0.3798113E-04  0.5003370E+03  0.7546771E-02  0.9399056E-01
        -11   -1    0    0    0    0  0.00000000000E+00  0.00000000000E+00  0.50000000000E+03  0.50000000000E+03  0.00000000000E+00 0.  1.
         11   -1    0    0    0    0 -0.00000000000E+00 -0.00000000000E+00 -0.50000000000E+03  0.50000000000E+03  0.00000000000E+00 0. -1.
        -11    1    1    2    0    0 -0.13826481556E+02  0.21756818648E-01  0.33782523573E+03  0.33810806255E+03  0.00000000000E+00 0.  1.
         11    1    1    2    0    0  0.84480658784E+01  0.33619635051E+01 -0.49958027198E+03  0.49966300720E+03  0.00000000000E+00 0. -1.
        -15    1    1    2    0    0 -0.19583661922E+01 -0.40225559919E+01  0.63887222128E+02  0.64068330984E+02  0.17770000000E+01 0.  1.
         15    1    1    2    0    0  0.73367818699E+01  0.63883566817E+00  0.97867814123E+02  0.98160599272E+02  0.17770000000E+01 0. -1.
</event>
<event>
 6   1  0.3798113E-04  0.5071865E+03  0.7546771E-02  0.9383872E-01
        -11   -1    0    0    0    0  0.00000000000E+00  0.00000000000E+00  0.50000000000E+03  0.50000000000E+03  0.00000000000E+00 0.  1.
         11   -1    0    0    0    0 -0.00000000000E+00 -0.00000000000E+00 -0.50000000000E+03  0.50000000000E+03  0.00000000000E+00 0. -1.
        -11    1    1    2    0    0  0.27732787342E+01  0.16892877150E+02  0.47954252928E+03  0.47984799444E+03  0.00000000000E+00 0.  1.
         11    1    1    2    0    0  0.52760361144E+01 -0.45750228961E+01 -0.49276405906E+03  0.49281354009E+03  0.00000000000E+00 0. -1.
        -15    1    1    2    0    0 -0.37672817774E+01 -0.12556702298E+02  0.16866702433E+02  0.21436104230E+02  0.17770000000E+01 0. -1.
         15    1    1    2    0    0 -0.42820330712E+01  0.23884804491E+00 -0.36451726537E+01  0.59023612467E+01  0.17770000000E+01 0.  1.
</event>
<event>
 6   1  0.3798113E-04  0.5037218E+03  0.7546771E-02  0.9391520E-01
        -11   -1    0    0    0    0  0.00000000000E+00  0.00000000000E+00  0.50000000000E+03  0.50000000000E+03  0.00000000000E+00 0. -1.
         11   -1    0    0    0    0 -0.00000000000E+00 -0.00000000000E+00 -0.50000000000E+03  0.50000000000E+03  0.00000000000E+00 0.  1.
        -11    1    1    2    0    0  0.20893129886E+02 -0.24673549329E+02  0.44748432833E+03  0.44865078960E+03  0.00000000000E+00 0. -1.
         11    1    1    2    0    0 -0.15586306240E+02  0.35821431537E+01 -0.49602044020E+03  0.49627818992E+03  0.00000000000E+00 0.  1.
        -15    1    1    2    0    0 -0.65772761637E+01  0.20319931392E+02  0.48174029660E+02  0.52726227214E+02  0.17770000000E+01 0.  1.
         15    1    1    2    0    0  0.12704525173E+01  0.77147478316E+00  0.36208221332E+00  0.23447932679E+01  0.17770000000E+01 0. -1.
</event>
<event>
 6   1  0.3798113E-04  0.5009396E+03  0.7546771E-02  0.9397710E-01
        -11   -1    0    0    0    0  0.00000000000E+00  0.00000000000E+00  0.50000000000E+03  0.50000000000E+03  0.00000000000E+00 0. -1.
         11   -1    0    0    0    0 -0.00000000000E+00 -0.00000000000E+00 -0.50000000000E+03  0.50000000000E+03  0.00000000000E+00 0.  1.
        -11    1    1    2    0    0 -0.80925541988E+01  0.48148368666E+01  0.49897158112E+03  0.49906042806E+03  0.00000000000E+00 0. -1.
         11    1    1    2    0    0  0.30261105614E+01  0.65151472722E+01 -0.44395868342E+03  0.44401679819E+03  0.00000000000E+00 0.  1.
        -15    1    1    2    0    0  0.39329169174E+01 -0.15632453733E+01 -0.19317971583E+02  0.19855813422E+02  0.17770000000E+01 0. -1.
         15    1    1    2    0    0  0.11335267200E+01 -0.97667387656E+01 -0.35694926119E+02  0.37066960336E+02  0.17770000000E+01 0.  1.
</event>
<event>
 6   1  0.3798113E-04  0.5001051E+03  0.7546771E-02  0.9399575E-01
        -11   -1    0    0    0    0  0.00000000000E+00  0.00000000000E+00  0.50000000000E+03  0.50000000000E+03  0.00000000000E+00 0. -1.
         11   -1    0    0    0    0 -0.00000000000E+00 -0.00000000000E+00 -0.50000000000E+03  0.50000000000E+03  0.00000000000E+00 0.  1.
        -11    1    1    2    0    0  0.26908074285E+02  0.80341139705E+01  0.49910552887E+03  0.49989490935E+03  0.00000000000E+00 0. -1.
         11    1    1    2    0    0 -0.20907309014E+02 -0.78410948506E+01 -0.37907477269E+03  0.37973185490E+03  0.00000000000E+00 0.  1.
        -15    1    1    2    0    0 -0.45207344584E+01  0.24510198208E+01 -0.63055248971E+02  0.63289546452E+02  0.17770000000E+01 0. -1.
         15    1    1    2    0    0 -0.14800308128E+01 -0.26440389408E+01 -0.56975507206E+02  0.57083689295E+02  0.17770000000E+01 0.  1.
</event>
<event>
 6   1  0.3798113E-04  0.5099549E+03  0.7546771E-02  0.9377806E-01
        -11   -1    0    0    0    0  0.00000000000E+00  0.00000000000E+00  0.50000000000E+03  0.50000000000E+03  0.00000000000E+00 0.  1.
         11   -1    0    0    0    0 -0.00000000000E+00 -0.00000000000E+00 -0.50000000000E+03  0.50000000000E+03  0.00000000000E+00 0. -1.
        -11    1    1    2    0    0  0.20673097386E+02  0.53549199170E+01  0.44401118633E+03  0.44452444894E+03  0.00000000000E+00 0.  1.
         11    1    1    2    0    0 -0.54971417991E+01  0.76672937335E+01 -0.48995431214E+03  0.49004513460E+03  0.00000000000E+00 0. -1.
        -15    1    1    2    0    0 -0.14710872694E+02  0.23589938730E+01  0.47545875135E+02  0.49857222134E+02  0.17770000000E+01 0.  1.
         15    1    1    2    0    0 -0.46508289204E+00 -0.15381207524E+02 -0.16027493245E+01  0.15573194321E+02  0.17770000000E+01 0. -1.
</event>
<event>
 6   1  0.3798113E-04  0.5022934E+03  0.7546771E-02  0.9394693E-01
        -11   -1    0    0    0    0  0.00000000000E+00  0.00000000000E+00  0.50000000000E+03  0.50000000000E+03  0.00000000000E+00 0. -1.
         11   -1    0    0    0    0 -0.00000000000E+00 -0.00000000000E+00 -0.50000000000E+03  0.50000000000E+03  0.00000000000E+00 0.  1.
        -11    1    1    2    0    0 -0.82947817595E+01 -0.81361519454E+01  0.47452432500E+03  0.47466655179E+03  0.00000000000E+00 0. -1.
         11    1    1    2    0    0  0.37581440913E+01  0.18975175396E+02 -0.49733055142E+03  0.49770659862E+03  0.00000000000E+00 0.  1.
        -15    1    1    2    0    0  0.31424912118E+01  0.37850798622E+00  0.89404841336E+01  0.96492748357E+01  0.17770000000E+01 0.  1.
         15    1    1    2    0    0  0.13941464564E+01 -0.11217531436E+02  0.13865742289E+02  0.17977574755E+02  0.17770000000E+01 0. -1.
</event>
<event>
 6   1  0.3798113E-04  0.5149876E+03  0.7546771E-02  0.9366884E-01
        -11   -1    0    0    0    0  0.00000000000E+00  0.00000000000E+00  0.50000000000E+03  0.50000000000E+03  0.00000000000E+00 0.  1.
         11   -1    0    0    0    0 -0.00000000000E+00 -0.00000000000E+00 -0.50000000000E+03  0.50000000000E+03  0.00000000000E+00 0. -1.
        -11    1    1    2    0    0 -0.59094603712E+02 -0.29288736960E+02  0.38980832411E+03  0.39534862065E+03  0.00000000000E+00 0.  1.
         11    1    1    2    0    0  0.75496537415E+01  0.57783161372E+01 -0.48491919582E+03  0.48501238405E+03  0.00000000000E+00 0. -1.
        -15    1    1    2    0    0 -0.14181286015E+01 -0.69529893148E+01  0.94816008030E+00  0.73764412612E+01  0.17770000000E+01 0. -1.
         15    1    1    2    0    0  0.52963078572E+02  0.30463410138E+02  0.94162711626E+02  0.11226255404E+03  0.17770000000E+01 0.  1.
</event>
<event>
 6   1  0.3798113E-04  0.5011859E+03  0.7546771E-02  0.9397160E-01
        -11   -1    0    0    0    0  0.00000000000E+00  0.00000000000E+00  0.50000000000E+03  0.50000000000E+03  0.00000000000E+00 0.  1.
         11   -1    0    0    0    0 -0.00000000000E+00 -0.00000000000E+00 -0.50000000000E+03  0.50000000000E+03  0.00000000000E+00 0.  1.
        -11    1    1    2    0    0  0.81422507168E+00  0.13115675100E+02  0.37403445294E+02  0.39644692150E+02  0.00000000000E+00 0.  1.
         11    1    1    2    0    0  0.16642420236E+01 -0.14335845853E+02 -0.49860531566E+03  0.49881414072E+03  0.00000000000E+00 0.  1.
        -15    1    1    2    0    0  0.21417399514E+01 -0.64330234022E+01  0.29996782941E+03  0.30004970797E+03  0.17770000000E+01 0. -1.
         15    1    1    2    0    0 -0.46202070467E+01  0.76531941553E+01  0.16123404095E+03  0.16149145917E+03  0.17770000000E+01 0.  1.
</event>
<event>
 6   1  0.3798113E-04  0.5003943E+03  0.7546771E-02  0.9398928E-01
        -11   -1    0    0    0    0  0.00000000000E+00  0.00000000000E+00  0.50000000000E+03  0.50000000000E+03  0.00000000000E+00 0. -1.
         11   -1    0    0    0    0 -0.00000000000E+00 -0.00000000000E+00 -0.50000000000E+03  0.50000000000E+03  0.00000000000E+00 0. -1.
        -11    1    1    2    0    0  0.69982329879E+01  0.12463773473E+02  0.49940119433E+03  0.49960571835E+03  0.00000000000E+00 0. -1.
         11    1    1    2    0    0  0.14983306885E+00 -0.63710304902E+01 -0.39731316041E+03  0.39736426603E+03  0.00000000000E+00 0. -1.
        -15    1    1    2    0    0 -0.48173925349E+01 -0.82761469962E+01 -0.60192761057E+02  0.60975635238E+02  0.17770000000E+01 0. -1.
         15    1    1    2    0    0 -0.23306735219E+01  0.21834040137E+01 -0.41895272863E+02  0.42054380383E+02  0.17770000000E+01 0.  1.
</event>
<event>
 6   1  0.3798113E-04  0.5001407E+03  0.7546771E-02  0.9399495E-01
        -11   -1    0    0    0    0  0.00000000000E+00  0.00000000000E+00  0.50000000000E+03  0.50000000000E+03  0.00000000000E+00 0. -1.
         11   -1    0    0    0    0 -0.00000000000E+00 -0.00000000000E+00 -0.50000000000E+03  0.50000000000E+03  0.00000000000E+00 0.  1.
        -11    1    1    2    0    0  0.33192909285E+01 -0.33625586833E+01  0.12145591693E+03  0.12154778587E+03  0.00000000000E+00 0. -1.
         11    1    1    2    0    0 -0.82714001671E+01 -0.47396423391E+01 -0.49976840984E+03  0.49985932395E+03  0.00000000000E+00 0.  1.
        -15    1    1    2    0    0  0.71898788191E+01  0.89151025556E+01  0.30582649565E+03  0.30604603671E+03  0.17770000000E+01 0. -1.
         15    1    1    2    0    0 -0.22377695805E+01 -0.81290153324E+00  0.72485997256E+02  0.72546853473E+02  0.17770000000E+01 0. -1.
</event>
<event>
 6   1  0.3798113E-04  0.5005057E+03  0.7546771E-02  0.9398679E-01
        -11   -1    0    0    0    0  0.00000000000E+00  0.00000000000E+00  0.50000000000E+03  0.50000000000E+03  0.00000000000E+00 0. -1.
         11   -1    0    0    0    0 -0.00000000000E+00 -0.00000000000E+00 -0.50000000000E+03  0.50000000000E+03  0.00000000000E+00 0.  1.
        -11    1    1    2    0    0 -0.17989354395E+02  0.10426046381E+02  0.49906136726E+03  0.49949431189E+03  0.00000000000E+00 0. -1.
         11    1    1    2    0    0 -0.35139189963E+01 -0.35306666122E+01 -0.29149777277E+03  0.29154033128E+03  0.00000000000E+00 0.  1.
        -15    1    1    2    0    0  0.57193613243E+01 -0.44454957080E+01 -0.45554540004E+02  0.46161102349E+02  0.17770000000E+01 0. -1.
         15    1    1    2    0    0  0.15783912067E+02 -0.24498840611E+01 -0.16200905448E+03  0.16280425448E+03  0.17770000000E+01 0.  1.
</event>
<event>
 6   1  0.3798113E-04  0.5003724E+03  0.7546771E-02  0.9398977E-01
        -11   -1    0    0    0    0  0.00000000000E+00  0.00000000000E+00  0.50000000000E+03  0.50000000000E+03  0.00000000000E+00 0. -1.
         11   -1    0    0    0    0 -0.00000000000E+00 -0.00000000000E+00 -0.50000000000E+03  0.50000000000E+03  0.00000000000E+00 0. -1.
        -11    1    1    2    0    0 -0.10213975026E+02  0.44184162388E+01  0.35276896529E+03  0.35294445818E+03  0.00000000000E+00 0. -1.
         11    1    1    2    0    0  0.59762913529E+01  0.60492472040E+01 -0.49955518290E+03  0.49962755149E+03  0.00000000000E+00 0. -1.
        -15    1    1    2    0    0  0.46066939819E+01 -0.36907872336E+01  0.48226309722E+02  0.48618702350E+02  0.17770000000E+01 0. -1.
         15    1    1    2    0    0 -0.36901030845E+00 -0.67768762092E+01  0.98559907888E+02  0.98809287982E+02  0.17770000000E+01 0.  1.
</event>
<event>
 6   1  0.3798113E-04  0.4788459E+03  0.7546771E-02  0.9448429E-01
        -11   -1    0    0    0    0  0.00000000000E+00  0.00000000000E+00  0.50000000000E+03  0.50000000000E+03  0.00000000000E+00 0.  1.
         11   -1    0    0    0    0 -0.00000000000E+00 -0.00000000000E+00 -0.50000000000E+03  0.50000000000E+03  0.00000000000E+00 0.  1.
        -11    1    1    2    0    0 -0.15459923565E+02  0.21581101476E+02  0.47330307672E+03  0.47404699726E+03  0.00000000000E+00 0.  1.
         11    1    1    2    0    0 -0.53239778290E+01  0.49916281322E+01 -0.48424619219E+03  0.48430118289E+03  0.00000000000E+00 0.  1.
        -15    1    1    2    0    0 -0.31380870071E+00 -0.39982629342E+01 -0.51526529234E+01  0.67669892523E+01  0.17770000000E+01 0.  1.
         15    1    1    2    0    0  0.21097710095E+02 -0.22574466674E+02  0.16095768401E+02  0.34884830604E+02  0.17770000000E+01 0. -1.
</event>
<event>
 6   1  0.3798113E-04  0.5020379E+03  0.7546771E-02  0.9395261E-01
        -11   -1    0    0    0    0  0.00000000000E+00  0.00000000000E+00  0.50000000000E+03  0.50000000000E+03  0.00000000000E+00 0.  1.
         11   -1    0    0    0    0 -0.00000000000E+00 -0.00000000000E+00 -0.50000000000E+03  0.50000000000E+03  0.00000000000E+00 0.  1.
        -11    1    1    2    0    0  0.95708384522E+01 -0.24785263777E+01  0.48544066405E+03  0.48554132919E+03  0.00000000000E+00 0.  1.
         11    1    1    2    0    0 -0.78185717761E+01 -0.55509274913E+01 -0.49786979045E+03  0.49796211814E+03  0.00000000000E+00 0.  1.
        -15    1    1    2    0    0  0.22064913777E+01  0.40252744370E+01  0.51542571830E+01  0.71270986103E+01  0.17770000000E+01 0. -1.
         15    1    1    2    0    0 -0.39587580537E+01  0.40041794321E+01  0.72748692185E+01  0.93694540609E+01  0.17770000000E+01 0.  1.
</event>
<event>
 6   1  0.3798113E-04  0.5021232E+03  0.7546771E-02  0.9395071E-01
        -11   -1    0    0    0    0  0.00000000000E+00  0.00000000000E+00  0.50000000000E+03  0.50000000000E+03  0.00000000000E+00 0. -1.
         11   -1    0    0    0    0 -0.00000000000E+00 -0.00000000000E+00 -0.50000000000E+03  0.50000000000E+03  0.00000000000E+00 0.  1.
        -11    1    1    2    0    0 -0.22013249072E+01  0.99288661700E+01  0.49117052062E+03  0.49127579682E+03  0.00000000000E+00 0. -1.
         11    1    1    2    0    0  0.77396977843E+01 -0.68197215958E+01 -0.49776995172E+03  0.49787682851E+03  0.00000000000E+00 0.  1.
        -15    1    1    2    0    0 -0.48734820596E+01 -0.35322758728E+01  0.62783373910E+01  0.88771081790E+01  0.17770000000E+01 0. -1.
         15    1    1    2    0    0 -0.66489081744E+00  0.42313129861E+00  0.32109371433E+00  0.19702664968E+01  0.17770000000E+01 0.  1.
</event>
<event>
 6   1  0.3798113E-04  0.5024112E+03  0.7546771E-02  0.9394431E-01
        -11   -1    0    0    0    0  0.00000000000E+00  0.00000000000E+00  0.50000000000E+03  0.50000000000E+03  0.00000000000E+00 0.  1.
         11   -1    0    0    0    0 -0.00000000000E+00 -0.00000000000E+00 -0.50000000000E+03  0.50000000000E+03  0.00000000000E+00 0. -1.
        -11    1    1    2    0    0 -0.84772747331E+01  0.13203025122E+02  0.44161839639E+03  0.44189703788E+03  0.00000000000E+00 0.  1.
         11    1    1    2    0    0 -0.19894305030E+01 -0.69085926989E+01 -0.49753686578E+03  0.49758880544E+03  0.00000000000E+00 0. -1.
        -15    1    1    2    0    0 -0.24312435392E+01  0.42038200035E+01  0.62873882821E+01  0.81407633658E+01  0.17770000000E+01 0. -1.
         15    1    1    2    0    0  0.12897948775E+02 -0.10498252426E+02  0.49631081106E+02  0.52373393315E+02  0.17770000000E+01 0.  1.
</event>
<event>
 6   1  0.3798113E-04  0.5042928E+03  0.7546771E-02  0.9390255E-01
        -11   -1    0    0    0    0  0.00000000000E+00  0.00000000000E+00  0.50000000000E+03  0.50000000000E+03  0.00000000000E+00 0. -1.
         11   -1    0    0    0    0 -0.00000000000E+00 -0.00000000000E+00 -0.50000000000E+03  0.50000000000E+03  0.00000000000E+00 0.  1.
        -11    1    1    2    0    0 -0.13010554864E+02  0.13854850694E+02  0.45059062506E+03  0.45099128907E+03  0.00000000000E+00 0. -1.
         11    1    1    2    0    0 -0.60761783890E+01 -0.35722044989E+01 -0.49565706768E+03  0.49570718103E+03  0.00000000000E+00 0.  1.
        -15    1    1    2    0    0  0.28307834394E+01  0.40790509502E+01  0.16916122220E+02  0.17719055039E+02  0.17770000000E+01 0.  1.
         15    1    1    2    0    0  0.16255949813E+02 -0.14361697145E+02  0.28150320395E+02  0.35582474852E+02  0.17770000000E+01 0. -1.
</event>
<event>
 6   1  0.3798113E-04  0.5036293E+03  0.7546771E-02  0.9391725E-01
        -11   -1    0    0    0    0  0.00000000000E+00  0.00000000000E+00  0.50000000000E+03  0.50000000000E+03  0.00000000000E+00 0. -1.
         11   -1    0    0    0    0 -0.00000000000E+00 -0.00000000000E+00 -0.50000000000E+03  0.50000000000E+03  0.00000000000E+00 0. -1.
        -11    1    1    2    0    0  0.39542794337E+01 -0.84157989951E+01  0.49628361532E+03  0.49637071714E+03  0.00000000000E+00 0. -1.
         11    1    1    2    0    0 -0.54015969859E+01 -0.71938284596E+01 -0.47537335547E+03  0.47545846875E+03  0.00000000000E+00 0. -1.
        -15    1    1    2    0    0  0.51732464224E+01  0.11844312080E+02 -0.16605427397E+02  0.21117484586E+02  0.17770000000E+01 0. -1.
         15    1    1    2    0    0 -0.37259288703E+01  0.37653153744E+01 -0.43048324593E+01  0.70533295200E+01  0.17770000000E+01 0.  1.
</event>
<event>
 6   1  0.3798113E-04  0.5006789E+03  0.7546771E-02  0.9398292E-01
        -11   -1    0    0    0    0  0.00000000000E+00  0.00000000000E+00  0.50000000000E+03  0.50000000000E+03  0.00000000000E+00 0.  1.
         11   -1    0    0    0    0 -0.00000000000E+00 -0.00000000000E+00 -0.50000000000E+03  0.50000000000E+03  0.00000000000E+00 0.  1.
        -11    1    1    2    0    0  0.10661085823E+02  0.57615801240E+01  0.41207974131E+03  0.41225788986E+03  0.00000000000E+00 0.  1.
         11    1    1    2    0    0 -0.32180931363E+01 -0.13118868082E+02 -0.49913833331E+03  0.49932107567E+03  0.00000000000E+00 0.  1.
        -15    1    1    2    0    0  0.25760681158E+01  0.28741058178E+01  0.19946728583E+02  0.20394271778E+02  0.17770000000E+01 0.  1.
         15    1    1    2    0    0 -0.10019060803E+02  0.44831821402E+01  0.67111863424E+02  0.68026762695E+02  0.17770000000E+01 0. -1.
</event>
<event>
 6   1  0.3798113E-04  0.5018143E+03  0.7546771E-02  0.9395759E-01
        -11   -1    0    0    0    0  0.00000000000E+00  0.00000000000E+00  0.50000000000E+03  0.50000000000E+03  0.00000000000E+00 0. -1.
         11   -1    0    0    0    0 -0.00000000000E+00 -0.00000000000E+00 -0.50000000000E+03  0.50000000000E+03  0.00000000000E+00 0. -1.
        -11    1    1    2    0    0  0.25579459454E+02  0.74293718225E+01  0.49747310264E+03  0.49818570048E+03  0.00000000000E+00 0. -1.
         11    1    1    2    0    0 -0.38398168684E+01 -0.82638921123E+01 -0.38648186656E+03  0.38658927725E+03  0.00000000000E+00 0. -1.
        -15    1    1    2    0    0 -0.10355434364E+02  0.44104028055E+01 -0.92153210511E+02  0.92855040845E+02  0.17770000000E+01 0.  1.
         15    1    1    2    0    0 -0.11384208222E+02 -0.35758825157E+01 -0.18838025568E+02  0.22369981423E+02  0.17770000000E+01 0. -1.
</event>
<event>
 6   1  0.3798113E-04  0.5028717E+03  0.7546771E-02  0.9393407E-01
        -11   -1    0    0    0    0  0.00000000000E+00  0.00000000000E+00  0.50000000000E+03  0.50000000000E+03  0.00000000000E+00 0. -1.
         11   -1    0    0    0    0 -0.00000000000E+00 -0.00000000000E+00 -0.50000000000E+03  0.50000000000E+03  0.00000000000E+00 0. -1.
        -11    1    1    2    0    0 -0.10600555660E+02  0.16128622952E+01  0.49701260572E+03  0.49712825644E+03  0.00000000000E+00 0. -1.
         11    1    1    2    0    0 -0.55951624713E+01 -0.95029749027E+01 -0.45635166438E+03  0.45648488908E+03  0.00000000000E+00 0. -1.
        -15    1    1    2    0    0  0.12513930191E+02 -0.49290333663E+00 -0.27351895296E+02  0.30135117517E+02  0.17770000000E+01 0.  1.
         15    1    1    2    0    0  0.36817879405E+01  0.83830159442E+01 -0.13309046040E+02  0.16251736961E+02  0.17770000000E+01 0. -1.
</event>
<event>
 6   1  0.3798113E-04  0.5030620E+03  0.7546771E-02  0.9392984E-01
        -11   -1    0    0    0    0  0.00000000000E+00  0.00000000000E+00  0.50000000000E+03  0.50000000000E+03  0.00000000000E+00 0.  1.
         11   -1    0    0    0    0 -0.00000000000E+00 -0.00000000000E+00 -0.50000000000E+03  0.50000000000E+03  0.00000000000E+00 0.  1.
        -11    1    1    2    0    0 -0.31424040705E+01 -0.97364742112E+01  0.49683271501E+03  0.49693804477E+03  0.00000000000E+00 0.  1.
         11    1    1    2    0    0  0.59527748508E+00 -0.14949398927E+02 -0.42987352598E+03  0.43013380153E+03  0.00000000000E+00 0.  1.
        -15    1    1    2    0    0  0.12269056032E+01  0.25894048472E+02 -0.56810118176E+02  0.62470427402E+02  0.17770000000E+01 0. -1.
         15    1    1    2    0    0  0.13202209822E+01 -0.12081753337E+01 -0.10149070857E+02  0.10457726298E+02  0.17770000000E+01 0.  1.
</event>
<event>
 6   1  0.3798113E-04  0.5095035E+03  0.7546771E-02  0.9378792E-01
        -11   -1    0    0    0    0  0.00000000000E+00  0.00000000000E+00  0.50000000000E+03  0.50000000000E+03  0.00000000000E+00 0.  1.
         11   -1    0    0    0    0 -0.00000000000E+00 -0.00000000000E+00 -0.50000000000E+03  0.50000000000E+03  0.00000000000E+00 0. -1.
        -11    1    1    2    0    0 -0.29866767409E+02  0.40989865060E+02  0.33107795678E+03  0.33494000403E+03  0.00000000000E+00 0.  1.
         11    1    1    2    0    0  0.43168801622E+01  0.92997184344E+01 -0.49038928768E+03  0.49049645635E+03  0.00000000000E+00 0. -1.
        -15    1    1    2    0    0  0.32772341207E+02 -0.46307014461E+02  0.15504860907E+03  0.16511085621E+03  0.17770000000E+01 0.  1.
         15    1    1    2    0    0 -0.72224539600E+01 -0.39825690325E+01  0.42627218379E+01  0.94526834164E+01  0.17770000000E+01 0. -1.
</event>
<event>
 6   1  0.3798113E-04  0.5026398E+03  0.7546771E-02  0.9393922E-01
        -11   -1    0    0    0    0  0.00000000000E+00  0.00000000000E+00  0.50000000000E+03  0.50000000000E+03  0.00000000000E+00 0.  1.
         11   -1    0    0    0    0 -0.00000000000E+00 -0.00000000000E+00 -0.50000000000E+03  0.50000000000E+03  0.00000000000E+00 0.  1.
        -11    1    1    2    0    0 -0.20849332240E+02 -0.64239596725E+00  0.44524798860E+03  0.44573633314E+03  0.00000000000E+00 0.  1.
         11    1    1    2    0    0  0.70554227831E+01  0.61902755186E+01 -0.49727164865E+03  0.49736022263E+03  0.00000000000E+00 0.  1.
        -15    1    1    2    0    0  0.13098519166E+02  0.35821046297E+01  0.32418840775E+02  0.35192920369E+02  0.17770000000E+01 0. -1.
         15    1    1    2    0    0  0.69539029121E+00 -0.91299841810E+01  0.19604819275E+02  0.21710523868E+02  0.17770000000E+01 0.  1.
</event>
<event>
 6   1  0.3798113E-04  0.5047866E+03  0.7546771E-02  0.9389163E-01
        -11   -1    0    0    0    0  0.00000000000E+00  0.00000000000E+00  0.50000000000E+03  0.50000000000E+03  0.00000000000E+00 0.  1.
         11   -1    0    0    0    0 -0.00000000000E+00 -0.00000000000E+00 -0.50000000000E+03  0.50000000000E+03  0.00000000000E+00 0. -1.
        -11    1    1    2    0    0  0.81953317609E-02 -0.20722706068E+02  0.47268029000E+03  0.47313432254E+03  0.00000000000E+00 0.  1.
         11    1    1    2    0    0 -0.11146190646E+02  0.32420464551E+01 -0.49507732314E+03  0.49521339271E+03  0.00000000000E+00 0. -1.
        -15    1    1    2    0    0  0.31784759200E+01  0.11989079158E+02  0.12849786584E+02  0.17947575672E+02  0.17770000000E+01 0.  1.
         15    1    1    2    0    0  0.79595193942E+01  0.54915804554E+01  0.95472465647E+01  0.13704709076E+02  0.17770000000E+01 0. -1.
</event>
<event>
 6   1  0.3798113E-04  0.5010128E+03  0.7546771E-02  0.9397546E-01
        -11   -1    0    0    0    0  0.00000000000E+00  0.00000000000E+00  0.50000000000E+03  0.50000000000E+03  0.00000000000E+00 0. -1.
         11   -1    0    0    0    0 -0.00000000000E+00 -0.00000000000E+00 -0.50000000000E+03  0.50000000000E+03  0.00000000000E+00 0.  1.
        -11    1    1    2    0    0 -0.76071877719E+01  0.79855244749E+01  0.42862637298E+03  0.42876824220E+03  0.00000000000E+00 0. -1.
         11    1    1    2    0    0  0.82389065695E+01  0.79661439193E+01 -0.49885553152E+03  0.49898715450E+03  0.00000000000E+00 0.  1.
        -15    1    1    2    0    0 -0.22045918923E+01 -0.51025255867E+01  0.24963639285E+02  0.25636634103E+02  0.17770000000E+01 0. -1.
         15    1    1    2    0    0  0.15728730947E+01 -0.10849142808E+02  0.45265519259E+02  0.46607969192E+02  0.17770000000E+01 0.  1.
</event>
<event>
 6   1  0.3798113E-04  0.5022455E+03  0.7546771E-02  0.9394799E-01
        -11   -1    0    0    0    0  0.00000000000E+00  0.00000000000E+00  0.50000000000E+03  0.50000000000E+03  0.00000000000E+00 0.  1.
         11   -1    0    0    0    0 -0.00000000000E+00 -0.00000000000E+00 -0.50000000000E+03  0.50000000000E+03  0.00000000000E+00 0. -1.
        -11    1    1    2    0    0  0.65473275936E+01  0.33780973031E+00  0.48153954769E+03  0.48158417499E+03  0.00000000000E+00 0.  1.
         11    1    1    2    0    0 -0.19360998252E+01 -0.74520715734E+01 -0.49769496055E+03  0.49775451340E+03  0.00000000000E+00 0. -1.
        -15    1    1    2    0    0 -0.67592115921E+01  0.29974286673E+01  0.11872092939E+02  0.14098788590E+02  0.17770000000E+01 0. -1.
         15    1    1    2    0    0  0.21479838237E+01  0.41168331758E+01  0.42833199208E+01  0.65625230246E+01  0.17770000000E+01 0.  1.
</event>
<event>
 6   1  0.3798113E-04  0.5002097E+03  0.7546771E-02  0.9399341E-01
        -11   -1    0    0    0    0  0.00000000000E+00  0.00000000000E+00  0.50000000000E+03  0.50000000000E+03  0.00000000000E+00 0.  1.
         11   -1    0    0    0    0 -0.00000000000E+00 -0.00000000000E+00 -0.50000000000E+03  0.50000000000E+03  0.00000000000E+00 0.  1.
        -11    1    1    2    0    0 -0.10955704949E+01 -0.76285850122E+01  0.49973088871E+03  0.49979031275E+03  0.00000000000E+00 0.  1.
         11    1    1    2    0    0  0.31951617629E+01 -0.32877367844E+01 -0.28549646864E+03  0.28553327630E+03  0.00000000000E+00 0.  1.
        -15    1    1    2    0    0  0.76492133672E+00  0.85570690389E+01 -0.17659255228E+03  0.17681033846E+03  0.17770000000E+01 0.  1.
         15    1    1    2    0    0 -0.28645126047E+01  0.23592527576E+01 -0.37641867792E+02  0.37866072491E+02  0.17770000000E+01 0. -1.
</event>
<event>
 6   1  0.3798113E-04  0.5045238E+03  0.7546771E-02  0.9389744E-01
        -11   -1    0    0    0    0  0.00000000000E+00  0.00000000000E+00  0.50000000000E+03  0.50000000000E+03  0.00000000000E+00 0. -1.
         11   -1    0    0    0    0 -0.00000000000E+00 -0.00000000000E+00 -0.50000000000E+03  0.50000000000E+03  0.00000000000E+00 0.  1.
        -11    1    1    2    0    0  0.19876841943E+02 -0.81744362746E+00  0.49507669331E+03  0.49547622478E+03  0.00000000000E+00 0. -1.
         11    1    1    2    0    0  0.28361674671E+01 -0.58855264860E+01 -0.45247160757E+03  0.45251877190E+03  0.00000000000E+00 0.  1.
        -15    1    1    2    0    0 -0.21306503625E+02 -0.80591214314E+00 -0.26238609018E+02  0.33856150450E+02  0.17770000000E+01 0. -1.
         15    1    1    2    0    0 -0.14065057855E+01  0.75088822566E+01 -0.16366476723E+02  0.18148852872E+02  0.17770000000E+01 0.  1.
</event>
<event>
 6   1  0.3798113E-04  0.5066694E+03  0.7546771E-02  0.9385009E-01
        -11   -1    0    0    0    0  0.00000000000E+00  0.00000000000E+00  0.50000000000E+03  0.50000000000E+03  0.00000000000E+00 0. -1.
         11   -1    0    0    0    0 -0.00000000000E+00 -0.00000000000E+00 -0.50000000000E+03  0.50000000000E+03  0.00000000000E+00 0.  1.
        -11    1    1    2    0    0  0.56407222457E+01  0.26082603446E+02  0.49260829176E+03  0.49333056774E+03  0.00000000000E+00 0. -1.
         11    1    1    2    0    0  0.13608628401E+02  0.13956296546E+02 -0.41932090759E+03  0.41977374444E+03  0.00000000000E+00 0.  1.
        -15    1    1    2    0    0 -0.36154447134E+01 -0.15850860815E+01 -0.30716349301E+01  0.53081643254E+01  0.17770000000E+01 0.  1.
         15    1    1    2    0    0 -0.15633905934E+02 -0.38453813910E+02 -0.70215749241E+02  0.81587523492E+02  0.17770000000E+01 0. -1.
</event>
<event>
 6   1  0.3798113E-04  0.5017930E+03  0.7546771E-02  0.9395807E-01
        -11   -1    0    0    0    0  0.00000000000E+00  0.00000000000E+00  0.50000000000E+03  0.50000000000E+03  0.00000000000E+00 0. -1.
         11   -1    0    0    0    0 -0.00000000000E+00 -0.00000000000E+00 -0.50000000000E+03  0.50000000000E+03  0.00000000000E+00 0. -1.
        -11    1    1    2    0    0 -0.20055648749E+02  0.73197820812E+00  0.60798012139E+02  0.64024707098E+02  0.00000000000E+00 0. -1.
         11    1    1    2    0    0  0.35579903772E+01 -0.17417804665E+02 -0.49788976267E+03  0.49820704028E+03  0.00000000000E+00 0. -1.
        -15    1    1    2    0    0  0.12706921474E+02  0.14055395546E+02  0.31298651650E+03  0.31356456629E+03  0.17770000000E+01 0. -1.
         15    1    1    2    0    0  0.37907368972E+01  0.26304309113E+01  0.12410523403E+03  0.12420368632E+03  0.17770000000E+01 0.  1.
</event>
<event>
 6   1  0.3798113E-04  0.5011323E+03  0.7546771E-02  0.9397280E-01
        -11   -1    0    0    0    0  0.00000000000E+00  0.00000000000E+00  0.50000000000E+03  0.50000000000E+03  0.00000000000E+00 0. -1.
         11   -1    0    0    0    0 -0.00000000000E+00 -0.00000000000E+00 -0.50000000000E+03  0.50000000000E+03  0.00000000000E+00 0. -1.
        -11    1    1    2    0    0  0.14540504303E+02  0.20057888485E+02  0.49825221569E+03  0.49886773357E+03  0.00000000000E+00 0. -1.
         11    1    1    2    0    0  0.62007219557E+01  0.57870676728E+01 -0.26737135424E+03  0.26750585072E+03  0.00000000000E+00 0. -1.
        -15    1    1    2    0    0 -0.20872438933E+02 -0.21153029016E+02 -0.21240060199E+03  0.21447676517E+03  0.17770000000E+01 0. -1.
         15    1    1    2    0    0  0.13121267497E+00 -0.46919271414E+01 -0.18480259459E+02  0.19149650538E+02  0.17770000000E+01 0.  1.
</event>
<event>
 6   1  0.3798113E-04  0.5001950E+03  0.7546771E-02  0.9399373E-01
        -11   -1    0    0    0    0  0.00000000000E+00  0.00000000000E+00  0.50000000000E+03  0.50000000000E+03  0.00000000000E+00 0. -1.
         11   -1    0    0    0    0 -0.00000000000E+00 -0.00000000000E+00 -0.50000000000E+03  0.50000000000E+03  0.00000000000E+00 0. -1.
        -11    1    1    2    0    0  0.80237919134E+01  0.17305795403E+01  0.15742962877E+03  0.15764347166E+03  0.00000000000E+00 0. -1.
         11    1    1    2    0    0 -0.18735310756E+02  0.88974697638E+00 -0.49945290133E+03  0.49980496613E+03  0.00000000000E+00 0. -1.
        -15    1    1    2    0    0  0.47947781295E+01 -0.81992799507E+01  0.12693609598E+03  0.12730337105E+03  0.17770000000E+01 0. -1.
         15    1    1    2    0    0  0.59167407134E+01  0.55789534340E+01  0.21508717658E+03  0.21524819117E+03  0.17770000000E+01 0.  1.
</event>
<event>
 6   1  0.3798113E-04  0.5005349E+03  0.7546771E-02  0.9398614E-01
        -11   -1    0    0    0    0  0.00000000000E+00  0.00000000000E+00  0.50000000000E+03  0.50000000000E+03  0.00000000000E+00 0.  1.
         11   -1    0    0    0    0 -0.00000000000E+00 -0.00000000000E+00 -0.50000000000E+03  0.50000000000E+03  0.00000000000E+00 0. -1.
        -11    1    1    2    0    0 -0.99494761071E+01  0.14850107470E+02  0.23037214704E+03  0.23106458816E+03  0.00000000000E+00 0.  1.
         11    1    1    2    0    0 -0.29065717787E+01 -0.79868708746E+01 -0.49939281722E+03  0.49946513807E+03  0.00000000000E+00 0. -1.
        -15    1    1    2    0    0  0.93787505402E+01 -0.66474165294E+01  0.19577473733E+03  0.19612000055E+03  0.17770000000E+01 0.  1.
         15    1    1    2    0    0  0.34772973456E+01 -0.21582006556E+00  0.73245932839E+02  0.73350273221E+02  0.17770000000E+01 0.  1.
</event>
<event>
 6   1  0.3798113E-04  0.5007374E+03  0.7546771E-02  0.9398161E-01
        -11   -1    0    0    0    0  0.00000000000E+00  0.00000000000E+00  0.50000000000E+03  0.50000000000E+03  0.00000000000E+00 0.  1.
         11   -1    0    0    0    0 -0.00000000000E+00 -0.00000000000E+00 -0.50000000000E+03  0.50000000000E+03  0.00000000000E+00 0. -1.
        -11    1    1    2    0    0  0.81252503742E-01 -0.71539773091E+01  0.42283265628E+03  0.42289317943E+03  0.00000000000E+00 0.  1.
         11    1    1    2    0    0 -0.11818988458E+02  0.26032162823E+01 -0.49911587644E+03  0.49926257955E+03  0.00000000000E+00 0. -1.
        -15    1    1    2    0    0  0.71388654197E+01 -0.11295677827E+01  0.48197497726E+02  0.48768799851E+02  0.17770000000E+01 0. -1.
         15    1    1    2    0    0  0.45988705346E+01  0.56803288094E+01  0.28085722431E+02  0.29075441166E+02  0.17770000000E+01 0.  1.
</event>
<event>
 6   1  0.3798113E-04  0.5033522E+03  0.7546771E-02  0.9392340E-01
        -11   -1    0    0    0    0  0.00000000000E+00  0.00000000000E+00  0.50000000000E+03  0.50000000000E+03  0.00000000000E+00 0. -1.
         11   -1    0    0    0    0 -0.00000000000E+00 -0.00000000000E+00 -0.50000000000E+03  0.50000000000E+03  0.00000000000E+00 0. -1.
        -11    1    1    2    0    0  0.54658309408E+02  0.94214388171E+01  0.49354105805E+03  0.49664783326E+03  0.00000000000E+00 0. -1.
         11    1    1    2    0    0 -0.10126116467E+02 -0.98989261732E+00 -0.37672555704E+03  0.37686292395E+03  0.00000000000E+00 0. -1.
        -15    1    1    2    0    0 -0.96466552902E+00 -0.34410139953E+01 -0.16806506777E+02  0.17273898111E+02  0.17770000000E+01 0. -1.
         15    1    1    2    0    0 -0.43567527412E+02 -0.49905322045E+01 -0.10000899424E+03  0.10921534468E+03  0.17770000000E+01 0.  1.
</event>
<event>
 6   1  0.3798113E-04  0.5007356E+03  0.7546771E-02  0.9398165E-01
        -11   -1    0    0    0    0  0.00000000000E+00  0.00000000000E+00  0.50000000000E+03  0.50000000000E+03  0.00000000000E+00 0. -1.
         11   -1    0    0    0    0 -0.00000000000E+00 -0.00000000000E+00 -0.50000000000E+03  0.50000000000E+03  0.00000000000E+00 0.  1.
        -11    1    1    2    0    0  0.90665986023E+01  0.36246426150E+02  0.49786441846E+03  0.49926444475E+03  0.00000000000E+00 0. -1.
         11    1    1    2    0    0 -0.11100298028E+01  0.57712544467E+01 -0.82803459386E+02  0.83011760796E+02  0.00000000000E+00 0.  1.
        -15    1    1    2    0    0 -0.10443340576E+02 -0.10130147337E+02 -0.10635770066E+03  0.10736294270E+03  0.17770000000E+01 0. -1.
         15    1    1    2    0    0  0.24867717769E+01 -0.31887533260E+02 -0.30870325842E+03  0.31036085175E+03  0.17770000000E+01 0.  1.
</event>
<event>
 6   1  0.3798113E-04  0.4786835E+03  0.7546771E-02  0.9448812E-01
        -11   -1    0    0    0    0  0.00000000000E+00  0.00000000000E+00  0.50000000000E+03  0.50000000000E+03  0.00000000000E+00 0. -1.
         11   -1    0    0    0    0 -0.00000000000E+00 -0.00000000000E+00 -0.50000000000E+03  0.50000000000E+03  0.00000000000E+00 0. -1.
        -11    1    1    2    0    0  0.19391105263E+02 -0.20114573929E+02  0.48592011333E+03  0.48672268037E+03  0.00000000000E+00 0. -1.
         11    1    1    2    0    0  0.41491346077E+01 -0.81044745798E+01 -0.47137191399E+03  0.47145983829E+03  0.00000000000E+00 0. -1.
        -15    1    1    2    0    0 -0.12058766447E+02  0.12285085131E+02  0.10073470715E-01  0.17305923708E+02  0.17770000000E+01 0. -1.
         15    1    1    2    0    0 -0.11481473424E+02  0.15933963377E+02 -0.14558272817E+02  0.24511557627E+02  0.17770000000E+01 0.  1.
</event>
<event>
 6   1  0.3798113E-04  0.5000961E+03  0.7546771E-02  0.9399595E-01
        -11   -1    0    0    0    0  0.00000000000E+00  0.00000000000E+00  0.50000000000E+03  0.50000000000E+03  0.00000000000E+00 0.  1.
         11   -1    0    0    0    0 -0.00000000000E+00 -0.00000000000E+00 -0.50000000000E+03  0.50000000000E+03  0.00000000000E+00 0.  1.
        -11    1    1    2    0    0  0.19632239362E+02 -0.10021759872E+01  0.49951728486E+03  0.49990393782E+03  0.00000000000E+00 0.  1.
         11    1    1    2    0    0 -0.18484770633E+02 -0.17129108199E+01 -0.43039745580E+03  0.43079762159E+03  0.00000000000E+00 0.  1.
        -15    1    1    2    0    0  0.22050481353E+00  0.16937836734E+01 -0.39124855103E+02  0.39202417545E+02  0.17770000000E+01 0. -1.
         15    1    1    2    0    0 -0.13679735422E+01  0.10213031338E+01 -0.29994973954E+02  0.30096023046E+02  0.17770000000E+01 0. -1.
</event>
<event>
 6   1  0.3798113E-04  0.5005349E+03  0.7546771E-02  0.9398614E-01
        -11   -1    0    0    0    0  0.00000000000E+00  0.00000000000E+00  0.50000000000E+03  0.50000000000E+03  0.00000000000E+00 0. -1.
         11   -1    0    0    0    0 -0.00000000000E+00 -0.00000000000E+00 -0.50000000000E+03  0.50000000000E+03  0.00000000000E+00 0. -1.
        -11    1    1    2    0    0 -0.63370715120E+01  0.79234899202E+01  0.13268017965E+03  0.13306754014E+03  0.00000000000E+00 0. -1.
         11    1    1    2    0    0 -0.84962211038E+01  0.31667770342E+01 -0.49938275939E+03  0.49946506848E+03  0.00000000000E+00 0. -1.
        -15    1    1    2    0    0  0.10372113552E+01  0.30568224845E+01  0.43125217373E+02  0.43282352912E+02  0.17770000000E+01 0.  1.
         15    1    1    2    0    0  0.13796081261E+02 -0.14147089439E+02  0.32357736237E+03  0.32418503847E+03  0.17770000000E+01 0. -1.
</event>
<event>
 6   1  0.3798113E-04  0.5000771E+03  0.7546771E-02  0.9399637E-01
        -11   -1    0    0    0    0  0.00000000000E+00  0.00000000000E+00  0.50000000000E+03  0.50000000000E+03  0.00000000000E+00 0. -1.
         11   -1    0    0    0    0 -0.00000000000E+00 -0.00000000000E+00 -0.50000000000E+03  0.50000000000E+03  0.00000000000E+00 0. -1.
        -11    1    1    2    0    0  0.76657769880E+01  0.13074742355E+02  0.49969310826E+03  0.49992290952E+03  0.00000000000E+00 0. -1.
         11    1    1    2    0    0 -0.49518418849E+01 -0.27342033278E+01 -0.28662107575E+03  0.28667688722E+03  0.00000000000E+00 0. -1.
        -15    1    1    2    0    0 -0.32628712599E+01 -0.56772659649E+01 -0.11555425446E+03  0.11575327698E+03  0.17770000000E+01 0.  1.
         15    1    1    2    0    0  0.54893615670E+00 -0.46632730621E+01 -0.97517778049E+02  0.97646926276E+02  0.17770000000E+01 0. -1.
</event>
<event>
 6   1  0.3798113E-04  0.4881617E+03  0.7546771E-02  0.9426695E-01
        -11   -1    0    0    0    0  0.00000000000E+00  0.00000000000E+00  0.50000000000E+03  0.50000000000E+03  0.00000000000E+00 0. -1.
         11   -1    0    0    0    0 -0.00000000000E+00 -0.00000000000E+00 -0.50000000000E+03  0.50000000000E+03  0.00000000000E+00 0. -1.
        -11    1    1    2    0    0 -0.32415158086E+01  0.13135401204E+02  0.48411723823E+03  0.48430625284E+03  0.00000000000E+00 0. -1.
         11    1    1    2    0    0 -0.35706417059E+01  0.57127447378E+01 -0.49221030639E+03  0.49225640742E+03  0.00000000000E+00 0. -1.
        -15    1    1    2    0    0  0.49650674841E+01 -0.18312497610E+02  0.83510668133E+01  0.20806189217E+02  0.17770000000E+01 0. -1.
         15    1    1    2    0    0  0.18470900304E+01 -0.53564833226E+00 -0.25799865783E+00  0.26311505133E+01  0.17770000000E+01 0.  1.
</event>
<event>
 6   1  0.3798113E-04  0.5041628E+03  0.7546771E-02  0.9390543E-01
        -11   -1    0    0    0    0  0.00000000000E+00  0.00000000000E+00  0.50000000000E+03  0.50000000000E+03  0.00000000000E+00 0. -1.
         11   -1    0    0    0    0 -0.00000000000E+00 -0.00000000000E+00 -0.50000000000E+03  0.50000000000E+03  0.00000000000E+00 0.  1.
        -11    1    1    2    0    0  0.17148221032E+02  0.17774243822E+02  0.49522172014E+03  0.49583720849E+03  0.00000000000E+00 0. -1.
         11    1    1    2    0    0 -0.75922914750E+01  0.40345040330E+01 -0.44825748652E+03  0.44833993167E+03  0.00000000000E+00 0.  1.
        -15    1    1    2    0    0 -0.13480472855E+02 -0.93196130961E+01 -0.30916279096E+02  0.35036443580E+02  0.17770000000E+01 0.  1.
         15    1    1    2    0    0  0.39245432971E+01 -0.12489134759E+02 -0.16047954530E+02  0.20786416255E+02  0.17770000000E+01 0. -1.
</event>
<event>
 6   1  0.3798113E-04  0.5012391E+03  0.7546771E-02  0.9397041E-01
        -11   -1    0    0    0    0  0.00000000000E+00  0.00000000000E+00  0.50000000000E+03  0.50000000000E+03  0.00000000000E+00 0.  1.
         11   -1    0    0    0    0 -0.00000000000E+00 -0.00000000000E+00 -0.50000000000E+03  0.50000000000E+03  0.00000000000E+00 0.  1.
        -11    1    1    2    0    0 -0.99681363170E+01 -0.52628317066E+01  0.30824389605E+03  0.30844993206E+03  0.00000000000E+00 0.  1.
         11    1    1    2    0    0 -0.48636923997E+01  0.60440076314E+01 -0.49870059205E+03  0.49876093075E+03  0.00000000000E+00 0.  1.
        -15    1    1    2    0    0 -0.20070314582E+01  0.61653650991E+01  0.11299031654E+03  0.11319014649E+03  0.17770000000E+01 0. -1.
         15    1    1    2    0    0  0.16838860175E+02 -0.69465410239E+01  0.77466379458E+02  0.79598990694E+02  0.17770000000E+01 0.  1.
</event>
<event>
 6   1  0.3798113E-04  0.4786483E+03  0.7546771E-02  0.9448895E-01
        -11   -1    0    0    0    0  0.00000000000E+00  0.00000000000E+00  0.50000000000E+03  0.50000000000E+03  0.00000000000E+00 0.  1.
         11   -1    0    0    0    0 -0.00000000000E+00 -0.00000000000E+00 -0.50000000000E+03  0.50000000000E+03  0.00000000000E+00 0.  1.
        -11    1    1    2    0    0  0.24657453278E+02 -0.20048856737E+02  0.48657248909E+03  0.48760920192E+03  0.00000000000E+00 0.  1.
         11    1    1    2    0    0  0.13234756080E+01 -0.75226287028E+01 -0.47050946513E+03  0.47057145930E+03  0.00000000000E+00 0.  1.
        -15    1    1    2    0    0 -0.20873893711E+02  0.25013594991E+02 -0.13726433508E+02  0.35397345647E+02  0.17770000000E+01 0. -1.
         15    1    1    2    0    0 -0.51070351755E+01  0.25578904496E+01 -0.23365904545E+01  0.64219931320E+01  0.17770000000E+01 0.  1.
</event>
<event>
 6   1  0.3798113E-04  0.5000757E+03  0.7546771E-02  0.9399640E-01
        -11   -1    0    0    0    0  0.00000000000E+00  0.00000000000E+00  0.50000000000E+03  0.50000000000E+03  0.00000000000E+00 0. -1.
         11   -1    0    0    0    0 -0.00000000000E+00 -0.00000000000E+00 -0.50000000000E+03  0.50000000000E+03  0.00000000000E+00 0. -1.
        -11    1    1    2    0    0  0.17173428343E+01 -0.71207348902E+01  0.16779453500E+03  0.16795433936E+03  0.00000000000E+00 0. -1.
         11    1    1    2    0    0 -0.50476160741E+01  0.13683675231E+02 -0.49971147549E+03  0.49992427439E+03  0.00000000000E+00 0. -1.
        -15    1    1    2    0    0  0.53808532114E+01 -0.15809416131E+01  0.19014254030E+03  0.19023353100E+03  0.17770000000E+01 0.  1.
         15    1    1    2    0    0 -0.20505799716E+01 -0.49819987279E+01  0.14177440019E+03  0.14188785525E+03  0.17770000000E+01 0. -1.
</event>
<event>
 6   1  0.3798113E-04  0.5003057E+03  0.7546771E-02  0.9399126E-01
        -11   -1    0    0    0    0  0.00000000000E+00  0.00000000000E+00  0.50000000000E+03  0.50000000000E+03  0.00000000000E+00 0. -1.
         11   -1    0    0    0    0 -0.00000000000E+00 -0.00000000000E+00 -0.50000000000E+03  0.50000000000E+03  0.00000000000E+00 0. -1.
        -11    1    1    2    0    0  0.17195311433E+01 -0.69007703381E+01  0.40392698019E+02  0.41013991172E+02  0.00000000000E+00 0. -1.
         11    1    1    2    0    0 -0.91047683301E+01  0.57962421411E+01 -0.49957769626E+03  0.49969427436E+03  0.00000000000E+00 0. -1.
        -15    1    1    2    0    0  0.72764186379E+01  0.21745087785E+01  0.37516037924E+03  0.37524144579E+03  0.17770000000E+01 0. -1.
         15    1    1    2    0    0  0.10881854890E+00 -0.10699805815E+01  0.84024619002E+02  0.84050288681E+02  0.17770000000E+01 0. -1.
</event>
<event>
 6   1  0.3798113E-04  0.5010511E+03  0.7546771E-02  0.9397461E-01
        -11   -1    0    0    0    0  0.00000000000E+00  0.00000000000E+00  0.50000000000E+03  0.50000000000E+03  0.00000000000E+00 0. -1.
         11   -1    0    0    0    0 -0.00000000000E+00 -0.00000000000E+00 -0.50000000000E+03  0.50000000000E+03  0.00000000000E+00 0.  1.
        -11    1    1    2    0    0  0.17028903119E+02 -0.22713469627E+02  0.49814070767E+03  0.49894894516E+03  0.00000000000E+00 0. -1.
         11    1    1    2    0    0 -0.90456827602E+00  0.55881053700E+01 -0.32183325163E+03  0.32188303314E+03  0.00000000000E+00 0.  1.
        -15    1    1    2    0    0 -0.80012749508E+01  0.21126107757E+02 -0.12567989240E+03  0.12770640513E+03  0.17770000000E+01 0.  1.
         15    1    1    2    0    0 -0.81230598919E+01 -0.40007435000E+01 -0.50627563640E+02  0.51461616567E+02  0.17770000000E+01 0. -1.
</event>
<event>
 6   1  0.3798113E-04  0.5002850E+03  0.7546771E-02  0.9399172E-01
        -11   -1    0    0    0    0  0.00000000000E+00  0.00000000000E+00  0.50000000000E+03  0.50000000000E+03  0.00000000000E+00 0. -1.
         11   -1    0    0    0    0 -0.00000000000E+00 -0.00000000000E+00 -0.50000000000E+03  0.50000000000E+03  0.00000000000E+00 0.  1.
        -11    1    1    2    0    0 -0.73592609899E+00 -0.93599607693E+01  0.42212641631E+03  0.42223081579E+03  0.00000000000E+00 0. -1.
         11    1    1    2    0    0 -0.43586309192E+01  0.76263899840E+01 -0.49963782699E+03  0.49971503644E+03  0.00000000000E+00 0.  1.
        -15    1    1    2    0    0  0.23874594641E+01  0.30864107565E+01  0.62116080298E+02  0.62263882425E+02  0.17770000000E+01 0.  1.
         15    1    1    2    0    0  0.27070975541E+01 -0.13528399712E+01  0.15395330380E+02  0.15790265345E+02  0.17770000000E+01 0. -1.
</event>
<event>
 6   1  0.3798113E-04  0.5000731E+03  0.7546771E-02  0.9399646E-01
        -11   -1    0    0    0    0  0.00000000000E+00  0.00000000000E+00  0.50000000000E+03  0.50000000000E+03  0.00000000000E+00 0. -1.
         11   -1    0    0    0    0 -0.00000000000E+00 -0.00000000000E+00 -0.50000000000E+03  0.50000000000E+03  0.00000000000E+00 0.  1.
        -11    1    1    2    0    0 -0.40960593717E+01  0.79400522590E+01  0.49984707609E+03  0.49992691627E+03  0.00000000000E+00 0. -1.
         11    1    1    2    0    0  0.14095829707E+01  0.17933975370E+01 -0.94338111167E+02  0.94365684534E+02  0.00000000000E+00 0.  1.
        -15    1    1    2    0    0  0.92998514257E+00 -0.95749745672E+01 -0.35684969291E+03  0.35698376163E+03  0.17770000000E+01 0.  1.
         15    1    1    2    0    0  0.17564912585E+01 -0.15847522880E+00 -0.48659272014E+02  0.48723637568E+02  0.17770000000E+01 0. -1.
</event>
<event>
 6   1  0.3798113E-04  0.5042319E+03  0.7546771E-02  0.9390390E-01
        -11   -1    0    0    0    0  0.00000000000E+00  0.00000000000E+00  0.50000000000E+03  0.50000000000E+03  0.00000000000E+00 0.  1.
         11   -1    0    0    0    0 -0.00000000000E+00 -0.00000000000E+00 -0.50000000000E+03  0.50000000000E+03  0.00000000000E+00 0.  1.
        -11    1    1    2    0    0  0.28274542625E+02 -0.14740253792E+02  0.66293108935E+02  0.73562905970E+02  0.00000000000E+00 0.  1.
         11    1    1    2    0    0 -0.47170115942E+01 -0.67710559851E+01 -0.49569937297E+03  0.49576805641E+03  0.00000000000E+00 0.  1.
        -15    1    1    2    0    0 -0.10509758582E+01  0.13532919638E+01  0.21447647844E+02  0.21589239830E+02  0.17770000000E+01 0.  1.
         15    1    1    2    0    0 -0.22506555172E+02  0.20158017814E+02  0.40795861619E+03  0.40907979779E+03  0.17770000000E+01 0.  1.
</event>
<event>
 6   1  0.3798113E-04  0.5009655E+03  0.7546771E-02  0.9397652E-01
        -11   -1    0    0    0    0  0.00000000000E+00  0.00000000000E+00  0.50000000000E+03  0.50000000000E+03  0.00000000000E+00 0. -1.
         11   -1    0    0    0    0 -0.00000000000E+00 -0.00000000000E+00 -0.50000000000E+03  0.50000000000E+03  0.00000000000E+00 0.  1.
        -11    1    1    2    0    0 -0.64909490909E+01 -0.27868696278E+01  0.13056821779E+02  0.14845189705E+02  0.00000000000E+00 0. -1.
         11    1    1    2    0    0  0.68179244933E+01 -0.46317220161E+01 -0.49896645704E+03  0.49903453006E+03  0.00000000000E+00 0.  1.
        -15    1    1    2    0    0 -0.30899146396E+01 -0.17514237544E+01  0.85507577272E+02  0.85599757929E+02  0.17770000000E+01 0.  1.
         15    1    1    2    0    0  0.27629392371E+01  0.91700153984E+01  0.40040205799E+03  0.40052052230E+03  0.17770000000E+01 0. -1.
</event>
<event>
 6   1  0.3798113E-04  0.5022116E+03  0.7546771E-02  0.9394875E-01
        -11   -1    0    0    0    0  0.00000000000E+00  0.00000000000E+00  0.50000000000E+03  0.50000000000E+03  0.00000000000E+00 0.  1.
         11   -1    0    0    0    0 -0.00000000000E+00 -0.00000000000E+00 -0.50000000000E+03  0.50000000000E+03  0.00000000000E+00 0.  1.
        -11    1    1    2    0    0  0.78633013909E+01  0.23095800084E+01  0.49772096252E+03  0.49778843117E+03  0.00000000000E+00 0.  1.
         11    1    1    2    0    0 -0.27370264643E+01  0.62410747097E+01 -0.48630639154E+03  0.48635413926E+03  0.00000000000E+00 0.  1.
        -15    1    1    2    0    0 -0.13222262004E+01 -0.50457894130E+01 -0.62912794038E+01  0.83633843904E+01  0.17770000000E+01 0.  1.
         15    1    1    2    0    0 -0.38040487262E+01 -0.35048653051E+01 -0.51232915800E+01  0.74940451781E+01  0.17770000000E+01 0. -1.
</event>
<event>
 6   1  0.3798113E-04  0.5003469E+03  0.7546771E-02  0.9399034E-01
        -11   -1    0    0    0    0  0.00000000000E+00  0.00000000000E+00  0.50000000000E+03  0.50000000000E+03  0.00000000000E+00 0. -1.
         11   -1    0    0    0    0 -0.00000000000E+00 -0.00000000000E+00 -0.50000000000E+03  0.50000000000E+03  0.00000000000E+00 0.  1.
        -11    1    1    2    0    0 -0.58628552048E+01  0.95795091491E+01  0.49952683501E+03  0.49965307861E+03  0.00000000000E+00 0. -1.
         11    1    1    2    0    0  0.48179637528E+01 -0.28895890663E+01 -0.39804408031E+03  0.39808372533E+03  0.00000000000E+00 0.  1.
        -15    1    1    2    0    0  0.53488676417E+01 -0.19838391817E+01 -0.50585597703E+02  0.50937279343E+02  0.17770000000E+01 0. -1.
         15    1    1    2    0    0 -0.43039761898E+01 -0.47060809011E+01 -0.50897156994E+02  0.51325916724E+02  0.17770000000E+01 0.  1.
</event>
<event>
 6   1  0.3798113E-04  0.5006116E+03  0.7546771E-02  0.9398442E-01
        -11   -1    0    0    0    0  0.00000000000E+00  0.00000000000E+00  0.50000000000E+03  0.50000000000E+03  0.00000000000E+00 0. -1.
         11   -1    0    0    0    0 -0.00000000000E+00 -0.00000000000E+00 -0.50000000000E+03  0.50000000000E+03  0.00000000000E+00 0.  1.
        -11    1    1    2    0    0 -0.36776171273E+02  0.86549912302E+01  0.49795720393E+03  0.49938839853E+03  0.00000000000E+00 0. -1.
         11    1    1    2    0    0 -0.38738963489E+01  0.17955655952E+01 -0.12702106361E+03  0.12709280754E+03  0.00000000000E+00 0.  1.
        -15    1    1    2    0    0  0.49451085048E+01 -0.53501702883E+01 -0.79827976765E+02  0.80179436414E+02  0.17770000000E+01 0. -1.
         15    1    1    2    0    0  0.35704959117E+02 -0.51003865371E+01 -0.29110816356E+03  0.29333935751E+03  0.17770000000E+01 0.  1.
</event>
<event>
 6   1  0.3798113E-04  0.5004375E+03  0.7546771E-02  0.9398831E-01
        -11   -1    0    0    0    0  0.00000000000E+00  0.00000000000E+00  0.50000000000E+03  0.50000000000E+03  0.00000000000E+00 0.  1.
         11   -1    0    0    0    0 -0.00000000000E+00 -0.00000000000E+00 -0.50000000000E+03  0.50000000000E+03  0.00000000000E+00 0.  1.
        -11    1    1    2    0    0 -0.83868213941E+01  0.61778787993E+01  0.40553138995E+03  0.40566514910E+03  0.00000000000E+00 0.  1.
         11    1    1    2    0    0  0.52915573298E+01  0.46647069658E+01 -0.49951272357E+03  0.49956252969E+03  0.00000000000E+00 0.  1.
        -15    1    1    2    0    0  0.11455576329E+01 -0.48712449712E+01  0.54128616332E+02  0.54388474559E+02  0.17770000000E+01 0.  1.
         15    1    1    2    0    0  0.19497064313E+01 -0.59713407939E+01  0.39852717287E+02  0.40383846650E+02  0.17770000000E+01 0. -1.
</event>
<event>
 6   1  0.3798113E-04  0.5025446E+03  0.7546771E-02  0.9394134E-01
        -11   -1    0    0    0    0  0.00000000000E+00  0.00000000000E+00  0.50000000000E+03  0.50000000000E+03  0.00000000000E+00 0.  1.
         11   -1    0    0    0    0 -0.00000000000E+00 -0.00000000000E+00 -0.50000000000E+03  0.50000000000E+03  0.00000000000E+00 0. -1.
        -11    1    1    2    0    0 -0.42765137641E+02 -0.17151166772E+02  0.49531688827E+03  0.49745536416E+03  0.00000000000E+00 0.  1.
         11    1    1    2    0    0  0.52286834238E+01  0.53094186226E+01 -0.29692201053E+03  0.29701550363E+03  0.00000000000E+00 0. -1.
        -15    1    1    2    0    0  0.40255310132E+02  0.16519974727E+02 -0.13436072153E+03  0.14124220608E+03  0.17770000000E+01 0. -1.
         15    1    1    2    0    0 -0.27188559144E+01 -0.46782265782E+01 -0.64034156210E+02  0.64286926135E+02  0.17770000000E+01 0. -1.
</event>
<event>
 6   1  0.3798113E-04  0.4834694E+03  0.7546771E-02  0.9437577E-01
        -11   -1    0    0    0    0  0.00000000000E+00  0.00000000000E+00  0.50000000000E+03  0.50000000000E+03  0.00000000000E+00 0. -1.
         11   -1    0    0    0    0 -0.00000000000E+00 -0.00000000000E+00 -0.50000000000E+03  0.50000000000E+03  0.00000000000E+00 0.  1.
        -11    1    1    2    0    0 -0.15670110532E+02 -0.12795440042E+02  0.48525960881E+03  0.48568113366E+03  0.00000000000E+00 0. -1.
         11    1    1    2    0    0  0.44119551360E+00 -0.10342241252E+02 -0.48155021530E+03  0.48166146459E+03  0.00000000000E+00 0.  1.
        -15    1    1    2    0    0  0.16094397574E+02  0.11497161468E+02 -0.57516355817E+01  0.20674946093E+02  0.17770000000E+01 0. -1.
         15    1    1    2    0    0 -0.86548255512E+00  0.11640519826E+02  0.20422420721E+01  0.11982455657E+02  0.17770000000E+01 0.  1.
</event>
<event>
 6   1  0.3798113E-04  0.5060794E+03  0.7546771E-02  0.9386308E-01
        -11   -1    0    0    0    0  0.00000000000E+00  0.00000000000E+00  0.50000000000E+03  0.50000000000E+03  0.00000000000E+00 0. -1.
         11   -1    0    0    0    0 -0.00000000000E+00 -0.00000000000E+00 -0.50000000000E+03  0.50000000000E+03  0.00000000000E+00 0.  1.
        -11    1    1    2    0    0  0.18300794733E+02 -0.20054295122E+02  0.49317386720E+03  0.49392059800E+03  0.00000000000E+00 0. -1.
         11    1    1    2    0    0  0.29084659764E+01  0.52662870512E+01 -0.44298601530E+03  0.44302686454E+03  0.00000000000E+00 0.  1.
        -15    1    1    2    0    0  0.52335600956E+00 -0.64211555237E+01 -0.15720046670E+02  0.17081649103E+02  0.17770000000E+01 0.  1.
         15    1    1    2    0    0 -0.21732616719E+02  0.21209163595E+02 -0.34467805233E+02  0.45970888358E+02  0.17770000000E+01 0. -1.
</event>
<event>
 6   1  0.3798113E-04  0.5001013E+03  0.7546771E-02  0.9399583E-01
        -11   -1    0    0    0    0  0.00000000000E+00  0.00000000000E+00  0.50000000000E+03  0.50000000000E+03  0.00000000000E+00 0.  1.
         11   -1    0    0    0    0 -0.00000000000E+00 -0.00000000000E+00 -0.50000000000E+03  0.50000000000E+03  0.00000000000E+00 0. -1.
        -11    1    1    2    0    0  0.15147693527E+02  0.17614516741E+02  0.39142240736E+03  0.39211124034E+03  0.00000000000E+00 0.  1.
         11    1    1    2    0    0 -0.14226768076E+02 -0.18796646816E+02 -0.49934253231E+03  0.49989866916E+03  0.00000000000E+00 0. -1.
        -15    1    1    2    0    0 -0.45286108405E+00  0.34140104285E+00  0.50876107972E+02  0.50910290995E+02  0.17770000000E+01 0.  1.
         15    1    1    2    0    0 -0.46806436669E+00  0.84072903190E+00  0.57044016976E+02  0.57079799503E+02  0.17770000000E+01 0. -1.
</event>
<event>
 6   1  0.3798113E-04  0.5032013E+03  0.7546771E-02  0.9392675E-01
        -11   -1    0    0    0    0  0.00000000000E+00  0.00000000000E+00  0.50000000000E+03  0.50000000000E+03  0.00000000000E+00 0. -1.
         11   -1    0    0    0    0 -0.00000000000E+00 -0.00000000000E+00 -0.50000000000E+03  0.50000000000E+03  0.00000000000E+00 0.  1.
        -11    1    1    2    0    0 -0.16347821264E+02 -0.72438886461E+00  0.49652914928E+03  0.49679872391E+03  0.00000000000E+00 0. -1.
         11    1    1    2    0    0  0.66183275161E+01  0.40385514868E+01 -0.48568262063E+03  0.48574450089E+03  0.00000000000E+00 0.  1.
        -15    1    1    2    0    0  0.91560196235E+01 -0.50080742995E+01 -0.64726106713E+01  0.12408300506E+02  0.17770000000E+01 0.  1.
         15    1    1    2    0    0  0.57347412462E+00  0.16939116772E+01 -0.43739179708E+01  0.50484746961E+01  0.17770000000E+01 0. -1.
</event>
<event>
 6   1  0.3798113E-04  0.5005968E+03  0.7546771E-02  0.9398475E-01
        -11   -1    0    0    0    0  0.00000000000E+00  0.00000000000E+00  0.50000000000E+03  0.50000000000E+03  0.00000000000E+00 0. -1.
         11   -1    0    0    0    0 -0.00000000000E+00 -0.00000000000E+00 -0.50000000000E+03  0.50000000000E+03  0.00000000000E+00 0.  1.
        -11    1    1    2    0    0  0.20393436342E+02  0.65463075661E+00  0.15379112075E+03  0.15513874309E+03  0.00000000000E+00 0. -1.
         11    1    1    2    0    0 -0.25197530219E+02  0.70053529043E+01 -0.49871795734E+03  0.49940323535E+03  0.00000000000E+00 0.  1.
        -15    1    1    2    0    0 -0.50903417847E+01 -0.72390832167E+01  0.17705631767E+03  0.17728624668E+03  0.17770000000E+01 0. -1.
         15    1    1    2    0    0  0.98944356616E+01 -0.42090044419E+00  0.16787051892E+03  0.16817177488E+03  0.17770000000E+01 0.  1.
</event>
<event>
 6   1  0.3798113E-04  0.5006787E+03  0.7546771E-02  0.9398292E-01
        -11   -1    0    0    0    0  0.00000000000E+00  0.00000000000E+00  0.50000000000E+03  0.50000000000E+03  0.00000000000E+00 0.  1.
         11   -1    0    0    0    0 -0.00000000000E+00 -0.00000000000E+00 -0.50000000000E+03  0.50000000000E+03  0.00000000000E+00 0. -1.
        -11    1    1    2    0    0 -0.55259703555E+01 -0.41541093480E+01  0.49927346619E+03  0.49932132641E+03  0.00000000000E+00 0.  1.
         11    1    1    2    0    0  0.33605044770E+01 -0.44563451980E+01 -0.38786922081E+03  0.38790937660E+03  0.00000000000E+00 0. -1.
        -15    1    1    2    0    0 -0.24268704719E+01  0.30403098105E+01 -0.77744979518E+01  0.88732029975E+01  0.17770000000E+01 0.  1.
         15    1    1    2    0    0  0.45923363504E+01  0.55701447355E+01 -0.10362974743E+03  0.10389609399E+03  0.17770000000E+01 0. -1.
</event>
<event>
 6   1  0.3798113E-04  0.5112252E+03  0.7546771E-02  0.9375037E-01
        -11   -1    0    0    0    0  0.00000000000E+00  0.00000000000E+00  0.50000000000E+03  0.50000000000E+03  0.00000000000E+00 0.  1.
         11   -1    0    0    0    0 -0.00000000000E+00 -0.00000000000E+00 -0.50000000000E+03  0.50000000000E+03  0.00000000000E+00 0.  1.
        -11    1    1    2    0    0 -0.24786175528E+02 -0.27959364145E+02  0.48734452167E+03  0.48877475727E+03  0.00000000000E+00 0.  1.
         11    1    1    2    0    0 -0.42791606059E+00 -0.74243827015E+01 -0.45620410844E+03  0.45626471826E+03  0.00000000000E+00 0.  1.
        -15    1    1    2    0    0 -0.15935593841E+00  0.63150532192E+01 -0.58537972720E+01  0.87937456740E+01  0.17770000000E+01 0.  1.
         15    1    1    2    0    0  0.25373447527E+02  0.29068693628E+02 -0.25286615961E+02  0.46166778796E+02  0.17770000000E+01 0. -1.
</event>
<event>
 6   1  0.3798113E-04  0.4843841E+03  0.7546771E-02  0.9435446E-01
        -11   -1    0    0    0    0  0.00000000000E+00  0.00000000000E+00  0.50000000000E+03  0.50000000000E+03  0.00000000000E+00 0.  1.
         11   -1    0    0    0    0 -0.00000000000E+00 -0.00000000000E+00 -0.50000000000E+03  0.50000000000E+03  0.00000000000E+00 0.  1.
        -11    1    1    2    0    0 -0.22089646664E+02 -0.59368362577E+00  0.48529923658E+03  0.48580207284E+03  0.00000000000E+00 0.  1.
         11    1    1    2    0    0 -0.48475313521E+01  0.92621310717E+01 -0.48326839883E+03  0.48338145490E+03  0.00000000000E+00 0.  1.
        -15    1    1    2    0    0  0.26697273000E+02 -0.68928224934E+01 -0.35715297883E+01  0.27859808715E+02  0.17770000000E+01 0. -1.
         15    1    1    2    0    0  0.23990501538E+00 -0.17756249525E+01  0.15406920311E+01  0.29566635458E+01  0.17770000000E+01 0.  1.
</event>
<event>
 6   1  0.3798113E-04  0.5006177E+03  0.7546771E-02  0.9398429E-01
        -11   -1    0    0    0    0  0.00000000000E+00  0.00000000000E+00  0.50000000000E+03  0.50000000000E+03  0.00000000000E+00 0.  1.
         11   -1    0    0    0    0 -0.00000000000E+00 -0.00000000000E+00 -0.50000000000E+03  0.50000000000E+03  0.00000000000E+00 0.  1.
        -11    1    1    2    0    0 -0.29303793626E+00  0.92145556884E+01  0.35749191237E+03  0.35761076790E+03  0.00000000000E+00 0.  1.
         11    1    1    2    0    0 -0.74959931703E+01  0.16302545301E+01 -0.49932333344E+03  0.49938225735E+03  0.00000000000E+00 0.  1.
        -15    1    1    2    0    0  0.17630649109E+00 -0.55166753477E+01  0.20413911343E+02  0.21221458390E+02  0.17770000000E+01 0. -1.
         15    1    1    2    0    0  0.76127246155E+01 -0.53281348709E+01  0.12141750973E+03  0.12178551636E+03  0.17770000000E+01 0.  1.
</event>
<event>
 6   1  0.3798113E-04  0.5021891E+03  0.7546771E-02  0.9394925E-01
        -11   -1    0    0    0    0  0.00000000000E+00  0.00000000000E+00  0.50000000000E+03  0.50000000000E+03  0.00000000000E+00 0.  1.
         11   -1    0    0    0    0 -0.00000000000E+00 -0.00000000000E+00 -0.50000000000E+03  0.50000000000E+03  0.00000000000E+00 0. -1.
        -11    1    1    2    0    0 -0.68800076157E+01  0.76918033912E+01  0.49770394377E+03  0.49781092193E+03  0.00000000000E+00 0.  1.
         11    1    1    2    0    0  0.66109513630E+01 -0.35519989471E+01 -0.46877121944E+03  0.46883128901E+03  0.00000000000E+00 0. -1.
        -15    1    1    2    0    0 -0.15198001938E+01  0.17748996094E+01 -0.26212395389E+02  0.26376267027E+02  0.17770000000E+01 0. -1.
         15    1    1    2    0    0  0.17888564464E+01 -0.59147040535E+01 -0.27203289381E+01  0.69815220373E+01  0.17770000000E+01 0.  1.
</event>
<event>
 6   1  0.3798113E-04  0.5054111E+03  0.7546771E-02  0.9387783E-01
        -11   -1    0    0    0    0  0.00000000000E+00  0.00000000000E+00  0.50000000000E+03  0.50000000000E+03  0.00000000000E+00 0. -1.
         11   -1    0    0    0    0 -0.00000000000E+00 -0.00000000000E+00 -0.50000000000E+03  0.50000000000E+03  0.00000000000E+00 0. -1.
        -11    1    1    2    0    0 -0.13185843321E+02  0.46757921652E+01  0.43419780451E+03  0.43442313812E+03  0.00000000000E+00 0. -1.
         11    1    1    2    0    0 -0.50603761653E+01  0.16996126461E+02 -0.49427088075E+03  0.49458889927E+03  0.00000000000E+00 0. -1.
        -15    1    1    2    0    0  0.12076316813E+02 -0.12486517144E+02  0.10968558224E+02  0.20620803492E+02  0.17770000000E+01 0. -1.
         15    1    1    2    0    0  0.61699026735E+01 -0.91854014823E+01  0.49104518018E+02  0.50367159123E+02  0.17770000000E+01 0.  1.
</event>
<event>
 6   1  0.3798113E-04  0.5011681E+03  0.7546771E-02  0.9397200E-01
        -11   -1    0    0    0    0  0.00000000000E+00  0.00000000000E+00  0.50000000000E+03  0.50000000000E+03  0.00000000000E+00 0.  1.
         11   -1    0    0    0    0 -0.00000000000E+00 -0.00000000000E+00 -0.50000000000E+03  0.50000000000E+03  0.00000000000E+00 0.  1.
        -11    1    1    2    0    0 -0.91277461652E+01 -0.84540785648E+00  0.43050450444E+03  0.43060208871E+03  0.00000000000E+00 0.  1.
         11    1    1    2    0    0 -0.57640858832E+01  0.58127655447E+01 -0.49876476552E+03  0.49883193989E+03  0.00000000000E+00 0.  1.
        -15    1    1    2    0    0  0.81711320277E+01  0.11273543704E+01  0.37971078875E+02  0.38897286363E+02  0.17770000000E+01 0. -1.
         15    1    1    2    0    0  0.67207000207E+01 -0.60947120586E+01  0.30289182210E+02  0.31668685034E+02  0.17770000000E+01 0.  1.
</event>
<event>
 6   1  0.3798113E-04  0.5103990E+03  0.7546771E-02  0.9376837E-01
        -11   -1    0    0    0    0  0.00000000000E+00  0.00000000000E+00  0.50000000000E+03  0.50000000000E+03  0.00000000000E+00 0. -1.
         11   -1    0    0    0    0 -0.00000000000E+00 -0.00000000000E+00 -0.50000000000E+03  0.50000000000E+03  0.00000000000E+00 0.  1.
        -11    1    1    2    0    0 -0.11718649509E+02  0.38705193682E+02  0.48792799553E+03  0.48960100856E+03  0.00000000000E+00 0. -1.
         11    1    1    2    0    0  0.15700613973E+02  0.12492843324E+02 -0.42505230921E+03  0.42552561143E+03  0.00000000000E+00 0.  1.
        -15    1    1    2    0    0 -0.84906671431E+01 -0.23757144469E+02 -0.14793532802E+02  0.29300165249E+02  0.17770000000E+01 0.  1.
         15    1    1    2    0    0  0.45087026785E+01 -0.27440892537E+02 -0.48082153517E+02  0.55573214761E+02  0.17770000000E+01 0. -1.
</event>
<event>
 6   1  0.3798113E-04  0.5055552E+03  0.7546771E-02  0.9387465E-01
        -11   -1    0    0    0    0  0.00000000000E+00  0.00000000000E+00  0.50000000000E+03  0.50000000000E+03  0.00000000000E+00 0.  1.
         11   -1    0    0    0    0 -0.00000000000E+00 -0.00000000000E+00 -0.50000000000E+03  0.50000000000E+03  0.00000000000E+00 0. -1.
        -11    1    1    2    0    0  0.95660185245E+01  0.19562505895E+02  0.36386116386E+03  0.36451220406E+03  0.00000000000E+00 0.  1.
         11    1    1    2    0    0  0.13588542427E+02  0.23916673713E+02 -0.49367902939E+03  0.49444477935E+03  0.00000000000E+00 0. -1.
        -15    1    1    2    0    0 -0.14122214291E+02 -0.44523046180E+01  0.31047102609E+02  0.34443290527E+02  0.17770000000E+01 0.  1.
         15    1    1    2    0    0 -0.90323466608E+01 -0.39026874990E+02  0.98770762924E+02  0.10659972606E+03  0.17770000000E+01 0. -1.
</event>
<event>
 6   1  0.3798113E-04  0.5040826E+03  0.7546771E-02  0.9390721E-01
        -11   -1    0    0    0    0  0.00000000000E+00  0.00000000000E+00  0.50000000000E+03  0.50000000000E+03  0.00000000000E+00 0.  1.
         11   -1    0    0    0    0 -0.00000000000E+00 -0.00000000000E+00 -0.50000000000E+03  0.50000000000E+03  0.00000000000E+00 0.  1.
        -11    1    1    2    0    0  0.34568784586E+02 -0.17369171133E+02  0.49440607727E+03  0.49591739052E+03  0.00000000000E+00 0.  1.
         11    1    1    2    0    0  0.41955562708E+01  0.18402794810E+02 -0.40084523388E+03  0.40128938071E+03  0.00000000000E+00 0.  1.
        -15    1    1    2    0    0 -0.24538517221E+02  0.71759469277E+01 -0.49579402957E+02  0.55811360566E+02  0.17770000000E+01 0.  1.
         15    1    1    2    0    0 -0.14225823635E+02 -0.82095706050E+01 -0.43981440440E+02  0.46981868202E+02  0.17770000000E+01 0. -1.
</event>
<event>
 6   1  0.3798113E-04  0.4874524E+03  0.7546771E-02  0.9428332E-01
        -11   -1    0    0    0    0  0.00000000000E+00  0.00000000000E+00  0.50000000000E+03  0.50000000000E+03  0.00000000000E+00 0.  1.
         11   -1    0    0    0    0 -0.00000000000E+00 -0.00000000000E+00 -0.50000000000E+03  0.50000000000E+03  0.00000000000E+00 0.  1.
        -11    1    1    2    0    0 -0.11836224659E+02  0.17953298323E+00  0.48862403722E+03  0.48876740705E+03  0.00000000000E+00 0.  1.
         11    1    1    2    0    0 -0.87506857788E+01  0.87581823895E+01 -0.48624106538E+03  0.48639865740E+03  0.00000000000E+00 0.  1.
        -15    1    1    2    0    0  0.18439203736E+02 -0.82679569881E+01  0.11085260240E+01  0.20316247343E+02  0.17770000000E+01 0. -1.
         15    1    1    2    0    0  0.21477067017E+01 -0.66975838462E+00 -0.34914978652E+01  0.45176882045E+01  0.17770000000E+01 0.  1.
</event>
<event>
 6   1  0.3798113E-04  0.5003174E+03  0.7546771E-02  0.9399100E-01
        -11   -1    0    0    0    0  0.00000000000E+00  0.00000000000E+00  0.50000000000E+03  0.50000000000E+03  0.00000000000E+00 0. -1.
         11   -1    0    0    0    0 -0.00000000000E+00 -0.00000000000E+00 -0.50000000000E+03  0.50000000000E+03  0.00000000000E+00 0. -1.
        -11    1    1    2    0    0  0.59465132830E+01  0.96923183006E+01  0.16164091509E+03  0.16204038843E+03  0.00000000000E+00 0. -1.
         11    1    1    2    0    0  0.53001918782E+01 -0.84296318603E+01 -0.49958339120E+03  0.49968261475E+03  0.00000000000E+00 0. -1.
        -15    1    1    2    0    0 -0.12135252447E+02  0.20819729274E+00  0.30238567785E+03  0.30263437279E+03  0.17770000000E+01 0. -1.
         15    1    1    2    0    0  0.88854728600E+00 -0.14708837331E+01  0.35556798262E+02  0.35642624018E+02  0.17770000000E+01 0. -1.
</event>
<event>
 6   1  0.3798113E-04  0.5002883E+03  0.7546771E-02  0.9399165E-01
        -11   -1    0    0    0    0  0.00000000000E+00  0.00000000000E+00  0.50000000000E+03  0.50000000000E+03  0.00000000000E+00 0.  1.
         11   -1    0    0    0    0 -0.00000000000E+00 -0.00000000000E+00 -0.50000000000E+03  0.50000000000E+03  0.00000000000E+00 0. -1.
        -11    1    1    2    0    0 -0.14086736721E+01 -0.42085360562E+01  0.13005201358E+03  0.13012771562E+03  0.00000000000E+00 0.  1.
         11    1    1    2    0    0 -0.91897586187E+01 -0.63114397434E+01 -0.49958730025E+03  0.49971167337E+03  0.00000000000E+00 0. -1.
        -15    1    1    2    0    0  0.96702030913E+01  0.11939147217E+00  0.23650454967E+03  0.23670886512E+03  0.17770000000E+01 0. -1.
         15    1    1    2    0    0  0.92822919944E+00  0.10400584327E+02  0.13303073700E+03  0.13345174588E+03  0.17770000000E+01 0.  1.
</event>
<event>
 6   1  0.3798113E-04  0.5024145E+03  0.7546771E-02  0.9394423E-01
        -11   -1    0    0    0    0  0.00000000000E+00  0.00000000000E+00  0.50000000000E+03  0.50000000000E+03  0.00000000000E+00 0. -1.
         11   -1    0    0    0    0 -0.00000000000E+00 -0.00000000000E+00 -0.50000000000E+03  0.50000000000E+03  0.00000000000E+00 0.  1.
        -11    1    1    2    0    0 -0.11884811080E+02 -0.30774427553E+02  0.49649069142E+03  0.49758549093E+03  0.00000000000E+00 0. -1.
         11    1    1    2    0    0 -0.61299419901E+01  0.51390045889E+01 -0.39348587150E+03  0.39356716915E+03  0.00000000000E+00 0.  1.
        -15    1    1    2    0    0  0.12969902559E+02  0.75740670050E+01 -0.32123597445E+02  0.35505888317E+02  0.17770000000E+01 0. -1.
         15    1    1    2    0    0  0.50448505111E+01  0.18061355959E+02 -0.70881222466E+02  0.73341451601E+02  0.17770000000E+01 0.  1.
</event>
<event>
 6   1  0.3798113E-04  0.5014401E+03  0.7546771E-02  0.9396593E-01
        -11   -1    0    0    0    0  0.00000000000E+00  0.00000000000E+00  0.50000000000E+03  0.50000000000E+03  0.00000000000E+00 0. -1.
         11   -1    0    0    0    0 -0.00000000000E+00 -0.00000000000E+00 -0.50000000000E+03  0.50000000000E+03  0.00000000000E+00 0. -1.
        -11    1    1    2    0    0 -0.72020121115E+01 -0.10893580081E+02  0.39475921613E+03  0.39497516097E+03  0.00000000000E+00 0. -1.
         11    1    1    2    0    0 -0.88562437565E+01  0.87798387823E+01 -0.49840395443E+03  0.49855994666E+03  0.00000000000E+00 0. -1.
        -15    1    1    2    0    0  0.67521913031E+01  0.82373377385E+01  0.73299768093E+02  0.74090887104E+02  0.17770000000E+01 0.  1.
         15    1    1    2    0    0  0.93060645649E+01 -0.61235964395E+01  0.30344970210E+02  0.32374005268E+02  0.17770000000E+01 0. -1.
</event>
<event>
 6   1  0.3798113E-04  0.5001696E+03  0.7546771E-02  0.9399430E-01
        -11   -1    0    0    0    0  0.00000000000E+00  0.00000000000E+00  0.50000000000E+03  0.50000000000E+03  0.00000000000E+00 0. -1.
         11   -1    0    0    0    0 -0.00000000000E+00 -0.00000000000E+00 -0.50000000000E+03  0.50000000000E+03  0.00000000000E+00 0.  1.
        -11    1    1    2    0    0 -0.20477523212E+02 -0.23644376951E+02  0.49885070278E+03  0.49983038041E+03  0.00000000000E+00 0. -1.
         11    1    1    2    0    0  0.21554368597E+02  0.22049334989E+02 -0.38931203517E+03  0.39053120836E+03  0.00000000000E+00 0.  1.
        -15    1    1    2    0    0  0.48511739713E+00  0.91836054833E+00 -0.64229102905E+02  0.64262073682E+02  0.17770000000E+01 0.  1.
         15    1    1    2    0    0 -0.15619627820E+01  0.67668141308E+00 -0.45309564710E+02  0.45376337541E+02  0.17770000000E+01 0. -1.
</event>
<event>
 6   1  0.3798113E-04  0.5013026E+03  0.7546771E-02  0.9396900E-01
        -11   -1    0    0    0    0  0.00000000000E+00  0.00000000000E+00  0.50000000000E+03  0.50000000000E+03  0.00000000000E+00 0. -1.
         11   -1    0    0    0    0 -0.00000000000E+00 -0.00000000000E+00 -0.50000000000E+03  0.50000000000E+03  0.00000000000E+00 0. -1.
        -11    1    1    2    0    0  0.46368360749E+01  0.16398093916E+02  0.49840615707E+03  0.49869739837E+03  0.00000000000E+00 0. -1.
         11    1    1    2    0    0 -0.10332372516E+02  0.20836018107E+01 -0.41208092119E+03  0.41221570194E+03  0.00000000000E+00 0. -1.
        -15    1    1    2    0    0 -0.11934347758E+01 -0.19071194520E+01 -0.25009182384E+02  0.25172968114E+02  0.17770000000E+01 0. -1.
         15    1    1    2    0    0  0.68889712168E+01 -0.16574576275E+02 -0.61316053498E+02  0.63913931569E+02  0.17770000000E+01 0. -1.
</event>
<event>
 6   1  0.3798113E-04  0.5001245E+03  0.7546771E-02  0.9399531E-01
        -11   -1    0    0    0    0  0.00000000000E+00  0.00000000000E+00  0.50000000000E+03  0.50000000000E+03  0.00000000000E+00 0.  1.
         11   -1    0    0    0    0 -0.00000000000E+00 -0.00000000000E+00 -0.50000000000E+03  0.50000000000E+03  0.00000000000E+00 0.  1.
        -11    1    1    2    0    0  0.11071721087E+02 -0.64639773159E+01  0.49971102989E+03  0.49987546390E+03  0.00000000000E+00 0.  1.
         11    1    1    2    0    0  0.56600334258E+00 -0.25927688028E+01 -0.15238318544E+03  0.15240629257E+03  0.00000000000E+00 0.  1.
        -15    1    1    2    0    0 -0.11804160307E+01  0.26159579295E+01 -0.40835596906E+02  0.40974874271E+02  0.17770000000E+01 0. -1.
         15    1    1    2    0    0 -0.10457308399E+02  0.64407881893E+01 -0.30649224754E+03  0.30674336926E+03  0.17770000000E+01 0.  1.
</event>
<event>
 6   1  0.3798113E-04  0.5003754E+03  0.7546771E-02  0.9398970E-01
        -11   -1    0    0    0    0  0.00000000000E+00  0.00000000000E+00  0.50000000000E+03  0.50000000000E+03  0.00000000000E+00 0.  1.
         11   -1    0    0    0    0 -0.00000000000E+00 -0.00000000000E+00 -0.50000000000E+03  0.50000000000E+03  0.00000000000E+00 0. -1.
        -11    1    1    2    0    0 -0.50908718238E+01  0.93807374242E+01  0.29986232299E+03  0.30005220873E+03  0.00000000000E+00 0.  1.
         11    1    1    2    0    0 -0.80057382830E+01 -0.36134801424E+01 -0.49954739932E+03  0.49962461234E+03  0.00000000000E+00 0. -1.
        -15    1    1    2    0    0  0.50282409350E+01  0.83820958508E+00  0.66979994532E+02  0.67197196360E+02  0.17770000000E+01 0. -1.
         15    1    1    2    0    0  0.80683691718E+01 -0.66054668669E+01  0.13270508179E+03  0.13312598258E+03  0.17770000000E+01 0.  1.
</event>
<event>
 6   1  0.3798113E-04  0.5002359E+03  0.7546771E-02  0.9399282E-01
        -11   -1    0    0    0    0  0.00000000000E+00  0.00000000000E+00  0.50000000000E+03  0.50000000000E+03  0.00000000000E+00 0. -1.
         11   -1    0    0    0    0 -0.00000000000E+00 -0.00000000000E+00 -0.50000000000E+03  0.50000000000E+03  0.00000000000E+00 0.  1.
        -11    1    1    2    0    0 -0.11717299485E+02 -0.14201972586E+01  0.36372927553E+03  0.36392073030E+03  0.00000000000E+00 0. -1.
         11    1    1    2    0    0  0.77970343766E+01 -0.16308906647E+01 -0.49970064503E+03  0.49976413256E+03  0.00000000000E+00 0.  1.
        -15    1    1    2    0    0 -0.96646029781E+00  0.38206266206E+01  0.70994060161E+02  0.71125561793E+02  0.17770000000E+01 0.  1.
         15    1    1    2    0    0  0.48867254058E+01 -0.76953869727E+00  0.64977309346E+02  0.65189575347E+02  0.17770000000E+01 0. -1.
</event>
<event>
 6   1  0.3798113E-04  0.5001243E+03  0.7546771E-02  0.9399532E-01
        -11   -1    0    0    0    0  0.00000000000E+00  0.00000000000E+00  0.50000000000E+03  0.50000000000E+03  0.00000000000E+00 0. -1.
         11   -1    0    0    0    0 -0.00000000000E+00 -0.00000000000E+00 -0.50000000000E+03  0.50000000000E+03  0.00000000000E+00 0. -1.
        -11    1    1    2    0    0  0.72409680766E+01  0.37898533304E+01  0.49980890357E+03  0.49987571925E+03  0.00000000000E+00 0. -1.
         11    1    1    2    0    0 -0.57832854806E+01  0.42298575265E+01 -0.21120517087E+03  0.21132667197E+03  0.00000000000E+00 0. -1.
        -15    1    1    2    0    0  0.15322825225E+01 -0.91833072510E+00 -0.50810363634E+02  0.50872802190E+02  0.17770000000E+01 0. -1.
         15    1    1    2    0    0 -0.29899651184E+01 -0.71013801318E+01 -0.23779336907E+03  0.23792480659E+03  0.17770000000E+01 0. -1.
</event>
<event>
 6   1  0.3798113E-04  0.5088056E+03  0.7546771E-02  0.9380319E-01
        -11   -1    0    0    0    0  0.00000000000E+00  0.00000000000E+00  0.50000000000E+03  0.50000000000E+03  0.00000000000E+00 0.  1.
         11   -1    0    0    0    0 -0.00000000000E+00 -0.00000000000E+00 -0.50000000000E+03  0.50000000000E+03  0.00000000000E+00 0. -1.
        -11    1    1    2    0    0 -0.25503178617E+02  0.16961994616E+02  0.49023856191E+03  0.49119443092E+03  0.00000000000E+00 0.  1.
         11    1    1    2    0    0  0.33696348759E+01  0.12931338842E+02 -0.44776015245E+03  0.44795951612E+03  0.00000000000E+00 0. -1.
        -15    1    1    2    0    0  0.64195787073E+01 -0.34476145321E+01  0.98866939797E+00  0.75651988024E+01  0.17770000000E+01 0.  1.
         15    1    1    2    0    0  0.15713965034E+02 -0.26445718926E+02 -0.43467078857E+02  0.53280854160E+02  0.17770000000E+01 0. -1.
</event>
<event>
 6   1  0.3798113E-04  0.5033901E+03  0.7546771E-02  0.9392256E-01
        -11   -1    0    0    0    0  0.00000000000E+00  0.00000000000E+00  0.50000000000E+03  0.50000000000E+03  0.00000000000E+00 0. -1.
         11   -1    0    0    0    0 -0.00000000000E+00 -0.00000000000E+00 -0.50000000000E+03  0.50000000000E+03  0.00000000000E+00 0. -1.
        -11    1    1    2    0    0 -0.32088070816E+01  0.16537457822E+02  0.17686715318E+02  0.24425475489E+02  0.00000000000E+00 0. -1.
         11    1    1    2    0    0 -0.31920892191E+01 -0.88646425075E+01 -0.49652051227E+03  0.49660989763E+03  0.00000000000E+00 0. -1.
        -15    1    1    2    0    0  0.45775026375E+01 -0.37728543234E+01  0.21285723622E+03  0.21294729090E+03  0.17770000000E+01 0. -1.
         15    1    1    2    0    0  0.18233936633E+01 -0.38999609914E+01  0.26597656073E+03  0.26601733599E+03  0.17770000000E+01 0.  1.
</event>
<event>
 6   1  0.3798113E-04  0.5043020E+03  0.7546771E-02  0.9390235E-01
        -11   -1    0    0    0    0  0.00000000000E+00  0.00000000000E+00  0.50000000000E+03  0.50000000000E+03  0.00000000000E+00 0. -1.
         11   -1    0    0    0    0 -0.00000000000E+00 -0.00000000000E+00 -0.50000000000E+03  0.50000000000E+03  0.00000000000E+00 0.  1.
        -11    1    1    2    0    0  0.59381668234E+01  0.77789524782E+01  0.48403658591E+03  0.48413550833E+03  0.00000000000E+00 0. -1.
         11    1    1    2    0    0  0.62173366544E+01 -0.56909283089E+01 -0.49562635748E+03  0.49569802115E+03  0.00000000000E+00 0.  1.
        -15    1    1    2    0    0 -0.57011125918E+01  0.17460155705E+01 -0.26577271426E-01  0.62217112202E+01  0.17770000000E+01 0. -1.
         15    1    1    2    0    0 -0.64543908860E+01 -0.38340397398E+01  0.11616348840E+02  0.13944759296E+02  0.17770000000E+01 0.  1.
</event>
<event>
 6   1  0.3798113E-04  0.5019904E+03  0.7546771E-02  0.9395367E-01
        -11   -1    0    0    0    0  0.00000000000E+00  0.00000000000E+00  0.50000000000E+03  0.50000000000E+03  0.00000000000E+00 0.  1.
         11   -1    0    0    0    0 -0.00000000000E+00 -0.00000000000E+00 -0.50000000000E+03  0.50000000000E+03  0.00000000000E+00 0.  1.
        -11    1    1    2    0    0  0.52708792788E+01 -0.73562213540E+01  0.42279440270E+03  0.42289124266E+03  0.00000000000E+00 0.  1.
         11    1    1    2    0    0 -0.78701265673E+01 -0.15581383846E+01 -0.49794497461E+03  0.49800960275E+03  0.00000000000E+00 0.  1.
        -15    1    1    2    0    0  0.11831935481E+02  0.85658671255E+01  0.53623784969E+02  0.55606086180E+02  0.17770000000E+01 0.  1.
         15    1    1    2    0    0 -0.92326881928E+01  0.34849261315E+00  0.21526786943E+02  0.23493068413E+02  0.17770000000E+01 0. -1.
</event>
<event>
 6   1  0.3798113E-04  0.4902346E+03  0.7546771E-02  0.9421930E-01
        -11   -1    0    0    0    0  0.00000000000E+00  0.00000000000E+00  0.50000000000E+03  0.50000000000E+03  0.00000000000E+00 0. -1.
         11   -1    0    0    0    0 -0.00000000000E+00 -0.00000000000E+00 -0.50000000000E+03  0.50000000000E+03  0.00000000000E+00 0. -1.
        -11    1    1    2    0    0  0.12432922441E+02 -0.84448567515E+01  0.48650564054E+03  0.48673774401E+03  0.00000000000E+00 0. -1.
         11    1    1    2    0    0  0.19039900478E+01  0.88860157773E+01 -0.49377970149E+03  0.49386332123E+03  0.00000000000E+00 0. -1.
        -15    1    1    2    0    0 -0.20668099587E+01  0.23087569077E+00 -0.24154674251E+01  0.36492764860E+01  0.17770000000E+01 0.  1.
         15    1    1    2    0    0 -0.12270102530E+02 -0.67203471653E+00  0.96895283764E+01  0.15749658279E+02  0.17770000000E+01 0. -1.
</event>
<event>
 6   1  0.3798113E-04  0.5073690E+03  0.7546771E-02  0.9383470E-01
        -11   -1    0    0    0    0  0.00000000000E+00  0.00000000000E+00  0.50000000000E+03  0.50000000000E+03  0.00000000000E+00 0.  1.
         11   -1    0    0    0    0 -0.00000000000E+00 -0.00000000000E+00 -0.50000000000E+03  0.50000000000E+03  0.00000000000E+00 0.  1.
        -11    1    1    2    0    0  0.11864305608E+02 -0.37582675038E+01  0.49247376013E+03  0.49263098841E+03  0.00000000000E+00 0.  1.
         11    1    1    2    0    0  0.63790547634E+01  0.66515556658E+01 -0.48079238333E+03  0.48088070392E+03  0.00000000000E+00 0.  1.
        -15    1    1    2    0    0 -0.73152284525E+01 -0.51447749515E+01 -0.12137488484E+02  0.15180831081E+02  0.17770000000E+01 0.  1.
         15    1    1    2    0    0 -0.10928131918E+02  0.22514867896E+01  0.45611168197E+00  0.11307476591E+02  0.17770000000E+01 0. -1.
</event>
<event>
 6   1  0.3798113E-04  0.5006072E+03  0.7546771E-02  0.9398452E-01
        -11   -1    0    0    0    0  0.00000000000E+00  0.00000000000E+00  0.50000000000E+03  0.50000000000E+03  0.00000000000E+00 0. -1.
         11   -1    0    0    0    0 -0.00000000000E+00 -0.00000000000E+00 -0.50000000000E+03  0.50000000000E+03  0.00000000000E+00 0. -1.
        -11    1    1    2    0    0  0.46031560899E+01 -0.69120003353E+01  0.34997102544E+03  0.35006954086E+03  0.00000000000E+00 0. -1.
         11    1    1    2    0    0  0.58768330385E+01 -0.67641890367E+01 -0.49931238119E+03  0.49939277671E+03  0.00000000000E+00 0. -1.
        -15    1    1    2    0    0 -0.12802677764E+01  0.45480060542E+01  0.64099640511E+02  0.64298095519E+02  0.17770000000E+01 0. -1.
         15    1    1    2    0    0 -0.91997213519E+01  0.91281833178E+01  0.85241715242E+02  0.86239586908E+02  0.17770000000E+01 0.  1.
</event>
<event>
 6   1  0.3798113E-04  0.5039587E+03  0.7546771E-02  0.9390995E-01
        -11   -1    0    0    0    0  0.00000000000E+00  0.00000000000E+00  0.50000000000E+03  0.50000000000E+03  0.00000000000E+00 0. -1.
         11   -1    0    0    0    0 -0.00000000000E+00 -0.00000000000E+00 -0.50000000000E+03  0.50000000000E+03  0.00000000000E+00 0. -1.
        -11    1    1    2    0    0  0.58488780163E+01 -0.98486785868E+01  0.44394344370E+03  0.44409119226E+03  0.00000000000E+00 0. -1.
         11    1    1    2    0    0  0.23765337518E+01 -0.67521374080E+01 -0.49598969562E+03  0.49604134650E+03  0.00000000000E+00 0. -1.
        -15    1    1    2    0    0 -0.10010027724E+02  0.10794073197E+02  0.51410594816E+02  0.53506258134E+02  0.17770000000E+01 0. -1.
         15    1    1    2    0    0  0.17846159560E+01  0.58067427979E+01  0.63565710761E+00  0.63612031086E+01  0.17770000000E+01 0.  1.
</event>
<event>
 6   1  0.3798113E-04  0.5050376E+03  0.7546771E-02  0.9388608E-01
        -11   -1    0    0    0    0  0.00000000000E+00  0.00000000000E+00  0.50000000000E+03  0.50000000000E+03  0.00000000000E+00 0.  1.
         11   -1    0    0    0    0 -0.00000000000E+00 -0.00000000000E+00 -0.50000000000E+03  0.50000000000E+03  0.00000000000E+00 0. -1.
        -11    1    1    2    0    0  0.23135502586E+02 -0.13681968153E+02  0.27547216609E+02  0.38487619768E+02  0.00000000000E+00 0.  1.
         11    1    1    2    0    0 -0.26457434941E+02  0.14271244888E+02 -0.49404868780E+03  0.49496239272E+03  0.00000000000E+00 0. -1.
        -15    1    1    2    0    0  0.24509225507E+01  0.18795278494E+01  0.24361027431E+03  0.24363633375E+03  0.17770000000E+01 0. -1.
         15    1    1    2    0    0  0.87100980421E+00 -0.24688045838E+01  0.22289119688E+03  0.22291365375E+03  0.17770000000E+01 0.  1.
</event>
<event>
 6   1  0.3798113E-04  0.5058200E+03  0.7546771E-02  0.9386880E-01
        -11   -1    0    0    0    0  0.00000000000E+00  0.00000000000E+00  0.50000000000E+03  0.50000000000E+03  0.00000000000E+00 0.  1.
         11   -1    0    0    0    0 -0.00000000000E+00 -0.00000000000E+00 -0.50000000000E+03  0.50000000000E+03  0.00000000000E+00 0. -1.
        -11    1    1    2    0    0 -0.18625716949E+01 -0.82077486291E+01  0.48908277028E+03  0.48915518243E+03  0.00000000000E+00 0.  1.
         11    1    1    2    0    0  0.66337870208E+01  0.29429183864E+01 -0.49412666080E+03  0.49417995185E+03  0.00000000000E+00 0. -1.
        -15    1    1    2    0    0  0.72681657507E+00  0.88469685632E+01  0.34022472093E+01  0.96710976712E+01  0.17770000000E+01 0.  1.
         15    1    1    2    0    0 -0.54980319010E+01 -0.35821383205E+01  0.16416433086E+01  0.69937680462E+01  0.17770000000E+01 0. -1.
</event>
<event>
 6   1  0.3798113E-04  0.5001666E+03  0.7546771E-02  0.9399437E-01
        -11   -1    0    0    0    0  0.00000000000E+00  0.00000000000E+00  0.50000000000E+03  0.50000000000E+03  0.00000000000E+00 0. -1.
         11   -1    0    0    0    0 -0.00000000000E+00 -0.00000000000E+00 -0.50000000000E+03  0.50000000000E+03  0.00000000000E+00 0. -1.
        -11    1    1    2    0    0  0.52025792457E+01  0.18548175171E+01  0.40649013748E+02  0.41022548647E+02  0.00000000000E+00 0. -1.
         11    1    1    2    0    0 -0.12399180752E+02 -0.42642263384E+00 -0.49967937425E+03  0.49983337081E+03  0.00000000000E+00 0. -1.
        -15    1    1    2    0    0  0.50919128453E+01 -0.36575054757E+01  0.25671404091E+03  0.25679673178E+03  0.17770000000E+01 0. -1.
         15    1    1    2    0    0  0.21046886615E+01  0.22291105924E+01  0.20231631960E+03  0.20234734877E+03  0.17770000000E+01 0.  1.
</event>
<event>
 6   1  0.3798113E-04  0.4793209E+03  0.7546771E-02  0.9447308E-01
        -11   -1    0    0    0    0  0.00000000000E+00  0.00000000000E+00  0.50000000000E+03  0.50000000000E+03  0.00000000000E+00 0.  1.
         11   -1    0    0    0    0 -0.00000000000E+00 -0.00000000000E+00 -0.50000000000E+03  0.50000000000E+03  0.00000000000E+00 0.  1.
        -11    1    1    2    0    0  0.15866580593E+02  0.21768647108E+02  0.48606183825E+03  0.48680769610E+03  0.00000000000E+00 0.  1.
         11    1    1    2    0    0 -0.47647482144E+01  0.57609106967E+01 -0.47233259314E+03  0.47239175423E+03  0.00000000000E+00 0.  1.
        -15    1    1    2    0    0  0.24016988276E+01 -0.24134394765E+02 -0.75477807562E+01  0.25462990620E+02  0.17770000000E+01 0. -1.
         15    1    1    2    0    0 -0.13503531206E+02 -0.33951630394E+01 -0.61814643573E+01  0.15337559053E+02  0.17770000000E+01 0.  1.
</event>
<event>
 6   1  0.3798113E-04  0.5026057E+03  0.7546771E-02  0.9393998E-01
        -11   -1    0    0    0    0  0.00000000000E+00  0.00000000000E+00  0.50000000000E+03  0.50000000000E+03  0.00000000000E+00 0.  1.
         11   -1    0    0    0    0 -0.00000000000E+00 -0.00000000000E+00 -0.50000000000E+03  0.50000000000E+03  0.00000000000E+00 0.  1.
        -11    1    1    2    0    0  0.20595029189E+02  0.13615447794E+02  0.49678122332E+03  0.49739432997E+03  0.00000000000E+00 0.  1.
         11    1    1    2    0    0  0.20419778796E+01 -0.19681489509E+02 -0.42487431580E+03  0.42533482685E+03  0.00000000000E+00 0.  1.
        -15    1    1    2    0    0 -0.16553118594E+02  0.10437894173E+02 -0.41695124082E+02  0.46093345194E+02  0.17770000000E+01 0.  1.
         15    1    1    2    0    0 -0.60838884753E+01 -0.43718524575E+01 -0.30211783437E+02  0.31177497981E+02  0.17770000000E+01 0. -1.
</event>
<event>
 6   1  0.3798113E-04  0.5041490E+03  0.7546771E-02  0.9390574E-01
        -11   -1    0    0    0    0  0.00000000000E+00  0.00000000000E+00  0.50000000000E+03  0.50000000000E+03  0.00000000000E+00 0. -1.
         11   -1    0    0    0    0 -0.00000000000E+00 -0.00000000000E+00 -0.50000000000E+03  0.50000000000E+03  0.00000000000E+00 0. -1.
        -11    1    1    2    0    0  0.20271584079E+02 -0.64342740803E+01  0.22636069492E+02  0.31060081231E+02  0.00000000000E+00 0. -1.
         11    1    1    2    0    0 -0.17588036125E+02  0.29670808434E+01 -0.49553006717E+03  0.49585097565E+03  0.00000000000E+00 0. -1.
        -15    1    1    2    0    0  0.29992494432E+01 -0.48983745578E-01  0.43573464068E+02  0.43712725796E+02  0.17770000000E+01 0.  1.
         15    1    1    2    0    0 -0.56827973978E+01  0.35161769825E+01  0.42932053361E+03  0.42937621732E+03  0.17770000000E+01 0. -1.
</event>
<event>
 6   1  0.3798113E-04  0.5016371E+03  0.7546771E-02  0.9396154E-01
        -11   -1    0    0    0    0  0.00000000000E+00  0.00000000000E+00  0.50000000000E+03  0.50000000000E+03  0.00000000000E+00 0. -1.
         11   -1    0    0    0    0 -0.00000000000E+00 -0.00000000000E+00 -0.50000000000E+03  0.50000000000E+03  0.00000000000E+00 0. -1.
        -11    1    1    2    0    0 -0.42845825440E+01 -0.11304610919E+02  0.49821623442E+03  0.49836288798E+03  0.00000000000E+00 0. -1.
         11    1    1    2    0    0  0.63743901341E+01 -0.40687169932E+01 -0.45389614084E+03  0.45395913250E+03  0.00000000000E+00 0. -1.
        -15    1    1    2    0    0  0.22086020070E+01  0.10258633865E+02 -0.25755210032E+02  0.27867652653E+02  0.17770000000E+01 0. -1.
         15    1    1    2    0    0 -0.42984095971E+01  0.51146940471E+01 -0.18564883551E+02  0.19810326865E+02  0.17770000000E+01 0.  1.
</event>
<event>
 6   1  0.3798113E-04  0.5000615E+03  0.7546771E-02  0.9399672E-01
        -11   -1    0    0    0    0  0.00000000000E+00  0.00000000000E+00  0.50000000000E+03  0.50000000000E+03  0.00000000000E+00 0. -1.
         11   -1    0    0    0    0 -0.00000000000E+00 -0.00000000000E+00 -0.50000000000E+03  0.50000000000E+03  0.00000000000E+00 0. -1.
        -11    1    1    2    0    0 -0.23641409037E+01 -0.81544001278E+01  0.24621066990E+03  0.24635701203E+03  0.00000000000E+00 0. -1.
         11    1    1    2    0    0  0.56663248886E+01  0.93842793421E+01 -0.49981826096E+03  0.49993846214E+03  0.00000000000E+00 0. -1.
        -15    1    1    2    0    0 -0.12036731647E+01 -0.26542343173E+01  0.17921705747E+03  0.17924956125E+03  0.17770000000E+01 0.  1.
         15    1    1    2    0    0 -0.20985108202E+01  0.14243551030E+01  0.74390533588E+02  0.74454964587E+02  0.17770000000E+01 0.  1.
</event>
<event>
 6   1  0.3798113E-04  0.5019788E+03  0.7546771E-02  0.9395393E-01
        -11   -1    0    0    0    0  0.00000000000E+00  0.00000000000E+00  0.50000000000E+03  0.50000000000E+03  0.00000000000E+00 0.  1.
         11   -1    0    0    0    0 -0.00000000000E+00 -0.00000000000E+00 -0.50000000000E+03  0.50000000000E+03  0.00000000000E+00 0. -1.
        -11    1    1    2    0    0 -0.92448454013E+01  0.26914075229E+02  0.42675205200E+03  0.42769983458E+03  0.00000000000E+00 0.  1.
         11    1    1    2    0    0 -0.84191391499E+01 -0.15780038600E+02 -0.49769993720E+03  0.49802120338E+03  0.00000000000E+00 0. -1.
        -15    1    1    2    0    0  0.13735660897E+02 -0.58396565035E+01  0.52446084531E+02  0.54557487845E+02  0.17770000000E+01 0.  1.
         15    1    1    2    0    0  0.39283236547E+01 -0.52943801251E+01  0.18501800671E+02  0.19721474202E+02  0.17770000000E+01 0. -1.
</event>
<event>
 6   1  0.3798113E-04  0.5002069E+03  0.7546771E-02  0.9399347E-01
        -11   -1    0    0    0    0  0.00000000000E+00  0.00000000000E+00  0.50000000000E+03  0.50000000000E+03  0.00000000000E+00 0. -1.
         11   -1    0    0    0    0 -0.00000000000E+00 -0.00000000000E+00 -0.50000000000E+03  0.50000000000E+03  0.00000000000E+00 0.  1.
        -11    1    1    2    0    0 -0.41797529351E+01 -0.21457861666E+02  0.49931479514E+03  0.49979313201E+03  0.00000000000E+00 0. -1.
         11    1    1    2    0    0  0.57853120481E+00 -0.34630403412E+00 -0.42016290484E+02  0.42021700237E+02  0.00000000000E+00 0.  1.
        -15    1    1    2    0    0 -0.63977817093E+01  0.37041579419E+01 -0.10398304704E+03  0.10426065508E+03  0.17770000000E+01 0. -1.
         15    1    1    2    0    0  0.99990034396E+01  0.18100007758E+02 -0.35331545762E+03  0.35392451267E+03  0.17770000000E+01 0.  1.
</event>
<event>
 6   1  0.3798113E-04  0.5003518E+03  0.7546771E-02  0.9399023E-01
        -11   -1    0    0    0    0  0.00000000000E+00  0.00000000000E+00  0.50000000000E+03  0.50000000000E+03  0.00000000000E+00 0. -1.
         11   -1    0    0    0    0 -0.00000000000E+00 -0.00000000000E+00 -0.50000000000E+03  0.50000000000E+03  0.00000000000E+00 0. -1.
        -11    1    1    2    0    0 -0.17826146577E+02 -0.11636883610E+02  0.28390805957E+03  0.28470506643E+03  0.00000000000E+00 0. -1.
         11    1    1    2    0    0  0.14706043506E+02  0.87345599152E+01 -0.49935534137E+03  0.49964819344E+03  0.00000000000E+00 0. -1.
        -15    1    1    2    0    0  0.28255942155E+01  0.39339557578E+01  0.19927678031E+03  0.19934355493E+03  0.17770000000E+01 0.  1.
         15    1    1    2    0    0  0.29450885556E+00 -0.10316320632E+01  0.16170501493E+02  0.16303185201E+02  0.17770000000E+01 0. -1.
</event>
<event>
 6   1  0.3798113E-04  0.5003696E+03  0.7546771E-02  0.9398983E-01
        -11   -1    0    0    0    0  0.00000000000E+00  0.00000000000E+00  0.50000000000E+03  0.50000000000E+03  0.00000000000E+00 0. -1.
         11   -1    0    0    0    0 -0.00000000000E+00 -0.00000000000E+00 -0.50000000000E+03  0.50000000000E+03  0.00000000000E+00 0. -1.
        -11    1    1    2    0    0  0.24007975136E+01  0.27171636192E+02  0.37645428973E+03  0.37744124562E+03  0.00000000000E+00 0. -1.
         11    1    1    2    0    0 -0.61387808027E+01 -0.22694470796E+02 -0.49907692456E+03  0.49963036364E+03  0.00000000000E+00 0. -1.
        -15    1    1    2    0    0  0.24051480902E+01  0.35618029926E+00  0.61899081115E+02  0.61972296824E+02  0.17770000000E+01 0. -1.
         15    1    1    2    0    0  0.13328351989E+01 -0.48333456954E+01  0.60723553721E+02  0.60956093919E+02  0.17770000000E+01 0. -1.
</event>
<event>
 6   1  0.3798113E-04  0.4877623E+03  0.7546771E-02  0.9427617E-01
        -11   -1    0    0    0    0  0.00000000000E+00  0.00000000000E+00  0.50000000000E+03  0.50000000000E+03  0.00000000000E+00 0.  1.
         11   -1    0    0    0    0 -0.00000000000E+00 -0.00000000000E+00 -0.50000000000E+03  0.50000000000E+03  0.00000000000E+00 0.  1.
        -11    1    1    2    0    0  0.99794251068E+01  0.33875848234E+01  0.49152345143E+03  0.49163641847E+03  0.00000000000E+00 0.  1.
         11    1    1    2    0    0  0.98123183456E+01 -0.92798441317E+00 -0.48402062626E+03  0.48412096566E+03  0.00000000000E+00 0.  1.
        -15    1    1    2    0    0 -0.19234294746E+02 -0.34532700398E+01 -0.38098095938E+01  0.19988885574E+02  0.17770000000E+01 0. -1.
         15    1    1    2    0    0 -0.55744870658E+00  0.99366962958E+00 -0.36930155775E+01  0.42537302981E+01  0.17770000000E+01 0.  1.
</event>
<event>
 6   1  0.3798113E-04  0.5001151E+03  0.7546771E-02  0.9399552E-01
        -11   -1    0    0    0    0  0.00000000000E+00  0.00000000000E+00  0.50000000000E+03  0.50000000000E+03  0.00000000000E+00 0. -1.
         11   -1    0    0    0    0 -0.00000000000E+00 -0.00000000000E+00 -0.50000000000E+03  0.50000000000E+03  0.00000000000E+00 0.  1.
        -11    1    1    2    0    0 -0.63452782545E+01  0.10371899424E+02  0.18777397278E+03  0.18816722272E+03  0.00000000000E+00 0. -1.
         11    1    1    2    0    0  0.10429829279E+02 -0.23198656831E+02 -0.49923732702E+03  0.49988485445E+03  0.00000000000E+00 0.  1.
        -15    1    1    2    0    0 -0.26845407464E+00  0.31643165642E+01  0.22496677862E+02  0.22789102895E+02  0.17770000000E+01 0. -1.
         15    1    1    2    0    0 -0.38160969495E+01  0.96624408423E+01  0.28896667638E+03  0.28915881994E+03  0.17770000000E+01 0.  1.
</event>
<event>
 6   1  0.3798113E-04  0.5161670E+03  0.7546771E-02  0.9364344E-01
        -11   -1    0    0    0    0  0.00000000000E+00  0.00000000000E+00  0.50000000000E+03  0.50000000000E+03  0.00000000000E+00 0.  1.
         11   -1    0    0    0    0 -0.00000000000E+00 -0.00000000000E+00 -0.50000000000E+03  0.50000000000E+03  0.00000000000E+00 0.  1.
        -11    1    1    2    0    0  0.12909735423E+02 -0.51916993909E+02  0.48086626427E+03  0.48383302868E+03  0.00000000000E+00 0.  1.
         11    1    1    2    0    0  0.21024981390E+02 -0.29783400707E+02 -0.37443960181E+03  0.37621020215E+03  0.00000000000E+00 0.  1.
        -15    1    1    2    0    0 -0.35477181177E+02  0.67523218106E+02 -0.92970996015E+02  0.12026961044E+03  0.17770000000E+01 0. -1.
         15    1    1    2    0    0  0.15424643642E+01  0.14177176511E+02 -0.13455666449E+02  0.19687158726E+02  0.17770000000E+01 0.  1.
</event>
<event>
 6   1  0.3798113E-04  0.5041198E+03  0.7546771E-02  0.9390638E-01
        -11   -1    0    0    0    0  0.00000000000E+00  0.00000000000E+00  0.50000000000E+03  0.50000000000E+03  0.00000000000E+00 0.  1.
         11   -1    0    0    0    0 -0.00000000000E+00 -0.00000000000E+00 -0.50000000000E+03  0.50000000000E+03  0.00000000000E+00 0.  1.
        -11    1    1    2    0    0 -0.21997045913E+02  0.15822100564E+02  0.49513936318E+03  0.49588022533E+03  0.00000000000E+00 0.  1.
         11    1    1    2    0    0  0.62587100592E+01 -0.25387952173E+00 -0.44601406951E+03  0.44605805239E+03  0.00000000000E+00 0.  1.
        -15    1    1    2    0    0  0.20742006173E+02 -0.11707720129E+02 -0.33777352891E+02  0.41368693816E+02  0.17770000000E+01 0.  1.
         15    1    1    2    0    0 -0.50036703187E+01 -0.38605009132E+01 -0.15347940785E+02  0.16693028464E+02  0.17770000000E+01 0. -1.
</event>
<event>
 6   1  0.3798113E-04  0.5006601E+03  0.7546771E-02  0.9398334E-01
        -11   -1    0    0    0    0  0.00000000000E+00  0.00000000000E+00  0.50000000000E+03  0.50000000000E+03  0.00000000000E+00 0. -1.
         11   -1    0    0    0    0 -0.00000000000E+00 -0.00000000000E+00 -0.50000000000E+03  0.50000000000E+03  0.00000000000E+00 0. -1.
        -11    1    1    2    0    0 -0.48791690303E+00 -0.90326051674E+01  0.39924375147E+03  0.39934621459E+03  0.00000000000E+00 0. -1.
         11    1    1    2    0    0  0.13246613767E+01  0.98635936469E+01 -0.49924073354E+03  0.49933991953E+03  0.00000000000E+00 0. -1.
        -15    1    1    2    0    0 -0.40656123747E+01 -0.73443969952E+01  0.45087496596E+02  0.45896725913E+02  0.17770000000E+01 0.  1.
         15    1    1    2    0    0  0.32288679011E+01  0.65134085157E+01  0.54909485473E+02  0.55417139969E+02  0.17770000000E+01 0. -1.
</event>
<event>
 6   1  0.3798113E-04  0.5015411E+03  0.7546771E-02  0.9396368E-01
        -11   -1    0    0    0    0  0.00000000000E+00  0.00000000000E+00  0.50000000000E+03  0.50000000000E+03  0.00000000000E+00 0. -1.
         11   -1    0    0    0    0 -0.00000000000E+00 -0.00000000000E+00 -0.50000000000E+03  0.50000000000E+03  0.00000000000E+00 0.  1.
        -11    1    1    2    0    0  0.91683620222E-01 -0.19297728053E+02  0.32849372215E+03  0.32906007993E+03  0.00000000000E+00 0. -1.
         11    1    1    2    0    0 -0.24893930565E+01 -0.78920139528E+01 -0.49839023354E+03  0.49845893096E+03  0.00000000000E+00 0.  1.
        -15    1    1    2    0    0  0.11271391928E+01  0.27259632747E+02  0.16184443428E+03  0.16413755407E+03  0.17770000000E+01 0. -1.
         15    1    1    2    0    0  0.12705702435E+01 -0.69890741425E-01  0.80520771119E+01  0.83434350405E+01  0.17770000000E+01 0.  1.
</event>
<event>
 6   1  0.3798113E-04  0.5002261E+03  0.7546771E-02  0.9399304E-01
        -11   -1    0    0    0    0  0.00000000000E+00  0.00000000000E+00  0.50000000000E+03  0.50000000000E+03  0.00000000000E+00 0.  1.
         11   -1    0    0    0    0 -0.00000000000E+00 -0.00000000000E+00 -0.50000000000E+03  0.50000000000E+03  0.00000000000E+00 0. -1.
        -11    1    1    2    0    0 -0.12388877758E+02 -0.76396250679E+01  0.18245294930E+03  0.18303258418E+03  0.00000000000E+00 0.  1.
         11    1    1    2    0    0  0.91772533903E+01  0.15769595700E+02 -0.49944072968E+03  0.49977389347E+03  0.00000000000E+00 0. -1.
        -15    1    1    2    0    0  0.69288754083E+00 -0.50514760142E+01  0.25300001312E+03  0.25305762559E+03  0.17770000000E+01 0.  1.
         15    1    1    2    0    0  0.25187368273E+01 -0.30784946179E+01  0.63987767268E+02  0.64135896761E+02  0.17770000000E+01 0. -1.
</event>
<event>
 6   1  0.3798113E-04  0.5001971E+03  0.7546771E-02  0.9399369E-01
        -11   -1    0    0    0    0  0.00000000000E+00  0.00000000000E+00  0.50000000000E+03  0.50000000000E+03  0.00000000000E+00 0.  1.
         11   -1    0    0    0    0 -0.00000000000E+00 -0.00000000000E+00 -0.50000000000E+03  0.50000000000E+03  0.00000000000E+00 0. -1.
        -11    1    1    2    0    0  0.10065460172E+02  0.37510335146E+01  0.49968747914E+03  0.49980292171E+03  0.00000000000E+00 0.  1.
         11    1    1    2    0    0  0.51434987433E+01 -0.57051764823E+00 -0.16991372429E+03  0.16999251387E+03  0.00000000000E+00 0. -1.
        -15    1    1    2    0    0 -0.27233911444E+01 -0.23128291873E+01 -0.10479087444E+03  0.10486682570E+03  0.17770000000E+01 0. -1.
         15    1    1    2    0    0 -0.12485567771E+02 -0.86768667909E+00 -0.22498288041E+03  0.22533773872E+03  0.17770000000E+01 0.  1.
</event>
<event>
 6   1  0.3798113E-04  0.5087895E+03  0.7546771E-02  0.9380355E-01
        -11   -1    0    0    0    0  0.00000000000E+00  0.00000000000E+00  0.50000000000E+03  0.50000000000E+03  0.00000000000E+00 0. -1.
         11   -1    0    0    0    0 -0.00000000000E+00 -0.00000000000E+00 -0.50000000000E+03  0.50000000000E+03  0.00000000000E+00 0.  1.
        -11    1    1    2    0    0  0.18738033057E+02  0.15985534691E+02  0.46494078680E+03  0.46559272592E+03  0.00000000000E+00 0. -1.
         11    1    1    2    0    0  0.51916849362E+01 -0.44489833725E+01 -0.49116294461E+03  0.49121053043E+03  0.00000000000E+00 0.  1.
        -15    1    1    2    0    0 -0.91164637727E+01 -0.90139359444E+01  0.24830963031E+02  0.28001703644E+02  0.17770000000E+01 0. -1.
         15    1    1    2    0    0 -0.14813254221E+02 -0.25226153745E+01  0.13911947824E+01  0.15195040009E+02  0.17770000000E+01 0.  1.
</event>
<event>
 6   1  0.3798113E-04  0.5000834E+03  0.7546771E-02  0.9399623E-01
        -11   -1    0    0    0    0  0.00000000000E+00  0.00000000000E+00  0.50000000000E+03  0.50000000000E+03  0.00000000000E+00 0. -1.
         11   -1    0    0    0    0 -0.00000000000E+00 -0.00000000000E+00 -0.50000000000E+03  0.50000000000E+03  0.00000000000E+00 0. -1.
        -11    1    1    2    0    0 -0.36087008951E+01  0.50514850980E+00  0.13916884467E+03  0.13921654077E+03  0.00000000000E+00 0. -1.
         11    1    1    2    0    0  0.26572435479E+01 -0.66420966753E+01 -0.49986543927E+03  0.49991662881E+03  0.00000000000E+00 0. -1.
        -15    1    1    2    0    0  0.42087767516E+01  0.41728728396E+01  0.27265241715E+03  0.27272261544E+03  0.17770000000E+01 0. -1.
         15    1    1    2    0    0 -0.32573194044E+01  0.19640753259E+01  0.88044177449E+02  0.88144214974E+02  0.17770000000E+01 0.  1.
</event>
<event>
 6   1  0.3798113E-04  0.4906380E+03  0.7546771E-02  0.9421005E-01
        -11   -1    0    0    0    0  0.00000000000E+00  0.00000000000E+00  0.50000000000E+03  0.50000000000E+03  0.00000000000E+00 0.  1.
         11   -1    0    0    0    0 -0.00000000000E+00 -0.00000000000E+00 -0.50000000000E+03  0.50000000000E+03  0.00000000000E+00 0.  1.
        -11    1    1    2    0    0  0.87602174415E+01  0.60955021295E+01  0.49260172178E+03  0.49271731536E+03  0.00000000000E+00 0.  1.
         11    1    1    2    0    0  0.16672829230E+01  0.69309549476E+01 -0.48865649077E+03  0.48870848564E+03  0.00000000000E+00 0.  1.
        -15    1    1    2    0    0 -0.31014902383E+01 -0.66433291482E+01  0.85410120562E+00  0.75921197132E+01  0.17770000000E+01 0. -1.
         15    1    1    2    0    0 -0.73260101262E+01 -0.63831279289E+01 -0.47993322196E+01  0.10982079279E+02  0.17770000000E+01 0.  1.
</event>
<event>
 6   1  0.3798113E-04  0.5097158E+03  0.7546771E-02  0.9378328E-01
        -11   -1    0    0    0    0  0.00000000000E+00  0.00000000000E+00  0.50000000000E+03  0.50000000000E+03  0.00000000000E+00 0.  1.
         11   -1    0    0    0    0 -0.00000000000E+00 -0.00000000000E+00 -0.50000000000E+03  0.50000000000E+03  0.00000000000E+00 0. -1.
        -11    1    1    2    0    0 -0.16856658984E+02 -0.56687610183E+01  0.47491275821E+03  0.47524563092E+03  0.00000000000E+00 0.  1.
         11    1    1    2    0    0  0.96613952220E+01  0.64992847295E+00 -0.49018851806E+03  0.49028415047E+03  0.00000000000E+00 0. -1.
        -15    1    1    2    0    0  0.18208135717E+02  0.50179506330E+01  0.13232092220E+02  0.23129246170E+02  0.17770000000E+01 0. -1.
         15    1    1    2    0    0 -0.11012871955E+02  0.88191241008E-03  0.20436676282E+01  0.11340972438E+02  0.17770000000E+01 0.  1.
</event>
<event>
 6   1  0.3798113E-04  0.5015842E+03  0.7546771E-02  0.9396272E-01
        -11   -1    0    0    0    0  0.00000000000E+00  0.00000000000E+00  0.50000000000E+03  0.50000000000E+03  0.00000000000E+00 0. -1.
         11   -1    0    0    0    0 -0.00000000000E+00 -0.00000000000E+00 -0.50000000000E+03  0.50000000000E+03  0.00000000000E+00 0. -1.
        -11    1    1    2    0    0  0.55237616084E+01  0.21456990431E+02  0.17206116364E+03  0.17348186768E+03  0.00000000000E+00 0. -1.
         11    1    1    2    0    0 -0.12468091534E+02  0.15120879779E+01 -0.49825751633E+03  0.49841578255E+03  0.00000000000E+00 0. -1.
        -15    1    1    2    0    0  0.14541926907E+02 -0.66821670663E+01  0.11284572668E+03  0.11398874836E+03  0.17770000000E+01 0. -1.
         15    1    1    2    0    0 -0.75975969817E+01 -0.16286911343E+02  0.21335062602E+03  0.21411360142E+03  0.17770000000E+01 0.  1.
</event>
<event>
 6   1  0.3798113E-04  0.5002994E+03  0.7546771E-02  0.9399140E-01
        -11   -1    0    0    0    0  0.00000000000E+00  0.00000000000E+00  0.50000000000E+03  0.50000000000E+03  0.00000000000E+00 0. -1.
         11   -1    0    0    0    0 -0.00000000000E+00 -0.00000000000E+00 -0.50000000000E+03  0.50000000000E+03  0.00000000000E+00 0.  1.
        -11    1    1    2    0    0  0.39742393045E+01 -0.59379052892E+01  0.49964951400E+03  0.49970060049E+03  0.00000000000E+00 0. -1.
         11    1    1    2    0    0 -0.50538889179E+01  0.45481827525E+01 -0.46406250003E+03  0.46411230505E+03  0.00000000000E+00 0.  1.
        -15    1    1    2    0    0  0.14195706832E+01 -0.17817885838E+01 -0.14254579360E+02  0.14544439254E+02  0.17770000000E+01 0. -1.
         15    1    1    2    0    0 -0.33992106989E+00  0.31715111205E+01 -0.21332434606E+02  0.21642655205E+02  0.17770000000E+01 0.  1.
</event>
<event>
 6   1  0.3798113E-04  0.5000800E+03  0.7546771E-02  0.9399631E-01
        -11   -1    0    0    0    0  0.00000000000E+00  0.00000000000E+00  0.50000000000E+03  0.50000000000E+03  0.00000000000E+00 0. -1.
         11   -1    0    0    0    0 -0.00000000000E+00 -0.00000000000E+00 -0.50000000000E+03  0.50000000000E+03  0.00000000000E+00 0.  1.
        -11    1    1    2    0    0 -0.23032077316E+01 -0.10066952690E+02  0.49981332241E+03  0.49991999916E+03  0.00000000000E+00 0. -1.
         11    1    1    2    0    0 -0.38084793012E+01  0.46731859078E+01 -0.16953950984E+03  0.16964665802E+03  0.00000000000E+00 0.  1.
        -15    1    1    2    0    0  0.51017479437E+01  0.54475341372E+01 -0.20619073715E+03  0.20633342259E+03  0.17770000000E+01 0.  1.
         15    1    1    2    0    0  0.10099390891E+01 -0.53767355171E-01 -0.12408307542E+03  0.12409992024E+03  0.17770000000E+01 0. -1.
</event>
<event>
 6   1  0.3798113E-04  0.5063728E+03  0.7546771E-02  0.9385662E-01
        -11   -1    0    0    0    0  0.00000000000E+00  0.00000000000E+00  0.50000000000E+03  0.50000000000E+03  0.00000000000E+00 0.  1.
         11   -1    0    0    0    0 -0.00000000000E+00 -0.00000000000E+00 -0.50000000000E+03  0.50000000000E+03  0.00000000000E+00 0. -1.
        -11    1    1    2    0    0 -0.12668737277E-01  0.29400472862E+02  0.49275088809E+03  0.49362721326E+03  0.00000000000E+00 0.  1.
         11    1    1    2    0    0 -0.83633614707E+01  0.18311739891E+02 -0.39045338725E+03  0.39097201083E+03  0.00000000000E+00 0. -1.
        -15    1    1    2    0    0  0.17949060302E+01 -0.42722724262E+02 -0.70260859812E+02  0.82269064700E+02  0.17770000000E+01 0.  1.
         15    1    1    2    0    0  0.65811241778E+01 -0.49894884908E+01 -0.32036641020E+02  0.33131711209E+02  0.17770000000E+01 0. -1.
</event>
<event>
 6   1  0.3798113E-04  0.5001779E+03  0.7546771E-02  0.9399412E-01
        -11   -1    0    0    0    0  0.00000000000E+00  0.00000000000E+00  0.50000000000E+03  0.50000000000E+03  0.00000000000E+00 0. -1.
         11   -1    0    0    0    0 -0.00000000000E+00 -0.00000000000E+00 -0.50000000000E+03  0.50000000000E+03  0.00000000000E+00 0.  1.
        -11    1    1    2    0    0 -0.46900939126E+01  0.57790542951E+01  0.49976671154E+03  0.49982212878E+03  0.00000000000E+00 0. -1.
         11    1    1    2    0    0  0.67837141594E+00 -0.56933085884E+01 -0.40495146856E+03  0.40499205651E+03  0.00000000000E+00 0.  1.
        -15    1    1    2    0    0  0.16788020656E+01  0.31735011375E+01 -0.44649195935E+02  0.44828539040E+02  0.17770000000E+01 0.  1.
         15    1    1    2    0    0  0.23329204311E+01 -0.32592468442E+01 -0.50166047047E+02  0.50357275672E+02  0.17770000000E+01 0. -1.
</event>
<event>
 6   1  0.3798113E-04  0.5008663E+03  0.7546771E-02  0.9397873E-01
        -11   -1    0    0    0    0  0.00000000000E+00  0.00000000000E+00  0.50000000000E+03  0.50000000000E+03  0.00000000000E+00 0.  1.
         11   -1    0    0    0    0 -0.00000000000E+00 -0.00000000000E+00 -0.50000000000E+03  0.50000000000E+03  0.00000000000E+00 0. -1.
        -11    1    1    2    0    0  0.15514911221E+02  0.51417378726E+01  0.11962966939E+03  0.12074107726E+03  0.00000000000E+00 0.  1.
         11    1    1    2    0    0  0.78440179281E+01 -0.14127621818E+02 -0.49887202647E+03  0.49913366658E+03  0.00000000000E+00 0. -1.
        -15    1    1    2    0    0 -0.64207496162E+01  0.37237702417E+01  0.14812698682E+03  0.14832347907E+03  0.17770000000E+01 0.  1.
         15    1    1    2    0    0 -0.16938179533E+02  0.52621137040E+01  0.23111537026E+03  0.23180177710E+03  0.17770000000E+01 0.  1.
</event>
<event>
 6   1  0.3798113E-04  0.5016281E+03  0.7546771E-02  0.9396174E-01
        -11   -1    0    0    0    0  0.00000000000E+00  0.00000000000E+00  0.50000000000E+03  0.50000000000E+03  0.00000000000E+00 0.  1.
         11   -1    0    0    0    0 -0.00000000000E+00 -0.00000000000E+00 -0.50000000000E+03  0.50000000000E+03  0.00000000000E+00 0. -1.
        -11    1    1    2    0    0  0.15012165079E+02 -0.70557880719E+01  0.45979145748E+03  0.46009057110E+03  0.00000000000E+00 0.  1.
         11    1    1    2    0    0 -0.79915698034E+01 -0.21263456337E+01 -0.49830332511E+03  0.49837193976E+03  0.00000000000E+00 0. -1.
        -15    1    1    2    0    0 -0.39697960310E+01  0.94412002686E+00  0.24523610153E+02  0.24924201634E+02  0.17770000000E+01 0.  1.
         15    1    1    2    0    0 -0.30507992450E+01  0.82380136788E+01  0.13988257471E+02  0.16613287498E+02  0.17770000000E+01 0. -1.
</event>
<event>
 6   1  0.3798113E-04  0.5001212E+03  0.7546771E-02  0.9399539E-01
        -11   -1    0    0    0    0  0.00000000000E+00  0.00000000000E+00  0.50000000000E+03  0.50000000000E+03  0.00000000000E+00 0. -1.
         11   -1    0    0    0    0 -0.00000000000E+00 -0.00000000000E+00 -0.50000000000E+03  0.50000000000E+03  0.00000000000E+00 0. -1.
        -11    1    1    2    0    0 -0.91755551465E+01  0.88117555415E+01  0.49971689558E+03  0.49987879889E+03  0.00000000000E+00 0. -1.
         11    1    1    2    0    0  0.32229897910E+01 -0.86413165764E+01 -0.14199407126E+03  0.14229327563E+03  0.00000000000E+00 0. -1.
        -15    1    1    2    0    0  0.64406317950E+01 -0.78972968642E+00 -0.27645328871E+03  0.27653514059E+03  0.17770000000E+01 0. -1.
         15    1    1    2    0    0 -0.48806643949E+00  0.61929072137E+00 -0.81269535605E+02  0.81292784897E+02  0.17770000000E+01 0. -1.
</event>
<event>
 6   1  0.3798113E-04  0.4789194E+03  0.7546771E-02  0.9448255E-01
        -11   -1    0    0    0    0  0.00000000000E+00  0.00000000000E+00  0.50000000000E+03  0.50000000000E+03  0.00000000000E+00 0. -1.
         11   -1    0    0    0    0 -0.00000000000E+00 -0.00000000000E+00 -0.50000000000E+03  0.50000000000E+03  0.00000000000E+00 0. -1.
        -11    1    1    2    0    0  0.24236864783E+02  0.29446195909E+02  0.48516012690E+03  0.48665681214E+03  0.00000000000E+00 0. -1.
         11    1    1    2    0    0 -0.58146622370E+01 -0.38235719991E+01 -0.47174423383E+03  0.47179556182E+03  0.00000000000E+00 0. -1.
        -15    1    1    2    0    0 -0.20882702594E+02 -0.10029918195E+02 -0.58888138052E+01  0.23969196559E+02  0.17770000000E+01 0.  1.
         15    1    1    2    0    0  0.24605000482E+01 -0.15592705715E+02 -0.75270792596E+01  0.17578429485E+02  0.17770000000E+01 0. -1.
</event>
<event>
 6   1  0.3798113E-04  0.5010039E+03  0.7546771E-02  0.9397566E-01
        -11   -1    0    0    0    0  0.00000000000E+00  0.00000000000E+00  0.50000000000E+03  0.50000000000E+03  0.00000000000E+00 0.  1.
         11   -1    0    0    0    0 -0.00000000000E+00 -0.00000000000E+00 -0.50000000000E+03  0.50000000000E+03  0.00000000000E+00 0.  1.
        -11    1    1    2    0    0 -0.36984950080E+01  0.23496664845E+02  0.49842887274E+03  0.49899610550E+03  0.00000000000E+00 0.  1.
         11    1    1    2    0    0 -0.90749883819E+01  0.65701416155E+01 -0.22905244313E+03  0.22932628257E+03  0.00000000000E+00 0.  1.
        -15    1    1    2    0    0  0.51387722107E+01 -0.24907848565E+02 -0.21377523622E+03  0.21529007699E+03  0.17770000000E+01 0.  1.
         15    1    1    2    0    0  0.76347111792E+01 -0.51589578948E+01 -0.55601193391E+02  0.56387534942E+02  0.17770000000E+01 0. -1.
</event>
<event>
 6   1  0.3798113E-04  0.5005119E+03  0.7546771E-02  0.9398665E-01
        -11   -1    0    0    0    0  0.00000000000E+00  0.00000000000E+00  0.50000000000E+03  0.50000000000E+03  0.00000000000E+00 0.  1.
         11   -1    0    0    0    0 -0.00000000000E+00 -0.00000000000E+00 -0.50000000000E+03  0.50000000000E+03  0.00000000000E+00 0. -1.
        -11    1    1    2    0    0 -0.89201127000E+01 -0.38829912509E+01  0.33338381360E+03  0.33352573094E+03  0.00000000000E+00 0.  1.
         11    1    1    2    0    0 -0.25608431246E+01 -0.86401261601E+01 -0.49940675357E+03  0.49948805312E+03  0.00000000000E+00 0. -1.
        -15    1    1    2    0    0  0.93772098412E+01  0.11520306985E+02  0.14158529727E+03  0.14237346547E+03  0.17770000000E+01 0. -1.
         15    1    1    2    0    0  0.21037459833E+01  0.10028104255E+01  0.24437642697E+02  0.24612750466E+02  0.17770000000E+01 0. -1.
</event>
<event>
 6   1  0.3798113E-04  0.5007538E+03  0.7546771E-02  0.9398124E-01
        -11   -1    0    0    0    0  0.00000000000E+00  0.00000000000E+00  0.50000000000E+03  0.50000000000E+03  0.00000000000E+00 0.  1.
         11   -1    0    0    0    0 -0.00000000000E+00 -0.00000000000E+00 -0.50000000000E+03  0.50000000000E+03  0.00000000000E+00 0. -1.
        -11    1    1    2    0    0  0.10600960303E+02  0.24519747460E+01  0.49912756520E+03  0.49924615060E+03  0.00000000000E+00 0.  1.
         11    1    1    2    0    0  0.35004444454E+01  0.84333394815E+01 -0.36188439975E+03  0.36199957612E+03  0.00000000000E+00 0. -1.
        -15    1    1    2    0    0 -0.48510072004E+01  0.99393822580E+00 -0.34933900113E+02  0.35327826004E+02  0.17770000000E+01 0.  1.
         15    1    1    2    0    0 -0.92503975485E+01 -0.11879252453E+02 -0.10230926534E+03  0.10342644728E+03  0.17770000000E+01 0. -1.
</event>
<event>
 6   1  0.3798113E-04  0.5035760E+03  0.7546771E-02  0.9391844E-01
        -11   -1    0    0    0    0  0.00000000000E+00  0.00000000000E+00  0.50000000000E+03  0.50000000000E+03  0.00000000000E+00 0.  1.
         11   -1    0    0    0    0 -0.00000000000E+00 -0.00000000000E+00 -0.50000000000E+03  0.50000000000E+03  0.00000000000E+00 0.  1.
        -11    1    1    2    0    0 -0.85474088687E+00  0.26648082126E+02  0.49570754103E+03  0.49642402953E+03  0.00000000000E+00 0.  1.
         11    1    1    2    0    0 -0.85007229906E+01 -0.31888435270E+01 -0.45087377847E+03  0.45096518173E+03  0.00000000000E+00 0.  1.
        -15    1    1    2    0    0  0.84300604887E+01 -0.23895534259E+02 -0.40336884197E+02  0.47668484695E+02  0.17770000000E+01 0.  1.
         15    1    1    2    0    0  0.92540338874E+00  0.43629566053E+00 -0.44968783584E+01  0.49423040483E+01  0.17770000000E+01 0. -1.
</event>
<event>
 6   1  0.3798113E-04  0.5036851E+03  0.7546771E-02  0.9391602E-01
        -11   -1    0    0    0    0  0.00000000000E+00  0.00000000000E+00  0.50000000000E+03  0.50000000000E+03  0.00000000000E+00 0. -1.
         11   -1    0    0    0    0 -0.00000000000E+00 -0.00000000000E+00 -0.50000000000E+03  0.50000000000E+03  0.00000000000E+00 0. -1.
        -11    1    1    2    0    0  0.16376421260E+01  0.18901815661E+02  0.49595214372E+03  0.49631490947E+03  0.00000000000E+00 0. -1.
         11    1    1    2    0    0  0.51380869259E+01 -0.40851692596E+01 -0.47534973905E+03  0.47539505988E+03  0.00000000000E+00 0. -1.
        -15    1    1    2    0    0 -0.44545688984E+01 -0.14662615507E+02 -0.20071127920E+02  0.25314884605E+02  0.17770000000E+01 0.  1.
         15    1    1    2    0    0 -0.23211601535E+01 -0.15403089422E+00 -0.53127674761E+00  0.29751460396E+01  0.17770000000E+01 0. -1.
</event>
<event>
 6   1  0.3798113E-04  0.4798628E+03  0.7546771E-02  0.9446031E-01
        -11   -1    0    0    0    0  0.00000000000E+00  0.00000000000E+00  0.50000000000E+03  0.50000000000E+03  0.00000000000E+00 0. -1.
         11   -1    0    0    0    0 -0.00000000000E+00 -0.00000000000E+00 -0.50000000000E+03  0.50000000000E+03  0.00000000000E+00 0. -1.
        -11    1    1    2    0    0  0.78584820468E+01  0.10825577721E+02  0.48205608638E+03  0.48224166068E+03  0.00000000000E+00 0. -1.
         11    1    1    2    0    0  0.24400077534E+02  0.13517989572E+01 -0.47748898071E+03  0.47811391722E+03  0.00000000000E+00 0. -1.
        -15    1    1    2    0    0 -0.12794411015E+01  0.37788311634E+01  0.46159848073E+00  0.43917350388E+01  0.17770000000E+01 0. -1.
         15    1    1    2    0    0 -0.30979118480E+02 -0.15956207842E+02 -0.50287041573E+01  0.35252687060E+02  0.17770000000E+01 0.  1.
</event>
<event>
 6   1  0.3798113E-04  0.5001415E+03  0.7546771E-02  0.9399493E-01
        -11   -1    0    0    0    0  0.00000000000E+00  0.00000000000E+00  0.50000000000E+03  0.50000000000E+03  0.00000000000E+00 0.  1.
         11   -1    0    0    0    0 -0.00000000000E+00 -0.00000000000E+00 -0.50000000000E+03  0.50000000000E+03  0.00000000000E+00 0.  1.
        -11    1    1    2    0    0 -0.19823194375E+01  0.95490345869E+01  0.49976334407E+03  0.49985849370E+03  0.00000000000E+00 0.  1.
         11    1    1    2    0    0 -0.37699351708E+01  0.10097389032E+01 -0.23255195292E+03  0.23258470025E+03  0.00000000000E+00 0.  1.
        -15    1    1    2    0    0  0.11515547255E+01 -0.28955640553E+00 -0.52363993788E+02  0.52407590057E+02  0.17770000000E+01 0.  1.
         15    1    1    2    0    0  0.46006998829E+01 -0.10269217085E+02 -0.21484739736E+03  0.21514921599E+03  0.17770000000E+01 0. -1.
</event>
<event>
 6   1  0.3798113E-04  0.5009577E+03  0.7546771E-02  0.9397669E-01
        -11   -1    0    0    0    0  0.00000000000E+00  0.00000000000E+00  0.50000000000E+03  0.50000000000E+03  0.00000000000E+00 0.  1.
         11   -1    0    0    0    0 -0.00000000000E+00 -0.00000000000E+00 -0.50000000000E+03  0.50000000000E+03  0.00000000000E+00 0.  1.
        -11    1    1    2    0    0  0.10711902377E+01  0.97955769108E+01  0.49894496352E+03  0.49904226013E+03  0.00000000000E+00 0.  1.
         11    1    1    2    0    0 -0.42029186764E+01 -0.67795279537E+01 -0.44942396138E+03  0.44949474255E+03  0.00000000000E+00 0.  1.
        -15    1    1    2    0    0  0.58074613350E+01 -0.66512004133E+01 -0.35573058915E+02  0.36695576350E+02  0.17770000000E+01 0. -1.
         15    1    1    2    0    0 -0.26757328963E+01  0.36351514561E+01 -0.13947943228E+02  0.14767420964E+02  0.17770000000E+01 0.  1.
</event>
<event>
 6   1  0.3798113E-04  0.5001012E+03  0.7546771E-02  0.9399583E-01
        -11   -1    0    0    0    0  0.00000000000E+00  0.00000000000E+00  0.50000000000E+03  0.50000000000E+03  0.00000000000E+00 0. -1.
         11   -1    0    0    0    0 -0.00000000000E+00 -0.00000000000E+00 -0.50000000000E+03  0.50000000000E+03  0.00000000000E+00 0. -1.
        -11    1    1    2    0    0  0.18527090954E+02  0.95601130134E+01  0.49946390474E+03  0.49989883077E+03  0.00000000000E+00 0. -1.
         11    1    1    2    0    0 -0.72516460157E+01  0.24235837990E+01 -0.12004206964E+03  0.12028532168E+03  0.00000000000E+00 0. -1.
        -15    1    1    2    0    0 -0.69891480091E+01 -0.54856491798E+01 -0.23348331140E+03  0.23365905711E+03  0.17770000000E+01 0. -1.
         15    1    1    2    0    0 -0.42862969287E+01 -0.64980476326E+01 -0.14593852370E+03  0.14615679044E+03  0.17770000000E+01 0. -1.
</event>
<event>
 6   1  0.3798113E-04  0.5007393E+03  0.7546771E-02  0.9398157E-01
        -11   -1    0    0    0    0  0.00000000000E+00  0.00000000000E+00  0.50000000000E+03  0.50000000000E+03  0.00000000000E+00 0.  1.
         11   -1    0    0    0    0 -0.00000000000E+00 -0.00000000000E+00 -0.50000000000E+03  0.50000000000E+03  0.00000000000E+00 0.  1.
        -11    1    1    2    0    0 -0.17746885765E+02  0.66700061192E+02  0.49446674384E+03  0.49926066426E+03  0.00000000000E+00 0.  1.
         11    1    1    2    0    0 -0.82596095058E+01 -0.13204634957E+02 -0.13516612192E+03  0.13606051613E+03  0.00000000000E+00 0.  1.
        -15    1    1    2    0    0  0.21458640877E+02 -0.50246041815E+02 -0.28833456274E+03  0.29347080908E+03  0.17770000000E+01 0.  1.
         15    1    1    2    0    0  0.45478543930E+01 -0.32493844192E+01 -0.70966059177E+02  0.71208010524E+02  0.17770000000E+01 0. -1.
</event>
<event>
 6   1  0.3798113E-04  0.5011554E+03  0.7546771E-02  0.9397228E-01
        -11   -1    0    0    0    0  0.00000000000E+00  0.00000000000E+00  0.50000000000E+03  0.50000000000E+03  0.00000000000E+00 0. -1.
         11   -1    0    0    0    0 -0.00000000000E+00 -0.00000000000E+00 -0.50000000000E+03  0.50000000000E+03  0.00000000000E+00 0. -1.
        -11    1    1    2    0    0 -0.49699517222E+01  0.12895416837E+02  0.21509376220E+03  0.21553727922E+03  0.00000000000E+00 0. -1.
         11    1    1    2    0    0 -0.46237617962E+01  0.48980152376E+01 -0.49879914509E+03  0.49884462197E+03  0.00000000000E+00 0. -1.
        -15    1    1    2    0    0  0.23802780567E+01 -0.43949681669E+01  0.87232255422E+01  0.10209498601E+02  0.17770000000E+01 0.  1.
         15    1    1    2    0    0  0.72134354617E+01 -0.13398463907E+02  0.27498215734E+03  0.27540860021E+03  0.17770000000E+01 0. -1.
</event>
<event>
 6   1  0.3798113E-04  0.5027931E+03  0.7546771E-02  0.9393581E-01
        -11   -1    0    0    0    0  0.00000000000E+00  0.00000000000E+00  0.50000000000E+03  0.50000000000E+03  0.00000000000E+00 0.  1.
         11   -1    0    0    0    0 -0.00000000000E+00 -0.00000000000E+00 -0.50000000000E+03  0.50000000000E+03  0.00000000000E+00 0. -1.
        -11    1    1    2    0    0  0.17082835903E+02  0.16701283849E+02  0.38099956581E+03  0.38174785567E+03  0.00000000000E+00 0.  1.
         11    1    1    2    0    0 -0.96902315138E+01  0.19529615066E+01 -0.49710860135E+03  0.49720687463E+03  0.00000000000E+00 0. -1.
        -15    1    1    2    0    0  0.78350718597E+01 -0.47501924627E+01  0.13774301522E+02  0.16638563366E+02  0.17770000000E+01 0. -1.
         15    1    1    2    0    0 -0.15227676248E+02 -0.13904052893E+02  0.10233473402E+03  0.10440670633E+03  0.17770000000E+01 0.  1.
</event>
<event>
 6   1  0.3798113E-04  0.5002095E+03  0.7546771E-02  0.9399341E-01
        -11   -1    0    0    0    0  0.00000000000E+00  0.00000000000E+00  0.50000000000E+03  0.50000000000E+03  0.00000000000E+00 0.  1.
         11   -1    0    0    0    0 -0.00000000000E+00 -0.00000000000E+00 -0.50000000000E+03  0.50000000000E+03  0.00000000000E+00 0.  1.
        -11    1    1    2    0    0 -0.19526639252E+02  0.80966460054E+01  0.29318815247E+03  0.29394921001E+03  0.00000000000E+00 0.  1.
         11    1    1    2    0    0  0.18996343033E+02 -0.12638777510E+02 -0.49926940143E+03  0.49979049106E+03  0.00000000000E+00 0.  1.
        -15    1    1    2    0    0 -0.77273635008E+00 -0.11783441213E+01  0.77252443460E+02  0.77285725499E+02  0.17770000000E+01 0.  1.
         15    1    1    2    0    0  0.13030325692E+01  0.57204756254E+01  0.12882880551E+03  0.12897457343E+03  0.17770000000E+01 0.  1.
</event>
<event>
 6   1  0.3798113E-04  0.5002504E+03  0.7546771E-02  0.9399250E-01
        -11   -1    0    0    0    0  0.00000000000E+00  0.00000000000E+00  0.50000000000E+03  0.50000000000E+03  0.00000000000E+00 0.  1.
         11   -1    0    0    0    0 -0.00000000000E+00 -0.00000000000E+00 -0.50000000000E+03  0.50000000000E+03  0.00000000000E+00 0. -1.
        -11    1    1    2    0    0 -0.11222342943E+02  0.48974997815E+01  0.49959961789E+03  0.49974964200E+03  0.00000000000E+00 0.  1.
         11    1    1    2    0    0  0.18449268367E+00  0.23231932252E+01 -0.17253625989E+03  0.17255199866E+03  0.00000000000E+00 0. -1.
        -15    1    1    2    0    0  0.89414552864E+01  0.29638551502E+01 -0.13006835603E+03  0.13042112186E+03  0.17770000000E+01 0. -1.
         15    1    1    2    0    0  0.20963949727E+01 -0.10184548157E+02 -0.19699500197E+03  0.19727723747E+03  0.17770000000E+01 0.  1.
</event>
<event>
 6   1  0.3798113E-04  0.5007664E+03  0.7546771E-02  0.9398096E-01
        -11   -1    0    0    0    0  0.00000000000E+00  0.00000000000E+00  0.50000000000E+03  0.50000000000E+03  0.00000000000E+00 0.  1.
         11   -1    0    0    0    0 -0.00000000000E+00 -0.00000000000E+00 -0.50000000000E+03  0.50000000000E+03  0.00000000000E+00 0.  1.
        -11    1    1    2    0    0  0.11986475476E+02  0.45621245042E+01  0.50021542041E+02  0.51639551146E+02  0.00000000000E+00 0.  1.
         11    1    1    2    0    0 -0.12632866794E+02 -0.17168090200E+02 -0.49877831912E+03  0.49923355684E+03  0.00000000000E+00 0.  1.
        -15    1    1    2    0    0 -0.39685276981E+01  0.69872221520E+00  0.62492101176E+02  0.62647089822E+02  0.17770000000E+01 0. -1.
         15    1    1    2    0    0  0.46149190160E+01  0.11907243480E+02  0.38626467590E+03  0.38647980220E+03  0.17770000000E+01 0.  1.
</event>
<event>
 6   1  0.3798113E-04  0.5005371E+03  0.7546771E-02  0.9398609E-01
        -11   -1    0    0    0    0  0.00000000000E+00  0.00000000000E+00  0.50000000000E+03  0.50000000000E+03  0.00000000000E+00 0.  1.
         11   -1    0    0    0    0 -0.00000000000E+00 -0.00000000000E+00 -0.50000000000E+03  0.50000000000E+03  0.00000000000E+00 0. -1.
        -11    1    1    2    0    0 -0.13181461468E+02 -0.13776226847E+01  0.34299597527E+03  0.34325193054E+03  0.00000000000E+00 0.  1.
         11    1    1    2    0    0  0.14121587609E+01  0.72817875380E+01 -0.49940784904E+03  0.49946292986E+03  0.00000000000E+00 0. -1.
        -15    1    1    2    0    0  0.17485520508E+01 -0.23993830240E+01  0.84634282473E+02  0.84704981978E+02  0.17770000000E+01 0.  1.
         15    1    1    2    0    0  0.10020750656E+02 -0.35047818293E+01  0.71777591292E+02  0.72580157620E+02  0.17770000000E+01 0. -1.
</event>
<event>
 6   1  0.3798113E-04  0.5028961E+03  0.7546771E-02  0.9393353E-01
        -11   -1    0    0    0    0  0.00000000000E+00  0.00000000000E+00  0.50000000000E+03  0.50000000000E+03  0.00000000000E+00 0.  1.
         11   -1    0    0    0    0 -0.00000000000E+00 -0.00000000000E+00 -0.50000000000E+03  0.50000000000E+03  0.00000000000E+00 0. -1.
        -11    1    1    2    0    0 -0.19824814074E+02  0.18456223898E+02  0.49636541892E+03  0.49710389714E+03  0.00000000000E+00 0.  1.
         11    1    1    2    0    0  0.10382481666E+02 -0.43533935304E+01 -0.45831828181E+03  0.45845653600E+03  0.00000000000E+00 0. -1.
        -15    1    1    2    0    0  0.16629196687E+01  0.31199589283E+01 -0.73620590411E+01  0.83580552680E+01  0.17770000000E+01 0.  1.
         15    1    1    2    0    0  0.77794127398E+01 -0.17222789296E+02 -0.30685078071E+02  0.36081511594E+02  0.17770000000E+01 0. -1.
</event>
<event>
 6   1  0.3798113E-04  0.5032730E+03  0.7546771E-02  0.9392516E-01
        -11   -1    0    0    0    0  0.00000000000E+00  0.00000000000E+00  0.50000000000E+03  0.50000000000E+03  0.00000000000E+00 0.  1.
         11   -1    0    0    0    0 -0.00000000000E+00 -0.00000000000E+00 -0.50000000000E+03  0.50000000000E+03  0.00000000000E+00 0. -1.
        -11    1    1    2    0    0 -0.11256226650E+02  0.13578459970E+02  0.46986611986E+03  0.47019703084E+03  0.00000000000E+00 0.  1.
         11    1    1    2    0    0 -0.33380140137E+00 -0.82210609149E+01 -0.49665888528E+03  0.49672703328E+03  0.00000000000E+00 0. -1.
        -15    1    1    2    0    0  0.61133191429E+01  0.46232876042E+01  0.11225547175E+02  0.13708322202E+02  0.17770000000E+01 0.  1.
         15    1    1    2    0    0  0.54767089089E+01 -0.99806866596E+01  0.15567218243E+02  0.19367613676E+02  0.17770000000E+01 0. -1.
</event>
<event>
 6   1  0.3798113E-04  0.5003365E+03  0.7546771E-02  0.9399057E-01
        -11   -1    0    0    0    0  0.00000000000E+00  0.00000000000E+00  0.50000000000E+03  0.50000000000E+03  0.00000000000E+00 0.  1.
         11   -1    0    0    0    0 -0.00000000000E+00 -0.00000000000E+00 -0.50000000000E+03  0.50000000000E+03  0.00000000000E+00 0. -1.
        -11    1    1    2    0    0  0.67365327980E+01  0.17686983351E+01  0.33041057487E+03  0.33048397413E+03  0.00000000000E+00 0.  1.
         11    1    1    2    0    0  0.39418735030E+01 -0.63284137076E+01 -0.49960787708E+03  0.49966350479E+03  0.00000000000E+00 0. -1.
        -15    1    1    2    0    0 -0.47541951685E+01  0.13685045290E+01  0.12501052401E+03  0.12512099751E+03  0.17770000000E+01 0. -1.
         15    1    1    2    0    0 -0.59242111325E+01  0.31912108435E+01  0.44186778192E+02  0.44731523562E+02  0.17770000000E+01 0.  1.
</event>
<event>
 6   1  0.3798113E-04  0.5014719E+03  0.7546771E-02  0.9396522E-01
        -11   -1    0    0    0    0  0.00000000000E+00  0.00000000000E+00  0.50000000000E+03  0.50000000000E+03  0.00000000000E+00 0.  1.
         11   -1    0    0    0    0 -0.00000000000E+00 -0.00000000000E+00 -0.50000000000E+03  0.50000000000E+03  0.00000000000E+00 0.  1.
        -11    1    1    2    0    0  0.14159477256E+02  0.89392436990E+01  0.31651564521E+03  0.31695828517E+03  0.00000000000E+00 0.  1.
         11    1    1    2    0    0  0.30618970088E+01  0.95516516779E+01 -0.49842714984E+03  0.49852806637E+03  0.00000000000E+00 0.  1.
        -15    1    1    2    0    0 -0.70255497093E+01 -0.99772642602E+01  0.13929373216E+03  0.13983849863E+03  0.17770000000E+01 0. -1.
         15    1    1    2    0    0 -0.10195824555E+02 -0.85136311167E+01  0.42617772464E+02  0.44675149825E+02  0.17770000000E+01 0.  1.
</event>
<event>
 6   1  0.3798113E-04  0.5002391E+03  0.7546771E-02  0.9399275E-01
        -11   -1    0    0    0    0  0.00000000000E+00  0.00000000000E+00  0.50000000000E+03  0.50000000000E+03  0.00000000000E+00 0. -1.
         11   -1    0    0    0    0 -0.00000000000E+00 -0.00000000000E+00 -0.50000000000E+03  0.50000000000E+03  0.00000000000E+00 0.  1.
        -11    1    1    2    0    0  0.24337231975E+01  0.78381510708E+01  0.49969351986E+03  0.49976091625E+03  0.00000000000E+00 0. -1.
         11    1    1    2    0    0  0.19712334101E+01 -0.83004717187E+01 -0.38300050594E+03  0.38309551177E+03  0.00000000000E+00 0.  1.
        -15    1    1    2    0    0 -0.54232665489E+01 -0.27741577298E+01 -0.65069482890E+02  0.65378154637E+02  0.17770000000E+01 0. -1.
         15    1    1    2    0    0  0.10183099412E+01  0.32364783777E+01 -0.51623531033E+02  0.51765417344E+02  0.17770000000E+01 0.  1.
</event>
<event>
 6   1  0.3798113E-04  0.5011634E+03  0.7546771E-02  0.9397210E-01
        -11   -1    0    0    0    0  0.00000000000E+00  0.00000000000E+00  0.50000000000E+03  0.50000000000E+03  0.00000000000E+00 0.  1.
         11   -1    0    0    0    0 -0.00000000000E+00 -0.00000000000E+00 -0.50000000000E+03  0.50000000000E+03  0.00000000000E+00 0.  1.
        -11    1    1    2    0    0  0.22227559604E+02  0.75820520542E+00  0.18089731543E+03  0.18225937016E+03  0.00000000000E+00 0.  1.
         11    1    1    2    0    0 -0.46457638673E+01 -0.10512588956E+02 -0.49870417975E+03  0.49883660306E+03  0.00000000000E+00 0.  1.
        -15    1    1    2    0    0 -0.11166215725E+02  0.61454487862E+01  0.28256038551E+03  0.28285328370E+03  0.17770000000E+01 0.  1.
         15    1    1    2    0    0 -0.64155800112E+01  0.36089349645E+01  0.35246478817E+02  0.36050743077E+02  0.17770000000E+01 0. -1.
</event>
<event>
 6   1  0.3798113E-04  0.5085273E+03  0.7546771E-02  0.9380929E-01
        -11   -1    0    0    0    0  0.00000000000E+00  0.00000000000E+00  0.50000000000E+03  0.50000000000E+03  0.00000000000E+00 0.  1.
         11   -1    0    0    0    0 -0.00000000000E+00 -0.00000000000E+00 -0.50000000000E+03  0.50000000000E+03  0.00000000000E+00 0.  1.
        -11    1    1    2    0    0 -0.42846443780E+01  0.21244526430E+02  0.47893756681E+03  0.47942765981E+03  0.00000000000E+00 0.  1.
         11    1    1    2    0    0  0.96908982669E+01 -0.69870015878E+01 -0.49132745020E+03  0.49147267983E+03  0.00000000000E+00 0.  1.
        -15    1    1    2    0    0 -0.71731256296E+01  0.36526777417E+01  0.37061094031E+01  0.90381835504E+01  0.17770000000E+01 0. -1.
         15    1    1    2    0    0  0.17668717406E+01 -0.17910202584E+02  0.86837739819E+01  0.20061476813E+02  0.17770000000E+01 0.  1.
</event>
<event>
 6   1  0.3798113E-04  0.5005180E+03  0.7546771E-02  0.9398651E-01
        -11   -1    0    0    0    0  0.00000000000E+00  0.00000000000E+00  0.50000000000E+03  0.50000000000E+03  0.00000000000E+00 0. -1.
         11   -1    0    0    0    0 -0.00000000000E+00 -0.00000000000E+00 -0.50000000000E+03  0.50000000000E+03  0.00000000000E+00 0.  1.
        -11    1    1    2    0    0 -0.71597718778E+02 -0.45814030559E+02  0.49219617014E+03  0.49948196027E+03  0.00000000000E+00 0. -1.
         11    1    1    2    0    0  0.42728922460E+01 -0.25588893987E+01 -0.26683282324E+02  0.27144116833E+02  0.00000000000E+00 0.  1.
        -15    1    1    2    0    0  0.29073346528E+02  0.14414767777E+02 -0.13115729150E+03  0.13512378714E+03  0.17770000000E+01 0. -1.
         15    1    1    2    0    0  0.38251480004E+02  0.33958152180E+02 -0.33435559631E+03  0.33825013575E+03  0.17770000000E+01 0.  1.
</event>
<event>
 6   1  0.3798113E-04  0.5018722E+03  0.7546771E-02  0.9395630E-01
        -11   -1    0    0    0    0  0.00000000000E+00  0.00000000000E+00  0.50000000000E+03  0.50000000000E+03  0.00000000000E+00 0. -1.
         11   -1    0    0    0    0 -0.00000000000E+00 -0.00000000000E+00 -0.50000000000E+03  0.50000000000E+03  0.00000000000E+00 0.  1.
        -11    1    1    2    0    0  0.73640939051E+01  0.17229125699E+01  0.49807037674E+03  0.49812779334E+03  0.00000000000E+00 0. -1.
         11    1    1    2    0    0  0.56728207576E+00 -0.91233875570E+01 -0.47797055350E+03  0.47805795467E+03  0.00000000000E+00 0.  1.
        -15    1    1    2    0    0 -0.47877183206E+01  0.50006522510E+01 -0.69553611701E+01  0.99731413135E+01  0.17770000000E+01 0.  1.
         15    1    1    2    0    0 -0.31436576602E+01  0.23998227361E+01 -0.13144462072E+02  0.13841110679E+02  0.17770000000E+01 0. -1.
</event>
<event>
 6   1  0.3798113E-04  0.5045589E+03  0.7546771E-02  0.9389666E-01
        -11   -1    0    0    0    0  0.00000000000E+00  0.00000000000E+00  0.50000000000E+03  0.50000000000E+03  0.00000000000E+00 0.  1.
         11   -1    0    0    0    0 -0.00000000000E+00 -0.00000000000E+00 -0.50000000000E+03  0.50000000000E+03  0.00000000000E+00 0.  1.
        -11    1    1    2    0    0  0.58334605957E+01 -0.15898155952E+02  0.49515160172E+03  0.49544110580E+03  0.00000000000E+00 0.  1.
         11    1    1    2    0    0 -0.67256042769E+01 -0.92538967810E+01 -0.43811656519E+03  0.43826589310E+03  0.00000000000E+00 0.  1.
        -15    1    1    2    0    0  0.37686687248E+01  0.31120383230E+01 -0.33389776155E+02  0.33792344210E+02  0.17770000000E+01 0. -1.
         15    1    1    2    0    0 -0.28765250436E+01  0.22040014410E+02 -0.23645260373E+02  0.32500656895E+02  0.17770000000E+01 0.  1.
</event>
<event>
 6   1  0.3798113E-04  0.5002249E+03  0.7546771E-02  0.9399307E-01
        -11   -1    0    0    0    0  0.00000000000E+00  0.00000000000E+00  0.50000000000E+03  0.50000000000E+03  0.00000000000E+00 0.  1.
         11   -1    0    0    0    0 -0.00000000000E+00 -0.00000000000E+00 -0.50000000000E+03  0.50000000000E+03  0.00000000000E+00 0. -1.
        -11    1    1    2    0    0  0.94052267564E+00 -0.67286119726E+01  0.49972893422E+03  0.49977511593E+03  0.00000000000E+00 0.  1.
         11    1    1    2    0    0  0.16057234542E+00  0.56308180002E+01 -0.35820794567E+03  0.35825223549E+03  0.00000000000E+00 0. -1.
        -15    1    1    2    0    0  0.17361422732E+01 -0.40460250064E+01 -0.81647925073E+02  0.81785853948E+02  0.17770000000E+01 0.  1.
         15    1    1    2    0    0 -0.28372372943E+01  0.51438189787E+01 -0.59873063481E+02  0.60186794637E+02  0.17770000000E+01 0. -1.
</event>
<event>
 6   1  0.3798113E-04  0.5077501E+03  0.7546771E-02  0.9382633E-01
        -11   -1    0    0    0    0  0.00000000000E+00  0.00000000000E+00  0.50000000000E+03  0.50000000000E+03  0.00000000000E+00 0.  1.
         11   -1    0    0    0    0 -0.00000000000E+00 -0.00000000000E+00 -0.50000000000E+03  0.50000000000E+03  0.00000000000E+00 0. -1.
        -11    1    1    2    0    0 -0.15272398517E+02  0.60186289486E+01  0.49197613054E+03  0.49224991932E+03  0.00000000000E+00 0.  1.
         11    1    1    2    0    0  0.85031355788E+01  0.83377415105E+00 -0.45636046152E+03  0.45644043350E+03  0.00000000000E+00 0. -1.
        -15    1    1    2    0    0  0.83390913426E+01  0.16600616452E+00 -0.41174176870E+02  0.42048050756E+02  0.17770000000E+01 0.  1.
         15    1    1    2    0    0 -0.15698284047E+01 -0.70184092642E+01  0.55585078492E+01  0.92615964245E+01  0.17770000000E+01 0. -1.
</event>
<event>
 6   1  0.3798113E-04  0.5106096E+03  0.7546771E-02  0.9376378E-01
        -11   -1    0    0    0    0  0.00000000000E+00  0.00000000000E+00  0.50000000000E+03  0.50000000000E+03  0.00000000000E+00 0. -1.
         11   -1    0    0    0    0 -0.00000000000E+00 -0.00000000000E+00 -0.50000000000E+03  0.50000000000E+03  0.00000000000E+00 0.  1.
        -11    1    1    2    0    0  0.34751890145E+01  0.22174801394E+02  0.48887538472E+03  0.48939037643E+03  0.00000000000E+00 0. -1.
         11    1    1    2    0    0 -0.22822604804E+02  0.46103687004E+01 -0.46496225528E+03  0.46554486961E+03  0.00000000000E+00 0.  1.
        -15    1    1    2    0    0  0.20194684526E+02 -0.17622831080E+02 -0.10809869111E+02  0.28955145615E+02  0.17770000000E+01 0. -1.
         15    1    1    2    0    0 -0.84726873690E+00 -0.91623390150E+01 -0.13103260332E+02  0.16109608340E+02  0.17770000000E+01 0.  1.
</event>
<event>
 6   1  0.3798113E-04  0.5008409E+03  0.7546771E-02  0.9397930E-01
        -11   -1    0    0    0    0  0.00000000000E+00  0.00000000000E+00  0.50000000000E+03  0.50000000000E+03  0.00000000000E+00 0.  1.
         11   -1    0    0    0    0 -0.00000000000E+00 -0.00000000000E+00 -0.50000000000E+03  0.50000000000E+03  0.00000000000E+00 0. -1.
        -11    1    1    2    0    0  0.21917436483E+02  0.11199800196E+02  0.16006385976E+03  0.16194520292E+03  0.00000000000E+00 0.  1.
         11    1    1    2    0    0 -0.11999316894E+02 -0.16547740699E+02 -0.49874038257E+03  0.49915907337E+03  0.00000000000E+00 0. -1.
        -15    1    1    2    0    0 -0.75006610608E+01  0.31923999161E+01  0.25760123505E+03  0.25773630974E+03  0.17770000000E+01 0.  1.
         15    1    1    2    0    0 -0.24174585282E+01  0.21555405866E+01  0.81075287761E+02  0.81159413968E+02  0.17770000000E+01 0.  1.
</event>
<event>
 6   1  0.3798113E-04  0.5013888E+03  0.7546771E-02  0.9396708E-01
        -11   -1    0    0    0    0  0.00000000000E+00  0.00000000000E+00  0.50000000000E+03  0.50000000000E+03  0.00000000000E+00 0.  1.
         11   -1    0    0    0    0 -0.00000000000E+00 -0.00000000000E+00 -0.50000000000E+03  0.50000000000E+03  0.00000000000E+00 0. -1.
        -11    1    1    2    0    0  0.44607659788E+01  0.12588264971E+02  0.41598278145E+03  0.41619711353E+03  0.00000000000E+00 0.  1.
         11    1    1    2    0    0 -0.43126725438E+01  0.67241362354E+01 -0.49854722040E+03  0.49861121540E+03  0.00000000000E+00 0. -1.
        -15    1    1    2    0    0  0.50790633057E+00 -0.55534084947E+01  0.13036146313E+02  0.14289756976E+02  0.17770000000E+01 0.  1.
         15    1    1    2    0    0 -0.65599976557E+00 -0.13758992712E+02  0.69528292638E+02  0.70901914094E+02  0.17770000000E+01 0. -1.
</event>
<event>
 6   1  0.3798113E-04  0.5011314E+03  0.7546771E-02  0.9397282E-01
        -11   -1    0    0    0    0  0.00000000000E+00  0.00000000000E+00  0.50000000000E+03  0.50000000000E+03  0.00000000000E+00 0. -1.
         11   -1    0    0    0    0 -0.00000000000E+00 -0.00000000000E+00 -0.50000000000E+03  0.50000000000E+03  0.00000000000E+00 0.  1.
        -11    1    1    2    0    0  0.21369739634E+02  0.36164079190E+02  0.20770558486E+03  0.21191063299E+03  0.00000000000E+00 0. -1.
         11    1    1    2    0    0 -0.21028252852E+02 -0.40429479107E+02 -0.49678279857E+03  0.49886859909E+03  0.00000000000E+00 0.  1.
        -15    1    1    2    0    0 -0.21837285153E+01  0.49656216023E+01  0.24312132431E+03  0.24318832647E+03  0.17770000000E+01 0. -1.
         15    1    1    2    0    0  0.18422417327E+01 -0.70022168584E+00  0.45955889407E+02  0.46032441442E+02  0.17770000000E+01 0.  1.
</event>
<event>
 6   1  0.3798113E-04  0.5005260E+03  0.7546771E-02  0.9398634E-01
        -11   -1    0    0    0    0  0.00000000000E+00  0.00000000000E+00  0.50000000000E+03  0.50000000000E+03  0.00000000000E+00 0.  1.
         11   -1    0    0    0    0 -0.00000000000E+00 -0.00000000000E+00 -0.50000000000E+03  0.50000000000E+03  0.00000000000E+00 0. -1.
        -11    1    1    2    0    0 -0.68206379711E+01 -0.21723564273E+02  0.49895477837E+03  0.49947402856E+03  0.00000000000E+00 0.  1.
         11    1    1    2    0    0  0.44267566858E-01  0.18795943357E+01 -0.88217381569E+02  0.88237414090E+02  0.00000000000E+00 0. -1.
        -15    1    1    2    0    0 -0.54037082546E+01  0.15274243800E+01 -0.24705504448E+03  0.24712524318E+03  0.17770000000E+01 0. -1.
         15    1    1    2    0    0  0.12180078659E+02  0.18316545557E+02 -0.16368235232E+03  0.16516331417E+03  0.17770000000E+01 0.  1.
</event>
<event>
 6   1  0.3798113E-04  0.5005692E+03  0.7546771E-02  0.9398537E-01
        -11   -1    0    0    0    0  0.00000000000E+00  0.00000000000E+00  0.50000000000E+03  0.50000000000E+03  0.00000000000E+00 0.  1.
         11   -1    0    0    0    0 -0.00000000000E+00 -0.00000000000E+00 -0.50000000000E+03  0.50000000000E+03  0.00000000000E+00 0. -1.
        -11    1    1    2    0    0 -0.10730280293E+02 -0.29983515244E+01  0.13590464586E+03  0.13636055805E+03  0.00000000000E+00 0.  1.
         11    1    1    2    0    0  0.22145087283E+01 -0.19228133540E+02 -0.49905564339E+03  0.49943083642E+03  0.00000000000E+00 0. -1.
        -15    1    1    2    0    0  0.32156514786E+01  0.12283718061E+02  0.27819437909E+03  0.27848967742E+03  0.17770000000E+01 0.  1.
         15    1    1    2    0    0  0.53001200864E+01  0.99427670034E+01  0.84956618441E+02  0.85718928100E+02  0.17770000000E+01 0. -1.
</event>
<event>
 6   1  0.3798113E-04  0.4885453E+03  0.7546771E-02  0.9425812E-01
        -11   -1    0    0    0    0  0.00000000000E+00  0.00000000000E+00  0.50000000000E+03  0.50000000000E+03  0.00000000000E+00 0.  1.
         11   -1    0    0    0    0 -0.00000000000E+00 -0.00000000000E+00 -0.50000000000E+03  0.50000000000E+03  0.00000000000E+00 0. -1.
        -11    1    1    2    0    0 -0.10493728403E+02 -0.99925048143E+01  0.48398677274E+03  0.48420363968E+03  0.00000000000E+00 0.  1.
         11    1    1    2    0    0  0.22580424973E+01 -0.64548614920E+01 -0.49305466446E+03  0.49310208491E+03  0.00000000000E+00 0. -1.
        -15    1    1    2    0    0  0.66993994583E+01  0.37291315191E+01  0.34314764331E+01  0.85861012398E+01  0.17770000000E+01 0.  1.
         15    1    1    2    0    0  0.15362864472E+01  0.12718234787E+02  0.56364152878E+01  0.14108174171E+02  0.17770000000E+01 0. -1.
</event>
<event>
 6   1  0.3798113E-04  0.4985083E+03  0.7546771E-02  0.9403154E-01
        -11   -1    0    0    0    0  0.00000000000E+00  0.00000000000E+00  0.50000000000E+03  0.50000000000E+03  0.00000000000E+00 0. -1.
         11   -1    0    0    0    0 -0.00000000000E+00 -0.00000000000E+00 -0.50000000000E+03  0.50000000000E+03  0.00000000000E+00 0. -1.
        -11    1    1    2    0    0 -0.68856771041E+02 -0.11286864591E+02  0.49249422563E+03  0.49741251544E+03  0.00000000000E+00 0. -1.
         11    1    1    2    0    0  0.74033779552E+00  0.23107637645E+00 -0.80370871894E+01  0.80744205262E+01  0.00000000000E+00 0. -1.
        -15    1    1    2    0    0 -0.24295390325E+01 -0.89879861555E+01 -0.21615131471E+03  0.21635904219E+03  0.17770000000E+01 0. -1.
         15    1    1    2    0    0  0.70545972278E+02  0.20043774370E+02 -0.26830582373E+03  0.27815402185E+03  0.17770000000E+01 0.  1.
</event>
<event>
 6   1  0.3798113E-04  0.4909464E+03  0.7546771E-02  0.9420299E-01
        -11   -1    0    0    0    0  0.00000000000E+00  0.00000000000E+00  0.50000000000E+03  0.50000000000E+03  0.00000000000E+00 0.  1.
         11   -1    0    0    0    0 -0.00000000000E+00 -0.00000000000E+00 -0.50000000000E+03  0.50000000000E+03  0.00000000000E+00 0.  1.
        -11    1    1    2    0    0 -0.77194730619E+01 -0.14312079353E+02 -0.81701477946E+01  0.18198274499E+02  0.00000000000E+00 0.  1.
         11    1    1    2    0    0 -0.28706026259E+01  0.10137596709E+02 -0.48656452504E+03  0.48667858824E+03  0.00000000000E+00 0.  1.
        -15    1    1    2    0    0  0.29239388460E+01  0.51087165376E+01  0.40297357154E+03  0.40302047776E+03  0.17770000000E+01 0.  1.
         15    1    1    2    0    0  0.76661368418E+01 -0.93423389389E+00  0.91761101295E+02  0.92102659500E+02  0.17770000000E+01 0. -1.
</event>
<event>
 6   1  0.3798113E-04  0.5005391E+03  0.7546771E-02  0.9398604E-01
        -11   -1    0    0    0    0  0.00000000000E+00  0.00000000000E+00  0.50000000000E+03  0.50000000000E+03  0.00000000000E+00 0.  1.
         11   -1    0    0    0    0 -0.00000000000E+00 -0.00000000000E+00 -0.50000000000E+03  0.50000000000E+03  0.00000000000E+00 0.  1.
        -11    1    1    2    0    0 -0.11783829794E+02  0.10790180572E+02  0.49920528687E+03  0.49946091446E+03  0.00000000000E+00 0.  1.
         11    1    1    2    0    0  0.17359642849E+02 -0.17673957907E+02 -0.37972344866E+03  0.38053071288E+03  0.00000000000E+00 0.  1.
        -15    1    1    2    0    0 -0.31953649272E+01  0.37592215392E+01 -0.32552135197E+02  0.32971826435E+02  0.17770000000E+01 0. -1.
         15    1    1    2    0    0 -0.23804481282E+01  0.31245557962E+01 -0.86929703013E+02  0.87036546216E+02  0.17770000000E+01 0.  1.
</event>
<event>
 6   1  0.3798113E-04  0.5017963E+03  0.7546771E-02  0.9395799E-01
        -11   -1    0    0    0    0  0.00000000000E+00  0.00000000000E+00  0.50000000000E+03  0.50000000000E+03  0.00000000000E+00 0.  1.
         11   -1    0    0    0    0 -0.00000000000E+00 -0.00000000000E+00 -0.50000000000E+03  0.50000000000E+03  0.00000000000E+00 0. -1.
        -11    1    1    2    0    0  0.57002314990E+01 -0.19903187712E+02  0.22231296721E+03  0.22327490882E+03  0.00000000000E+00 0.  1.
         11    1    1    2    0    0  0.70998579297E+01 -0.40509009360E+01 -0.49813661936E+03  0.49820368257E+03  0.00000000000E+00 0. -1.
        -15    1    1    2    0    0 -0.26426761691E+01  0.20635816600E+02  0.24425707756E+03  0.24514791113E+03  0.17770000000E+01 0.  1.
         15    1    1    2    0    0 -0.10157413260E+02  0.33182720482E+01  0.31566574595E+02  0.33373497482E+02  0.17770000000E+01 0. -1.
</event>
<event>
 6   1  0.3798113E-04  0.5024788E+03  0.7546771E-02  0.9394280E-01
        -11   -1    0    0    0    0  0.00000000000E+00  0.00000000000E+00  0.50000000000E+03  0.50000000000E+03  0.00000000000E+00 0. -1.
         11   -1    0    0    0    0 -0.00000000000E+00 -0.00000000000E+00 -0.50000000000E+03  0.50000000000E+03  0.00000000000E+00 0.  1.
        -11    1    1    2    0    0  0.37503291776E+01  0.22705223651E+02  0.49698865526E+03  0.49752117102E+03  0.00000000000E+00 0. -1.
         11    1    1    2    0    0  0.84686958370E+01  0.24229593979E+01 -0.41624739541E+03  0.41634058621E+03  0.00000000000E+00 0.  1.
        -15    1    1    2    0    0 -0.23581735512E+01 -0.45652726312E+01 -0.66133898000E+01  0.85613871739E+01  0.17770000000E+01 0. -1.
         15    1    1    2    0    0 -0.98608514635E+01 -0.20562910418E+02 -0.74127870058E+02  0.77576855600E+02  0.17770000000E+01 0.  1.
</event>
<event>
 6   1  0.3798113E-04  0.5051594E+03  0.7546771E-02  0.9388339E-01
        -11   -1    0    0    0    0  0.00000000000E+00  0.00000000000E+00  0.50000000000E+03  0.50000000000E+03  0.00000000000E+00 0.  1.
         11   -1    0    0    0    0 -0.00000000000E+00 -0.00000000000E+00 -0.50000000000E+03  0.50000000000E+03  0.00000000000E+00 0.  1.
        -11    1    1    2    0    0  0.28788423741E+02 -0.92645857912E+01  0.49391554870E+03  0.49484055527E+03  0.00000000000E+00 0.  1.
         11    1    1    2    0    0  0.11696482017E+02  0.33414320139E+02 -0.35573327728E+03  0.35749054400E+03  0.00000000000E+00 0.  1.
        -15    1    1    2    0    0 -0.19229398111E+02 -0.14177796449E+02 -0.99841096182E+02  0.10267512785E+03  0.17770000000E+01 0. -1.
         15    1    1    2    0    0 -0.21255507647E+02 -0.99719378982E+01 -0.38341175232E+02  0.44993772880E+02  0.17770000000E+01 0.  1.
</event>
<event>
 6   1  0.3798113E-04  0.5001519E+03  0.7546771E-02  0.9399470E-01
        -11   -1    0    0    0    0  0.00000000000E+00  0.00000000000E+00  0.50000000000E+03  0.50000000000E+03  0.00000000000E+00 0.  1.
         11   -1    0    0    0    0 -0.00000000000E+00 -0.00000000000E+00 -0.50000000000E+03  0.50000000000E+03  0.00000000000E+00 0.  1.
        -11    1    1    2    0    0 -0.88526717373E+00  0.11968514978E+02  0.49970397480E+03  0.49984806839E+03  0.00000000000E+00 0.  1.
         11    1    1    2    0    0  0.37380346263E+01  0.13160905568E+01 -0.20345161069E+03  0.20349020342E+03  0.00000000000E+00 0.  1.
        -15    1    1    2    0    0 -0.20801347547E+01 -0.11981215329E+02 -0.19764542000E+03  0.19802713515E+03  0.17770000000E+01 0.  1.
         15    1    1    2    0    0 -0.77263269787E+00 -0.13033902057E+01 -0.98606944110E+02  0.98634593034E+02  0.17770000000E+01 0. -1.
</event>
<event>
 6   1  0.3798113E-04  0.5013482E+03  0.7546771E-02  0.9396798E-01
        -11   -1    0    0    0    0  0.00000000000E+00  0.00000000000E+00  0.50000000000E+03  0.50000000000E+03  0.00000000000E+00 0.  1.
         11   -1    0    0    0    0 -0.00000000000E+00 -0.00000000000E+00 -0.50000000000E+03  0.50000000000E+03  0.00000000000E+00 0. -1.
        -11    1    1    2    0    0  0.16273104398E+02  0.23715336795E+00  0.37890248175E+03  0.37925184356E+03  0.00000000000E+00 0.  1.
         11    1    1    2    0    0  0.57518406284E+01  0.47178589150E+01 -0.49859627959E+03  0.49865177418E+03  0.00000000000E+00 0. -1.
        -15    1    1    2    0    0 -0.13561182915E+02 -0.11520714434E+01  0.53538442280E+02  0.55269842422E+02  0.17770000000E+01 0. -1.
         15    1    1    2    0    0 -0.84637621116E+01 -0.38029408396E+01  0.66155355567E+02  0.66826539842E+02  0.17770000000E+01 0.  1.
</event>
<event>
 6   1  0.3798113E-04  0.5006727E+03  0.7546771E-02  0.9398306E-01
        -11   -1    0    0    0    0  0.00000000000E+00  0.00000000000E+00  0.50000000000E+03  0.50000000000E+03  0.00000000000E+00 0.  1.
         11   -1    0    0    0    0 -0.00000000000E+00 -0.00000000000E+00 -0.50000000000E+03  0.50000000000E+03  0.00000000000E+00 0. -1.
        -11    1    1    2    0    0 -0.86855256033E+01 -0.40394182025E+01  0.49923543646E+03  0.49932732378E+03  0.00000000000E+00 0.  1.
         11    1    1    2    0    0 -0.10305972129E+01  0.61933174254E+01 -0.43961920657E+03  0.43966403776E+03  0.00000000000E+00 0. -1.
        -15    1    1    2    0    0  0.12281820361E+01 -0.35222140295E+01 -0.21628341562E+02  0.22019475709E+02  0.17770000000E+01 0. -1.
         15    1    1    2    0    0  0.84879407801E+01  0.13683148066E+01 -0.37987888323E+02  0.38989162755E+02  0.17770000000E+01 0. -1.
</event>
<event>
 6   1  0.3798113E-04  0.5004935E+03  0.7546771E-02  0.9398706E-01
        -11   -1    0    0    0    0  0.00000000000E+00  0.00000000000E+00  0.50000000000E+03  0.50000000000E+03  0.00000000000E+00 0.  1.
         11   -1    0    0    0    0 -0.00000000000E+00 -0.00000000000E+00 -0.50000000000E+03  0.50000000000E+03  0.00000000000E+00 0. -1.
        -11    1    1    2    0    0 -0.10567804354E+01 -0.63309504513E+01  0.19236398013E+02  0.20278972534E+02  0.00000000000E+00 0.  1.
         11    1    1    2    0    0  0.16673158682E+02  0.11355617150E+02 -0.49909901823E+03  0.49950653075E+03  0.00000000000E+00 0. -1.
        -15    1    1    2    0    0 -0.90893036089E+01  0.35966059079E+00  0.30153641310E+03  0.30167882085E+03  0.17770000000E+01 0.  1.
         15    1    1    2    0    0 -0.65270746378E+01 -0.53843272897E+01  0.17832620712E+03  0.17853567587E+03  0.17770000000E+01 0. -1.
</event>
<event>
 6   1  0.3798113E-04  0.5009592E+03  0.7546771E-02  0.9397666E-01
        -11   -1    0    0    0    0  0.00000000000E+00  0.00000000000E+00  0.50000000000E+03  0.50000000000E+03  0.00000000000E+00 0. -1.
         11   -1    0    0    0    0 -0.00000000000E+00 -0.00000000000E+00 -0.50000000000E+03  0.50000000000E+03  0.00000000000E+00 0.  1.
        -11    1    1    2    0    0  0.40842187854E+01  0.48372351880E+01  0.46736441790E+03  0.46740729434E+03  0.00000000000E+00 0. -1.
         11    1    1    2    0    0  0.38982865862E+01 -0.57069849457E+01 -0.49899297576E+03  0.49904083618E+03  0.00000000000E+00 0.  1.
        -15    1    1    2    0    0 -0.47979772326E+01 -0.21079821995E+01  0.23641240326E+02  0.24280241919E+02  0.17770000000E+01 0. -1.
         15    1    1    2    0    0 -0.31845281390E+01  0.29777319572E+01  0.79873175372E+01  0.92716275549E+01  0.17770000000E+01 0. -1.
</event>
<event>
 6   1  0.3798113E-04  0.5138306E+03  0.7546771E-02  0.9369384E-01
        -11   -1    0    0    0    0  0.00000000000E+00  0.00000000000E+00  0.50000000000E+03  0.50000000000E+03  0.00000000000E+00 0. -1.
         11   -1    0    0    0    0 -0.00000000000E+00 -0.00000000000E+00 -0.50000000000E+03  0.50000000000E+03  0.00000000000E+00 0.  1.
        -11    1    1    2    0    0  0.28910660509E+02 -0.10706359509E+02  0.48519096500E+03  0.48616944057E+03  0.00000000000E+00 0. -1.
         11    1    1    2    0    0 -0.46331311367E+01  0.45963234284E+01 -0.47065520263E+03  0.47070044812E+03  0.00000000000E+00 0.  1.
        -15    1    1    2    0    0  0.64027422261E+01 -0.36495953803E+01 -0.62837969537E+01  0.98467501039E+01  0.17770000000E+01 0. -1.
         15    1    1    2    0    0 -0.30680271598E+02  0.97596314613E+01 -0.82519654128E+01  0.33283361215E+02  0.17770000000E+01 0.  1.
</event>
<event>
 6   1  0.3798113E-04  0.5017421E+03  0.7546771E-02  0.9395920E-01
        -11   -1    0    0    0    0  0.00000000000E+00  0.00000000000E+00  0.50000000000E+03  0.50000000000E+03  0.00000000000E+00 0.  1.
         11   -1    0    0    0    0 -0.00000000000E+00 -0.00000000000E+00 -0.50000000000E+03  0.50000000000E+03  0.00000000000E+00 0. -1.
        -11    1    1    2    0    0  0.10958315970E+02  0.25722257840E+02  0.40179970773E+03  0.40277130529E+03  0.00000000000E+00 0.  1.
         11    1    1    2    0    0  0.10021983725E+01 -0.88963275478E+01 -0.49817750877E+03  0.49825794453E+03  0.00000000000E+00 0. -1.
        -15    1    1    2    0    0 -0.19369701294E+01 -0.36813189083E+01  0.38108246043E+02  0.38375775011E+02  0.17770000000E+01 0. -1.
         15    1    1    2    0    0 -0.10023544213E+02 -0.13144611384E+02  0.58269554998E+02  0.60594975169E+02  0.17770000000E+01 0.  1.
</event>
<event>
 6   1  0.3798113E-04  0.5097441E+03  0.7546771E-02  0.9378267E-01
        -11   -1    0    0    0    0  0.00000000000E+00  0.00000000000E+00  0.50000000000E+03  0.50000000000E+03  0.00000000000E+00 0.  1.
         11   -1    0    0    0    0 -0.00000000000E+00 -0.00000000000E+00 -0.50000000000E+03  0.50000000000E+03  0.00000000000E+00 0. -1.
        -11    1    1    2    0    0 -0.47757851680E+02  0.17420303588E+02  0.71629609189E+02  0.87835529751E+02  0.00000000000E+00 0.  1.
         11    1    1    2    0    0  0.21026996893E+02 -0.84511628127E+01 -0.48973182718E+03  0.49025587126E+03  0.00000000000E+00 0. -1.
        -15    1    1    2    0    0  0.52133387345E+01 -0.47680251542E+01  0.66341799356E+01  0.98530724675E+01  0.17770000000E+01 0. -1.
         15    1    1    2    0    0  0.21517516053E+02 -0.42011156212E+01  0.41146803805E+03  0.41205552652E+03  0.17770000000E+01 0.  1.
</event>
<event>
 6   1  0.3798113E-04  0.5008008E+03  0.7546771E-02  0.9398020E-01
        -11   -1    0    0    0    0  0.00000000000E+00  0.00000000000E+00  0.50000000000E+03  0.50000000000E+03  0.00000000000E+00 0.  1.
         11   -1    0    0    0    0 -0.00000000000E+00 -0.00000000000E+00 -0.50000000000E+03  0.50000000000E+03  0.00000000000E+00 0.  1.
        -11    1    1    2    0    0 -0.78570432419E+01  0.71873085781E+01  0.37761925484E+03  0.37776936371E+03  0.00000000000E+00 0.  1.
         11    1    1    2    0    0 -0.25374119778E+00  0.73639293314E+01 -0.49914479896E+03  0.49919918086E+03  0.00000000000E+00 0.  1.
        -15    1    1    2    0    0  0.37274377801E+01 -0.27886039632E+01  0.16290852467E+02  0.17035835981E+02  0.17770000000E+01 0.  1.
         15    1    1    2    0    0  0.43833466596E+01 -0.11762633946E+02  0.10523469166E+03  0.10599561945E+03  0.17770000000E+01 0. -1.
</event>
<event>
 6   1  0.3798113E-04  0.5029397E+03  0.7546771E-02  0.9393256E-01
        -11   -1    0    0    0    0  0.00000000000E+00  0.00000000000E+00  0.50000000000E+03  0.50000000000E+03  0.00000000000E+00 0. -1.
         11   -1    0    0    0    0 -0.00000000000E+00 -0.00000000000E+00 -0.50000000000E+03  0.50000000000E+03  0.00000000000E+00 0.  1.
        -11    1    1    2    0    0  0.20279275115E+02  0.10781656644E+02  0.45359273879E+03  0.45417382774E+03  0.00000000000E+00 0. -1.
         11    1    1    2    0    0 -0.18815961762E+02 -0.13827453286E+01 -0.49670214916E+03  0.49706033576E+03  0.00000000000E+00 0.  1.
        -15    1    1    2    0    0  0.23503379615E+01 -0.86665766932E+00 -0.13100898700E+01  0.33390490438E+01  0.17770000000E+01 0. -1.
         15    1    1    2    0    0 -0.38136513143E+01 -0.85322536464E+01  0.44419500236E+02  0.45426787459E+02  0.17770000000E+01 0.  1.
</event>
<event>
 6   1  0.3798113E-04  0.5161885E+03  0.7546771E-02  0.9364298E-01
        -11   -1    0    0    0    0  0.00000000000E+00  0.00000000000E+00  0.50000000000E+03  0.50000000000E+03  0.00000000000E+00 0.  1.
         11   -1    0    0    0    0 -0.00000000000E+00 -0.00000000000E+00 -0.50000000000E+03  0.50000000000E+03  0.00000000000E+00 0. -1.
        -11    1    1    2    0    0  0.31682829506E+02 -0.10835135108E+02  0.45945727333E+03  0.46067579474E+03  0.00000000000E+00 0.  1.
         11    1    1    2    0    0 -0.14760630137E+02  0.58608825018E+01 -0.48355080625E+03  0.48381154221E+03  0.00000000000E+00 0. -1.
        -15    1    1    2    0    0 -0.25481363596E+02  0.19229147515E+02  0.21651351424E+02  0.38613452997E+02  0.17770000000E+01 0.  1.
         15    1    1    2    0    0  0.85591642271E+01 -0.14254894909E+02  0.24421814927E+01  0.16899210058E+02  0.17770000000E+01 0. -1.
</event>
<event>
 6   1  0.3798113E-04  0.5000793E+03  0.7546771E-02  0.9399632E-01
        -11   -1    0    0    0    0  0.00000000000E+00  0.00000000000E+00  0.50000000000E+03  0.50000000000E+03  0.00000000000E+00 0. -1.
         11   -1    0    0    0    0 -0.00000000000E+00 -0.00000000000E+00 -0.50000000000E+03  0.50000000000E+03  0.00000000000E+00 0.  1.
        -11    1    1    2    0    0 -0.87055367117E+01 -0.46910507829E+01  0.33979458247E+03  0.33993845120E+03  0.00000000000E+00 0. -1.
         11    1    1    2    0    0  0.58676537042E+01  0.64212447209E+01 -0.49984506238E+03  0.49992074184E+03  0.00000000000E+00 0.  1.
        -15    1    1    2    0    0  0.10242383144E+01 -0.17326184022E+01  0.10114384485E+03  0.10117947475E+03  0.17770000000E+01 0. -1.
         15    1    1    2    0    0  0.18136446931E+01  0.24244642031E-02  0.58906635052E+02  0.58961332202E+02  0.17770000000E+01 0.  1.
</event>
<event>
 6   1  0.3798113E-04  0.5000820E+03  0.7546771E-02  0.9399626E-01
        -11   -1    0    0    0    0  0.00000000000E+00  0.00000000000E+00  0.50000000000E+03  0.50000000000E+03  0.00000000000E+00 0. -1.
         11   -1    0    0    0    0 -0.00000000000E+00 -0.00000000000E+00 -0.50000000000E+03  0.50000000000E+03  0.00000000000E+00 0.  1.
        -11    1    1    2    0    0 -0.95612264486E+00  0.79024027391E+01  0.49985463361E+03  0.49991801015E+03  0.00000000000E+00 0. -1.
         11    1    1    2    0    0  0.67252624519E+00  0.13468579710E+01 -0.70994847780E+02  0.71010807130E+02  0.00000000000E+00 0.  1.
        -15    1    1    2    0    0 -0.16370474825E+01 -0.10350124162E+02 -0.33841239788E+03  0.33857925772E+03  0.17770000000E+01 0.  1.
         15    1    1    2    0    0  0.19206438821E+01  0.11008634521E+01 -0.90447387947E+02  0.90491924992E+02  0.17770000000E+01 0. -1.
</event>
<event>
 6   1  0.3798113E-04  0.4596890E+03  0.7546771E-02  0.9494821E-01
        -11   -1    0    0    0    0  0.00000000000E+00  0.00000000000E+00  0.50000000000E+03  0.50000000000E+03  0.00000000000E+00 0.  1.
         11   -1    0    0    0    0 -0.00000000000E+00 -0.00000000000E+00 -0.50000000000E+03  0.50000000000E+03  0.00000000000E+00 0. -1.
        -11    1    1    2    0    0 -0.55349555896E+02  0.77656847707E+01  0.45989878098E+03  0.46328260052E+03  0.00000000000E+00 0.  1.
         11    1    1    2    0    0 -0.12413291685E+00  0.90882709956E+01 -0.45783374432E+03  0.45792395604E+03  0.00000000000E+00 0. -1.
        -15    1    1    2    0    0  0.17162498462E+02  0.75291843746E+01 -0.22181461363E+02  0.29093211029E+02  0.17770000000E+01 0. -1.
         15    1    1    2    0    0  0.38311190351E+02 -0.24383140141E+02  0.20116424699E+02  0.49700232403E+02  0.17770000000E+01 0.  1.
</event>
<event>
 6   1  0.3798113E-04  0.4918373E+03  0.7546771E-02  0.9418262E-01
        -11   -1    0    0    0    0  0.00000000000E+00  0.00000000000E+00  0.50000000000E+03  0.50000000000E+03  0.00000000000E+00 0. -1.
         11   -1    0    0    0    0 -0.00000000000E+00 -0.00000000000E+00 -0.50000000000E+03  0.50000000000E+03  0.00000000000E+00 0.  1.
        -11    1    1    2    0    0 -0.51999818470E+01 -0.84072197092E+01  0.48886605142E+03  0.48896598796E+03  0.00000000000E+00 0. -1.
         11    1    1    2    0    0  0.69332372891E+01 -0.30313929462E+01 -0.49473631119E+03  0.49479417613E+03  0.00000000000E+00 0.  1.
        -15    1    1    2    0    0 -0.38348687953E+01  0.12041893089E+01  0.70807384496E+00  0.44514478700E+01  0.17770000000E+01 0. -1.
         15    1    1    2    0    0  0.21016133532E+01  0.10234423346E+02  0.51621859276E+01  0.11788388035E+02  0.17770000000E+01 0.  1.
</event>
<event>
 6   1  0.3798113E-04  0.5022147E+03  0.7546771E-02  0.9394868E-01
        -11   -1    0    0    0    0  0.00000000000E+00  0.00000000000E+00  0.50000000000E+03  0.50000000000E+03  0.00000000000E+00 0. -1.
         11   -1    0    0    0    0 -0.00000000000E+00 -0.00000000000E+00 -0.50000000000E+03  0.50000000000E+03  0.00000000000E+00 0. -1.
        -11    1    1    2    0    0  0.40887772187E+01 -0.61260663767E+01  0.49773078731E+03  0.49778527843E+03  0.00000000000E+00 0. -1.
         11    1    1    2    0    0 -0.80789779231E+01 -0.99041777818E+00 -0.48573959545E+03  0.48580778648E+03  0.00000000000E+00 0. -1.
        -15    1    1    2    0    0  0.16476453026E+01 -0.59465342409E+00 -0.50120714357E+01  0.55988335227E+01  0.17770000000E+01 0. -1.
         15    1    1    2    0    0  0.23425554018E+01  0.77111375789E+01 -0.69791204232E+01  0.10808101566E+02  0.17770000000E+01 0.  1.
</event>
<event>
 6   1  0.3798113E-04  0.5006336E+03  0.7546771E-02  0.9398393E-01
        -11   -1    0    0    0    0  0.00000000000E+00  0.00000000000E+00  0.50000000000E+03  0.50000000000E+03  0.00000000000E+00 0. -1.
         11   -1    0    0    0    0 -0.00000000000E+00 -0.00000000000E+00 -0.50000000000E+03  0.50000000000E+03  0.00000000000E+00 0.  1.
        -11    1    1    2    0    0 -0.21292487138E+02  0.31993197752E+01  0.49890196756E+03  0.49936637741E+03  0.00000000000E+00 0. -1.
         11    1    1    2    0    0  0.69439153041E+01 -0.94634433617E+00 -0.33459527713E+03  0.33466866152E+03  0.00000000000E+00 0.  1.
        -15    1    1    2    0    0  0.30686443174E+01 -0.22625338558E+01 -0.64788104999E+01  0.77245292342E+01  0.17770000000E+01 0.  1.
         15    1    1    2    0    0  0.11279927516E+02  0.95584167251E-02 -0.15782787993E+03  0.15824043183E+03  0.17770000000E+01 0.  1.
</event>
<event>
 6   1  0.3798113E-04  0.5055852E+03  0.7546771E-02  0.9387398E-01
        -11   -1    0    0    0    0  0.00000000000E+00  0.00000000000E+00  0.50000000000E+03  0.50000000000E+03  0.00000000000E+00 0.  1.
         11   -1    0    0    0    0 -0.00000000000E+00 -0.00000000000E+00 -0.50000000000E+03  0.50000000000E+03  0.00000000000E+00 0. -1.
        -11    1    1    2    0    0  0.16945014613E+01 -0.12032834734E+02  0.49426545444E+03  0.49441480550E+03  0.00000000000E+00 0.  1.
         11    1    1    2    0    0  0.10145067868E+02 -0.43764864108E+00 -0.48150797849E+03  0.48161504055E+03  0.00000000000E+00 0. -1.
        -15    1    1    2    0    0 -0.23936250433E+01 -0.21736989687E+00 -0.59490213911E+01  0.66577229614E+01  0.17770000000E+01 0.  1.
         15    1    1    2    0    0 -0.94459442864E+01  0.12687853272E+02 -0.68084545632E+01  0.17312430986E+02  0.17770000000E+01 0. -1.
</event>
<event>
 6   1  0.3798113E-04  0.5024530E+03  0.7546771E-02  0.9394338E-01
        -11   -1    0    0    0    0  0.00000000000E+00  0.00000000000E+00  0.50000000000E+03  0.50000000000E+03  0.00000000000E+00 0. -1.
         11   -1    0    0    0    0 -0.00000000000E+00 -0.00000000000E+00 -0.50000000000E+03  0.50000000000E+03  0.00000000000E+00 0. -1.
        -11    1    1    2    0    0  0.22547250756E+02 -0.60528702079E+01  0.76673836497E+02  0.80149191871E+02  0.00000000000E+00 0. -1.
         11    1    1    2    0    0 -0.10740635033E+02 -0.11805301794E+02 -0.49729093980E+03  0.49754698793E+03  0.00000000000E+00 0. -1.
        -15    1    1    2    0    0  0.88664417975E+01 -0.13497372722E+01  0.81954004584E+02  0.82462428883E+02  0.17770000000E+01 0.  1.
         15    1    1    2    0    0 -0.20673057521E+02  0.19207909274E+02  0.33866309872E+03  0.33984139131E+03  0.17770000000E+01 0. -1.
</event>
<event>
 6   1  0.3798113E-04  0.4946545E+03  0.7546771E-02  0.9411851E-01
        -11   -1    0    0    0    0  0.00000000000E+00  0.00000000000E+00  0.50000000000E+03  0.50000000000E+03  0.00000000000E+00 0.  1.
         11   -1    0    0    0    0 -0.00000000000E+00 -0.00000000000E+00 -0.50000000000E+03  0.50000000000E+03  0.00000000000E+00 0.  1.
        -11    1    1    2    0    0  0.75146069032E+01  0.63263903645E+01 -0.59149463689E+01  0.11466434603E+02  0.00000000000E+00 0.  1.
         11    1    1    2    0    0 -0.58596980981E+01 -0.73188856887E+01 -0.49084421852E+03  0.49093375215E+03  0.00000000000E+00 0.  1.
        -15    1    1    2    0    0  0.12316967242E+02 -0.39922521520E+01  0.17126074441E+03  0.17175868556E+03  0.17770000000E+01 0. -1.
         15    1    1    2    0    0 -0.13971876048E+02  0.49847474762E+01  0.32549842048E+03  0.32584112768E+03  0.17770000000E+01 0.  1.
</event>
<event>
 6   1  0.3798113E-04  0.5005954E+03  0.7546771E-02  0.9398478E-01
        -11   -1    0    0    0    0  0.00000000000E+00  0.00000000000E+00  0.50000000000E+03  0.50000000000E+03  0.00000000000E+00 0. -1.
         11   -1    0    0    0    0 -0.00000000000E+00 -0.00000000000E+00 -0.50000000000E+03  0.50000000000E+03  0.00000000000E+00 0.  1.
        -11    1    1    2    0    0  0.25562848093E+02  0.97471639193E+01  0.49865467622E+03  0.49940459802E+03  0.00000000000E+00 0. -1.
         11    1    1    2    0    0  0.16428277686E+01  0.52158988208E-01 -0.75967259174E+02  0.75985038462E+02  0.00000000000E+00 0.  1.
        -15    1    1    2    0    0  0.86372309894E+00 -0.37529966197E+01 -0.20336910928E+03  0.20341333128E+03  0.17770000000E+01 0.  1.
         15    1    1    2    0    0 -0.28069398960E+02 -0.60463262877E+01 -0.21931830777E+03  0.22119703224E+03  0.17770000000E+01 0. -1.
</event>
<event>
 6   1  0.3798113E-04  0.5004500E+03  0.7546771E-02  0.9398803E-01
        -11   -1    0    0    0    0  0.00000000000E+00  0.00000000000E+00  0.50000000000E+03  0.50000000000E+03  0.00000000000E+00 0.  1.
         11   -1    0    0    0    0 -0.00000000000E+00 -0.00000000000E+00 -0.50000000000E+03  0.50000000000E+03  0.00000000000E+00 0. -1.
        -11    1    1    2    0    0  0.11720793939E+02  0.28210216376E+02  0.40460301236E+03  0.40575459446E+03  0.00000000000E+00 0.  1.
         11    1    1    2    0    0 -0.12144761864E+02 -0.24867782818E+02 -0.49878277649E+03  0.49954995745E+03  0.00000000000E+00 0. -1.
        -15    1    1    2    0    0  0.40907101061E+01 -0.19938426134E+01  0.67105076954E+02  0.67282675330E+02  0.17770000000E+01 0.  1.
         15    1    1    2    0    0 -0.36667421808E+01 -0.13485909444E+01  0.27074687175E+02  0.27412772760E+02  0.17770000000E+01 0. -1.
</event>
<event>
 6   1  0.3798113E-04  0.5028547E+03  0.7546771E-02  0.9393445E-01
        -11   -1    0    0    0    0  0.00000000000E+00  0.00000000000E+00  0.50000000000E+03  0.50000000000E+03  0.00000000000E+00 0.  1.
         11   -1    0    0    0    0 -0.00000000000E+00 -0.00000000000E+00 -0.50000000000E+03  0.50000000000E+03  0.00000000000E+00 0.  1.
        -11    1    1    2    0    0  0.14855257668E+02 -0.44658660790E+01  0.44112116222E+03  0.44139381781E+03  0.00000000000E+00 0.  1.
         11    1    1    2    0    0 -0.57673730118E+01 -0.62648383361E+01 -0.49707232132E+03  0.49714525384E+03  0.00000000000E+00 0.  1.
        -15    1    1    2    0    0 -0.54273815738E+01  0.15377198239E+02  0.50913368113E+02  0.53490592426E+02  0.17770000000E+01 0.  1.
         15    1    1    2    0    0 -0.36605030824E+01 -0.46464938243E+01  0.50377909910E+01  0.79703359242E+01  0.17770000000E+01 0. -1.
</event>
<event>
 6   1  0.3798113E-04  0.5155452E+03  0.7546771E-02  0.9365683E-01
        -11   -1    0    0    0    0  0.00000000000E+00  0.00000000000E+00  0.50000000000E+03  0.50000000000E+03  0.00000000000E+00 0. -1.
         11   -1    0    0    0    0 -0.00000000000E+00 -0.00000000000E+00 -0.50000000000E+03  0.50000000000E+03  0.00000000000E+00 0.  1.
        -11    1    1    2    0    0 -0.55049390015E+02  0.33279373485E+02  0.48016511665E+03  0.48445483926E+03  0.00000000000E+00 0. -1.
         11    1    1    2    0    0 -0.72344680050E+01  0.64030800298E+01 -0.40565430188E+03  0.40576933053E+03  0.00000000000E+00 0.  1.
        -15    1    1    2    0    0  0.88361779102E+01 -0.25388644768E+00 -0.25973429079E+02  0.27493985624E+02  0.17770000000E+01 0.  1.
         15    1    1    2    0    0  0.53447680110E+02 -0.39428567068E+02 -0.48537385688E+02  0.82281844587E+02  0.17770000000E+01 0. -1.
</event>
<event>
 6   1  0.3798113E-04  0.5021680E+03  0.7546771E-02  0.9394972E-01
        -11   -1    0    0    0    0  0.00000000000E+00  0.00000000000E+00  0.50000000000E+03  0.50000000000E+03  0.00000000000E+00 0.  1.
         11   -1    0    0    0    0 -0.00000000000E+00 -0.00000000000E+00 -0.50000000000E+03  0.50000000000E+03  0.00000000000E+00 0. -1.
        -11    1    1    2    0    0  0.12507822112E+02  0.11713319330E+02  0.45464937805E+03  0.45497220182E+03  0.00000000000E+00 0.  1.
         11    1    1    2    0    0  0.36337457689E+01 -0.57390130772E+01 -0.49778564849E+03  0.49783199197E+03  0.00000000000E+00 0. -1.
        -15    1    1    2    0    0 -0.71966676550E+01 -0.14745371435E+01  0.27686045848E+02  0.28699148921E+02  0.17770000000E+01 0.  1.
         15    1    1    2    0    0 -0.89449002255E+01 -0.44997691095E+01  0.15450224592E+02  0.18496657293E+02  0.17770000000E+01 0. -1.
</event>
<event>
 6   1  0.3798113E-04  0.5012956E+03  0.7546771E-02  0.9396915E-01
        -11   -1    0    0    0    0  0.00000000000E+00  0.00000000000E+00  0.50000000000E+03  0.50000000000E+03  0.00000000000E+00 0. -1.
         11   -1    0    0    0    0 -0.00000000000E+00 -0.00000000000E+00 -0.50000000000E+03  0.50000000000E+03  0.00000000000E+00 0. -1.
        -11    1    1    2    0    0 -0.78717277789E+01 -0.40985343208E+00  0.49864213604E+03  0.49870443342E+03  0.00000000000E+00 0. -1.
         11    1    1    2    0    0  0.19956551817E+01 -0.80678440054E+01 -0.45593365629E+03  0.45600939868E+03  0.00000000000E+00 0. -1.
        -15    1    1    2    0    0  0.51457858250E+01  0.12608983753E+01 -0.78448620706E+01  0.96316440121E+01  0.17770000000E+01 0.  1.
         15    1    1    2    0    0  0.73028677228E+00  0.72167990622E+01 -0.34863617675E+02  0.35654523890E+02  0.17770000000E+01 0. -1.
</event>
<event>
 6   1  0.3798113E-04  0.5090859E+03  0.7546771E-02  0.9379706E-01
        -11   -1    0    0    0    0  0.00000000000E+00  0.00000000000E+00  0.50000000000E+03  0.50000000000E+03  0.00000000000E+00 0.  1.
         11   -1    0    0    0    0 -0.00000000000E+00 -0.00000000000E+00 -0.50000000000E+03  0.50000000000E+03  0.00000000000E+00 0. -1.
        -11    1    1    2    0    0  0.12311234761E+02 -0.32541933834E+02  0.48967960249E+03  0.49091410354E+03  0.00000000000E+00 0.  1.
         11    1    1    2    0    0 -0.22582664353E+01 -0.80159439128E+01 -0.42884954885E+03  0.42893040306E+03  0.00000000000E+00 0. -1.
        -15    1    1    2    0    0 -0.15291818567E+02  0.51055482092E+01 -0.21243861876E+02  0.26727621182E+02  0.17770000000E+01 0.  1.
         15    1    1    2    0    0  0.52388502413E+01  0.35452329538E+02 -0.39586191770E+02  0.53427872214E+02  0.17770000000E+01 0. -1.
</event>
<event>
 6   1  0.3798113E-04  0.5020035E+03  0.7546771E-02  0.9395338E-01
        -11   -1    0    0    0    0  0.00000000000E+00  0.00000000000E+00  0.50000000000E+03  0.50000000000E+03  0.00000000000E+00 0. -1.
         11   -1    0    0    0    0 -0.00000000000E+00 -0.00000000000E+00 -0.50000000000E+03  0.50000000000E+03  0.00000000000E+00 0. -1.
        -11    1    1    2    0    0 -0.38434948668E-01 -0.91779252470E+01  0.49791188013E+03  0.49799646200E+03  0.00000000000E+00 0. -1.
         11    1    1    2    0    0 -0.12138476908E+01 -0.66578371650E+01 -0.43809590152E+03  0.43814817032E+03  0.00000000000E+00 0. -1.
        -15    1    1    2    0    0  0.15603545361E+01  0.10260730348E+02 -0.55719982880E+02  0.56706185859E+02  0.17770000000E+01 0. -1.
         15    1    1    2    0    0 -0.30807189667E+00  0.55750320643E+01 -0.40959957280E+01  0.71491818284E+01  0.17770000000E+01 0.  1.
</event>
<event>
 6   1  0.3798113E-04  0.5013679E+03  0.7546771E-02  0.9396754E-01
        -11   -1    0    0    0    0  0.00000000000E+00  0.00000000000E+00  0.50000000000E+03  0.50000000000E+03  0.00000000000E+00 0. -1.
         11   -1    0    0    0    0 -0.00000000000E+00 -0.00000000000E+00 -0.50000000000E+03  0.50000000000E+03  0.00000000000E+00 0.  1.
        -11    1    1    2    0    0  0.37159635607E+01  0.13913813986E+02  0.46016316201E+03  0.46038846453E+03  0.00000000000E+00 0. -1.
         11    1    1    2    0    0  0.83145373713E+01 -0.18336680614E+02 -0.49822546934E+03  0.49863211257E+03  0.00000000000E+00 0.  1.
        -15    1    1    2    0    0 -0.11165179739E+02  0.46112823547E+01  0.36389182728E+02  0.38383010723E+02  0.17770000000E+01 0. -1.
         15    1    1    2    0    0 -0.86532119301E+00 -0.18841572687E+00  0.16731245995E+01  0.25964121743E+01  0.17770000000E+01 0.  1.
</event>
<event>
 6   1  0.3798113E-04  0.5006384E+03  0.7546771E-02  0.9398382E-01
        -11   -1    0    0    0    0  0.00000000000E+00  0.00000000000E+00  0.50000000000E+03  0.50000000000E+03  0.00000000000E+00 0.  1.
         11   -1    0    0    0    0 -0.00000000000E+00 -0.00000000000E+00 -0.50000000000E+03  0.50000000000E+03  0.00000000000E+00 0. -1.
        -11    1    1    2    0    0  0.65335467453E+00  0.87215794657E+01  0.49928498941E+03  0.49936158590E+03  0.00000000000E+00 0.  1.
         11    1    1    2    0    0  0.74781953798E+01  0.17462177495E+01 -0.35154647143E+03  0.35163033751E+03  0.00000000000E+00 0. -1.
        -15    1    1    2    0    0 -0.69766744941E+01  0.11725219593E+01 -0.69194882459E+02  0.69578288871E+02  0.17770000000E+01 0. -1.
         15    1    1    2    0    0 -0.11548755603E+01 -0.11640319174E+02 -0.78543635522E+02  0.79429787725E+02  0.17770000000E+01 0.  1.
</event>
<event>
 6   1  0.3798113E-04  0.4499782E+03  0.7546771E-02  0.9519266E-01
        -11   -1    0    0    0    0  0.00000000000E+00  0.00000000000E+00  0.50000000000E+03  0.50000000000E+03  0.00000000000E+00 0.  1.
         11   -1    0    0    0    0 -0.00000000000E+00 -0.00000000000E+00 -0.50000000000E+03  0.50000000000E+03  0.00000000000E+00 0. -1.
        -11    1    1    2    0    0 -0.55831235947E+02 -0.27382937177E+02  0.44622633298E+03  0.45053844720E+03  0.00000000000E+00 0.  1.
         11    1    1    2    0    0  0.10088254123E+01 -0.43521098398E+02 -0.45179445372E+03  0.45388691560E+03  0.00000000000E+00 0. -1.
        -15    1    1    2    0    0  0.46589629919E+02  0.34397695359E+02  0.27854840423E+01  0.58006135127E+02  0.17770000000E+01 0.  1.
         15    1    1    2    0    0  0.82327806161E+01  0.36506340215E+02  0.27826366978E+01  0.37568502080E+02  0.17770000000E+01 0. -1.
</event>
<event>
 6   1  0.3798113E-04  0.5000612E+03  0.7546771E-02  0.9399673E-01
        -11   -1    0    0    0    0  0.00000000000E+00  0.00000000000E+00  0.50000000000E+03  0.50000000000E+03  0.00000000000E+00 0.  1.
         11   -1    0    0    0    0 -0.00000000000E+00 -0.00000000000E+00 -0.50000000000E+03  0.50000000000E+03  0.00000000000E+00 0. -1.
        -11    1    1    2    0    0 -0.57031956392E+01  0.31541806280E+00  0.17561943934E+03  0.17571230293E+03  0.00000000000E+00 0.  1.
         11    1    1    2    0    0  0.52415761631E+01 -0.44558914691E+01 -0.49989149428E+03  0.49993883140E+03  0.00000000000E+00 0. -1.
        -15    1    1    2    0    0 -0.18567700596E+00  0.44461069918E+01  0.27103329724E+03  0.27107565049E+03  0.17770000000E+01 0.  1.
         15    1    1    2    0    0  0.64729648213E+00 -0.30563358547E+00  0.53238757702E+02  0.53273215176E+02  0.17770000000E+01 0. -1.
</event>
<event>
 6   1  0.3798113E-04  0.5197079E+03  0.7546771E-02  0.9356760E-01
        -11   -1    0    0    0    0  0.00000000000E+00  0.00000000000E+00  0.50000000000E+03  0.50000000000E+03  0.00000000000E+00 0. -1.
         11   -1    0    0    0    0 -0.00000000000E+00 -0.00000000000E+00 -0.50000000000E+03  0.50000000000E+03  0.00000000000E+00 0. -1.
        -11    1    1    2    0    0 -0.39509178812E+02  0.25675159368E+02  0.45163057446E+03  0.45408189218E+03  0.00000000000E+00 0. -1.
         11    1    1    2    0    0  0.44707342068E+02  0.58543951695E+01 -0.47817097036E+03  0.48029209579E+03  0.00000000000E+00 0. -1.
        -15    1    1    2    0    0  0.14616011431E+02 -0.35983889339E+02  0.22239954452E+02  0.44791086001E+02  0.17770000000E+01 0.  1.
         15    1    1    2    0    0 -0.19814174687E+02  0.44543348012E+01  0.43004414503E+01  0.20834926031E+02  0.17770000000E+01 0. -1.
</event>
<event>
 6   1  0.3798113E-04  0.5006077E+03  0.7546771E-02  0.9398451E-01
        -11   -1    0    0    0    0  0.00000000000E+00  0.00000000000E+00  0.50000000000E+03  0.50000000000E+03  0.00000000000E+00 0. -1.
         11   -1    0    0    0    0 -0.00000000000E+00 -0.00000000000E+00 -0.50000000000E+03  0.50000000000E+03  0.00000000000E+00 0. -1.
        -11    1    1    2    0    0  0.63962783151E+01 -0.72157934756E+01  0.49929923178E+03  0.49939233365E+03  0.00000000000E+00 0. -1.
         11    1    1    2    0    0  0.61871216054E+01  0.32645643043E+00 -0.40108185764E+03  0.40112970917E+03  0.00000000000E+00 0. -1.
        -15    1    1    2    0    0 -0.73007707358E+01  0.16229368095E+01 -0.37620897980E+02  0.38398240468E+02  0.17770000000E+01 0.  1.
         15    1    1    2    0    0 -0.52826291846E+01  0.52664002357E+01 -0.60596476156E+02  0.61079716715E+02  0.17770000000E+01 0. -1.
</event>
<event>
 6   1  0.3798113E-04  0.5068106E+03  0.7546771E-02  0.9384698E-01
        -11   -1    0    0    0    0  0.00000000000E+00  0.00000000000E+00  0.50000000000E+03  0.50000000000E+03  0.00000000000E+00 0.  1.
         11   -1    0    0    0    0 -0.00000000000E+00 -0.00000000000E+00 -0.50000000000E+03  0.50000000000E+03  0.00000000000E+00 0. -1.
        -11    1    1    2    0    0 -0.10662553922E+02  0.19313165977E+02  0.46359616297E+03  0.46412077173E+03  0.00000000000E+00 0.  1.
         11    1    1    2    0    0 -0.16047951263E+02 -0.91119810037E+01 -0.49284406010E+03  0.49318944890E+03  0.00000000000E+00 0. -1.
        -15    1    1    2    0    0  0.18761459371E+02 -0.40768367598E+01  0.25186292829E+02  0.31719395189E+02  0.17770000000E+01 0.  1.
         15    1    1    2    0    0  0.79490458138E+01 -0.61243482138E+01  0.40616042994E+01  0.10970384172E+02  0.17770000000E+01 0. -1.
</event>
<event>
 6   1  0.3798113E-04  0.5041548E+03  0.7546771E-02  0.9390561E-01
        -11   -1    0    0    0    0  0.00000000000E+00  0.00000000000E+00  0.50000000000E+03  0.50000000000E+03  0.00000000000E+00 0.  1.
         11   -1    0    0    0    0 -0.00000000000E+00 -0.00000000000E+00 -0.50000000000E+03  0.50000000000E+03  0.00000000000E+00 0.  1.
        -11    1    1    2    0    0 -0.23393724744E+02 -0.25922568770E+02  0.23676670853E+03  0.23932764194E+03  0.00000000000E+00 0.  1.
         11    1    1    2    0    0  0.30082013211E+02  0.29208728555E+01 -0.49492320773E+03  0.49584517802E+03  0.00000000000E+00 0.  1.
        -15    1    1    2    0    0 -0.25224654752E+02  0.17107602626E+02  0.21848861670E+03  0.22061139280E+03  0.17770000000E+01 0.  1.
         15    1    1    2    0    0  0.18536366284E+02  0.58940932877E+01  0.39667882495E+02  0.44215787241E+02  0.17770000000E+01 0. -1.
</event>
<event>
 6   1  0.3798113E-04  0.5015033E+03  0.7546771E-02  0.9396452E-01
        -11   -1    0    0    0    0  0.00000000000E+00  0.00000000000E+00  0.50000000000E+03  0.50000000000E+03  0.00000000000E+00 0. -1.
         11   -1    0    0    0    0 -0.00000000000E+00 -0.00000000000E+00 -0.50000000000E+03  0.50000000000E+03  0.00000000000E+00 0. -1.
        -11    1    1    2    0    0 -0.44303810315E+01  0.25513134223E+02  0.43375743483E+03  0.43452970044E+03  0.00000000000E+00 0. -1.
         11    1    1    2    0    0 -0.91833878599E+01 -0.17600295877E+02 -0.49810127702E+03  0.49849672737E+03  0.00000000000E+00 0. -1.
        -15    1    1    2    0    0  0.87082194145E+01 -0.22279960264E+00  0.38395795434E+02  0.39411642456E+02  0.17770000000E+01 0. -1.
         15    1    1    2    0    0  0.49055494769E+01 -0.76900387430E+01  0.25948046755E+02  0.27561929739E+02  0.17770000000E+01 0.  1.
</event>
<event>
 6   1  0.3798113E-04  0.5036049E+03  0.7546771E-02  0.9391779E-01
        -11   -1    0    0    0    0  0.00000000000E+00  0.00000000000E+00  0.50000000000E+03  0.50000000000E+03  0.00000000000E+00 0. -1.
         11   -1    0    0    0    0 -0.00000000000E+00 -0.00000000000E+00 -0.50000000000E+03  0.50000000000E+03  0.00000000000E+00 0.  1.
        -11    1    1    2    0    0 -0.13760494301E+02 -0.42442774969E+01  0.49618615936E+03  0.49639507434E+03  0.00000000000E+00 0. -1.
         11    1    1    2    0    0  0.41983627727E+01  0.59068082663E+01 -0.48632962828E+03  0.48638361812E+03  0.00000000000E+00 0.  1.
        -15    1    1    2    0    0  0.94866824198E+01  0.97457927849E+00 -0.38739322334E+01  0.10445670302E+02  0.17770000000E+01 0.  1.
         15    1    1    2    0    0  0.75449108445E-01 -0.26371100480E+01 -0.59825988456E+01  0.67756372335E+01  0.17770000000E+01 0. -1.
</event>
<event>
 6   1  0.3798113E-04  0.4843376E+03  0.7546771E-02  0.9435554E-01
        -11   -1    0    0    0    0  0.00000000000E+00  0.00000000000E+00  0.50000000000E+03  0.50000000000E+03  0.00000000000E+00 0. -1.
         11   -1    0    0    0    0 -0.00000000000E+00 -0.00000000000E+00 -0.50000000000E+03  0.50000000000E+03  0.00000000000E+00 0. -1.
        -11    1    1    2    0    0 -0.17216462229E+02 -0.19722601447E+02  0.48494025284E+03  0.48564641088E+03  0.00000000000E+00 0. -1.
         11    1    1    2    0    0 -0.13341995323E+00  0.76885269931E+01 -0.48319929823E+03  0.48326048158E+03  0.00000000000E+00 0. -1.
        -15    1    1    2    0    0  0.22720925727E+02  0.99349198394E+01 -0.26032246104E+01  0.24997551990E+02  0.17770000000E+01 0. -1.
         15    1    1    2    0    0 -0.53710435452E+01  0.20991546145E+01  0.86226999884E+00  0.60955555457E+01  0.17770000000E+01 0. -1.
</event>
<event>
 6   1  0.3798113E-04  0.5016587E+03  0.7546771E-02  0.9396106E-01
        -11   -1    0    0    0    0  0.00000000000E+00  0.00000000000E+00  0.50000000000E+03  0.50000000000E+03  0.00000000000E+00 0. -1.
         11   -1    0    0    0    0 -0.00000000000E+00 -0.00000000000E+00 -0.50000000000E+03  0.50000000000E+03  0.00000000000E+00 0. -1.
        -11    1    1    2    0    0 -0.20320895461E+02  0.16864700660E+02  0.17198463049E+03  0.17400020128E+03  0.00000000000E+00 0. -1.
         11    1    1    2    0    0 -0.77708608654E+01 -0.74262713053E+01 -0.49822534605E+03  0.49834127988E+03  0.00000000000E+00 0. -1.
        -15    1    1    2    0    0  0.23841461636E+02 -0.80130824737E+01  0.29082219899E+03  0.29191323015E+03  0.17770000000E+01 0.  1.
         15    1    1    2    0    0  0.42502946911E+01 -0.14253468806E+01  0.35418516577E+02  0.35745288699E+02  0.17770000000E+01 0.  1.
</event>
<event>
 6   1  0.3798113E-04  0.5030263E+03  0.7546771E-02  0.9393064E-01
        -11   -1    0    0    0    0  0.00000000000E+00  0.00000000000E+00  0.50000000000E+03  0.50000000000E+03  0.00000000000E+00 0. -1.
         11   -1    0    0    0    0 -0.00000000000E+00 -0.00000000000E+00 -0.50000000000E+03  0.50000000000E+03  0.00000000000E+00 0.  1.
        -11    1    1    2    0    0  0.14735596212E+02 -0.43061391884E+01  0.49673656649E+03  0.49697373886E+03  0.00000000000E+00 0. -1.
         11    1    1    2    0    0 -0.11986137088E+01 -0.13122843425E+02 -0.43156020894E+03  0.43176134569E+03  0.00000000000E+00 0.  1.
        -15    1    1    2    0    0 -0.13558909163E+02  0.28049725371E+01 -0.28324066303E+02  0.31577244173E+02  0.17770000000E+01 0. -1.
         15    1    1    2    0    0  0.21926660128E-01  0.14624010076E+02 -0.36852291250E+02  0.39687671271E+02  0.17770000000E+01 0.  1.
</event>
<event>
 6   1  0.3798113E-04  0.5104960E+03  0.7546771E-02  0.9376626E-01
        -11   -1    0    0    0    0  0.00000000000E+00  0.00000000000E+00  0.50000000000E+03  0.50000000000E+03  0.00000000000E+00 0.  1.
         11   -1    0    0    0    0 -0.00000000000E+00 -0.00000000000E+00 -0.50000000000E+03  0.50000000000E+03  0.00000000000E+00 0. -1.
        -11    1    1    2    0    0 -0.54047810280E+01 -0.23390518811E+02  0.46454816168E+03  0.46516805839E+03  0.00000000000E+00 0.  1.
         11    1    1    2    0    0 -0.10953083600E+02 -0.18064036642E+01 -0.48937811649E+03  0.48950400819E+03  0.00000000000E+00 0. -1.
        -15    1    1    2    0    0 -0.10018829849E+00  0.19451230377E+02  0.82455519485E+01  0.21201586187E+02  0.17770000000E+01 0.  1.
         15    1    1    2    0    0  0.16458052926E+02  0.57456920973E+01  0.16584402856E+02  0.24126347235E+02  0.17770000000E+01 0. -1.
</event>
<event>
 6   1  0.3798113E-04  0.5048664E+03  0.7546771E-02  0.9388986E-01
        -11   -1    0    0    0    0  0.00000000000E+00  0.00000000000E+00  0.50000000000E+03  0.50000000000E+03  0.00000000000E+00 0. -1.
         11   -1    0    0    0    0 -0.00000000000E+00 -0.00000000000E+00 -0.50000000000E+03  0.50000000000E+03  0.00000000000E+00 0.  1.
        -11    1    1    2    0    0  0.33997550138E+02 -0.39436503453E+01  0.49394928584E+03  0.49513360093E+03  0.00000000000E+00 0. -1.
         11    1    1    2    0    0  0.26017922967E+00  0.62493988340E+01 -0.42977975886E+03  0.42982527125E+03  0.00000000000E+00 0.  1.
        -15    1    1    2    0    0 -0.67083215940E+01  0.62640035151E+01 -0.10327700774E+02  0.13930486385E+02  0.17770000000E+01 0.  1.
         15    1    1    2    0    0 -0.27549407774E+02 -0.85697520038E+01 -0.53841826204E+02  0.61110641430E+02  0.17770000000E+01 0. -1.
</event>
<event>
 6   1  0.3798113E-04  0.5093980E+03  0.7546771E-02  0.9379023E-01
        -11   -1    0    0    0    0  0.00000000000E+00  0.00000000000E+00  0.50000000000E+03  0.50000000000E+03  0.00000000000E+00 0. -1.
         11   -1    0    0    0    0 -0.00000000000E+00 -0.00000000000E+00 -0.50000000000E+03  0.50000000000E+03  0.00000000000E+00 0. -1.
        -11    1    1    2    0    0  0.41997540637E+02  0.24585565753E+02  0.31549047117E+03  0.31922167981E+03  0.00000000000E+00 0. -1.
         11    1    1    2    0    0  0.17818466335E+02  0.17810720074E+02 -0.48995465586E+03  0.49060196116E+03  0.00000000000E+00 0. -1.
        -15    1    1    2    0    0 -0.49325489291E+02 -0.26130425701E+02  0.12032727146E+03  0.13265599507E+03  0.17770000000E+01 0. -1.
         15    1    1    2    0    0 -0.10490517681E+02 -0.16265860126E+02  0.54136913230E+02  0.57520363959E+02  0.17770000000E+01 0.  1.
</event>
<event>
 6   1  0.3798113E-04  0.5008743E+03  0.7546771E-02  0.9397855E-01
        -11   -1    0    0    0    0  0.00000000000E+00  0.00000000000E+00  0.50000000000E+03  0.50000000000E+03  0.00000000000E+00 0.  1.
         11   -1    0    0    0    0 -0.00000000000E+00 -0.00000000000E+00 -0.50000000000E+03  0.50000000000E+03  0.00000000000E+00 0.  1.
        -11    1    1    2    0    0  0.10963745632E+02  0.12076087025E+02  0.23130501447E+03  0.23187937665E+03  0.00000000000E+00 0.  1.
         11    1    1    2    0    0 -0.36514732090E+00 -0.75238613850E+01 -0.49906881676E+03  0.49912566121E+03  0.00000000000E+00 0.  1.
        -15    1    1    2    0    0 -0.95987484159E+01 -0.13406714550E+02  0.17971688938E+03  0.18048045330E+03  0.17770000000E+01 0.  1.
         15    1    1    2    0    0 -0.99984989501E+00  0.88544889091E+01  0.88046912909E+02  0.88514508842E+02  0.17770000000E+01 0.  1.
</event>
<event>
 6   1  0.3798113E-04  0.5239581E+03  0.7546771E-02  0.9347742E-01
        -11   -1    0    0    0    0  0.00000000000E+00  0.00000000000E+00  0.50000000000E+03  0.50000000000E+03  0.00000000000E+00 0.  1.
         11   -1    0    0    0    0 -0.00000000000E+00 -0.00000000000E+00 -0.50000000000E+03  0.50000000000E+03  0.00000000000E+00 0.  1.
        -11    1    1    2    0    0 -0.59330240076E+02 -0.49361513064E+02  0.31616901098E+03  0.32545273062E+03  0.00000000000E+00 0.  1.
         11    1    1    2    0    0 -0.95157490045E+01 -0.23366045111E+02 -0.47537286395E+03  0.47604189031E+03  0.00000000000E+00 0.  1.
        -15    1    1    2    0    0  0.73147443698E+02  0.40732371430E+02  0.95143251105E+02  0.12674805940E+03  0.17770000000E+01 0.  1.
         15    1    1    2    0    0 -0.43014546173E+01  0.31995186746E+02  0.64060601865E+02  0.71757319675E+02  0.17770000000E+01 0. -1.
</event>
<event>
 6   1  0.3798113E-04  0.5128138E+03  0.7546771E-02  0.9371586E-01
        -11   -1    0    0    0    0  0.00000000000E+00  0.00000000000E+00  0.50000000000E+03  0.50000000000E+03  0.00000000000E+00 0. -1.
         11   -1    0    0    0    0 -0.00000000000E+00 -0.00000000000E+00 -0.50000000000E+03  0.50000000000E+03  0.00000000000E+00 0.  1.
        -11    1    1    2    0    0 -0.38798330320E+02 -0.78630043315E+02  0.21251480854E+03  0.22989244876E+03  0.00000000000E+00 0. -1.
         11    1    1    2    0    0 -0.28694636044E+02  0.43473208551E+02 -0.48439352088E+03  0.48718619138E+03  0.00000000000E+00 0.  1.
        -15    1    1    2    0    0  0.66724905333E+01 -0.17237055007E+01  0.23933184112E+02  0.24968947141E+02  0.17770000000E+01 0. -1.
         15    1    1    2    0    0  0.60820475831E+02  0.36880540264E+02  0.24794552823E+03  0.25795241272E+03  0.17770000000E+01 0.  1.
</event>
<event>
 6   1  0.3798113E-04  0.4891692E+03  0.7546771E-02  0.9424376E-01
        -11   -1    0    0    0    0  0.00000000000E+00  0.00000000000E+00  0.50000000000E+03  0.50000000000E+03  0.00000000000E+00 0.  1.
         11   -1    0    0    0    0 -0.00000000000E+00 -0.00000000000E+00 -0.50000000000E+03  0.50000000000E+03  0.00000000000E+00 0.  1.
        -11    1    1    2    0    0  0.12038737727E+02 -0.11003088154E+02  0.48939455839E+03  0.48966624647E+03  0.00000000000E+00 0.  1.
         11    1    1    2    0    0  0.69157978063E+01  0.52173243755E+01 -0.48879636541E+03  0.48887312830E+03  0.00000000000E+00 0.  1.
        -15    1    1    2    0    0 -0.18057677597E+02  0.60802211766E+01 -0.16179746807E+01  0.19204800983E+02  0.17770000000E+01 0.  1.
         15    1    1    2    0    0 -0.89685793616E+00 -0.29445739808E+00  0.10197817037E+01  0.22558242485E+01  0.17770000000E+01 0. -1.
</event>
<event>
 6   1  0.3798113E-04  0.5055507E+03  0.7546771E-02  0.9387474E-01
        -11   -1    0    0    0    0  0.00000000000E+00  0.00000000000E+00  0.50000000000E+03  0.50000000000E+03  0.00000000000E+00 0. -1.
         11   -1    0    0    0    0 -0.00000000000E+00 -0.00000000000E+00 -0.50000000000E+03  0.50000000000E+03  0.00000000000E+00 0. -1.
        -11    1    1    2    0    0 -0.53123290400E+00 -0.22226586904E+02 -0.16116913237E+02  0.27460121378E+02  0.00000000000E+00 0. -1.
         11    1    1    2    0    0  0.58447756855E+01  0.19493358975E+02 -0.47765727428E+03  0.47809060241E+03  0.00000000000E+00 0. -1.
        -15    1    1    2    0    0  0.18064475957E+01  0.11899192508E+02  0.15708661013E+03  0.15755702093E+03  0.17770000000E+01 0.  1.
         15    1    1    2    0    0 -0.71199903772E+01 -0.91659645791E+01  0.33668757739E+03  0.33689225528E+03  0.17770000000E+01 0. -1.
</event>
<event>
 6   1  0.3798113E-04  0.5017624E+03  0.7546771E-02  0.9395875E-01
        -11   -1    0    0    0    0  0.00000000000E+00  0.00000000000E+00  0.50000000000E+03  0.50000000000E+03  0.00000000000E+00 0. -1.
         11   -1    0    0    0    0 -0.00000000000E+00 -0.00000000000E+00 -0.50000000000E+03  0.50000000000E+03  0.00000000000E+00 0.  1.
        -11    1    1    2    0    0 -0.12167768958E+02 -0.75194749602E+01  0.49803223894E+03  0.49823760208E+03  0.00000000000E+00 0. -1.
         11    1    1    2    0    0  0.29566605596E+01 -0.58375240591E+01 -0.43501076792E+03  0.43505998061E+03  0.00000000000E+00 0.  1.
        -15    1    1    2    0    0  0.12396003955E+02  0.76176830352E+01 -0.36752920783E+02  0.39567978517E+02  0.17770000000E+01 0.  1.
         15    1    1    2    0    0 -0.31848955565E+01  0.57393159841E+01 -0.26268550239E+02  0.27134438788E+02  0.17770000000E+01 0. -1.
</event>
<event>
 6   1  0.3798113E-04  0.5042213E+03  0.7546771E-02  0.9390413E-01
        -11   -1    0    0    0    0  0.00000000000E+00  0.00000000000E+00  0.50000000000E+03  0.50000000000E+03  0.00000000000E+00 0. -1.
         11   -1    0    0    0    0 -0.00000000000E+00 -0.00000000000E+00 -0.50000000000E+03  0.50000000000E+03  0.00000000000E+00 0.  1.
        -11    1    1    2    0    0  0.33518622289E+01  0.10525848286E+02  0.49565560726E+03  0.49577869002E+03  0.00000000000E+00 0. -1.
         11    1    1    2    0    0 -0.36058156061E+00  0.85346588779E+01 -0.47111751079E+03  0.47119494840E+03  0.00000000000E+00 0.  1.
        -15    1    1    2    0    0  0.62433034537E+00 -0.12378802033E+02 -0.83325896600E+01  0.15040422454E+02  0.17770000000E+01 0. -1.
         15    1    1    2    0    0 -0.36156110136E+01 -0.66817051315E+01 -0.16205506810E+02  0.17985939132E+02  0.17770000000E+01 0.  1.
</event>
<event>
 6   1  0.3798113E-04  0.5057124E+03  0.7546771E-02  0.9387118E-01
        -11   -1    0    0    0    0  0.00000000000E+00  0.00000000000E+00  0.50000000000E+03  0.50000000000E+03  0.00000000000E+00 0.  1.
         11   -1    0    0    0    0 -0.00000000000E+00 -0.00000000000E+00 -0.50000000000E+03  0.50000000000E+03  0.00000000000E+00 0. -1.
        -11    1    1    2    0    0  0.35571781231E+02 -0.25535395048E+01  0.44741114702E+02  0.57215727984E+02  0.00000000000E+00 0.  1.
         11    1    1    2    0    0 -0.38063439884E+02  0.12128537456E+02 -0.49267054793E+03  0.49428756374E+03  0.00000000000E+00 0. -1.
        -15    1    1    2    0    0 -0.12415506872E+01 -0.14585823928E+02  0.37119092777E+03  0.37148371471E+03  0.17770000000E+01 0.  1.
         15    1    1    2    0    0  0.37332093402E+01  0.50108259766E+01  0.76738505459E+02  0.77012993567E+02  0.17770000000E+01 0. -1.
</event>
<event>
 6   1  0.3798113E-04  0.4849428E+03  0.7546771E-02  0.9434146E-01
        -11   -1    0    0    0    0  0.00000000000E+00  0.00000000000E+00  0.50000000000E+03  0.50000000000E+03  0.00000000000E+00 0. -1.
         11   -1    0    0    0    0 -0.00000000000E+00 -0.00000000000E+00 -0.50000000000E+03  0.50000000000E+03  0.00000000000E+00 0.  1.
        -11    1    1    2    0    0  0.11991845403E+02 -0.11295757841E+02  0.48170744723E+03  0.48198906961E+03  0.00000000000E+00 0. -1.
         11    1    1    2    0    0  0.57792878101E+01 -0.82586800639E+01 -0.48817391123E+03  0.48827796752E+03  0.00000000000E+00 0.  1.
        -15    1    1    2    0    0  0.10652359623E+01  0.34977607182E+01 -0.90447193234E-01  0.40663211127E+01  0.17770000000E+01 0.  1.
         15    1    1    2    0    0 -0.18836369175E+02  0.16056677187E+02  0.65569111883E+01  0.25666641762E+02  0.17770000000E+01 0. -1.
</event>
<event>
 6   1  0.3798113E-04  0.5004553E+03  0.7546771E-02  0.9398792E-01
        -11   -1    0    0    0    0  0.00000000000E+00  0.00000000000E+00  0.50000000000E+03  0.50000000000E+03  0.00000000000E+00 0. -1.
         11   -1    0    0    0    0 -0.00000000000E+00 -0.00000000000E+00 -0.50000000000E+03  0.50000000000E+03  0.00000000000E+00 0.  1.
        -11    1    1    2    0    0 -0.14313207826E+02  0.11498071158E+01  0.42708027804E+03  0.42732160473E+03  0.00000000000E+00 0. -1.
         11    1    1    2    0    0  0.74111555181E+01  0.12532375472E+01 -0.49948814826E+03  0.49954469879E+03  0.00000000000E+00 0.  1.
        -15    1    1    2    0    0  0.36584159306E+01 -0.27272268974E+01  0.59537220673E+02  0.59738263685E+02  0.17770000000E+01 0.  1.
         15    1    1    2    0    0  0.32436363777E+01  0.32418223440E+00  0.12870649546E+02  0.13395432797E+02  0.17770000000E+01 0. -1.
</event>
<event>
 6   1  0.3798113E-04  0.5007082E+03  0.7546771E-02  0.9398226E-01
        -11   -1    0    0    0    0  0.00000000000E+00  0.00000000000E+00  0.50000000000E+03  0.50000000000E+03  0.00000000000E+00 0. -1.
         11   -1    0    0    0    0 -0.00000000000E+00 -0.00000000000E+00 -0.50000000000E+03  0.50000000000E+03  0.00000000000E+00 0.  1.
        -11    1    1    2    0    0  0.86096187114E+01  0.10932698965E+02 -0.42029226510E+02  0.44273076718E+02  0.00000000000E+00 0. -1.
         11    1    1    2    0    0 -0.89423131840E+01 -0.69911419582E+01 -0.45629395121E+03  0.45643511143E+03  0.00000000000E+00 0.  1.
        -15    1    1    2    0    0 -0.59487055262E+01 -0.14130557338E+02  0.15763417340E+03  0.15838797335E+03  0.17770000000E+01 0.  1.
         15    1    1    2    0    0  0.62813999988E+01  0.10189000332E+02  0.34068900432E+03  0.34090383850E+03  0.17770000000E+01 0. -1.
</event>
<event>
 6   1  0.3798113E-04  0.5002133E+03  0.7546771E-02  0.9399333E-01
        -11   -1    0    0    0    0  0.00000000000E+00  0.00000000000E+00  0.50000000000E+03  0.50000000000E+03  0.00000000000E+00 0. -1.
         11   -1    0    0    0    0 -0.00000000000E+00 -0.00000000000E+00 -0.50000000000E+03  0.50000000000E+03  0.00000000000E+00 0. -1.
        -11    1    1    2    0    0  0.50072506729E+01  0.56958966333E+01  0.49972918638E+03  0.49978673004E+03  0.00000000000E+00 0. -1.
         11    1    1    2    0    0 -0.58822581686E+01 -0.91566699747E+00 -0.42341885813E+03  0.42346070518E+03  0.00000000000E+00 0. -1.
        -15    1    1    2    0    0  0.13935692049E+00 -0.23485874182E+01 -0.63646707800E+02  0.63714962340E+02  0.17770000000E+01 0. -1.
         15    1    1    2    0    0  0.73565057518E+00 -0.24316422177E+01 -0.12663620448E+02  0.13037602444E+02  0.17770000000E+01 0. -1.
</event>
<event>
 6   1  0.3798113E-04  0.5106042E+03  0.7546771E-02  0.9376390E-01
        -11   -1    0    0    0    0  0.00000000000E+00  0.00000000000E+00  0.50000000000E+03  0.50000000000E+03  0.00000000000E+00 0. -1.
         11   -1    0    0    0    0 -0.00000000000E+00 -0.00000000000E+00 -0.50000000000E+03  0.50000000000E+03  0.00000000000E+00 0. -1.
        -11    1    1    2    0    0  0.43103704123E+01  0.96882718318E+01  0.48928089130E+03  0.48939578308E+03  0.00000000000E+00 0. -1.
         11    1    1    2    0    0  0.15594773026E+02 -0.68366590113E+01 -0.45660449514E+03  0.45692187717E+03  0.00000000000E+00 0. -1.
        -15    1    1    2    0    0  0.19689416318E+00 -0.17229541477E+01 -0.33366345607E+02  0.33458602578E+02  0.17770000000E+01 0. -1.
         15    1    1    2    0    0 -0.20102037602E+02 -0.11286586728E+01  0.68994944213E+00  0.20223737176E+02  0.17770000000E+01 0.  1.
</event>
<event>
 6   1  0.3798113E-04  0.5042318E+03  0.7546771E-02  0.9390390E-01
        -11   -1    0    0    0    0  0.00000000000E+00  0.00000000000E+00  0.50000000000E+03  0.50000000000E+03  0.00000000000E+00 0.  1.
         11   -1    0    0    0    0 -0.00000000000E+00 -0.00000000000E+00 -0.50000000000E+03  0.50000000000E+03  0.00000000000E+00 0. -1.
        -11    1    1    2    0    0  0.78287313804E+01  0.21000647077E+02  0.49526130344E+03  0.49576816648E+03  0.00000000000E+00 0.  1.
         11    1    1    2    0    0  0.10562576148E+02 -0.35811824019E+01 -0.45193896046E+03  0.45207656084E+03  0.00000000000E+00 0. -1.
        -15    1    1    2    0    0 -0.17467848156E+02 -0.10435613540E+02 -0.24015337646E+02  0.31526527249E+02  0.17770000000E+01 0. -1.
         15    1    1    2    0    0 -0.92345937260E+00 -0.69838511354E+01 -0.19307005335E+02  0.20628745428E+02  0.17770000000E+01 0.  1.
</event>
<event>
 6   1  0.3798113E-04  0.5069516E+03  0.7546771E-02  0.9384388E-01
        -11   -1    0    0    0    0  0.00000000000E+00  0.00000000000E+00  0.50000000000E+03  0.50000000000E+03  0.00000000000E+00 0.  1.
         11   -1    0    0    0    0 -0.00000000000E+00 -0.00000000000E+00 -0.50000000000E+03  0.50000000000E+03  0.00000000000E+00 0. -1.
        -11    1    1    2    0    0 -0.12466403500E+02  0.58394296683E+01  0.49285619894E+03  0.49304841850E+03  0.00000000000E+00 0.  1.
         11    1    1    2    0    0 -0.56427628245E+01 -0.62322721468E+01 -0.47660913779E+03  0.47668328292E+03  0.00000000000E+00 0. -1.
        -15    1    1    2    0    0  0.15276342305E+02 -0.11918655272E+01 -0.20072523596E+01  0.15555512485E+02  0.17770000000E+01 0. -1.
         15    1    1    2    0    0  0.28328240199E+01  0.15847080057E+01 -0.14239808787E+02  0.14712786095E+02  0.17770000000E+01 0.  1.
</event>
<event>
 6   1  0.3798113E-04  0.5000583E+03  0.7546771E-02  0.9399679E-01
        -11   -1    0    0    0    0  0.00000000000E+00  0.00000000000E+00  0.50000000000E+03  0.50000000000E+03  0.00000000000E+00 0.  1.
         11   -1    0    0    0    0 -0.00000000000E+00 -0.00000000000E+00 -0.50000000000E+03  0.50000000000E+03  0.00000000000E+00 0.  1.
        -11    1    1    2    0    0 -0.67024108706E+01  0.77996295785E+01  0.49983595063E+03  0.49994173068E+03  0.00000000000E+00 0.  1.
         11    1    1    2    0    0  0.37760572479E+01 -0.38823530093E+01 -0.19792439783E+03  0.19799848113E+03  0.00000000000E+00 0.  1.
        -15    1    1    2    0    0 -0.18553459757E+01 -0.31129074360E+00 -0.14630917930E+03  0.14633206377E+03  0.17770000000E+01 0.  1.
         15    1    1    2    0    0  0.47816995984E+01 -0.36059858256E+01 -0.15560237349E+03  0.15572772441E+03  0.17770000000E+01 0.  1.
</event>
<event>
 6   1  0.3798113E-04  0.5004890E+03  0.7546771E-02  0.9398716E-01
        -11   -1    0    0    0    0  0.00000000000E+00  0.00000000000E+00  0.50000000000E+03  0.50000000000E+03  0.00000000000E+00 0.  1.
         11   -1    0    0    0    0 -0.00000000000E+00 -0.00000000000E+00 -0.50000000000E+03  0.50000000000E+03  0.00000000000E+00 0.  1.
        -11    1    1    2    0    0  0.79839257837E+01  0.30965157926E+01  0.49943755018E+03  0.49951095885E+03  0.00000000000E+00 0.  1.
         11    1    1    2    0    0 -0.61825484419E+01 -0.15725915362E+01 -0.39018418096E+03  0.39023632843E+03  0.00000000000E+00 0.  1.
        -15    1    1    2    0    0 -0.80059255079E+01 -0.60217619453E+00 -0.55618054709E+02  0.56222621764E+02  0.17770000000E+01 0. -1.
         15    1    1    2    0    0  0.62045481662E+01 -0.92174806183E+00 -0.53635314510E+02  0.54030090959E+02  0.17770000000E+01 0.  1.
</event>
<event>
 6   1  0.3798113E-04  0.5025679E+03  0.7546771E-02  0.9394082E-01
        -11   -1    0    0    0    0  0.00000000000E+00  0.00000000000E+00  0.50000000000E+03  0.50000000000E+03  0.00000000000E+00 0.  1.
         11   -1    0    0    0    0 -0.00000000000E+00 -0.00000000000E+00 -0.50000000000E+03  0.50000000000E+03  0.00000000000E+00 0.  1.
        -11    1    1    2    0    0  0.65005500444E+01  0.16275505196E+02  0.49712328408E+03  0.49743211476E+03  0.00000000000E+00 0.  1.
         11    1    1    2    0    0  0.65191185513E+01 -0.72847833843E+01 -0.45322237420E+03  0.45332779249E+03  0.00000000000E+00 0.  1.
        -15    1    1    2    0    0 -0.23809998661E+01 -0.26719133075E+01 -0.44326508256E+00  0.40202604416E+01  0.17770000000E+01 0. -1.
         15    1    1    2    0    0 -0.10638668730E+02 -0.63188085041E+01 -0.43457644799E+02  0.45219832305E+02  0.17770000000E+01 0.  1.
</event>
<event>
 6   1  0.3798113E-04  0.5045563E+03  0.7546771E-02  0.9389672E-01
        -11   -1    0    0    0    0  0.00000000000E+00  0.00000000000E+00  0.50000000000E+03  0.50000000000E+03  0.00000000000E+00 0. -1.
         11   -1    0    0    0    0 -0.00000000000E+00 -0.00000000000E+00 -0.50000000000E+03  0.50000000000E+03  0.00000000000E+00 0. -1.
        -11    1    1    2    0    0 -0.50956734407E+01  0.34930367028E+02  0.49418455742E+03  0.49544371347E+03  0.00000000000E+00 0. -1.
         11    1    1    2    0    0  0.85602693577E+01  0.21443603180E+01 -0.42798726835E+03  0.42807823860E+03  0.00000000000E+00 0. -1.
        -15    1    1    2    0    0  0.17705047991E+01 -0.65416928423E+01 -0.15966112343E+02  0.17435679075E+02  0.17770000000E+01 0. -1.
         15    1    1    2    0    0 -0.52351007161E+01 -0.30533034504E+02 -0.50231176728E+02  0.59042368855E+02  0.17770000000E+01 0.  1.
</event>
<event>
 6   1  0.3798113E-04  0.5056996E+03  0.7546771E-02  0.9387146E-01
        -11   -1    0    0    0    0  0.00000000000E+00  0.00000000000E+00  0.50000000000E+03  0.50000000000E+03  0.00000000000E+00 0. -1.
         11   -1    0    0    0    0 -0.00000000000E+00 -0.00000000000E+00 -0.50000000000E+03  0.50000000000E+03  0.00000000000E+00 0. -1.
        -11    1    1    2    0    0 -0.20685561345E+02  0.38551971871E+00  0.49386727050E+03  0.49430043692E+03  0.00000000000E+00 0. -1.
         11    1    1    2    0    0  0.27329304613E+01  0.74776853301E+01 -0.44689242718E+03  0.44696333872E+03  0.00000000000E+00 0. -1.
        -15    1    1    2    0    0  0.12872981197E+02  0.79437790638E+01 -0.35053511880E+02  0.38219415155E+02  0.17770000000E+01 0. -1.
         15    1    1    2    0    0  0.50796496866E+01 -0.15806984113E+02 -0.11921331438E+02  0.20516809204E+02  0.17770000000E+01 0.  1.
</event>
<event>
 6   1  0.3798113E-04  0.5037917E+03  0.7546771E-02  0.9391365E-01
        -11   -1    0    0    0    0  0.00000000000E+00  0.00000000000E+00  0.50000000000E+03  0.50000000000E+03  0.00000000000E+00 0. -1.
         11   -1    0    0    0    0 -0.00000000000E+00 -0.00000000000E+00 -0.50000000000E+03  0.50000000000E+03  0.00000000000E+00 0. -1.
        -11    1    1    2    0    0 -0.15997932907E+02  0.21304612790E+02  0.50732857879E+02  0.57303082395E+02  0.00000000000E+00 0. -1.
         11    1    1    2    0    0  0.10644474400E+02 -0.35233335994E-02 -0.49609416051E+03  0.49620834428E+03  0.00000000000E+00 0. -1.
        -15    1    1    2    0    0 -0.69403718658E+01 -0.51786535274E+01  0.67054281814E+02  0.67634470890E+02  0.17770000000E+01 0.  1.
         15    1    1    2    0    0  0.12293830372E+02 -0.16122435928E+02  0.37830702081E+03  0.37885410243E+03  0.17770000000E+01 0. -1.
</event>
<event>
 6   1  0.3798113E-04  0.5005668E+03  0.7546771E-02  0.9398542E-01
        -11   -1    0    0    0    0  0.00000000000E+00  0.00000000000E+00  0.50000000000E+03  0.50000000000E+03  0.00000000000E+00 0.  1.
         11   -1    0    0    0    0 -0.00000000000E+00 -0.00000000000E+00 -0.50000000000E+03  0.50000000000E+03  0.00000000000E+00 0.  1.
        -11    1    1    2    0    0 -0.30623183256E+01 -0.65823798443E+01  0.49938046822E+03  0.49943323634E+03  0.00000000000E+00 0.  1.
         11    1    1    2    0    0  0.62079476445E+01 -0.34974110758E+01 -0.41350868471E+03  0.41357007003E+03  0.00000000000E+00 0.  1.
        -15    1    1    2    0    0  0.26759721966E+01  0.41779844488E+01 -0.26114087878E+02  0.26640564858E+02  0.17770000000E+01 0. -1.
         15    1    1    2    0    0 -0.58216015154E+01  0.59018064713E+01 -0.59757695637E+02  0.60356128775E+02  0.17770000000E+01 0.  1.
</event>
<event>
 6   1  0.3798113E-04  0.5014947E+03  0.7546771E-02  0.9396471E-01
        -11   -1    0    0    0    0  0.00000000000E+00  0.00000000000E+00  0.50000000000E+03  0.50000000000E+03  0.00000000000E+00 0. -1.
         11   -1    0    0    0    0 -0.00000000000E+00 -0.00000000000E+00 -0.50000000000E+03  0.50000000000E+03  0.00000000000E+00 0.  1.
        -11    1    1    2    0    0  0.26064162501E+01 -0.67039169357E+01  0.47681415943E+03  0.47686840799E+03  0.00000000000E+00 0. -1.
         11    1    1    2    0    0 -0.77872344405E+01 -0.25665957195E+01 -0.49843783714E+03  0.49850527171E+03  0.00000000000E+00 0.  1.
        -15    1    1    2    0    0  0.50647093030E+01  0.73017764488E+01  0.15552682979E+02  0.18000302678E+02  0.17770000000E+01 0.  1.
         15    1    1    2    0    0  0.11610888740E+00  0.19687362064E+01  0.60709947296E+01  0.66260176223E+01  0.17770000000E+01 0.  1.
</event>
<event>
 6   1  0.3798113E-04  0.5001583E+03  0.7546771E-02  0.9399456E-01
        -11   -1    0    0    0    0  0.00000000000E+00  0.00000000000E+00  0.50000000000E+03  0.50000000000E+03  0.00000000000E+00 0.  1.
         11   -1    0    0    0    0 -0.00000000000E+00 -0.00000000000E+00 -0.50000000000E+03  0.50000000000E+03  0.00000000000E+00 0.  1.
        -11    1    1    2    0    0  0.15415327823E+02 -0.56629461924E+01  0.27889552727E+03  0.27937862557E+03  0.00000000000E+00 0.  1.
         11    1    1    2    0    0 -0.16969464014E+02  0.11752314910E+01 -0.49955214666E+03  0.49984166604E+03  0.00000000000E+00 0.  1.
        -15    1    1    2    0    0  0.22059494144E+01  0.12233225119E+01  0.60488333131E+02  0.60566978666E+02  0.17770000000E+01 0.  1.
         15    1    1    2    0    0 -0.65181322315E+00  0.32643921895E+01  0.16016828625E+03  0.16021272973E+03  0.17770000000E+01 0.  1.
</event>
<event>
 6   1  0.3798113E-04  0.5003654E+03  0.7546771E-02  0.9398993E-01
        -11   -1    0    0    0    0  0.00000000000E+00  0.00000000000E+00  0.50000000000E+03  0.50000000000E+03  0.00000000000E+00 0.  1.
         11   -1    0    0    0    0 -0.00000000000E+00 -0.00000000000E+00 -0.50000000000E+03  0.50000000000E+03  0.00000000000E+00 0. -1.
        -11    1    1    2    0    0  0.23068716983E+02 -0.33649392535E+02  0.36263983430E+03  0.36492752259E+03  0.00000000000E+00 0.  1.
         11    1    1    2    0    0 -0.27575975991E+02  0.31528339622E+02 -0.49787579096E+03  0.49963464039E+03  0.00000000000E+00 0. -1.
        -15    1    1    2    0    0  0.36467444426E+01 -0.52360655679E-01  0.55626765086E+02  0.55774512186E+02  0.17770000000E+01 0.  1.
         15    1    1    2    0    0  0.86051456582E+00  0.21734135685E+01  0.79609191578E+02  0.79663324840E+02  0.17770000000E+01 0.  1.
</event>
<event>
 6   1  0.3798113E-04  0.5043087E+03  0.7546771E-02  0.9390220E-01
        -11   -1    0    0    0    0  0.00000000000E+00  0.00000000000E+00  0.50000000000E+03  0.50000000000E+03  0.00000000000E+00 0.  1.
         11   -1    0    0    0    0 -0.00000000000E+00 -0.00000000000E+00 -0.50000000000E+03  0.50000000000E+03  0.00000000000E+00 0. -1.
        -11    1    1    2    0    0  0.14597651307E+02  0.47437874966E+02  0.49320013741E+03  0.49569125365E+03  0.00000000000E+00 0.  1.
         11    1    1    2    0    0 -0.47794209439E+01 -0.21853291306E+01 -0.29960333946E+03  0.29964942774E+03  0.00000000000E+00 0. -1.
        -15    1    1    2    0    0  0.12685870565E+02 -0.38021344306E+01 -0.87808737007E+02  0.88819589968E+02  0.17770000000E+01 0. -1.
         15    1    1    2    0    0 -0.22504100928E+02 -0.41450411405E+02 -0.10578806094E+03  0.11583972864E+03  0.17770000000E+01 0.  1.
</event>
<event>
 6   1  0.3798113E-04  0.5008524E+03  0.7546771E-02  0.9397904E-01
        -11   -1    0    0    0    0  0.00000000000E+00  0.00000000000E+00  0.50000000000E+03  0.50000000000E+03  0.00000000000E+00 0.  1.
         11   -1    0    0    0    0 -0.00000000000E+00 -0.00000000000E+00 -0.50000000000E+03  0.50000000000E+03  0.00000000000E+00 0.  1.
        -11    1    1    2    0    0 -0.32991565179E+02 -0.33375831804E+02  0.49693652059E+03  0.49914756838E+03  0.00000000000E+00 0.  1.
         11    1    1    2    0    0  0.84979828088E+01  0.12508202779E+01 -0.17668132138E+03  0.17688999290E+03  0.00000000000E+00 0.  1.
        -15    1    1    2    0    0  0.26444871318E+02  0.27514515735E+02 -0.20157462666E+03  0.20516302697E+03  0.17770000000E+01 0.  1.
         15    1    1    2    0    0 -0.19512889477E+01  0.46104957907E+01 -0.11868057256E+03  0.11879941175E+03  0.17770000000E+01 0. -1.
</event>
<event>
 6   1  0.3798113E-04  0.5004046E+03  0.7546771E-02  0.9398905E-01
        -11   -1    0    0    0    0  0.00000000000E+00  0.00000000000E+00  0.50000000000E+03  0.50000000000E+03  0.00000000000E+00 0. -1.
         11   -1    0    0    0    0 -0.00000000000E+00 -0.00000000000E+00 -0.50000000000E+03  0.50000000000E+03  0.00000000000E+00 0.  1.
        -11    1    1    2    0    0  0.25201922731E+02 -0.61010616600E+01  0.49892204335E+03  0.49959540150E+03  0.00000000000E+00 0. -1.
         11    1    1    2    0    0 -0.24027001471E+02 -0.33695462604E+01 -0.38878247226E+03  0.38953878033E+03  0.00000000000E+00 0.  1.
        -15    1    1    2    0    0 -0.31210498332E+01  0.97937379181E+00 -0.37441076891E+02  0.37625683952E+02  0.17770000000E+01 0. -1.
         15    1    1    2    0    0  0.19461285732E+01  0.84912341286E+01 -0.72698494191E+02  0.73240134217E+02  0.17770000000E+01 0.  1.
</event>
<event>
 6   1  0.3798113E-04  0.5005166E+03  0.7546771E-02  0.9398654E-01
        -11   -1    0    0    0    0  0.00000000000E+00  0.00000000000E+00  0.50000000000E+03  0.50000000000E+03  0.00000000000E+00 0.  1.
         11   -1    0    0    0    0 -0.00000000000E+00 -0.00000000000E+00 -0.50000000000E+03  0.50000000000E+03  0.00000000000E+00 0. -1.
        -11    1    1    2    0    0  0.95970589180E+01  0.13708165143E+02  0.49920299898E+03  0.49948338463E+03  0.00000000000E+00 0.  1.
         11    1    1    2    0    0 -0.12252853192E+02  0.19866590504E+01 -0.36187842361E+03  0.36209124913E+03  0.00000000000E+00 0. -1.
        -15    1    1    2    0    0  0.33639903132E+01 -0.63793351004E+01 -0.44584460248E+02  0.45198939941E+02  0.17770000000E+01 0. -1.
         15    1    1    2    0    0 -0.70819603943E+00 -0.93154890926E+01 -0.92740115119E+02  0.93226426296E+02  0.17770000000E+01 0.  1.
</event>
<event>
 6   1  0.3798113E-04  0.5000296E+03  0.7546771E-02  0.9399743E-01
        -11   -1    0    0    0    0  0.00000000000E+00  0.00000000000E+00  0.50000000000E+03  0.50000000000E+03  0.00000000000E+00 0.  1.
         11   -1    0    0    0    0 -0.00000000000E+00 -0.00000000000E+00 -0.50000000000E+03  0.50000000000E+03  0.00000000000E+00 0.  1.
        -11    1    1    2    0    0  0.28305210680E+01  0.72588830530E+01  0.49990969210E+03  0.49997040261E+03  0.00000000000E+00 0.  1.
         11    1    1    2    0    0 -0.29908868995E+01 -0.14877642676E+01 -0.13242204717E+03  0.13246417411E+03  0.00000000000E+00 0.  1.
        -15    1    1    2    0    0  0.16747072591E+01 -0.37328354029E+01 -0.22022015486E+03  0.22026532419E+03  0.17770000000E+01 0. -1.
         15    1    1    2    0    0 -0.15143414276E+01 -0.20382833825E+01 -0.14726749007E+03  0.14730009909E+03  0.17770000000E+01 0.  1.
</event>
<event>
 6   1  0.3798113E-04  0.5006457E+03  0.7546771E-02  0.9398366E-01
        -11   -1    0    0    0    0  0.00000000000E+00  0.00000000000E+00  0.50000000000E+03  0.50000000000E+03  0.00000000000E+00 0.  1.
         11   -1    0    0    0    0 -0.00000000000E+00 -0.00000000000E+00 -0.50000000000E+03  0.50000000000E+03  0.00000000000E+00 0. -1.
        -11    1    1    2    0    0 -0.60928642323E+01  0.92309632085E+01  0.49923179918E+03  0.49935430606E+03  0.00000000000E+00 0.  1.
         11    1    1    2    0    0  0.81329589391E+01  0.28509899719E+01 -0.41692440111E+03  0.41701346429E+03  0.00000000000E+00 0. -1.
        -15    1    1    2    0    0 -0.34587712098E+01 -0.32525529419E+01 -0.42095147588E+02  0.42399308702E+02  0.17770000000E+01 0. -1.
         15    1    1    2    0    0  0.14186765031E+01 -0.88294002385E+01 -0.40212250481E+02  0.41232920941E+02  0.17770000000E+01 0.  1.
</event>
<event>
 6   1  0.3798113E-04  0.5010882E+03  0.7546771E-02  0.9397378E-01
        -11   -1    0    0    0    0  0.00000000000E+00  0.00000000000E+00  0.50000000000E+03  0.50000000000E+03  0.00000000000E+00 0. -1.
         11   -1    0    0    0    0 -0.00000000000E+00 -0.00000000000E+00 -0.50000000000E+03  0.50000000000E+03  0.00000000000E+00 0.  1.
        -11    1    1    2    0    0 -0.11647336915E+02 -0.15808354657E+00  0.49877583229E+03  0.49891183221E+03  0.00000000000E+00 0. -1.
         11    1    1    2    0    0 -0.28246820833E+01  0.79837171044E+01 -0.40680623712E+03  0.40689437589E+03  0.00000000000E+00 0.  1.
        -15    1    1    2    0    0  0.10851399671E+02 -0.88946228250E+01 -0.84154007770E+02  0.85334178046E+02  0.17770000000E+01 0. -1.
         15    1    1    2    0    0  0.36206193271E+01  0.10689892672E+01 -0.78155873915E+01  0.88596138539E+01  0.17770000000E+01 0.  1.
</event>
<event>
 6   1  0.3798113E-04  0.5011079E+03  0.7546771E-02  0.9397334E-01
        -11   -1    0    0    0    0  0.00000000000E+00  0.00000000000E+00  0.50000000000E+03  0.50000000000E+03  0.00000000000E+00 0. -1.
         11   -1    0    0    0    0 -0.00000000000E+00 -0.00000000000E+00 -0.50000000000E+03  0.50000000000E+03  0.00000000000E+00 0. -1.
        -11    1    1    2    0    0  0.14086644901E+02 -0.16661292311E+02  0.35891115552E+03  0.35957370563E+03  0.00000000000E+00 0. -1.
         11    1    1    2    0    0 -0.10683475313E+02 -0.36696902573E+01 -0.49876414747E+03  0.49889205052E+03  0.00000000000E+00 0. -1.
        -15    1    1    2    0    0 -0.29505822153E+01  0.18569863771E+02  0.11369811163E+03  0.11525608050E+03  0.17770000000E+01 0. -1.
         15    1    1    2    0    0 -0.45258737205E+00  0.17611187966E+01  0.26154880331E+02  0.26278163347E+02  0.17770000000E+01 0. -1.
</event>
<event>
 6   1  0.3798113E-04  0.5029311E+03  0.7546771E-02  0.9393275E-01
        -11   -1    0    0    0    0  0.00000000000E+00  0.00000000000E+00  0.50000000000E+03  0.50000000000E+03  0.00000000000E+00 0. -1.
         11   -1    0    0    0    0 -0.00000000000E+00 -0.00000000000E+00 -0.50000000000E+03  0.50000000000E+03  0.00000000000E+00 0.  1.
        -11    1    1    2    0    0  0.18420079463E+00  0.88621377585E+01  0.47882803690E+03  0.47891007542E+03  0.00000000000E+00 0. -1.
         11    1    1    2    0    0 -0.51344571475E+01  0.47680971110E+01 -0.49701951014E+03  0.49706889951E+03  0.00000000000E+00 0.  1.
        -15    1    1    2    0    0  0.72827003241E+00 -0.75228914135E+01  0.68769291651E+01  0.10371796190E+02  0.17770000000E+01 0. -1.
         15    1    1    2    0    0  0.42219863204E+01 -0.61073434561E+01  0.11314544068E+02  0.13649228881E+02  0.17770000000E+01 0.  1.
</event>
<event>
 6   1  0.3798113E-04  0.5033839E+03  0.7546771E-02  0.9392270E-01
        -11   -1    0    0    0    0  0.00000000000E+00  0.00000000000E+00  0.50000000000E+03  0.50000000000E+03  0.00000000000E+00 0.  1.
         11   -1    0    0    0    0 -0.00000000000E+00 -0.00000000000E+00 -0.50000000000E+03  0.50000000000E+03  0.00000000000E+00 0. -1.
        -11    1    1    2    0    0  0.30555825018E+02  0.21864995188E+02  0.11698482760E+03  0.12287060814E+03  0.00000000000E+00 0.  1.
         11    1    1    2    0    0 -0.13522649936E+02 -0.57186274671E+01 -0.49639903589E+03  0.49661611693E+03  0.00000000000E+00 0. -1.
        -15    1    1    2    0    0 -0.13653447370E+01  0.15182225665E+01  0.10614108279E+02  0.10953820775E+02  0.17770000000E+01 0. -1.
         15    1    1    2    0    0 -0.15667830345E+02 -0.17664590287E+02  0.36880010001E+03  0.36955945416E+03  0.17770000000E+01 0.  1.
</event>
<event>
 6   1  0.3798113E-04  0.5033719E+03  0.7546771E-02  0.9392296E-01
        -11   -1    0    0    0    0  0.00000000000E+00  0.00000000000E+00  0.50000000000E+03  0.50000000000E+03  0.00000000000E+00 0. -1.
         11   -1    0    0    0    0 -0.00000000000E+00 -0.00000000000E+00 -0.50000000000E+03  0.50000000000E+03  0.00000000000E+00 0. -1.
        -11    1    1    2    0    0  0.81363293612E+01 -0.94827054921E+01  0.49647085526E+03  0.49662806171E+03  0.00000000000E+00 0. -1.
         11    1    1    2    0    0 -0.66794598290E+01  0.77201368069E+01 -0.49469979414E+03  0.49480511519E+03  0.00000000000E+00 0. -1.
        -15    1    1    2    0    0  0.14937061035E+01 -0.97049411128E+00  0.16386974173E+01  0.30026779663E+01  0.17770000000E+01 0. -1.
         15    1    1    2    0    0 -0.29505756358E+01  0.27330627965E+01 -0.34097585332E+01  0.55641451353E+01  0.17770000000E+01 0.  1.
</event>
<event>
 6   1  0.3798113E-04  0.5002016E+03  0.7546771E-02  0.9399359E-01
        -11   -1    0    0    0    0  0.00000000000E+00  0.00000000000E+00  0.50000000000E+03  0.50000000000E+03  0.00000000000E+00 0.  1.
         11   -1    0    0    0    0 -0.00000000000E+00 -0.00000000000E+00 -0.50000000000E+03  0.50000000000E+03  0.00000000000E+00 0. -1.
        -11    1    1    2    0    0  0.37942974472E+01 -0.31538407622E+01  0.35518168156E+02  0.35859220207E+02  0.00000000000E+00 0.  1.
         11    1    1    2    0    0 -0.68282760688E+01 -0.32806129893E+01 -0.49974103409E+03  0.49979844830E+03  0.00000000000E+00 0. -1.
        -15    1    1    2    0    0  0.25062412003E+01  0.71624780014E+01  0.42258872549E+03  0.42266058602E+03  0.17770000000E+01 0.  1.
         15    1    1    2    0    0  0.52773742129E+00 -0.72802424983E+00  0.41634140440E+02  0.41681745469E+02  0.17770000000E+01 0.  1.
</event>
<event>
 6   1  0.3798113E-04  0.5002711E+03  0.7546771E-02  0.9399203E-01
        -11   -1    0    0    0    0  0.00000000000E+00  0.00000000000E+00  0.50000000000E+03  0.50000000000E+03  0.00000000000E+00 0.  1.
         11   -1    0    0    0    0 -0.00000000000E+00 -0.00000000000E+00 -0.50000000000E+03  0.50000000000E+03  0.00000000000E+00 0. -1.
        -11    1    1    2    0    0  0.35528966083E+01 -0.15890842561E+02  0.15061364284E+03  0.15149129137E+03  0.00000000000E+00 0.  1.
         11    1    1    2    0    0 -0.72914910736E+01  0.18696354307E+02 -0.49932578830E+03  0.49972888886E+03  0.00000000000E+00 0. -1.
        -15    1    1    2    0    0  0.40408045365E+01 -0.16201342292E+01  0.24793255938E+03  0.24797714545E+03  0.17770000000E+01 0.  1.
         15    1    1    2    0    0 -0.30221007119E+00 -0.11853775176E+01  0.10077958607E+03  0.10080267432E+03  0.17770000000E+01 0. -1.
</event>
<event>
 6   1  0.3798113E-04  0.5033811E+03  0.7546771E-02  0.9392276E-01
        -11   -1    0    0    0    0  0.00000000000E+00  0.00000000000E+00  0.50000000000E+03  0.50000000000E+03  0.00000000000E+00 0.  1.
         11   -1    0    0    0    0 -0.00000000000E+00 -0.00000000000E+00 -0.50000000000E+03  0.50000000000E+03  0.00000000000E+00 0. -1.
        -11    1    1    2    0    0  0.10143842351E+02 -0.98682837079E+01  0.49641724971E+03  0.49661893477E+03  0.00000000000E+00 0.  1.
         11    1    1    2    0    0 -0.83788223874E+01 -0.24346337188E+01 -0.47605706380E+03  0.47613701820E+03  0.00000000000E+00 0. -1.
        -15    1    1    2    0    0  0.47551657740E+01  0.21249470326E+01 -0.38986471152E+01  0.67441960053E+01  0.17770000000E+01 0. -1.
         15    1    1    2    0    0 -0.65201857374E+01  0.10177970394E+02 -0.16461538802E+02  0.20499851027E+02  0.17770000000E+01 0.  1.
</event>
<event>
 6   1  0.3798113E-04  0.5010850E+03  0.7546771E-02  0.9397385E-01
        -11   -1    0    0    0    0  0.00000000000E+00  0.00000000000E+00  0.50000000000E+03  0.50000000000E+03  0.00000000000E+00 0.  1.
         11   -1    0    0    0    0 -0.00000000000E+00 -0.00000000000E+00 -0.50000000000E+03  0.50000000000E+03  0.00000000000E+00 0.  1.
        -11    1    1    2    0    0 -0.16003386466E+02 -0.42420121056E-02  0.34611890956E+03  0.34648868373E+03  0.00000000000E+00 0.  1.
         11    1    1    2    0    0 -0.15737453665E+01  0.92373408056E+01 -0.49882698836E+03  0.49891499222E+03  0.00000000000E+00 0.  1.
        -15    1    1    2    0    0 -0.99508555808E+00  0.11368927492E+00  0.46876903790E+01  0.51122686362E+01  0.17770000000E+01 0.  1.
         15    1    1    2    0    0  0.18572217391E+02 -0.93467880684E+01  0.14802038842E+03  0.14948405542E+03  0.17770000000E+01 0.  1.
</event>
<event>
 6   1  0.3798113E-04  0.5098349E+03  0.7546771E-02  0.9378068E-01
        -11   -1    0    0    0    0  0.00000000000E+00  0.00000000000E+00  0.50000000000E+03  0.50000000000E+03  0.00000000000E+00 0.  1.
         11   -1    0    0    0    0 -0.00000000000E+00 -0.00000000000E+00 -0.50000000000E+03  0.50000000000E+03  0.00000000000E+00 0. -1.
        -11    1    1    2    0    0  0.19457217102E+02  0.39141440404E+02  0.43178818631E+03  0.43399501551E+03  0.00000000000E+00 0.  1.
         11    1    1    2    0    0  0.47546851268E+01 -0.61371937227E+01 -0.49010364486E+03  0.49016513022E+03  0.00000000000E+00 0. -1.
        -15    1    1    2    0    0 -0.14493504642E+02 -0.20866418513E+02  0.53843801158E+02  0.59563258394E+02  0.17770000000E+01 0. -1.
         15    1    1    2    0    0 -0.97183975866E+01 -0.12137828168E+02  0.44716574004E+01  0.16276595872E+02  0.17770000000E+01 0.  1.
</event>
<event>
 6   1  0.3798113E-04  0.4925335E+03  0.7546771E-02  0.9416673E-01
        -11   -1    0    0    0    0  0.00000000000E+00  0.00000000000E+00  0.50000000000E+03  0.50000000000E+03  0.00000000000E+00 0. -1.
         11   -1    0    0    0    0 -0.00000000000E+00 -0.00000000000E+00 -0.50000000000E+03  0.50000000000E+03  0.00000000000E+00 0.  1.
        -11    1    1    2    0    0  0.14655380431E+02 -0.31346179885E+01  0.48948040335E+03  0.48970978270E+03  0.00000000000E+00 0. -1.
         11    1    1    2    0    0 -0.62443090313E+01 -0.48701174408E+01 -0.49537996667E+03  0.49544325691E+03  0.00000000000E+00 0.  1.
        -15    1    1    2    0    0 -0.13113103599E+01  0.54300844360E+01  0.23593023250E+01  0.63189705097E+01  0.17770000000E+01 0.  1.
         15    1    1    2    0    0 -0.70997610397E+01  0.25746509933E+01  0.35402609923E+01  0.85279898834E+01  0.17770000000E+01 0. -1.
</event>
<event>
 6   1  0.3798113E-04  0.5000209E+03  0.7546771E-02  0.9399763E-01
        -11   -1    0    0    0    0  0.00000000000E+00  0.00000000000E+00  0.50000000000E+03  0.50000000000E+03  0.00000000000E+00 0. -1.
         11   -1    0    0    0    0 -0.00000000000E+00 -0.00000000000E+00 -0.50000000000E+03  0.50000000000E+03  0.00000000000E+00 0. -1.
        -11    1    1    2    0    0  0.16524585657E+01 -0.10379962258E+02  0.49986864489E+03  0.49997913595E+03  0.00000000000E+00 0. -1.
         11    1    1    2    0    0 -0.22225392615E+01  0.25067250091E+01 -0.15495812319E+03  0.15499433310E+03  0.00000000000E+00 0. -1.
        -15    1    1    2    0    0  0.12652589927E+01  0.53468700256E+01 -0.22860982104E+03  0.22868274510E+03  0.17770000000E+01 0. -1.
         15    1    1    2    0    0 -0.69517829695E+00  0.25263672238E+01 -0.11630070066E+03  0.11634378585E+03  0.17770000000E+01 0. -1.
</event>
<event>
 6   1  0.3798113E-04  0.5001185E+03  0.7546771E-02  0.9399545E-01
        -11   -1    0    0    0    0  0.00000000000E+00  0.00000000000E+00  0.50000000000E+03  0.50000000000E+03  0.00000000000E+00 0. -1.
         11   -1    0    0    0    0 -0.00000000000E+00 -0.00000000000E+00 -0.50000000000E+03  0.50000000000E+03  0.00000000000E+00 0. -1.
        -11    1    1    2    0    0 -0.48339173735E+01  0.14475075039E+02  0.30282292265E+03  0.30320721798E+03  0.00000000000E+00 0. -1.
         11    1    1    2    0    0  0.90086713718E+01 -0.16394112384E+02 -0.49953137514E+03  0.49988150379E+03  0.00000000000E+00 0. -1.
        -15    1    1    2    0    0 -0.20859352244E+01  0.10503881009E+01  0.17355395835E+03  0.17357876780E+03  0.17770000000E+01 0. -1.
         15    1    1    2    0    0 -0.20888187739E+01  0.86864924459E+00  0.23154494139E+02  0.23332510435E+02  0.17770000000E+01 0. -1.
</event>
<event>
 6   1  0.3798113E-04  0.5003940E+03  0.7546771E-02  0.9398928E-01
        -11   -1    0    0    0    0  0.00000000000E+00  0.00000000000E+00  0.50000000000E+03  0.50000000000E+03  0.00000000000E+00 0. -1.
         11   -1    0    0    0    0 -0.00000000000E+00 -0.00000000000E+00 -0.50000000000E+03  0.50000000000E+03  0.00000000000E+00 0.  1.
        -11    1    1    2    0    0  0.53972749500E+01 -0.11888867492E+02  0.48741267918E+03  0.48758752607E+03  0.00000000000E+00 0. -1.
         11    1    1    2    0    0 -0.49376923563E+01  0.10324052181E+02 -0.49947488819E+03  0.49960597554E+03  0.00000000000E+00 0.  1.
        -15    1    1    2    0    0  0.16132131638E-02  0.98330692492E+00  0.86803591543E+01  0.89147775721E+01  0.17770000000E+01 0. -1.
         15    1    1    2    0    0 -0.46119580683E+00  0.58150838689E+00  0.33818498525E+01  0.38917208277E+01  0.17770000000E+01 0. -1.
</event>
<event>
 6   1  0.3798113E-04  0.5012055E+03  0.7546771E-02  0.9397116E-01
        -11   -1    0    0    0    0  0.00000000000E+00  0.00000000000E+00  0.50000000000E+03  0.50000000000E+03  0.00000000000E+00 0. -1.
         11   -1    0    0    0    0 -0.00000000000E+00 -0.00000000000E+00 -0.50000000000E+03  0.50000000000E+03  0.00000000000E+00 0. -1.
        -11    1    1    2    0    0 -0.92761582126E+00  0.13668178750E+02  0.38612846103E+03  0.38637141199E+03  0.00000000000E+00 0. -1.
         11    1    1    2    0    0  0.62064080922E+01  0.51536466578E+01 -0.49872921601E+03  0.49879445714E+03  0.00000000000E+00 0. -1.
        -15    1    1    2    0    0 -0.29990887869E+01 -0.99840294006E-01  0.21928667425E+02  0.22204249271E+02  0.17770000000E+01 0. -1.
         15    1    1    2    0    0 -0.22797034841E+01 -0.18721985114E+02  0.90672087552E+02  0.92629881596E+02  0.17770000000E+01 0.  1.
</event>
<event>
 6   1  0.3798113E-04  0.5004969E+03  0.7546771E-02  0.9398698E-01
        -11   -1    0    0    0    0  0.00000000000E+00  0.00000000000E+00  0.50000000000E+03  0.50000000000E+03  0.00000000000E+00 0.  1.
         11   -1    0    0    0    0 -0.00000000000E+00 -0.00000000000E+00 -0.50000000000E+03  0.50000000000E+03  0.00000000000E+00 0. -1.
        -11    1    1    2    0    0 -0.58235778430E+01 -0.11177211913E+02  0.35840663221E+03  0.35862816138E+03  0.00000000000E+00 0.  1.
         11    1    1    2    0    0 -0.56017834906E+01  0.72524289052E+01 -0.49941899608E+03  0.49950306440E+03  0.00000000000E+00 0. -1.
        -15    1    1    2    0    0  0.78192141729E+01  0.26322995574E+01  0.12575273332E+03  0.12603561710E+03  0.17770000000E+01 0.  1.
         15    1    1    2    0    0  0.36061471607E+01  0.12924834504E+01  0.15259630548E+02  0.15833157116E+02  0.17770000000E+01 0. -1.
</event>
<event>
 6   1  0.3798113E-04  0.5011454E+03  0.7546771E-02  0.9397251E-01
        -11   -1    0    0    0    0  0.00000000000E+00  0.00000000000E+00  0.50000000000E+03  0.50000000000E+03  0.00000000000E+00 0.  1.
         11   -1    0    0    0    0 -0.00000000000E+00 -0.00000000000E+00 -0.50000000000E+03  0.50000000000E+03  0.00000000000E+00 0.  1.
        -11    1    1    2    0    0 -0.90793256021E+01  0.12304888843E+02  0.43544956803E+03  0.43571799452E+03  0.00000000000E+00 0.  1.
         11    1    1    2    0    0 -0.50191400414E+01 -0.86161007807E+01 -0.49875497104E+03  0.49885463825E+03  0.00000000000E+00 0.  1.
        -15    1    1    2    0    0  0.15865572624E+01 -0.24195570966E+00  0.37563201976E+01  0.44545905468E+01  0.17770000000E+01 0. -1.
         15    1    1    2    0    0  0.12511908381E+02 -0.34468323526E+01  0.59549082812E+02  0.60972776691E+02  0.17770000000E+01 0.  1.
</event>
<event>
 6   1  0.3798113E-04  0.4903403E+03  0.7546771E-02  0.9421687E-01
        -11   -1    0    0    0    0  0.00000000000E+00  0.00000000000E+00  0.50000000000E+03  0.50000000000E+03  0.00000000000E+00 0. -1.
         11   -1    0    0    0    0 -0.00000000000E+00 -0.00000000000E+00 -0.50000000000E+03  0.50000000000E+03  0.00000000000E+00 0. -1.
        -11    1    1    2    0    0 -0.16137361926E+00  0.13360010279E+02  0.49138035645E+03  0.49156197027E+03  0.00000000000E+00 0. -1.
         11    1    1    2    0    0 -0.92819554493E+01  0.14600615902E+01 -0.48918832483E+03  0.48927855423E+03  0.00000000000E+00 0. -1.
        -15    1    1    2    0    0  0.91256541898E+01 -0.90064156205E+01 -0.16222488011E+01  0.13045401753E+02  0.17770000000E+01 0.  1.
         15    1    1    2    0    0  0.31767487873E+00 -0.58136562486E+01 -0.56978280909E+00  0.61140737446E+01  0.17770000000E+01 0. -1.
</event>
<event>
 6   1  0.3798113E-04  0.5037786E+03  0.7546771E-02  0.9391394E-01
        -11   -1    0    0    0    0  0.00000000000E+00  0.00000000000E+00  0.50000000000E+03  0.50000000000E+03  0.00000000000E+00 0.  1.
         11   -1    0    0    0    0 -0.00000000000E+00 -0.00000000000E+00 -0.50000000000E+03  0.50000000000E+03  0.00000000000E+00 0. -1.
        -11    1    1    2    0    0 -0.12073568383E+02  0.13168317354E+02  0.49589965734E+03  0.49622136773E+03  0.00000000000E+00 0.  1.
         11    1    1    2    0    0 -0.20493543443E+00 -0.90028785358E+01 -0.47285086097E+03  0.47293660309E+03  0.00000000000E+00 0. -1.
        -15    1    1    2    0    0  0.17116935899E+01 -0.38168866685E+01 -0.18747428784E+02  0.19290472618E+02  0.17770000000E+01 0.  1.
         15    1    1    2    0    0  0.10566810227E+02 -0.34855215003E+00 -0.43013675828E+01  0.11551556565E+02  0.17770000000E+01 0. -1.
</event>
<event>
 6   1  0.3798113E-04  0.5012041E+03  0.7546771E-02  0.9397120E-01
        -11   -1    0    0    0    0  0.00000000000E+00  0.00000000000E+00  0.50000000000E+03  0.50000000000E+03  0.00000000000E+00 0. -1.
         11   -1    0    0    0    0 -0.00000000000E+00 -0.00000000000E+00 -0.50000000000E+03  0.50000000000E+03  0.00000000000E+00 0.  1.
        -11    1    1    2    0    0  0.49352151956E+01 -0.10647526510E+02  0.48652485161E+03  0.48666637176E+03  0.00000000000E+00 0. -1.
         11    1    1    2    0    0 -0.50387057378E+01  0.68437362607E+01 -0.49872351188E+03  0.49879591677E+03  0.00000000000E+00 0.  1.
        -15    1    1    2    0    0  0.60971430383E+00 -0.13559781557E+01  0.48032746444E+01  0.53328795786E+01  0.17770000000E+01 0.  1.
         15    1    1    2    0    0 -0.50622376172E+00  0.51597684050E+01  0.73953856346E+01  0.92048318928E+01  0.17770000000E+01 0. -1.
</event>
<event>
 6   1  0.3798113E-04  0.4657216E+03  0.7546771E-02  0.9479956E-01
        -11   -1    0    0    0    0  0.00000000000E+00  0.00000000000E+00  0.50000000000E+03  0.50000000000E+03  0.00000000000E+00 0.  1.
         11   -1    0    0    0    0 -0.00000000000E+00 -0.00000000000E+00 -0.50000000000E+03  0.50000000000E+03  0.00000000000E+00 0. -1.
        -11    1    1    2    0    0  0.27053202913E+02  0.29675577765E+02  0.45708019266E+03  0.45884073297E+03  0.00000000000E+00 0.  1.
         11    1    1    2    0    0 -0.18503712879E+00  0.77106467357E+01 -0.47382725343E+03  0.47389002353E+03  0.00000000000E+00 0. -1.
        -15    1    1    2    0    0 -0.29681492386E+01 -0.19694440503E+02  0.28861322729E+02  0.35111459316E+02  0.17770000000E+01 0. -1.
         15    1    1    2    0    0 -0.23900016546E+02 -0.17691783998E+02 -0.12114261964E+02  0.32157784188E+02  0.17770000000E+01 0.  1.
</event>
<event>
 6   1  0.3798113E-04  0.5004151E+03  0.7546771E-02  0.9398881E-01
        -11   -1    0    0    0    0  0.00000000000E+00  0.00000000000E+00  0.50000000000E+03  0.50000000000E+03  0.00000000000E+00 0. -1.
         11   -1    0    0    0    0 -0.00000000000E+00 -0.00000000000E+00 -0.50000000000E+03  0.50000000000E+03  0.00000000000E+00 0. -1.
        -11    1    1    2    0    0  0.79705431029E+01  0.17931013970E+02  0.14147730031E+03  0.14283163978E+03  0.00000000000E+00 0. -1.
         11    1    1    2    0    0 -0.13724398064E+02 -0.20582126701E+02 -0.49897199214E+03  0.49958485964E+03  0.00000000000E+00 0. -1.
        -15    1    1    2    0    0  0.10534540622E+01  0.10982318018E+01  0.16638547891E+03  0.16640192667E+03  0.17770000000E+01 0. -1.
         15    1    1    2    0    0  0.47004008986E+01  0.15528809296E+01  0.19110921293E+03  0.19118157391E+03  0.17770000000E+01 0. -1.
</event>
<event>
 6   1  0.3798113E-04  0.5000213E+03  0.7546771E-02  0.9399762E-01
        -11   -1    0    0    0    0  0.00000000000E+00  0.00000000000E+00  0.50000000000E+03  0.50000000000E+03  0.00000000000E+00 0.  1.
         11   -1    0    0    0    0 -0.00000000000E+00 -0.00000000000E+00 -0.50000000000E+03  0.50000000000E+03  0.00000000000E+00 0. -1.
        -11    1    1    2    0    0  0.18392898091E+01  0.69891417608E+00  0.10433458339E+03  0.10435313488E+03  0.00000000000E+00 0.  1.
         11    1    1    2    0    0 -0.62700800169E+01  0.40448812947E+01 -0.49992298407E+03  0.49997866451E+03  0.00000000000E+00 0. -1.
        -15    1    1    2    0    0  0.31825521323E+01 -0.23370459790E+01  0.28307004401E+03  0.28310315782E+03  0.17770000000E+01 0. -1.
         15    1    1    2    0    0  0.12482380754E+01 -0.24067494917E+01  0.11251835667E+03  0.11256504278E+03  0.17770000000E+01 0.  1.
</event>
<event>
 6   1  0.3798113E-04  0.5000881E+03  0.7546771E-02  0.9399613E-01
        -11   -1    0    0    0    0  0.00000000000E+00  0.00000000000E+00  0.50000000000E+03  0.50000000000E+03  0.00000000000E+00 0. -1.
         11   -1    0    0    0    0 -0.00000000000E+00 -0.00000000000E+00 -0.50000000000E+03  0.50000000000E+03  0.00000000000E+00 0. -1.
        -11    1    1    2    0    0  0.62698363743E+01  0.86965553653E+01  0.33134334809E+03  0.33151674957E+03  0.00000000000E+00 0. -1.
         11    1    1    2    0    0 -0.92043853181E+01 -0.58448606366E+01 -0.49979301452E+03  0.49991193271E+03  0.00000000000E+00 0. -1.
        -15    1    1    2    0    0  0.53174152851E+00 -0.26474574837E+01  0.10681519582E+03  0.10686409859E+03  0.17770000000E+01 0.  1.
         15    1    1    2    0    0  0.24028074153E+01 -0.20423724496E+00  0.61634470602E+02  0.61707219122E+02  0.17770000000E+01 0.  1.
</event>
<event>
 6   1  0.3798113E-04  0.5091590E+03  0.7546771E-02  0.9379546E-01
        -11   -1    0    0    0    0  0.00000000000E+00  0.00000000000E+00  0.50000000000E+03  0.50000000000E+03  0.00000000000E+00 0.  1.
         11   -1    0    0    0    0 -0.00000000000E+00 -0.00000000000E+00 -0.50000000000E+03  0.50000000000E+03  0.00000000000E+00 0. -1.
        -11    1    1    2    0    0 -0.28769010544E+03  0.21365187641E+02  0.31133033509E+03  0.42443921303E+03  0.00000000000E+00 0.  1.
         11    1    1    2    0    0  0.29104926916E+03 -0.22040268855E+02 -0.39462574310E+03  0.49084104112E+03  0.00000000000E+00 0. -1.
        -15    1    1    2    0    0  0.34545793020E+01  0.22758508185E+01  0.88936723613E+01  0.99683876416E+01  0.17770000000E+01 0.  1.
         15    1    1    2    0    0 -0.68137430177E+01 -0.16007696044E+01  0.74401735651E+02  0.74751358209E+02  0.17770000000E+01 0. -1.
</event>
<event>
 6   1  0.3798113E-04  0.5008431E+03  0.7546771E-02  0.9397925E-01
        -11   -1    0    0    0    0  0.00000000000E+00  0.00000000000E+00  0.50000000000E+03  0.50000000000E+03  0.00000000000E+00 0.  1.
         11   -1    0    0    0    0 -0.00000000000E+00 -0.00000000000E+00 -0.50000000000E+03  0.50000000000E+03  0.00000000000E+00 0.  1.
        -11    1    1    2    0    0  0.99508432085E+01 -0.70332264830E+01  0.44882810082E+03  0.44899348508E+03  0.00000000000E+00 0.  1.
         11    1    1    2    0    0 -0.74213114917E+01 -0.45782544705E+01 -0.49908077635E+03  0.49915694686E+03  0.00000000000E+00 0.  1.
        -15    1    1    2    0    0  0.44404960571E+00  0.44367196425E+01  0.18476536420E+02  0.19089834685E+02  0.17770000000E+01 0.  1.
         15    1    1    2    0    0 -0.29735813225E+01  0.71747613110E+01  0.31776139103E+02  0.32759733379E+02  0.17770000000E+01 0. -1.
</event>
<event>
 6   1  0.3798113E-04  0.4748998E+03  0.7546771E-02  0.9457794E-01
        -11   -1    0    0    0    0  0.00000000000E+00  0.00000000000E+00  0.50000000000E+03  0.50000000000E+03  0.00000000000E+00 0. -1.
         11   -1    0    0    0    0 -0.00000000000E+00 -0.00000000000E+00 -0.50000000000E+03  0.50000000000E+03  0.00000000000E+00 0. -1.
        -11    1    1    2    0    0 -0.34762643443E+01 -0.34423330328E+02  0.47231975432E+03  0.47358526202E+03  0.00000000000E+00 0. -1.
         11    1    1    2    0    0 -0.66515928482E+01  0.40736687032E+01 -0.47669926497E+03  0.47676307291E+03  0.00000000000E+00 0. -1.
        -15    1    1    2    0    0  0.52693628252E+01  0.29045501548E+02  0.18277123917E+02  0.34765188515E+02  0.17770000000E+01 0.  1.
         15    1    1    2    0    0  0.48584943673E+01  0.13041600763E+01 -0.13897613263E+02  0.14886476562E+02  0.17770000000E+01 0. -1.
</event>
<event>
 6   1  0.3798113E-04  0.5086201E+03  0.7546771E-02  0.9380726E-01
        -11   -1    0    0    0    0  0.00000000000E+00  0.00000000000E+00  0.50000000000E+03  0.50000000000E+03  0.00000000000E+00 0.  1.
         11   -1    0    0    0    0 -0.00000000000E+00 -0.00000000000E+00 -0.50000000000E+03  0.50000000000E+03  0.00000000000E+00 0. -1.
        -11    1    1    2    0    0 -0.19687797982E+02  0.96425813113E+01  0.49089065563E+03  0.49137991874E+03  0.00000000000E+00 0.  1.
         11    1    1    2    0    0 -0.61353084944E+01  0.17926760061E+02 -0.45574351928E+03  0.45613722289E+03  0.00000000000E+00 0. -1.
        -15    1    1    2    0    0  0.19735399732E+02 -0.16845821704E+02 -0.19637996326E+02  0.32589512734E+02  0.17770000000E+01 0.  1.
         15    1    1    2    0    0  0.60877067438E+01 -0.10723519668E+02 -0.15509140020E+02  0.19893345637E+02  0.17770000000E+01 0. -1.
</event>
<event>
 6   1  0.3798113E-04  0.5011273E+03  0.7546771E-02  0.9397291E-01
        -11   -1    0    0    0    0  0.00000000000E+00  0.00000000000E+00  0.50000000000E+03  0.50000000000E+03  0.00000000000E+00 0. -1.
         11   -1    0    0    0    0 -0.00000000000E+00 -0.00000000000E+00 -0.50000000000E+03  0.50000000000E+03  0.00000000000E+00 0.  1.
        -11    1    1    2    0    0  0.38831152862E+01 -0.11739018328E+02  0.35196513202E+03  0.35218225011E+03  0.00000000000E+00 0. -1.
         11    1    1    2    0    0  0.30354609074E+01 -0.10455579227E+02 -0.49875390868E+03  0.49887272383E+03  0.00000000000E+00 0.  1.
        -15    1    1    2    0    0 -0.41919825759E+01  0.28305864596E+01  0.23610745588E+02  0.24211773455E+02  0.17770000000E+01 0. -1.
         15    1    1    2    0    0 -0.27265936177E+01  0.19364011096E+02  0.12317803107E+03  0.12473325261E+03  0.17770000000E+01 0.  1.
</event>
<event>
 6   1  0.3798113E-04  0.5026148E+03  0.7546771E-02  0.9393978E-01
        -11   -1    0    0    0    0  0.00000000000E+00  0.00000000000E+00  0.50000000000E+03  0.50000000000E+03  0.00000000000E+00 0. -1.
         11   -1    0    0    0    0 -0.00000000000E+00 -0.00000000000E+00 -0.50000000000E+03  0.50000000000E+03  0.00000000000E+00 0. -1.
        -11    1    1    2    0    0 -0.41039853944E+01 -0.14797500912E+02  0.43069391551E+03  0.43096758299E+03  0.00000000000E+00 0. -1.
         11    1    1    2    0    0 -0.13165881103E+02  0.22931992398E+01 -0.49720567519E+03  0.49738524569E+03  0.00000000000E+00 0. -1.
        -15    1    1    2    0    0  0.70886208865E+00  0.82650940942E+01  0.31817922880E+02  0.32929503659E+02  0.17770000000E+01 0. -1.
         15    1    1    2    0    0  0.16561004409E+02  0.42392075779E+01  0.34693836798E+02  0.38717667656E+02  0.17770000000E+01 0.  1.
</event>
<event>
 6   1  0.3798113E-04  0.3752741E+03  0.7546771E-02  0.9732418E-01
        -11   -1    0    0    0    0  0.00000000000E+00  0.00000000000E+00  0.50000000000E+03  0.50000000000E+03  0.00000000000E+00 0. -1.
         11   -1    0    0    0    0 -0.00000000000E+00 -0.00000000000E+00 -0.50000000000E+03  0.50000000000E+03  0.00000000000E+00 0.  1.
        -11    1    1    2    0    0  0.28049205147E+02 -0.18010277402E+03  0.29779377004E+03  0.34914881726E+03  0.00000000000E+00 0. -1.
         11    1    1    2    0    0  0.49119150456E+02  0.29037958764E+02 -0.42737193433E+03  0.43116431235E+03  0.00000000000E+00 0.  1.
        -15    1    1    2    0    0 -0.26750180556E+02  0.12163963869E+02  0.17884517022E+02  0.34446303937E+02  0.17770000000E+01 0. -1.
         15    1    1    2    0    0 -0.50418175047E+02  0.13890085138E+03  0.11169364727E+03  0.18524056645E+03  0.17770000000E+01 0.  1.
</event>
<event>
 6   1  0.3798113E-04  0.4357637E+03  0.7546771E-02  0.9556260E-01
        -11   -1    0    0    0    0  0.00000000000E+00  0.00000000000E+00  0.50000000000E+03  0.50000000000E+03  0.00000000000E+00 0. -1.
         11   -1    0    0    0    0 -0.00000000000E+00 -0.00000000000E+00 -0.50000000000E+03  0.50000000000E+03  0.00000000000E+00 0. -1.
        -11    1    1    2    0    0 -0.60999905610E+01  0.97407552923E+02  0.40994581216E+03  0.42140361906E+03  0.00000000000E+00 0. -1.
         11    1    1    2    0    0 -0.43993319640E+00  0.64915942291E+01 -0.45756384353E+03  0.45761010177E+03  0.00000000000E+00 0. -1.
        -15    1    1    2    0    0 -0.48677531380E+01  0.13382297157E+01  0.22022778746E+01  0.57873686785E+01  0.17770000000E+01 0. -1.
         15    1    1    2    0    0  0.11407676895E+02 -0.10523737687E+03  0.45415753501E+02  0.11519891049E+03  0.17770000000E+01 0.  1.
</event>
<event>
 6   1  0.3798113E-04  0.5004915E+03  0.7546771E-02  0.9398711E-01
        -11   -1    0    0    0    0  0.00000000000E+00  0.00000000000E+00  0.50000000000E+03  0.50000000000E+03  0.00000000000E+00 0.  1.
         11   -1    0    0    0    0 -0.00000000000E+00 -0.00000000000E+00 -0.50000000000E+03  0.50000000000E+03  0.00000000000E+00 0. -1.
        -11    1    1    2    0    0  0.99247513508E+01  0.97164857974E+01  0.49931535823E+03  0.49950849617E+03  0.00000000000E+00 0.  1.
         11    1    1    2    0    0 -0.55363648496E+00  0.47018301452E+01 -0.29135151452E+03  0.29138997707E+03  0.00000000000E+00 0. -1.
        -15    1    1    2    0    0 -0.43941032623E+01 -0.76055668293E+01 -0.16699148981E+03  0.16723177984E+03  0.17770000000E+01 0. -1.
         15    1    1    2    0    0 -0.49770116035E+01 -0.68127491133E+01 -0.40972353893E+02  0.41869746924E+02  0.17770000000E+01 0.  1.
</event>
<event>
 6   1  0.3798113E-04  0.5062411E+03  0.7546771E-02  0.9385952E-01
        -11   -1    0    0    0    0  0.00000000000E+00  0.00000000000E+00  0.50000000000E+03  0.50000000000E+03  0.00000000000E+00 0. -1.
         11   -1    0    0    0    0 -0.00000000000E+00 -0.00000000000E+00 -0.50000000000E+03  0.50000000000E+03  0.00000000000E+00 0. -1.
        -11    1    1    2    0    0 -0.18412398875E+02 -0.36103954920E+02  0.49209278690E+03  0.49375887122E+03  0.00000000000E+00 0. -1.
         11    1    1    2    0    0 -0.28492047625E+01 -0.11650257262E+02 -0.38232816930E+03  0.38251624214E+03  0.00000000000E+00 0. -1.
        -15    1    1    2    0    0  0.11094365936E+02  0.45018138228E+02 -0.90344795133E+02  0.10156307135E+03  0.17770000000E+01 0.  1.
         15    1    1    2    0    0  0.10167237701E+02  0.27360739539E+01 -0.19419822466E+02  0.22161815285E+02  0.17770000000E+01 0. -1.
</event>
<event>
 6   1  0.3798113E-04  0.5003928E+03  0.7546771E-02  0.9398931E-01
        -11   -1    0    0    0    0  0.00000000000E+00  0.00000000000E+00  0.50000000000E+03  0.50000000000E+03  0.00000000000E+00 0. -1.
         11   -1    0    0    0    0 -0.00000000000E+00 -0.00000000000E+00 -0.50000000000E+03  0.50000000000E+03  0.00000000000E+00 0. -1.
        -11    1    1    2    0    0  0.72530701627E+01 -0.14526490766E+02  0.49934330497E+03  0.49960720789E+03  0.00000000000E+00 0. -1.
         11    1    1    2    0    0  0.16375474877E+01 -0.23769975557E+01 -0.18074878966E+03  0.18077183586E+03  0.00000000000E+00 0. -1.
        -15    1    1    2    0    0  0.26066350460E+01 -0.14387395568E+01 -0.27602359814E+02  0.27819283134E+02  0.17770000000E+01 0.  1.
         15    1    1    2    0    0 -0.11497252696E+02  0.18342227879E+02 -0.29099215549E+03  0.29180167311E+03  0.17770000000E+01 0. -1.
</event>
<event>
 6   1  0.3798113E-04  0.5118771E+03  0.7546771E-02  0.9373619E-01
        -11   -1    0    0    0    0  0.00000000000E+00  0.00000000000E+00  0.50000000000E+03  0.50000000000E+03  0.00000000000E+00 0.  1.
         11   -1    0    0    0    0 -0.00000000000E+00 -0.00000000000E+00 -0.50000000000E+03  0.50000000000E+03  0.00000000000E+00 0.  1.
        -11    1    1    2    0    0  0.13078848851E+02 -0.42155109248E+02  0.48612331222E+03  0.48812291916E+03  0.00000000000E+00 0.  1.
         11    1    1    2    0    0  0.39115020684E+01 -0.11189277196E+02 -0.43464544800E+03  0.43480704369E+03  0.00000000000E+00 0.  1.
        -15    1    1    2    0    0 -0.15150063387E+02  0.50148417629E+02 -0.43551504299E+02  0.68148950593E+02  0.17770000000E+01 0. -1.
         15    1    1    2    0    0 -0.18402875321E+01  0.31959688156E+01 -0.79263599206E+01  0.89210865628E+01  0.17770000000E+01 0.  1.
</event>
<event>
 6   1  0.3798113E-04  0.5015740E+03  0.7546771E-02  0.9396295E-01
        -11   -1    0    0    0    0  0.00000000000E+00  0.00000000000E+00  0.50000000000E+03  0.50000000000E+03  0.00000000000E+00 0.  1.
         11   -1    0    0    0    0 -0.00000000000E+00 -0.00000000000E+00 -0.50000000000E+03  0.50000000000E+03  0.00000000000E+00 0. -1.
        -11    1    1    2    0    0 -0.78719176103E+01 -0.23690251907E+02  0.12265941318E+03  0.12517398597E+03  0.00000000000E+00 0.  1.
         11    1    1    2    0    0  0.25848735301E+01  0.70451203296E+01 -0.49836953744E+03  0.49842603377E+03  0.00000000000E+00 0. -1.
        -15    1    1    2    0    0 -0.31722735997E+01 -0.36324107503E+00  0.52178090791E+02  0.52305890217E+02  0.17770000000E+01 0. -1.
         15    1    1    2    0    0  0.84593176799E+01  0.17008372653E+02  0.32353203346E+03  0.32409409004E+03  0.17770000000E+01 0.  1.
</event>
<event>
 6   1  0.3798113E-04  0.4769751E+03  0.7546771E-02  0.9452857E-01
        -11   -1    0    0    0    0  0.00000000000E+00  0.00000000000E+00  0.50000000000E+03  0.50000000000E+03  0.00000000000E+00 0. -1.
         11   -1    0    0    0    0 -0.00000000000E+00 -0.00000000000E+00 -0.50000000000E+03  0.50000000000E+03  0.00000000000E+00 0.  1.
        -11    1    1    2    0    0  0.18656329832E+02 -0.32446427328E+02  0.47149439617E+03  0.47297758394E+03  0.00000000000E+00 0. -1.
         11    1    1    2    0    0  0.11499694488E+02  0.73754310413E+01 -0.48163851461E+03  0.48183223087E+03  0.00000000000E+00 0.  1.
        -15    1    1    2    0    0 -0.48222705473E+01 -0.42419270352E+00 -0.39984432813E+01  0.65252977215E+01  0.17770000000E+01 0. -1.
         15    1    1    2    0    0 -0.25333753772E+02  0.25495188990E+02  0.14142561714E+02  0.38664887465E+02  0.17770000000E+01 0.  1.
</event>
<event>
 6   1  0.3798113E-04  0.4835702E+03  0.7546771E-02  0.9437342E-01
        -11   -1    0    0    0    0  0.00000000000E+00  0.00000000000E+00  0.50000000000E+03  0.50000000000E+03  0.00000000000E+00 0. -1.
         11   -1    0    0    0    0 -0.00000000000E+00 -0.00000000000E+00 -0.50000000000E+03  0.50000000000E+03  0.00000000000E+00 0.  1.
        -11    1    1    2    0    0 -0.19342722909E+01  0.24697244964E+02  0.48409626967E+03  0.48472971193E+03  0.00000000000E+00 0. -1.
         11    1    1    2    0    0 -0.46578652024E+01  0.54450799619E+01 -0.48285041485E+03  0.48290358015E+03  0.00000000000E+00 0.  1.
        -15    1    1    2    0    0  0.31547062433E+01 -0.27097618572E+02 -0.23113500900E+00  0.27339426771E+02  0.17770000000E+01 0. -1.
         15    1    1    2    0    0  0.34374312500E+01 -0.30447063539E+01 -0.10147198132E+01  0.50272811419E+01  0.17770000000E+01 0.  1.
</event>
<event>
 6   1  0.3798113E-04  0.5005558E+03  0.7546771E-02  0.9398567E-01
        -11   -1    0    0    0    0  0.00000000000E+00  0.00000000000E+00  0.50000000000E+03  0.50000000000E+03  0.00000000000E+00 0.  1.
         11   -1    0    0    0    0 -0.00000000000E+00 -0.00000000000E+00 -0.50000000000E+03  0.50000000000E+03  0.00000000000E+00 0.  1.
        -11    1    1    2    0    0  0.16493711861E+02  0.10266859753E+02  0.24472080010E+03  0.24549077567E+03  0.00000000000E+00 0.  1.
         11    1    1    2    0    0 -0.79968986844E+01 -0.74211551713E+01 -0.49932507557E+03  0.49944424616E+03  0.00000000000E+00 0.  1.
        -15    1    1    2    0    0  0.26730102083E+01 -0.23513413733E+01  0.60213635178E+02  0.60344953229E+02  0.17770000000E+01 0. -1.
         15    1    1    2    0    0 -0.11169823385E+02 -0.49436320804E+00  0.19439064029E+03  0.19472002494E+03  0.17770000000E+01 0.  1.
</event>
<event>
 6   1  0.3798113E-04  0.5021619E+03  0.7546771E-02  0.9394985E-01
        -11   -1    0    0    0    0  0.00000000000E+00  0.00000000000E+00  0.50000000000E+03  0.50000000000E+03  0.00000000000E+00 0.  1.
         11   -1    0    0    0    0 -0.00000000000E+00 -0.00000000000E+00 -0.50000000000E+03  0.50000000000E+03  0.00000000000E+00 0.  1.
        -11    1    1    2    0    0  0.18999346260E+02  0.10386997604E+01  0.29891028745E+03  0.29951529844E+03  0.00000000000E+00 0.  1.
         11    1    1    2    0    0  0.12837082741E+01  0.16357315317E+02 -0.49756769121E+03  0.49783814338E+03  0.00000000000E+00 0.  1.
        -15    1    1    2    0    0 -0.25312214355E+02 -0.41704069702E+01  0.13180936526E+03  0.13429432970E+03  0.17770000000E+01 0.  1.
         15    1    1    2    0    0  0.50291598213E+01 -0.13225608107E+02  0.66848038498E+02  0.68352228481E+02  0.17770000000E+01 0. -1.
</event>
<event>
 6   1  0.3798113E-04  0.5040603E+03  0.7546771E-02  0.9390770E-01
        -11   -1    0    0    0    0  0.00000000000E+00  0.00000000000E+00  0.50000000000E+03  0.50000000000E+03  0.00000000000E+00 0.  1.
         11   -1    0    0    0    0 -0.00000000000E+00 -0.00000000000E+00 -0.50000000000E+03  0.50000000000E+03  0.00000000000E+00 0. -1.
        -11    1    1    2    0    0  0.12420463697E+02  0.32976581560E+02 -0.80526064713E+02  0.87898634506E+02  0.00000000000E+00 0.  1.
         11    1    1    2    0    0 -0.15244623786E+02 -0.24267779568E+02 -0.41517373846E+03  0.41616169548E+03  0.00000000000E+00 0. -1.
        -15    1    1    2    0    0  0.36399199234E+01 -0.29603908112E+01  0.63722812073E+02  0.63920008122E+02  0.17770000000E+01 0. -1.
         15    1    1    2    0    0 -0.81575983415E+00 -0.57484111801E+01  0.43197699110E+03  0.43201966189E+03  0.17770000000E+01 0.  1.
</event>
<event>
 6   1  0.3798113E-04  0.5004626E+03  0.7546771E-02  0.9398775E-01
        -11   -1    0    0    0    0  0.00000000000E+00  0.00000000000E+00  0.50000000000E+03  0.50000000000E+03  0.00000000000E+00 0. -1.
         11   -1    0    0    0    0 -0.00000000000E+00 -0.00000000000E+00 -0.50000000000E+03  0.50000000000E+03  0.00000000000E+00 0. -1.
        -11    1    1    2    0    0 -0.87128604118E+01  0.10556688602E+02  0.49934987505E+03  0.49953744136E+03  0.00000000000E+00 0. -1.
         11    1    1    2    0    0 -0.25225471342E+01 -0.46451884149E+01 -0.38868626192E+03  0.38872220315E+03  0.00000000000E+00 0. -1.
        -15    1    1    2    0    0  0.11360504263E+02 -0.66423484480E+01 -0.10228153062E+03  0.10313995872E+03  0.17770000000E+01 0. -1.
         15    1    1    2    0    0 -0.12509671707E+00  0.73084826061E+00 -0.83820825096E+01  0.86003967679E+01  0.17770000000E+01 0. -1.
</event>
<event>
 6   1  0.3798113E-04  0.5013346E+03  0.7546771E-02  0.9396828E-01
        -11   -1    0    0    0    0  0.00000000000E+00  0.00000000000E+00  0.50000000000E+03  0.50000000000E+03  0.00000000000E+00 0.  1.
         11   -1    0    0    0    0 -0.00000000000E+00 -0.00000000000E+00 -0.50000000000E+03  0.50000000000E+03  0.00000000000E+00 0.  1.
        -11    1    1    2    0    0 -0.99715843240E+01  0.37035285190E+01  0.49855189413E+03  0.49866535849E+03  0.00000000000E+00 0.  1.
         11    1    1    2    0    0  0.13197311791E+02 -0.29323207140E+01 -0.32575987781E+03  0.32604028207E+03  0.00000000000E+00 0.  1.
        -15    1    1    2    0    0 -0.11835331495E+02  0.17282539511E+01 -0.15318861732E+03  0.15366512987E+03  0.17770000000E+01 0. -1.
         15    1    1    2    0    0  0.86096040276E+01 -0.24994617562E+01 -0.19603398994E+02  0.21629229568E+02  0.17770000000E+01 0.  1.
</event>
<event>
 6   1  0.3798113E-04  0.4745956E+03  0.7546771E-02  0.9458520E-01
        -11   -1    0    0    0    0  0.00000000000E+00  0.00000000000E+00  0.50000000000E+03  0.50000000000E+03  0.00000000000E+00 0. -1.
         11   -1    0    0    0    0 -0.00000000000E+00 -0.00000000000E+00 -0.50000000000E+03  0.50000000000E+03  0.00000000000E+00 0.  1.
        -11    1    1    2    0    0  0.42341804022E+02  0.26295417668E+02 -0.21989722231E+01  0.49891009581E+02  0.00000000000E+00 0. -1.
         11    1    1    2    0    0 -0.35535234996E+02 -0.24888572190E+02 -0.47274014764E+03  0.47472670153E+03  0.00000000000E+00 0.  1.
        -15    1    1    2    0    0 -0.10101878872E+02  0.43466344502E+01  0.16930767508E+03  0.16967376862E+03  0.17770000000E+01 0.  1.
         15    1    1    2    0    0  0.32953098467E+01 -0.57534799281E+01  0.30563144478E+03  0.30570852027E+03  0.17770000000E+01 0. -1.
</event>
<event>
 6   1  0.3798113E-04  0.5010507E+03  0.7546771E-02  0.9397462E-01
        -11   -1    0    0    0    0  0.00000000000E+00  0.00000000000E+00  0.50000000000E+03  0.50000000000E+03  0.00000000000E+00 0. -1.
         11   -1    0    0    0    0 -0.00000000000E+00 -0.00000000000E+00 -0.50000000000E+03  0.50000000000E+03  0.00000000000E+00 0.  1.
        -11    1    1    2    0    0 -0.12025452422E+02 -0.64805800574E+01  0.38973844056E+03  0.38997777049E+03  0.00000000000E+00 0. -1.
         11    1    1    2    0    0  0.64805016592E+01  0.89819563417E+01 -0.49882633863E+03  0.49894928455E+03  0.00000000000E+00 0.  1.
        -15    1    1    2    0    0  0.11760548780E+02  0.23643155837E+01  0.50868681007E+02  0.52294176848E+02  0.17770000000E+01 0. -1.
         15    1    1    2    0    0 -0.62155980175E+01 -0.48656918679E+01  0.58219217065E+02  0.58778768112E+02  0.17770000000E+01 0.  1.
</event>
<event>
 6   1  0.3798113E-04  0.5005405E+03  0.7546771E-02  0.9398601E-01
        -11   -1    0    0    0    0  0.00000000000E+00  0.00000000000E+00  0.50000000000E+03  0.50000000000E+03  0.00000000000E+00 0. -1.
         11   -1    0    0    0    0 -0.00000000000E+00 -0.00000000000E+00 -0.50000000000E+03  0.50000000000E+03  0.00000000000E+00 0.  1.
        -11    1    1    2    0    0 -0.35734506053E+01 -0.80742956914E+01  0.49938146149E+03  0.49945951576E+03  0.00000000000E+00 0. -1.
         11    1    1    2    0    0  0.29427023969E+01  0.90390576652E+01 -0.47355971103E+03  0.47365511078E+03  0.00000000000E+00 0.  1.
        -15    1    1    2    0    0  0.18850789203E+01  0.23664213901E+01 -0.12002812213E+02  0.12505147050E+02  0.17770000000E+01 0. -1.
         15    1    1    2    0    0 -0.12543307120E+01 -0.33311833638E+01 -0.13818938252E+02  0.14380226408E+02  0.17770000000E+01 0. -1.
</event>
<event>
 6   1  0.3798113E-04  0.5023576E+03  0.7546771E-02  0.9394550E-01
        -11   -1    0    0    0    0  0.00000000000E+00  0.00000000000E+00  0.50000000000E+03  0.50000000000E+03  0.00000000000E+00 0. -1.
         11   -1    0    0    0    0 -0.00000000000E+00 -0.00000000000E+00 -0.50000000000E+03  0.50000000000E+03  0.00000000000E+00 0.  1.
        -11    1    1    2    0    0 -0.11704244997E+02  0.17858808606E+02  0.32851265345E+03  0.32920584726E+03  0.00000000000E+00 0. -1.
         11    1    1    2    0    0 -0.23824686276E+02 -0.10423181459E+02 -0.49696248690E+03  0.49764241356E+03  0.00000000000E+00 0.  1.
        -15    1    1    2    0    0 -0.11995106074E+00  0.16394099257E+01  0.22382614729E+02  0.22513134483E+02  0.17770000000E+01 0.  1.
         15    1    1    2    0    0  0.35648882334E+02 -0.90750370719E+01  0.14606721872E+03  0.15063860469E+03  0.17770000000E+01 0. -1.
</event>
<event>
 6   1  0.3798113E-04  0.5041814E+03  0.7546771E-02  0.9390502E-01
        -11   -1    0    0    0    0  0.00000000000E+00  0.00000000000E+00  0.50000000000E+03  0.50000000000E+03  0.00000000000E+00 0.  1.
         11   -1    0    0    0    0 -0.00000000000E+00 -0.00000000000E+00 -0.50000000000E+03  0.50000000000E+03  0.00000000000E+00 0.  1.
        -11    1    1    2    0    0  0.10906645987E+02 -0.10624950554E+02  0.45007490969E+03  0.45033239816E+03  0.00000000000E+00 0.  1.
         11    1    1    2    0    0 -0.10459923948E+02  0.24140353801E+02 -0.49512011702E+03  0.49581861297E+03  0.00000000000E+00 0.  1.
        -15    1    1    2    0    0 -0.88533913000E+01 -0.25158873371E+01  0.34736482871E+01  0.99968088921E+01  0.17770000000E+01 0. -1.
         15    1    1    2    0    0  0.84066692613E+01 -0.10999515910E+02  0.41571559046E+02  0.43852179978E+02  0.17770000000E+01 0.  1.
</event>
<event>
 6   1  0.3798113E-04  0.5001748E+03  0.7546771E-02  0.9399419E-01
        -11   -1    0    0    0    0  0.00000000000E+00  0.00000000000E+00  0.50000000000E+03  0.50000000000E+03  0.00000000000E+00 0.  1.
         11   -1    0    0    0    0 -0.00000000000E+00 -0.00000000000E+00 -0.50000000000E+03  0.50000000000E+03  0.00000000000E+00 0. -1.
        -11    1    1    2    0    0  0.32106874907E+02  0.60118784519E+02  0.49515663065E+03  0.49982517799E+03  0.00000000000E+00 0.  1.
         11    1    1    2    0    0 -0.27114588263E+02 -0.55127981215E+02 -0.41280456307E+03  0.41735105427E+03  0.00000000000E+00 0. -1.
        -15    1    1    2    0    0 -0.38104368449E+01 -0.17200022412E+01 -0.32051367021E+02  0.32371680425E+02  0.17770000000E+01 0.  1.
         15    1    1    2    0    0 -0.11818497991E+01 -0.32708010622E+01 -0.50300700565E+02  0.50452087319E+02  0.17770000000E+01 0.  1.
</event>
<event>
 6   1  0.3798113E-04  0.5003567E+03  0.7546771E-02  0.9399012E-01
        -11   -1    0    0    0    0  0.00000000000E+00  0.00000000000E+00  0.50000000000E+03  0.50000000000E+03  0.00000000000E+00 0. -1.
         11   -1    0    0    0    0 -0.00000000000E+00 -0.00000000000E+00 -0.50000000000E+03  0.50000000000E+03  0.00000000000E+00 0. -1.
        -11    1    1    2    0    0  0.74464060286E+01  0.48535765558E+01  0.49956422425E+03  0.49964329307E+03  0.00000000000E+00 0. -1.
         11    1    1    2    0    0  0.17634444430E+01  0.51354992379E+01 -0.36159994156E+03  0.36164070682E+03  0.00000000000E+00 0. -1.
        -15    1    1    2    0    0 -0.33755137702E+01 -0.22611327729E+01 -0.52375725110E+02  0.52563115627E+02  0.17770000000E+01 0.  1.
         15    1    1    2    0    0 -0.58343367013E+01 -0.77279430208E+01 -0.85588557573E+02  0.86152884481E+02  0.17770000000E+01 0. -1.
</event>
<event>
 6   1  0.3798113E-04  0.5006255E+03  0.7546771E-02  0.9398411E-01
        -11   -1    0    0    0    0  0.00000000000E+00  0.00000000000E+00  0.50000000000E+03  0.50000000000E+03  0.00000000000E+00 0. -1.
         11   -1    0    0    0    0 -0.00000000000E+00 -0.00000000000E+00 -0.50000000000E+03  0.50000000000E+03  0.00000000000E+00 0.  1.
        -11    1    1    2    0    0  0.17141136763E+02 -0.10109375924E+02  0.34395524986E+03  0.34453045143E+03  0.00000000000E+00 0. -1.
         11    1    1    2    0    0 -0.11749639476E+02  0.80620983554E+01 -0.49917115235E+03  0.49937449955E+03  0.00000000000E+00 0.  1.
        -15    1    1    2    0    0  0.34416139733E+01 -0.32217637000E+01  0.27837882042E+02  0.28290102044E+02  0.17770000000E+01 0.  1.
         15    1    1    2    0    0 -0.88331112607E+01  0.52690412686E+01  0.12737802045E+03  0.12780494698E+03  0.17770000000E+01 0. -1.
</event>
<event>
 6   1  0.3798113E-04  0.5000348E+03  0.7546771E-02  0.9399732E-01
        -11   -1    0    0    0    0  0.00000000000E+00  0.00000000000E+00  0.50000000000E+03  0.50000000000E+03  0.00000000000E+00 0.  1.
         11   -1    0    0    0    0 -0.00000000000E+00 -0.00000000000E+00 -0.50000000000E+03  0.50000000000E+03  0.00000000000E+00 0. -1.
        -11    1    1    2    0    0 -0.59863101963E+00 -0.16338433206E+01  0.72863079249E+02  0.72883853636E+02  0.00000000000E+00 0.  1.
         11    1    1    2    0    0 -0.68009537363E+01 -0.16034668693E+01 -0.49991635346E+03  0.49996518332E+03  0.00000000000E+00 0. -1.
        -15    1    1    2    0    0  0.30276273942E+01  0.25901317346E+01  0.21349873415E+03  0.21354330362E+03  0.17770000000E+01 0. -1.
         15    1    1    2    0    0  0.43719573617E+01  0.64717845520E+00  0.21355454007E+03  0.21360765942E+03  0.17770000000E+01 0.  1.
</event>
<event>
 6   1  0.3798113E-04  0.5008622E+03  0.7546771E-02  0.9397882E-01
        -11   -1    0    0    0    0  0.00000000000E+00  0.00000000000E+00  0.50000000000E+03  0.50000000000E+03  0.00000000000E+00 0.  1.
         11   -1    0    0    0    0 -0.00000000000E+00 -0.00000000000E+00 -0.50000000000E+03  0.50000000000E+03  0.00000000000E+00 0. -1.
        -11    1    1    2    0    0 -0.75074553036E+01  0.10421123805E+02  0.49897249338E+03  0.49913776741E+03  0.00000000000E+00 0.  1.
         11    1    1    2    0    0  0.76212130044E+01  0.57677274230E+01 -0.40710037629E+03  0.40721255622E+03  0.00000000000E+00 0. -1.
        -15    1    1    2    0    0  0.10913382318E+01 -0.10016336552E+02 -0.36956563798E+02  0.38346621152E+02  0.17770000000E+01 0.  1.
         15    1    1    2    0    0 -0.12050959326E+01 -0.61725146760E+01 -0.54915553292E+02  0.55303055214E+02  0.17770000000E+01 0. -1.
</event>
<event>
 6   1  0.3798113E-04  0.5002588E+03  0.7546771E-02  0.9399231E-01
        -11   -1    0    0    0    0  0.00000000000E+00  0.00000000000E+00  0.50000000000E+03  0.50000000000E+03  0.00000000000E+00 0.  1.
         11   -1    0    0    0    0 -0.00000000000E+00 -0.00000000000E+00 -0.50000000000E+03  0.50000000000E+03  0.00000000000E+00 0.  1.
        -11    1    1    2    0    0  0.40501707316E+02  0.45649922107E+01  0.49807635082E+03  0.49974121173E+03  0.00000000000E+00 0.  1.
         11    1    1    2    0    0 -0.37399888994E+02 -0.17434084470E+01 -0.38734485010E+03  0.38915013050E+03  0.00000000000E+00 0.  1.
        -15    1    1    2    0    0 -0.74400441915E+00  0.77113530631E+00 -0.77735681100E+01  0.80457617661E+01  0.17770000000E+01 0.  1.
         15    1    1    2    0    0 -0.23578139033E+01 -0.35927190700E+01 -0.10295793261E+03  0.10306289601E+03  0.17770000000E+01 0.  1.
</event>
<event>
 6   1  0.3798113E-04  0.5080609E+03  0.7546771E-02  0.9381951E-01
        -11   -1    0    0    0    0  0.00000000000E+00  0.00000000000E+00  0.50000000000E+03  0.50000000000E+03  0.00000000000E+00 0.  1.
         11   -1    0    0    0    0 -0.00000000000E+00 -0.00000000000E+00 -0.50000000000E+03  0.50000000000E+03  0.00000000000E+00 0.  1.
        -11    1    1    2    0    0 -0.73921638119E+01 -0.21908272718E+02  0.49139538298E+03  0.49193906016E+03  0.00000000000E+00 0.  1.
         11    1    1    2    0    0  0.74151300729E+01 -0.19698068706E+01 -0.46686211013E+03  0.46692514835E+03  0.00000000000E+00 0.  1.
        -15    1    1    2    0    0  0.34589763847E+01  0.27317252714E+02 -0.18785500189E+02  0.33380376868E+02  0.17770000000E+01 0.  1.
         15    1    1    2    0    0 -0.34819426457E+01 -0.34391731259E+01 -0.57477726586E+01  0.77554146190E+01  0.17770000000E+01 0. -1.
</event>
<event>
 6   1  0.3798113E-04  0.5050690E+03  0.7546771E-02  0.9388538E-01
        -11   -1    0    0    0    0  0.00000000000E+00  0.00000000000E+00  0.50000000000E+03  0.50000000000E+03  0.00000000000E+00 0. -1.
         11   -1    0    0    0    0 -0.00000000000E+00 -0.00000000000E+00 -0.50000000000E+03  0.50000000000E+03  0.00000000000E+00 0. -1.
        -11    1    1    2    0    0 -0.10619670762E+02  0.27380383918E+02  0.49405891957E+03  0.49493098391E+03  0.00000000000E+00 0. -1.
         11    1    1    2    0    0 -0.90511068078E+01 -0.30198250799E+01 -0.42833286983E+03  0.42843913133E+03  0.00000000000E+00 0. -1.
        -15    1    1    2    0    0  0.81707903144E+01 -0.30694808524E-01 -0.40001630394E+01  0.92694007290E+01  0.17770000000E+01 0.  1.
         15    1    1    2    0    0  0.11499987256E+02 -0.24329864029E+02 -0.61725886702E+02  0.67360484030E+02  0.17770000000E+01 0. -1.
</event>
<event>
 6   1  0.3798113E-04  0.5032945E+03  0.7546771E-02  0.9392468E-01
        -11   -1    0    0    0    0  0.00000000000E+00  0.00000000000E+00  0.50000000000E+03  0.50000000000E+03  0.00000000000E+00 0. -1.
         11   -1    0    0    0    0 -0.00000000000E+00 -0.00000000000E+00 -0.50000000000E+03  0.50000000000E+03  0.00000000000E+00 0.  1.
        -11    1    1    2    0    0  0.23928258629E+00  0.10106385889E+02  0.49660258776E+03  0.49670547256E+03  0.00000000000E+00 0. -1.
         11    1    1    2    0    0 -0.48115092532E+01  0.63640343236E+01 -0.47451354108E+03  0.47458060666E+03  0.00000000000E+00 0.  1.
        -15    1    1    2    0    0  0.33705402631E+01 -0.98723893982E+01 -0.89663373650E+01  0.13870023390E+02  0.17770000000E+01 0. -1.
         15    1    1    2    0    0  0.12016864038E+01 -0.65980308147E+01 -0.13122709324E+02  0.14843897394E+02  0.17770000000E+01 0.  1.
</event>
<event>
 6   1  0.3798113E-04  0.5001511E+03  0.7546771E-02  0.9399472E-01
        -11   -1    0    0    0    0  0.00000000000E+00  0.00000000000E+00  0.50000000000E+03  0.50000000000E+03  0.00000000000E+00 0.  1.
         11   -1    0    0    0    0 -0.00000000000E+00 -0.00000000000E+00 -0.50000000000E+03  0.50000000000E+03  0.00000000000E+00 0.  1.
        -11    1    1    2    0    0  0.33207158711E+01  0.86165683239E+01  0.21814058839E+03  0.21833595377E+03  0.00000000000E+00 0.  1.
         11    1    1    2    0    0 -0.19877112600E+01 -0.91936923106E+01 -0.49976034732E+03  0.49984885689E+03  0.00000000000E+00 0.  1.
        -15    1    1    2    0    0  0.30427580531E+01 -0.83348224065E+00  0.45451417170E+02  0.45595417763E+02  0.17770000000E+01 0. -1.
         15    1    1    2    0    0 -0.43757626643E+01  0.14106062274E+01  0.23616834176E+03  0.23621977158E+03  0.17770000000E+01 0.  1.
</event>
<event>
 6   1  0.3798113E-04  0.4923224E+03  0.7546771E-02  0.9417155E-01
        -11   -1    0    0    0    0  0.00000000000E+00  0.00000000000E+00  0.50000000000E+03  0.50000000000E+03  0.00000000000E+00 0.  1.
         11   -1    0    0    0    0 -0.00000000000E+00 -0.00000000000E+00 -0.50000000000E+03  0.50000000000E+03  0.00000000000E+00 0. -1.
        -11    1    1    2    0    0  0.58833258224E+01 -0.53212110539E+01  0.48896789171E+03  0.48903223609E+03  0.00000000000E+00 0.  1.
         11    1    1    2    0    0 -0.31460111048E+01 -0.60637816166E+01 -0.49565777430E+03  0.49570484772E+03  0.00000000000E+00 0. -1.
        -15    1    1    2    0    0 -0.20639015759E+01  0.97633875840E+01  0.75302582963E+01  0.12627190734E+02  0.17770000000E+01 0. -1.
         15    1    1    2    0    0 -0.67341314169E+00  0.16216050866E+01 -0.84037571332E+00  0.26357254515E+01  0.17770000000E+01 0.  1.
</event>
<event>
 6   1  0.3798113E-04  0.5148392E+03  0.7546771E-02  0.9367205E-01
        -11   -1    0    0    0    0  0.00000000000E+00  0.00000000000E+00  0.50000000000E+03  0.50000000000E+03  0.00000000000E+00 0. -1.
         11   -1    0    0    0    0 -0.00000000000E+00 -0.00000000000E+00 -0.50000000000E+03  0.50000000000E+03  0.00000000000E+00 0. -1.
        -11    1    1    2    0    0  0.10171816100E+02 -0.32599868971E+02  0.48395746072E+03  0.48516084043E+03  0.00000000000E+00 0. -1.
         11    1    1    2    0    0 -0.79452683569E+01 -0.30693109592E+01 -0.40757071646E+03  0.40765970720E+03  0.00000000000E+00 0. -1.
        -15    1    1    2    0    0 -0.16522780281E+01  0.29470237016E+02  0.93733665262E+00  0.29584814035E+02  0.17770000000E+01 0.  1.
         15    1    1    2    0    0 -0.57426971507E+00  0.61989429138E+01 -0.77324080921E+02  0.77594638334E+02  0.17770000000E+01 0. -1.
</event>
<event>
 6   1  0.3798113E-04  0.5020455E+03  0.7546771E-02  0.9395244E-01
        -11   -1    0    0    0    0  0.00000000000E+00  0.00000000000E+00  0.50000000000E+03  0.50000000000E+03  0.00000000000E+00 0.  1.
         11   -1    0    0    0    0 -0.00000000000E+00 -0.00000000000E+00 -0.50000000000E+03  0.50000000000E+03  0.00000000000E+00 0.  1.
        -11    1    1    2    0    0  0.94828577846E+01  0.20952025167E+01  0.49785983909E+03  0.49795454998E+03  0.00000000000E+00 0.  1.
         11    1    1    2    0    0  0.78641879459E+00  0.12143926129E+02 -0.35887558594E+03  0.35908185638E+03  0.00000000000E+00 0.  1.
        -15    1    1    2    0    0 -0.14057347827E+02 -0.15743274955E+01 -0.11156598891E+03  0.11247317522E+03  0.17770000000E+01 0. -1.
         15    1    1    2    0    0  0.37880712475E+01 -0.12664801150E+02 -0.27418264250E+02  0.30490418420E+02  0.17770000000E+01 0.  1.
</event>
<event>
 6   1  0.3798113E-04  0.4846020E+03  0.7546771E-02  0.9434939E-01
        -11   -1    0    0    0    0  0.00000000000E+00  0.00000000000E+00  0.50000000000E+03  0.50000000000E+03  0.00000000000E+00 0. -1.
         11   -1    0    0    0    0 -0.00000000000E+00 -0.00000000000E+00 -0.50000000000E+03  0.50000000000E+03  0.00000000000E+00 0.  1.
        -11    1    1    2    0    0  0.17084362674E+02  0.61502300957E+02  0.49436858510E+03  0.49847237276E+03  0.00000000000E+00 0. -1.
         11    1    1    2    0    0  0.46586516755E+00  0.11874505109E+01 -0.32700076621E+02  0.32724945838E+02  0.00000000000E+00 0.  1.
        -15    1    1    2    0    0  0.96974026335E+01 -0.48879667730E+01 -0.16291642397E+03  0.16328763200E+03  0.17770000000E+01 0. -1.
         15    1    1    2    0    0 -0.27247630475E+02 -0.57801784695E+02 -0.29875208451E+03  0.30551504940E+03  0.17770000000E+01 0.  1.
</event>
<event>
 6   1  0.3798113E-04  0.4869932E+03  0.7546771E-02  0.9429393E-01
        -11   -1    0    0    0    0  0.00000000000E+00  0.00000000000E+00  0.50000000000E+03  0.50000000000E+03  0.00000000000E+00 0. -1.
         11   -1    0    0    0    0 -0.00000000000E+00 -0.00000000000E+00 -0.50000000000E+03  0.50000000000E+03  0.00000000000E+00 0. -1.
        -11    1    1    2    0    0 -0.16560295327E+02 -0.15155742308E+02  0.48607597678E+03  0.48659407632E+03  0.00000000000E+00 0. -1.
         11    1    1    2    0    0 -0.47841152683E+01  0.71308213831E+01 -0.48758476392E+03  0.48766037196E+03  0.00000000000E+00 0. -1.
        -15    1    1    2    0    0  0.20948085349E+00 -0.16086760310E+01  0.10244812368E+00  0.24083075839E+01  0.17770000000E+01 0. -1.
         15    1    1    2    0    0  0.21134929742E+02  0.96335969555E+01  0.14063390107E+01  0.23337244137E+02  0.17770000000E+01 0.  1.
</event>
<event>
 6   1  0.3798113E-04  0.5023873E+03  0.7546771E-02  0.9394484E-01
        -11   -1    0    0    0    0  0.00000000000E+00  0.00000000000E+00  0.50000000000E+03  0.50000000000E+03  0.00000000000E+00 0. -1.
         11   -1    0    0    0    0 -0.00000000000E+00 -0.00000000000E+00 -0.50000000000E+03  0.50000000000E+03  0.00000000000E+00 0.  1.
        -11    1    1    2    0    0  0.54519380630E+02  0.11008324039E+03  0.48221125231E+03  0.49761267521E+03  0.00000000000E+00 0. -1.
         11    1    1    2    0    0  0.24587853472E+01  0.14975972586E+01 -0.74767302580E+02  0.74822710176E+02  0.00000000000E+00 0.  1.
        -15    1    1    2    0    0 -0.73423196681E+01 -0.66447590469E+01 -0.13292316059E+02  0.16670509174E+02  0.17770000000E+01 0. -1.
         15    1    1    2    0    0 -0.49635846309E+02 -0.10493607860E+03 -0.39415163367E+03  0.41089410544E+03  0.17770000000E+01 0.  1.
</event>
<event>
 6   1  0.3798113E-04  0.5065311E+03  0.7546771E-02  0.9385313E-01
        -11   -1    0    0    0    0  0.00000000000E+00  0.00000000000E+00  0.50000000000E+03  0.50000000000E+03  0.00000000000E+00 0.  1.
         11   -1    0    0    0    0 -0.00000000000E+00 -0.00000000000E+00 -0.50000000000E+03  0.50000000000E+03  0.00000000000E+00 0. -1.
        -11    1    1    2    0    0  0.11479811527E+02  0.82404438469E+01  0.49326651495E+03  0.49346889036E+03  0.00000000000E+00 0.  1.
         11    1    1    2    0    0 -0.37965347456E+01  0.12149417942E+02 -0.47816903494E+03  0.47833842414E+03  0.00000000000E+00 0. -1.
        -15    1    1    2    0    0 -0.75466102201E+01 -0.17079962260E+02 -0.84867347361E+01  0.20587832137E+02  0.17770000000E+01 0. -1.
         15    1    1    2    0    0 -0.13666656139E+00 -0.33098995290E+01 -0.66107452697E+01  0.76048533623E+01  0.17770000000E+01 0.  1.
</event>
<event>
 6   1  0.3798113E-04  0.5005840E+03  0.7546771E-02  0.9398504E-01
        -11   -1    0    0    0    0  0.00000000000E+00  0.00000000000E+00  0.50000000000E+03  0.50000000000E+03  0.00000000000E+00 0.  1.
         11   -1    0    0    0    0 -0.00000000000E+00 -0.00000000000E+00 -0.50000000000E+03  0.50000000000E+03  0.00000000000E+00 0. -1.
        -11    1    1    2    0    0  0.62531696454E+00  0.12485207005E+02  0.48426089647E+03  0.48442222004E+03  0.00000000000E+00 0.  1.
         11    1    1    2    0    0  0.34203606506E+01 -0.13261752789E+02 -0.49922815122E+03  0.49941597884E+03  0.00000000000E+00 0. -1.
        -15    1    1    2    0    0 -0.33258635983E+01  0.60662961992E+00  0.12252301415E+02  0.12833783041E+02  0.17770000000E+01 0. -1.
         15    1    1    2    0    0 -0.71981401685E+00  0.16991616453E+00  0.27149533315E+01  0.33280180759E+01  0.17770000000E+01 0. -1.
</event>
<event>
 6   1  0.3798113E-04  0.5043316E+03  0.7546771E-02  0.9390169E-01
        -11   -1    0    0    0    0  0.00000000000E+00  0.00000000000E+00  0.50000000000E+03  0.50000000000E+03  0.00000000000E+00 0.  1.
         11   -1    0    0    0    0 -0.00000000000E+00 -0.00000000000E+00 -0.50000000000E+03  0.50000000000E+03  0.00000000000E+00 0.  1.
        -11    1    1    2    0    0  0.12733059355E+01 -0.89340059651E+01  0.49558624034E+03  0.49566839659E+03  0.00000000000E+00 0.  1.
         11    1    1    2    0    0  0.53801306376E+01 -0.39677667231E+01 -0.48491606238E+03  0.48496213927E+03  0.00000000000E+00 0.  1.
        -15    1    1    2    0    0 -0.20555852950E+01  0.14414778928E+01 -0.19955311420E+00  0.30823432427E+01  0.17770000000E+01 0.  1.
         15    1    1    2    0    0 -0.45978512781E+01  0.11460294795E+02 -0.10470624847E+02  0.16287120889E+02  0.17770000000E+01 0. -1.
</event>
<event>
 6   1  0.3798113E-04  0.4913503E+03  0.7546771E-02  0.9419375E-01
        -11   -1    0    0    0    0  0.00000000000E+00  0.00000000000E+00  0.50000000000E+03  0.50000000000E+03  0.00000000000E+00 0. -1.
         11   -1    0    0    0    0 -0.00000000000E+00 -0.00000000000E+00 -0.50000000000E+03  0.50000000000E+03  0.00000000000E+00 0.  1.
        -11    1    1    2    0    0  0.60572523056E+01  0.15698165441E+02 -0.35142016484E+01  0.17189308216E+02  0.00000000000E+00 0. -1.
         11    1    1    2    0    0 -0.23779810148E+02 -0.17697371467E+02 -0.48901798341E+03  0.48991556867E+03  0.00000000000E+00 0.  1.
        -15    1    1    2    0    0  0.42795505603E+01 -0.11823603861E+01  0.15981195135E+03  0.15988348899E+03  0.17770000000E+01 0. -1.
         15    1    1    2    0    0  0.13443007282E+02  0.31815664121E+01  0.33272023371E+03  0.33301163412E+03  0.17770000000E+01 0. -1.
</event>
<event>
 6   1  0.3798113E-04  0.5001429E+03  0.7546771E-02  0.9399490E-01
        -11   -1    0    0    0    0  0.00000000000E+00  0.00000000000E+00  0.50000000000E+03  0.50000000000E+03  0.00000000000E+00 0. -1.
         11   -1    0    0    0    0 -0.00000000000E+00 -0.00000000000E+00 -0.50000000000E+03  0.50000000000E+03  0.00000000000E+00 0. -1.
        -11    1    1    2    0    0 -0.13601878703E+02 -0.25161295539E+00  0.20757358086E+03  0.20801890751E+03  0.00000000000E+00 0. -1.
         11    1    1    2    0    0  0.14224858134E+02  0.32172795647E+01 -0.49964430069E+03  0.49985710427E+03  0.00000000000E+00 0. -1.
        -15    1    1    2    0    0  0.84129288197E+00 -0.22889801349E+01  0.19636479252E+03  0.19638797487E+03  0.17770000000E+01 0. -1.
         15    1    1    2    0    0 -0.14642723126E+01 -0.67668647436E+00  0.95705927314E+02  0.95736013339E+02  0.17770000000E+01 0. -1.
</event>
<event>
 6   1  0.3798113E-04  0.5003783E+03  0.7546771E-02  0.9398964E-01
        -11   -1    0    0    0    0  0.00000000000E+00  0.00000000000E+00  0.50000000000E+03  0.50000000000E+03  0.00000000000E+00 0.  1.
         11   -1    0    0    0    0 -0.00000000000E+00 -0.00000000000E+00 -0.50000000000E+03  0.50000000000E+03  0.00000000000E+00 0. -1.
        -11    1    1    2    0    0  0.86394518550E+00  0.91814118352E+01  0.49953661267E+03  0.49962172903E+03  0.00000000000E+00 0.  1.
         11    1    1    2    0    0 -0.45117911542E+01  0.33642896148E+01 -0.34372944533E+03  0.34377551730E+03  0.00000000000E+00 0. -1.
        -15    1    1    2    0    0 -0.24804138723E+01 -0.52562297186E+01 -0.59723654458E+02  0.60032100035E+02  0.17770000000E+01 0.  1.
         15    1    1    2    0    0  0.61282598411E+01 -0.72894717313E+01 -0.96083512878E+02  0.96570653632E+02  0.17770000000E+01 0. -1.
</event>
<event>
 6   1  0.3798113E-04  0.5008085E+03  0.7546771E-02  0.9398003E-01
        -11   -1    0    0    0    0  0.00000000000E+00  0.00000000000E+00  0.50000000000E+03  0.50000000000E+03  0.00000000000E+00 0. -1.
         11   -1    0    0    0    0 -0.00000000000E+00 -0.00000000000E+00 -0.50000000000E+03  0.50000000000E+03  0.00000000000E+00 0.  1.
        -11    1    1    2    0    0 -0.70302121608E+01  0.28212866825E+01  0.37535447272E+03  0.37543090407E+03  0.00000000000E+00 0. -1.
         11    1    1    2    0    0  0.83268388338E+01 -0.24159412909E+01 -0.49911624388E+03  0.49919154432E+03  0.00000000000E+00 0.  1.
        -15    1    1    2    0    0  0.75277919799E+01 -0.53094089712E+01  0.46340858205E+02  0.47280972324E+02  0.17770000000E+01 0.  1.
         15    1    1    2    0    0 -0.88244186529E+01  0.49040635796E+01  0.77420912957E+02  0.78096579286E+02  0.17770000000E+01 0.  1.
</event>
<event>
 6   1  0.3798113E-04  0.5050586E+03  0.7546771E-02  0.9388561E-01
        -11   -1    0    0    0    0  0.00000000000E+00  0.00000000000E+00  0.50000000000E+03  0.50000000000E+03  0.00000000000E+00 0. -1.
         11   -1    0    0    0    0 -0.00000000000E+00 -0.00000000000E+00 -0.50000000000E+03  0.50000000000E+03  0.00000000000E+00 0.  1.
        -11    1    1    2    0    0  0.23816009951E+02  0.12140750485E+02  0.43055193868E+03  0.43138100567E+03  0.00000000000E+00 0. -1.
         11    1    1    2    0    0  0.77073804733E+01  0.16869387621E+01 -0.49487848583E+03  0.49494137553E+03  0.00000000000E+00 0.  1.
        -15    1    1    2    0    0 -0.27583652905E+02 -0.14949483088E+02  0.55225023086E+02  0.63539797419E+02  0.17770000000E+01 0. -1.
         15    1    1    2    0    0 -0.39397375197E+01  0.11217938404E+01  0.91015240652E+01  0.10137821386E+02  0.17770000000E+01 0.  1.
</event>
<event>
 6   1  0.3798113E-04  0.5018570E+03  0.7546771E-02  0.9395664E-01
        -11   -1    0    0    0    0  0.00000000000E+00  0.00000000000E+00  0.50000000000E+03  0.50000000000E+03  0.00000000000E+00 0. -1.
         11   -1    0    0    0    0 -0.00000000000E+00 -0.00000000000E+00 -0.50000000000E+03  0.50000000000E+03  0.00000000000E+00 0.  1.
        -11    1    1    2    0    0  0.30206027324E+01  0.14580008943E+02  0.43204265815E+03  0.43229915471E+03  0.00000000000E+00 0. -1.
         11    1    1    2    0    0  0.97864000278E+01  0.19692498291E+01 -0.49804293756E+03  0.49814297066E+03  0.00000000000E+00 0.  1.
        -15    1    1    2    0    0 -0.96325302428E+01 -0.10023981224E+02  0.35758271702E+02  0.38406738504E+02  0.17770000000E+01 0. -1.
         15    1    1    2    0    0 -0.31744725174E+01 -0.65252775488E+01  0.30242007707E+02  0.31151136127E+02  0.17770000000E+01 0.  1.
</event>
<event>
 6   1  0.3798113E-04  0.4938655E+03  0.7546771E-02  0.9413642E-01
        -11   -1    0    0    0    0  0.00000000000E+00  0.00000000000E+00  0.50000000000E+03  0.50000000000E+03  0.00000000000E+00 0. -1.
         11   -1    0    0    0    0 -0.00000000000E+00 -0.00000000000E+00 -0.50000000000E+03  0.50000000000E+03  0.00000000000E+00 0.  1.
        -11    1    1    2    0    0  0.12887434970E+02  0.10293132859E+01 -0.31582042671E+01  0.13308633293E+02  0.00000000000E+00 0. -1.
         11    1    1    2    0    0 -0.83566855920E+01 -0.48611419903E+01 -0.49113834999E+03  0.49123349207E+03  0.00000000000E+00 0.  1.
        -15    1    1    2    0    0 -0.70844555618E+01 -0.80841626854E+01  0.42047262584E+03  0.42061375394E+03  0.17770000000E+01 0.  1.
         15    1    1    2    0    0  0.25537061842E+01  0.11915991390E+02  0.73823928420E+02  0.74844120694E+02  0.17770000000E+01 0. -1.
</event>
<event>
 6   1  0.3798113E-04  0.5037664E+03  0.7546771E-02  0.9391421E-01
        -11   -1    0    0    0    0  0.00000000000E+00  0.00000000000E+00  0.50000000000E+03  0.50000000000E+03  0.00000000000E+00 0. -1.
         11   -1    0    0    0    0 -0.00000000000E+00 -0.00000000000E+00 -0.50000000000E+03  0.50000000000E+03  0.00000000000E+00 0.  1.
        -11    1    1    2    0    0  0.17216239696E+02  0.23746169863E+02  0.49536604574E+03  0.49623361310E+03  0.00000000000E+00 0. -1.
         11    1    1    2    0    0  0.67304539653E+01  0.27573099953E+01 -0.33742423887E+03  0.33750262036E+03  0.00000000000E+00 0.  1.
        -15    1    1    2    0    0 -0.65450141373E+01 -0.38483327019E+00 -0.10094332204E+03  0.10117162300E+03  0.17770000000E+01 0. -1.
         15    1    1    2    0    0 -0.17401679524E+02 -0.26118646588E+02 -0.56998484830E+02  0.65092143548E+02  0.17770000000E+01 0.  1.
</event>
<event>
 6   1  0.3798113E-04  0.5005078E+03  0.7546771E-02  0.9398674E-01
        -11   -1    0    0    0    0  0.00000000000E+00  0.00000000000E+00  0.50000000000E+03  0.50000000000E+03  0.00000000000E+00 0. -1.
         11   -1    0    0    0    0 -0.00000000000E+00 -0.00000000000E+00 -0.50000000000E+03  0.50000000000E+03  0.00000000000E+00 0. -1.
        -11    1    1    2    0    0  0.45841772228E+00  0.10334270615E+02  0.44649751390E+03  0.44661732749E+03  0.00000000000E+00 0. -1.
         11    1    1    2    0    0 -0.36153011309E+01 -0.97586217341E+01 -0.49938372737E+03  0.49949215035E+03  0.00000000000E+00 0. -1.
        -15    1    1    2    0    0 -0.16785041640E+01 -0.26675685516E+01  0.97915338713E+01  0.10438637974E+02  0.17770000000E+01 0.  1.
         15    1    1    2    0    0  0.48353875726E+01  0.20919196707E+01  0.43094679593E+02  0.43451884184E+02  0.17770000000E+01 0.  1.
</event>
<event>
 6   1  0.3798113E-04  0.4848823E+03  0.7546771E-02  0.9434287E-01
        -11   -1    0    0    0    0  0.00000000000E+00  0.00000000000E+00  0.50000000000E+03  0.50000000000E+03  0.00000000000E+00 0.  1.
         11   -1    0    0    0    0 -0.00000000000E+00 -0.00000000000E+00 -0.50000000000E+03  0.50000000000E+03  0.00000000000E+00 0. -1.
        -11    1    1    2    0    0  0.10986541155E+02 -0.76553423736E+01  0.49035193025E+03  0.49053473257E+03  0.00000000000E+00 0.  1.
         11    1    1    2    0    0  0.11963014921E+02  0.25314546140E+00 -0.47944174398E+03  0.47959103794E+03  0.00000000000E+00 0. -1.
        -15    1    1    2    0    0 -0.21465992504E+02  0.79460801526E+01 -0.49900970403E+01  0.23494421071E+02  0.17770000000E+01 0.  1.
         15    1    1    2    0    0 -0.14835635719E+01 -0.54388324038E+00 -0.59200892378E+01  0.63798084168E+01  0.17770000000E+01 0. -1.
</event>
<event>
 6   1  0.3798113E-04  0.5020854E+03  0.7546771E-02  0.9395155E-01
        -11   -1    0    0    0    0  0.00000000000E+00  0.00000000000E+00  0.50000000000E+03  0.50000000000E+03  0.00000000000E+00 0.  1.
         11   -1    0    0    0    0 -0.00000000000E+00 -0.00000000000E+00 -0.50000000000E+03  0.50000000000E+03  0.00000000000E+00 0. -1.
        -11    1    1    2    0    0  0.36122816189E+02 -0.12405785449E+02  0.49644753609E+03  0.49791456843E+03  0.00000000000E+00 0.  1.
         11    1    1    2    0    0 -0.55159623562E+01 -0.42309449035E+00 -0.30662720338E+03  0.30667710496E+03  0.00000000000E+00 0. -1.
        -15    1    1    2    0    0 -0.21530972030E+02  0.77237406847E+01 -0.48067035501E+02  0.53261961639E+02  0.17770000000E+01 0. -1.
         15    1    1    2    0    0 -0.90758818031E+01  0.51051392547E+01 -0.14175329721E+03  0.14214636498E+03  0.17770000000E+01 0.  1.
</event>
<event>
 6   1  0.3798113E-04  0.5012598E+03  0.7546771E-02  0.9396995E-01
        -11   -1    0    0    0    0  0.00000000000E+00  0.00000000000E+00  0.50000000000E+03  0.50000000000E+03  0.00000000000E+00 0.  1.
         11   -1    0    0    0    0 -0.00000000000E+00 -0.00000000000E+00 -0.50000000000E+03  0.50000000000E+03  0.00000000000E+00 0.  1.
        -11    1    1    2    0    0 -0.74996671431E+01 -0.95634454591E+01  0.29628418820E+02  0.32024173651E+02  0.00000000000E+00 0.  1.
         11    1    1    2    0    0  0.54539074925E+01  0.94655079583E+01 -0.49862057819E+03  0.49874023494E+03  0.00000000000E+00 0.  1.
        -15    1    1    2    0    0  0.51174229646E+01  0.33679028975E+01  0.40897905670E+03  0.40902879768E+03  0.17770000000E+01 0.  1.
         15    1    1    2    0    0 -0.30716633140E+01 -0.32699653967E+01  0.60013102674E+02  0.60206793726E+02  0.17770000000E+01 0. -1.
</event>
<event>
 6   1  0.3798113E-04  0.3551460E+03  0.7546771E-02  0.9799083E-01
        -11   -1    0    0    0    0  0.00000000000E+00  0.00000000000E+00  0.50000000000E+03  0.50000000000E+03  0.00000000000E+00 0. -1.
         11   -1    0    0    0    0 -0.00000000000E+00 -0.00000000000E+00 -0.50000000000E+03  0.50000000000E+03  0.00000000000E+00 0.  1.
        -11    1    1    2    0    0 -0.19209259394E+03 -0.28626052074E+02  0.32822044666E+03  0.38137603112E+03  0.00000000000E+00 0. -1.
         11    1    1    2    0    0  0.33730803839E+02  0.13680303554E+02 -0.34478133256E+03  0.34669739704E+03  0.00000000000E+00 0.  1.
        -15    1    1    2    0    0  0.13720410029E+03  0.26702106746E+02  0.10842546154E+03  0.17691016387E+03  0.17770000000E+01 0. -1.
         15    1    1    2    0    0  0.21157689816E+02 -0.11756358226E+02 -0.91864575645E+02  0.95016407976E+02  0.17770000000E+01 0.  1.
</event>
<event>
 6   1  0.3798113E-04  0.5005366E+03  0.7546771E-02  0.9398610E-01
        -11   -1    0    0    0    0  0.00000000000E+00  0.00000000000E+00  0.50000000000E+03  0.50000000000E+03  0.00000000000E+00 0. -1.
         11   -1    0    0    0    0 -0.00000000000E+00 -0.00000000000E+00 -0.50000000000E+03  0.50000000000E+03  0.00000000000E+00 0.  1.
        -11    1    1    2    0    0 -0.57231750235E+01  0.13346042368E+02  0.91857519005E+02  0.92998254698E+02  0.00000000000E+00 0. -1.
         11    1    1    2    0    0  0.25518387356E+02 -0.15214908778E+02 -0.49857903052E+03  0.49946344332E+03  0.00000000000E+00 0.  1.
        -15    1    1    2    0    0 -0.96798833942E+01  0.64580343586E+01  0.29887494307E+03  0.29910666271E+03  0.17770000000E+01 0.  1.
         15    1    1    2    0    0 -0.10115328938E+02 -0.45891679489E+01  0.10784656844E+03  0.10843163927E+03  0.17770000000E+01 0. -1.
</event>
<event>
 6   1  0.3798113E-04  0.5025432E+03  0.7546771E-02  0.9394137E-01
        -11   -1    0    0    0    0  0.00000000000E+00  0.00000000000E+00  0.50000000000E+03  0.50000000000E+03  0.00000000000E+00 0. -1.
         11   -1    0    0    0    0 -0.00000000000E+00 -0.00000000000E+00 -0.50000000000E+03  0.50000000000E+03  0.00000000000E+00 0.  1.
        -11    1    1    2    0    0  0.55906462103E+01 -0.40311086352E+01  0.46840063149E+03  0.46845133871E+03  0.00000000000E+00 0. -1.
         11    1    1    2    0    0  0.37316109852E+01 -0.73540986267E+01 -0.49738841986E+03  0.49745677993E+03  0.00000000000E+00 0.  1.
        -15    1    1    2    0    0 -0.49820388520E+01  0.54215974679E+01  0.53685248870E+01  0.92840303042E+01  0.17770000000E+01 0.  1.
         15    1    1    2    0    0 -0.43402183435E+01  0.59636097940E+01  0.23619263486E+02  0.24807851048E+02  0.17770000000E+01 0. -1.
</event>
<event>
 6   1  0.3798113E-04  0.5024759E+03  0.7546771E-02  0.9394287E-01
        -11   -1    0    0    0    0  0.00000000000E+00  0.00000000000E+00  0.50000000000E+03  0.50000000000E+03  0.00000000000E+00 0.  1.
         11   -1    0    0    0    0 -0.00000000000E+00 -0.00000000000E+00 -0.50000000000E+03  0.50000000000E+03  0.00000000000E+00 0.  1.
        -11    1    1    2    0    0  0.37766340815E+02 -0.38126383051E+01  0.49607395031E+03  0.49752406664E+03  0.00000000000E+00 0.  1.
         11    1    1    2    0    0  0.25940611263E+01  0.36047269141E+01 -0.29424267290E+03  0.29427618620E+03  0.00000000000E+00 0.  1.
        -15    1    1    2    0    0 -0.51194922873E+01  0.79637211549E+01 -0.14442861729E+02  0.17360415889E+02  0.17770000000E+01 0.  1.
         15    1    1    2    0    0 -0.35240909654E+02 -0.77558097640E+01 -0.18738841568E+03  0.19083933127E+03  0.17770000000E+01 0. -1.
</event>
<event>
 6   1  0.3798113E-04  0.4806112E+03  0.7546771E-02  0.9444270E-01
        -11   -1    0    0    0    0  0.00000000000E+00  0.00000000000E+00  0.50000000000E+03  0.50000000000E+03  0.00000000000E+00 0.  1.
         11   -1    0    0    0    0 -0.00000000000E+00 -0.00000000000E+00 -0.50000000000E+03  0.50000000000E+03  0.00000000000E+00 0.  1.
        -11    1    1    2    0    0 -0.31448519498E+02  0.91716938784E+01  0.48840283276E+03  0.48950021083E+03  0.00000000000E+00 0.  1.
         11    1    1    2    0    0  0.53747068629E+01  0.38254648255E+01 -0.47225312642E+03  0.47229920291E+03  0.00000000000E+00 0.  1.
        -15    1    1    2    0    0  0.13122148153E+02 -0.11177795346E+02  0.18547825067E-01  0.17328934011E+02  0.17770000000E+01 0. -1.
         15    1    1    2    0    0  0.12951664481E+02 -0.18193633582E+01 -0.16168254167E+02  0.20871652251E+02  0.17770000000E+01 0.  1.
</event>
<event>
 6   1  0.3798113E-04  0.5095293E+03  0.7546771E-02  0.9378736E-01
        -11   -1    0    0    0    0  0.00000000000E+00  0.00000000000E+00  0.50000000000E+03  0.50000000000E+03  0.00000000000E+00 0. -1.
         11   -1    0    0    0    0 -0.00000000000E+00 -0.00000000000E+00 -0.50000000000E+03  0.50000000000E+03  0.00000000000E+00 0.  1.
        -11    1    1    2    0    0  0.34432346180E+02 -0.42975532347E+02  0.80233942673E+02  0.97313762649E+02  0.00000000000E+00 0. -1.
         11    1    1    2    0    0 -0.63349264402E+01  0.12790502833E+02 -0.49026294510E+03  0.49047067557E+03  0.00000000000E+00 0.  1.
        -15    1    1    2    0    0 -0.24949377136E+01  0.14980129303E+01  0.19662732280E+02  0.19956190184E+02  0.17770000000E+01 0. -1.
         15    1    1    2    0    0 -0.25602482026E+02  0.28687016584E+02  0.39036627015E+03  0.39225937160E+03  0.17770000000E+01 0.  1.
</event>
<event>
 6   1  0.3798113E-04  0.5002331E+03  0.7546771E-02  0.9399288E-01
        -11   -1    0    0    0    0  0.00000000000E+00  0.00000000000E+00  0.50000000000E+03  0.50000000000E+03  0.00000000000E+00 0. -1.
         11   -1    0    0    0    0 -0.00000000000E+00 -0.00000000000E+00 -0.50000000000E+03  0.50000000000E+03  0.00000000000E+00 0.  1.
        -11    1    1    2    0    0  0.12856226392E+02  0.87115843542E+01  0.25086168991E+03  0.25134192194E+03  0.00000000000E+00 0. -1.
         11    1    1    2    0    0 -0.97321083696E+01 -0.48970458313E+01 -0.49964813465E+03  0.49976689912E+03  0.00000000000E+00 0.  1.
        -15    1    1    2    0    0 -0.30998280016E+01 -0.10727854253E+01  0.16267129381E+03  0.16271406626E+03  0.17770000000E+01 0.  1.
         15    1    1    2    0    0 -0.24290020633E-01 -0.27417530976E+01  0.86115150938E+02  0.86177112682E+02  0.17770000000E+01 0. -1.
</event>
<event>
 6   1  0.3798113E-04  0.4930951E+03  0.7546771E-02  0.9415394E-01
        -11   -1    0    0    0    0  0.00000000000E+00  0.00000000000E+00  0.50000000000E+03  0.50000000000E+03  0.00000000000E+00 0.  1.
         11   -1    0    0    0    0 -0.00000000000E+00 -0.00000000000E+00 -0.50000000000E+03  0.50000000000E+03  0.00000000000E+00 0. -1.
        -11    1    1    2    0    0  0.64040661604E+01 -0.10264798617E+02 -0.68667722257E+01  0.13911531721E+02  0.00000000000E+00 0.  1.
         11    1    1    2    0    0 -0.54670964034E+01  0.14846452427E+02 -0.48937278418E+03  0.48962845934E+03  0.00000000000E+00 0. -1.
        -15    1    1    2    0    0 -0.13776706884E+01  0.23769363582E+01  0.32429182246E+02  0.32593824463E+02  0.17770000000E+01 0. -1.
         15    1    1    2    0    0  0.44070093148E+00 -0.69585901679E+01  0.46381037416E+03  0.46386618448E+03  0.17770000000E+01 0.  1.
</event>
<event>
 6   1  0.3798113E-04  0.4724975E+03  0.7546771E-02  0.9463543E-01
        -11   -1    0    0    0    0  0.00000000000E+00  0.00000000000E+00  0.50000000000E+03  0.50000000000E+03  0.00000000000E+00 0. -1.
         11   -1    0    0    0    0 -0.00000000000E+00 -0.00000000000E+00 -0.50000000000E+03  0.50000000000E+03  0.00000000000E+00 0.  1.
        -11    1    1    2    0    0  0.15044102337E+02 -0.19698636496E+02  0.47004316049E+03  0.47069622265E+03  0.00000000000E+00 0. -1.
         11    1    1    2    0    0  0.13440952086E+02 -0.59992836895E+01 -0.47486144471E+03  0.47508950975E+03  0.00000000000E+00 0.  1.
        -15    1    1    2    0    0 -0.73335427556E+01 -0.95417942124E+01 -0.25283658752E+01  0.12424856101E+02  0.17770000000E+01 0. -1.
         15    1    1    2    0    0 -0.21151511667E+02  0.35239714398E+02  0.73466500938E+01  0.41789411497E+02  0.17770000000E+01 0.  1.
</event>
<event>
 6   1  0.3798113E-04  0.5003805E+03  0.7546771E-02  0.9398959E-01
        -11   -1    0    0    0    0  0.00000000000E+00  0.00000000000E+00  0.50000000000E+03  0.50000000000E+03  0.00000000000E+00 0.  1.
         11   -1    0    0    0    0 -0.00000000000E+00 -0.00000000000E+00 -0.50000000000E+03  0.50000000000E+03  0.00000000000E+00 0.  1.
        -11    1    1    2    0    0  0.56060504767E+01 -0.32804438428E+01  0.27648906219E+02  0.28401604336E+02  0.00000000000E+00 0.  1.
         11    1    1    2    0    0 -0.90607664910E+01 -0.39005918712E+01 -0.49952213391E+03  0.49961952961E+03  0.00000000000E+00 0.  1.
        -15    1    1    2    0    0  0.17153125450E+01  0.51528074223E+01  0.39136699362E+03  0.39140870601E+03  0.17770000000E+01 0.  1.
         15    1    1    2    0    0  0.17394034693E+01  0.20282282917E+01  0.80506234074E+02  0.80570160035E+02  0.17770000000E+01 0. -1.
</event>
<event>
 6   1  0.3798113E-04  0.4880122E+03  0.7546771E-02  0.9427040E-01
        -11   -1    0    0    0    0  0.00000000000E+00  0.00000000000E+00  0.50000000000E+03  0.50000000000E+03  0.00000000000E+00 0.  1.
         11   -1    0    0    0    0 -0.00000000000E+00 -0.00000000000E+00 -0.50000000000E+03  0.50000000000E+03  0.00000000000E+00 0.  1.
        -11    1    1    2    0    0 -0.14375965998E+02  0.39645850368E+01  0.48937488803E+03  0.48960205000E+03  0.00000000000E+00 0.  1.
         11    1    1    2    0    0 -0.19389806914E+01 -0.16277661879E+02 -0.48636486700E+03  0.48664104407E+03  0.00000000000E+00 0.  1.
        -15    1    1    2    0    0  0.85692803610E+01  0.12678401363E+02 -0.49502116193E+00  0.15413539567E+02  0.17770000000E+01 0. -1.
         15    1    1    2    0    0  0.77456663288E+01 -0.36532452142E+00 -0.25149998737E+01  0.83433663618E+01  0.17770000000E+01 0.  1.
</event>
<event>
 6   1  0.3798113E-04  0.5026729E+03  0.7546771E-02  0.9393849E-01
        -11   -1    0    0    0    0  0.00000000000E+00  0.00000000000E+00  0.50000000000E+03  0.50000000000E+03  0.00000000000E+00 0. -1.
         11   -1    0    0    0    0 -0.00000000000E+00 -0.00000000000E+00 -0.50000000000E+03  0.50000000000E+03  0.00000000000E+00 0. -1.
        -11    1    1    2    0    0 -0.28076674554E+02 -0.44972888345E+02  0.49449305707E+03  0.49732709943E+03  0.00000000000E+00 0. -1.
         11    1    1    2    0    0 -0.18135794001E+01  0.53198250408E+01 -0.33039818196E+03  0.33044598387E+03  0.00000000000E+00 0. -1.
        -15    1    1    2    0    0  0.30141534202E+02  0.32054591870E+02 -0.14655371395E+03  0.15302665698E+03  0.17770000000E+01 0. -1.
         15    1    1    2    0    0 -0.25128024824E+00  0.75984714334E+01 -0.17541161153E+02  0.19200259725E+02  0.17770000000E+01 0.  1.
</event>
<event>
 6   1  0.3798113E-04  0.5001663E+03  0.7546771E-02  0.9399438E-01
        -11   -1    0    0    0    0  0.00000000000E+00  0.00000000000E+00  0.50000000000E+03  0.50000000000E+03  0.00000000000E+00 0.  1.
         11   -1    0    0    0    0 -0.00000000000E+00 -0.00000000000E+00 -0.50000000000E+03  0.50000000000E+03  0.00000000000E+00 0. -1.
        -11    1    1    2    0    0  0.11302655036E+02 -0.70591147991E+01  0.49965607812E+03  0.49983374987E+03  0.00000000000E+00 0.  1.
         11    1    1    2    0    0 -0.30399176614E+01  0.34735894475E+01 -0.26768421780E+02  0.27163492552E+02  0.00000000000E+00 0. -1.
        -15    1    1    2    0    0 -0.31593761387E+01  0.23137869679E-02 -0.11731140858E+03  0.11736739741E+03  0.17770000000E+01 0. -1.
         15    1    1    2    0    0 -0.51033612363E+01  0.35832115646E+01 -0.35557624776E+03  0.35563536017E+03  0.17770000000E+01 0. -1.
</event>
<event>
 6   1  0.3798113E-04  0.5000859E+03  0.7546771E-02  0.9399618E-01
        -11   -1    0    0    0    0  0.00000000000E+00  0.00000000000E+00  0.50000000000E+03  0.50000000000E+03  0.00000000000E+00 0. -1.
         11   -1    0    0    0    0 -0.00000000000E+00 -0.00000000000E+00 -0.50000000000E+03  0.50000000000E+03  0.00000000000E+00 0.  1.
        -11    1    1    2    0    0 -0.49981531770E+01 -0.85323961563E+01  0.26084813581E+03  0.26103550194E+03  0.00000000000E+00 0. -1.
         11    1    1    2    0    0  0.56143019926E+01  0.79294629172E+01 -0.49981970915E+03  0.49991413105E+03  0.00000000000E+00 0.  1.
        -15    1    1    2    0    0  0.13892151416E+01 -0.12130897921E+01  0.14600733918E+03  0.14602979946E+03  0.17770000000E+01 0.  1.
         15    1    1    2    0    0 -0.20053639572E+01  0.18160230312E+01  0.92964234161E+02  0.93020567545E+02  0.17770000000E+01 0. -1.
</event>
<event>
 6   1  0.3798113E-04  0.5016347E+03  0.7546771E-02  0.9396159E-01
        -11   -1    0    0    0    0  0.00000000000E+00  0.00000000000E+00  0.50000000000E+03  0.50000000000E+03  0.00000000000E+00 0. -1.
         11   -1    0    0    0    0 -0.00000000000E+00 -0.00000000000E+00 -0.50000000000E+03  0.50000000000E+03  0.00000000000E+00 0.  1.
        -11    1    1    2    0    0  0.32641871005E+01  0.26517795028E+02  0.49764858810E+03  0.49836529335E+03  0.00000000000E+00 0. -1.
         11    1    1    2    0    0  0.12370178613E+02 -0.80054240755E+01 -0.34230569085E+03  0.34262267018E+03  0.00000000000E+00 0.  1.
        -15    1    1    2    0    0 -0.57521008898E+01 -0.16031415051E+02 -0.13603355892E+03  0.13710718367E+03  0.17770000000E+01 0. -1.
         15    1    1    2    0    0 -0.98822648234E+01 -0.24809559023E+01 -0.19309338335E+02  0.21904852800E+02  0.17770000000E+01 0.  1.
</event>
<event>
 6   1  0.3798113E-04  0.5104395E+03  0.7546771E-02  0.9376749E-01
        -11   -1    0    0    0    0  0.00000000000E+00  0.00000000000E+00  0.50000000000E+03  0.50000000000E+03  0.00000000000E+00 0. -1.
         11   -1    0    0    0    0 -0.00000000000E+00 -0.00000000000E+00 -0.50000000000E+03  0.50000000000E+03  0.00000000000E+00 0. -1.
        -11    1    1    2    0    0  0.24725565210E+02  0.17296869423E+02  0.48862963465E+03  0.48956047137E+03  0.00000000000E+00 0. -1.
         11    1    1    2    0    0  0.52774065387E+01 -0.34280133689E+01 -0.45116325248E+03  0.45120713944E+03  0.00000000000E+00 0. -1.
        -15    1    1    2    0    0 -0.57633737580E+01 -0.15833040883E+02 -0.28685923670E+02  0.33315786145E+02  0.17770000000E+01 0.  1.
         15    1    1    2    0    0 -0.24239597991E+02  0.19641848281E+01 -0.87804585084E+01  0.25916603046E+02  0.17770000000E+01 0. -1.
</event>
<event>
 6   1  0.3798113E-04  0.5089424E+03  0.7546771E-02  0.9380020E-01
        -11   -1    0    0    0    0  0.00000000000E+00  0.00000000000E+00  0.50000000000E+03  0.50000000000E+03  0.00000000000E+00 0. -1.
         11   -1    0    0    0    0 -0.00000000000E+00 -0.00000000000E+00 -0.50000000000E+03  0.50000000000E+03  0.00000000000E+00 0.  1.
        -11    1    1    2    0    0  0.85948637108E+01 -0.26045565108E+02  0.46664902613E+03  0.46745433653E+03  0.00000000000E+00 0. -1.
         11    1    1    2    0    0 -0.11531412398E+02  0.24635729888E+01 -0.49091602153E+03  0.49105761663E+03  0.00000000000E+00 0.  1.
        -15    1    1    2    0    0  0.10791672388E+02  0.20697895333E+02  0.23040004127E+02  0.32846043647E+02  0.17770000000E+01 0.  1.
         15    1    1    2    0    0 -0.78551237002E+01  0.28840967870E+01  0.12269912642E+01  0.86420031928E+01  0.17770000000E+01 0. -1.
</event>
<event>
 6   1  0.3798113E-04  0.5002752E+03  0.7546771E-02  0.9399194E-01
        -11   -1    0    0    0    0  0.00000000000E+00  0.00000000000E+00  0.50000000000E+03  0.50000000000E+03  0.00000000000E+00 0.  1.
         11   -1    0    0    0    0 -0.00000000000E+00 -0.00000000000E+00 -0.50000000000E+03  0.50000000000E+03  0.00000000000E+00 0. -1.
        -11    1    1    2    0    0  0.57021134999E+01  0.60917600629E+00  0.10658434593E+03  0.10673850285E+03  0.00000000000E+00 0.  1.
         11    1    1    2    0    0  0.81855783600E+00  0.15464116524E+02 -0.49948480540E+03  0.49972480403E+03  0.00000000000E+00 0. -1.
        -15    1    1    2    0    0 -0.97627511175E+00 -0.85929895964E+01  0.78770864911E+02  0.79264112126E+02  0.17770000000E+01 0. -1.
         15    1    1    2    0    0 -0.55443962241E+01 -0.74803029337E+01  0.31412959455E+03  0.31427258100E+03  0.17770000000E+01 0.  1.
</event>
<event>
 6   1  0.3798113E-04  0.4730727E+03  0.7546771E-02  0.9462163E-01
        -11   -1    0    0    0    0  0.00000000000E+00  0.00000000000E+00  0.50000000000E+03  0.50000000000E+03  0.00000000000E+00 0. -1.
         11   -1    0    0    0    0 -0.00000000000E+00 -0.00000000000E+00 -0.50000000000E+03  0.50000000000E+03  0.00000000000E+00 0.  1.
        -11    1    1    2    0    0 -0.27736248066E+02  0.19378214552E+02  0.48408911237E+03  0.48527011382E+03  0.00000000000E+00 0. -1.
         11    1    1    2    0    0 -0.86038491037E+01  0.48017099653E+01 -0.46203342325E+03  0.46213847150E+03  0.00000000000E+00 0.  1.
        -15    1    1    2    0    0  0.37084571482E+02 -0.18062917131E+02 -0.19828742039E+02  0.45802523480E+02  0.17770000000E+01 0.  1.
         15    1    1    2    0    0 -0.74447431226E+00 -0.61170073862E+01 -0.22269470784E+01  0.67888911948E+01  0.17770000000E+01 0. -1.
</event>
<event>
 6   1  0.3798113E-04  0.5400879E+03  0.7546771E-02  0.9314323E-01
        -11   -1    0    0    0    0  0.00000000000E+00  0.00000000000E+00  0.50000000000E+03  0.50000000000E+03  0.00000000000E+00 0.  1.
         11   -1    0    0    0    0 -0.00000000000E+00 -0.00000000000E+00 -0.50000000000E+03  0.50000000000E+03  0.00000000000E+00 0. -1.
        -11    1    1    2    0    0 -0.10577970687E+03  0.58756924420E+01  0.33509141804E+03  0.35144007824E+03  0.00000000000E+00 0.  1.
         11    1    1    2    0    0 -0.54158125168E+00 -0.39026772089E+02 -0.45825292346E+03  0.45991208302E+03  0.00000000000E+00 0. -1.
        -15    1    1    2    0    0 -0.50929597762E+01  0.24619524344E+02  0.44208962365E+01  0.25588303397E+02  0.17770000000E+01 0. -1.
         15    1    1    2    0    0  0.11141424790E+03  0.85315553033E+01  0.11874060918E+03  0.16305953535E+03  0.17770000000E+01 0.  1.
</event>
<event>
 6   1  0.3798113E-04  0.5010209E+03  0.7546771E-02  0.9397528E-01
        -11   -1    0    0    0    0  0.00000000000E+00  0.00000000000E+00  0.50000000000E+03  0.50000000000E+03  0.00000000000E+00 0. -1.
         11   -1    0    0    0    0 -0.00000000000E+00 -0.00000000000E+00 -0.50000000000E+03  0.50000000000E+03  0.00000000000E+00 0. -1.
        -11    1    1    2    0    0 -0.31804126173E+01  0.54808606031E+01  0.41893212062E+03  0.41898004313E+03  0.00000000000E+00 0. -1.
         11    1    1    2    0    0  0.87317936334E+01  0.39401089657E+01 -0.49888710166E+03  0.49897906658E+03  0.00000000000E+00 0. -1.
        -15    1    1    2    0    0 -0.58983421669E+01 -0.35863538989E+01  0.13154541901E+02  0.14961686944E+02  0.17770000000E+01 0. -1.
         15    1    1    2    0    0  0.34696115076E+00 -0.58346156699E+01  0.66800439146E+02  0.67079203343E+02  0.17770000000E+01 0.  1.
</event>
<event>
 6   1  0.3798113E-04  0.5108862E+03  0.7546771E-02  0.9375775E-01
        -11   -1    0    0    0    0  0.00000000000E+00  0.00000000000E+00  0.50000000000E+03  0.50000000000E+03  0.00000000000E+00 0. -1.
         11   -1    0    0    0    0 -0.00000000000E+00 -0.00000000000E+00 -0.50000000000E+03  0.50000000000E+03  0.00000000000E+00 0. -1.
        -11    1    1    2    0    0 -0.12706450038E+02  0.24548964426E+02  0.43288191166E+03  0.43376359341E+03  0.00000000000E+00 0. -1.
         11    1    1    2    0    0  0.25913076289E-01  0.82530880219E+01 -0.48904418748E+03  0.48911382258E+03  0.00000000000E+00 0. -1.
        -15    1    1    2    0    0 -0.25294895461E+01  0.75242700239E+01  0.17065693292E+02  0.18905252532E+02  0.17770000000E+01 0.  1.
         15    1    1    2    0    0  0.15210026508E+02 -0.40326322472E+02  0.39096582529E+02  0.58217331483E+02  0.17770000000E+01 0. -1.
</event>
<event>
 6   1  0.3798113E-04  0.5054352E+03  0.7546771E-02  0.9387729E-01
        -11   -1    0    0    0    0  0.00000000000E+00  0.00000000000E+00  0.50000000000E+03  0.50000000000E+03  0.00000000000E+00 0. -1.
         11   -1    0    0    0    0 -0.00000000000E+00 -0.00000000000E+00 -0.50000000000E+03  0.50000000000E+03  0.00000000000E+00 0. -1.
        -11    1    1    2    0    0  0.70204435479E+02  0.10806465782E+02  0.17072393403E+03  0.18491107082E+03  0.00000000000E+00 0. -1.
         11    1    1    2    0    0 -0.61445651943E+02 -0.39610758601E+02 -0.48913161576E+03  0.49456477622E+03  0.00000000000E+00 0. -1.
        -15    1    1    2    0    0 -0.25872297663E+01  0.23536207147E+02  0.28876607471E+03  0.28974066065E+03  0.17770000000E+01 0. -1.
         15    1    1    2    0    0 -0.61715537705E+01  0.52680856714E+01  0.29641607022E+02  0.30783492304E+02  0.17770000000E+01 0.  1.
</event>
<event>
 6   1  0.3798113E-04  0.5093571E+03  0.7546771E-02  0.9379113E-01
        -11   -1    0    0    0    0  0.00000000000E+00  0.00000000000E+00  0.50000000000E+03  0.50000000000E+03  0.00000000000E+00 0.  1.
         11   -1    0    0    0    0 -0.00000000000E+00 -0.00000000000E+00 -0.50000000000E+03  0.50000000000E+03  0.00000000000E+00 0.  1.
        -11    1    1    2    0    0 -0.19811570682E+02  0.45012123360E+01  0.45780767259E+03  0.45825825069E+03  0.00000000000E+00 0.  1.
         11    1    1    2    0    0 -0.20822265964E+01 -0.67363886072E+01 -0.49059225382E+03  0.49064291915E+03  0.00000000000E+00 0.  1.
        -15    1    1    2    0    0  0.25074187848E+02 -0.50465941923E+01  0.34293364369E+02  0.42817935236E+02  0.17770000000E+01 0.  1.
         15    1    1    2    0    0 -0.31803905694E+01  0.72817704635E+01 -0.15087831334E+01  0.82808949276E+01  0.17770000000E+01 0. -1.
</event>
<event>
 6   1  0.3798113E-04  0.4882532E+03  0.7546771E-02  0.9426485E-01
        -11   -1    0    0    0    0  0.00000000000E+00  0.00000000000E+00  0.50000000000E+03  0.50000000000E+03  0.00000000000E+00 0. -1.
         11   -1    0    0    0    0 -0.00000000000E+00 -0.00000000000E+00 -0.50000000000E+03  0.50000000000E+03  0.00000000000E+00 0. -1.
        -11    1    1    2    0    0  0.28128388883E+01  0.10676751101E+02  0.48612776661E+03  0.48625313423E+03  0.00000000000E+00 0. -1.
         11    1    1    2    0    0  0.13959630198E+02  0.13082340463E+01 -0.49027914517E+03  0.49047958463E+03  0.00000000000E+00 0. -1.
        -15    1    1    2    0    0 -0.66888360929E+01 -0.10222176464E+02  0.88540605368E+00  0.12376392561E+02  0.17770000000E+01 0. -1.
         15    1    1    2    0    0 -0.10083632993E+02 -0.17628086835E+01  0.32659725025E+01  0.10890888586E+02  0.17770000000E+01 0.  1.
</event>
<event>
 6   1  0.3798113E-04  0.5089190E+03  0.7546771E-02  0.9380071E-01
        -11   -1    0    0    0    0  0.00000000000E+00  0.00000000000E+00  0.50000000000E+03  0.50000000000E+03  0.00000000000E+00 0.  1.
         11   -1    0    0    0    0 -0.00000000000E+00 -0.00000000000E+00 -0.50000000000E+03  0.50000000000E+03  0.00000000000E+00 0. -1.
        -11    1    1    2    0    0  0.24075694564E+02  0.69497446621E+01  0.49044126314E+03  0.49108102245E+03  0.00000000000E+00 0.  1.
         11    1    1    2    0    0  0.32117784164E+01  0.85421788960E+01 -0.46638519155E+03  0.46647447008E+03  0.00000000000E+00 0. -1.
        -15    1    1    2    0    0 -0.15253821652E+02 -0.23665552719E+01 -0.17458633631E+02  0.23371805153E+02  0.17770000000E+01 0.  1.
         15    1    1    2    0    0 -0.12033651328E+02 -0.13125368286E+02 -0.65974379614E+01  0.19072702315E+02  0.17770000000E+01 0. -1.
</event>
<event>
 6   1  0.3798113E-04  0.5005053E+03  0.7546771E-02  0.9398680E-01
        -11   -1    0    0    0    0  0.00000000000E+00  0.00000000000E+00  0.50000000000E+03  0.50000000000E+03  0.00000000000E+00 0. -1.
         11   -1    0    0    0    0 -0.00000000000E+00 -0.00000000000E+00 -0.50000000000E+03  0.50000000000E+03  0.00000000000E+00 0. -1.
        -11    1    1    2    0    0  0.59389539951E+01 -0.60109298836E+01  0.49942317106E+03  0.49949465086E+03  0.00000000000E+00 0. -1.
         11    1    1    2    0    0  0.56674253200E+01  0.13669136068E+01 -0.40604890372E+03  0.40609075387E+03  0.00000000000E+00 0. -1.
        -15    1    1    2    0    0 -0.26482154202E+01  0.35173489146E+01 -0.34636731764E+02  0.34960630781E+02  0.17770000000E+01 0.  1.
         15    1    1    2    0    0 -0.89581638948E+01  0.11266673622E+01 -0.58737535572E+02  0.59453964492E+02  0.17770000000E+01 0. -1.
</event>
<event>
 6   1  0.3798113E-04  0.5002838E+03  0.7546771E-02  0.9399175E-01
        -11   -1    0    0    0    0  0.00000000000E+00  0.00000000000E+00  0.50000000000E+03  0.50000000000E+03  0.00000000000E+00 0.  1.
         11   -1    0    0    0    0 -0.00000000000E+00 -0.00000000000E+00 -0.50000000000E+03  0.50000000000E+03  0.00000000000E+00 0. -1.
        -11    1    1    2    0    0 -0.15838584609E+02  0.14352579778E+02  0.25048699091E+03  0.25139727509E+03  0.00000000000E+00 0.  1.
         11    1    1    2    0    0  0.19017374430E+02 -0.96368453490E+01 -0.49926120300E+03  0.49971619759E+03  0.00000000000E+00 0. -1.
        -15    1    1    2    0    0 -0.33250589852E+01 -0.21145241971E+01  0.14342459756E+03  0.14348972139E+03  0.17770000000E+01 0.  1.
         15    1    1    2    0    0  0.14626916388E+00 -0.26012102315E+01  0.10534961453E+03  0.10539680593E+03  0.17770000000E+01 0.  1.
</event>
<event>
 6   1  0.3798113E-04  0.5009508E+03  0.7546771E-02  0.9397685E-01
        -11   -1    0    0    0    0  0.00000000000E+00  0.00000000000E+00  0.50000000000E+03  0.50000000000E+03  0.00000000000E+00 0.  1.
         11   -1    0    0    0    0 -0.00000000000E+00 -0.00000000000E+00 -0.50000000000E+03  0.50000000000E+03  0.00000000000E+00 0.  1.
        -11    1    1    2    0    0  0.13729001987E+02 -0.12061382885E+02  0.49871449658E+03  0.49904920754E+03  0.00000000000E+00 0.  1.
         11    1    1    2    0    0 -0.36095528251E+01 -0.27366893946E+01 -0.27172599836E+03  0.27176375131E+03  0.00000000000E+00 0.  1.
        -15    1    1    2    0    0 -0.44081576695E+00  0.36419342925E+01 -0.17663700065E+03  0.17668402795E+03  0.17770000000E+01 0. -1.
         15    1    1    2    0    0 -0.96786333954E+01  0.11156137987E+02 -0.50351497564E+02  0.52503013201E+02  0.17770000000E+01 0.  1.
</event>
<event>
 6   1  0.3798113E-04  0.5002980E+03  0.7546771E-02  0.9399143E-01
        -11   -1    0    0    0    0  0.00000000000E+00  0.00000000000E+00  0.50000000000E+03  0.50000000000E+03  0.00000000000E+00 0.  1.
         11   -1    0    0    0    0 -0.00000000000E+00 -0.00000000000E+00 -0.50000000000E+03  0.50000000000E+03  0.00000000000E+00 0.  1.
        -11    1    1    2    0    0 -0.10811415544E+01  0.12234262947E+02  0.12170784721E+03  0.12232598306E+03  0.00000000000E+00 0.  1.
         11    1    1    2    0    0  0.13117834335E+02 -0.16157478592E+02 -0.49926842491E+03  0.49970201301E+03  0.00000000000E+00 0.  1.
        -15    1    1    2    0    0 -0.46270449853E+01  0.97428195689E+00  0.28678027910E+03  0.28682476354E+03  0.17770000000E+01 0.  1.
         15    1    1    2    0    0 -0.74096477950E+01  0.29489336881E+01  0.90780298596E+02  0.91147240400E+02  0.17770000000E+01 0. -1.
</event>
<event>
 6   1  0.3798113E-04  0.5010431E+03  0.7546771E-02  0.9397479E-01
        -11   -1    0    0    0    0  0.00000000000E+00  0.00000000000E+00  0.50000000000E+03  0.50000000000E+03  0.00000000000E+00 0.  1.
         11   -1    0    0    0    0 -0.00000000000E+00 -0.00000000000E+00 -0.50000000000E+03  0.50000000000E+03  0.00000000000E+00 0.  1.
        -11    1    1    2    0    0  0.67577162941E+01  0.49715510658E+01  0.41577477415E+03  0.41585940637E+03  0.00000000000E+00 0.  1.
         11    1    1    2    0    0 -0.59738426586E+01  0.94476425203E+01 -0.49883169686E+03  0.49895691851E+03  0.00000000000E+00 0.  1.
        -15    1    1    2    0    0 -0.52158515407E+01 -0.66881944840E+01  0.55363451437E+02  0.56037545778E+02  0.17770000000E+01 0. -1.
         15    1    1    2    0    0  0.44319779051E+01 -0.77309991020E+01  0.27693471268E+02  0.29146129334E+02  0.17770000000E+01 0.  1.
</event>
<event>
 6   1  0.3798113E-04  0.5012258E+03  0.7546771E-02  0.9397071E-01
        -11   -1    0    0    0    0  0.00000000000E+00  0.00000000000E+00  0.50000000000E+03  0.50000000000E+03  0.00000000000E+00 0. -1.
         11   -1    0    0    0    0 -0.00000000000E+00 -0.00000000000E+00 -0.50000000000E+03  0.50000000000E+03  0.00000000000E+00 0. -1.
        -11    1    1    2    0    0  0.13619406315E+02  0.61654346578E+01  0.49855012740E+03  0.49877422782E+03  0.00000000000E+00 0. -1.
         11    1    1    2    0    0  0.20880993830E+01  0.63672657894E+01 -0.40441388626E+03  0.40446939765E+03  0.00000000000E+00 0. -1.
        -15    1    1    2    0    0 -0.89088457546E+01 -0.12353524794E+02 -0.64949334729E+02  0.66734930271E+02  0.17770000000E+01 0. -1.
         15    1    1    2    0    0 -0.67986599432E+01 -0.17917565290E+00 -0.29186906407E+02  0.30021444261E+02  0.17770000000E+01 0.  1.
</event>
<event>
 6   1  0.3798113E-04  0.5016518E+03  0.7546771E-02  0.9396121E-01
        -11   -1    0    0    0    0  0.00000000000E+00  0.00000000000E+00  0.50000000000E+03  0.50000000000E+03  0.00000000000E+00 0.  1.
         11   -1    0    0    0    0 -0.00000000000E+00 -0.00000000000E+00 -0.50000000000E+03  0.50000000000E+03  0.00000000000E+00 0. -1.
        -11    1    1    2    0    0  0.10147442673E+02  0.19375157481E+01  0.14554764997E+02  0.17848410131E+02  0.00000000000E+00 0.  1.
         11    1    1    2    0    0 -0.67679305636E+01  0.28914305226E+01 -0.49829383077E+03  0.49834817852E+03  0.00000000000E+00 0. -1.
        -15    1    1    2    0    0  0.57997256214E+00 -0.13841742062E+01  0.12659014294E+03  0.12661150945E+03  0.17770000000E+01 0.  1.
         15    1    1    2    0    0 -0.39594846712E+01 -0.34447720645E+01  0.35714892284E+03  0.35719190190E+03  0.17770000000E+01 0.  1.
</event>
<event>
 6   1  0.3798113E-04  0.5004146E+03  0.7546771E-02  0.9398882E-01
        -11   -1    0    0    0    0  0.00000000000E+00  0.00000000000E+00  0.50000000000E+03  0.50000000000E+03  0.00000000000E+00 0. -1.
         11   -1    0    0    0    0 -0.00000000000E+00 -0.00000000000E+00 -0.50000000000E+03  0.50000000000E+03  0.00000000000E+00 0. -1.
        -11    1    1    2    0    0  0.65378432594E+01 -0.46065205041E+01  0.36756203967E+03  0.36764903976E+03  0.00000000000E+00 0. -1.
         11    1    1    2    0    0 -0.32587071092E+01 -0.72138073282E+01 -0.49952264735E+03  0.49958536148E+03  0.00000000000E+00 0. -1.
        -15    1    1    2    0    0  0.98513012002E+00  0.71841570929E+01  0.88576464234E+02  0.88890552590E+02  0.17770000000E+01 0. -1.
         15    1    1    2    0    0 -0.42642662702E+01  0.46361707394E+01  0.43384143440E+02  0.43875046176E+02  0.17770000000E+01 0.  1.
</event>
<event>
 6   1  0.3798113E-04  0.5040045E+03  0.7546771E-02  0.9390894E-01
        -11   -1    0    0    0    0  0.00000000000E+00  0.00000000000E+00  0.50000000000E+03  0.50000000000E+03  0.00000000000E+00 0. -1.
         11   -1    0    0    0    0 -0.00000000000E+00 -0.00000000000E+00 -0.50000000000E+03  0.50000000000E+03  0.00000000000E+00 0.  1.
        -11    1    1    2    0    0  0.10692963771E+02  0.41224405812E+01  0.48921101474E+03  0.48934522674E+03  0.00000000000E+00 0. -1.
         11    1    1    2    0    0 -0.88447376928E+01 -0.29334123043E+01 -0.49590799538E+03  0.49599553846E+03  0.00000000000E+00 0.  1.
        -15    1    1    2    0    0  0.47854629998E+01  0.16218597794E+01  0.13820303544E+01  0.55316202117E+01  0.17770000000E+01 0.  1.
         15    1    1    2    0    0 -0.66336890785E+01 -0.28108880562E+01  0.53149502839E+01  0.91276145830E+01  0.17770000000E+01 0. -1.
</event>
<event>
 6   1  0.3798113E-04  0.5000989E+03  0.7546771E-02  0.9399588E-01
        -11   -1    0    0    0    0  0.00000000000E+00  0.00000000000E+00  0.50000000000E+03  0.50000000000E+03  0.00000000000E+00 0.  1.
         11   -1    0    0    0    0 -0.00000000000E+00 -0.00000000000E+00 -0.50000000000E+03  0.50000000000E+03  0.00000000000E+00 0.  1.
        -11    1    1    2    0    0 -0.95380111067E+01 -0.28758573466E+01  0.49980180674E+03  0.49990108045E+03  0.00000000000E+00 0.  1.
         11    1    1    2    0    0  0.16873765915E+01 -0.24631917862E+01 -0.13296483991E+03  0.13299835791E+03  0.00000000000E+00 0.  1.
        -15    1    1    2    0    0  0.80319264535E+01  0.29978590955E+01 -0.15769686411E+03  0.15793972800E+03  0.17770000000E+01 0. -1.
         15    1    1    2    0    0 -0.18129193823E+00  0.23411900373E+01 -0.20914010272E+03  0.20916083365E+03  0.17770000000E+01 0.  1.
</event>
<event>
 6   1  0.3798113E-04  0.5052693E+03  0.7546771E-02  0.9388096E-01
        -11   -1    0    0    0    0  0.00000000000E+00  0.00000000000E+00  0.50000000000E+03  0.50000000000E+03  0.00000000000E+00 0.  1.
         11   -1    0    0    0    0 -0.00000000000E+00 -0.00000000000E+00 -0.50000000000E+03  0.50000000000E+03  0.00000000000E+00 0. -1.
        -11    1    1    2    0    0 -0.25180966157E+02  0.33766846475E+02  0.40392585266E+03  0.40611620926E+03  0.00000000000E+00 0.  1.
         11    1    1    2    0    0  0.55962649539E+01 -0.43156800994E+01 -0.49468017494E+03  0.49473065273E+03  0.00000000000E+00 0. -1.
        -15    1    1    2    0    0 -0.18433901784E+01 -0.24708925650E+01  0.23733086849E+01  0.42771159128E+01  0.17770000000E+01 0. -1.
         15    1    1    2    0    0  0.21428091382E+02 -0.26980273811E+02  0.88381013592E+02  0.94876022091E+02  0.17770000000E+01 0.  1.
</event>
<event>
 6   1  0.3798113E-04  0.5027404E+03  0.7546771E-02  0.9393699E-01
        -11   -1    0    0    0    0  0.00000000000E+00  0.00000000000E+00  0.50000000000E+03  0.50000000000E+03  0.00000000000E+00 0.  1.
         11   -1    0    0    0    0 -0.00000000000E+00 -0.00000000000E+00 -0.50000000000E+03  0.50000000000E+03  0.00000000000E+00 0.  1.
        -11    1    1    2    0    0  0.11078892678E+02  0.33510359123E+01  0.46961425120E+03  0.46975686928E+03  0.00000000000E+00 0.  1.
         11    1    1    2    0    0 -0.83087418066E+01 -0.83204008996E+01 -0.49712059521E+03  0.49725964087E+03  0.00000000000E+00 0.  1.
        -15    1    1    2    0    0  0.65418736574E+01  0.54080980473E+01  0.14226327006E+02  0.16661024714E+02  0.17770000000E+01 0.  1.
         15    1    1    2    0    0 -0.93120245293E+01 -0.43873305992E+00  0.13280017002E+02  0.16322465135E+02  0.17770000000E+01 0. -1.
</event>
<event>
 6   1  0.3798113E-04  0.4881853E+03  0.7546771E-02  0.9426641E-01
        -11   -1    0    0    0    0  0.00000000000E+00  0.00000000000E+00  0.50000000000E+03  0.50000000000E+03  0.00000000000E+00 0.  1.
         11   -1    0    0    0    0 -0.00000000000E+00 -0.00000000000E+00 -0.50000000000E+03  0.50000000000E+03  0.00000000000E+00 0.  1.
        -11    1    1    2    0    0  0.84443059815E+01  0.26638829064E+02  0.48417528167E+03  0.48498106859E+03  0.00000000000E+00 0.  1.
         11    1    1    2    0    0 -0.75464646915E+01 -0.13846247208E+02 -0.49124630497E+03  0.49149933859E+03  0.00000000000E+00 0.  1.
        -15    1    1    2    0    0  0.17899353144E+01  0.40071200038E+01 -0.59948942173E+00  0.47726298538E+01  0.17770000000E+01 0. -1.
         15    1    1    2    0    0 -0.26877766044E+01 -0.16799701860E+02  0.76705127270E+01  0.18746962958E+02  0.17770000000E+01 0.  1.
</event>
<event>
 6   1  0.3798113E-04  0.5008425E+03  0.7546771E-02  0.9397927E-01
        -11   -1    0    0    0    0  0.00000000000E+00  0.00000000000E+00  0.50000000000E+03  0.50000000000E+03  0.00000000000E+00 0.  1.
         11   -1    0    0    0    0 -0.00000000000E+00 -0.00000000000E+00 -0.50000000000E+03  0.50000000000E+03  0.00000000000E+00 0.  1.
        -11    1    1    2    0    0 -0.18634936223E+01  0.85822551375E+01  0.49908023478E+03  0.49915749865E+03  0.00000000000E+00 0.  1.
         11    1    1    2    0    0  0.50488939312E+01  0.38735337473E+01 -0.42921399158E+03  0.42926116311E+03  0.00000000000E+00 0.  1.
        -15    1    1    2    0    0  0.17440516909E+01 -0.26619700156E+01 -0.29157629752E+02  0.29384569121E+02  0.17770000000E+01 0. -1.
         15    1    1    2    0    0 -0.49294519998E+01 -0.97938188691E+01 -0.40708613454E+02  0.42196769111E+02  0.17770000000E+01 0.  1.
</event>
<event>
 6   1  0.3798113E-04  0.5004448E+03  0.7546771E-02  0.9398815E-01
        -11   -1    0    0    0    0  0.00000000000E+00  0.00000000000E+00  0.50000000000E+03  0.50000000000E+03  0.00000000000E+00 0. -1.
         11   -1    0    0    0    0 -0.00000000000E+00 -0.00000000000E+00 -0.50000000000E+03  0.50000000000E+03  0.00000000000E+00 0. -1.
        -11    1    1    2    0    0 -0.28242139278E+01 -0.10007505946E+02  0.71020798246E+02  0.71777992052E+02  0.00000000000E+00 0. -1.
         11    1    1    2    0    0 -0.66063023211E+00  0.67121245150E+01 -0.49950965147E+03  0.49955518310E+03  0.00000000000E+00 0. -1.
        -15    1    1    2    0    0  0.28092010427E+01  0.55437047851E+01  0.39385598842E+03  0.39390902708E+03  0.17770000000E+01 0. -1.
         15    1    1    2    0    0  0.67564311717E+00 -0.22483233541E+01  0.34632864807E+02  0.34757797762E+02  0.17770000000E+01 0. -1.
</event>
<event>
 6   1  0.3798113E-04  0.5158014E+03  0.7546771E-02  0.9365131E-01
        -11   -1    0    0    0    0  0.00000000000E+00  0.00000000000E+00  0.50000000000E+03  0.50000000000E+03  0.00000000000E+00 0. -1.
         11   -1    0    0    0    0 -0.00000000000E+00 -0.00000000000E+00 -0.50000000000E+03  0.50000000000E+03  0.00000000000E+00 0.  1.
        -11    1    1    2    0    0  0.21731607143E+02 -0.28210106209E+02  0.41361195296E+03  0.41514204855E+03  0.00000000000E+00 0. -1.
         11    1    1    2    0    0  0.47270864543E+01 -0.88164650105E+01 -0.48409521367E+03  0.48419856599E+03  0.00000000000E+00 0.  1.
        -15    1    1    2    0    0 -0.20212420872E+02  0.12324284584E+02  0.71255396215E+02  0.75106052797E+02  0.17770000000E+01 0. -1.
         15    1    1    2    0    0 -0.62462727256E+01  0.24702286636E+02 -0.77213550533E+00  0.25553332664E+02  0.17770000000E+01 0.  1.
</event>
<event>
 6   1  0.3798113E-04  0.5044989E+03  0.7546771E-02  0.9389799E-01
        -11   -1    0    0    0    0  0.00000000000E+00  0.00000000000E+00  0.50000000000E+03  0.50000000000E+03  0.00000000000E+00 0. -1.
         11   -1    0    0    0    0 -0.00000000000E+00 -0.00000000000E+00 -0.50000000000E+03  0.50000000000E+03  0.00000000000E+00 0.  1.
        -11    1    1    2    0    0 -0.14355341432E+02 -0.20865749143E+02  0.45938437248E+03  0.46008201117E+03  0.00000000000E+00 0. -1.
         11    1    1    2    0    0  0.19230225513E+02 -0.19283841691E+01 -0.49512401153E+03  0.49550106664E+03  0.00000000000E+00 0.  1.
        -15    1    1    2    0    0  0.39517250329E+00  0.19216632504E+02  0.29929912353E+02  0.35614498572E+02  0.17770000000E+01 0.  1.
         15    1    1    2    0    0 -0.52700565837E+01  0.35775008077E+01  0.58097266973E+01  0.88024236277E+01  0.17770000000E+01 0. -1.
</event>
<event>
 6   1  0.3798113E-04  0.5128319E+03  0.7546771E-02  0.9371546E-01
        -11   -1    0    0    0    0  0.00000000000E+00  0.00000000000E+00  0.50000000000E+03  0.50000000000E+03  0.00000000000E+00 0.  1.
         11   -1    0    0    0    0 -0.00000000000E+00 -0.00000000000E+00 -0.50000000000E+03  0.50000000000E+03  0.00000000000E+00 0. -1.
        -11    1    1    2    0    0 -0.45664089334E+02 -0.32517570708E+01  0.43727105873E+03  0.43966096231E+03  0.00000000000E+00 0.  1.
         11    1    1    2    0    0 -0.56577507003E+01  0.39685725167E+01 -0.48711910485E+03  0.48716812500E+03  0.00000000000E+00 0. -1.
        -15    1    1    2    0    0  0.45866106948E+02 -0.77298945082E+00  0.36524441449E+02  0.58664212528E+02  0.17770000000E+01 0. -1.
         15    1    1    2    0    0  0.54557330858E+01  0.56174004945E-01  0.13323604672E+02  0.14506700158E+02  0.17770000000E+01 0.  1.
</event>
<event>
 6   1  0.3798113E-04  0.5001013E+03  0.7546771E-02  0.9399583E-01
        -11   -1    0    0    0    0  0.00000000000E+00  0.00000000000E+00  0.50000000000E+03  0.50000000000E+03  0.00000000000E+00 0. -1.
         11   -1    0    0    0    0 -0.00000000000E+00 -0.00000000000E+00 -0.50000000000E+03  0.50000000000E+03  0.00000000000E+00 0. -1.
        -11    1    1    2    0    0  0.24994178974E+01  0.13144349942E+01  0.10103783712E+03  0.10107729399E+03  0.00000000000E+00 0. -1.
         11    1    1    2    0    0 -0.30921312354E+01  0.61347949130E+01 -0.49985148017E+03  0.49989868895E+03  0.00000000000E+00 0. -1.
        -15    1    1    2    0    0  0.35250562991E+01 -0.19486877191E+00  0.69242371815E+02  0.69355084740E+02  0.17770000000E+01 0.  1.
         15    1    1    2    0    0 -0.29323429611E+01 -0.72543611353E+01  0.32957127123E+03  0.32966893232E+03  0.17770000000E+01 0. -1.
</event>
<event>
 6   1  0.3798113E-04  0.5006222E+03  0.7546771E-02  0.9398419E-01
        -11   -1    0    0    0    0  0.00000000000E+00  0.00000000000E+00  0.50000000000E+03  0.50000000000E+03  0.00000000000E+00 0.  1.
         11   -1    0    0    0    0 -0.00000000000E+00 -0.00000000000E+00 -0.50000000000E+03  0.50000000000E+03  0.00000000000E+00 0.  1.
        -11    1    1    2    0    0  0.13419951733E+02 -0.13211715496E+02  0.49902263370E+03  0.49937784640E+03  0.00000000000E+00 0.  1.
         11    1    1    2    0    0  0.45468431098E+01  0.76215422909E+00 -0.14090087302E+03  0.14097627700E+03  0.00000000000E+00 0.  1.
        -15    1    1    2    0    0 -0.50842900874E+00  0.10317266873E+02 -0.23796211474E+03  0.23819284262E+03  0.17770000000E+01 0.  1.
         15    1    1    2    0    0 -0.17458365834E+02  0.21322943941E+01 -0.12015964595E+03  0.12145303397E+03  0.17770000000E+01 0. -1.
</event>
<event>
 6   1  0.3798113E-04  0.5002425E+03  0.7546771E-02  0.9399267E-01
        -11   -1    0    0    0    0  0.00000000000E+00  0.00000000000E+00  0.50000000000E+03  0.50000000000E+03  0.00000000000E+00 0. -1.
         11   -1    0    0    0    0 -0.00000000000E+00 -0.00000000000E+00 -0.50000000000E+03  0.50000000000E+03  0.00000000000E+00 0. -1.
        -11    1    1    2    0    0 -0.82783272041E+01  0.13980871869E+02  0.49949332227E+03  0.49975751567E+03  0.00000000000E+00 0. -1.
         11    1    1    2    0    0 -0.23991139842E+01 -0.84736439090E+01 -0.37144829030E+03  0.37155267561E+03  0.00000000000E+00 0. -1.
        -15    1    1    2    0    0  0.73736728237E+01 -0.40957976280E+01 -0.75046164471E+02  0.75539599813E+02  0.17770000000E+01 0. -1.
         15    1    1    2    0    0  0.33037683646E+01 -0.14114303323E+01 -0.52998867503E+02  0.53150208904E+02  0.17770000000E+01 0. -1.
</event>
<event>
 6   1  0.3798113E-04  0.5017047E+03  0.7546771E-02  0.9396003E-01
        -11   -1    0    0    0    0  0.00000000000E+00  0.00000000000E+00  0.50000000000E+03  0.50000000000E+03  0.00000000000E+00 0. -1.
         11   -1    0    0    0    0 -0.00000000000E+00 -0.00000000000E+00 -0.50000000000E+03  0.50000000000E+03  0.00000000000E+00 0.  1.
        -11    1    1    2    0    0  0.97627320341E+01 -0.19273846000E+02  0.27643749365E+03  0.27728050774E+03  0.00000000000E+00 0. -1.
         11    1    1    2    0    0 -0.46459038002E+01 -0.11712434321E+02 -0.49813599375E+03  0.49829532790E+03  0.00000000000E+00 0.  1.
        -15    1    1    2    0    0  0.27868912807E+01  0.14964829086E+02  0.13630424157E+03  0.13716310317E+03  0.17770000000E+01 0. -1.
         15    1    1    2    0    0 -0.79037195145E+01  0.16021451235E+02  0.85394258526E+02  0.87261061190E+02  0.17770000000E+01 0.  1.
</event>
<event>
 6   1  0.3798113E-04  0.4916269E+03  0.7546771E-02  0.9418743E-01
        -11   -1    0    0    0    0  0.00000000000E+00  0.00000000000E+00  0.50000000000E+03  0.50000000000E+03  0.00000000000E+00 0.  1.
         11   -1    0    0    0    0 -0.00000000000E+00 -0.00000000000E+00 -0.50000000000E+03  0.50000000000E+03  0.00000000000E+00 0.  1.
        -11    1    1    2    0    0 -0.32493169642E+01 -0.63454551154E+01  0.16030316805E+02  0.17544056492E+02  0.00000000000E+00 0.  1.
         11    1    1    2    0    0  0.58321151981E+01 -0.95596870036E+01 -0.49856079411E+03  0.49868654143E+03  0.00000000000E+00 0.  1.
        -15    1    1    2    0    0 -0.13714800290E+02  0.18277217823E+02  0.34237415513E+03  0.34314045560E+03  0.17770000000E+01 0.  1.
         15    1    1    2    0    0  0.11132002056E+02 -0.23720757036E+01  0.14015632217E+03  0.14062894647E+03  0.17770000000E+01 0. -1.
</event>
<event>
 6   1  0.3798113E-04  0.5092641E+03  0.7546771E-02  0.9379316E-01
        -11   -1    0    0    0    0  0.00000000000E+00  0.00000000000E+00  0.50000000000E+03  0.50000000000E+03  0.00000000000E+00 0. -1.
         11   -1    0    0    0    0 -0.00000000000E+00 -0.00000000000E+00 -0.50000000000E+03  0.50000000000E+03  0.00000000000E+00 0. -1.
        -11    1    1    2    0    0 -0.57901412102E+00 -0.82754685722E+01  0.47331123038E+03  0.47338392394E+03  0.00000000000E+00 0. -1.
         11    1    1    2    0    0  0.35831819876E+01  0.15275651928E+02 -0.49048502154E+03  0.49073591787E+03  0.00000000000E+00 0. -1.
        -15    1    1    2    0    0  0.49106193652E+01  0.10588034158E+02  0.90555981490E+01  0.14878919205E+02  0.17770000000E+01 0. -1.
         15    1    1    2    0    0 -0.79147872318E+01 -0.17588217513E+02  0.81181930105E+01  0.21001238987E+02  0.17770000000E+01 0. -1.
</event>
<event>
 6   1  0.3798113E-04  0.5076436E+03  0.7546771E-02  0.9382867E-01
        -11   -1    0    0    0    0  0.00000000000E+00  0.00000000000E+00  0.50000000000E+03  0.50000000000E+03  0.00000000000E+00 0. -1.
         11   -1    0    0    0    0 -0.00000000000E+00 -0.00000000000E+00 -0.50000000000E+03  0.50000000000E+03  0.00000000000E+00 0.  1.
        -11    1    1    2    0    0 -0.13801217108E+02 -0.41007168871E+01  0.49214584462E+03  0.49235639718E+03  0.00000000000E+00 0. -1.
         11    1    1    2    0    0  0.61032801234E+01  0.54765821938E+01 -0.48178988180E+03  0.48185966129E+03  0.00000000000E+00 0.  1.
        -15    1    1    2    0    0  0.11107551915E+02  0.74988234834E+01 -0.36129060951E+01  0.13993601489E+02  0.17770000000E+01 0.  1.
         15    1    1    2    0    0 -0.34096149304E+01 -0.88746887901E+01 -0.67430567250E+01  0.11790340033E+02  0.17770000000E+01 0. -1.
</event>
<event>
 6   1  0.3798113E-04  0.5005269E+03  0.7546771E-02  0.9398631E-01
        -11   -1    0    0    0    0  0.00000000000E+00  0.00000000000E+00  0.50000000000E+03  0.50000000000E+03  0.00000000000E+00 0. -1.
         11   -1    0    0    0    0 -0.00000000000E+00 -0.00000000000E+00 -0.50000000000E+03  0.50000000000E+03  0.00000000000E+00 0.  1.
        -11    1    1    2    0    0 -0.80678287572E+01  0.11805186423E+02  0.20668084982E+03  0.20717486809E+03  0.00000000000E+00 0. -1.
         11    1    1    2    0    0  0.81821687620E+01  0.11861474920E+01 -0.49940464687E+03  0.49947307851E+03  0.00000000000E+00 0.  1.
        -15    1    1    2    0    0 -0.62690893988E+01 -0.29465777689E+01  0.12637740925E+03  0.12657958406E+03  0.17770000000E+01 0.  1.
         15    1    1    2    0    0  0.61547493941E+01 -0.10044756146E+02  0.16634638780E+03  0.16677246934E+03  0.17770000000E+01 0. -1.
</event>
<event>
 6   1  0.3798113E-04  0.5006682E+03  0.7546771E-02  0.9398316E-01
        -11   -1    0    0    0    0  0.00000000000E+00  0.00000000000E+00  0.50000000000E+03  0.50000000000E+03  0.00000000000E+00 0. -1.
         11   -1    0    0    0    0 -0.00000000000E+00 -0.00000000000E+00 -0.50000000000E+03  0.50000000000E+03  0.00000000000E+00 0.  1.
        -11    1    1    2    0    0  0.24628916258E+02 -0.63523388403E+01  0.29999778553E+03  0.30107408896E+03  0.00000000000E+00 0. -1.
         11    1    1    2    0    0 -0.14079888874E+02  0.81561477419E+01 -0.49906664692E+03  0.49933183764E+03  0.00000000000E+00 0.  1.
        -15    1    1    2    0    0  0.44471794323E+00  0.19693471156E+01  0.32942738222E+02  0.33052349881E+02  0.17770000000E+01 0.  1.
         15    1    1    2    0    0 -0.10993745327E+02 -0.37731560172E+01  0.16612612317E+03  0.16654172351E+03  0.17770000000E+01 0. -1.
</event>
<event>
 6   1  0.3798113E-04  0.5003228E+03  0.7546771E-02  0.9399088E-01
        -11   -1    0    0    0    0  0.00000000000E+00  0.00000000000E+00  0.50000000000E+03  0.50000000000E+03  0.00000000000E+00 0.  1.
         11   -1    0    0    0    0 -0.00000000000E+00 -0.00000000000E+00 -0.50000000000E+03  0.50000000000E+03  0.00000000000E+00 0.  1.
        -11    1    1    2    0    0  0.19574482004E+02  0.33838254631E+01  0.23512297351E+03  0.23596063928E+03  0.00000000000E+00 0.  1.
         11    1    1    2    0    0 -0.15900529221E+02 -0.47536957419E+01 -0.49940148891E+03  0.49967716735E+03  0.00000000000E+00 0.  1.
        -15    1    1    2    0    0  0.74582406194E-01 -0.79081355615E+00  0.88984879973E+02  0.89006165750E+02  0.17770000000E+01 0.  1.
         15    1    1    2    0    0 -0.37485351895E+01  0.21606838349E+01  0.17529363543E+03  0.17535602761E+03  0.17770000000E+01 0. -1.
</event>
<event>
 6   1  0.3798113E-04  0.5015539E+03  0.7546771E-02  0.9396339E-01
        -11   -1    0    0    0    0  0.00000000000E+00  0.00000000000E+00  0.50000000000E+03  0.50000000000E+03  0.00000000000E+00 0. -1.
         11   -1    0    0    0    0 -0.00000000000E+00 -0.00000000000E+00 -0.50000000000E+03  0.50000000000E+03  0.00000000000E+00 0. -1.
        -11    1    1    2    0    0  0.95856072396E+01  0.12227903784E+02  0.40696111806E+03  0.40725760534E+03  0.00000000000E+00 0. -1.
         11    1    1    2    0    0 -0.49656308777E+01  0.57367352586E+01 -0.49838836265E+03  0.49844611308E+03  0.00000000000E+00 0. -1.
        -15    1    1    2    0    0  0.21462267504E+00  0.47472952033E+00  0.27536379017E+02  0.27598574770E+02  0.17770000000E+01 0. -1.
         15    1    1    2    0    0 -0.48345990369E+01 -0.18439368563E+02  0.63890865572E+02  0.66697706807E+02  0.17770000000E+01 0.  1.
</event>
<event>
 6   1  0.3798113E-04  0.5006685E+03  0.7546771E-02  0.9398315E-01
        -11   -1    0    0    0    0  0.00000000000E+00  0.00000000000E+00  0.50000000000E+03  0.50000000000E+03  0.00000000000E+00 0. -1.
         11   -1    0    0    0    0 -0.00000000000E+00 -0.00000000000E+00 -0.50000000000E+03  0.50000000000E+03  0.00000000000E+00 0. -1.
        -11    1    1    2    0    0 -0.15891803591E+02 -0.34785508349E+01  0.49906640789E+03  0.49933148231E+03  0.00000000000E+00 0. -1.
         11    1    1    2    0    0  0.59997053677E+01 -0.63957065916E+00 -0.39265482685E+03  0.39270118228E+03  0.00000000000E+00 0. -1.
        -15    1    1    2    0    0  0.11148499537E+02  0.14876054463E+01 -0.43579352291E+02  0.45042420972E+02  0.17770000000E+01 0.  1.
         15    1    1    2    0    0 -0.12564013143E+01  0.26305160478E+01 -0.62832228746E+02  0.62924914439E+02  0.17770000000E+01 0. -1.
</event>
<event>
 6   1  0.3798113E-04  0.5023969E+03  0.7546771E-02  0.9394462E-01
        -11   -1    0    0    0    0  0.00000000000E+00  0.00000000000E+00  0.50000000000E+03  0.50000000000E+03  0.00000000000E+00 0. -1.
         11   -1    0    0    0    0 -0.00000000000E+00 -0.00000000000E+00 -0.50000000000E+03  0.50000000000E+03  0.00000000000E+00 0.  1.
        -11    1    1    2    0    0 -0.20529127382E+02 -0.47125195709E+01  0.49715710398E+03  0.49760309379E+03  0.00000000000E+00 0. -1.
         11    1    1    2    0    0  0.17806499966E+02 -0.26187989878E+01 -0.42392649356E+03  0.42430838018E+03  0.00000000000E+00 0.  1.
        -15    1    1    2    0    0  0.12863828945E+02  0.97351092076E+01 -0.38408400249E+02  0.41696683143E+02  0.17770000000E+01 0. -1.
         15    1    1    2    0    0 -0.10141201529E+02 -0.24037906490E+01 -0.34822210178E+02  0.36391842886E+02  0.17770000000E+01 0.  1.
</event>
<event>
 6   1  0.3798113E-04  0.5039979E+03  0.7546771E-02  0.9390908E-01
        -11   -1    0    0    0    0  0.00000000000E+00  0.00000000000E+00  0.50000000000E+03  0.50000000000E+03  0.00000000000E+00 0.  1.
         11   -1    0    0    0    0 -0.00000000000E+00 -0.00000000000E+00 -0.50000000000E+03  0.50000000000E+03  0.00000000000E+00 0.  1.
        -11    1    1    2    0    0  0.27863897463E+02  0.16867438660E+02  0.21594165379E+03  0.21838430601E+03  0.00000000000E+00 0.  1.
         11    1    1    2    0    0  0.11009784859E+02 -0.14815797311E+01 -0.49587768270E+03  0.49600210346E+03  0.00000000000E+00 0.  1.
        -15    1    1    2    0    0 -0.52819689371E+01 -0.55528517233E+01  0.17095717851E+03  0.17113809620E+03  0.17770000000E+01 0. -1.
         15    1    1    2    0    0 -0.33591713384E+02 -0.98330072051E+01  0.10897885039E+03  0.11447549432E+03  0.17770000000E+01 0.  1.
</event>
<event>
 6   1  0.3798113E-04  0.5013064E+03  0.7546771E-02  0.9396891E-01
        -11   -1    0    0    0    0  0.00000000000E+00  0.00000000000E+00  0.50000000000E+03  0.50000000000E+03  0.00000000000E+00 0. -1.
         11   -1    0    0    0    0 -0.00000000000E+00 -0.00000000000E+00 -0.50000000000E+03  0.50000000000E+03  0.00000000000E+00 0. -1.
        -11    1    1    2    0    0 -0.89230908927E+01  0.85968737257E+01  0.13304435623E+03  0.13362009023E+03  0.00000000000E+00 0. -1.
         11    1    1    2    0    0 -0.11470534913E+02  0.16761928450E+01 -0.49855887095E+03  0.49869362398E+03  0.00000000000E+00 0. -1.
        -15    1    1    2    0    0  0.40825644861E+01 -0.26187213303E+01  0.69217255859E+01  0.86367267107E+01  0.17770000000E+01 0.  1.
         15    1    1    2    0    0  0.16311061320E+02 -0.76543452403E+01  0.35859278914E+03  0.35904955908E+03  0.17770000000E+01 0. -1.
</event>
<event>
 6   1  0.3798113E-04  0.4913564E+03  0.7546771E-02  0.9419361E-01
        -11   -1    0    0    0    0  0.00000000000E+00  0.00000000000E+00  0.50000000000E+03  0.50000000000E+03  0.00000000000E+00 0.  1.
         11   -1    0    0    0    0 -0.00000000000E+00 -0.00000000000E+00 -0.50000000000E+03  0.50000000000E+03  0.00000000000E+00 0. -1.
        -11    1    1    2    0    0  0.75876811457E+01  0.15675174656E+02  0.13990950566E+01  0.17471161170E+02  0.00000000000E+00 0.  1.
         11    1    1    2    0    0 -0.14102165822E+02 -0.66534018351E+01 -0.49160736542E+03  0.49185459291E+03  0.00000000000E+00 0. -1.
        -15    1    1    2    0    0 -0.57863679277E+01 -0.56745311071E+01  0.22674445437E+03  0.22689620462E+03  0.17770000000E+01 0. -1.
         15    1    1    2    0    0  0.12300852604E+02 -0.33472417134E+01  0.26346381599E+03  0.26377804129E+03  0.17770000000E+01 0.  1.
</event>
<event>
 6   1  0.3798113E-04  0.4863489E+03  0.7546771E-02  0.9430884E-01
        -11   -1    0    0    0    0  0.00000000000E+00  0.00000000000E+00  0.50000000000E+03  0.50000000000E+03  0.00000000000E+00 0.  1.
         11   -1    0    0    0    0 -0.00000000000E+00 -0.00000000000E+00 -0.50000000000E+03  0.50000000000E+03  0.00000000000E+00 0. -1.
        -11    1    1    2    0    0  0.22466707190E+01  0.15049099142E+02  0.48687406675E+03  0.48711177340E+03  0.00000000000E+00 0.  1.
         11    1    1    2    0    0 -0.54374926749E+01  0.69128686376E+01 -0.48576013453E+03  0.48583974969E+03  0.00000000000E+00 0. -1.
        -15    1    1    2    0    0 -0.27392614513E+01 -0.10614968152E+02 -0.66966058503E+01  0.12968552775E+02  0.17770000000E+01 0.  1.
         15    1    1    2    0    0  0.59300834072E+01 -0.11346999627E+02  0.55826736354E+01  0.14079924136E+02  0.17770000000E+01 0. -1.
</event>
<event>
 6   1  0.3798113E-04  0.4874771E+03  0.7546771E-02  0.9428275E-01
        -11   -1    0    0    0    0  0.00000000000E+00  0.00000000000E+00  0.50000000000E+03  0.50000000000E+03  0.00000000000E+00 0. -1.
         11   -1    0    0    0    0 -0.00000000000E+00 -0.00000000000E+00 -0.50000000000E+03  0.50000000000E+03  0.00000000000E+00 0.  1.
        -11    1    1    2    0    0  0.19992065201E+02 -0.12913273709E+02  0.48399992135E+03  0.48458472859E+03  0.00000000000E+00 0. -1.
         11    1    1    2    0    0 -0.13940513932E+02  0.21048279209E+00 -0.49029311089E+03  0.49049130147E+03  0.00000000000E+00 0.  1.
        -15    1    1    2    0    0 -0.94518708124E+01  0.55069162091E+01 -0.40086095253E+01  0.11785188472E+02  0.17770000000E+01 0.  1.
         15    1    1    2    0    0  0.34003195427E+01  0.71958747076E+01  0.10301799057E+02  0.13138781474E+02  0.17770000000E+01 0. -1.
</event>
<event>
 6   1  0.3798113E-04  0.5002109E+03  0.7546771E-02  0.9399338E-01
        -11   -1    0    0    0    0  0.00000000000E+00  0.00000000000E+00  0.50000000000E+03  0.50000000000E+03  0.00000000000E+00 0. -1.
         11   -1    0    0    0    0 -0.00000000000E+00 -0.00000000000E+00 -0.50000000000E+03  0.50000000000E+03  0.00000000000E+00 0. -1.
        -11    1    1    2    0    0 -0.67699600783E+01  0.13442594211E+02  0.18907880779E+03  0.18967691281E+03  0.00000000000E+00 0. -1.
         11    1    1    2    0    0 -0.92608024012E+00 -0.19598883694E+02 -0.49940381943E+03  0.49978910425E+03  0.00000000000E+00 0. -1.
        -15    1    1    2    0    0  0.75320259746E+01  0.47153862807E+01  0.25680382166E+03  0.25696366831E+03  0.17770000000E+01 0.  1.
         15    1    1    2    0    0  0.16401434385E+00  0.14409032023E+01  0.53521189979E+02  0.53570314620E+02  0.17770000000E+01 0. -1.
</event>
<event>
 6   1  0.3798113E-04  0.5010305E+03  0.7546771E-02  0.9397507E-01
        -11   -1    0    0    0    0  0.00000000000E+00  0.00000000000E+00  0.50000000000E+03  0.50000000000E+03  0.00000000000E+00 0.  1.
         11   -1    0    0    0    0 -0.00000000000E+00 -0.00000000000E+00 -0.50000000000E+03  0.50000000000E+03  0.00000000000E+00 0. -1.
        -11    1    1    2    0    0 -0.59787417796E+01  0.10741319807E+02  0.26479257727E+03  0.26507778157E+03  0.00000000000E+00 0.  1.
         11    1    1    2    0    0 -0.89830430757E+01  0.16862073106E+01 -0.49888579880E+03  0.49896951670E+03  0.00000000000E+00 0. -1.
        -15    1    1    2    0    0  0.48148146455E+01 -0.83588806303E+00  0.95438526305E+01  0.10868486599E+02  0.17770000000E+01 0. -1.
         15    1    1    2    0    0  0.10146970210E+02 -0.11591639055E+02  0.22454936889E+03  0.22508421513E+03  0.17770000000E+01 0.  1.
</event>
<event>
 6   1  0.3798113E-04  0.5008906E+03  0.7546771E-02  0.9397819E-01
        -11   -1    0    0    0    0  0.00000000000E+00  0.00000000000E+00  0.50000000000E+03  0.50000000000E+03  0.00000000000E+00 0.  1.
         11   -1    0    0    0    0 -0.00000000000E+00 -0.00000000000E+00 -0.50000000000E+03  0.50000000000E+03  0.00000000000E+00 0. -1.
        -11    1    1    2    0    0 -0.14052090110E+02  0.18874318083E+01  0.49890794916E+03  0.49910937216E+03  0.00000000000E+00 0.  1.
         11    1    1    2    0    0 -0.24635123999E+01  0.61953151664E+01 -0.39568835259E+03  0.39574451759E+03  0.00000000000E+00 0. -1.
        -15    1    1    2    0    0  0.12281999248E+02 -0.69552971242E+01 -0.89759011386E+02  0.90879378946E+02  0.17770000000E+01 0. -1.
         15    1    1    2    0    0  0.42336032622E+01 -0.11274498505E+01 -0.13460585187E+02  0.14266731312E+02  0.17770000000E+01 0.  1.
</event>
<event>
 6   1  0.3798113E-04  0.5076741E+03  0.7546771E-02  0.9382800E-01
        -11   -1    0    0    0    0  0.00000000000E+00  0.00000000000E+00  0.50000000000E+03  0.50000000000E+03  0.00000000000E+00 0.  1.
         11   -1    0    0    0    0 -0.00000000000E+00 -0.00000000000E+00 -0.50000000000E+03  0.50000000000E+03  0.00000000000E+00 0. -1.
        -11    1    1    2    0    0  0.21260644638E+02 -0.43165971121E+02  0.35924827458E+03  0.36245639581E+03  0.00000000000E+00 0.  1.
         11    1    1    2    0    0  0.74674496518E+01  0.13259155581E+01 -0.49226747667E+03  0.49232589760E+03  0.00000000000E+00 0. -1.
        -15    1    1    2    0    0 -0.24576702440E+02  0.44292037608E+02  0.12928614079E+03  0.13886634880E+03  0.17770000000E+01 0.  1.
         15    1    1    2    0    0 -0.41513918493E+01 -0.24519820446E+01  0.37330612934E+01  0.63513577961E+01  0.17770000000E+01 0. -1.
</event>
<event>
 6   1  0.3798113E-04  0.5013329E+03  0.7546771E-02  0.9396832E-01
        -11   -1    0    0    0    0  0.00000000000E+00  0.00000000000E+00  0.50000000000E+03  0.50000000000E+03  0.00000000000E+00 0. -1.
         11   -1    0    0    0    0 -0.00000000000E+00 -0.00000000000E+00 -0.50000000000E+03  0.50000000000E+03  0.00000000000E+00 0.  1.
        -11    1    1    2    0    0  0.13228741084E+01  0.12283224562E+02  0.49851399178E+03  0.49866705084E+03  0.00000000000E+00 0. -1.
         11    1    1    2    0    0 -0.70937565217E+01 -0.15733107262E+01 -0.43806768444E+03  0.43812794117E+03  0.00000000000E+00 0.  1.
        -15    1    1    2    0    0 -0.39821657299E+01 -0.54118076901E+01 -0.17987718739E+02  0.19283699355E+02  0.17770000000E+01 0.  1.
         15    1    1    2    0    0  0.97530481432E+01 -0.52981061453E+01 -0.42458588600E+02  0.43921308630E+02  0.17770000000E+01 0. -1.
</event>
<event>
 6   1  0.3798113E-04  0.5000454E+03  0.7546771E-02  0.9399708E-01
        -11   -1    0    0    0    0  0.00000000000E+00  0.00000000000E+00  0.50000000000E+03  0.50000000000E+03  0.00000000000E+00 0. -1.
         11   -1    0    0    0    0 -0.00000000000E+00 -0.00000000000E+00 -0.50000000000E+03  0.50000000000E+03  0.00000000000E+00 0. -1.
        -11    1    1    2    0    0  0.23195722047E+01 -0.29218020844E-01  0.85275526395E+02  0.85307072806E+02  0.00000000000E+00 0. -1.
         11    1    1    2    0    0 -0.71992938150E+01  0.76539449936E+01 -0.49984412677E+03  0.49995456171E+03  0.00000000000E+00 0. -1.
        -15    1    1    2    0    0  0.57516368191E+01 -0.60688602464E+01  0.36998485326E+03  0.37008358753E+03  0.17770000000E+01 0. -1.
         15    1    1    2    0    0 -0.87191520876E+00 -0.15558667264E+01  0.44583747122E+02  0.44654777951E+02  0.17770000000E+01 0.  1.
</event>
<event>
 6   1  0.3798113E-04  0.5001421E+03  0.7546771E-02  0.9399492E-01
        -11   -1    0    0    0    0  0.00000000000E+00  0.00000000000E+00  0.50000000000E+03  0.50000000000E+03  0.00000000000E+00 0.  1.
         11   -1    0    0    0    0 -0.00000000000E+00 -0.00000000000E+00 -0.50000000000E+03  0.50000000000E+03  0.00000000000E+00 0.  1.
        -11    1    1    2    0    0 -0.12857308120E+02  0.36305246682E+01  0.49967929347E+03  0.49985786720E+03  0.00000000000E+00 0.  1.
         11    1    1    2    0    0  0.65191143918E+01  0.75026162716E+00 -0.38205625918E+03  0.38211261026E+03  0.00000000000E+00 0.  1.
        -15    1    1    2    0    0  0.52218710753E+01 -0.24107788489E+01 -0.52696488052E+02  0.53039206010E+02  0.17770000000E+01 0. -1.
         15    1    1    2    0    0  0.11163226526E+01 -0.19700074465E+01 -0.64926546245E+02  0.64990316524E+02  0.17770000000E+01 0.  1.
</event>
<event>
 6   1  0.3798113E-04  0.5006985E+03  0.7546771E-02  0.9398248E-01
        -11   -1    0    0    0    0  0.00000000000E+00  0.00000000000E+00  0.50000000000E+03  0.50000000000E+03  0.00000000000E+00 0. -1.
         11   -1    0    0    0    0 -0.00000000000E+00 -0.00000000000E+00 -0.50000000000E+03  0.50000000000E+03  0.00000000000E+00 0.  1.
        -11    1    1    2    0    0 -0.33584162904E+02  0.15890825255E+02  0.26142421039E+03  0.26405119221E+03  0.00000000000E+00 0. -1.
         11    1    1    2    0    0  0.36377588946E+02 -0.13550197401E+02 -0.49779014812E+03  0.49930148047E+03  0.00000000000E+00 0.  1.
        -15    1    1    2    0    0  0.19565675110E+01 -0.34672414786E+01  0.17723393139E+03  0.17728754633E+03  0.17770000000E+01 0.  1.
         15    1    1    2    0    0 -0.47499935525E+01  0.11266136248E+01  0.59132006342E+02  0.59359780997E+02  0.17770000000E+01 0.  1.
</event>
<event>
 6   1  0.3798113E-04  0.5049041E+03  0.7546771E-02  0.9388903E-01
        -11   -1    0    0    0    0  0.00000000000E+00  0.00000000000E+00  0.50000000000E+03  0.50000000000E+03  0.00000000000E+00 0. -1.
         11   -1    0    0    0    0 -0.00000000000E+00 -0.00000000000E+00 -0.50000000000E+03  0.50000000000E+03  0.00000000000E+00 0.  1.
        -11    1    1    2    0    0 -0.11355437617E+02 -0.83952534259E+01  0.49489443062E+03  0.49509587324E+03  0.00000000000E+00 0. -1.
         11    1    1    2    0    0 -0.16379192323E+01 -0.65116576387E+01 -0.47597114044E+03  0.47601849859E+03  0.00000000000E+00 0.  1.
        -15    1    1    2    0    0  0.27373692951E+01  0.11882985743E+01 -0.24700992039E+00  0.34819516165E+01  0.17770000000E+01 0. -1.
         15    1    1    2    0    0  0.10255987555E+02  0.13718612490E+02 -0.18676280255E+02  0.25403676555E+02  0.17770000000E+01 0.  1.
</event>
<event>
 6   1  0.3798113E-04  0.4856113E+03  0.7546771E-02  0.9432594E-01
        -11   -1    0    0    0    0  0.00000000000E+00  0.00000000000E+00  0.50000000000E+03  0.50000000000E+03  0.00000000000E+00 0. -1.
         11   -1    0    0    0    0 -0.00000000000E+00 -0.00000000000E+00 -0.50000000000E+03  0.50000000000E+03  0.00000000000E+00 0. -1.
        -11    1    1    2    0    0  0.99915294283E+01  0.26665213295E+01  0.48611905109E+03  0.48622903331E+03  0.00000000000E+00 0. -1.
         11    1    1    2    0    0  0.13387558350E+02 -0.29256339129E+01 -0.48508198244E+03  0.48527550498E+03  0.00000000000E+00 0. -1.
        -15    1    1    2    0    0 -0.75793735423E+01  0.76520806664E+01 -0.99569127186E+00  0.10961312509E+02  0.17770000000E+01 0. -1.
         15    1    1    2    0    0 -0.15799714236E+02 -0.73929680830E+01 -0.41377386386E-01  0.17534149198E+02  0.17770000000E+01 0.  1.
</event>
<event>
 6   1  0.3798113E-04  0.5042599E+03  0.7546771E-02  0.9390328E-01
        -11   -1    0    0    0    0  0.00000000000E+00  0.00000000000E+00  0.50000000000E+03  0.50000000000E+03  0.00000000000E+00 0. -1.
         11   -1    0    0    0    0 -0.00000000000E+00 -0.00000000000E+00 -0.50000000000E+03  0.50000000000E+03  0.00000000000E+00 0. -1.
        -11    1    1    2    0    0  0.72419531364E+01 -0.48408931221E+01  0.49566353222E+03  0.49574007031E+03  0.00000000000E+00 0. -1.
         11    1    1    2    0    0 -0.19544230729E+01 -0.75441706494E+01 -0.47923501349E+03  0.47929837516E+03  0.00000000000E+00 0. -1.
        -15    1    1    2    0    0 -0.67395445633E+00  0.13284374124E+02 -0.96751009380E+01  0.16543703262E+02  0.17770000000E+01 0.  1.
         15    1    1    2    0    0 -0.46135756072E+01 -0.89931035254E+00 -0.67534177983E+01  0.84178512669E+01  0.17770000000E+01 0. -1.
</event>
<event>
 6   1  0.3798113E-04  0.5002683E+03  0.7546771E-02  0.9399210E-01
        -11   -1    0    0    0    0  0.00000000000E+00  0.00000000000E+00  0.50000000000E+03  0.50000000000E+03  0.00000000000E+00 0. -1.
         11   -1    0    0    0    0 -0.00000000000E+00 -0.00000000000E+00 -0.50000000000E+03  0.50000000000E+03  0.00000000000E+00 0.  1.
        -11    1    1    2    0    0  0.25702333973E+02 -0.18056780541E+02  0.49874354176E+03  0.49973170576E+03  0.00000000000E+00 0. -1.
         11    1    1    2    0    0 -0.98562030105E+01  0.13133836023E+02 -0.12662038701E+03  0.12768071425E+03  0.00000000000E+00 0.  1.
        -15    1    1    2    0    0 -0.52608935303E+01  0.55013065450E+01 -0.16753763608E+03  0.16771988137E+03  0.17770000000E+01 0. -1.
         15    1    1    2    0    0 -0.10585237433E+02 -0.57836202754E+00 -0.20458551868E+03  0.20486769862E+03  0.17770000000E+01 0. -1.
</event>
<event>
 6   1  0.3798113E-04  0.5009835E+03  0.7546771E-02  0.9397612E-01
        -11   -1    0    0    0    0  0.00000000000E+00  0.00000000000E+00  0.50000000000E+03  0.50000000000E+03  0.00000000000E+00 0. -1.
         11   -1    0    0    0    0 -0.00000000000E+00 -0.00000000000E+00 -0.50000000000E+03  0.50000000000E+03  0.00000000000E+00 0.  1.
        -11    1    1    2    0    0  0.25690702546E+01  0.14428180616E+02  0.82423205376E+02  0.83715932189E+02  0.00000000000E+00 0. -1.
         11    1    1    2    0    0 -0.10901854779E+02 -0.57450641311E+01 -0.49886430738E+03  0.49901648608E+03  0.00000000000E+00 0.  1.
        -15    1    1    2    0    0 -0.27792638099E+01 -0.41496376291E+01  0.32283814270E+03  0.32288166239E+03  0.17770000000E+01 0. -1.
         15    1    1    2    0    0  0.11112048334E+02 -0.45334788558E+01  0.93602959308E+02  0.94385919336E+02  0.17770000000E+01 0.  1.
</event>
<event>
 6   1  0.3798113E-04  0.5025681E+03  0.7546771E-02  0.9394082E-01
        -11   -1    0    0    0    0  0.00000000000E+00  0.00000000000E+00  0.50000000000E+03  0.50000000000E+03  0.00000000000E+00 0.  1.
         11   -1    0    0    0    0 -0.00000000000E+00 -0.00000000000E+00 -0.50000000000E+03  0.50000000000E+03  0.00000000000E+00 0.  1.
        -11    1    1    2    0    0  0.18180479437E+00 -0.13680142660E+02  0.14532060555E+02  0.19958961400E+02  0.00000000000E+00 0.  1.
         11    1    1    2    0    0 -0.12066382871E+02  0.18336077343E+02 -0.49694734709E+03  0.49743187986E+03  0.00000000000E+00 0.  1.
        -15    1    1    2    0    0  0.74184344361E+01 -0.43712044364E+01  0.33448069219E+03  0.33459622200E+03  0.17770000000E+01 0.  1.
         15    1    1    2    0    0  0.44661436409E+01 -0.28473024639E+00  0.14793459434E+03  0.14801293674E+03  0.17770000000E+01 0. -1.
</event>
<event>
 6   1  0.3798113E-04  0.5014618E+03  0.7546771E-02  0.9396545E-01
        -11   -1    0    0    0    0  0.00000000000E+00  0.00000000000E+00  0.50000000000E+03  0.50000000000E+03  0.00000000000E+00 0. -1.
         11   -1    0    0    0    0 -0.00000000000E+00 -0.00000000000E+00 -0.50000000000E+03  0.50000000000E+03  0.00000000000E+00 0. -1.
        -11    1    1    2    0    0  0.11224008013E+02  0.37095430094E+01  0.49839804656E+03  0.49853821506E+03  0.00000000000E+00 0. -1.
         11    1    1    2    0    0  0.79710540321E+01 -0.88591367124E+01 -0.40817498761E+03  0.40834892251E+03  0.00000000000E+00 0. -1.
        -15    1    1    2    0    0 -0.15837465125E+02 -0.74108137214E+00 -0.59662734395E+02  0.61759000216E+02  0.17770000000E+01 0.  1.
         15    1    1    2    0    0 -0.33575969203E+01  0.58906750751E+01 -0.30560324553E+02  0.31353862214E+02  0.17770000000E+01 0. -1.
</event>
<event>
 6   1  0.3798113E-04  0.5001784E+03  0.7546771E-02  0.9399411E-01
        -11   -1    0    0    0    0  0.00000000000E+00  0.00000000000E+00  0.50000000000E+03  0.50000000000E+03  0.00000000000E+00 0. -1.
         11   -1    0    0    0    0 -0.00000000000E+00 -0.00000000000E+00 -0.50000000000E+03  0.50000000000E+03  0.00000000000E+00 0.  1.
        -11    1    1    2    0    0 -0.59235123856E+01 -0.49407007016E+00  0.10155056521E+03  0.10172437957E+03  0.00000000000E+00 0. -1.
         11    1    1    2    0    0 -0.98071011501E+00  0.75370021713E+01 -0.49976384113E+03  0.49982163328E+03  0.00000000000E+00 0.  1.
        -15    1    1    2    0    0  0.49041787523E+01 -0.59408491849E+01  0.37156172260E+03  0.37164582076E+03  0.17770000000E+01 0. -1.
         15    1    1    2    0    0  0.20000437483E+01 -0.11020829162E+01  0.26651553322E+02  0.26808166390E+02  0.17770000000E+01 0. -1.
</event>
<event>
 6   1  0.3798113E-04  0.5008213E+03  0.7546771E-02  0.9397974E-01
        -11   -1    0    0    0    0  0.00000000000E+00  0.00000000000E+00  0.50000000000E+03  0.50000000000E+03  0.00000000000E+00 0. -1.
         11   -1    0    0    0    0 -0.00000000000E+00 -0.00000000000E+00 -0.50000000000E+03  0.50000000000E+03  0.00000000000E+00 0.  1.
        -11    1    1    2    0    0 -0.86745972699E+00  0.14291149937E+02  0.49897330730E+03  0.49917867628E+03  0.00000000000E+00 0. -1.
         11    1    1    2    0    0  0.57780430440E+01 -0.30317450650E+01 -0.44688628891E+03  0.44693392406E+03  0.00000000000E+00 0.  1.
        -15    1    1    2    0    0 -0.41510733384E+01 -0.10631969404E+02 -0.47240346269E+02  0.48632069952E+02  0.17770000000E+01 0. -1.
         15    1    1    2    0    0 -0.75950997866E+00 -0.62743546777E+00 -0.48466721257E+01  0.52553297107E+01  0.17770000000E+01 0. -1.
</event>
<event>
 6   1  0.3798113E-04  0.4885301E+03  0.7546771E-02  0.9425847E-01
        -11   -1    0    0    0    0  0.00000000000E+00  0.00000000000E+00  0.50000000000E+03  0.50000000000E+03  0.00000000000E+00 0. -1.
         11   -1    0    0    0    0 -0.00000000000E+00 -0.00000000000E+00 -0.50000000000E+03  0.50000000000E+03  0.00000000000E+00 0. -1.
        -11    1    1    2    0    0 -0.11488919008E+02  0.44049998385E+01  0.48301861808E+03  0.48317531466E+03  0.00000000000E+00 0. -1.
         11    1    1    2    0    0 -0.70581909673E+01 -0.62662764097E+01 -0.49403458350E+03  0.49412473523E+03  0.00000000000E+00 0. -1.
        -15    1    1    2    0    0  0.14594695460E+02 -0.80352766355E+00  0.87758629356E+01  0.17141303671E+02  0.17770000000E+01 0. -1.
         15    1    1    2    0    0  0.39524145153E+01  0.26648042347E+01  0.22401024835E+01  0.55586464402E+01  0.17770000000E+01 0.  1.
</event>
<event>
 6   1  0.3798113E-04  0.5019131E+03  0.7546771E-02  0.9395539E-01
        -11   -1    0    0    0    0  0.00000000000E+00  0.00000000000E+00  0.50000000000E+03  0.50000000000E+03  0.00000000000E+00 0.  1.
         11   -1    0    0    0    0 -0.00000000000E+00 -0.00000000000E+00 -0.50000000000E+03  0.50000000000E+03  0.00000000000E+00 0.  1.
        -11    1    1    2    0    0  0.53608132350E+01  0.29062051476E+02  0.34185713052E+03  0.34313210115E+03  0.00000000000E+00 0.  1.
         11    1    1    2    0    0 -0.14229491803E+02 -0.87285026403E+01 -0.49780705377E+03  0.49808686790E+03  0.00000000000E+00 0.  1.
        -15    1    1    2    0    0  0.56865687005E+01 -0.25499184715E+01  0.94079303427E+02  0.94302238628E+02  0.17770000000E+01 0. -1.
         15    1    1    2    0    0  0.31821098677E+01 -0.17783630365E+02  0.61870619824E+02  0.64478792316E+02  0.17770000000E+01 0.  1.
</event>
<event>
 6   1  0.3798113E-04  0.5012570E+03  0.7546771E-02  0.9397001E-01
        -11   -1    0    0    0    0  0.00000000000E+00  0.00000000000E+00  0.50000000000E+03  0.50000000000E+03  0.00000000000E+00 0.  1.
         11   -1    0    0    0    0 -0.00000000000E+00 -0.00000000000E+00 -0.50000000000E+03  0.50000000000E+03  0.00000000000E+00 0.  1.
        -11    1    1    2    0    0  0.26721644632E+01  0.21206079791E+02  0.35967145860E+03  0.36030597610E+03  0.00000000000E+00 0.  1.
         11    1    1    2    0    0  0.58588497696E+01 -0.10938628164E+02 -0.49858858827E+03  0.49874297996E+03  0.00000000000E+00 0.  1.
        -15    1    1    2    0    0  0.56681429666E+00  0.20059633630E+01  0.80390457988E+02  0.80437109794E+02  0.17770000000E+01 0.  1.
         15    1    1    2    0    0 -0.90978285294E+01 -0.12273414989E+02  0.58526671678E+02  0.60513934149E+02  0.17770000000E+01 0. -1.
</event>
<event>
 6   1  0.3798113E-04  0.5051783E+03  0.7546771E-02  0.9388297E-01
        -11   -1    0    0    0    0  0.00000000000E+00  0.00000000000E+00  0.50000000000E+03  0.50000000000E+03  0.00000000000E+00 0.  1.
         11   -1    0    0    0    0 -0.00000000000E+00 -0.00000000000E+00 -0.50000000000E+03  0.50000000000E+03  0.00000000000E+00 0. -1.
        -11    1    1    2    0    0  0.58019860251E+01 -0.86726878527E+01  0.49471168536E+03  0.49482171556E+03  0.00000000000E+00 0.  1.
         11    1    1    2    0    0 -0.61998187184E+01  0.63826418134E+01 -0.49117486501E+03  0.49125545685E+03  0.00000000000E+00 0. -1.
        -15    1    1    2    0    0  0.38891587795E+01 -0.34591657946E+01 -0.42199475715E+01  0.69323207162E+01  0.17770000000E+01 0. -1.
         15    1    1    2    0    0 -0.34913260862E+01  0.57492118338E+01  0.68312722226E+00  0.69905068738E+01  0.17770000000E+01 0.  1.
</event>
<event>
 6   1  0.3798113E-04  0.5021869E+03  0.7546771E-02  0.9394930E-01
        -11   -1    0    0    0    0  0.00000000000E+00  0.00000000000E+00  0.50000000000E+03  0.50000000000E+03  0.00000000000E+00 0. -1.
         11   -1    0    0    0    0 -0.00000000000E+00 -0.00000000000E+00 -0.50000000000E+03  0.50000000000E+03  0.00000000000E+00 0.  1.
        -11    1    1    2    0    0 -0.59650152158E+01 -0.45296742163E+01  0.45254090772E+03  0.45260288611E+03  0.00000000000E+00 0. -1.
         11    1    1    2    0    0 -0.42297188789E+01 -0.97685472152E+01 -0.49769930029E+03  0.49781312613E+03  0.00000000000E+00 0.  1.
        -15    1    1    2    0    0  0.49307865265E+01  0.14994998410E+01  0.20900022500E+02  0.21599301494E+02  0.17770000000E+01 0.  1.
         15    1    1    2    0    0  0.52639475682E+01  0.12798721590E+02  0.24258370067E+02  0.27984686270E+02  0.17770000000E+01 0. -1.
</event>
<event>
 6   1  0.3798113E-04  0.5013804E+03  0.7546771E-02  0.9396726E-01
        -11   -1    0    0    0    0  0.00000000000E+00  0.00000000000E+00  0.50000000000E+03  0.50000000000E+03  0.00000000000E+00 0.  1.
         11   -1    0    0    0    0 -0.00000000000E+00 -0.00000000000E+00 -0.50000000000E+03  0.50000000000E+03  0.00000000000E+00 0.  1.
        -11    1    1    2    0    0  0.64122621897E+02  0.72167180096E+01  0.49442666599E+03  0.49861961423E+03  0.00000000000E+00 0.  1.
         11    1    1    2    0    0  0.56131471177E+01  0.35194698621E+01 -0.76386137012E+02  0.76672915794E+02  0.00000000000E+00 0.  1.
        -15    1    1    2    0    0 -0.12145698790E+02 -0.99386528576E+01 -0.59239930413E+02  0.61309231801E+02  0.17770000000E+01 0. -1.
         15    1    1    2    0    0 -0.57590070225E+02 -0.79753501416E+00 -0.35880059856E+03  0.36339823817E+03  0.17770000000E+01 0.  1.
</event>
<event>
 6   1  0.3798113E-04  0.4617035E+03  0.7546771E-02  0.9489830E-01
        -11   -1    0    0    0    0  0.00000000000E+00  0.00000000000E+00  0.50000000000E+03  0.50000000000E+03  0.00000000000E+00 0.  1.
         11   -1    0    0    0    0 -0.00000000000E+00 -0.00000000000E+00 -0.50000000000E+03  0.50000000000E+03  0.00000000000E+00 0.  1.
        -11    1    1    2    0    0  0.67968259174E+02  0.18758039699E+02  0.45243045624E+03  0.45789176236E+03  0.00000000000E+00 0.  1.
         11    1    1    2    0    0 -0.31531398646E+02 -0.10938756187E+02 -0.46515885435E+03  0.46635463466E+03  0.00000000000E+00 0.  1.
        -15    1    1    2    0    0 -0.54454691425E+02 -0.75319125899E+01  0.16153831763E+02  0.57324925949E+02  0.17770000000E+01 0. -1.
         15    1    1    2    0    0  0.18017830897E+02 -0.28737092241E+00 -0.34254336464E+01  0.18428677027E+02  0.17770000000E+01 0.  1.
</event>
<event>
 6   1  0.3798113E-04  0.5003206E+03  0.7546771E-02  0.9399093E-01
        -11   -1    0    0    0    0  0.00000000000E+00  0.00000000000E+00  0.50000000000E+03  0.50000000000E+03  0.00000000000E+00 0. -1.
         11   -1    0    0    0    0 -0.00000000000E+00 -0.00000000000E+00 -0.50000000000E+03  0.50000000000E+03  0.00000000000E+00 0.  1.
        -11    1    1    2    0    0 -0.95555434494E+01  0.29744368100E+01  0.33401557742E+03  0.33416547045E+03  0.00000000000E+00 0. -1.
         11    1    1    2    0    0  0.29021197965E+01  0.65671237184E+01 -0.49962781145E+03  0.49967939661E+03  0.00000000000E+00 0.  1.
        -15    1    1    2    0    0 -0.57890525341E+00 -0.11238501296E+01  0.26328402284E+02  0.26418566695E+02  0.17770000000E+01 0.  1.
         15    1    1    2    0    0  0.72323289063E+01 -0.84177103987E+01  0.13928383175E+03  0.13973656625E+03  0.17770000000E+01 0. -1.
</event>
<event>
 6   1  0.3798113E-04  0.5017371E+03  0.7546771E-02  0.9395931E-01
        -11   -1    0    0    0    0  0.00000000000E+00  0.00000000000E+00  0.50000000000E+03  0.50000000000E+03  0.00000000000E+00 0. -1.
         11   -1    0    0    0    0 -0.00000000000E+00 -0.00000000000E+00 -0.50000000000E+03  0.50000000000E+03  0.00000000000E+00 0. -1.
        -11    1    1    2    0    0 -0.15601283443E+02  0.15346388966E+02  0.23315491465E+03  0.23417968726E+03  0.00000000000E+00 0. -1.
         11    1    1    2    0    0 -0.25280012584E+01  0.68605477977E+01 -0.49820920363E+03  0.49826285080E+03  0.00000000000E+00 0. -1.
        -15    1    1    2    0    0  0.17519037133E+02 -0.24486424248E+02  0.25967312375E+03  0.26141880300E+03  0.17770000000E+01 0. -1.
         15    1    1    2    0    0  0.61024756881E+00  0.22794874837E+01  0.53811652355E+01  0.61386589395E+01  0.17770000000E+01 0. -1.
</event>
<event>
 6   1  0.3798113E-04  0.4791545E+03  0.7546771E-02  0.9447700E-01
        -11   -1    0    0    0    0  0.00000000000E+00  0.00000000000E+00  0.50000000000E+03  0.50000000000E+03  0.00000000000E+00 0. -1.
         11   -1    0    0    0    0 -0.00000000000E+00 -0.00000000000E+00 -0.50000000000E+03  0.50000000000E+03  0.00000000000E+00 0.  1.
        -11    1    1    2    0    0  0.16314509839E+02 -0.88903241666E+01  0.48504198635E+03  0.48539770253E+03  0.00000000000E+00 0. -1.
         11    1    1    2    0    0 -0.23816892845E+01 -0.60882600455E+01 -0.47315817336E+03  0.47320333513E+03  0.00000000000E+00 0.  1.
        -15    1    1    2    0    0  0.24652376240E+01  0.16083431320E+02 -0.17479356873E+02  0.23946603209E+02  0.17770000000E+01 0.  1.
         15    1    1    2    0    0 -0.16398058179E+02 -0.11048471074E+01  0.55955438857E+01  0.17452359140E+02  0.17770000000E+01 0. -1.
</event>
<event>
 6   1  0.3798113E-04  0.5170947E+03  0.7546771E-02  0.9362351E-01
        -11   -1    0    0    0    0  0.00000000000E+00  0.00000000000E+00  0.50000000000E+03  0.50000000000E+03  0.00000000000E+00 0. -1.
         11   -1    0    0    0    0 -0.00000000000E+00 -0.00000000000E+00 -0.50000000000E+03  0.50000000000E+03  0.00000000000E+00 0.  1.
        -11    1    1    2    0    0 -0.11183464006E+02  0.19993628723E+02  0.48236160170E+03  0.48290530112E+03  0.00000000000E+00 0. -1.
         11    1    1    2    0    0 -0.21774953746E+02  0.11993505034E+02 -0.43065772315E+03  0.43137462522E+03  0.00000000000E+00 0.  1.
        -15    1    1    2    0    0  0.40818423022E+02 -0.31681732866E+02 -0.24249390406E+02  0.57105748568E+02  0.17770000000E+01 0. -1.
         15    1    1    2    0    0 -0.78600052696E+01 -0.30540089032E+00 -0.27454488139E+02  0.28614325093E+02  0.17770000000E+01 0.  1.
</event>
<event>
 6   1  0.3798113E-04  0.5000434E+03  0.7546771E-02  0.9399713E-01
        -11   -1    0    0    0    0  0.00000000000E+00  0.00000000000E+00  0.50000000000E+03  0.50000000000E+03  0.00000000000E+00 0.  1.
         11   -1    0    0    0    0 -0.00000000000E+00 -0.00000000000E+00 -0.50000000000E+03  0.50000000000E+03  0.00000000000E+00 0.  1.
        -11    1    1    2    0    0 -0.14350010328E+01 -0.12992437656E+02  0.49978564916E+03  0.49995655588E+03  0.00000000000E+00 0.  1.
         11    1    1    2    0    0  0.45562591356E+00  0.28253090546E+01 -0.19922859242E+03  0.19924914556E+03  0.00000000000E+00 0.  1.
        -15    1    1    2    0    0  0.13243392724E+01  0.27013330867E+01 -0.51282614801E+02  0.51401511503E+02  0.17770000000E+01 0.  1.
         15    1    1    2    0    0 -0.34496415315E+00  0.74657955151E+01 -0.24927444194E+03  0.24939278706E+03  0.17770000000E+01 0. -1.
</event>
<event>
 6   1  0.3798113E-04  0.5123498E+03  0.7546771E-02  0.9372592E-01
        -11   -1    0    0    0    0  0.00000000000E+00  0.00000000000E+00  0.50000000000E+03  0.50000000000E+03  0.00000000000E+00 0. -1.
         11   -1    0    0    0    0 -0.00000000000E+00 -0.00000000000E+00 -0.50000000000E+03  0.50000000000E+03  0.00000000000E+00 0. -1.
        -11    1    1    2    0    0 -0.41543879883E+02 -0.63518232581E+02  0.21851986621E+03  0.23132529424E+03  0.00000000000E+00 0. -1.
         11    1    1    2    0    0 -0.43272534542E+00  0.19831619241E+02 -0.48724663675E+03  0.48765024905E+03  0.00000000000E+00 0. -1.
        -15    1    1    2    0    0  0.99403902990E+01 -0.11150483358E+02  0.25221032857E+02  0.29366696542E+02  0.17770000000E+01 0.  1.
         15    1    1    2    0    0  0.32036214929E+02  0.54837096698E+02  0.24350573768E+03  0.25165776017E+03  0.17770000000E+01 0. -1.
</event>
<event>
 6   1  0.3798113E-04  0.5558403E+03  0.7546771E-02  0.9282861E-01
        -11   -1    0    0    0    0  0.00000000000E+00  0.00000000000E+00  0.50000000000E+03  0.50000000000E+03  0.00000000000E+00 0.  1.
         11   -1    0    0    0    0 -0.00000000000E+00 -0.00000000000E+00 -0.50000000000E+03  0.50000000000E+03  0.00000000000E+00 0. -1.
        -11    1    1    2    0    0  0.85314978311E+02 -0.15049093807E+02  0.39478874274E+03  0.40418222641E+03  0.00000000000E+00 0.  1.
         11    1    1    2    0    0 -0.39163052395E+02  0.11506513063E+02 -0.44228007715E+03  0.44415966854E+03  0.00000000000E+00 0. -1.
        -15    1    1    2    0    0  0.33411803257E+02 -0.28886955735E+02 -0.13566410124E+02  0.46238620451E+02  0.17770000000E+01 0.  1.
         15    1    1    2    0    0 -0.79563729173E+02  0.32429536479E+02  0.61057744535E+02  0.10541948460E+03  0.17770000000E+01 0. -1.
</event>
<event>
 6   1  0.3798113E-04  0.4676271E+03  0.7546771E-02  0.9475310E-01
        -11   -1    0    0    0    0  0.00000000000E+00  0.00000000000E+00  0.50000000000E+03  0.50000000000E+03  0.00000000000E+00 0. -1.
         11   -1    0    0    0    0 -0.00000000000E+00 -0.00000000000E+00 -0.50000000000E+03  0.50000000000E+03  0.00000000000E+00 0. -1.
        -11    1    1    2    0    0 -0.24161088296E+02 -0.53923283429E+01  0.45673068039E+03  0.45740108199E+03  0.00000000000E+00 0. -1.
         11    1    1    2    0    0 -0.32387251278E+02  0.59751433600E+01 -0.47868693978E+03  0.47981853101E+03  0.00000000000E+00 0. -1.
        -15    1    1    2    0    0  0.29200084770E+01 -0.14353875240E+01 -0.17659788162E+01  0.41064823181E+01  0.17770000000E+01 0. -1.
         15    1    1    2    0    0  0.53628331097E+02  0.85257250690E+00  0.23722238211E+02  0.58673904684E+02  0.17770000000E+01 0.  1.
</event>
<event>
 6   1  0.3798113E-04  0.5004536E+03  0.7546771E-02  0.9398795E-01
        -11   -1    0    0    0    0  0.00000000000E+00  0.00000000000E+00  0.50000000000E+03  0.50000000000E+03  0.00000000000E+00 0. -1.
         11   -1    0    0    0    0 -0.00000000000E+00 -0.00000000000E+00 -0.50000000000E+03  0.50000000000E+03  0.00000000000E+00 0.  1.
        -11    1    1    2    0    0 -0.16341766816E+02  0.92084268484E+01  0.49919414137E+03  0.49954643352E+03  0.00000000000E+00 0. -1.
         11    1    1    2    0    0  0.21083126462E+01  0.42753231274E+01 -0.28173231634E+03  0.28177264140E+03  0.00000000000E+00 0.  1.
        -15    1    1    2    0    0  0.39535217688E+01 -0.95662956386E+01 -0.14355896295E+03  0.14394262024E+03  0.17770000000E+01 0.  1.
         15    1    1    2    0    0  0.10279932401E+02 -0.39174543372E+01 -0.73902862074E+02  0.74738304840E+02  0.17770000000E+01 0. -1.
</event>
<event>
 6   1  0.3798113E-04  0.4905936E+03  0.7546771E-02  0.9421107E-01
        -11   -1    0    0    0    0  0.00000000000E+00  0.00000000000E+00  0.50000000000E+03  0.50000000000E+03  0.00000000000E+00 0.  1.
         11   -1    0    0    0    0 -0.00000000000E+00 -0.00000000000E+00 -0.50000000000E+03  0.50000000000E+03  0.00000000000E+00 0.  1.
        -11    1    1    2    0    0  0.22589445271E+01  0.10846233725E+02  0.48737843201E+03  0.48750433804E+03  0.00000000000E+00 0.  1.
         11    1    1    2    0    0  0.71468788737E+01  0.21156740014E-01 -0.49375721003E+03  0.49380893145E+03  0.00000000000E+00 0.  1.
        -15    1    1    2    0    0 -0.63778475695E+01 -0.11449075143E+01  0.47350945586E+01  0.82198906510E+01  0.17770000000E+01 0.  1.
         15    1    1    2    0    0 -0.30279758313E+01 -0.97224829508E+01  0.16436834603E+01  0.10466839861E+02  0.17770000000E+01 0. -1.
</event>
<event>
 6   1  0.3798113E-04  0.5048138E+03  0.7546771E-02  0.9389103E-01
        -11   -1    0    0    0    0  0.00000000000E+00  0.00000000000E+00  0.50000000000E+03  0.50000000000E+03  0.00000000000E+00 0.  1.
         11   -1    0    0    0    0 -0.00000000000E+00 -0.00000000000E+00 -0.50000000000E+03  0.50000000000E+03  0.00000000000E+00 0.  1.
        -11    1    1    2    0    0 -0.29241711897E+02  0.35710585316E+02  0.27401099721E+03  0.27787110359E+03  0.00000000000E+00 0.  1.
         11    1    1    2    0    0 -0.23677617714E+02 -0.33499481121E+02 -0.49348411885E+03  0.49518624816E+03  0.00000000000E+00 0.  1.
        -15    1    1    2    0    0  0.55761063833E+01  0.42708504281E+01  0.60537527623E+02  0.60969526040E+02  0.17770000000E+01 0. -1.
         15    1    1    2    0    0  0.47343223228E+02 -0.64819546229E+01  0.15893559401E+03  0.16597312220E+03  0.17770000000E+01 0.  1.
</event>
<event>
 6   1  0.3798113E-04  0.5014676E+03  0.7546771E-02  0.9396532E-01
        -11   -1    0    0    0    0  0.00000000000E+00  0.00000000000E+00  0.50000000000E+03  0.50000000000E+03  0.00000000000E+00 0. -1.
         11   -1    0    0    0    0 -0.00000000000E+00 -0.00000000000E+00 -0.50000000000E+03  0.50000000000E+03  0.00000000000E+00 0.  1.
        -11    1    1    2    0    0  0.10485474543E+02 -0.76067247618E+00  0.46117601689E+03  0.46129582954E+03  0.00000000000E+00 0. -1.
         11    1    1    2    0    0  0.18427360837E+01  0.70859592245E+01 -0.49847859877E+03  0.49853236598E+03  0.00000000000E+00 0.  1.
        -15    1    1    2    0    0 -0.35099594403E+01 -0.36664821645E+01  0.10944617907E+02  0.12194478130E+02  0.17770000000E+01 0.  1.
         15    1    1    2    0    0 -0.88182511865E+01 -0.26588045839E+01  0.26357963977E+02  0.27977326352E+02  0.17770000000E+01 0. -1.
</event>
<event>
 6   1  0.3798113E-04  0.5002497E+03  0.7546771E-02  0.9399251E-01
        -11   -1    0    0    0    0  0.00000000000E+00  0.00000000000E+00  0.50000000000E+03  0.50000000000E+03  0.00000000000E+00 0. -1.
         11   -1    0    0    0    0 -0.00000000000E+00 -0.00000000000E+00 -0.50000000000E+03  0.50000000000E+03  0.00000000000E+00 0.  1.
        -11    1    1    2    0    0  0.13007625933E+02 -0.16402856627E+01  0.49957827868E+03  0.49975028304E+03  0.00000000000E+00 0. -1.
         11    1    1    2    0    0 -0.62474812504E+01  0.24621975282E+01 -0.38641093612E+03  0.38646928079E+03  0.00000000000E+00 0.  1.
        -15    1    1    2    0    0 -0.29673002491E+01 -0.32582842637E+01 -0.23142845682E+02  0.23625628508E+02  0.17770000000E+01 0. -1.
         15    1    1    2    0    0 -0.37928444331E+01  0.24363723982E+01 -0.90024496872E+02  0.90154807667E+02  0.17770000000E+01 0.  1.
</event>
<event>
 6   1  0.3798113E-04  0.5000813E+03  0.7546771E-02  0.9399628E-01
        -11   -1    0    0    0    0  0.00000000000E+00  0.00000000000E+00  0.50000000000E+03  0.50000000000E+03  0.00000000000E+00 0. -1.
         11   -1    0    0    0    0 -0.00000000000E+00 -0.00000000000E+00 -0.50000000000E+03  0.50000000000E+03  0.00000000000E+00 0. -1.
        -11    1    1    2    0    0  0.90685817788E+01 -0.62389317533E+01  0.33724236094E+03  0.33742195165E+03  0.00000000000E+00 0. -1.
         11    1    1    2    0    0 -0.14237725805E+02  0.52261573404E+01 -0.49968856393E+03  0.49991867986E+03  0.00000000000E+00 0. -1.
        -15    1    1    2    0    0  0.39508835722E+01  0.22292731575E+01  0.13850332456E+03  0.13858898867E+03  0.17770000000E+01 0. -1.
         15    1    1    2    0    0  0.12182604536E+01 -0.12164987446E+01  0.23942878428E+02  0.24070379809E+02  0.17770000000E+01 0. -1.
</event>
<event>
 6   1  0.3798113E-04  0.5004000E+03  0.7546771E-02  0.9398915E-01
        -11   -1    0    0    0    0  0.00000000000E+00  0.00000000000E+00  0.50000000000E+03  0.50000000000E+03  0.00000000000E+00 0.  1.
         11   -1    0    0    0    0 -0.00000000000E+00 -0.00000000000E+00 -0.50000000000E+03  0.50000000000E+03  0.00000000000E+00 0. -1.
        -11    1    1    2    0    0 -0.71776693486E+01 -0.96084245819E+01  0.49945599688E+03  0.49959997356E+03  0.00000000000E+00 0.  1.
         11    1    1    2    0    0  0.89372908492E+00  0.94141200793E+01 -0.46502390703E+03  0.46512004743E+03  0.00000000000E+00 0. -1.
        -15    1    1    2    0    0  0.50344598790E+01 -0.57486802581E+00 -0.25042924423E+02  0.25612146575E+02  0.17770000000E+01 0.  1.
         15    1    1    2    0    0  0.12494803847E+01  0.76917252837E+00 -0.93891654291E+01  0.96678324389E+01  0.17770000000E+01 0. -1.
</event>
<event>
 6   1  0.3798113E-04  0.5081024E+03  0.7546771E-02  0.9381860E-01
        -11   -1    0    0    0    0  0.00000000000E+00  0.00000000000E+00  0.50000000000E+03  0.50000000000E+03  0.00000000000E+00 0.  1.
         11   -1    0    0    0    0 -0.00000000000E+00 -0.00000000000E+00 -0.50000000000E+03  0.50000000000E+03  0.00000000000E+00 0.  1.
        -11    1    1    2    0    0  0.11215410084E+02 -0.13736986173E+02  0.47304391814E+03  0.47337621265E+03  0.00000000000E+00 0.  1.
         11    1    1    2    0    0 -0.57683700768E+01 -0.13455661849E+02 -0.49167964471E+03  0.49189755230E+03  0.00000000000E+00 0.  1.
        -15    1    1    2    0    0  0.25753235881E+00  0.89325653527E+01  0.20366842856E+01  0.93361051074E+01  0.17770000000E+01 0.  1.
         15    1    1    2    0    0 -0.57045723660E+01  0.18260082670E+02  0.16599042288E+02  0.25390129949E+02  0.17770000000E+01 0. -1.
</event>
<event>
 6   1  0.3798113E-04  0.5110272E+03  0.7546771E-02  0.9375468E-01
        -11   -1    0    0    0    0  0.00000000000E+00  0.00000000000E+00  0.50000000000E+03  0.50000000000E+03  0.00000000000E+00 0. -1.
         11   -1    0    0    0    0 -0.00000000000E+00 -0.00000000000E+00 -0.50000000000E+03  0.50000000000E+03  0.00000000000E+00 0.  1.
        -11    1    1    2    0    0 -0.35000242747E+02  0.98139557688E+01  0.48761981825E+03  0.48897281916E+03  0.00000000000E+00 0. -1.
         11    1    1    2    0    0  0.24288876077E+01 -0.17738932496E+02 -0.44645296733E+03  0.44681184100E+03  0.00000000000E+00 0.  1.
        -15    1    1    2    0    0  0.12737423653E+02  0.41405936949E+01 -0.41806471587E+02  0.43935467142E+02  0.17770000000E+01 0.  1.
         15    1    1    2    0    0  0.19833931486E+02  0.37843830327E+01  0.63962066101E+00  0.20279872700E+02  0.17770000000E+01 0. -1.
</event>
<event>
 6   1  0.3798113E-04  0.5006861E+03  0.7546771E-02  0.9398276E-01
        -11   -1    0    0    0    0  0.00000000000E+00  0.00000000000E+00  0.50000000000E+03  0.50000000000E+03  0.00000000000E+00 0.  1.
         11   -1    0    0    0    0 -0.00000000000E+00 -0.00000000000E+00 -0.50000000000E+03  0.50000000000E+03  0.00000000000E+00 0. -1.
        -11    1    1    2    0    0 -0.22215905924E+02 -0.84488779405E+01 -0.26249415317E+03  0.26356803763E+03  0.00000000000E+00 0.  1.
         11    1    1    2    0    0  0.55298440584E+01  0.38473796315E+01 -0.23564961507E+03  0.23574588562E+03  0.00000000000E+00 0. -1.
        -15    1    1    2    0    0 -0.55099333478E+01  0.20496653849E+02  0.28480305336E+03  0.28559833529E+03  0.17770000000E+01 0.  1.
         15    1    1    2    0    0  0.22195995214E+02 -0.15895155540E+02  0.21334071487E+03  0.21508774146E+03  0.17770000000E+01 0. -1.
</event>
<event>
 6   1  0.3798113E-04  0.5038755E+03  0.7546771E-02  0.9391180E-01
        -11   -1    0    0    0    0  0.00000000000E+00  0.00000000000E+00  0.50000000000E+03  0.50000000000E+03  0.00000000000E+00 0. -1.
         11   -1    0    0    0    0 -0.00000000000E+00 -0.00000000000E+00 -0.50000000000E+03  0.50000000000E+03  0.00000000000E+00 0.  1.
        -11    1    1    2    0    0 -0.19185482998E+02  0.76973736399E+01  0.44225440838E+03  0.44273727429E+03  0.00000000000E+00 0. -1.
         11    1    1    2    0    0  0.47789941393E+01 -0.17031632142E+02 -0.49580908752E+03  0.49612454741E+03  0.00000000000E+00 0.  1.
        -15    1    1    2    0    0  0.15599573316E+02 -0.30356738865E+01  0.37429931708E+02  0.40702819561E+02  0.17770000000E+01 0. -1.
         15    1    1    2    0    0 -0.11930844571E+01  0.12369932388E+02  0.16124747435E+02  0.20435358735E+02  0.17770000000E+01 0.  1.
</event>
<event>
 6   1  0.3798113E-04  0.5024375E+03  0.7546771E-02  0.9394372E-01
        -11   -1    0    0    0    0  0.00000000000E+00  0.00000000000E+00  0.50000000000E+03  0.50000000000E+03  0.00000000000E+00 0. -1.
         11   -1    0    0    0    0 -0.00000000000E+00 -0.00000000000E+00 -0.50000000000E+03  0.50000000000E+03  0.00000000000E+00 0. -1.
        -11    1    1    2    0    0  0.62477714738E+01 -0.25938045701E+02  0.81304851545E+02  0.85570413975E+02  0.00000000000E+00 0. -1.
         11    1    1    2    0    0  0.19257233745E+01  0.12657650160E+02 -0.49739777810E+03  0.49756253293E+03  0.00000000000E+00 0. -1.
        -15    1    1    2    0    0 -0.12106848617E+02  0.81075482337E+01  0.36930279865E+03  0.36959440329E+03  0.17770000000E+01 0. -1.
         15    1    1    2    0    0  0.39333537683E+01  0.51728473072E+01  0.46790127902E+02  0.47272649801E+02  0.17770000000E+01 0.  1.
</event>
<event>
 6   1  0.3798113E-04  0.5037165E+03  0.7546771E-02  0.9391532E-01
        -11   -1    0    0    0    0  0.00000000000E+00  0.00000000000E+00  0.50000000000E+03  0.50000000000E+03  0.00000000000E+00 0.  1.
         11   -1    0    0    0    0 -0.00000000000E+00 -0.00000000000E+00 -0.50000000000E+03  0.50000000000E+03  0.00000000000E+00 0. -1.
        -11    1    1    2    0    0 -0.10449515186E+02 -0.13047128668E+01  0.49617173798E+03  0.49628347566E+03  0.00000000000E+00 0.  1.
         11    1    1    2    0    0 -0.40826218033E+01 -0.51143328670E+01 -0.47278825427E+03  0.47283354108E+03  0.00000000000E+00 0. -1.
        -15    1    1    2    0    0  0.14343629876E+02  0.10349983483E+01 -0.16353761838E+02  0.21849809950E+02  0.17770000000E+01 0.  1.
         15    1    1    2    0    0  0.18850711364E+00  0.53840473855E+01 -0.70297218805E+01  0.90331733017E+01  0.17770000000E+01 0. -1.
</event>
<event>
 6   1  0.3798113E-04  0.4380607E+03  0.7546771E-02  0.9550180E-01
        -11   -1    0    0    0    0  0.00000000000E+00  0.00000000000E+00  0.50000000000E+03  0.50000000000E+03  0.00000000000E+00 0. -1.
         11   -1    0    0    0    0 -0.00000000000E+00 -0.00000000000E+00 -0.50000000000E+03  0.50000000000E+03  0.00000000000E+00 0. -1.
        -11    1    1    2    0    0 -0.22563303457E+02  0.67924992815E+02  0.40667847766E+03  0.41292891822E+03  0.00000000000E+00 0. -1.
         11    1    1    2    0    0  0.28804843997E+01  0.18889175046E+02 -0.46955644566E+03  0.46994505400E+03  0.00000000000E+00 0. -1.
        -15    1    1    2    0    0 -0.11065264064E+02 -0.94646069993E+01  0.41615370630E+01  0.15247785878E+02  0.17770000000E+01 0.  1.
         15    1    1    2    0    0  0.30748083121E+02 -0.77349560862E+02  0.58716430931E+02  0.10187824189E+03  0.17770000000E+01 0. -1.
</event>
<event>
 6   1  0.3798113E-04  0.5032080E+03  0.7546771E-02  0.9392660E-01
        -11   -1    0    0    0    0  0.00000000000E+00  0.00000000000E+00  0.50000000000E+03  0.50000000000E+03  0.00000000000E+00 0.  1.
         11   -1    0    0    0    0 -0.00000000000E+00 -0.00000000000E+00 -0.50000000000E+03  0.50000000000E+03  0.00000000000E+00 0. -1.
        -11    1    1    2    0    0 -0.13696140785E+02  0.29940898324E+01  0.49659416812E+03  0.49679202555E+03  0.00000000000E+00 0.  1.
         11    1    1    2    0    0 -0.53863230663E+01 -0.65730135481E+01 -0.46120062190E+03  0.46127890763E+03  0.00000000000E+00 0. -1.
        -15    1    1    2    0    0  0.17909704116E+02  0.12373866558E+01 -0.23524769982E+02  0.29645592573E+02  0.17770000000E+01 0. -1.
         15    1    1    2    0    0  0.11727597355E+01  0.23415370599E+01 -0.11868776236E+02  0.12283474246E+02  0.17770000000E+01 0. -1.
</event>
<event>
 6   1  0.3798113E-04  0.5006771E+03  0.7546771E-02  0.9398296E-01
        -11   -1    0    0    0    0  0.00000000000E+00  0.00000000000E+00  0.50000000000E+03  0.50000000000E+03  0.00000000000E+00 0.  1.
         11   -1    0    0    0    0 -0.00000000000E+00 -0.00000000000E+00 -0.50000000000E+03  0.50000000000E+03  0.00000000000E+00 0.  1.
        -11    1    1    2    0    0  0.16134351370E+02  0.45553714585E+01  0.49904141972E+03  0.49932294890E+03  0.00000000000E+00 0.  1.
         11    1    1    2    0    0 -0.43591204843E+00 -0.66791802060E+01 -0.40842284446E+03  0.40847768769E+03  0.00000000000E+00 0.  1.
        -15    1    1    2    0    0 -0.12689883008E+02 -0.11678483409E+00 -0.65814401640E+02  0.67050279356E+02  0.17770000000E+01 0.  1.
         15    1    1    2    0    0 -0.30085563142E+01  0.22405935817E+01 -0.24804173619E+02  0.25149084051E+02  0.17770000000E+01 0. -1.
</event>
<event>
 6   1  0.3798113E-04  0.5000228E+03  0.7546771E-02  0.9399759E-01
        -11   -1    0    0    0    0  0.00000000000E+00  0.00000000000E+00  0.50000000000E+03  0.50000000000E+03  0.00000000000E+00 0. -1.
         11   -1    0    0    0    0 -0.00000000000E+00 -0.00000000000E+00 -0.50000000000E+03  0.50000000000E+03  0.00000000000E+00 0. -1.
        -11    1    1    2    0    0  0.43002911053E+01  0.37399211517E+01  0.32272730945E+03  0.32277762589E+03  0.00000000000E+00 0. -1.
         11    1    1    2    0    0 -0.61045010564E+01 -0.55321413593E+01 -0.49990932592E+03  0.49997720314E+03  0.00000000000E+00 0. -1.
        -15    1    1    2    0    0  0.12743875895E+01  0.52243766511E-01  0.83714991544E+02  0.83743562925E+02  0.17770000000E+01 0. -1.
         15    1    1    2    0    0  0.52982236160E+00  0.17399764411E+01  0.93467024925E+02  0.93501608046E+02  0.17770000000E+01 0.  1.
</event>
<event>
 6   1  0.3798113E-04  0.5000399E+03  0.7546771E-02  0.9399721E-01
        -11   -1    0    0    0    0  0.00000000000E+00  0.00000000000E+00  0.50000000000E+03  0.50000000000E+03  0.00000000000E+00 0. -1.
         11   -1    0    0    0    0 -0.00000000000E+00 -0.00000000000E+00 -0.50000000000E+03  0.50000000000E+03  0.00000000000E+00 0. -1.
        -11    1    1    2    0    0 -0.67445248898E+01  0.77473959389E+01  0.49985461614E+03  0.49996014645E+03  0.00000000000E+00 0. -1.
         11    1    1    2    0    0  0.14834443928E+01  0.32558284364E-01 -0.25506512844E+02  0.25549635316E+02  0.00000000000E+00 0. -1.
        -15    1    1    2    0    0  0.55119198176E+01 -0.47549985090E+01 -0.24335062694E+03  0.24346596606E+03  0.17770000000E+01 0.  1.
         15    1    1    2    0    0 -0.25083932057E+00 -0.30249557142E+01 -0.23099747636E+03  0.23102425217E+03  0.17770000000E+01 0. -1.
</event>
<event>
 6   1  0.3798113E-04  0.5011049E+03  0.7546771E-02  0.9397341E-01
        -11   -1    0    0    0    0  0.00000000000E+00  0.00000000000E+00  0.50000000000E+03  0.50000000000E+03  0.00000000000E+00 0. -1.
         11   -1    0    0    0    0 -0.00000000000E+00 -0.00000000000E+00 -0.50000000000E+03  0.50000000000E+03  0.00000000000E+00 0. -1.
        -11    1    1    2    0    0  0.15175514023E+02 -0.95862290655E+01  0.15297403662E+03  0.15402353032E+03  0.00000000000E+00 0. -1.
         11    1    1    2    0    0  0.49287793818E+00 -0.10345530058E+02 -0.49878761403E+03  0.49889513611E+03  0.00000000000E+00 0. -1.
        -15    1    1    2    0    0 -0.98540934767E+01  0.15203053420E+01  0.13398199290E+03  0.13436423124E+03  0.17770000000E+01 0. -1.
         15    1    1    2    0    0 -0.58142984846E+01  0.18411453782E+02  0.21183158452E+03  0.21271710234E+03  0.17770000000E+01 0.  1.
</event>
<event>
 6   1  0.3798113E-04  0.5079302E+03  0.7546771E-02  0.9382238E-01
        -11   -1    0    0    0    0  0.00000000000E+00  0.00000000000E+00  0.50000000000E+03  0.50000000000E+03  0.00000000000E+00 0. -1.
         11   -1    0    0    0    0 -0.00000000000E+00 -0.00000000000E+00 -0.50000000000E+03  0.50000000000E+03  0.00000000000E+00 0.  1.
        -11    1    1    2    0    0 -0.24997642708E+02  0.83287289674E+00  0.49143373377E+03  0.49206980247E+03  0.00000000000E+00 0. -1.
         11    1    1    2    0    0  0.70304912696E+01  0.24904580829E+02 -0.44937628007E+03  0.45012076940E+03  0.00000000000E+00 0.  1.
        -15    1    1    2    0    0  0.10810182733E+02 -0.12311484564E+02 -0.42535641871E+01  0.17020083436E+02  0.17770000000E+01 0. -1.
         15    1    1    2    0    0  0.71569687057E+01 -0.13425969162E+02 -0.37803889515E+02  0.40789344693E+02  0.17770000000E+01 0.  1.
</event>
<event>
 6   1  0.3798113E-04  0.5005684E+03  0.7546771E-02  0.9398539E-01
        -11   -1    0    0    0    0  0.00000000000E+00  0.00000000000E+00  0.50000000000E+03  0.50000000000E+03  0.00000000000E+00 0. -1.
         11   -1    0    0    0    0 -0.00000000000E+00 -0.00000000000E+00 -0.50000000000E+03  0.50000000000E+03  0.00000000000E+00 0.  1.
        -11    1    1    2    0    0 -0.96145910159E+01 -0.27989121227E+01  0.28687833490E+03  0.28705304964E+03  0.00000000000E+00 0. -1.
         11    1    1    2    0    0 -0.71443310838E+01  0.10048961776E+02 -0.49927938556E+03  0.49943160487E+03  0.00000000000E+00 0.  1.
        -15    1    1    2    0    0  0.17322716413E+02 -0.64000104112E+01  0.20494122916E+03  0.20577925497E+03  0.17770000000E+01 0. -1.
         15    1    1    2    0    0 -0.56379431302E+00 -0.85003924171E+00  0.74598214954E+01  0.77360905167E+01  0.17770000000E+01 0. -1.
</event>
<event>
 6   1  0.3798113E-04  0.5001381E+03  0.7546771E-02  0.9399501E-01
        -11   -1    0    0    0    0  0.00000000000E+00  0.00000000000E+00  0.50000000000E+03  0.50000000000E+03  0.00000000000E+00 0. -1.
         11   -1    0    0    0    0 -0.00000000000E+00 -0.00000000000E+00 -0.50000000000E+03  0.50000000000E+03  0.00000000000E+00 0. -1.
        -11    1    1    2    0    0  0.66362213535E+00 -0.10247691440E+02  0.36646823154E+03  0.36661208423E+03  0.00000000000E+00 0. -1.
         11    1    1    2    0    0 -0.54549092490E+00  0.83928209147E+01 -0.49979117792E+03  0.49986193947E+03  0.00000000000E+00 0. -1.
        -15    1    1    2    0    0  0.11355368727E+01  0.59351006826E+00  0.11608451670E+03  0.11610518699E+03  0.17770000000E+01 0. -1.
         15    1    1    2    0    0 -0.12536680831E+01  0.12613604569E+01  0.17238429676E+02  0.17420789321E+02  0.17770000000E+01 0.  1.
</event>
<event>
 6   1  0.3798113E-04  0.5005798E+03  0.7546771E-02  0.9398513E-01
        -11   -1    0    0    0    0  0.00000000000E+00  0.00000000000E+00  0.50000000000E+03  0.50000000000E+03  0.00000000000E+00 0. -1.
         11   -1    0    0    0    0 -0.00000000000E+00 -0.00000000000E+00 -0.50000000000E+03  0.50000000000E+03  0.00000000000E+00 0. -1.
        -11    1    1    2    0    0 -0.15603055495E+01  0.83517293009E+01  0.49934794620E+03  0.49942022117E+03  0.00000000000E+00 0. -1.
         11    1    1    2    0    0  0.61458967884E+01 -0.23598303280E+01 -0.42742156295E+03  0.42747226029E+03  0.00000000000E+00 0. -1.
        -15    1    1    2    0    0 -0.58977840690E+01  0.76781677785E-01 -0.44878658535E+02  0.45299464382E+02  0.17770000000E+01 0.  1.
         15    1    1    2    0    0  0.13121928300E+01 -0.60686806507E+01 -0.27047724714E+02  0.27808054158E+02  0.17770000000E+01 0. -1.
</event>
<event>
 6   1  0.3798113E-04  0.5000881E+03  0.7546771E-02  0.9399613E-01
        -11   -1    0    0    0    0  0.00000000000E+00  0.00000000000E+00  0.50000000000E+03  0.50000000000E+03  0.00000000000E+00 0. -1.
         11   -1    0    0    0    0 -0.00000000000E+00 -0.00000000000E+00 -0.50000000000E+03  0.50000000000E+03  0.00000000000E+00 0.  1.
        -11    1    1    2    0    0  0.33441539317E+01  0.25741857764E+01  0.61227487583E+02  0.61372754816E+02  0.00000000000E+00 0. -1.
         11    1    1    2    0    0 -0.84959465082E+01  0.13079132589E+01 -0.49983796349E+03  0.49991187372E+03  0.00000000000E+00 0.  1.
        -15    1    1    2    0    0  0.61692425392E+01 -0.22967453982E+01  0.27564338328E+03  0.27572770457E+03  0.17770000000E+01 0. -1.
         15    1    1    2    0    0 -0.10174499626E+01 -0.15853536371E+01  0.16296709262E+03  0.16298766689E+03  0.17770000000E+01 0.  1.
</event>
<event>
 6   1  0.3798113E-04  0.5009101E+03  0.7546771E-02  0.9397776E-01
        -11   -1    0    0    0    0  0.00000000000E+00  0.00000000000E+00  0.50000000000E+03  0.50000000000E+03  0.00000000000E+00 0.  1.
         11   -1    0    0    0    0 -0.00000000000E+00 -0.00000000000E+00 -0.50000000000E+03  0.50000000000E+03  0.00000000000E+00 0.  1.
        -11    1    1    2    0    0  0.45090581842E+02  0.26339957946E+02  0.24569875081E+03  0.25118684302E+03  0.00000000000E+00 0.  1.
         11    1    1    2    0    0 -0.59344715393E+02 -0.24443825792E+02 -0.49494588833E+03  0.49908989996E+03  0.00000000000E+00 0.  1.
        -15    1    1    2    0    0  0.50889191028E+01 -0.14384099932E+01  0.64915578921E+02  0.65154863492E+02  0.17770000000E+01 0.  1.
         15    1    1    2    0    0  0.91652144483E+01 -0.45772216120E+00  0.18433155860E+03  0.18456839353E+03  0.17770000000E+01 0.  1.
</event>
<event>
 6   1  0.3798113E-04  0.5007147E+03  0.7546771E-02  0.9398212E-01
        -11   -1    0    0    0    0  0.00000000000E+00  0.00000000000E+00  0.50000000000E+03  0.50000000000E+03  0.00000000000E+00 0.  1.
         11   -1    0    0    0    0 -0.00000000000E+00 -0.00000000000E+00 -0.50000000000E+03  0.50000000000E+03  0.00000000000E+00 0.  1.
        -11    1    1    2    0    0  0.15547519389E+02  0.12835851188E+02  0.49887806261E+03  0.49928529499E+03  0.00000000000E+00 0.  1.
         11    1    1    2    0    0 -0.15028425429E+01 -0.47494752962E+01 -0.19890607820E+03  0.19896844975E+03  0.00000000000E+00 0.  1.
        -15    1    1    2    0    0 -0.13948720399E+02 -0.11654469628E+02 -0.95231658775E+02  0.96967107955E+02  0.17770000000E+01 0. -1.
         15    1    1    2    0    0 -0.95956447147E-01  0.35680937360E+01 -0.20474032563E+03  0.20477914730E+03  0.17770000000E+01 0.  1.
</event>
<event>
 6   1  0.3798113E-04  0.5014004E+03  0.7546771E-02  0.9396682E-01
        -11   -1    0    0    0    0  0.00000000000E+00  0.00000000000E+00  0.50000000000E+03  0.50000000000E+03  0.00000000000E+00 0. -1.
         11   -1    0    0    0    0 -0.00000000000E+00 -0.00000000000E+00 -0.50000000000E+03  0.50000000000E+03  0.00000000000E+00 0. -1.
        -11    1    1    2    0    0  0.49884976290E+01  0.12088952523E+02  0.37723234064E+03  0.37745896030E+03  0.00000000000E+00 0. -1.
         11    1    1    2    0    0 -0.25121287185E+01  0.83030777323E+01 -0.49852411109E+03  0.49859958005E+03  0.00000000000E+00 0. -1.
        -15    1    1    2    0    0 -0.27319011286E+01 -0.16887601600E+02  0.11639067984E+03  0.11765458960E+03  0.17770000000E+01 0. -1.
         15    1    1    2    0    0  0.25553221806E+00 -0.35044286548E+01  0.49010906094E+01  0.62868700537E+01  0.17770000000E+01 0.  1.
</event>
<event>
 6   1  0.3798113E-04  0.5003775E+03  0.7546771E-02  0.9398966E-01
        -11   -1    0    0    0    0  0.00000000000E+00  0.00000000000E+00  0.50000000000E+03  0.50000000000E+03  0.00000000000E+00 0. -1.
         11   -1    0    0    0    0 -0.00000000000E+00 -0.00000000000E+00 -0.50000000000E+03  0.50000000000E+03  0.00000000000E+00 0.  1.
        -11    1    1    2    0    0  0.14406032459E+02 -0.12235402041E+02  0.25688108179E+03  0.25757548217E+03  0.00000000000E+00 0. -1.
         11    1    1    2    0    0 -0.13938471588E+02  0.18821083319E+01 -0.49942453646E+03  0.49962254847E+03  0.00000000000E+00 0.  1.
        -15    1    1    2    0    0 -0.10926794191E+01  0.39998890797E+01  0.85838024358E+02  0.85956484431E+02  0.17770000000E+01 0. -1.
         15    1    1    2    0    0  0.62511854796E+00  0.63534046298E+01  0.15670543031E+03  0.15684548493E+03  0.17770000000E+01 0.  1.
</event>
<event>
 6   1  0.3798113E-04  0.5002201E+03  0.7546771E-02  0.9399317E-01
        -11   -1    0    0    0    0  0.00000000000E+00  0.00000000000E+00  0.50000000000E+03  0.50000000000E+03  0.00000000000E+00 0. -1.
         11   -1    0    0    0    0 -0.00000000000E+00 -0.00000000000E+00 -0.50000000000E+03  0.50000000000E+03  0.00000000000E+00 0. -1.
        -11    1    1    2    0    0 -0.14570562233E+02  0.82737604691E+01  0.49949890686E+03  0.49977986589E+03  0.00000000000E+00 0. -1.
         11    1    1    2    0    0  0.98120000548E+01 -0.12861850460E+01 -0.31267845163E+03  0.31283501040E+03  0.00000000000E+00 0. -1.
        -15    1    1    2    0    0 -0.35829349908E+01 -0.32326463037E+01 -0.75821176709E+02  0.75995368226E+02  0.17770000000E+01 0. -1.
         15    1    1    2    0    0  0.83414971690E+01 -0.37549291194E+01 -0.11099927851E+03  0.11138975549E+03  0.17770000000E+01 0.  1.
</event>
<event>
 6   1  0.3798113E-04  0.5013003E+03  0.7546771E-02  0.9396905E-01
        -11   -1    0    0    0    0  0.00000000000E+00  0.00000000000E+00  0.50000000000E+03  0.50000000000E+03  0.00000000000E+00 0. -1.
         11   -1    0    0    0    0 -0.00000000000E+00 -0.00000000000E+00 -0.50000000000E+03  0.50000000000E+03  0.00000000000E+00 0.  1.
        -11    1    1    2    0    0  0.29957264395E+02  0.14500997603E+02  0.49758780900E+03  0.49869965339E+03  0.00000000000E+00 0. -1.
         11    1    1    2    0    0 -0.48822835087E+01 -0.10153046839E+01 -0.30120600770E+03  0.30124728482E+03  0.00000000000E+00 0.  1.
        -15    1    1    2    0    0 -0.17209823254E+01  0.49506010118E+01 -0.69376995899E+02  0.69597381556E+02  0.17770000000E+01 0.  1.
         15    1    1    2    0    0 -0.23353998561E+02 -0.18436293931E+02 -0.12700480540E+03  0.13045568024E+03  0.17770000000E+01 0.  1.
</event>
<event>
 6   1  0.3798113E-04  0.5039062E+03  0.7546771E-02  0.9391111E-01
        -11   -1    0    0    0    0  0.00000000000E+00  0.00000000000E+00  0.50000000000E+03  0.50000000000E+03  0.00000000000E+00 0. -1.
         11   -1    0    0    0    0 -0.00000000000E+00 -0.00000000000E+00 -0.50000000000E+03  0.50000000000E+03  0.00000000000E+00 0.  1.
        -11    1    1    2    0    0 -0.19934095855E+02  0.56011827537E+01  0.49566148439E+03  0.49609379005E+03  0.00000000000E+00 0. -1.
         11    1    1    2    0    0 -0.32604202880E+00 -0.10824114311E+02 -0.44621744774E+03  0.44634883043E+03  0.00000000000E+00 0.  1.
        -15    1    1    2    0    0  0.12308406231E+02 -0.68275609215E+01 -0.18058956356E+02  0.22965105829E+02  0.17770000000E+01 0.  1.
         15    1    1    2    0    0  0.79517316530E+01  0.12050492479E+02 -0.31385080289E+02  0.34592273689E+02  0.17770000000E+01 0. -1.
</event>
<event>
 6   1  0.3798113E-04  0.5009833E+03  0.7546771E-02  0.9397612E-01
        -11   -1    0    0    0    0  0.00000000000E+00  0.00000000000E+00  0.50000000000E+03  0.50000000000E+03  0.00000000000E+00 0. -1.
         11   -1    0    0    0    0 -0.00000000000E+00 -0.00000000000E+00 -0.50000000000E+03  0.50000000000E+03  0.00000000000E+00 0.  1.
        -11    1    1    2    0    0 -0.86305616623E+01  0.10605151169E+02  0.42871821126E+03  0.42893619630E+03  0.00000000000E+00 0. -1.
         11    1    1    2    0    0 -0.21024107461E+01 -0.65074696521E+01 -0.49896980178E+03  0.49901666343E+03  0.00000000000E+00 0.  1.
        -15    1    1    2    0    0  0.26362054751E+01  0.33492208395E+01  0.15507797344E+02  0.16180740620E+02  0.17770000000E+01 0. -1.
         15    1    1    2    0    0  0.80967669334E+01 -0.74469023566E+01  0.54743793174E+02  0.55866399648E+02  0.17770000000E+01 0.  1.
</event>
<event>
 6   1  0.3798113E-04  0.5008011E+03  0.7546771E-02  0.9398019E-01
        -11   -1    0    0    0    0  0.00000000000E+00  0.00000000000E+00  0.50000000000E+03  0.50000000000E+03  0.00000000000E+00 0.  1.
         11   -1    0    0    0    0 -0.00000000000E+00 -0.00000000000E+00 -0.50000000000E+03  0.50000000000E+03  0.00000000000E+00 0.  1.
        -11    1    1    2    0    0 -0.73834114561E+01  0.88993907794E+01  0.13644124505E+03  0.13693037381E+03  0.00000000000E+00 0.  1.
         11    1    1    2    0    0  0.35044233234E+01  0.77642149946E+01 -0.49912624137E+03  0.49919892712E+03  0.00000000000E+00 0.  1.
        -15    1    1    2    0    0  0.11503606898E+02 -0.16114339609E+02  0.30599566771E+03  0.30664068761E+03  0.17770000000E+01 0.  1.
         15    1    1    2    0    0 -0.76246187649E+01 -0.54926616531E+00  0.56689328607E+02  0.57230011458E+02  0.17770000000E+01 0. -1.
</event>
<event>
 6   1  0.3798113E-04  0.5078420E+03  0.7546771E-02  0.9382432E-01
        -11   -1    0    0    0    0  0.00000000000E+00  0.00000000000E+00  0.50000000000E+03  0.50000000000E+03  0.00000000000E+00 0. -1.
         11   -1    0    0    0    0 -0.00000000000E+00 -0.00000000000E+00 -0.50000000000E+03  0.50000000000E+03  0.00000000000E+00 0. -1.
        -11    1    1    2    0    0  0.58867009332E+01 -0.15556366574E+02  0.49187685112E+03  0.49215799339E+03  0.00000000000E+00 0. -1.
         11    1    1    2    0    0 -0.11681498388E+02  0.18973828122E+01 -0.48250126433E+03  0.48264637940E+03  0.00000000000E+00 0. -1.
        -15    1    1    2    0    0  0.64724043077E+01  0.78711521444E+01  0.35253465091E+01  0.10928533781E+02  0.17770000000E+01 0.  1.
         15    1    1    2    0    0 -0.67760685295E+00  0.57878316171E+01 -0.12900933303E+02  0.14267093431E+02  0.17770000000E+01 0. -1.
</event>
<event>
 6   1  0.3798113E-04  0.5001165E+03  0.7546771E-02  0.9399549E-01
        -11   -1    0    0    0    0  0.00000000000E+00  0.00000000000E+00  0.50000000000E+03  0.50000000000E+03  0.00000000000E+00 0.  1.
         11   -1    0    0    0    0 -0.00000000000E+00 -0.00000000000E+00 -0.50000000000E+03  0.50000000000E+03  0.00000000000E+00 0. -1.
        -11    1    1    2    0    0 -0.72506855967E+00 -0.11403288658E+02  0.25239828512E+03  0.25265679300E+03  0.00000000000E+00 0.  1.
         11    1    1    2    0    0  0.66508353122E+01  0.10763742251E+02 -0.49972338978E+03  0.49988354449E+03  0.00000000000E+00 0. -1.
        -15    1    1    2    0    0 -0.38806136146E+01  0.15833203045E+01  0.19718640587E+03  0.19723894761E+03  0.17770000000E+01 0.  1.
         15    1    1    2    0    0 -0.20451531379E+01 -0.94377389786E+00  0.50138698787E+02  0.50220714906E+02  0.17770000000E+01 0. -1.
</event>
<event>
 6   1  0.3798113E-04  0.5047793E+03  0.7546771E-02  0.9389179E-01
        -11   -1    0    0    0    0  0.00000000000E+00  0.00000000000E+00  0.50000000000E+03  0.50000000000E+03  0.00000000000E+00 0. -1.
         11   -1    0    0    0    0 -0.00000000000E+00 -0.00000000000E+00 -0.50000000000E+03  0.50000000000E+03  0.00000000000E+00 0.  1.
        -11    1    1    2    0    0  0.90056416086E+01 -0.89615581549E+01  0.49505766875E+03  0.49522066445E+03  0.00000000000E+00 0. -1.
         11    1    1    2    0    0  0.92320161749E+01 -0.99699461776E+00 -0.47570147706E+03  0.47579209682E+03  0.00000000000E+00 0.  1.
        -15    1    1    2    0    0 -0.12732861902E+02  0.86551014069E+01 -0.12411095754E+02  0.19855215420E+02  0.17770000000E+01 0.  1.
         15    1    1    2    0    0 -0.55047958818E+01  0.13034513658E+01 -0.69450959355E+01  0.91320233090E+01  0.17770000000E+01 0. -1.
</event>
<event>
 6   1  0.3798113E-04  0.5004817E+03  0.7546771E-02  0.9398732E-01
        -11   -1    0    0    0    0  0.00000000000E+00  0.00000000000E+00  0.50000000000E+03  0.50000000000E+03  0.00000000000E+00 0. -1.
         11   -1    0    0    0    0 -0.00000000000E+00 -0.00000000000E+00 -0.50000000000E+03  0.50000000000E+03  0.00000000000E+00 0.  1.
        -11    1    1    2    0    0 -0.20587938571E+02 -0.13216032569E+02  0.49891880447E+03  0.49951826812E+03  0.00000000000E+00 0. -1.
         11    1    1    2    0    0 -0.23585693950E+00 -0.17703968152E+01 -0.12954787105E+03  0.12956018226E+03  0.00000000000E+00 0.  1.
        -15    1    1    2    0    0  0.31147504333E+00  0.22683719067E+01 -0.17837456552E+03  0.17839811064E+03  0.17770000000E+01 0.  1.
         15    1    1    2    0    0  0.20512320467E+02  0.12718057477E+02 -0.19099636790E+03  0.19252343898E+03  0.17770000000E+01 0.  1.
</event>
<event>
 6   1  0.3798113E-04  0.4944193E+03  0.7546771E-02  0.9412384E-01
        -11   -1    0    0    0    0  0.00000000000E+00  0.00000000000E+00  0.50000000000E+03  0.50000000000E+03  0.00000000000E+00 0.  1.
         11   -1    0    0    0    0 -0.00000000000E+00 -0.00000000000E+00 -0.50000000000E+03  0.50000000000E+03  0.00000000000E+00 0. -1.
        -11    1    1    2    0    0  0.29700201637E+01  0.69742655239E+01  0.49381594385E+03  0.49387412141E+03  0.00000000000E+00 0.  1.
         11    1    1    2    0    0  0.55900911984E+01 -0.42641996262E+01 -0.49495590256E+03  0.49500583633E+03  0.00000000000E+00 0. -1.
        -15    1    1    2    0    0 -0.30618898439E+01 -0.52247061669E+00 -0.20941990599E+01  0.41462686435E+01  0.17770000000E+01 0. -1.
         15    1    1    2    0    0 -0.54982215182E+01 -0.21875952809E+01  0.32341577709E+01  0.69737736172E+01  0.17770000000E+01 0.  1.
</event>
<event>
 6   1  0.3798113E-04  0.5079520E+03  0.7546771E-02  0.9382190E-01
        -11   -1    0    0    0    0  0.00000000000E+00  0.00000000000E+00  0.50000000000E+03  0.50000000000E+03  0.00000000000E+00 0.  1.
         11   -1    0    0    0    0 -0.00000000000E+00 -0.00000000000E+00 -0.50000000000E+03  0.50000000000E+03  0.00000000000E+00 0.  1.
        -11    1    1    2    0    0 -0.17724837438E+02 -0.37136647925E+02  0.40591034777E+02  0.57800800908E+02  0.00000000000E+00 0.  1.
         11    1    1    2    0    0  0.11688877231E+02  0.35624099495E+02 -0.49061749348E+03  0.49204799687E+03  0.00000000000E+00 0.  1.
        -15    1    1    2    0    0  0.40190757905E+01 -0.27046097831E+01  0.29212426941E+03  0.29216983827E+03  0.17770000000E+01 0.  1.
         15    1    1    2    0    0  0.20168844165E+01  0.42171582127E+01  0.15790218929E+03  0.15798136395E+03  0.17770000000E+01 0. -1.
</event>
<event>
 6   1  0.3798113E-04  0.5003385E+03  0.7546771E-02  0.9399053E-01
        -11   -1    0    0    0    0  0.00000000000E+00  0.00000000000E+00  0.50000000000E+03  0.50000000000E+03  0.00000000000E+00 0.  1.
         11   -1    0    0    0    0 -0.00000000000E+00 -0.00000000000E+00 -0.50000000000E+03  0.50000000000E+03  0.00000000000E+00 0. -1.
        -11    1    1    2    0    0 -0.15396079145E+02 -0.53182614103E+02  0.49658449279E+03  0.49966147357E+03  0.00000000000E+00 0.  1.
         11    1    1    2    0    0 -0.21281117407E+01  0.14950828159E+02 -0.73156388708E+02  0.74698817467E+02  0.00000000000E+00 0. -1.
        -15    1    1    2    0    0 -0.44785831496E+00  0.65052655076E+01 -0.75312978298E+02  0.75615616678E+02  0.17770000000E+01 0.  1.
         15    1    1    2    0    0  0.17972049200E+02  0.31726520436E+02 -0.34811512578E+03  0.35002409228E+03  0.17770000000E+01 0. -1.
</event>
<event>
 6   1  0.3798113E-04  0.5006891E+03  0.7546771E-02  0.9398269E-01
        -11   -1    0    0    0    0  0.00000000000E+00  0.00000000000E+00  0.50000000000E+03  0.50000000000E+03  0.00000000000E+00 0.  1.
         11   -1    0    0    0    0 -0.00000000000E+00 -0.00000000000E+00 -0.50000000000E+03  0.50000000000E+03  0.00000000000E+00 0.  1.
        -11    1    1    2    0    0  0.15109597259E+02  0.38877641606E+01  0.99022362451E+02  0.10024391705E+03  0.00000000000E+00 0.  1.
         11    1    1    2    0    0 -0.92940375018E+01 -0.39018488502E+01 -0.49920917838E+03  0.49931093253E+03  0.00000000000E+00 0.  1.
        -15    1    1    2    0    0 -0.94644446326E+01  0.20317623571E+01  0.26798143403E+03  0.26816209741E+03  0.17770000000E+01 0. -1.
         15    1    1    2    0    0  0.36488848759E+01 -0.20176776675E+01  0.13220538190E+03  0.13228305302E+03  0.17770000000E+01 0.  1.
</event>
<event>
 6   1  0.3798113E-04  0.5040767E+03  0.7546771E-02  0.9390734E-01
        -11   -1    0    0    0    0  0.00000000000E+00  0.00000000000E+00  0.50000000000E+03  0.50000000000E+03  0.00000000000E+00 0.  1.
         11   -1    0    0    0    0 -0.00000000000E+00 -0.00000000000E+00 -0.50000000000E+03  0.50000000000E+03  0.00000000000E+00 0. -1.
        -11    1    1    2    0    0  0.18299535909E+02  0.65943970636E+01  0.37973239084E+03  0.38023025622E+03  0.00000000000E+00 0.  1.
         11    1    1    2    0    0  0.16927746218E+02 -0.42192919823E+01 -0.49561637184E+03  0.49592331973E+03  0.00000000000E+00 0. -1.
        -15    1    1    2    0    0 -0.55324602560E+01 -0.85313729736E+01  0.53164456661E+02  0.54157267494E+02  0.17770000000E+01 0. -1.
         15    1    1    2    0    0 -0.29694821871E+02  0.61562678924E+01  0.62719524333E+02  0.69689156559E+02  0.17770000000E+01 0.  1.
</event>
<event>
 6   1  0.3798113E-04  0.5004425E+03  0.7546771E-02  0.9398820E-01
        -11   -1    0    0    0    0  0.00000000000E+00  0.00000000000E+00  0.50000000000E+03  0.50000000000E+03  0.00000000000E+00 0.  1.
         11   -1    0    0    0    0 -0.00000000000E+00 -0.00000000000E+00 -0.50000000000E+03  0.50000000000E+03  0.00000000000E+00 0.  1.
        -11    1    1    2    0    0 -0.71253933260E+01 -0.47461952224E+01  0.49948413509E+03  0.49955750300E+03  0.00000000000E+00 0.  1.
         11    1    1    2    0    0 -0.81321882867E+01 -0.50208068446E+01 -0.23817422341E+03  0.23836589874E+03  0.00000000000E+00 0.  1.
        -15    1    1    2    0    0  0.13910065130E+02  0.52125783902E+01 -0.19554608094E+03  0.19611753717E+03  0.17770000000E+01 0.  1.
         15    1    1    2    0    0  0.13475164825E+01  0.45544236768E+01 -0.65763830741E+02  0.65959061079E+02  0.17770000000E+01 0. -1.
</event>
<event>
 6   1  0.3798113E-04  0.5000872E+03  0.7546771E-02  0.9399615E-01
        -11   -1    0    0    0    0  0.00000000000E+00  0.00000000000E+00  0.50000000000E+03  0.50000000000E+03  0.00000000000E+00 0.  1.
         11   -1    0    0    0    0 -0.00000000000E+00 -0.00000000000E+00 -0.50000000000E+03  0.50000000000E+03  0.00000000000E+00 0.  1.
        -11    1    1    2    0    0  0.31708977090E+01  0.13274721169E+01  0.24168621187E+03  0.24171065715E+03  0.00000000000E+00 0.  1.
         11    1    1    2    0    0  0.11582578727E+01 -0.67075322941E+01 -0.49986646855E+03  0.49991281133E+03  0.00000000000E+00 0.  1.
        -15    1    1    2    0    0 -0.48231258129E+01  0.39595593714E+01  0.23262230107E+03  0.23271277003E+03  0.17770000000E+01 0. -1.
         15    1    1    2    0    0  0.49397023129E+00  0.14205008057E+01  0.25557955620E+02  0.25663761486E+02  0.17770000000E+01 0.  1.
</event>
<event>
 6   1  0.3798113E-04  0.5007475E+03  0.7546771E-02  0.9398139E-01
        -11   -1    0    0    0    0  0.00000000000E+00  0.00000000000E+00  0.50000000000E+03  0.50000000000E+03  0.00000000000E+00 0. -1.
         11   -1    0    0    0    0 -0.00000000000E+00 -0.00000000000E+00 -0.50000000000E+03  0.50000000000E+03  0.00000000000E+00 0. -1.
        -11    1    1    2    0    0  0.30398682478E+01  0.21911125569E+02  0.27757604076E+03  0.27845609461E+03  0.00000000000E+00 0. -1.
         11    1    1    2    0    0 -0.39305141115E+01 -0.57196573693E+01 -0.49920426941E+03  0.49925250727E+03  0.00000000000E+00 0. -1.
        -15    1    1    2    0    0 -0.97769188986E+00 -0.12139921193E+02  0.16657164793E+03  0.16702576206E+03  0.17770000000E+01 0.  1.
         15    1    1    2    0    0  0.18683377536E+01 -0.40515470077E+01  0.55056580714E+02  0.55265636051E+02  0.17770000000E+01 0.  1.
</event>
<event>
 6   1  0.3798113E-04  0.4683277E+03  0.7546771E-02  0.9473608E-01
        -11   -1    0    0    0    0  0.00000000000E+00  0.00000000000E+00  0.50000000000E+03  0.50000000000E+03  0.00000000000E+00 0.  1.
         11   -1    0    0    0    0 -0.00000000000E+00 -0.00000000000E+00 -0.50000000000E+03  0.50000000000E+03  0.00000000000E+00 0.  1.
        -11    1    1    2    0    0  0.33581268829E+02 -0.14768108353E+02  0.45357714344E+03  0.45505826406E+03  0.00000000000E+00 0.  1.
         11    1    1    2    0    0  0.93674293729E+01  0.33774144984E+01 -0.48300969407E+03  0.48311232671E+03  0.00000000000E+00 0.  1.
        -15    1    1    2    0    0 -0.39247017142E+02  0.14014114163E+02  0.34985734874E+02  0.54441556958E+02  0.17770000000E+01 0. -1.
         15    1    1    2    0    0 -0.37016810602E+01 -0.26234203086E+01 -0.55531842483E+01  0.73878522645E+01  0.17770000000E+01 0.  1.
</event>
<event>
 6   1  0.3798113E-04  0.5043811E+03  0.7546771E-02  0.9390060E-01
        -11   -1    0    0    0    0  0.00000000000E+00  0.00000000000E+00  0.50000000000E+03  0.50000000000E+03  0.00000000000E+00 0.  1.
         11   -1    0    0    0    0 -0.00000000000E+00 -0.00000000000E+00 -0.50000000000E+03  0.50000000000E+03  0.00000000000E+00 0.  1.
        -11    1    1    2    0    0  0.69183924777E+02 -0.11103945961E+02  0.49064080812E+03  0.49561892181E+03  0.00000000000E+00 0.  1.
         11    1    1    2    0    0  0.75187215309E-02  0.89715776482E+01 -0.31277120500E+03  0.31289984969E+03  0.00000000000E+00 0.  1.
        -15    1    1    2    0    0 -0.58596603952E+02  0.64317883354E+01 -0.15523926377E+03  0.16606419434E+03  0.17770000000E+01 0.  1.
         15    1    1    2    0    0 -0.10594839547E+02 -0.42994200230E+01 -0.22630339344E+02  0.25417034158E+02  0.17770000000E+01 0. -1.
</event>
<event>
 6   1  0.3798113E-04  0.5001429E+03  0.7546771E-02  0.9399490E-01
        -11   -1    0    0    0    0  0.00000000000E+00  0.00000000000E+00  0.50000000000E+03  0.50000000000E+03  0.00000000000E+00 0. -1.
         11   -1    0    0    0    0 -0.00000000000E+00 -0.00000000000E+00 -0.50000000000E+03  0.50000000000E+03  0.00000000000E+00 0.  1.
        -11    1    1    2    0    0  0.78370175892E+00  0.67096473258E+01  0.81074611940E+02  0.81355554555E+02  0.00000000000E+00 0. -1.
         11    1    1    2    0    0  0.37266203685E+01 -0.79780999193E+01 -0.49977954407E+03  0.49985711003E+03  0.00000000000E+00 0.  1.
        -15    1    1    2    0    0 -0.11828495671E+01  0.30941124957E+01  0.13825529775E+03  0.13830639085E+03  0.17770000000E+01 0. -1.
         15    1    1    2    0    0 -0.33274725603E+01 -0.18256599022E+01  0.28044963438E+03  0.28048094456E+03  0.17770000000E+01 0. -1.
</event>
<event>
 6   1  0.3798113E-04  0.5004996E+03  0.7546771E-02  0.9398693E-01
        -11   -1    0    0    0    0  0.00000000000E+00  0.00000000000E+00  0.50000000000E+03  0.50000000000E+03  0.00000000000E+00 0. -1.
         11   -1    0    0    0    0 -0.00000000000E+00 -0.00000000000E+00 -0.50000000000E+03  0.50000000000E+03  0.00000000000E+00 0.  1.
        -11    1    1    2    0    0 -0.95033083389E+01 -0.14204307104E+02  0.18313148945E+03  0.18392720745E+03  0.00000000000E+00 0. -1.
         11    1    1    2    0    0  0.12559476476E+02  0.50486267035E+01 -0.49931696564E+03  0.49950041167E+03  0.00000000000E+00 0.  1.
        -15    1    1    2    0    0  0.13243836013E+01  0.26933881098E+01  0.22736390451E+03  0.22739065754E+03  0.17770000000E+01 0.  1.
         15    1    1    2    0    0 -0.43805517380E+01  0.64622922903E+01  0.88821571676E+02  0.89181723347E+02  0.17770000000E+01 0. -1.
</event>
<event>
 6   1  0.3798113E-04  0.5000394E+03  0.7546771E-02  0.9399722E-01
        -11   -1    0    0    0    0  0.00000000000E+00  0.00000000000E+00  0.50000000000E+03  0.50000000000E+03  0.00000000000E+00 0.  1.
         11   -1    0    0    0    0 -0.00000000000E+00 -0.00000000000E+00 -0.50000000000E+03  0.50000000000E+03  0.00000000000E+00 0.  1.
        -11    1    1    2    0    0  0.11935633709E+02 -0.10956031042E+02  0.49969802935E+03  0.49996061295E+03  0.00000000000E+00 0.  1.
         11    1    1    2    0    0 -0.97121446659E+00 -0.37064395632E+00 -0.64592371825E+02  0.64600736315E+02  0.00000000000E+00 0.  1.
        -15    1    1    2    0    0 -0.24257094240E+01  0.11993141940E+01 -0.13014735954E+03  0.13018761594E+03  0.17770000000E+01 0.  1.
         15    1    1    2    0    0 -0.85387098187E+01  0.10127360804E+02 -0.30495829798E+03  0.30525103479E+03  0.17770000000E+01 0.  1.
</event>
<event>
 6   1  0.3798113E-04  0.4653822E+03  0.7546771E-02  0.9480786E-01
        -11   -1    0    0    0    0  0.00000000000E+00  0.00000000000E+00  0.50000000000E+03  0.50000000000E+03  0.00000000000E+00 0. -1.
         11   -1    0    0    0    0 -0.00000000000E+00 -0.00000000000E+00 -0.50000000000E+03  0.50000000000E+03  0.00000000000E+00 0.  1.
        -11    1    1    2    0    0 -0.21832478682E+01  0.22858996490E+02  0.47353424037E+03  0.47409068447E+03  0.00000000000E+00 0. -1.
         11    1    1    2    0    0  0.14118967301E+02  0.73183504626E+01 -0.45710754979E+03  0.45738410070E+03  0.00000000000E+00 0.  1.
        -15    1    1    2    0    0 -0.30796406529E+02 -0.48808555333E+01 -0.19425162715E+02  0.36779560646E+02  0.17770000000E+01 0.  1.
         15    1    1    2    0    0  0.18860687096E+02 -0.25296491419E+02  0.29984721358E+01  0.31745654190E+02  0.17770000000E+01 0. -1.
</event>
<event>
 6   1  0.3798113E-04  0.5004669E+03  0.7546771E-02  0.9398766E-01
        -11   -1    0    0    0    0  0.00000000000E+00  0.00000000000E+00  0.50000000000E+03  0.50000000000E+03  0.00000000000E+00 0. -1.
         11   -1    0    0    0    0 -0.00000000000E+00 -0.00000000000E+00 -0.50000000000E+03  0.50000000000E+03  0.00000000000E+00 0.  1.
        -11    1    1    2    0    0  0.10029528785E+02  0.12157914590E+00  0.55978290813E+02  0.56869809842E+02  0.00000000000E+00 0. -1.
         11    1    1    2    0    0 -0.10240805257E+02  0.17519927708E+01 -0.49942501046E+03  0.49953306662E+03  0.00000000000E+00 0.  1.
        -15    1    1    2    0    0 -0.48015067002E+01 -0.15783113595E+01  0.13799279577E+03  0.13809675936E+03  0.17770000000E+01 0.  1.
         15    1    1    2    0    0  0.50127831719E+01 -0.29526055726E+00  0.30545392388E+03  0.30550036418E+03  0.17770000000E+01 0. -1.
</event>
<event>
 6   1  0.3798113E-04  0.5008765E+03  0.7546771E-02  0.9397851E-01
        -11   -1    0    0    0    0  0.00000000000E+00  0.00000000000E+00  0.50000000000E+03  0.50000000000E+03  0.00000000000E+00 0.  1.
         11   -1    0    0    0    0 -0.00000000000E+00 -0.00000000000E+00 -0.50000000000E+03  0.50000000000E+03  0.00000000000E+00 0.  1.
        -11    1    1    2    0    0  0.73742106093E+01 -0.17779956948E+01  0.49906583713E+03  0.49912348175E+03  0.00000000000E+00 0.  1.
         11    1    1    2    0    0 -0.76867543730E+01 -0.23300068822E+01 -0.48259181735E+03  0.48265865506E+03  0.00000000000E+00 0.  1.
        -15    1    1    2    0    0  0.26442981433E+01  0.34510884467E+01 -0.87653601118E+01  0.99444251230E+01  0.17770000000E+01 0. -1.
         15    1    1    2    0    0 -0.23317543796E+01  0.65691413029E+00 -0.77086596626E+01  0.82734380674E+01  0.17770000000E+01 0.  1.
</event>
<event>
 6   1  0.3798113E-04  0.3273619E+03  0.7546771E-02  0.9899317E-01
        -11   -1    0    0    0    0  0.00000000000E+00  0.00000000000E+00  0.50000000000E+03  0.50000000000E+03  0.00000000000E+00 0. -1.
         11   -1    0    0    0    0 -0.00000000000E+00 -0.00000000000E+00 -0.50000000000E+03  0.50000000000E+03  0.00000000000E+00 0.  1.
        -11    1    1    2    0    0  0.23539600838E+03 -0.43760908253E+02  0.24696283244E+03  0.34397229316E+03  0.00000000000E+00 0. -1.
         11    1    1    2    0    0 -0.90991155850E+00 -0.65666445904E+01 -0.36278770580E+03  0.36284827165E+03  0.00000000000E+00 0.  1.
        -15    1    1    2    0    0 -0.20761883600E+03  0.75600852866E+02  0.12666486103E+03  0.25469239244E+03  0.17770000000E+01 0. -1.
         15    1    1    2    0    0 -0.26867260827E+02 -0.25273300022E+02 -0.10839987670E+02  0.38487042755E+02  0.17770000000E+01 0.  1.
</event>
<event>
 6   1  0.3798113E-04  0.5055608E+03  0.7546771E-02  0.9387452E-01
        -11   -1    0    0    0    0  0.00000000000E+00  0.00000000000E+00  0.50000000000E+03  0.50000000000E+03  0.00000000000E+00 0. -1.
         11   -1    0    0    0    0 -0.00000000000E+00 -0.00000000000E+00 -0.50000000000E+03  0.50000000000E+03  0.00000000000E+00 0. -1.
        -11    1    1    2    0    0  0.21721880880E+02  0.50872433035E+01  0.44332914136E+03  0.44389013025E+03  0.00000000000E+00 0. -1.
         11    1    1    2    0    0  0.66073621702E+01 -0.38840065906E+01 -0.49437982139E+03  0.49443922836E+03  0.00000000000E+00 0. -1.
        -15    1    1    2    0    0 -0.17670797481E+02 -0.54867909618E+01  0.44732404450E+02  0.48440764812E+02  0.17770000000E+01 0. -1.
         15    1    1    2    0    0 -0.10658445569E+02  0.42835542488E+01  0.63182755832E+01  0.13229876579E+02  0.17770000000E+01 0.  1.
</event>
<event>
 6   1  0.3798113E-04  0.5009960E+03  0.7546771E-02  0.9397584E-01
        -11   -1    0    0    0    0  0.00000000000E+00  0.00000000000E+00  0.50000000000E+03  0.50000000000E+03  0.00000000000E+00 0.  1.
         11   -1    0    0    0    0 -0.00000000000E+00 -0.00000000000E+00 -0.50000000000E+03  0.50000000000E+03  0.00000000000E+00 0. -1.
        -11    1    1    2    0    0 -0.24843976277E+01  0.16898115921E+02  0.49871161261E+03  0.49900399909E+03  0.00000000000E+00 0.  1.
         11    1    1    2    0    0 -0.47831004483E+01 -0.55560840153E+01 -0.36917644125E+03  0.36924922870E+03  0.00000000000E+00 0. -1.
        -15    1    1    2    0    0 -0.64676971839E+01 -0.35110391405E+01 -0.29590777434E+02  0.30543908408E+02  0.17770000000E+01 0.  1.
         15    1    1    2    0    0  0.13735195260E+02 -0.78309927651E+01 -0.99944393922E+02  0.10120286380E+03  0.17770000000E+01 0. -1.
</event>
<event>
 6   1  0.3798113E-04  0.4813816E+03  0.7546771E-02  0.9442461E-01
        -11   -1    0    0    0    0  0.00000000000E+00  0.00000000000E+00  0.50000000000E+03  0.50000000000E+03  0.00000000000E+00 0. -1.
         11   -1    0    0    0    0 -0.00000000000E+00 -0.00000000000E+00 -0.50000000000E+03  0.50000000000E+03  0.00000000000E+00 0. -1.
        -11    1    1    2    0    0  0.36230228002E+02 -0.57505050622E+01 -0.11084883533E+02  0.38321956793E+02  0.00000000000E+00 0. -1.
         11    1    1    2    0    0 -0.46096662889E+02  0.12844601037E+02 -0.47309801024E+03  0.47551194875E+03  0.00000000000E+00 0. -1.
        -15    1    1    2    0    0  0.25005255662E+02 -0.91432362844E+01  0.23523753864E+03  0.23674610640E+03  0.17770000000E+01 0. -1.
         15    1    1    2    0    0 -0.15138820775E+02  0.20491403095E+01  0.24894535514E+03  0.24941998806E+03  0.17770000000E+01 0.  1.
</event>
<event>
 6   1  0.3798113E-04  0.5008456E+03  0.7546771E-02  0.9397920E-01
        -11   -1    0    0    0    0  0.00000000000E+00  0.00000000000E+00  0.50000000000E+03  0.50000000000E+03  0.00000000000E+00 0.  1.
         11   -1    0    0    0    0 -0.00000000000E+00 -0.00000000000E+00 -0.50000000000E+03  0.50000000000E+03  0.00000000000E+00 0.  1.
        -11    1    1    2    0    0  0.38145731180E+02 -0.32622308242E+02  0.32238423807E+03  0.32626815468E+03  0.00000000000E+00 0.  1.
         11    1    1    2    0    0 -0.32252890176E+02  0.37057484764E+02 -0.49673093087E+03  0.49915440876E+03  0.00000000000E+00 0.  1.
        -15    1    1    2    0    0 -0.11158621182E+01 -0.12322417825E+01  0.81189454128E+02  0.81225911867E+02  0.17770000000E+01 0. -1.
         15    1    1    2    0    0 -0.47769788855E+01 -0.32029347391E+01  0.93157238664E+02  0.93351524694E+02  0.17770000000E+01 0. -1.
</event>
<event>
 6   1  0.3798113E-04  0.5017460E+03  0.7546771E-02  0.9395911E-01
        -11   -1    0    0    0    0  0.00000000000E+00  0.00000000000E+00  0.50000000000E+03  0.50000000000E+03  0.00000000000E+00 0.  1.
         11   -1    0    0    0    0 -0.00000000000E+00 -0.00000000000E+00 -0.50000000000E+03  0.50000000000E+03  0.00000000000E+00 0. -1.
        -11    1    1    2    0    0  0.19111567405E+02 -0.20765558046E+01  0.35920059144E+03  0.35971464939E+03  0.00000000000E+00 0.  1.
         11    1    1    2    0    0  0.59376547924E+01  0.91014718954E+01 -0.49813546174E+03  0.49825398220E+03  0.00000000000E+00 0. -1.
        -15    1    1    2    0    0 -0.24867403225E+01 -0.33563915472E+01  0.89019699860E+01  0.99925992755E+01  0.17770000000E+01 0.  1.
         15    1    1    2    0    0 -0.22562481875E+02 -0.36685245436E+01  0.13003290032E+03  0.13203876913E+03  0.17770000000E+01 0. -1.
</event>
<event>
 6   1  0.3798113E-04  0.5007537E+03  0.7546771E-02  0.9398125E-01
        -11   -1    0    0    0    0  0.00000000000E+00  0.00000000000E+00  0.50000000000E+03  0.50000000000E+03  0.00000000000E+00 0.  1.
         11   -1    0    0    0    0 -0.00000000000E+00 -0.00000000000E+00 -0.50000000000E+03  0.50000000000E+03  0.00000000000E+00 0. -1.
        -11    1    1    2    0    0 -0.43527773312E+01  0.94280002305E+01  0.32757400522E+03  0.32773855854E+03  0.00000000000E+00 0.  1.
         11    1    1    2    0    0  0.13388531551E+01  0.10274763892E+02 -0.49913875518E+03  0.49924629215E+03  0.00000000000E+00 0. -1.
        -15    1    1    2    0    0  0.43696784926E+01 -0.95792301134E+01  0.57721153839E+02  0.58700469072E+02  0.17770000000E+01 0. -1.
         15    1    1    2    0    0 -0.13557543165E+01 -0.10123534009E+02  0.11384359613E+03  0.11431468024E+03  0.17770000000E+01 0.  1.
</event>
<event>
 6   1  0.3798113E-04  0.5007407E+03  0.7546771E-02  0.9398154E-01
        -11   -1    0    0    0    0  0.00000000000E+00  0.00000000000E+00  0.50000000000E+03  0.50000000000E+03  0.00000000000E+00 0.  1.
         11   -1    0    0    0    0 -0.00000000000E+00 -0.00000000000E+00 -0.50000000000E+03  0.50000000000E+03  0.00000000000E+00 0. -1.
        -11    1    1    2    0    0  0.54679586697E+02  0.46509578487E+01  0.49623419051E+03  0.49925931183E+03  0.00000000000E+00 0.  1.
         11    1    1    2    0    0 -0.16370226478E+02  0.50691760306E+01 -0.27950380888E+03  0.28002867717E+03  0.00000000000E+00 0. -1.
        -15    1    1    2    0    0 -0.35587721543E+02 -0.53717755354E+01 -0.19584745696E+03  0.19913494425E+03  0.17770000000E+01 0.  1.
         15    1    1    2    0    0 -0.27216386754E+01 -0.43483583439E+01 -0.20882924680E+02  0.21577066751E+02  0.17770000000E+01 0. -1.
</event>
<event>
 6   1  0.3798113E-04  0.5051320E+03  0.7546771E-02  0.9388399E-01
        -11   -1    0    0    0    0  0.00000000000E+00  0.00000000000E+00  0.50000000000E+03  0.50000000000E+03  0.00000000000E+00 0.  1.
         11   -1    0    0    0    0 -0.00000000000E+00 -0.00000000000E+00 -0.50000000000E+03  0.50000000000E+03  0.00000000000E+00 0.  1.
        -11    1    1    2    0    0 -0.22950447515E+01  0.85741055892E+01  0.47703266584E+03  0.47711523429E+03  0.00000000000E+00 0.  1.
         11    1    1    2    0    0 -0.42004519254E+01  0.10402467086E+02 -0.49474086414E+03  0.49486804076E+03  0.00000000000E+00 0.  1.
        -15    1    1    2    0    0  0.35094401037E+01 -0.31772564538E+01  0.19098647342E+01  0.54052234660E+01  0.17770000000E+01 0. -1.
         15    1    1    2    0    0  0.29860565732E+01 -0.15799316222E+02  0.15798333565E+02  0.22611501484E+02  0.17770000000E+01 0.  1.
</event>
<event>
 6   1  0.3798113E-04  0.5011918E+03  0.7546771E-02  0.9397147E-01
        -11   -1    0    0    0    0  0.00000000000E+00  0.00000000000E+00  0.50000000000E+03  0.50000000000E+03  0.00000000000E+00 0.  1.
         11   -1    0    0    0    0 -0.00000000000E+00 -0.00000000000E+00 -0.50000000000E+03  0.50000000000E+03  0.00000000000E+00 0.  1.
        -11    1    1    2    0    0 -0.95854133155E+01 -0.95636969202E+00  0.42387846952E+03  0.42398791458E+03  0.00000000000E+00 0.  1.
         11    1    1    2    0    0 -0.50437733476E+01  0.62411435145E+01 -0.49874365501E+03  0.49880820456E+03  0.00000000000E+00 0.  1.
        -15    1    1    2    0    0  0.84237120838E+01 -0.18629985626E+01  0.59970725376E+02  0.60614151154E+02  0.17770000000E+01 0.  1.
         15    1    1    2    0    0  0.62054745793E+01 -0.34217752598E+01  0.14894460112E+02  0.16589729706E+02  0.17770000000E+01 0. -1.
</event>
<event>
 6   1  0.3798113E-04  0.5012142E+03  0.7546771E-02  0.9397097E-01
        -11   -1    0    0    0    0  0.00000000000E+00  0.00000000000E+00  0.50000000000E+03  0.50000000000E+03  0.00000000000E+00 0. -1.
         11   -1    0    0    0    0 -0.00000000000E+00 -0.00000000000E+00 -0.50000000000E+03  0.50000000000E+03  0.00000000000E+00 0.  1.
        -11    1    1    2    0    0 -0.29069623478E+01 -0.91077744874E+01  0.40869720707E+03  0.40880901293E+03  0.00000000000E+00 0. -1.
         11    1    1    2    0    0 -0.95195135282E+00 -0.67193832808E+01 -0.49873964690E+03  0.49878581748E+03  0.00000000000E+00 0.  1.
        -15    1    1    2    0    0 -0.44893924321E+01  0.57346387467E+01  0.35660382677E+02  0.36439831883E+02  0.17770000000E+01 0.  1.
         15    1    1    2    0    0  0.83483061327E+01  0.10092519021E+02  0.54382057153E+02  0.55965337707E+02  0.17770000000E+01 0. -1.
</event>
<event>
 6   1  0.3798113E-04  0.4665307E+03  0.7546771E-02  0.9477981E-01
        -11   -1    0    0    0    0  0.00000000000E+00  0.00000000000E+00  0.50000000000E+03  0.50000000000E+03  0.00000000000E+00 0.  1.
         11   -1    0    0    0    0 -0.00000000000E+00 -0.00000000000E+00 -0.50000000000E+03  0.50000000000E+03  0.00000000000E+00 0.  1.
        -11    1    1    2    0    0 -0.47780605837E+02 -0.24582809491E+02 -0.36467648946E+02  0.64939897107E+02  0.00000000000E+00 0.  1.
         11    1    1    2    0    0  0.77861584286E+02  0.60275676894E+02 -0.44262648217E+03  0.45344656383E+03  0.00000000000E+00 0.  1.
        -15    1    1    2    0    0 -0.22367347518E+01 -0.76659544149E+01  0.13639345236E+03  0.13663857953E+03  0.17770000000E+01 0. -1.
         15    1    1    2    0    0 -0.27844243697E+02 -0.28026912988E+02  0.34270067875E+03  0.34497495953E+03  0.17770000000E+01 0.  1.
</event>
<event>
 6   1  0.3798113E-04  0.5001880E+03  0.7546771E-02  0.9399389E-01
        -11   -1    0    0    0    0  0.00000000000E+00  0.00000000000E+00  0.50000000000E+03  0.50000000000E+03  0.00000000000E+00 0. -1.
         11   -1    0    0    0    0 -0.00000000000E+00 -0.00000000000E+00 -0.50000000000E+03  0.50000000000E+03  0.00000000000E+00 0.  1.
        -11    1    1    2    0    0 -0.12147646512E+02 -0.85883571958E+00  0.20154182832E+03  0.20190941403E+03  0.00000000000E+00 0. -1.
         11    1    1    2    0    0  0.73867487789E+01  0.17201435791E+01 -0.49975446893E+03  0.49981201683E+03  0.00000000000E+00 0.  1.
        -15    1    1    2    0    0  0.34336628286E+01  0.37486792297E-01  0.19283719727E+03  0.19287595450E+03  0.17770000000E+01 0. -1.
         15    1    1    2    0    0  0.13272349044E+01 -0.89879465178E+00  0.10537544334E+03  0.10540261464E+03  0.17770000000E+01 0. -1.
</event>
<event>
 6   1  0.3798113E-04  0.4808897E+03  0.7546771E-02  0.9443616E-01
        -11   -1    0    0    0    0  0.00000000000E+00  0.00000000000E+00  0.50000000000E+03  0.50000000000E+03  0.00000000000E+00 0.  1.
         11   -1    0    0    0    0 -0.00000000000E+00 -0.00000000000E+00 -0.50000000000E+03  0.50000000000E+03  0.00000000000E+00 0. -1.
        -11    1    1    2    0    0  0.21479619696E+00  0.13048022895E+02  0.47942067005E+03  0.47959824427E+03  0.00000000000E+00 0.  1.
         11    1    1    2    0    0 -0.85843182402E+01  0.15170296235E+02 -0.48232092682E+03  0.48263578903E+03  0.00000000000E+00 0. -1.
        -15    1    1    2    0    0 -0.24711720871E+01  0.15804451883E+00 -0.54219486025E+01  0.62198814460E+01  0.17770000000E+01 0.  1.
         15    1    1    2    0    0  0.10840694130E+02 -0.28376363649E+02  0.83222053742E+01  0.31546085247E+02  0.17770000000E+01 0. -1.
</event>
<event>
 6   1  0.3798113E-04  0.5020612E+03  0.7546771E-02  0.9395209E-01
        -11   -1    0    0    0    0  0.00000000000E+00  0.00000000000E+00  0.50000000000E+03  0.50000000000E+03  0.00000000000E+00 0.  1.
         11   -1    0    0    0    0 -0.00000000000E+00 -0.00000000000E+00 -0.50000000000E+03  0.50000000000E+03  0.00000000000E+00 0.  1.
        -11    1    1    2    0    0 -0.70770454847E+01  0.18505257093E+02  0.44983382340E+03  0.45026991659E+03  0.00000000000E+00 0.  1.
         11    1    1    2    0    0  0.98192215607E+01 -0.17624378593E+01 -0.49783883599E+03  0.49793878130E+03  0.00000000000E+00 0.  1.
        -15    1    1    2    0    0 -0.26516049397E+01 -0.11764677737E+02  0.42264734246E+02  0.43987545293E+02  0.17770000000E+01 0. -1.
         15    1    1    2    0    0 -0.90571136253E-01 -0.49781414962E+01  0.57402783459E+01  0.78037568116E+01  0.17770000000E+01 0.  1.
</event>
<event>
 6   1  0.3798113E-04  0.5008308E+03  0.7546771E-02  0.9397953E-01
        -11   -1    0    0    0    0  0.00000000000E+00  0.00000000000E+00  0.50000000000E+03  0.50000000000E+03  0.00000000000E+00 0. -1.
         11   -1    0    0    0    0 -0.00000000000E+00 -0.00000000000E+00 -0.50000000000E+03  0.50000000000E+03  0.00000000000E+00 0. -1.
        -11    1    1    2    0    0 -0.15454549858E+02 -0.18109958859E+02  0.27853438290E+03  0.27955002446E+03  0.00000000000E+00 0. -1.
         11    1    1    2    0    0  0.15290564000E+02  0.49173893511E+01 -0.49891076782E+03  0.49916924616E+03  0.00000000000E+00 0. -1.
        -15    1    1    2    0    0 -0.51985870414E+01 -0.13458200377E+00  0.56936767569E+02  0.57201369300E+02  0.17770000000E+01 0.  1.
         15    1    1    2    0    0  0.53625728988E+01  0.13327151511E+02  0.16343961735E+03  0.16407936008E+03  0.17770000000E+01 0. -1.
</event>
<event>
 6   1  0.3798113E-04  0.5008664E+03  0.7546771E-02  0.9397873E-01
        -11   -1    0    0    0    0  0.00000000000E+00  0.00000000000E+00  0.50000000000E+03  0.50000000000E+03  0.00000000000E+00 0. -1.
         11   -1    0    0    0    0 -0.00000000000E+00 -0.00000000000E+00 -0.50000000000E+03  0.50000000000E+03  0.00000000000E+00 0.  1.
        -11    1    1    2    0    0  0.69243819908E+01 -0.73016340951E+01  0.29153035635E+02  0.30840888657E+02  0.00000000000E+00 0. -1.
         11    1    1    2    0    0  0.22103335682E+01  0.97236312820E+01 -0.49903401117E+03  0.49913362828E+03  0.00000000000E+00 0.  1.
        -15    1    1    2    0    0 -0.13196324195E+01 -0.28304833651E+01  0.12875649497E+03  0.12880662169E+03  0.17770000000E+01 0. -1.
         15    1    1    2    0    0 -0.78150831395E+01  0.40848617808E+00  0.34112448057E+03  0.34121886137E+03  0.17770000000E+01 0. -1.
</event>
<event>
 6   1  0.3798113E-04  0.5078702E+03  0.7546771E-02  0.9382370E-01
        -11   -1    0    0    0    0  0.00000000000E+00  0.00000000000E+00  0.50000000000E+03  0.50000000000E+03  0.00000000000E+00 0. -1.
         11   -1    0    0    0    0 -0.00000000000E+00 -0.00000000000E+00 -0.50000000000E+03  0.50000000000E+03  0.00000000000E+00 0.  1.
        -11    1    1    2    0    0 -0.10133347312E+03 -0.71282451278E+02  0.32089498542E+03  0.34398147088E+03  0.00000000000E+00 0. -1.
         11    1    1    2    0    0  0.89297239246E+02  0.44341680489E+02 -0.48192484831E+03  0.49212980095E+03  0.00000000000E+00 0.  1.
        -15    1    1    2    0    0  0.18049473840E+01  0.11394387030E+02  0.68787059712E+02  0.69770389161E+02  0.17770000000E+01 0.  1.
         15    1    1    2    0    0  0.10231286490E+02  0.15546383759E+02  0.92242803176E+02  0.94118339010E+02  0.17770000000E+01 0. -1.
</event>
<event>
 6   1  0.3798113E-04  0.5009223E+03  0.7546771E-02  0.9397748E-01
        -11   -1    0    0    0    0  0.00000000000E+00  0.00000000000E+00  0.50000000000E+03  0.50000000000E+03  0.00000000000E+00 0.  1.
         11   -1    0    0    0    0 -0.00000000000E+00 -0.00000000000E+00 -0.50000000000E+03  0.50000000000E+03  0.00000000000E+00 0. -1.
        -11    1    1    2    0    0  0.37534014325E+01  0.11671162975E+02  0.31258266435E+03  0.31282299487E+03  0.00000000000E+00 0.  1.
         11    1    1    2    0    0 -0.17813102822E+01  0.12264911238E+02 -0.49892376524E+03  0.49907767395E+03  0.00000000000E+00 0. -1.
        -15    1    1    2    0    0 -0.22669502132E+01 -0.73509129072E+01  0.37231910591E+02  0.38059793472E+02  0.17770000000E+01 0.  1.
         15    1    1    2    0    0  0.29485906293E+00 -0.16585161306E+02  0.14910919029E+03  0.15003953771E+03  0.17770000000E+01 0. -1.
</event>
<event>
 6   1  0.3798113E-04  0.5001639E+03  0.7546771E-02  0.9399443E-01
        -11   -1    0    0    0    0  0.00000000000E+00  0.00000000000E+00  0.50000000000E+03  0.50000000000E+03  0.00000000000E+00 0.  1.
         11   -1    0    0    0    0 -0.00000000000E+00 -0.00000000000E+00 -0.50000000000E+03  0.50000000000E+03  0.00000000000E+00 0.  1.
        -11    1    1    2    0    0 -0.63667390659E+01  0.11239044847E+02  0.49966918044E+03  0.49983611452E+03  0.00000000000E+00 0.  1.
         11    1    1    2    0    0 -0.11950554796E+01  0.25030762110E+01 -0.17233164413E+03  0.17235396461E+03  0.00000000000E+00 0.  1.
        -15    1    1    2    0    0  0.44837874678E+01 -0.10025182280E+02 -0.27380782986E+03  0.27403374620E+03  0.17770000000E+01 0. -1.
         15    1    1    2    0    0  0.30780070777E+01 -0.37169387776E+01 -0.53529706448E+02  0.53776174676E+02  0.17770000000E+01 0.  1.
</event>
<event>
 6   1  0.3798113E-04  0.5011323E+03  0.7546771E-02  0.9397280E-01
        -11   -1    0    0    0    0  0.00000000000E+00  0.00000000000E+00  0.50000000000E+03  0.50000000000E+03  0.00000000000E+00 0.  1.
         11   -1    0    0    0    0 -0.00000000000E+00 -0.00000000000E+00 -0.50000000000E+03  0.50000000000E+03  0.00000000000E+00 0. -1.
        -11    1    1    2    0    0  0.15148663893E+01 -0.77722535762E+01  0.49880485137E+03  0.49886770039E+03  0.00000000000E+00 0.  1.
         11    1    1    2    0    0 -0.53324946818E+01 -0.91118657785E+01 -0.41207046462E+03  0.41220568823E+03  0.00000000000E+00 0. -1.
        -15    1    1    2    0    0  0.37157913225E+01  0.95332621039E+01 -0.66860621952E+02  0.67662328428E+02  0.17770000000E+01 0. -1.
         15    1    1    2    0    0  0.10183697007E+00  0.73508572508E+01 -0.19873764796E+02  0.21264282947E+02  0.17770000000E+01 0.  1.
</event>
<event>
 6   1  0.3798113E-04  0.5013876E+03  0.7546771E-02  0.9396710E-01
        -11   -1    0    0    0    0  0.00000000000E+00  0.00000000000E+00  0.50000000000E+03  0.50000000000E+03  0.00000000000E+00 0.  1.
         11   -1    0    0    0    0 -0.00000000000E+00 -0.00000000000E+00 -0.50000000000E+03  0.50000000000E+03  0.00000000000E+00 0.  1.
        -11    1    1    2    0    0 -0.39336337627E+01  0.91210081255E+01  0.45345942963E+03  0.45356820941E+03  0.00000000000E+00 0.  1.
         11    1    1    2    0    0  0.58706476349E+01  0.33556416808E+01 -0.49856654284E+03  0.49861239703E+03  0.00000000000E+00 0.  1.
        -15    1    1    2    0    0 -0.18286004854E+01  0.62906621187E+00  0.84859215107E+01  0.88830229607E+01  0.17770000000E+01 0. -1.
         15    1    1    2    0    0 -0.10841338667E+00 -0.13105716018E+02  0.36621191691E+02  0.38936370603E+02  0.17770000000E+01 0.  1.
</event>
<event>
 6   1  0.3798113E-04  0.5053326E+03  0.7546771E-02  0.9387956E-01
        -11   -1    0    0    0    0  0.00000000000E+00  0.00000000000E+00  0.50000000000E+03  0.50000000000E+03  0.00000000000E+00 0. -1.
         11   -1    0    0    0    0 -0.00000000000E+00 -0.00000000000E+00 -0.50000000000E+03  0.50000000000E+03  0.00000000000E+00 0. -1.
        -11    1    1    2    0    0  0.74962442389E+00 -0.15689345347E+02  0.48140880895E+03  0.48166498609E+03  0.00000000000E+00 0. -1.
         11    1    1    2    0    0 -0.66427342642E+01 -0.15800744762E+01 -0.49462022643E+03  0.49466735383E+03  0.00000000000E+00 0. -1.
        -15    1    1    2    0    0  0.55448390023E+01  0.74506819426E+01  0.81004196888E+01  0.12451201914E+02  0.17770000000E+01 0. -1.
         15    1    1    2    0    0  0.34827083792E+00  0.98187378811E+01  0.51109977937E+01  0.11216458158E+02  0.17770000000E+01 0.  1.
</event>
<event>
 6   1  0.3798113E-04  0.5036168E+03  0.7546771E-02  0.9391753E-01
        -11   -1    0    0    0    0  0.00000000000E+00  0.00000000000E+00  0.50000000000E+03  0.50000000000E+03  0.00000000000E+00 0.  1.
         11   -1    0    0    0    0 -0.00000000000E+00 -0.00000000000E+00 -0.50000000000E+03  0.50000000000E+03  0.00000000000E+00 0. -1.
        -11    1    1    2    0    0 -0.36516093827E+01 -0.12650004633E+02  0.47541421438E+03  0.47559650135E+03  0.00000000000E+00 0.  1.
         11    1    1    2    0    0  0.12459734726E+02 -0.12603254044E+01 -0.49622514902E+03  0.49638315033E+03  0.00000000000E+00 0. -1.
        -15    1    1    2    0    0 -0.18335480979E+01  0.80820307622E+01  0.14558631036E+02  0.16846144559E+02  0.17770000000E+01 0. -1.
         15    1    1    2    0    0 -0.69745772459E+01  0.58282992755E+01  0.62523036088E+01  0.11174203758E+02  0.17770000000E+01 0.  1.
</event>
<event>
 6   1  0.3798113E-04  0.4741271E+03  0.7546771E-02  0.9459639E-01
        -11   -1    0    0    0    0  0.00000000000E+00  0.00000000000E+00  0.50000000000E+03  0.50000000000E+03  0.00000000000E+00 0. -1.
         11   -1    0    0    0    0 -0.00000000000E+00 -0.00000000000E+00 -0.50000000000E+03  0.50000000000E+03  0.00000000000E+00 0.  1.
        -11    1    1    2    0    0 -0.44525277636E+02  0.53001556469E+00  0.48011917323E+03  0.48217963641E+03  0.00000000000E+00 0. -1.
         11    1    1    2    0    0  0.10339460158E+02  0.97348573636E+00 -0.46667159523E+03  0.46678713554E+03  0.00000000000E+00 0.  1.
        -15    1    1    2    0    0  0.30193077471E+02  0.14051171970E+01 -0.24401131095E+02  0.38886619925E+02  0.17770000000E+01 0.  1.
         15    1    1    2    0    0  0.39927400075E+01 -0.29086184981E+01  0.10953553097E+02  0.12146608118E+02  0.17770000000E+01 0. -1.
</event>
<event>
 6   1  0.3798113E-04  0.5000478E+03  0.7546771E-02  0.9399703E-01
        -11   -1    0    0    0    0  0.00000000000E+00  0.00000000000E+00  0.50000000000E+03  0.50000000000E+03  0.00000000000E+00 0. -1.
         11   -1    0    0    0    0 -0.00000000000E+00 -0.00000000000E+00 -0.50000000000E+03  0.50000000000E+03  0.00000000000E+00 0.  1.
        -11    1    1    2    0    0 -0.94025240555E+01 -0.14307509131E+02  0.49965895639E+03  0.49995218269E+03  0.00000000000E+00 0. -1.
         11    1    1    2    0    0  0.42392683810E+00  0.27280732293E+01 -0.15040498131E+03  0.15043031776E+03  0.00000000000E+00 0.  1.
        -15    1    1    2    0    0  0.35880858182E+01  0.29673069619E+01 -0.72317858836E+02  0.72489376505E+02  0.17770000000E+01 0. -1.
         15    1    1    2    0    0  0.53905113991E+01  0.86121289400E+01 -0.27693611624E+03  0.27712812305E+03  0.17770000000E+01 0.  1.
</event>
<event>
 6   1  0.3798113E-04  0.5008700E+03  0.7546771E-02  0.9397865E-01
        -11   -1    0    0    0    0  0.00000000000E+00  0.00000000000E+00  0.50000000000E+03  0.50000000000E+03  0.00000000000E+00 0. -1.
         11   -1    0    0    0    0 -0.00000000000E+00 -0.00000000000E+00 -0.50000000000E+03  0.50000000000E+03  0.00000000000E+00 0. -1.
        -11    1    1    2    0    0  0.67115700979E+01  0.16511657043E+02  0.38997914508E+03  0.39038623642E+03  0.00000000000E+00 0. -1.
         11    1    1    2    0    0  0.28269387461E+01 -0.66384283442E+01 -0.49907784493E+03  0.49912999871E+03  0.00000000000E+00 0. -1.
        -15    1    1    2    0    0 -0.23999969429E+01  0.17195439493E+01  0.15139191270E+02  0.15526418068E+02  0.17770000000E+01 0. -1.
         15    1    1    2    0    0 -0.71385119011E+01 -0.11592772649E+02  0.93959508581E+02  0.94957346802E+02  0.17770000000E+01 0.  1.
</event>
<event>
 6   1  0.3798113E-04  0.5001004E+03  0.7546771E-02  0.9399585E-01
        -11   -1    0    0    0    0  0.00000000000E+00  0.00000000000E+00  0.50000000000E+03  0.50000000000E+03  0.00000000000E+00 0. -1.
         11   -1    0    0    0    0 -0.00000000000E+00 -0.00000000000E+00 -0.50000000000E+03  0.50000000000E+03  0.00000000000E+00 0.  1.
        -11    1    1    2    0    0 -0.16946316723E+02 -0.74389114023E+01  0.49955692703E+03  0.49989962832E+03  0.00000000000E+00 0. -1.
         11    1    1    2    0    0 -0.96901808488E-01 -0.89378583657E+00 -0.23202323997E+02  0.23219734752E+02  0.00000000000E+00 0.  1.
        -15    1    1    2    0    0  0.12504526181E+02  0.42509054804E+01 -0.19529818369E+03  0.19575232222E+03  0.17770000000E+01 0.  1.
         15    1    1    2    0    0  0.45386923501E+01  0.40817917584E+01 -0.28105641934E+03  0.28112831471E+03  0.17770000000E+01 0. -1.
</event>
<event>
 6   1  0.3798113E-04  0.5013133E+03  0.7546771E-02  0.9396876E-01
        -11   -1    0    0    0    0  0.00000000000E+00  0.00000000000E+00  0.50000000000E+03  0.50000000000E+03  0.00000000000E+00 0.  1.
         11   -1    0    0    0    0 -0.00000000000E+00 -0.00000000000E+00 -0.50000000000E+03  0.50000000000E+03  0.00000000000E+00 0. -1.
        -11    1    1    2    0    0  0.46603044751E+02  0.14716084188E+02  0.49628617877E+03  0.49868665327E+03  0.00000000000E+00 0.  1.
         11    1    1    2    0    0 -0.95775093707E+00 -0.30575881131E+01 -0.13904586919E+03  0.13908278064E+03  0.00000000000E+00 0. -1.
        -15    1    1    2    0    0 -0.17541389110E+02  0.97253322813E+01 -0.20265721322E+03  0.20365506676E+03  0.17770000000E+01 0.  1.
         15    1    1    2    0    0 -0.28103904704E+02 -0.21383828356E+02 -0.15458309637E+03  0.15857549932E+03  0.17770000000E+01 0. -1.
</event>
<event>
 6   1  0.3798113E-04  0.5002768E+03  0.7546771E-02  0.9399191E-01
        -11   -1    0    0    0    0  0.00000000000E+00  0.00000000000E+00  0.50000000000E+03  0.50000000000E+03  0.00000000000E+00 0. -1.
         11   -1    0    0    0    0 -0.00000000000E+00 -0.00000000000E+00 -0.50000000000E+03  0.50000000000E+03  0.00000000000E+00 0.  1.
        -11    1    1    2    0    0  0.13513025236E+02 -0.33676769830E+02  0.49840400860E+03  0.49972320585E+03  0.00000000000E+00 0. -1.
         11    1    1    2    0    0 -0.72030586290E+01  0.28425978484E+02 -0.41765667405E+03  0.41868486680E+03  0.00000000000E+00 0.  1.
        -15    1    1    2    0    0 -0.23674787226E+01  0.64271863059E+01 -0.55586278712E+02  0.56034862268E+02  0.17770000000E+01 0.  1.
         15    1    1    2    0    0 -0.39424878846E+01 -0.11763949599E+01 -0.25161055838E+02  0.25557065084E+02  0.17770000000E+01 0.  1.
</event>
<event>
 6   1  0.3798113E-04  0.4917508E+03  0.7546771E-02  0.9418460E-01
        -11   -1    0    0    0    0  0.00000000000E+00  0.00000000000E+00  0.50000000000E+03  0.50000000000E+03  0.00000000000E+00 0. -1.
         11   -1    0    0    0    0 -0.00000000000E+00 -0.00000000000E+00 -0.50000000000E+03  0.50000000000E+03  0.00000000000E+00 0. -1.
        -11    1    1    2    0    0 -0.14950760843E+02 -0.59360481474E+01  0.82486415579E+01  0.18077665915E+02  0.00000000000E+00 0. -1.
         11    1    1    2    0    0  0.12290258095E+02  0.16417344478E+02 -0.49393218271E+03  0.49435774573E+03  0.00000000000E+00 0. -1.
        -15    1    1    2    0    0 -0.14484263442E+02  0.73957393144E+01  0.26115328420E+03  0.26166521822E+03  0.17770000000E+01 0.  1.
         15    1    1    2    0    0  0.17144766190E+02 -0.17877035645E+02  0.22453025695E+03  0.22589937013E+03  0.17770000000E+01 0. -1.
</event>
<event>
 6   1  0.3798113E-04  0.5002055E+03  0.7546771E-02  0.9399350E-01
        -11   -1    0    0    0    0  0.00000000000E+00  0.00000000000E+00  0.50000000000E+03  0.50000000000E+03  0.00000000000E+00 0.  1.
         11   -1    0    0    0    0 -0.00000000000E+00 -0.00000000000E+00 -0.50000000000E+03  0.50000000000E+03  0.00000000000E+00 0. -1.
        -11    1    1    2    0    0  0.63213442287E+01  0.44238401316E+01  0.49973491590E+03  0.49979447369E+03  0.00000000000E+00 0.  1.
         11    1    1    2    0    0 -0.24284095806E+01  0.51716648171E+01 -0.33571124863E+03  0.33575986322E+03  0.00000000000E+00 0. -1.
        -15    1    1    2    0    0 -0.40909479339E+01 -0.68103310755E+01 -0.97305264050E+02  0.97645218036E+02  0.17770000000E+01 0. -1.
         15    1    1    2    0    0  0.19801328572E+00 -0.27851738732E+01 -0.66718403219E+02  0.66800445058E+02  0.17770000000E+01 0.  1.
</event>
<event>
 6   1  0.3798113E-04  0.5047259E+03  0.7546771E-02  0.9389297E-01
        -11   -1    0    0    0    0  0.00000000000E+00  0.00000000000E+00  0.50000000000E+03  0.50000000000E+03  0.00000000000E+00 0. -1.
         11   -1    0    0    0    0 -0.00000000000E+00 -0.00000000000E+00 -0.50000000000E+03  0.50000000000E+03  0.00000000000E+00 0. -1.
        -11    1    1    2    0    0 -0.34779345360E+02 -0.29962602863E+02  0.11834198159E+03  0.12693378211E+03  0.00000000000E+00 0. -1.
         11    1    1    2    0    0  0.58501276405E+02 -0.10557308960E+02 -0.49169358836E+03  0.49527410688E+03  0.00000000000E+00 0. -1.
        -15    1    1    2    0    0 -0.27866869135E+02  0.23379042053E+02  0.18111867055E+03  0.18474380248E+03  0.17770000000E+01 0. -1.
         15    1    1    2    0    0  0.41449380894E+01  0.17140869769E+02  0.19223293622E+03  0.19304830853E+03  0.17770000000E+01 0.  1.
</event>
<event>
 6   1  0.3798113E-04  0.5005494E+03  0.7546771E-02  0.9398581E-01
        -11   -1    0    0    0    0  0.00000000000E+00  0.00000000000E+00  0.50000000000E+03  0.50000000000E+03  0.00000000000E+00 0.  1.
         11   -1    0    0    0    0 -0.00000000000E+00 -0.00000000000E+00 -0.50000000000E+03  0.50000000000E+03  0.00000000000E+00 0. -1.
        -11    1    1    2    0    0 -0.94977991930E+00  0.62943867095E+01  0.18995705868E+02  0.20033926909E+02  0.00000000000E+00 0.  1.
         11    1    1    2    0    0  0.15559057122E+01 -0.70890206175E+01 -0.49939788074E+03  0.49945061652E+03  0.00000000000E+00 0. -1.
        -15    1    1    2    0    0  0.35287895978E+01 -0.26307746551E+01  0.23770517613E+03  0.23775256428E+03  0.17770000000E+01 0.  1.
         15    1    1    2    0    0 -0.41349153907E+01  0.34254085632E+01  0.24269699874E+03  0.24276289229E+03  0.17770000000E+01 0.  1.
</event>
<event>
 6   1  0.3798113E-04  0.5002344E+03  0.7546771E-02  0.9399285E-01
        -11   -1    0    0    0    0  0.00000000000E+00  0.00000000000E+00  0.50000000000E+03  0.50000000000E+03  0.00000000000E+00 0.  1.
         11   -1    0    0    0    0 -0.00000000000E+00 -0.00000000000E+00 -0.50000000000E+03  0.50000000000E+03  0.00000000000E+00 0. -1.
        -11    1    1    2    0    0 -0.18963677559E+01  0.93380796533E+01  0.49967479474E+03  0.49976564152E+03  0.00000000000E+00 0.  1.
         11    1    1    2    0    0  0.64305934487E+01 -0.26229281261E+01 -0.28130058826E+03  0.28138630606E+03  0.00000000000E+00 0. -1.
        -15    1    1    2    0    0  0.37830015319E+01 -0.18363116293E+01 -0.63685403995E+02  0.63848817938E+02  0.17770000000E+01 0. -1.
         15    1    1    2    0    0 -0.83172272248E+01 -0.48788398979E+01 -0.15468880249E+03  0.15499923449E+03  0.17770000000E+01 0.  1.
</event>
<event>
 6   1  0.3798113E-04  0.4812231E+03  0.7546771E-02  0.9442833E-01
        -11   -1    0    0    0    0  0.00000000000E+00  0.00000000000E+00  0.50000000000E+03  0.50000000000E+03  0.00000000000E+00 0.  1.
         11   -1    0    0    0    0 -0.00000000000E+00 -0.00000000000E+00 -0.50000000000E+03  0.50000000000E+03  0.00000000000E+00 0. -1.
        -11    1    1    2    0    0 -0.16914039960E+02  0.20423327004E+02  0.47438031409E+03  0.47512091032E+03  0.00000000000E+00 0.  1.
         11    1    1    2    0    0 -0.12913830224E+02 -0.83295387094E+01 -0.48771349328E+03  0.48795553050E+03  0.00000000000E+00 0. -1.
        -15    1    1    2    0    0  0.27752747343E+02 -0.10234583142E+02  0.15010107424E+02  0.33217807440E+02  0.17770000000E+01 0.  1.
         15    1    1    2    0    0  0.20751228406E+01 -0.18592051518E+01 -0.16769282348E+01  0.37057517327E+01  0.17770000000E+01 0. -1.
</event>
<event>
 6   1  0.3798113E-04  0.5000715E+03  0.7546771E-02  0.9399650E-01
        -11   -1    0    0    0    0  0.00000000000E+00  0.00000000000E+00  0.50000000000E+03  0.50000000000E+03  0.00000000000E+00 0. -1.
         11   -1    0    0    0    0 -0.00000000000E+00 -0.00000000000E+00 -0.50000000000E+03  0.50000000000E+03  0.00000000000E+00 0. -1.
        -11    1    1    2    0    0 -0.46095812264E+01  0.67389945148E+01  0.49986182041E+03  0.49992849668E+03  0.00000000000E+00 0. -1.
         11    1    1    2    0    0 -0.14713144198E+01  0.20241297704E+01 -0.65122091897E+02  0.65170152067E+02  0.00000000000E+00 0. -1.
        -15    1    1    2    0    0  0.23189747868E+01 -0.63261789952E+01 -0.27898524422E+03  0.27907225302E+03  0.17770000000E+01 0. -1.
         15    1    1    2    0    0  0.37619208593E+01 -0.24369452900E+01 -0.15575448429E+03  0.15582909824E+03  0.17770000000E+01 0. -1.
</event>
<event>
 6   1  0.3798113E-04  0.5009166E+03  0.7546771E-02  0.9397761E-01
        -11   -1    0    0    0    0  0.00000000000E+00  0.00000000000E+00  0.50000000000E+03  0.50000000000E+03  0.00000000000E+00 0. -1.
         11   -1    0    0    0    0 -0.00000000000E+00 -0.00000000000E+00 -0.50000000000E+03  0.50000000000E+03  0.00000000000E+00 0.  1.
        -11    1    1    2    0    0 -0.11539624752E+02 -0.78860438188E+01  0.82669434241E+02  0.83842638224E+02  0.00000000000E+00 0. -1.
         11    1    1    2    0    0  0.11909618591E+01 -0.89252507322E+01 -0.49900218321E+03  0.49908341722E+03  0.00000000000E+00 0.  1.
        -15    1    1    2    0    0  0.73330061047E+01  0.17529408608E+02  0.25962843311E+03  0.26032889612E+03  0.17770000000E+01 0. -1.
         15    1    1    2    0    0  0.30156567885E+01 -0.71811405732E+00  0.15670431586E+03  0.15674504844E+03  0.17770000000E+01 0. -1.
</event>
<event>
 6   1  0.3798113E-04  0.5131135E+03  0.7546771E-02  0.9370936E-01
        -11   -1    0    0    0    0  0.00000000000E+00  0.00000000000E+00  0.50000000000E+03  0.50000000000E+03  0.00000000000E+00 0. -1.
         11   -1    0    0    0    0 -0.00000000000E+00 -0.00000000000E+00 -0.50000000000E+03  0.50000000000E+03  0.00000000000E+00 0.  1.
        -11    1    1    2    0    0  0.53150221166E+02 -0.40367490399E+02  0.30204690447E+03  0.30933285113E+03  0.00000000000E+00 0. -1.
         11    1    1    2    0    0  0.41716126155E+01 -0.17694182299E+02 -0.48654694544E+03  0.48688645140E+03  0.00000000000E+00 0.  1.
        -15    1    1    2    0    0 -0.52319447198E+02  0.54894632793E+02  0.18188517928E+03  0.19706882410E+03  0.17770000000E+01 0.  1.
         15    1    1    2    0    0 -0.50023865844E+01  0.31670399044E+01  0.26148616965E+01  0.67118733590E+01  0.17770000000E+01 0. -1.
</event>
<event>
 6   1  0.3798113E-04  0.5001167E+03  0.7546771E-02  0.9399549E-01
        -11   -1    0    0    0    0  0.00000000000E+00  0.00000000000E+00  0.50000000000E+03  0.50000000000E+03  0.00000000000E+00 0.  1.
         11   -1    0    0    0    0 -0.00000000000E+00 -0.00000000000E+00 -0.50000000000E+03  0.50000000000E+03  0.00000000000E+00 0. -1.
        -11    1    1    2    0    0 -0.84793460824E+01  0.33237585056E+01  0.49980028513E+03  0.49988325807E+03  0.00000000000E+00 0.  1.
         11    1    1    2    0    0  0.18544294001E+01  0.38100456466E+01 -0.29596527593E+03  0.29599560792E+03  0.00000000000E+00 0. -1.
        -15    1    1    2    0    0  0.40497282074E+01 -0.25486472585E+01 -0.80897302457E+02  0.81058171552E+02  0.17770000000E+01 0.  1.
         15    1    1    2    0    0  0.25751884750E+01 -0.45851568937E+01 -0.12293770675E+03  0.12306296246E+03  0.17770000000E+01 0. -1.
</event>
<event>
 6   1  0.3798113E-04  0.5017333E+03  0.7546771E-02  0.9395940E-01
        -11   -1    0    0    0    0  0.00000000000E+00  0.00000000000E+00  0.50000000000E+03  0.50000000000E+03  0.00000000000E+00 0.  1.
         11   -1    0    0    0    0 -0.00000000000E+00 -0.00000000000E+00 -0.50000000000E+03  0.50000000000E+03  0.00000000000E+00 0. -1.
        -11    1    1    2    0    0  0.20989599952E+02 -0.42467970506E+01  0.49780625449E+03  0.49826666114E+03  0.00000000000E+00 0.  1.
         11    1    1    2    0    0  0.22820037347E+01  0.74035088133E+01 -0.39163817051E+03  0.39171478921E+03  0.00000000000E+00 0. -1.
        -15    1    1    2    0    0 -0.19557823169E+02 -0.89225133990E+01 -0.85098340836E+02  0.87789549688E+02  0.17770000000E+01 0. -1.
         15    1    1    2    0    0 -0.37137805183E+01  0.57658016362E+01 -0.21069743142E+02  0.22228999962E+02  0.17770000000E+01 0.  1.
</event>
<event>
 6   1  0.3798113E-04  0.5019354E+03  0.7546771E-02  0.9395490E-01
        -11   -1    0    0    0    0  0.00000000000E+00  0.00000000000E+00  0.50000000000E+03  0.50000000000E+03  0.00000000000E+00 0.  1.
         11   -1    0    0    0    0 -0.00000000000E+00 -0.00000000000E+00 -0.50000000000E+03  0.50000000000E+03  0.00000000000E+00 0. -1.
        -11    1    1    2    0    0  0.67180057731E+01  0.90310471416E+01  0.38591714217E+02  0.40199649504E+02  0.00000000000E+00 0.  1.
         11    1    1    2    0    0 -0.99411794538E+01 -0.52226918649E+01 -0.49793800525E+03  0.49806461492E+03  0.00000000000E+00 0. -1.
        -15    1    1    2    0    0  0.37014811655E+01  0.45747701225E+01  0.70320469251E+01  0.93400694563E+01  0.17770000000E+01 0. -1.
         15    1    1    2    0    0 -0.47830748483E+00 -0.83831253991E+01  0.45231424411E+03  0.45239566612E+03  0.17770000000E+01 0.  1.
</event>
<event>
 6   1  0.3798113E-04  0.5001605E+03  0.7546771E-02  0.9399451E-01
        -11   -1    0    0    0    0  0.00000000000E+00  0.00000000000E+00  0.50000000000E+03  0.50000000000E+03  0.00000000000E+00 0. -1.
         11   -1    0    0    0    0 -0.00000000000E+00 -0.00000000000E+00 -0.50000000000E+03  0.50000000000E+03  0.00000000000E+00 0. -1.
        -11    1    1    2    0    0  0.60161880422E+01  0.82863824629E+01  0.20899318532E+03  0.20924390113E+03  0.00000000000E+00 0. -1.
         11    1    1    2    0    0 -0.40490138225E+00 -0.76166627978E+01 -0.49978130964E+03  0.49983950920E+03  0.00000000000E+00 0. -1.
        -15    1    1    2    0    0 -0.50469614979E+01 -0.25877935252E+01  0.21065640626E+03  0.21074023755E+03  0.17770000000E+01 0. -1.
         15    1    1    2    0    0 -0.56432516204E+00  0.19180738600E+01  0.80131718062E+02  0.80176352117E+02  0.17770000000E+01 0. -1.
</event>
<event>
 6   1  0.3798113E-04  0.5003336E+03  0.7546771E-02  0.9399064E-01
        -11   -1    0    0    0    0  0.00000000000E+00  0.00000000000E+00  0.50000000000E+03  0.50000000000E+03  0.00000000000E+00 0. -1.
         11   -1    0    0    0    0 -0.00000000000E+00 -0.00000000000E+00 -0.50000000000E+03  0.50000000000E+03  0.00000000000E+00 0. -1.
        -11    1    1    2    0    0 -0.16751648020E+02  0.28247902840E+02  0.49858599425E+03  0.49966644413E+03  0.00000000000E+00 0. -1.
         11    1    1    2    0    0  0.25078172635E+00 -0.12737826354E+01 -0.64437221797E+02  0.64450298421E+02  0.00000000000E+00 0. -1.
        -15    1    1    2    0    0  0.62998960714E+00  0.37126183041E+01 -0.56591613686E+02  0.56744593489E+02  0.17770000000E+01 0.  1.
         15    1    1    2    0    0  0.15870876686E+02 -0.30686738508E+02 -0.37755715877E+03  0.37913866396E+03  0.17770000000E+01 0. -1.
</event>
<event>
 6   1  0.3798113E-04  0.4864271E+03  0.7546771E-02  0.9430703E-01
        -11   -1    0    0    0    0  0.00000000000E+00  0.00000000000E+00  0.50000000000E+03  0.50000000000E+03  0.00000000000E+00 0. -1.
         11   -1    0    0    0    0 -0.00000000000E+00 -0.00000000000E+00 -0.50000000000E+03  0.50000000000E+03  0.00000000000E+00 0. -1.
        -11    1    1    2    0    0 -0.14030306401E+02 -0.83610540848E+01  0.48218202380E+03  0.48245855864E+03  0.00000000000E+00 0. -1.
         11    1    1    2    0    0 -0.87033346245E+01 -0.13122712078E+01 -0.49066729737E+03  0.49074623463E+03  0.00000000000E+00 0. -1.
        -15    1    1    2    0    0  0.45751317093E+01  0.38961760763E+01  0.17460238159E+01  0.65052552863E+01  0.17770000000E+01 0.  1.
         15    1    1    2    0    0  0.18158509317E+02  0.57771492163E+01  0.67392497518E+01  0.20289951451E+02  0.17770000000E+01 0. -1.
</event>
<event>
 6   1  0.3798113E-04  0.5018798E+03  0.7546771E-02  0.9395613E-01
        -11   -1    0    0    0    0  0.00000000000E+00  0.00000000000E+00  0.50000000000E+03  0.50000000000E+03  0.00000000000E+00 0.  1.
         11   -1    0    0    0    0 -0.00000000000E+00 -0.00000000000E+00 -0.50000000000E+03  0.50000000000E+03  0.00000000000E+00 0.  1.
        -11    1    1    2    0    0 -0.76459297593E+01 -0.39703220702E+01  0.49804573598E+03  0.49812024535E+03  0.00000000000E+00 0.  1.
         11    1    1    2    0    0 -0.81509575275E+01  0.18502069667E+01 -0.45694468407E+03  0.45702112169E+03  0.00000000000E+00 0.  1.
        -15    1    1    2    0    0  0.12223854925E+02 -0.12530248217E+01 -0.32549887056E+02  0.34837416333E+02  0.17770000000E+01 0.  1.
         15    1    1    2    0    0  0.35730323620E+01  0.33731399252E+01 -0.85511648554E+01  0.10021216623E+02  0.17770000000E+01 0. -1.
</event>
<event>
 6   1  0.3798113E-04  0.5027970E+03  0.7546771E-02  0.9393573E-01
        -11   -1    0    0    0    0  0.00000000000E+00  0.00000000000E+00  0.50000000000E+03  0.50000000000E+03  0.00000000000E+00 0. -1.
         11   -1    0    0    0    0 -0.00000000000E+00 -0.00000000000E+00 -0.50000000000E+03  0.50000000000E+03  0.00000000000E+00 0.  1.
        -11    1    1    2    0    0 -0.12165096841E+02 -0.33212272753E+01  0.45116706362E+03  0.45134326120E+03  0.00000000000E+00 0. -1.
         11    1    1    2    0    0 -0.54594103934E+01 -0.48834969069E+01 -0.49714904732E+03  0.49720300578E+03  0.00000000000E+00 0.  1.
        -15    1    1    2    0    0  0.70645521471E+00  0.12751073421E+01  0.43074518020E+00  0.23384285566E+01  0.17770000000E+01 0.  1.
         15    1    1    2    0    0  0.16918052019E+02  0.69296168402E+01  0.45551238515E+02  0.49115304467E+02  0.17770000000E+01 0. -1.
</event>
<event>
 6   1  0.3798113E-04  0.5018881E+03  0.7546771E-02  0.9395595E-01
        -11   -1    0    0    0    0  0.00000000000E+00  0.00000000000E+00  0.50000000000E+03  0.50000000000E+03  0.00000000000E+00 0. -1.
         11   -1    0    0    0    0 -0.00000000000E+00 -0.00000000000E+00 -0.50000000000E+03  0.50000000000E+03  0.00000000000E+00 0.  1.
        -11    1    1    2    0    0 -0.20192629735E+02 -0.70478004795E+01  0.49765255168E+03  0.49811191110E+03  0.00000000000E+00 0. -1.
         11    1    1    2    0    0 -0.63803770181E+00 -0.54379462493E+01 -0.39502004716E+03  0.39505799069E+03  0.00000000000E+00 0.  1.
        -15    1    1    2    0    0  0.20074992068E+02  0.50963848155E+01 -0.59506031657E+02  0.63032562832E+02  0.17770000000E+01 0. -1.
         15    1    1    2    0    0  0.75567536900E+00  0.73893619133E+01 -0.43126472864E+02  0.43797535381E+02  0.17770000000E+01 0.  1.
</event>
<event>
 6   1  0.3798113E-04  0.4755454E+03  0.7546771E-02  0.9456255E-01
        -11   -1    0    0    0    0  0.00000000000E+00  0.00000000000E+00  0.50000000000E+03  0.50000000000E+03  0.00000000000E+00 0. -1.
         11   -1    0    0    0    0 -0.00000000000E+00 -0.00000000000E+00 -0.50000000000E+03  0.50000000000E+03  0.00000000000E+00 0. -1.
        -11    1    1    2    0    0 -0.39619864353E+02  0.18764262675E+02  0.46425073857E+03  0.46631596527E+03  0.00000000000E+00 0. -1.
         11    1    1    2    0    0  0.95647176396E+01 -0.43780095121E+01 -0.48548113241E+03  0.48559507897E+03  0.00000000000E+00 0. -1.
        -15    1    1    2    0    0  0.33357192944E+02 -0.14301064707E+02  0.12232792261E+02  0.38340862123E+02  0.17770000000E+01 0. -1.
         15    1    1    2    0    0 -0.33020462302E+01 -0.85188455461E-01  0.89976015784E+01  0.97480936364E+01  0.17770000000E+01 0.  1.
</event>
<event>
 6   1  0.3798113E-04  0.5036271E+03  0.7546771E-02  0.9391730E-01
        -11   -1    0    0    0    0  0.00000000000E+00  0.00000000000E+00  0.50000000000E+03  0.50000000000E+03  0.00000000000E+00 0.  1.
         11   -1    0    0    0    0 -0.00000000000E+00 -0.00000000000E+00 -0.50000000000E+03  0.50000000000E+03  0.00000000000E+00 0. -1.
        -11    1    1    2    0    0 -0.14722346736E+02 -0.52188212770E+01  0.49612704684E+03  0.49637287416E+03  0.00000000000E+00 0.  1.
         11    1    1    2    0    0 -0.52703057552E+01 -0.33352839975E+01 -0.45276834561E+03  0.45281130179E+03  0.00000000000E+00 0. -1.
        -15    1    1    2    0    0  0.20646080251E+01 -0.37802414841E+01 -0.71798995054E+01  0.85592942398E+01  0.17770000000E+01 0. -1.
         15    1    1    2    0    0  0.17928044466E+02  0.12334346759E+02 -0.36178801730E+02  0.42256529814E+02  0.17770000000E+01 0.  1.
</event>
<event>
 6   1  0.3798113E-04  0.4848308E+03  0.7546771E-02  0.9434407E-01
        -11   -1    0    0    0    0  0.00000000000E+00  0.00000000000E+00  0.50000000000E+03  0.50000000000E+03  0.00000000000E+00 0.  1.
         11   -1    0    0    0    0 -0.00000000000E+00 -0.00000000000E+00 -0.50000000000E+03  0.50000000000E+03  0.00000000000E+00 0. -1.
        -11    1    1    2    0    0  0.13946476029E+02  0.17019327465E+00  0.48946757880E+03  0.48966625762E+03  0.00000000000E+00 0.  1.
         11    1    1    2    0    0  0.65389685417E+01  0.15804773027E+02 -0.48008414764E+03  0.48038873610E+03  0.00000000000E+00 0. -1.
        -15    1    1    2    0    0 -0.12809734497E+02 -0.15976545666E+02 -0.69900538843E+01  0.21710778236E+02  0.17770000000E+01 0.  1.
         15    1    1    2    0    0 -0.76757100740E+01  0.15793641741E-02 -0.23933772727E+01  0.82342280394E+01  0.17770000000E+01 0. -1.
</event>
<event>
 6   1  0.3798113E-04  0.5001952E+03  0.7546771E-02  0.9399373E-01
        -11   -1    0    0    0    0  0.00000000000E+00  0.00000000000E+00  0.50000000000E+03  0.50000000000E+03  0.00000000000E+00 0. -1.
         11   -1    0    0    0    0 -0.00000000000E+00 -0.00000000000E+00 -0.50000000000E+03  0.50000000000E+03  0.00000000000E+00 0. -1.
        -11    1    1    2    0    0  0.79127065508E+01 -0.45947415665E+01  0.49972108451E+03  0.49980484679E+03  0.00000000000E+00 0. -1.
         11    1    1    2    0    0  0.36168652123E+01 -0.16082492338E+01 -0.26218162165E+03  0.26221150034E+03  0.00000000000E+00 0. -1.
        -15    1    1    2    0    0 -0.32642200989E+01  0.18243086610E+00 -0.91627716052E+02  0.91703241446E+02  0.17770000000E+01 0. -1.
         15    1    1    2    0    0 -0.82653516642E+01  0.60205599342E+01 -0.14591174680E+03  0.14628041142E+03  0.17770000000E+01 0. -1.
</event>
<event>
 6   1  0.3798113E-04  0.5000323E+03  0.7546771E-02  0.9399737E-01
        -11   -1    0    0    0    0  0.00000000000E+00  0.00000000000E+00  0.50000000000E+03  0.50000000000E+03  0.00000000000E+00 0. -1.
         11   -1    0    0    0    0 -0.00000000000E+00 -0.00000000000E+00 -0.50000000000E+03  0.50000000000E+03  0.00000000000E+00 0.  1.
        -11    1    1    2    0    0  0.48342223537E+01  0.26631340956E+01  0.14635772875E+03  0.14646175868E+03  0.00000000000E+00 0. -1.
         11    1    1    2    0    0 -0.75200337523E+01 -0.46722742881E+01 -0.49988926414E+03  0.49996765642E+03  0.00000000000E+00 0.  1.
        -15    1    1    2    0    0  0.20187857757E+00  0.57428429093E+00  0.12183693377E+03  0.12185141245E+03  0.17770000000E+01 0. -1.
         15    1    1    2    0    0  0.24839328210E+01  0.14348559016E+01  0.23169460162E+03  0.23171917246E+03  0.17770000000E+01 0. -1.
</event>
<event>
 6   1  0.3798113E-04  0.5078135E+03  0.7546771E-02  0.9382494E-01
        -11   -1    0    0    0    0  0.00000000000E+00  0.00000000000E+00  0.50000000000E+03  0.50000000000E+03  0.00000000000E+00 0. -1.
         11   -1    0    0    0    0 -0.00000000000E+00 -0.00000000000E+00 -0.50000000000E+03  0.50000000000E+03  0.00000000000E+00 0.  1.
        -11    1    1    2    0    0 -0.99838826347E+01 -0.16509599468E+02  0.47508494657E+03  0.47547655173E+03  0.00000000000E+00 0. -1.
         11    1    1    2    0    0 -0.76995709464E+01  0.66081156551E+00 -0.49212585431E+03  0.49218652617E+03  0.00000000000E+00 0.  1.
        -15    1    1    2    0    0  0.17454075005E+02  0.16996479721E+02  0.17635091397E+02  0.30127715392E+02  0.17770000000E+01 0.  1.
         15    1    1    2    0    0  0.22937857560E+00 -0.11476918183E+01 -0.59418366418E+00  0.22092067055E+01  0.17770000000E+01 0. -1.
</event>
<event>
 6   1  0.3798113E-04  0.5007758E+03  0.7546771E-02  0.9398075E-01
        -11   -1    0    0    0    0  0.00000000000E+00  0.00000000000E+00  0.50000000000E+03  0.50000000000E+03  0.00000000000E+00 0. -1.
         11   -1    0    0    0    0 -0.00000000000E+00 -0.00000000000E+00 -0.50000000000E+03  0.50000000000E+03  0.00000000000E+00 0. -1.
        -11    1    1    2    0    0  0.44904046814E+01  0.10844933387E+02  0.24224873572E+03  0.24253293853E+03  0.00000000000E+00 0. -1.
         11    1    1    2    0    0 -0.45634692590E+01 -0.54250132720E+01 -0.49917381775E+03  0.49922415441E+03  0.00000000000E+00 0. -1.
        -15    1    1    2    0    0  0.21466617738E+01  0.70504096591E+01  0.29458064277E+02  0.30417950508E+02  0.17770000000E+01 0.  1.
         15    1    1    2    0    0 -0.20735971963E+01 -0.12470329774E+02  0.22746701776E+03  0.22782495655E+03  0.17770000000E+01 0. -1.
</event>
<event>
 6   1  0.3798113E-04  0.5212181E+03  0.7546771E-02  0.9353545E-01
        -11   -1    0    0    0    0  0.00000000000E+00  0.00000000000E+00  0.50000000000E+03  0.50000000000E+03  0.00000000000E+00 0. -1.
         11   -1    0    0    0    0 -0.00000000000E+00 -0.00000000000E+00 -0.50000000000E+03  0.50000000000E+03  0.00000000000E+00 0.  1.
        -11    1    1    2    0    0  0.22117404865E+02  0.44413360660E+02  0.47620413789E+03  0.47878189935E+03  0.00000000000E+00 0. -1.
         11    1    1    2    0    0 -0.55119849356E+01 -0.34319882677E+01 -0.43778698336E+03  0.43783513258E+03  0.00000000000E+00 0.  1.
        -15    1    1    2    0    0  0.11883964079E+01  0.57840254246E+01 -0.32369112832E+02  0.32951243234E+02  0.17770000000E+01 0. -1.
         15    1    1    2    0    0 -0.17793816337E+02 -0.46765397817E+02 -0.60480416984E+01  0.50431724838E+02  0.17770000000E+01 0.  1.
</event>
<event>
 6   1  0.3798113E-04  0.5005815E+03  0.7546771E-02  0.9398510E-01
        -11   -1    0    0    0    0  0.00000000000E+00  0.00000000000E+00  0.50000000000E+03  0.50000000000E+03  0.00000000000E+00 0.  1.
         11   -1    0    0    0    0 -0.00000000000E+00 -0.00000000000E+00 -0.50000000000E+03  0.50000000000E+03  0.00000000000E+00 0. -1.
        -11    1    1    2    0    0  0.10852961573E+02 -0.86548598718E+01  0.40441791459E+03  0.40465607992E+03  0.00000000000E+00 0.  1.
         11    1    1    2    0    0 -0.80955994440E+01  0.69458298527E-02 -0.49935292318E+03  0.49941854257E+03  0.00000000000E+00 0. -1.
        -15    1    1    2    0    0 -0.19731148357E+00  0.60455857661E+01  0.84399661817E+02  0.84634795935E+02  0.17770000000E+01 0.  1.
         15    1    1    2    0    0 -0.25600506459E+01  0.26023282759E+01  0.10535346769E+02  0.11290581576E+02  0.17770000000E+01 0.  1.
</event>
<event>
 6   1  0.3798113E-04  0.5104804E+03  0.7546771E-02  0.9376660E-01
        -11   -1    0    0    0    0  0.00000000000E+00  0.00000000000E+00  0.50000000000E+03  0.50000000000E+03  0.00000000000E+00 0. -1.
         11   -1    0    0    0    0 -0.00000000000E+00 -0.00000000000E+00 -0.50000000000E+03  0.50000000000E+03  0.00000000000E+00 0.  1.
        -11    1    1    2    0    0 -0.43063127746E+01  0.35034128491E+02  0.48824530229E+03  0.48951957029E+03  0.00000000000E+00 0. -1.
         11    1    1    2    0    0 -0.60027844515E+01  0.65491079531E+01 -0.44049670836E+03  0.44058628475E+03  0.00000000000E+00 0.  1.
        -15    1    1    2    0    0  0.81119100178E+01 -0.23628000159E+01 -0.82556692934E+00  0.86732460940E+01  0.17770000000E+01 0.  1.
         15    1    1    2    0    0  0.21971872083E+01 -0.39220436429E+02 -0.46923027001E+02  0.61220898860E+02  0.17770000000E+01 0. -1.
</event>
<event>
 6   1  0.3798113E-04  0.5037463E+03  0.7546771E-02  0.9391466E-01
        -11   -1    0    0    0    0  0.00000000000E+00  0.00000000000E+00  0.50000000000E+03  0.50000000000E+03  0.00000000000E+00 0.  1.
         11   -1    0    0    0    0 -0.00000000000E+00 -0.00000000000E+00 -0.50000000000E+03  0.50000000000E+03  0.00000000000E+00 0. -1.
        -11    1    1    2    0    0 -0.29211192776E+00 -0.12721507498E+02  0.49609056295E+03  0.49625373422E+03  0.00000000000E+00 0.  1.
         11    1    1    2    0    0 -0.14125895076E+02 -0.83232043929E+00 -0.44026877807E+03  0.44049611872E+03  0.00000000000E+00 0. -1.
        -15    1    1    2    0    0  0.16864107783E+02  0.20463394059E+01 -0.25645003702E+02  0.30812490652E+02  0.17770000000E+01 0.  1.
         15    1    1    2    0    0 -0.24461007793E+01  0.11507488532E+02 -0.30176781181E+02  0.32437656401E+02  0.17770000000E+01 0. -1.
</event>
<event>
 6   1  0.3798113E-04  0.5006758E+03  0.7546771E-02  0.9398299E-01
        -11   -1    0    0    0    0  0.00000000000E+00  0.00000000000E+00  0.50000000000E+03  0.50000000000E+03  0.00000000000E+00 0. -1.
         11   -1    0    0    0    0 -0.00000000000E+00 -0.00000000000E+00 -0.50000000000E+03  0.50000000000E+03  0.00000000000E+00 0.  1.
        -11    1    1    2    0    0  0.28844873406E+02  0.25695629964E+02  0.49782763132E+03  0.49932418590E+03  0.00000000000E+00 0. -1.
         11    1    1    2    0    0 -0.41965929204E+00  0.44488105842E+01 -0.16071310629E+03  0.16077521751E+03  0.00000000000E+00 0.  1.
        -15    1    1    2    0    0 -0.49690826885E+01 -0.19238180411E+00 -0.35353927686E+02  0.35746142804E+02  0.17770000000E+01 0.  1.
         15    1    1    2    0    0 -0.23456131425E+02 -0.29952058744E+02 -0.30176059734E+03  0.30415445379E+03  0.17770000000E+01 0. -1.
</event>
<event>
 6   1  0.3798113E-04  0.5027599E+03  0.7546771E-02  0.9393655E-01
        -11   -1    0    0    0    0  0.00000000000E+00  0.00000000000E+00  0.50000000000E+03  0.50000000000E+03  0.00000000000E+00 0. -1.
         11   -1    0    0    0    0 -0.00000000000E+00 -0.00000000000E+00 -0.50000000000E+03  0.50000000000E+03  0.00000000000E+00 0. -1.
        -11    1    1    2    0    0 -0.32331361166E+02 -0.17525227135E+02  0.10744229834E+03  0.11356186849E+03  0.00000000000E+00 0. -1.
         11    1    1    2    0    0  0.32177789782E+02  0.10388451640E+02 -0.49608909712E+03  0.49724010534E+03  0.00000000000E+00 0. -1.
        -15    1    1    2    0    0  0.28104825827E+01  0.12586622513E+02  0.31891094785E+03  0.31917655344E+03  0.17770000000E+01 0.  1.
         15    1    1    2    0    0 -0.26569111986E+01 -0.54498470179E+01  0.69735850924E+02  0.70021472726E+02  0.17770000000E+01 0. -1.
</event>
<event>
 6   1  0.3798113E-04  0.5001660E+03  0.7546771E-02  0.9399438E-01
        -11   -1    0    0    0    0  0.00000000000E+00  0.00000000000E+00  0.50000000000E+03  0.50000000000E+03  0.00000000000E+00 0.  1.
         11   -1    0    0    0    0 -0.00000000000E+00 -0.00000000000E+00 -0.50000000000E+03  0.50000000000E+03  0.00000000000E+00 0. -1.
        -11    1    1    2    0    0  0.40419693766E+01 -0.56598647142E+01  0.49978557956E+03  0.49983396955E+03  0.00000000000E+00 0.  1.
         11    1    1    2    0    0 -0.32416040508E+01  0.46229229855E+01 -0.30244293142E+03  0.30249563002E+03  0.00000000000E+00 0. -1.
        -15    1    1    2    0    0 -0.75983562181E+00 -0.35880802695E+01 -0.15256984309E+03  0.15262426550E+03  0.17770000000E+01 0. -1.
         15    1    1    2    0    0 -0.40529703972E-01  0.46250219982E+01 -0.44772805048E+02  0.45046134928E+02  0.17770000000E+01 0.  1.
</event>
<event>
 6   1  0.3798113E-04  0.5023855E+03  0.7546771E-02  0.9394488E-01
        -11   -1    0    0    0    0  0.00000000000E+00  0.00000000000E+00  0.50000000000E+03  0.50000000000E+03  0.00000000000E+00 0. -1.
         11   -1    0    0    0    0 -0.00000000000E+00 -0.00000000000E+00 -0.50000000000E+03  0.50000000000E+03  0.00000000000E+00 0.  1.
        -11    1    1    2    0    0  0.87260999748E+01 -0.15888477023E+02  0.48736046319E+03  0.48769745704E+03  0.00000000000E+00 0. -1.
         11    1    1    2    0    0 -0.20294263056E+01  0.90176776374E+01 -0.49752866254E+03  0.49761451660E+03  0.00000000000E+00 0.  1.
        -15    1    1    2    0    0 -0.25853268436E+01  0.35713704369E+01  0.63862734475E+01  0.79612071467E+01  0.17770000000E+01 0.  1.
         15    1    1    2    0    0 -0.41113468256E+01  0.32994289483E+01  0.37819259064E+01  0.67268192087E+01  0.17770000000E+01 0. -1.
</event>
<event>
 6   1  0.3798113E-04  0.5009485E+03  0.7546771E-02  0.9397690E-01
        -11   -1    0    0    0    0  0.00000000000E+00  0.00000000000E+00  0.50000000000E+03  0.50000000000E+03  0.00000000000E+00 0. -1.
         11   -1    0    0    0    0 -0.00000000000E+00 -0.00000000000E+00 -0.50000000000E+03  0.50000000000E+03  0.00000000000E+00 0.  1.
        -11    1    1    2    0    0  0.17880493967E+02  0.86199617988E+01  0.24208680542E+03  0.24289923253E+03  0.00000000000E+00 0. -1.
         11    1    1    2    0    0 -0.78786415874E+01  0.85167820736E+01 -0.49891660124E+03  0.49905148388E+03  0.00000000000E+00 0.  1.
        -15    1    1    2    0    0 -0.93844046896E+01 -0.10565107582E+02  0.22699782105E+03  0.22744418445E+03  0.17770000000E+01 0. -1.
         15    1    1    2    0    0 -0.61744769035E+00 -0.65716362906E+01  0.29831974775E+02  0.30605099137E+02  0.17770000000E+01 0.  1.
</event>
<event>
 6   1  0.3798113E-04  0.5011448E+03  0.7546771E-02  0.9397252E-01
        -11   -1    0    0    0    0  0.00000000000E+00  0.00000000000E+00  0.50000000000E+03  0.50000000000E+03  0.00000000000E+00 0.  1.
         11   -1    0    0    0    0 -0.00000000000E+00 -0.00000000000E+00 -0.50000000000E+03  0.50000000000E+03  0.00000000000E+00 0. -1.
        -11    1    1    2    0    0  0.89466325665E+01 -0.57788343267E+01  0.40900212329E+03  0.40914077530E+03  0.00000000000E+00 0.  1.
         11    1    1    2    0    0  0.70225835337E+01 -0.32655071495E+01 -0.49879507202E+03  0.49885519350E+03  0.00000000000E+00 0. -1.
        -15    1    1    2    0    0 -0.10446757400E+01  0.24305593199E+01  0.23125600197E+02  0.23344165855E+02  0.17770000000E+01 0.  1.
         15    1    1    2    0    0 -0.14924540360E+02  0.66137821563E+01  0.66667348533E+02  0.68659865342E+02  0.17770000000E+01 0. -1.
</event>
<event>
 6   1  0.3798113E-04  0.5023888E+03  0.7546771E-02  0.9394480E-01
        -11   -1    0    0    0    0  0.00000000000E+00  0.00000000000E+00  0.50000000000E+03  0.50000000000E+03  0.00000000000E+00 0. -1.
         11   -1    0    0    0    0 -0.00000000000E+00 -0.00000000000E+00 -0.50000000000E+03  0.50000000000E+03  0.00000000000E+00 0.  1.
        -11    1    1    2    0    0  0.97557772787E+01 -0.14876834109E+02  0.42511886925E+03  0.42549094981E+03  0.00000000000E+00 0. -1.
         11    1    1    2    0    0 -0.49139277772E+00 -0.67393664387E+01 -0.49756529045E+03  0.49761117229E+03  0.00000000000E+00 0.  1.
        -15    1    1    2    0    0 -0.71660103034E+01  0.19835707580E+02  0.51228178362E+02  0.55428250795E+02  0.17770000000E+01 0. -1.
         15    1    1    2    0    0 -0.20983741975E+01  0.17804929680E+01  0.21218242841E+02  0.21469627099E+02  0.17770000000E+01 0.  1.
</event>
<event>
 6   1  0.3798113E-04  0.5001833E+03  0.7546771E-02  0.9399400E-01
        -11   -1    0    0    0    0  0.00000000000E+00  0.00000000000E+00  0.50000000000E+03  0.50000000000E+03  0.00000000000E+00 0. -1.
         11   -1    0    0    0    0 -0.00000000000E+00 -0.00000000000E+00 -0.50000000000E+03  0.50000000000E+03  0.00000000000E+00 0. -1.
        -11    1    1    2    0    0 -0.54756175152E+01  0.16328097992E+01  0.23660256523E+03  0.23667154947E+03  0.00000000000E+00 0. -1.
         11    1    1    2    0    0 -0.58058354219E+01 -0.71807652141E+01 -0.49973139204E+03  0.49981670170E+03  0.00000000000E+00 0. -1.
        -15    1    1    2    0    0  0.92477414721E+01  0.57600429341E+01  0.23301051044E+03  0.23327184682E+03  0.17770000000E+01 0.  1.
         15    1    1    2    0    0  0.20337114650E+01 -0.21208751916E+00  0.30118316365E+02  0.30239902002E+02  0.17770000000E+01 0. -1.
</event>
<event>
 6   1  0.3798113E-04  0.5001470E+03  0.7546771E-02  0.9399481E-01
        -11   -1    0    0    0    0  0.00000000000E+00  0.00000000000E+00  0.50000000000E+03  0.50000000000E+03  0.00000000000E+00 0.  1.
         11   -1    0    0    0    0 -0.00000000000E+00 -0.00000000000E+00 -0.50000000000E+03  0.50000000000E+03  0.00000000000E+00 0.  1.
        -11    1    1    2    0    0 -0.13764162957E+02  0.66080289119E+00  0.49966303901E+03  0.49985301980E+03  0.00000000000E+00 0.  1.
         11    1    1    2    0    0  0.51095017072E-01  0.36460763249E+01 -0.23388067484E+03  0.23390909889E+03  0.00000000000E+00 0.  1.
        -15    1    1    2    0    0  0.92639094915E+00 -0.98386316724E+00 -0.40439644948E+02  0.40501219728E+02  0.17770000000E+01 0. -1.
         15    1    1    2    0    0  0.12786676991E+02 -0.33230160489E+01 -0.22534271923E+03  0.22573666158E+03  0.17770000000E+01 0. -1.
</event>
<event>
 6   1  0.3798113E-04  0.5001327E+03  0.7546771E-02  0.9399513E-01
        -11   -1    0    0    0    0  0.00000000000E+00  0.00000000000E+00  0.50000000000E+03  0.50000000000E+03  0.00000000000E+00 0.  1.
         11   -1    0    0    0    0 -0.00000000000E+00 -0.00000000000E+00 -0.50000000000E+03  0.50000000000E+03  0.00000000000E+00 0.  1.
        -11    1    1    2    0    0 -0.21323880449E+01  0.39109690460E+01  0.59984850117E+02  0.60150020791E+02  0.00000000000E+00 0.  1.
         11    1    1    2    0    0  0.20862447833E+01 -0.78640899706E+01 -0.49980106050E+03  0.49986727879E+03  0.00000000000E+00 0.  1.
        -15    1    1    2    0    0 -0.49814658084E+01  0.17364676304E+01  0.13958303883E+03  0.13969399694E+03  0.17770000000E+01 0. -1.
         15    1    1    2    0    0  0.50276090701E+01  0.22166532942E+01  0.30023317156E+03  0.30028870348E+03  0.17770000000E+01 0.  1.
</event>
<event>
 6   1  0.3798113E-04  0.5012343E+03  0.7546771E-02  0.9397052E-01
        -11   -1    0    0    0    0  0.00000000000E+00  0.00000000000E+00  0.50000000000E+03  0.50000000000E+03  0.00000000000E+00 0.  1.
         11   -1    0    0    0    0 -0.00000000000E+00 -0.00000000000E+00 -0.50000000000E+03  0.50000000000E+03  0.00000000000E+00 0. -1.
        -11    1    1    2    0    0  0.17091883225E+02 -0.24123007509E+02  0.49788870385E+03  0.49876568986E+03  0.00000000000E+00 0.  1.
         11    1    1    2    0    0  0.18646718830E+01 -0.55253351578E+01 -0.25281631705E+03  0.25288356312E+03  0.00000000000E+00 0. -1.
        -15    1    1    2    0    0 -0.49921398833E+01  0.18703974870E+02 -0.80447650630E+02  0.82763170296E+02  0.17770000000E+01 0.  1.
         15    1    1    2    0    0 -0.13964415224E+02  0.10944367797E+02 -0.16462473616E+03  0.16558757672E+03  0.17770000000E+01 0. -1.
</event>
<event>
 6   1  0.3798113E-04  0.3409430E+03  0.7546771E-02  0.9849042E-01
        -11   -1    0    0    0    0  0.00000000000E+00  0.00000000000E+00  0.50000000000E+03  0.50000000000E+03  0.00000000000E+00 0. -1.
         11   -1    0    0    0    0 -0.00000000000E+00 -0.00000000000E+00 -0.50000000000E+03  0.50000000000E+03  0.00000000000E+00 0. -1.
        -11    1    1    2    0    0  0.51470769403E+01  0.12793128597E+03  0.25698551317E+03  0.28711401970E+03  0.00000000000E+00 0. -1.
         11    1    1    2    0    0 -0.11882045902E+02  0.19381420868E+02 -0.43141133738E+03  0.43200991251E+03  0.00000000000E+00 0. -1.
        -15    1    1    2    0    0 -0.37185425877E+02 -0.15234341413E+03  0.17709486720E+03  0.23655236512E+03  0.17770000000E+01 0. -1.
         15    1    1    2    0    0  0.43920394839E+02  0.50307072890E+01 -0.26690429932E+01  0.44323702667E+02  0.17770000000E+01 0.  1.
</event>
<event>
 6   1  0.3798113E-04  0.5001204E+03  0.7546771E-02  0.9399540E-01
        -11   -1    0    0    0    0  0.00000000000E+00  0.00000000000E+00  0.50000000000E+03  0.50000000000E+03  0.00000000000E+00 0. -1.
         11   -1    0    0    0    0 -0.00000000000E+00 -0.00000000000E+00 -0.50000000000E+03  0.50000000000E+03  0.00000000000E+00 0. -1.
        -11    1    1    2    0    0  0.90508726103E+01  0.20797544870E+02  0.49936479318E+03  0.49987963835E+03  0.00000000000E+00 0. -1.
         11    1    1    2    0    0 -0.10355511782E+02 -0.20010499352E+02 -0.38634348411E+03  0.38699992820E+03  0.00000000000E+00 0. -1.
        -15    1    1    2    0    0  0.10891833266E+01 -0.16446698041E+01 -0.53205620563E+02  0.53271822267E+02  0.17770000000E+01 0. -1.
         15    1    1    2    0    0  0.21545584478E+00  0.85762428613E+00 -0.59815688505E+02  0.59848611186E+02  0.17770000000E+01 0.  1.
</event>
<event>
 6   1  0.3798113E-04  0.5007058E+03  0.7546771E-02  0.9398232E-01
        -11   -1    0    0    0    0  0.00000000000E+00  0.00000000000E+00  0.50000000000E+03  0.50000000000E+03  0.00000000000E+00 0.  1.
         11   -1    0    0    0    0 -0.00000000000E+00 -0.00000000000E+00 -0.50000000000E+03  0.50000000000E+03  0.00000000000E+00 0.  1.
        -11    1    1    2    0    0  0.51872403597E+01  0.12631341468E+02  0.49910742705E+03  0.49929418381E+03  0.00000000000E+00 0.  1.
         11    1    1    2    0    0 -0.92185543256E+01 -0.11965162448E+01 -0.40773013000E+03  0.40783608510E+03  0.00000000000E+00 0.  1.
        -15    1    1    2    0    0  0.46130511698E+01 -0.12352698582E+02 -0.61642717416E+02  0.63062284630E+02  0.17770000000E+01 0. -1.
         15    1    1    2    0    0 -0.58173720388E+00  0.91787335845E+00 -0.29734579631E+02  0.29807446461E+02  0.17770000000E+01 0.  1.
</event>
<event>
 6   1  0.3798113E-04  0.5004434E+03  0.7546771E-02  0.9398818E-01
        -11   -1    0    0    0    0  0.00000000000E+00  0.00000000000E+00  0.50000000000E+03  0.50000000000E+03  0.00000000000E+00 0. -1.
         11   -1    0    0    0    0 -0.00000000000E+00 -0.00000000000E+00 -0.50000000000E+03  0.50000000000E+03  0.00000000000E+00 0. -1.
        -11    1    1    2    0    0 -0.49747217769E+01 -0.11062818257E+02  0.49940932064E+03  0.49955660675E+03  0.00000000000E+00 0. -1.
         11    1    1    2    0    0 -0.51882721365E+01 -0.49829495746E+01 -0.26605752805E+03  0.26615475984E+03  0.00000000000E+00 0. -1.
        -15    1    1    2    0    0  0.96421757462E+01  0.12065372698E+02 -0.20609639885E+03  0.20668194919E+03  0.17770000000E+01 0. -1.
         15    1    1    2    0    0  0.52081816722E+00  0.39803951330E+01 -0.27255393736E+02  0.27606684221E+02  0.17770000000E+01 0.  1.
</event>
<event>
 6   1  0.3798113E-04  0.5017889E+03  0.7546771E-02  0.9395816E-01
        -11   -1    0    0    0    0  0.00000000000E+00  0.00000000000E+00  0.50000000000E+03  0.50000000000E+03  0.00000000000E+00 0. -1.
         11   -1    0    0    0    0 -0.00000000000E+00 -0.00000000000E+00 -0.50000000000E+03  0.50000000000E+03  0.00000000000E+00 0.  1.
        -11    1    1    2    0    0 -0.48344822281E+01  0.14903856939E+02  0.43248127043E+03  0.43276500141E+03  0.00000000000E+00 0. -1.
         11    1    1    2    0    0 -0.71800845767E+01 -0.38861599531E+01 -0.49814421503E+03  0.49821111471E+03  0.00000000000E+00 0.  1.
        -15    1    1    2    0    0  0.10272109536E+01 -0.89737978095E+01  0.20626379278E+02  0.22587373920E+02  0.17770000000E+01 0.  1.
         15    1    1    2    0    0  0.10987355851E+02 -0.20438991764E+01  0.45036565318E+02  0.46436509958E+02  0.17770000000E+01 0. -1.
</event>
<event>
 6   1  0.3798113E-04  0.4906010E+03  0.7546771E-02  0.9421090E-01
        -11   -1    0    0    0    0  0.00000000000E+00  0.00000000000E+00  0.50000000000E+03  0.50000000000E+03  0.00000000000E+00 0. -1.
         11   -1    0    0    0    0 -0.00000000000E+00 -0.00000000000E+00 -0.50000000000E+03  0.50000000000E+03  0.00000000000E+00 0.  1.
        -11    1    1    2    0    0 -0.12930462187E+02  0.22774119300E+01  0.48744281528E+03  0.48761960750E+03  0.00000000000E+00 0. -1.
         11    1    1    2    0    0  0.27829037416E+01  0.63795593654E+01 -0.49364357937E+03  0.49369264405E+03  0.00000000000E+00 0.  1.
        -15    1    1    2    0    0 -0.14800910918E+00 -0.24089956316E+01 -0.23522554693E+01  0.38099870659E+01  0.17770000000E+01 0.  1.
         15    1    1    2    0    0  0.10295567555E+02 -0.62479756638E+01  0.85530195640E+01  0.14877761385E+02  0.17770000000E+01 0.  1.
</event>
<event>
 6   1  0.3798113E-04  0.5001684E+03  0.7546771E-02  0.9399433E-01
        -11   -1    0    0    0    0  0.00000000000E+00  0.00000000000E+00  0.50000000000E+03  0.50000000000E+03  0.00000000000E+00 0.  1.
         11   -1    0    0    0    0 -0.00000000000E+00 -0.00000000000E+00 -0.50000000000E+03  0.50000000000E+03  0.00000000000E+00 0. -1.
        -11    1    1    2    0    0  0.91326084546E+01 -0.65718080569E+01  0.12212550787E+03  0.12264270411E+03  0.00000000000E+00 0.  1.
         11    1    1    2    0    0 -0.15866617660E+02  0.50431949883E+01 -0.49955429066E+03  0.49983164434E+03  0.00000000000E+00 0. -1.
        -15    1    1    2    0    0  0.96091911877E+00  0.14085593826E+01  0.12819464524E+03  0.12821829902E+03  0.17770000000E+01 0. -1.
         15    1    1    2    0    0  0.57730900871E+01  0.12005368601E+00  0.24923413754E+03  0.24930735253E+03  0.17770000000E+01 0.  1.
</event>
<event>
 6   1  0.3798113E-04  0.5001552E+03  0.7546771E-02  0.9399463E-01
        -11   -1    0    0    0    0  0.00000000000E+00  0.00000000000E+00  0.50000000000E+03  0.50000000000E+03  0.00000000000E+00 0.  1.
         11   -1    0    0    0    0 -0.00000000000E+00 -0.00000000000E+00 -0.50000000000E+03  0.50000000000E+03  0.00000000000E+00 0.  1.
        -11    1    1    2    0    0 -0.33425592100E+01  0.44974625296E+01  0.38693028066E+03  0.38697085415E+03  0.00000000000E+00 0.  1.
         11    1    1    2    0    0  0.56336543732E+00 -0.77004801580E+01 -0.49978517579E+03  0.49984481263E+03  0.00000000000E+00 0.  1.
        -15    1    1    2    0    0  0.24016292348E+01 -0.94526662950E+00  0.74017301423E+02  0.74083601363E+02  0.17770000000E+01 0. -1.
         15    1    1    2    0    0  0.37756453787E+00  0.41482842579E+01  0.38837593712E+02  0.39100731855E+02  0.17770000000E+01 0.  1.
</event>
<event>
 6   1  0.3798113E-04  0.5002464E+03  0.7546771E-02  0.9399259E-01
        -11   -1    0    0    0    0  0.00000000000E+00  0.00000000000E+00  0.50000000000E+03  0.50000000000E+03  0.00000000000E+00 0. -1.
         11   -1    0    0    0    0 -0.00000000000E+00 -0.00000000000E+00 -0.50000000000E+03  0.50000000000E+03  0.00000000000E+00 0.  1.
        -11    1    1    2    0    0  0.33818302368E+00  0.93136335165E+01  0.11290469272E+03  0.11328869217E+03  0.00000000000E+00 0. -1.
         11    1    1    2    0    0 -0.40901507961E+01 -0.62514193355E+01 -0.49969774580E+03  0.49975358601E+03  0.00000000000E+00 0.  1.
        -15    1    1    2    0    0  0.29676579010E+00  0.28907624295E+01  0.67838586876E+02  0.67924047109E+02  0.17770000000E+01 0.  1.
         15    1    1    2    0    0  0.34552019823E+01 -0.59529766104E+01  0.31895446621E+03  0.31903367470E+03  0.17770000000E+01 0. -1.
</event>
<event>
 6   1  0.3798113E-04  0.5020897E+03  0.7546771E-02  0.9395146E-01
        -11   -1    0    0    0    0  0.00000000000E+00  0.00000000000E+00  0.50000000000E+03  0.50000000000E+03  0.00000000000E+00 0. -1.
         11   -1    0    0    0    0 -0.00000000000E+00 -0.00000000000E+00 -0.50000000000E+03  0.50000000000E+03  0.00000000000E+00 0.  1.
        -11    1    1    2    0    0 -0.20101325670E+02 -0.94305390755E+01  0.49741500947E+03  0.49791032326E+03  0.00000000000E+00 0. -1.
         11    1    1    2    0    0 -0.31841564582E+01 -0.73350320391E+01 -0.39333201326E+03  0.39341328676E+03  0.00000000000E+00 0.  1.
        -15    1    1    2    0    0  0.11172822613E+02  0.31461799192E+01 -0.56139897284E+02  0.57354827254E+02  0.17770000000E+01 0. -1.
         15    1    1    2    0    0  0.12112659515E+02  0.13619391195E+02 -0.47943098925E+02  0.51321562726E+02  0.17770000000E+01 0.  1.
</event>
<event>
 6   1  0.3798113E-04  0.5107748E+03  0.7546771E-02  0.9376018E-01
        -11   -1    0    0    0    0  0.00000000000E+00  0.00000000000E+00  0.50000000000E+03  0.50000000000E+03  0.00000000000E+00 0.  1.
         11   -1    0    0    0    0 -0.00000000000E+00 -0.00000000000E+00 -0.50000000000E+03  0.50000000000E+03  0.00000000000E+00 0.  1.
        -11    1    1    2    0    0  0.41565447273E+02  0.19004915475E+02  0.38651847275E+03  0.38921125754E+03  0.00000000000E+00 0.  1.
         11    1    1    2    0    0  0.16041097091E+01  0.64525291937E+01 -0.48917997340E+03  0.48922515745E+03  0.00000000000E+00 0.  1.
        -15    1    1    2    0    0 -0.12623504651E+02 -0.14714481797E+01  0.11766474060E+01  0.12886436961E+02  0.17770000000E+01 0.  1.
         15    1    1    2    0    0 -0.30546052331E+02 -0.23985996489E+02  0.10148485325E+03  0.10867714805E+03  0.17770000000E+01 0. -1.
</event>
<event>
 6   1  0.3798113E-04  0.5001876E+03  0.7546771E-02  0.9399390E-01
        -11   -1    0    0    0    0  0.00000000000E+00  0.00000000000E+00  0.50000000000E+03  0.50000000000E+03  0.00000000000E+00 0.  1.
         11   -1    0    0    0    0 -0.00000000000E+00 -0.00000000000E+00 -0.50000000000E+03  0.50000000000E+03  0.00000000000E+00 0.  1.
        -11    1    1    2    0    0 -0.10829313933E+02 -0.15961699498E+02  0.49944009494E+03  0.49981242314E+03  0.00000000000E+00 0.  1.
         11    1    1    2    0    0  0.73108399999E+00  0.49924802383E+01 -0.30574685034E+03  0.30578848218E+03  0.00000000000E+00 0.  1.
        -15    1    1    2    0    0  0.99324815226E+01  0.10438843108E+02 -0.16116493194E+03  0.16181754123E+03  0.17770000000E+01 0. -1.
         15    1    1    2    0    0  0.16574841071E+00  0.53037615152E+00 -0.32528312662E+02  0.32581553447E+02  0.17770000000E+01 0. -1.
</event>
<event>
 6   1  0.3798113E-04  0.5008982E+03  0.7546771E-02  0.9397802E-01
        -11   -1    0    0    0    0  0.00000000000E+00  0.00000000000E+00  0.50000000000E+03  0.50000000000E+03  0.00000000000E+00 0. -1.
         11   -1    0    0    0    0 -0.00000000000E+00 -0.00000000000E+00 -0.50000000000E+03  0.50000000000E+03  0.00000000000E+00 0. -1.
        -11    1    1    2    0    0 -0.63046622715E+01  0.10793599276E+02  0.29628447718E+03  0.29654804327E+03  0.00000000000E+00 0. -1.
         11    1    1    2    0    0  0.25816460984E+01  0.76236507329E+01 -0.49903693657E+03  0.49910184232E+03  0.00000000000E+00 0. -1.
        -15    1    1    2    0    0 -0.43208106896E+01 -0.29859062728E+01  0.19750068682E+02  0.20513604833E+02  0.17770000000E+01 0. -1.
         15    1    1    2    0    0  0.80438268627E+01 -0.15431343736E+02  0.18300239070E+03  0.18383650957E+03  0.17770000000E+01 0.  1.
</event>
<event>
 6   1  0.3798113E-04  0.5049386E+03  0.7546771E-02  0.9388827E-01
        -11   -1    0    0    0    0  0.00000000000E+00  0.00000000000E+00  0.50000000000E+03  0.50000000000E+03  0.00000000000E+00 0. -1.
         11   -1    0    0    0    0 -0.00000000000E+00 -0.00000000000E+00 -0.50000000000E+03  0.50000000000E+03  0.00000000000E+00 0.  1.
        -11    1    1    2    0    0  0.16365916285E+02  0.29068250669E+01  0.47465617112E+03  0.47494712719E+03  0.00000000000E+00 0. -1.
         11    1    1    2    0    0  0.21427986339E+01 -0.75279949576E+01 -0.49499951112E+03  0.49506138842E+03  0.00000000000E+00 0.  1.
        -15    1    1    2    0    0 -0.35079417393E+01  0.51769929851E+01  0.89536344809E+01  0.11064908993E+02  0.17770000000E+01 0. -1.
         15    1    1    2    0    0 -0.15000773179E+02 -0.55582309435E+00  0.11389705522E+02  0.18926575395E+02  0.17770000000E+01 0.  1.
</event>
<event>
 6   1  0.3798113E-04  0.5066085E+03  0.7546771E-02  0.9385143E-01
        -11   -1    0    0    0    0  0.00000000000E+00  0.00000000000E+00  0.50000000000E+03  0.50000000000E+03  0.00000000000E+00 0.  1.
         11   -1    0    0    0    0 -0.00000000000E+00 -0.00000000000E+00 -0.50000000000E+03  0.50000000000E+03  0.00000000000E+00 0. -1.
        -11    1    1    2    0    0 -0.76091339076E+01  0.11108187150E+02  0.46011552666E+03  0.46031249018E+03  0.00000000000E+00 0.  1.
         11    1    1    2    0    0  0.22842424842E+01  0.79237491850E+01 -0.49332255342E+03  0.49339147265E+03  0.00000000000E+00 0. -1.
        -15    1    1    2    0    0  0.91310068586E+01 -0.16300514366E+02  0.35971696075E+02  0.40573423597E+02  0.17770000000E+01 0. -1.
         15    1    1    2    0    0 -0.38061154352E+01 -0.27314219688E+01 -0.27646693153E+01  0.57226135725E+01  0.17770000000E+01 0.  1.
</event>
<event>
 6   1  0.3798113E-04  0.4904148E+03  0.7546771E-02  0.9421517E-01
        -11   -1    0    0    0    0  0.00000000000E+00  0.00000000000E+00  0.50000000000E+03  0.50000000000E+03  0.00000000000E+00 0.  1.
         11   -1    0    0    0    0 -0.00000000000E+00 -0.00000000000E+00 -0.50000000000E+03  0.50000000000E+03  0.00000000000E+00 0. -1.
        -11    1    1    2    0    0 -0.98890345595E+01 -0.28245588332E+01  0.49069193162E+03  0.49079969733E+03  0.00000000000E+00 0.  1.
         11    1    1    2    0    0 -0.74649316466E+01 -0.10133064463E+01 -0.49013313782E+03  0.49019102887E+03  0.00000000000E+00 0. -1.
        -15    1    1    2    0    0  0.13876654610E+02  0.44577817378E+01 -0.19624072832E+01  0.14813579329E+02  0.17770000000E+01 0.  1.
         15    1    1    2    0    0  0.34773115960E+01 -0.61991645830E+00  0.14036134786E+01  0.41956944774E+01  0.17770000000E+01 0. -1.
</event>
<event>
 6   1  0.3798113E-04  0.5017508E+03  0.7546771E-02  0.9395901E-01
        -11   -1    0    0    0    0  0.00000000000E+00  0.00000000000E+00  0.50000000000E+03  0.50000000000E+03  0.00000000000E+00 0. -1.
         11   -1    0    0    0    0 -0.00000000000E+00 -0.00000000000E+00 -0.50000000000E+03  0.50000000000E+03  0.00000000000E+00 0.  1.
        -11    1    1    2    0    0 -0.77442385768E+02  0.95172636365E+02  0.37414796708E+03  0.39375354614E+03  0.00000000000E+00 0. -1.
         11    1    1    2    0    0  0.85195840138E+02 -0.10165946975E+03 -0.48027006410E+03  0.49824924830E+03  0.00000000000E+00 0.  1.
        -15    1    1    2    0    0 -0.59836795037E+01 -0.19907148945E+01  0.14059692106E+02  0.15511287416E+02  0.17770000000E+01 0. -1.
         15    1    1    2    0    0 -0.17697748659E+01  0.84775482841E+01  0.92062404911E+02  0.92485918144E+02  0.17770000000E+01 0.  1.
</event>
<event>
 6   1  0.3798113E-04  0.5035435E+03  0.7546771E-02  0.9391916E-01
        -11   -1    0    0    0    0  0.00000000000E+00  0.00000000000E+00  0.50000000000E+03  0.50000000000E+03  0.00000000000E+00 0. -1.
         11   -1    0    0    0    0 -0.00000000000E+00 -0.00000000000E+00 -0.50000000000E+03  0.50000000000E+03  0.00000000000E+00 0. -1.
        -11    1    1    2    0    0 -0.97264848237E+01  0.11044306208E+01  0.49635996686E+03  0.49645648447E+03  0.00000000000E+00 0. -1.
         11    1    1    2    0    0 -0.10524402419E+02  0.75449897860E+01 -0.43380543849E+03  0.43399867324E+03  0.00000000000E+00 0. -1.
        -15    1    1    2    0    0  0.19443548645E+02  0.13856464225E+01 -0.34221214038E+02  0.39423607384E+02  0.17770000000E+01 0. -1.
         15    1    1    2    0    0  0.80733859829E+00 -0.10035066829E+02 -0.28333314333E+02  0.30121234901E+02  0.17770000000E+01 0. -1.
</event>
<event>
 6   1  0.3798113E-04  0.5026808E+03  0.7546771E-02  0.9393831E-01
        -11   -1    0    0    0    0  0.00000000000E+00  0.00000000000E+00  0.50000000000E+03  0.50000000000E+03  0.00000000000E+00 0. -1.
         11   -1    0    0    0    0 -0.00000000000E+00 -0.00000000000E+00 -0.50000000000E+03  0.50000000000E+03  0.00000000000E+00 0. -1.
        -11    1    1    2    0    0 -0.14527784329E+02  0.17153244964E+02  0.46530812636E+03  0.46585077309E+03  0.00000000000E+00 0. -1.
         11    1    1    2    0    0  0.89030589012E+00 -0.92002722213E+01 -0.49723331172E+03  0.49731921734E+03  0.00000000000E+00 0. -1.
        -15    1    1    2    0    0  0.34443783538E+01 -0.25833164635E+01  0.18371968422E+02  0.18953211308E+02  0.17770000000E+01 0. -1.
         15    1    1    2    0    0  0.10193100085E+02 -0.53696562795E+01  0.13553216935E+02  0.17876798265E+02  0.17770000000E+01 0.  1.
</event>
<event>
 6   1  0.3798113E-04  0.5000330E+03  0.7546771E-02  0.9399736E-01
        -11   -1    0    0    0    0  0.00000000000E+00  0.00000000000E+00  0.50000000000E+03  0.50000000000E+03  0.00000000000E+00 0. -1.
         11   -1    0    0    0    0 -0.00000000000E+00 -0.00000000000E+00 -0.50000000000E+03  0.50000000000E+03  0.00000000000E+00 0. -1.
        -11    1    1    2    0    0 -0.24711841688E+00 -0.67204939179E+01  0.19901001248E+03  0.19912360777E+03  0.00000000000E+00 0. -1.
         11    1    1    2    0    0 -0.31601845894E+01  0.10635842035E+02 -0.49984382349E+03  0.49996695469E+03  0.00000000000E+00 0. -1.
        -15    1    1    2    0    0  0.28291684141E+01 -0.15016736162E+01  0.17820324066E+03  0.17824088175E+03  0.17770000000E+01 0. -1.
         15    1    1    2    0    0  0.57813459215E+00 -0.24136745011E+01  0.12263057036E+03  0.12266855579E+03  0.17770000000E+01 0.  1.
</event>
<event>
 6   1  0.3798113E-04  0.5029669E+03  0.7546771E-02  0.9393195E-01
        -11   -1    0    0    0    0  0.00000000000E+00  0.00000000000E+00  0.50000000000E+03  0.50000000000E+03  0.00000000000E+00 0. -1.
         11   -1    0    0    0    0 -0.00000000000E+00 -0.00000000000E+00 -0.50000000000E+03  0.50000000000E+03  0.00000000000E+00 0. -1.
        -11    1    1    2    0    0 -0.26866483329E+02 -0.15943002164E+02  0.49605031751E+03  0.49703310227E+03  0.00000000000E+00 0. -1.
         11    1    1    2    0    0  0.64527325246E+01  0.18989491402E+01 -0.33473830555E+03  0.33480587953E+03  0.00000000000E+00 0. -1.
        -15    1    1    2    0    0 -0.15903532875E+01  0.69611260443E+01 -0.26605142726E+01  0.78244849402E+01  0.17770000000E+01 0.  1.
         15    1    1    2    0    0  0.22004104092E+02  0.70829269800E+01 -0.15865149768E+03  0.16033653326E+03  0.17770000000E+01 0. -1.
</event>
<event>
 6   1  0.3798113E-04  0.5001386E+03  0.7546771E-02  0.9399500E-01
        -11   -1    0    0    0    0  0.00000000000E+00  0.00000000000E+00  0.50000000000E+03  0.50000000000E+03  0.00000000000E+00 0.  1.
         11   -1    0    0    0    0 -0.00000000000E+00 -0.00000000000E+00 -0.50000000000E+03  0.50000000000E+03  0.00000000000E+00 0.  1.
        -11    1    1    2    0    0 -0.26777735096E+01 -0.41119748548E+01  0.11921701753E+03  0.11931796209E+03  0.00000000000E+00 0.  1.
         11    1    1    2    0    0 -0.81346154238E+01  0.14777274616E+01 -0.49979301388E+03  0.49986139316E+03  0.00000000000E+00 0.  1.
        -15    1    1    2    0    0  0.10467965306E+02  0.37664661344E+01  0.28847278289E+03  0.28869268914E+03  0.17770000000E+01 0.  1.
         15    1    1    2    0    0  0.34442362729E+00 -0.11322187412E+01  0.92103213465E+02  0.92127955619E+02  0.17770000000E+01 0.  1.
</event>
<event>
 6   1  0.3798113E-04  0.5013378E+03  0.7546771E-02  0.9396821E-01
        -11   -1    0    0    0    0  0.00000000000E+00  0.00000000000E+00  0.50000000000E+03  0.50000000000E+03  0.00000000000E+00 0.  1.
         11   -1    0    0    0    0 -0.00000000000E+00 -0.00000000000E+00 -0.50000000000E+03  0.50000000000E+03  0.00000000000E+00 0. -1.
        -11    1    1    2    0    0  0.68232188193E+01  0.88875844874E+01  0.49853634515E+03  0.49866224331E+03  0.00000000000E+00 0.  1.
         11    1    1    2    0    0 -0.61972924816E+01 -0.17394982712E+01 -0.41134633761E+03  0.41139669634E+03  0.00000000000E+00 0. -1.
        -15    1    1    2    0    0  0.83693826499E+01  0.12366938279E+01 -0.23253037376E+02  0.24808011887E+02  0.17770000000E+01 0.  1.
         15    1    1    2    0    0 -0.89953089876E+01 -0.83847800441E+01 -0.63936970157E+02  0.65133048462E+02  0.17770000000E+01 0. -1.
</event>
<event>
 6   1  0.3798113E-04  0.5008834E+03  0.7546771E-02  0.9397835E-01
        -11   -1    0    0    0    0  0.00000000000E+00  0.00000000000E+00  0.50000000000E+03  0.50000000000E+03  0.00000000000E+00 0. -1.
         11   -1    0    0    0    0 -0.00000000000E+00 -0.00000000000E+00 -0.50000000000E+03  0.50000000000E+03  0.00000000000E+00 0.  1.
        -11    1    1    2    0    0 -0.60150490229E+01 -0.39616967130E+01  0.13985651273E+02  0.15731315810E+02  0.00000000000E+00 0. -1.
         11    1    1    2    0    0  0.38440758213E+01  0.11475181366E+02 -0.49896984428E+03  0.49911658178E+03  0.00000000000E+00 0.  1.
        -15    1    1    2    0    0 -0.58930020132E+00 -0.57726454632E+01  0.42984942582E+03  0.42989226245E+03  0.17770000000E+01 0. -1.
         15    1    1    2    0    0  0.27602734030E+01 -0.17408391895E+01  0.55134767188E+02  0.55259839958E+02  0.17770000000E+01 0. -1.
</event>
<event>
 6   1  0.3798113E-04  0.5002867E+03  0.7546771E-02  0.9399168E-01
        -11   -1    0    0    0    0  0.00000000000E+00  0.00000000000E+00  0.50000000000E+03  0.50000000000E+03  0.00000000000E+00 0.  1.
         11   -1    0    0    0    0 -0.00000000000E+00 -0.00000000000E+00 -0.50000000000E+03  0.50000000000E+03  0.00000000000E+00 0. -1.
        -11    1    1    2    0    0  0.11081014171E+02  0.16607126161E+01  0.30709785123E+03  0.30730219178E+03  0.00000000000E+00 0.  1.
         11    1    1    2    0    0 -0.13912724478E+01 -0.70538507997E+01 -0.49966158759E+03  0.49971331238E+03  0.00000000000E+00 0. -1.
        -15    1    1    2    0    0 -0.32330975306E+01 -0.43992092451E+00  0.44605213913E+02  0.44759683727E+02  0.17770000000E+01 0.  1.
         15    1    1    2    0    0 -0.64566441930E+01  0.58330591081E+01  0.14795852245E+03  0.14822481212E+03  0.17770000000E+01 0. -1.
</event>
<event>
 6   1  0.3798113E-04  0.5023158E+03  0.7546771E-02  0.9394643E-01
        -11   -1    0    0    0    0  0.00000000000E+00  0.00000000000E+00  0.50000000000E+03  0.50000000000E+03  0.00000000000E+00 0.  1.
         11   -1    0    0    0    0 -0.00000000000E+00 -0.00000000000E+00 -0.50000000000E+03  0.50000000000E+03  0.00000000000E+00 0. -1.
        -11    1    1    2    0    0 -0.45239564717E+01  0.16436406701E+02  0.42376175202E+03  0.42410452028E+03  0.00000000000E+00 0.  1.
         11    1    1    2    0    0  0.78877438623E+01  0.33285692781E+01 -0.49761054366E+03  0.49768418604E+03  0.00000000000E+00 0. -1.
        -15    1    1    2    0    0  0.19591980893E+01 -0.19301666157E+02  0.48965882022E+02  0.52699223000E+02  0.17770000000E+01 0.  1.
         15    1    1    2    0    0 -0.53229854799E+01 -0.46330982209E+00  0.24882909618E+02  0.25512070682E+02  0.17770000000E+01 0. -1.
</event>
<event>
 6   1  0.3798113E-04  0.5047764E+03  0.7546771E-02  0.9389185E-01
        -11   -1    0    0    0    0  0.00000000000E+00  0.00000000000E+00  0.50000000000E+03  0.50000000000E+03  0.00000000000E+00 0.  1.
         11   -1    0    0    0    0 -0.00000000000E+00 -0.00000000000E+00 -0.50000000000E+03  0.50000000000E+03  0.00000000000E+00 0.  1.
        -11    1    1    2    0    0 -0.32697987884E+02  0.16137444620E+02  0.43460550307E+03  0.43613245560E+03  0.00000000000E+00 0.  1.
         11    1    1    2    0    0  0.33830815581E+01 -0.60569483334E+01 -0.49517498437E+03  0.49522358285E+03  0.00000000000E+00 0.  1.
        -15    1    1    2    0    0  0.83536841760E+00 -0.15726984747E+01  0.51587483578E+01  0.57394803340E+01  0.17770000000E+01 0. -1.
         15    1    1    2    0    0  0.28479537909E+02 -0.85077978118E+01  0.55410732942E+02  0.62904481218E+02  0.17770000000E+01 0.  1.
</event>
<event>
 6   1  0.3798113E-04  0.5001027E+03  0.7546771E-02  0.9399580E-01
        -11   -1    0    0    0    0  0.00000000000E+00  0.00000000000E+00  0.50000000000E+03  0.50000000000E+03  0.00000000000E+00 0. -1.
         11   -1    0    0    0    0 -0.00000000000E+00 -0.00000000000E+00 -0.50000000000E+03  0.50000000000E+03  0.00000000000E+00 0. -1.
        -11    1    1    2    0    0 -0.39112000638E+01  0.12648109509E+02  0.49972200120E+03  0.49989734010E+03  0.00000000000E+00 0. -1.
         11    1    1    2    0    0  0.24711104309E+01 -0.98540852996E+01 -0.42714833126E+03  0.42726912629E+03  0.00000000000E+00 0. -1.
        -15    1    1    2    0    0 -0.94474505887E+00 -0.14698694569E+01 -0.19261253070E+02  0.19421808831E+02  0.17770000000E+01 0. -1.
         15    1    1    2    0    0  0.23848346917E+01 -0.13241547525E+01 -0.53312416865E+02  0.53411724774E+02  0.17770000000E+01 0.  1.
</event>
<event>
 6   1  0.3798113E-04  0.5007126E+03  0.7546771E-02  0.9398217E-01
        -11   -1    0    0    0    0  0.00000000000E+00  0.00000000000E+00  0.50000000000E+03  0.50000000000E+03  0.00000000000E+00 0.  1.
         11   -1    0    0    0    0 -0.00000000000E+00 -0.00000000000E+00 -0.50000000000E+03  0.50000000000E+03  0.00000000000E+00 0.  1.
        -11    1    1    2    0    0  0.54702014040E+01  0.10052744169E+02  0.49915616991E+03  0.49928735486E+03  0.00000000000E+00 0.  1.
         11    1    1    2    0    0  0.37211179293E+01  0.51464416687E+01 -0.27213246297E+03  0.27220655756E+03  0.00000000000E+00 0.  1.
        -15    1    1    2    0    0 -0.52535316409E+01 -0.11026909124E+02 -0.21151811208E+03  0.21187794077E+03  0.17770000000E+01 0. -1.
         15    1    1    2    0    0 -0.39377876923E+01 -0.41722767136E+01 -0.15505594865E+02  0.16628146800E+02  0.17770000000E+01 0.  1.
</event>
<event>
 6   1  0.3798113E-04  0.5002109E+03  0.7546771E-02  0.9399338E-01
        -11   -1    0    0    0    0  0.00000000000E+00  0.00000000000E+00  0.50000000000E+03  0.50000000000E+03  0.00000000000E+00 0. -1.
         11   -1    0    0    0    0 -0.00000000000E+00 -0.00000000000E+00 -0.50000000000E+03  0.50000000000E+03  0.00000000000E+00 0. -1.
        -11    1    1    2    0    0  0.20314890976E+02 -0.10477196788E+02  0.49926613665E+03  0.49978909717E+03  0.00000000000E+00 0. -1.
         11    1    1    2    0    0  0.99589501911E+00  0.48628843311E+01 -0.42045819359E+02  0.42337812609E+02  0.00000000000E+00 0. -1.
        -15    1    1    2    0    0 -0.13597346995E+02  0.41969096830E+00 -0.19506528779E+03  0.19554715087E+03  0.17770000000E+01 0. -1.
         15    1    1    2    0    0 -0.77134390005E+01  0.51946214883E+01 -0.26215502950E+03  0.26232593935E+03  0.17770000000E+01 0.  1.
</event>
<event>
 6   1  0.3798113E-04  0.5040339E+03  0.7546771E-02  0.9390829E-01
        -11   -1    0    0    0    0  0.00000000000E+00  0.00000000000E+00  0.50000000000E+03  0.50000000000E+03  0.00000000000E+00 0. -1.
         11   -1    0    0    0    0 -0.00000000000E+00 -0.00000000000E+00 -0.50000000000E+03  0.50000000000E+03  0.00000000000E+00 0.  1.
        -11    1    1    2    0    0  0.20866353863E+02  0.15183964184E+02  0.49529430969E+03  0.49596613866E+03  0.00000000000E+00 0. -1.
         11    1    1    2    0    0  0.78498210532E+01 -0.17715859972E+01 -0.42184471584E+03  0.42192146484E+03  0.00000000000E+00 0.  1.
        -15    1    1    2    0    0 -0.15738300068E+02 -0.27126980812E+01 -0.17944994923E+02  0.24088034201E+02  0.17770000000E+01 0.  1.
         15    1    1    2    0    0 -0.12977874849E+02 -0.10699680105E+02 -0.55504598917E+02  0.58024362297E+02  0.17770000000E+01 0. -1.
</event>
<event>
 6   1  0.3798113E-04  0.5024343E+03  0.7546771E-02  0.9394379E-01
        -11   -1    0    0    0    0  0.00000000000E+00  0.00000000000E+00  0.50000000000E+03  0.50000000000E+03  0.00000000000E+00 0.  1.
         11   -1    0    0    0    0 -0.00000000000E+00 -0.00000000000E+00 -0.50000000000E+03  0.50000000000E+03  0.00000000000E+00 0. -1.
        -11    1    1    2    0    0 -0.38248843782E+02  0.17762585695E+02  0.26103005047E+03  0.26441477029E+03  0.00000000000E+00 0.  1.
         11    1    1    2    0    0  0.23264172845E+02 -0.17738189695E+02 -0.49670492677E+03  0.49756572369E+03  0.00000000000E+00 0. -1.
        -15    1    1    2    0    0  0.18390796199E+02 -0.10420389793E+02  0.12456532057E+03  0.12635854829E+03  0.17770000000E+01 0. -1.
         15    1    1    2    0    0 -0.34061252624E+01  0.10395993793E+02  0.11110955573E+03  0.11166095772E+03  0.17770000000E+01 0.  1.
</event>
<event>
 6   1  0.3798113E-04  0.5036878E+03  0.7546771E-02  0.9391596E-01
        -11   -1    0    0    0    0  0.00000000000E+00  0.00000000000E+00  0.50000000000E+03  0.50000000000E+03  0.00000000000E+00 0. -1.
         11   -1    0    0    0    0 -0.00000000000E+00 -0.00000000000E+00 -0.50000000000E+03  0.50000000000E+03  0.00000000000E+00 0. -1.
        -11    1    1    2    0    0 -0.32440640580E+01 -0.23900256386E+02  0.53076307640E+02  0.58299576668E+02  0.00000000000E+00 0. -1.
         11    1    1    2    0    0 -0.86821511260E+01 -0.74241274316E+01 -0.49618072820E+03  0.49631221268E+03  0.00000000000E+00 0. -1.
        -15    1    1    2    0    0  0.11251501120E+02  0.25665003679E+02  0.17671786359E+03  0.17893476390E+03  0.17770000000E+01 0.  1.
         15    1    1    2    0    0  0.67471406427E+00  0.56593801379E+01  0.26638655697E+03  0.26645344675E+03  0.17770000000E+01 0. -1.
</event>
<event>
 6   1  0.3798113E-04  0.4620922E+03  0.7546771E-02  0.9488870E-01
        -11   -1    0    0    0    0  0.00000000000E+00  0.00000000000E+00  0.50000000000E+03  0.50000000000E+03  0.00000000000E+00 0.  1.
         11   -1    0    0    0    0 -0.00000000000E+00 -0.00000000000E+00 -0.50000000000E+03  0.50000000000E+03  0.00000000000E+00 0.  1.
        -11    1    1    2    0    0 -0.31518949186E+02 -0.53467838519E+02  0.45875847208E+03  0.46293799759E+03  0.00000000000E+00 0.  1.
         11    1    1    2    0    0 -0.14596895273E+02  0.12301608443E+02 -0.46292746225E+03  0.46332087610E+03  0.00000000000E+00 0.  1.
        -15    1    1    2    0    0  0.28588304945E+02  0.46678430184E+02 -0.22170502543E+00  0.54766540024E+02  0.17770000000E+01 0. -1.
         15    1    1    2    0    0  0.17527539514E+02 -0.55122001085E+01  0.43906951979E+01  0.18974586288E+02  0.17770000000E+01 0.  1.
</event>
<event>
 6   1  0.3798113E-04  0.5016480E+03  0.7546771E-02  0.9396130E-01
        -11   -1    0    0    0    0  0.00000000000E+00  0.00000000000E+00  0.50000000000E+03  0.50000000000E+03  0.00000000000E+00 0. -1.
         11   -1    0    0    0    0 -0.00000000000E+00 -0.00000000000E+00 -0.50000000000E+03  0.50000000000E+03  0.00000000000E+00 0. -1.
        -11    1    1    2    0    0 -0.84461029673E+01 -0.10042191203E+02  0.28017654103E+02  0.30938183543E+02  0.00000000000E+00 0. -1.
         11    1    1    2    0    0  0.54606955660E+01 -0.39747257373E+01 -0.49830621003E+03  0.49835198063E+03  0.00000000000E+00 0. -1.
        -15    1    1    2    0    0  0.47634610716E+01 -0.50413747467E+00  0.13834690808E+03  0.13844121287E+03  0.17770000000E+01 0. -1.
         15    1    1    2    0    0 -0.17780536702E+01  0.14521054415E+02  0.33194164785E+03  0.33226862296E+03  0.17770000000E+01 0.  1.
</event>
<event>
 6   1  0.3798113E-04  0.5039755E+03  0.7546771E-02  0.9390958E-01
        -11   -1    0    0    0    0  0.00000000000E+00  0.00000000000E+00  0.50000000000E+03  0.50000000000E+03  0.00000000000E+00 0.  1.
         11   -1    0    0    0    0 -0.00000000000E+00 -0.00000000000E+00 -0.50000000000E+03  0.50000000000E+03  0.00000000000E+00 0. -1.
        -11    1    1    2    0    0 -0.10364589446E+02  0.30288995528E+02  0.49499040971E+03  0.49602454947E+03  0.00000000000E+00 0.  1.
         11    1    1    2    0    0 -0.86517734448E+01 -0.91133646245E+01 -0.43277011770E+03  0.43295251630E+03  0.00000000000E+00 0. -1.
        -15    1    1    2    0    0  0.63107877365E+01 -0.18854879756E+02 -0.46473676384E+02  0.50579569573E+02  0.17770000000E+01 0.  1.
         15    1    1    2    0    0  0.12705575154E+02 -0.23207511474E+01 -0.15746615631E+02  0.20443364662E+02  0.17770000000E+01 0. -1.
</event>
<event>
 6   1  0.3798113E-04  0.5101123E+03  0.7546771E-02  0.9377463E-01
        -11   -1    0    0    0    0  0.00000000000E+00  0.00000000000E+00  0.50000000000E+03  0.50000000000E+03  0.00000000000E+00 0. -1.
         11   -1    0    0    0    0 -0.00000000000E+00 -0.00000000000E+00 -0.50000000000E+03  0.50000000000E+03  0.00000000000E+00 0. -1.
        -11    1    1    2    0    0 -0.33580230016E+02 -0.18458056417E+02  0.41222585628E+03  0.41400300516E+03  0.00000000000E+00 0. -1.
         11    1    1    2    0    0  0.11173188367E+02 -0.63247140293E+01 -0.48971940834E+03  0.48988768208E+03  0.00000000000E+00 0. -1.
        -15    1    1    2    0    0  0.67403124687E+01  0.11945509488E+02  0.74241355451E+02  0.75518630796E+02  0.17770000000E+01 0.  1.
         15    1    1    2    0    0  0.15666729180E+02  0.12837260959E+02  0.32521966064E+01  0.20590681968E+02  0.17770000000E+01 0. -1.
</event>
<event>
 6   1  0.3798113E-04  0.5017305E+03  0.7546771E-02  0.9395946E-01
        -11   -1    0    0    0    0  0.00000000000E+00  0.00000000000E+00  0.50000000000E+03  0.50000000000E+03  0.00000000000E+00 0. -1.
         11   -1    0    0    0    0 -0.00000000000E+00 -0.00000000000E+00 -0.50000000000E+03  0.50000000000E+03  0.00000000000E+00 0. -1.
        -11    1    1    2    0    0  0.46338426112E+01 -0.10250419713E+02  0.49814252518E+03  0.49826952445E+03  0.00000000000E+00 0. -1.
         11    1    1    2    0    0  0.16195549010E+02 -0.28380749869E+01 -0.39332632758E+03  0.39366984955E+03  0.00000000000E+00 0. -1.
        -15    1    1    2    0    0 -0.14723949277E+02  0.66159728118E+01 -0.52197961564E+02  0.54665809232E+02  0.17770000000E+01 0. -1.
         15    1    1    2    0    0 -0.61054423443E+01  0.64725218881E+01 -0.52618236031E+02  0.53394816769E+02  0.17770000000E+01 0.  1.
</event>
<event>
 6   1  0.3798113E-04  0.4836483E+03  0.7546771E-02  0.9437160E-01
        -11   -1    0    0    0    0  0.00000000000E+00  0.00000000000E+00  0.50000000000E+03  0.50000000000E+03  0.00000000000E+00 0.  1.
         11   -1    0    0    0    0 -0.00000000000E+00 -0.00000000000E+00 -0.50000000000E+03  0.50000000000E+03  0.00000000000E+00 0.  1.
        -11    1    1    2    0    0 -0.96434402183E+01 -0.24201979326E+02  0.48467703152E+03  0.48537671619E+03  0.00000000000E+00 0.  1.
         11    1    1    2    0    0  0.66327016911E+01  0.22752278955E+00 -0.48217911296E+03  0.48222478314E+03  0.00000000000E+00 0.  1.
        -15    1    1    2    0    0 -0.38438951492E-01  0.20163024729E+02  0.71287030898E+01  0.21459850431E+02  0.17770000000E+01 0. -1.
         15    1    1    2    0    0  0.30491774787E+01  0.38114318077E+01 -0.96266216451E+01  0.10938650238E+02  0.17770000000E+01 0.  1.
</event>
<event>
 6   1  0.3798113E-04  0.5057259E+03  0.7546771E-02  0.9387088E-01
        -11   -1    0    0    0    0  0.00000000000E+00  0.00000000000E+00  0.50000000000E+03  0.50000000000E+03  0.00000000000E+00 0.  1.
         11   -1    0    0    0    0 -0.00000000000E+00 -0.00000000000E+00 -0.50000000000E+03  0.50000000000E+03  0.00000000000E+00 0. -1.
        -11    1    1    2    0    0  0.42930657093E+01  0.13096821362E+02  0.49408186259E+03  0.49427405767E+03  0.00000000000E+00 0.  1.
         11    1    1    2    0    0  0.44004542363E+01  0.10836599603E+02 -0.46080537700E+03  0.46095378441E+03  0.00000000000E+00 0. -1.
        -15    1    1    2    0    0 -0.63579196377E+01 -0.62296203575E+01 -0.29686416806E+01  0.95499672432E+01  0.17770000000E+01 0.  1.
         15    1    1    2    0    0 -0.23356003079E+01 -0.17703800607E+02 -0.30307843909E+02  0.35222190678E+02  0.17770000000E+01 0. -1.
</event>
<event>
 6   1  0.3798113E-04  0.4899748E+03  0.7546771E-02  0.9422525E-01
        -11   -1    0    0    0    0  0.00000000000E+00  0.00000000000E+00  0.50000000000E+03  0.50000000000E+03  0.00000000000E+00 0.  1.
         11   -1    0    0    0    0 -0.00000000000E+00 -0.00000000000E+00 -0.50000000000E+03  0.50000000000E+03  0.00000000000E+00 0.  1.
        -11    1    1    2    0    0 -0.42929023636E+01 -0.13887850272E+02  0.49133813466E+03  0.49155311409E+03  0.00000000000E+00 0.  1.
         11    1    1    2    0    0 -0.26193636633E+01  0.97900513227E+01 -0.48832896099E+03  0.48843411052E+03  0.00000000000E+00 0.  1.
        -15    1    1    2    0    0  0.30738848845E+01 -0.69852032908E+01 -0.28326548696E+00  0.78409056641E+01  0.17770000000E+01 0. -1.
         15    1    1    2    0    0  0.38383811424E+01  0.11083002240E+02 -0.27259081804E+01  0.12171869735E+02  0.17770000000E+01 0. -1.
</event>
<event>
 6   1  0.3798113E-04  0.5084619E+03  0.7546771E-02  0.9381072E-01
        -11   -1    0    0    0    0  0.00000000000E+00  0.00000000000E+00  0.50000000000E+03  0.50000000000E+03  0.00000000000E+00 0.  1.
         11   -1    0    0    0    0 -0.00000000000E+00 -0.00000000000E+00 -0.50000000000E+03  0.50000000000E+03  0.00000000000E+00 0. -1.
        -11    1    1    2    0    0 -0.10118503143E+02 -0.13626708609E+02  0.49124495752E+03  0.49153807542E+03  0.00000000000E+00 0.  1.
         11    1    1    2    0    0  0.94955928652E+01  0.16035165060E+02 -0.48470836351E+03  0.48506648045E+03  0.00000000000E+00 0. -1.
        -15    1    1    2    0    0  0.36404620164E+01  0.89097234332E+01 -0.61144332962E+01  0.11540370830E+02  0.17770000000E+01 0. -1.
         15    1    1    2    0    0 -0.30175517384E+01 -0.11318179884E+02 -0.42216072040E+00  0.11855073305E+02  0.17770000000E+01 0.  1.
</event>
<event>
 6   1  0.3798113E-04  0.5006842E+03  0.7546771E-02  0.9398280E-01
        -11   -1    0    0    0    0  0.00000000000E+00  0.00000000000E+00  0.50000000000E+03  0.50000000000E+03  0.00000000000E+00 0. -1.
         11   -1    0    0    0    0 -0.00000000000E+00 -0.00000000000E+00 -0.50000000000E+03  0.50000000000E+03  0.00000000000E+00 0.  1.
        -11    1    1    2    0    0  0.12407899660E+01  0.16557567429E+02  0.37874311102E+03  0.37910689356E+03  0.00000000000E+00 0. -1.
         11    1    1    2    0    0 -0.11259621812E+02 -0.64998419418E+01 -0.49914648618E+03  0.49931577353E+03  0.00000000000E+00 0.  1.
        -15    1    1    2    0    0  0.66620696316E+01 -0.94540977921E+00  0.52928665754E+02  0.53384251975E+02  0.17770000000E+01 0.  1.
         15    1    1    2    0    0  0.33567622145E+01 -0.91123157077E+01  0.67474709403E+02  0.68193080941E+02  0.17770000000E+01 0.  1.
</event>
<event>
 6   1  0.3798113E-04  0.5061539E+03  0.7546771E-02  0.9386144E-01
        -11   -1    0    0    0    0  0.00000000000E+00  0.00000000000E+00  0.50000000000E+03  0.50000000000E+03  0.00000000000E+00 0.  1.
         11   -1    0    0    0    0 -0.00000000000E+00 -0.00000000000E+00 -0.50000000000E+03  0.50000000000E+03  0.00000000000E+00 0.  1.
        -11    1    1    2    0    0 -0.85559121023E+01 -0.88846066051E+01  0.49369199139E+03  0.49384605114E+03  0.00000000000E+00 0.  1.
         11    1    1    2    0    0  0.15361068465E+02  0.11625318876E+02 -0.48551970393E+03  0.48590173222E+03  0.00000000000E+00 0.  1.
        -15    1    1    2    0    0  0.36297536919E+01  0.79857149031E+00  0.24925515459E+01  0.48149112658E+01  0.17770000000E+01 0. -1.
         15    1    1    2    0    0 -0.10434910054E+02 -0.35392837608E+01 -0.10664839000E+02  0.15437305376E+02  0.17770000000E+01 0.  1.
</event>
<event>
 6   1  0.3798113E-04  0.5001777E+03  0.7546771E-02  0.9399412E-01
        -11   -1    0    0    0    0  0.00000000000E+00  0.00000000000E+00  0.50000000000E+03  0.50000000000E+03  0.00000000000E+00 0. -1.
         11   -1    0    0    0    0 -0.00000000000E+00 -0.00000000000E+00 -0.50000000000E+03  0.50000000000E+03  0.00000000000E+00 0.  1.
        -11    1    1    2    0    0  0.26355806042E+01 -0.25315928479E+02  0.49917384574E+03  0.49982233923E+03  0.00000000000E+00 0. -1.
         11    1    1    2    0    0  0.31065409270E+01  0.23620026847E+02 -0.33724712464E+03  0.33808753207E+03  0.00000000000E+00 0.  1.
        -15    1    1    2    0    0 -0.27861124455E+01  0.49985471575E+00 -0.55273212365E+02  0.55374163754E+02  0.17770000000E+01 0. -1.
         15    1    1    2    0    0 -0.29560090857E+01  0.11960469161E+01 -0.10665350874E+03  0.10671596494E+03  0.17770000000E+01 0.  1.
</event>
<event>
 6   1  0.3798113E-04  0.4830249E+03  0.7546771E-02  0.9438615E-01
        -11   -1    0    0    0    0  0.00000000000E+00  0.00000000000E+00  0.50000000000E+03  0.50000000000E+03  0.00000000000E+00 0.  1.
         11   -1    0    0    0    0 -0.00000000000E+00 -0.00000000000E+00 -0.50000000000E+03  0.50000000000E+03  0.00000000000E+00 0.  1.
        -11    1    1    2    0    0 -0.20348243041E+01  0.26401630794E+02  0.48528631511E+03  0.48600822447E+03  0.00000000000E+00 0.  1.
         11    1    1    2    0    0  0.76522634640E+01  0.50945213819E+01 -0.48049510987E+03  0.48058304370E+03  0.00000000000E+00 0.  1.
        -15    1    1    2    0    0 -0.68906968158E+01 -0.17415103927E+02 -0.28381338213E+01  0.19025779352E+02  0.17770000000E+01 0. -1.
         15    1    1    2    0    0  0.12732576559E+01 -0.14081048250E+02 -0.19530714198E+01  0.14382952473E+02  0.17770000000E+01 0.  1.
</event>
<event>
 6   1  0.3798113E-04  0.5018598E+03  0.7546771E-02  0.9395658E-01
        -11   -1    0    0    0    0  0.00000000000E+00  0.00000000000E+00  0.50000000000E+03  0.50000000000E+03  0.00000000000E+00 0.  1.
         11   -1    0    0    0    0 -0.00000000000E+00 -0.00000000000E+00 -0.50000000000E+03  0.50000000000E+03  0.00000000000E+00 0. -1.
        -11    1    1    2    0    0 -0.59322262379E+01  0.83512359980E+01  0.44593028355E+03  0.44604792594E+03  0.00000000000E+00 0.  1.
         11    1    1    2    0    0  0.51140610287E+01  0.57357143476E+01 -0.49808096335E+03  0.49814023938E+03  0.00000000000E+00 0. -1.
        -15    1    1    2    0    0 -0.24525448545E+01 -0.11145369350E+02  0.48414452692E+02  0.49772996621E+02  0.17770000000E+01 0.  1.
         15    1    1    2    0    0  0.32707100636E+01 -0.29415809957E+01  0.37362271122E+01  0.60388380595E+01  0.17770000000E+01 0. -1.
</event>
<event>
 6   1  0.3798113E-04  0.5022903E+03  0.7546771E-02  0.9394700E-01
        -11   -1    0    0    0    0  0.00000000000E+00  0.00000000000E+00  0.50000000000E+03  0.50000000000E+03  0.00000000000E+00 0.  1.
         11   -1    0    0    0    0 -0.00000000000E+00 -0.00000000000E+00 -0.50000000000E+03  0.50000000000E+03  0.00000000000E+00 0. -1.
        -11    1    1    2    0    0  0.11115996665E+02  0.40634460255E+01  0.49756899430E+03  0.49770973576E+03  0.00000000000E+00 0.  1.
         11    1    1    2    0    0 -0.18587637552E+02 -0.10389267543E+02 -0.47774663454E+03  0.47822095726E+03  0.00000000000E+00 0. -1.
        -15    1    1    2    0    0 -0.50877333236E+00 -0.10014653138E+00 -0.84872283210E+01  0.86867515910E+01  0.17770000000E+01 0.  1.
         15    1    1    2    0    0  0.79804142184E+01  0.64259680489E+01 -0.11335131447E+02  0.15382555392E+02  0.17770000000E+01 0. -1.
</event>
<event>
 6   1  0.3798113E-04  0.5003148E+03  0.7546771E-02  0.9399106E-01
        -11   -1    0    0    0    0  0.00000000000E+00  0.00000000000E+00  0.50000000000E+03  0.50000000000E+03  0.00000000000E+00 0. -1.
         11   -1    0    0    0    0 -0.00000000000E+00 -0.00000000000E+00 -0.50000000000E+03  0.50000000000E+03  0.00000000000E+00 0.  1.
        -11    1    1    2    0    0  0.31900680121E+01  0.83197575538E+01  0.11944717487E+03  0.11977905695E+03  0.00000000000E+00 0. -1.
         11    1    1    2    0    0  0.84351469569E+01  0.18906908822E+01 -0.49961045257E+03  0.49968523165E+03  0.00000000000E+00 0.  1.
        -15    1    1    2    0    0 -0.12860310386E+01 -0.32528194428E+01  0.12575552878E+03  0.12581671375E+03  0.17770000000E+01 0. -1.
         15    1    1    2    0    0 -0.10339183930E+02 -0.69576289932E+01  0.25440774892E+03  0.25471899765E+03  0.17770000000E+01 0.  1.
</event>
<event>
 6   1  0.3798113E-04  0.5003603E+03  0.7546771E-02  0.9399004E-01
        -11   -1    0    0    0    0  0.00000000000E+00  0.00000000000E+00  0.50000000000E+03  0.50000000000E+03  0.00000000000E+00 0. -1.
         11   -1    0    0    0    0 -0.00000000000E+00 -0.00000000000E+00 -0.50000000000E+03  0.50000000000E+03  0.00000000000E+00 0.  1.
        -11    1    1    2    0    0  0.17317057231E+02  0.28097154573E+02  0.49854844137E+03  0.49963974918E+03  0.00000000000E+00 0. -1.
         11    1    1    2    0    0 -0.59884161674E+01 -0.22326358031E+01 -0.24418525424E+03  0.24426887681E+03  0.00000000000E+00 0.  1.
        -15    1    1    2    0    0 -0.35140976532E+01 -0.40921418084E+01 -0.30079383191E+02  0.30610807390E+02  0.17770000000E+01 0. -1.
         15    1    1    2    0    0 -0.78145434106E+01 -0.21772376962E+02 -0.22428380394E+03  0.22548056663E+03  0.17770000000E+01 0.  1.
</event>
<event>
 6   1  0.3798113E-04  0.4767007E+03  0.7546771E-02  0.9453508E-01
        -11   -1    0    0    0    0  0.00000000000E+00  0.00000000000E+00  0.50000000000E+03  0.50000000000E+03  0.00000000000E+00 0. -1.
         11   -1    0    0    0    0 -0.00000000000E+00 -0.00000000000E+00 -0.50000000000E+03  0.50000000000E+03  0.00000000000E+00 0. -1.
        -11    1    1    2    0    0  0.23471037915E+02  0.46469789562E+00  0.47866814437E+03  0.47924346422E+03  0.00000000000E+00 0. -1.
         11    1    1    2    0    0  0.68351906990E+01  0.45576408963E+01 -0.47459032496E+03  0.47466142509E+03  0.00000000000E+00 0. -1.
        -15    1    1    2    0    0 -0.89985880711E+01  0.49058887486E+01 -0.16456642560E+02  0.19468465400E+02  0.17770000000E+01 0.  1.
         15    1    1    2    0    0 -0.21307640543E+02 -0.99282275406E+01  0.12378823156E+02  0.26626645288E+02  0.17770000000E+01 0. -1.
</event>
<event>
 6   1  0.3798113E-04  0.5024553E+03  0.7546771E-02  0.9394332E-01
        -11   -1    0    0    0    0  0.00000000000E+00  0.00000000000E+00  0.50000000000E+03  0.50000000000E+03  0.00000000000E+00 0.  1.
         11   -1    0    0    0    0 -0.00000000000E+00 -0.00000000000E+00 -0.50000000000E+03  0.50000000000E+03  0.00000000000E+00 0.  1.
        -11    1    1    2    0    0 -0.13125422407E+02 -0.13282324108E+02  0.37889299447E+03  0.37935286754E+03  0.00000000000E+00 0.  1.
         11    1    1    2    0    0  0.83783913922E+01 -0.11469063148E+01 -0.49747278089E+03  0.49754465183E+03  0.00000000000E+00 0.  1.
        -15    1    1    2    0    0  0.91959075022E+01  0.21352017571E+02  0.10034333040E+03  0.10301657660E+03  0.17770000000E+01 0.  1.
         15    1    1    2    0    0 -0.44488764873E+01 -0.69227871485E+01  0.18236456018E+02  0.20085904038E+02  0.17770000000E+01 0. -1.
</event>
<event>
 6   1  0.3798113E-04  0.5114775E+03  0.7546771E-02  0.9374488E-01
        -11   -1    0    0    0    0  0.00000000000E+00  0.00000000000E+00  0.50000000000E+03  0.50000000000E+03  0.00000000000E+00 0.  1.
         11   -1    0    0    0    0 -0.00000000000E+00 -0.00000000000E+00 -0.50000000000E+03  0.50000000000E+03  0.00000000000E+00 0. -1.
        -11    1    1    2    0    0 -0.33735239701E+02 -0.47795700802E+01  0.40717566434E+03  0.40859874243E+03  0.00000000000E+00 0.  1.
         11    1    1    2    0    0 -0.40175875454E+01  0.29469370111E+02 -0.48761633605E+03  0.48852254397E+03  0.00000000000E+00 0. -1.
        -15    1    1    2    0    0  0.32513218309E+02  0.37553348823E+00  0.65576890877E+02  0.73217052223E+02  0.17770000000E+01 0.  1.
         15    1    1    2    0    0  0.52396089371E+01 -0.25065333519E+02  0.14863780834E+02  0.29661661382E+02  0.17770000000E+01 0. -1.
</event>
<event>
 6   1  0.3798113E-04  0.5085460E+03  0.7546771E-02  0.9380888E-01
        -11   -1    0    0    0    0  0.00000000000E+00  0.00000000000E+00  0.50000000000E+03  0.50000000000E+03  0.00000000000E+00 0. -1.
         11   -1    0    0    0    0 -0.00000000000E+00 -0.00000000000E+00 -0.50000000000E+03  0.50000000000E+03  0.00000000000E+00 0. -1.
        -11    1    1    2    0    0 -0.99832980613E+02  0.17493378112E+02  0.16180734567E+03  0.19092998562E+03  0.00000000000E+00 0. -1.
         11    1    1    2    0    0  0.11275847622E+03  0.12628184931E+01 -0.47834193405E+03  0.49145404113E+03  0.00000000000E+00 0. -1.
        -15    1    1    2    0    0 -0.14492977173E+02 -0.17936890918E+02  0.30025122607E+03  0.30114072280E+03  0.17770000000E+01 0. -1.
         15    1    1    2    0    0  0.15674815639E+01 -0.81930568749E+00  0.16283362308E+02  0.16475250448E+02  0.17770000000E+01 0. -1.
</event>
<event>
 6   1  0.3798113E-04  0.5016781E+03  0.7546771E-02  0.9396063E-01
        -11   -1    0    0    0    0  0.00000000000E+00  0.00000000000E+00  0.50000000000E+03  0.50000000000E+03  0.00000000000E+00 0.  1.
         11   -1    0    0    0    0 -0.00000000000E+00 -0.00000000000E+00 -0.50000000000E+03  0.50000000000E+03  0.00000000000E+00 0. -1.
        -11    1    1    2    0    0  0.69443392895E+01 -0.60633480656E+01  0.47898110054E+03  0.47906980986E+03  0.00000000000E+00 0.  1.
         11    1    1    2    0    0 -0.85274323448E+01 -0.40599848270E+01 -0.49823243674E+03  0.49832194573E+03  0.00000000000E+00 0. -1.
        -15    1    1    2    0    0 -0.14327813524E+01  0.45559686039E+01  0.10398901113E+02  0.11580353436E+02  0.17770000000E+01 0.  1.
         15    1    1    2    0    0  0.30158744078E+01  0.55673642887E+01  0.88524350790E+01  0.11027890977E+02  0.17770000000E+01 0. -1.
</event>
<event>
 6   1  0.3798113E-04  0.5018767E+03  0.7546771E-02  0.9395620E-01
        -11   -1    0    0    0    0  0.00000000000E+00  0.00000000000E+00  0.50000000000E+03  0.50000000000E+03  0.00000000000E+00 0.  1.
         11   -1    0    0    0    0 -0.00000000000E+00 -0.00000000000E+00 -0.50000000000E+03  0.50000000000E+03  0.00000000000E+00 0.  1.
        -11    1    1    2    0    0  0.73615136859E+01 -0.11071775417E+02  0.41470151822E+03  0.41491460002E+03  0.00000000000E+00 0.  1.
         11    1    1    2    0    0 -0.62520583771E+01 -0.10880470381E+02 -0.49796517896E+03  0.49812327021E+03  0.00000000000E+00 0.  1.
        -15    1    1    2    0    0 -0.22120350732E+01  0.21299009391E+02  0.62649209931E+02  0.66231579584E+02  0.17770000000E+01 0.  1.
         15    1    1    2    0    0  0.11025797644E+01  0.65323640670E+00  0.20614450806E+02  0.20730550185E+02  0.17770000000E+01 0. -1.
</event>
<event>
 6   1  0.3798113E-04  0.5082399E+03  0.7546771E-02  0.9381559E-01
        -11   -1    0    0    0    0  0.00000000000E+00  0.00000000000E+00  0.50000000000E+03  0.50000000000E+03  0.00000000000E+00 0.  1.
         11   -1    0    0    0    0 -0.00000000000E+00 -0.00000000000E+00 -0.50000000000E+03  0.50000000000E+03  0.00000000000E+00 0.  1.
        -11    1    1    2    0    0 -0.12488096909E+02  0.94436169703E+01 -0.32113933346E+02  0.35727289022E+02  0.00000000000E+00 0.  1.
         11    1    1    2    0    0 -0.12130592690E+02 -0.27164648068E+02 -0.45506135191E+03  0.45603278762E+03  0.00000000000E+00 0.  1.
        -15    1    1    2    0    0  0.87340430938E+01 -0.56364743158E+02  0.31491818115E+03  0.32004669398E+03  0.17770000000E+01 0.  1.
         15    1    1    2    0    0  0.15884646505E+02  0.74085774255E+02  0.17225710410E+03  0.18819322938E+03  0.17770000000E+01 0. -1.
</event>
<event>
 6   1  0.3798113E-04  0.5034239E+03  0.7546771E-02  0.9392181E-01
        -11   -1    0    0    0    0  0.00000000000E+00  0.00000000000E+00  0.50000000000E+03  0.50000000000E+03  0.00000000000E+00 0. -1.
         11   -1    0    0    0    0 -0.00000000000E+00 -0.00000000000E+00 -0.50000000000E+03  0.50000000000E+03  0.00000000000E+00 0.  1.
        -11    1    1    2    0    0  0.48916220104E+02  0.85261172713E+01  0.49408740832E+03  0.49657613548E+03  0.00000000000E+00 0. -1.
         11    1    1    2    0    0  0.50283262347E+01  0.59514209095E+00 -0.32140710094E+03  0.32144698287E+03  0.00000000000E+00 0.  1.
        -15    1    1    2    0    0 -0.30750405436E+01  0.48315653996E+00 -0.29460934930E+02  0.29678169259E+02  0.17770000000E+01 0. -1.
         15    1    1    2    0    0 -0.50869505795E+02 -0.96044159023E+01 -0.14321937245E+03  0.15229871240E+03  0.17770000000E+01 0. -1.
</event>
<event>
 6   1  0.3798113E-04  0.5001375E+03  0.7546771E-02  0.9399502E-01
        -11   -1    0    0    0    0  0.00000000000E+00  0.00000000000E+00  0.50000000000E+03  0.50000000000E+03  0.00000000000E+00 0.  1.
         11   -1    0    0    0    0 -0.00000000000E+00 -0.00000000000E+00 -0.50000000000E+03  0.50000000000E+03  0.00000000000E+00 0.  1.
        -11    1    1    2    0    0 -0.51008233858E+01 -0.82978196162E+01  0.21469632088E+03  0.21491715243E+03  0.00000000000E+00 0.  1.
         11    1    1    2    0    0  0.55823629432E+01  0.46252651816E+01 -0.49980989460E+03  0.49986246768E+03  0.00000000000E+00 0.  1.
        -15    1    1    2    0    0 -0.97837531428E+00  0.50863446924E+01  0.20445014606E+03  0.20452346583E+03  0.17770000000E+01 0.  1.
         15    1    1    2    0    0  0.49683575692E+00 -0.14137902578E+01  0.80663427665E+02  0.80696914069E+02  0.17770000000E+01 0. -1.
</event>
<event>
 6   1  0.3798113E-04  0.5002085E+03  0.7546771E-02  0.9399343E-01
        -11   -1    0    0    0    0  0.00000000000E+00  0.00000000000E+00  0.50000000000E+03  0.50000000000E+03  0.00000000000E+00 0.  1.
         11   -1    0    0    0    0 -0.00000000000E+00 -0.00000000000E+00 -0.50000000000E+03  0.50000000000E+03  0.00000000000E+00 0. -1.
        -11    1    1    2    0    0  0.67111152468E+01 -0.26044541399E+01  0.87387497424E+02  0.87683504465E+02  0.00000000000E+00 0.  1.
         11    1    1    2    0    0 -0.95624578417E+01 -0.93826421913E+01 -0.49961190059E+03  0.49979148231E+03  0.00000000000E+00 0. -1.
        -15    1    1    2    0    0  0.55645014000E+01  0.38824027191E+01  0.18716479280E+03  0.18729616686E+03  0.17770000000E+01 0. -1.
         15    1    1    2    0    0 -0.27131588051E+01  0.81046936121E+01  0.22505961037E+03  0.22522884637E+03  0.17770000000E+01 0.  1.
</event>
<event>
 6   1  0.3798113E-04  0.5090728E+03  0.7546771E-02  0.9379734E-01
        -11   -1    0    0    0    0  0.00000000000E+00  0.00000000000E+00  0.50000000000E+03  0.50000000000E+03  0.00000000000E+00 0. -1.
         11   -1    0    0    0    0 -0.00000000000E+00 -0.00000000000E+00 -0.50000000000E+03  0.50000000000E+03  0.00000000000E+00 0. -1.
        -11    1    1    2    0    0 -0.30642964695E+02  0.93268459334E+02  0.21900301607E+03  0.24000066216E+03  0.00000000000E+00 0. -1.
         11    1    1    2    0    0  0.35180579361E+02 -0.70558945279E+02 -0.48455471343E+03  0.49092719239E+03  0.00000000000E+00 0. -1.
        -15    1    1    2    0    0 -0.15262421466E+02 -0.20393638422E+02  0.10215649817E+03  0.10529933449E+03  0.17770000000E+01 0.  1.
         15    1    1    2    0    0  0.10724806800E+02 -0.23158756328E+01  0.16339519919E+03  0.16377281096E+03  0.17770000000E+01 0. -1.
</event>
<event>
 6   1  0.3798113E-04  0.5010432E+03  0.7546771E-02  0.9397479E-01
        -11   -1    0    0    0    0  0.00000000000E+00  0.00000000000E+00  0.50000000000E+03  0.50000000000E+03  0.00000000000E+00 0. -1.
         11   -1    0    0    0    0 -0.00000000000E+00 -0.00000000000E+00 -0.50000000000E+03  0.50000000000E+03  0.00000000000E+00 0.  1.
        -11    1    1    2    0    0  0.26684911448E+00  0.12961084522E+02  0.49878840174E+03  0.49895684245E+03  0.00000000000E+00 0. -1.
         11    1    1    2    0    0  0.43093138516E+01  0.41769696920E+01 -0.41102435541E+03  0.41106816710E+03  0.00000000000E+00 0.  1.
        -15    1    1    2    0    0 -0.22214611576E+01 -0.19159211999E+01 -0.28909812691E+02  0.29112551289E+02  0.17770000000E+01 0.  1.
         15    1    1    2    0    0 -0.23547018085E+01 -0.15222133014E+02 -0.58854233637E+02  0.60862439157E+02  0.17770000000E+01 0. -1.
</event>
<event>
 6   1  0.3798113E-04  0.5007672E+03  0.7546771E-02  0.9398095E-01
        -11   -1    0    0    0    0  0.00000000000E+00  0.00000000000E+00  0.50000000000E+03  0.50000000000E+03  0.00000000000E+00 0.  1.
         11   -1    0    0    0    0 -0.00000000000E+00 -0.00000000000E+00 -0.50000000000E+03  0.50000000000E+03  0.00000000000E+00 0. -1.
        -11    1    1    2    0    0  0.15160755525E+02 -0.15357072646E+02  0.49876616670E+03  0.49923278862E+03  0.00000000000E+00 0.  1.
         11    1    1    2    0    0 -0.85997005656E+01  0.31304005218E+01 -0.24277449725E+03  0.24294692995E+03  0.00000000000E+00 0. -1.
        -15    1    1    2    0    0  0.88820878111E+01 -0.10250960129E+01 -0.50530592816E+02  0.51346283654E+02  0.17770000000E+01 0.  1.
         15    1    1    2    0    0 -0.15443142770E+02  0.13251768137E+02 -0.20546107663E+03  0.20647399778E+03  0.17770000000E+01 0. -1.
</event>
<event>
 6   1  0.3798113E-04  0.5005910E+03  0.7546771E-02  0.9398488E-01
        -11   -1    0    0    0    0  0.00000000000E+00  0.00000000000E+00  0.50000000000E+03  0.50000000000E+03  0.00000000000E+00 0.  1.
         11   -1    0    0    0    0 -0.00000000000E+00 -0.00000000000E+00 -0.50000000000E+03  0.50000000000E+03  0.00000000000E+00 0.  1.
        -11    1    1    2    0    0 -0.33402190706E+01 -0.11951875971E+02  0.49925478155E+03  0.49940899202E+03  0.00000000000E+00 0.  1.
         11    1    1    2    0    0  0.47277443048E+01  0.70159192837E+01 -0.46699039372E+03  0.46706702144E+03  0.00000000000E+00 0.  1.
        -15    1    1    2    0    0 -0.10994630568E+01 -0.10201432160E+01 -0.44366870649E+01  0.50091348860E+01  0.17770000000E+01 0. -1.
         15    1    1    2    0    0 -0.28806217746E+00  0.59560999036E+01 -0.27827700769E+02  0.28514851656E+02  0.17770000000E+01 0.  1.
</event>
<event>
 6   1  0.3798113E-04  0.5016880E+03  0.7546771E-02  0.9396040E-01
        -11   -1    0    0    0    0  0.00000000000E+00  0.00000000000E+00  0.50000000000E+03  0.50000000000E+03  0.00000000000E+00 0. -1.
         11   -1    0    0    0    0 -0.00000000000E+00 -0.00000000000E+00 -0.50000000000E+03  0.50000000000E+03  0.00000000000E+00 0.  1.
        -11    1    1    2    0    0  0.10854118911E+02 -0.77813065105E+01  0.49813296186E+03  0.49831195884E+03  0.00000000000E+00 0. -1.
         11    1    1    2    0    0 -0.82054966564E+01 -0.24866180646E+01 -0.43564478205E+03  0.43572914703E+03  0.00000000000E+00 0.  1.
        -15    1    1    2    0    0 -0.73069308429E+01  0.58159306441E+01 -0.13468412725E+02  0.16485513578E+02  0.17770000000E+01 0. -1.
         15    1    1    2    0    0  0.46583085886E+01  0.44519939311E+01 -0.49019767086E+02  0.49473380550E+02  0.17770000000E+01 0.  1.
</event>
<event>
 6   1  0.3798113E-04  0.5002929E+03  0.7546771E-02  0.9399154E-01
        -11   -1    0    0    0    0  0.00000000000E+00  0.00000000000E+00  0.50000000000E+03  0.50000000000E+03  0.00000000000E+00 0.  1.
         11   -1    0    0    0    0 -0.00000000000E+00 -0.00000000000E+00 -0.50000000000E+03  0.50000000000E+03  0.00000000000E+00 0. -1.
        -11    1    1    2    0    0 -0.31266858201E+01 -0.87449546249E+01  0.35641381129E+03  0.35653478831E+03  0.00000000000E+00 0.  1.
         11    1    1    2    0    0 -0.70883810826E+01  0.52369917445E+01 -0.49962933644E+03  0.49970705924E+03  0.00000000000E+00 0. -1.
        -15    1    1    2    0    0  0.88303485328E+01  0.43045098013E+01  0.12223785638E+03  0.12264483324E+03  0.17770000000E+01 0.  1.
         15    1    1    2    0    0  0.13847183699E+01 -0.79654692080E+00  0.20977668761E+02  0.21113319200E+02  0.17770000000E+01 0. -1.
</event>
<event>
 6   1  0.3798113E-04  0.4829106E+03  0.7546771E-02  0.9438882E-01
        -11   -1    0    0    0    0  0.00000000000E+00  0.00000000000E+00  0.50000000000E+03  0.50000000000E+03  0.00000000000E+00 0.  1.
         11   -1    0    0    0    0 -0.00000000000E+00 -0.00000000000E+00 -0.50000000000E+03  0.50000000000E+03  0.00000000000E+00 0.  1.
        -11    1    1    2    0    0 -0.16633334724E+02 -0.84261408185E+01  0.48242024815E+03  0.48278045062E+03  0.00000000000E+00 0.  1.
         11    1    1    2    0    0  0.29442358055E+01  0.65118471249E+01 -0.48308705893E+03  0.48313991677E+03  0.00000000000E+00 0.  1.
        -15    1    1    2    0    0  0.15930472811E+01 -0.49433755311E+01 -0.13240573959E+02  0.14333362796E+02  0.17770000000E+01 0. -1.
         15    1    1    2    0    0  0.12096051637E+02  0.68576692248E+01  0.13907384733E+02  0.19746269813E+02  0.17770000000E+01 0.  1.
</event>
<event>
 6   1  0.3798113E-04  0.5006887E+03  0.7546771E-02  0.9398270E-01
        -11   -1    0    0    0    0  0.00000000000E+00  0.00000000000E+00  0.50000000000E+03  0.50000000000E+03  0.00000000000E+00 0.  1.
         11   -1    0    0    0    0 -0.00000000000E+00 -0.00000000000E+00 -0.50000000000E+03  0.50000000000E+03  0.00000000000E+00 0.  1.
        -11    1    1    2    0    0 -0.74793181137E+00  0.11286819661E+02  0.49918318438E+03  0.49931132900E+03  0.00000000000E+00 0.  1.
         11    1    1    2    0    0  0.28316563332E+01 -0.10513807703E+02 -0.39870377348E+03  0.39885242561E+03  0.00000000000E+00 0.  1.
        -15    1    1    2    0    0  0.44855324641E+01  0.35990790717E+01 -0.71385864315E+02  0.71639184282E+02  0.17770000000E+01 0.  1.
         15    1    1    2    0    0 -0.65692569860E+01 -0.43720910304E+01 -0.29093546587E+02  0.30197061104E+02  0.17770000000E+01 0. -1.
</event>
<event>
 6   1  0.3798113E-04  0.5110571E+03  0.7546771E-02  0.9375403E-01
        -11   -1    0    0    0    0  0.00000000000E+00  0.00000000000E+00  0.50000000000E+03  0.50000000000E+03  0.00000000000E+00 0. -1.
         11   -1    0    0    0    0 -0.00000000000E+00 -0.00000000000E+00 -0.50000000000E+03  0.50000000000E+03  0.00000000000E+00 0. -1.
        -11    1    1    2    0    0 -0.29772133403E+02 -0.47871746915E+02  0.38398962733E+03  0.38810580771E+03  0.00000000000E+00 0. -1.
         11    1    1    2    0    0  0.16014509764E+02  0.15763363809E+02 -0.48842627514E+03  0.48894291529E+03  0.00000000000E+00 0. -1.
        -15    1    1    2    0    0  0.22014595968E+02  0.32092813076E+02  0.10720406979E+03  0.11406340954E+03  0.17770000000E+01 0. -1.
         15    1    1    2    0    0 -0.82569723291E+01  0.15570030038E-01 -0.27674219860E+01  0.88878674561E+01  0.17770000000E+01 0.  1.
</event>
<event>
 6   1  0.3798113E-04  0.5003096E+03  0.7546771E-02  0.9399117E-01
        -11   -1    0    0    0    0  0.00000000000E+00  0.00000000000E+00  0.50000000000E+03  0.50000000000E+03  0.00000000000E+00 0.  1.
         11   -1    0    0    0    0 -0.00000000000E+00 -0.00000000000E+00 -0.50000000000E+03  0.50000000000E+03  0.00000000000E+00 0.  1.
        -11    1    1    2    0    0 -0.28675210902E+01 -0.62538476699E+01  0.33151563500E+03  0.33158701654E+03  0.00000000000E+00 0.  1.
         11    1    1    2    0    0 -0.57542455321E+01  0.38797029642E+01 -0.49964225347E+03  0.49969044907E+03  0.00000000000E+00 0.  1.
        -15    1    1    2    0    0  0.26566301125E+01  0.30345958976E+01  0.13084086899E+03  0.13091507622E+03  0.17770000000E+01 0. -1.
         15    1    1    2    0    0  0.59651365097E+01 -0.66045119193E+00  0.37285749486E+02  0.37807458168E+02  0.17770000000E+01 0.  1.
</event>
<event>
 6   1  0.3798113E-04  0.5005361E+03  0.7546771E-02  0.9398611E-01
        -11   -1    0    0    0    0  0.00000000000E+00  0.00000000000E+00  0.50000000000E+03  0.50000000000E+03  0.00000000000E+00 0. -1.
         11   -1    0    0    0    0 -0.00000000000E+00 -0.00000000000E+00 -0.50000000000E+03  0.50000000000E+03  0.00000000000E+00 0. -1.
        -11    1    1    2    0    0 -0.14619578700E+02  0.47897386120E+01  0.49922696250E+03  0.49946394641E+03  0.00000000000E+00 0. -1.
         11    1    1    2    0    0 -0.11504423579E+01 -0.57607661737E+01 -0.33619691846E+03  0.33624823855E+03  0.00000000000E+00 0. -1.
        -15    1    1    2    0    0  0.44170153378E+01  0.10025066532E+01 -0.10599815717E+03  0.10610976438E+03  0.17770000000E+01 0.  1.
         15    1    1    2    0    0  0.11353005720E+02 -0.31479091467E-01 -0.57031886869E+02  0.58178050661E+02  0.17770000000E+01 0. -1.
</event>
<event>
 6   1  0.3798113E-04  0.5002344E+03  0.7546771E-02  0.9399285E-01
        -11   -1    0    0    0    0  0.00000000000E+00  0.00000000000E+00  0.50000000000E+03  0.50000000000E+03  0.00000000000E+00 0.  1.
         11   -1    0    0    0    0 -0.00000000000E+00 -0.00000000000E+00 -0.50000000000E+03  0.50000000000E+03  0.00000000000E+00 0. -1.
        -11    1    1    2    0    0 -0.11339907964E+02  0.39467216142E+01 -0.56603449854E+02  0.57862947207E+02  0.00000000000E+00 0.  1.
         11    1    1    2    0    0 -0.15320811617E+02 -0.17486741316E+00 -0.44163700046E+03  0.44190270198E+03  0.00000000000E+00 0. -1.
        -15    1    1    2    0    0  0.12884819045E+02  0.90787552727E+01  0.79521154974E+02  0.81087694359E+02  0.17770000000E+01 0. -1.
         15    1    1    2    0    0  0.13775900535E+02 -0.12850609474E+02  0.41871929534E+03  0.41914665645E+03  0.17770000000E+01 0.  1.
</event>
<event>
 6   1  0.3798113E-04  0.4869386E+03  0.7546771E-02  0.9429519E-01
        -11   -1    0    0    0    0  0.00000000000E+00  0.00000000000E+00  0.50000000000E+03  0.50000000000E+03  0.00000000000E+00 0.  1.
         11   -1    0    0    0    0 -0.00000000000E+00 -0.00000000000E+00 -0.50000000000E+03  0.50000000000E+03  0.00000000000E+00 0. -1.
        -11    1    1    2    0    0 -0.21332338137E+02 -0.53436611567E+01  0.48924321918E+03  0.48973722635E+03  0.00000000000E+00 0.  1.
         11    1    1    2    0    0  0.10196160640E+02  0.40941158752E+01 -0.48409335254E+03  0.48421802677E+03  0.00000000000E+00 0. -1.
        -15    1    1    2    0    0 -0.52201693349E+01  0.61592527296E+00 -0.75881561458E+01  0.94003922535E+01  0.17770000000E+01 0.  1.
         15    1    1    2    0    0  0.16356346831E+02  0.63362000857E+00  0.24382895127E+01  0.16644354621E+02  0.17770000000E+01 0. -1.
</event>
<event>
 6   1  0.3798113E-04  0.5008618E+03  0.7546771E-02  0.9397883E-01
        -11   -1    0    0    0    0  0.00000000000E+00  0.00000000000E+00  0.50000000000E+03  0.50000000000E+03  0.00000000000E+00 0. -1.
         11   -1    0    0    0    0 -0.00000000000E+00 -0.00000000000E+00 -0.50000000000E+03  0.50000000000E+03  0.00000000000E+00 0.  1.
        -11    1    1    2    0    0  0.89690586861E+01 -0.10175261206E+02  0.34353971201E+03  0.34380737875E+03  0.00000000000E+00 0. -1.
         11    1    1    2    0    0  0.73205015051E+01 -0.19650339644E+01 -0.49908061353E+03  0.49913816715E+03  0.00000000000E+00 0.  1.
        -15    1    1    2    0    0 -0.31245491447E+01  0.45930831820E+01  0.27951516244E+02  0.28553532353E+02  0.17770000000E+01 0.  1.
         15    1    1    2    0    0 -0.13165011046E+02  0.75472119888E+01  0.12758938528E+03  0.12850092174E+03  0.17770000000E+01 0. -1.
</event>
<event>
 6   1  0.3798113E-04  0.4905270E+03  0.7546771E-02  0.9421259E-01
        -11   -1    0    0    0    0  0.00000000000E+00  0.00000000000E+00  0.50000000000E+03  0.50000000000E+03  0.00000000000E+00 0. -1.
         11   -1    0    0    0    0 -0.00000000000E+00 -0.00000000000E+00 -0.50000000000E+03  0.50000000000E+03  0.00000000000E+00 0. -1.
        -11    1    1    2    0    0  0.97423280956E+01  0.39031970405E+01  0.48873539299E+03  0.48884806665E+03  0.00000000000E+00 0. -1.
         11    1    1    2    0    0 -0.62363677326E+00  0.68745444420E+01 -0.49226536980E+03  0.49231376437E+03  0.00000000000E+00 0. -1.
        -15    1    1    2    0    0 -0.10402598073E+02 -0.39117992063E+01  0.27696686527E+01  0.11590729620E+02  0.17770000000E+01 0.  1.
         15    1    1    2    0    0  0.12839067503E+01 -0.68659422762E+01  0.76030815301E+00  0.72474393665E+01  0.17770000000E+01 0. -1.
</event>
<event>
 6   1  0.3798113E-04  0.5133033E+03  0.7546771E-02  0.9370525E-01
        -11   -1    0    0    0    0  0.00000000000E+00  0.00000000000E+00  0.50000000000E+03  0.50000000000E+03  0.00000000000E+00 0. -1.
         11   -1    0    0    0    0 -0.00000000000E+00 -0.00000000000E+00 -0.50000000000E+03  0.50000000000E+03  0.00000000000E+00 0.  1.
        -11    1    1    2    0    0  0.46834203184E+02  0.10265317633E+02  0.43607109303E+03  0.43869900559E+03  0.00000000000E+00 0. -1.
         11    1    1    2    0    0 -0.15533869831E+02 -0.89434895613E+01 -0.48636655848E+03  0.48669673959E+03  0.00000000000E+00 0.  1.
        -15    1    1    2    0    0 -0.19299915453E+02 -0.65005137413E+01 -0.21221568977E+01  0.20552486329E+02  0.17770000000E+01 0.  1.
         15    1    1    2    0    0 -0.12000417900E+02  0.51786856696E+01  0.52417622350E+02  0.54051768489E+02  0.17770000000E+01 0. -1.
</event>
<event>
 6   1  0.3798113E-04  0.5070810E+03  0.7546771E-02  0.9384103E-01
        -11   -1    0    0    0    0  0.00000000000E+00  0.00000000000E+00  0.50000000000E+03  0.50000000000E+03  0.00000000000E+00 0. -1.
         11   -1    0    0    0    0 -0.00000000000E+00 -0.00000000000E+00 -0.50000000000E+03  0.50000000000E+03  0.00000000000E+00 0.  1.
        -11    1    1    2    0    0 -0.22820275065E+02 -0.94149333767E+01  0.45232261491E+03  0.45299575482E+03  0.00000000000E+00 0. -1.
         11    1    1    2    0    0 -0.58112856440E+01 -0.75773770250E+01 -0.49282647185E+03  0.49291897817E+03  0.00000000000E+00 0.  1.
        -15    1    1    2    0    0  0.13679383426E+02  0.32067644181E+01  0.23855671678E+02  0.27742740838E+02  0.17770000000E+01 0.  1.
         15    1    1    2    0    0  0.14952177283E+02  0.13785545984E+02  0.16648185260E+02  0.26342526170E+02  0.17770000000E+01 0. -1.
</event>
<event>
 6   1  0.3798113E-04  0.5002520E+03  0.7546771E-02  0.9399246E-01
        -11   -1    0    0    0    0  0.00000000000E+00  0.00000000000E+00  0.50000000000E+03  0.50000000000E+03  0.00000000000E+00 0.  1.
         11   -1    0    0    0    0 -0.00000000000E+00 -0.00000000000E+00 -0.50000000000E+03  0.50000000000E+03  0.00000000000E+00 0. -1.
        -11    1    1    2    0    0 -0.23807210051E+02 -0.23728323206E+00  0.27111573546E+03  0.27215911076E+03  0.00000000000E+00 0.  1.
         11    1    1    2    0    0  0.28254762770E+02 -0.69526894820E+01 -0.49890022559E+03  0.49974804312E+03  0.00000000000E+00 0. -1.
        -15    1    1    2    0    0 -0.43856690759E+00  0.27333130475E+01  0.25441801989E+02  0.25653583738E+02  0.17770000000E+01 0. -1.
         15    1    1    2    0    0 -0.40089858105E+01  0.44566596666E+01  0.20234268814E+03  0.20243926238E+03  0.17770000000E+01 0. -1.
</event>
<event>
 6   1  0.3798113E-04  0.5008355E+03  0.7546771E-02  0.9397942E-01
        -11   -1    0    0    0    0  0.00000000000E+00  0.00000000000E+00  0.50000000000E+03  0.50000000000E+03  0.00000000000E+00 0.  1.
         11   -1    0    0    0    0 -0.00000000000E+00 -0.00000000000E+00 -0.50000000000E+03  0.50000000000E+03  0.00000000000E+00 0. -1.
        -11    1    1    2    0    0  0.34462876372E+01  0.57788145554E+01  0.46671965033E+03  0.46676814759E+03  0.00000000000E+00 0.  1.
         11    1    1    2    0    0 -0.90344105135E+01 -0.18676106662E+01 -0.49907928955E+03  0.49916454782E+03  0.00000000000E+00 0. -1.
        -15    1    1    2    0    0 -0.33481357302E+00 -0.38714734700E+01  0.16511339898E+02  0.17055277224E+02  0.17770000000E+01 0. -1.
         15    1    1    2    0    0  0.59229364493E+01 -0.39730419282E-01  0.15848299323E+02  0.17012027366E+02  0.17770000000E+01 0.  1.
</event>
<event>
 6   1  0.3798113E-04  0.5019721E+03  0.7546771E-02  0.9395408E-01
        -11   -1    0    0    0    0  0.00000000000E+00  0.00000000000E+00  0.50000000000E+03  0.50000000000E+03  0.00000000000E+00 0.  1.
         11   -1    0    0    0    0 -0.00000000000E+00 -0.00000000000E+00 -0.50000000000E+03  0.50000000000E+03  0.00000000000E+00 0. -1.
        -11    1    1    2    0    0  0.17125684701E+02 -0.23542754453E+02  0.49717625927E+03  0.49802789394E+03  0.00000000000E+00 0.  1.
         11    1    1    2    0    0 -0.33006295300E-01 -0.50642054903E+01 -0.36728393916E+03  0.36731885227E+03  0.00000000000E+00 0. -1.
        -15    1    1    2    0    0 -0.14706090034E+02  0.24835591653E+02 -0.12227284334E+03  0.12564585805E+03  0.17770000000E+01 0.  1.
         15    1    1    2    0    0 -0.23865883714E+01  0.37713682904E+01 -0.76194767643E+01  0.90073957390E+01  0.17770000000E+01 0.  1.
</event>
<event>
 6   1  0.3798113E-04  0.5030148E+03  0.7546771E-02  0.9393089E-01
        -11   -1    0    0    0    0  0.00000000000E+00  0.00000000000E+00  0.50000000000E+03  0.50000000000E+03  0.00000000000E+00 0.  1.
         11   -1    0    0    0    0 -0.00000000000E+00 -0.00000000000E+00 -0.50000000000E+03  0.50000000000E+03  0.00000000000E+00 0.  1.
        -11    1    1    2    0    0 -0.36492929555E+01  0.22034739063E+02  0.49648308498E+03  0.49698521178E+03  0.00000000000E+00 0.  1.
         11    1    1    2    0    0  0.16813885459E+02  0.30416277133E+01 -0.41339683486E+03  0.41374980522E+03  0.00000000000E+00 0.  1.
        -15    1    1    2    0    0 -0.55208640701E+01  0.48240938967E+00 -0.12629715418E+02  0.13906117339E+02  0.17770000000E+01 0. -1.
         15    1    1    2    0    0 -0.76437284333E+01 -0.25558776165E+02 -0.70456534696E+02  0.75358865662E+02  0.17770000000E+01 0.  1.
</event>
<event>
 6   1  0.3798113E-04  0.5016729E+03  0.7546771E-02  0.9396074E-01
        -11   -1    0    0    0    0  0.00000000000E+00  0.00000000000E+00  0.50000000000E+03  0.50000000000E+03  0.00000000000E+00 0. -1.
         11   -1    0    0    0    0 -0.00000000000E+00 -0.00000000000E+00 -0.50000000000E+03  0.50000000000E+03  0.00000000000E+00 0.  1.
        -11    1    1    2    0    0  0.17564260538E+00 -0.16031931759E+02  0.43331182773E+03  0.43360834140E+03  0.00000000000E+00 0. -1.
         11    1    1    2    0    0 -0.99770929813E+01  0.14280933152E+01 -0.49822512285E+03  0.49832705614E+03  0.00000000000E+00 0.  1.
        -15    1    1    2    0    0  0.82281991442E+01  0.84667101567E+01  0.26147863645E+02  0.28744685496E+02  0.17770000000E+01 0.  1.
         15    1    1    2    0    0  0.15732512317E+01  0.61371282873E+01  0.38765431483E+02  0.39319916965E+02  0.17770000000E+01 0. -1.
</event>
<event>
 6   1  0.3798113E-04  0.5054279E+03  0.7546771E-02  0.9387746E-01
        -11   -1    0    0    0    0  0.00000000000E+00  0.00000000000E+00  0.50000000000E+03  0.50000000000E+03  0.00000000000E+00 0. -1.
         11   -1    0    0    0    0 -0.00000000000E+00 -0.00000000000E+00 -0.50000000000E+03  0.50000000000E+03  0.00000000000E+00 0. -1.
        -11    1    1    2    0    0  0.18832978663E+02 -0.28936465914E+02  0.49336557634E+03  0.49457213029E+03  0.00000000000E+00 0. -1.
         11    1    1    2    0    0 -0.57292279469E+01 -0.32201446003E+01 -0.43626063628E+03  0.43631013758E+03  0.00000000000E+00 0. -1.
        -15    1    1    2    0    0 -0.16220193885E+01  0.14438885093E+02 -0.10784907523E+02  0.18181977585E+02  0.17770000000E+01 0. -1.
         15    1    1    2    0    0 -0.11481731328E+02  0.17717725421E+02 -0.46320032534E+02  0.50935754548E+02  0.17770000000E+01 0.  1.
</event>
<event>
 6   1  0.3798113E-04  0.5100884E+03  0.7546771E-02  0.9377515E-01
        -11   -1    0    0    0    0  0.00000000000E+00  0.00000000000E+00  0.50000000000E+03  0.50000000000E+03  0.00000000000E+00 0. -1.
         11   -1    0    0    0    0 -0.00000000000E+00 -0.00000000000E+00 -0.50000000000E+03  0.50000000000E+03  0.00000000000E+00 0. -1.
        -11    1    1    2    0    0 -0.22576251914E+02 -0.16600474632E+02  0.43740327895E+03  0.43830000153E+03  0.00000000000E+00 0. -1.
         11    1    1    2    0    0 -0.11085657309E+02  0.26684543857E+02 -0.48905870753E+03  0.48991160028E+03  0.00000000000E+00 0. -1.
        -15    1    1    2    0    0  0.26189385779E+02  0.47909842579E+00  0.52502137511E+02  0.58700473891E+02  0.17770000000E+01 0.  1.
         15    1    1    2    0    0  0.74725234438E+01 -0.10563167651E+02 -0.84670893334E+00  0.13087924299E+02  0.17770000000E+01 0. -1.
</event>
<event>
 6   1  0.3798113E-04  0.5001756E+03  0.7546771E-02  0.9399417E-01
        -11   -1    0    0    0    0  0.00000000000E+00  0.00000000000E+00  0.50000000000E+03  0.50000000000E+03  0.00000000000E+00 0. -1.
         11   -1    0    0    0    0 -0.00000000000E+00 -0.00000000000E+00 -0.50000000000E+03  0.50000000000E+03  0.00000000000E+00 0.  1.
        -11    1    1    2    0    0 -0.44038770046E+01  0.31145302296E+01  0.37354778789E+02  0.37742203560E+02  0.00000000000E+00 0. -1.
         11    1    1    2    0    0  0.91581407112E+01 -0.40081954878E+01 -0.49972440303E+03  0.49982438531E+03  0.00000000000E+00 0.  1.
        -15    1    1    2    0    0 -0.52610773285E+01  0.14678702557E+01  0.35001552135E+03  0.35006264652E+03  0.17770000000E+01 0. -1.
         15    1    1    2    0    0  0.50681362186E+00 -0.57420499747E+00  0.11235410289E+03  0.11237076460E+03  0.17770000000E+01 0.  1.
</event>
<event>
 6   1  0.3798113E-04  0.5047643E+03  0.7546771E-02  0.9389212E-01
        -11   -1    0    0    0    0  0.00000000000E+00  0.00000000000E+00  0.50000000000E+03  0.50000000000E+03  0.00000000000E+00 0.  1.
         11   -1    0    0    0    0 -0.00000000000E+00 -0.00000000000E+00 -0.50000000000E+03  0.50000000000E+03  0.00000000000E+00 0.  1.
        -11    1    1    2    0    0 -0.20805696638E+01 -0.73825906410E+01  0.49517629716E+03  0.49523569811E+03  0.00000000000E+00 0.  1.
         11    1    1    2    0    0 -0.33302012623E+01  0.59877647051E+01 -0.49159626231E+03  0.49164400605E+03  0.00000000000E+00 0.  1.
        -15    1    1    2    0    0  0.15872354028E+00  0.38378345799E+01  0.21797268989E+01  0.47605783030E+01  0.17770000000E+01 0. -1.
         15    1    1    2    0    0  0.52520473858E+01 -0.24430086439E+01 -0.57597617441E+01  0.83597175386E+01  0.17770000000E+01 0.  1.
</event>
<event>
 6   1  0.3798113E-04  0.5024405E+03  0.7546771E-02  0.9394365E-01
        -11   -1    0    0    0    0  0.00000000000E+00  0.00000000000E+00  0.50000000000E+03  0.50000000000E+03  0.00000000000E+00 0. -1.
         11   -1    0    0    0    0 -0.00000000000E+00 -0.00000000000E+00 -0.50000000000E+03  0.50000000000E+03  0.00000000000E+00 0. -1.
        -11    1    1    2    0    0 -0.21763024329E+02 -0.15883878285E+02  0.26303895062E+03  0.26441523474E+03  0.00000000000E+00 0. -1.
         11    1    1    2    0    0  0.13860762760E+02 -0.47061983411E+01 -0.49734416927E+03  0.49755953589E+03  0.00000000000E+00 0. -1.
        -15    1    1    2    0    0  0.11403708415E+02 -0.73430137845E+01  0.80834731000E+02  0.81983997718E+02  0.17770000000E+01 0. -1.
         15    1    1    2    0    0 -0.35014468463E+01  0.27933090411E+02  0.15347048765E+03  0.15604123166E+03  0.17770000000E+01 0.  1.
</event>
<event>
 6   1  0.3798113E-04  0.5005752E+03  0.7546771E-02  0.9398524E-01
        -11   -1    0    0    0    0  0.00000000000E+00  0.00000000000E+00  0.50000000000E+03  0.50000000000E+03  0.00000000000E+00 0. -1.
         11   -1    0    0    0    0 -0.00000000000E+00 -0.00000000000E+00 -0.50000000000E+03  0.50000000000E+03  0.00000000000E+00 0.  1.
        -11    1    1    2    0    0 -0.82987566213E+01 -0.20829562744E+02  0.49892122403E+03  0.49942479698E+03  0.00000000000E+00 0. -1.
         11    1    1    2    0    0  0.32418009157E+01 -0.20474880405E+01 -0.17010519978E+03  0.17014840720E+03  0.00000000000E+00 0.  1.
        -15    1    1    2    0    0  0.53504895737E+01  0.24179291658E+02 -0.19272824502E+03  0.19432086878E+03  0.17770000000E+01 0. -1.
         15    1    1    2    0    0 -0.29353386806E+00 -0.13022408739E+01 -0.13608777923E+03  0.13610592705E+03  0.17770000000E+01 0.  1.
</event>
<event>
 6   1  0.3798113E-04  0.4232446E+03  0.7546771E-02  0.9590109E-01
        -11   -1    0    0    0    0  0.00000000000E+00  0.00000000000E+00  0.50000000000E+03  0.50000000000E+03  0.00000000000E+00 0. -1.
         11   -1    0    0    0    0 -0.00000000000E+00 -0.00000000000E+00 -0.50000000000E+03  0.50000000000E+03  0.00000000000E+00 0. -1.
        -11    1    1    2    0    0 -0.10922455169E+03  0.95112305997E+02  0.11594141665E+03  0.18552295152E+03  0.00000000000E+00 0. -1.
         11    1    1    2    0    0  0.15822813116E+01  0.98967533199E+01 -0.41862842892E+03  0.41874838608E+03  0.00000000000E+00 0. -1.
        -15    1    1    2    0    0 -0.44681309929E+02 -0.18049539663E+02  0.27917532553E+01  0.48302763423E+02  0.17770000000E+01 0.  1.
         15    1    1    2    0    0  0.15232358031E+03 -0.86959519654E+02  0.29989525901E+03  0.34742589898E+03  0.17770000000E+01 0. -1.
</event>
<event>
 6   1  0.3798113E-04  0.5012749E+03  0.7546771E-02  0.9396962E-01
        -11   -1    0    0    0    0  0.00000000000E+00  0.00000000000E+00  0.50000000000E+03  0.50000000000E+03  0.00000000000E+00 0. -1.
         11   -1    0    0    0    0 -0.00000000000E+00 -0.00000000000E+00 -0.50000000000E+03  0.50000000000E+03  0.00000000000E+00 0.  1.
        -11    1    1    2    0    0  0.22400437280E+02  0.62252659110E+01  0.34789587033E+03  0.34867186597E+03  0.00000000000E+00 0. -1.
         11    1    1    2    0    0 -0.27910942936E+01 -0.96040144751E+01 -0.49862480557E+03  0.49872509865E+03  0.00000000000E+00 0.  1.
        -15    1    1    2    0    0 -0.11306266400E+02  0.61922027838E+01  0.11650355301E+03  0.11722802834E+03  0.17770000000E+01 0. -1.
         15    1    1    2    0    0 -0.83030765862E+01 -0.28134542197E+01  0.34225382232E+02  0.35375007044E+02  0.17770000000E+01 0.  1.
</event>
<event>
 6   1  0.3798113E-04  0.4828588E+03  0.7546771E-02  0.9439003E-01
        -11   -1    0    0    0    0  0.00000000000E+00  0.00000000000E+00  0.50000000000E+03  0.50000000000E+03  0.00000000000E+00 0.  1.
         11   -1    0    0    0    0 -0.00000000000E+00 -0.00000000000E+00 -0.50000000000E+03  0.50000000000E+03  0.00000000000E+00 0. -1.
        -11    1    1    2    0    0  0.27991411244E+02  0.13060245891E+02  0.47840732618E+03  0.47940344061E+03  0.00000000000E+00 0.  1.
         11    1    1    2    0    0 -0.10007296295E+02 -0.93221873252E+01 -0.48632897097E+03  0.48652124019E+03  0.00000000000E+00 0. -1.
        -15    1    1    2    0    0 -0.12022081151E+02 -0.15348918277E+02  0.21546456108E+01  0.19695683644E+02  0.17770000000E+01 0. -1.
         15    1    1    2    0    0 -0.59620337986E+01  0.11610859712E+02  0.57669991741E+01  0.14379635556E+02  0.17770000000E+01 0.  1.
</event>
<event>
 6   1  0.3798113E-04  0.5017711E+03  0.7546771E-02  0.9395855E-01
        -11   -1    0    0    0    0  0.00000000000E+00  0.00000000000E+00  0.50000000000E+03  0.50000000000E+03  0.00000000000E+00 0.  1.
         11   -1    0    0    0    0 -0.00000000000E+00 -0.00000000000E+00 -0.50000000000E+03  0.50000000000E+03  0.00000000000E+00 0.  1.
        -11    1    1    2    0    0  0.66348657485E+01  0.10313554477E+02  0.46842621556E+03  0.46858671585E+03  0.00000000000E+00 0.  1.
         11    1    1    2    0    0 -0.78061691330E+00 -0.68987276915E+01 -0.49818054512E+03  0.49822892062E+03  0.00000000000E+00 0.  1.
        -15    1    1    2    0    0 -0.39675255770E+01 -0.81176493063E+01  0.16735842779E+02  0.19101927965E+02  0.17770000000E+01 0. -1.
         15    1    1    2    0    0 -0.18867232582E+01  0.47028225210E+01  0.13018486785E+02  0.14082435567E+02  0.17770000000E+01 0.  1.
</event>
<event>
 6   1  0.3798113E-04  0.5014781E+03  0.7546771E-02  0.9396508E-01
        -11   -1    0    0    0    0  0.00000000000E+00  0.00000000000E+00  0.50000000000E+03  0.50000000000E+03  0.00000000000E+00 0. -1.
         11   -1    0    0    0    0 -0.00000000000E+00 -0.00000000000E+00 -0.50000000000E+03  0.50000000000E+03  0.00000000000E+00 0. -1.
        -11    1    1    2    0    0  0.15659248781E+02  0.11984659805E+02  0.31186646386E+03  0.31248925649E+03  0.00000000000E+00 0. -1.
         11    1    1    2    0    0  0.71324683292E+01  0.34659211058E+01 -0.49845884352E+03  0.49852191868E+03  0.00000000000E+00 0. -1.
        -15    1    1    2    0    0 -0.21834522492E+02 -0.13305475433E+02  0.17932203507E+03  0.18114450596E+03  0.17770000000E+01 0. -1.
         15    1    1    2    0    0 -0.95719461820E+00 -0.21451054775E+01  0.72703445936E+01  0.78443188715E+01  0.17770000000E+01 0.  1.
</event>
<event>
 6   1  0.3798113E-04  0.5033225E+03  0.7546771E-02  0.9392406E-01
        -11   -1    0    0    0    0  0.00000000000E+00  0.00000000000E+00  0.50000000000E+03  0.50000000000E+03  0.00000000000E+00 0. -1.
         11   -1    0    0    0    0 -0.00000000000E+00 -0.00000000000E+00 -0.50000000000E+03  0.50000000000E+03  0.00000000000E+00 0.  1.
        -11    1    1    2    0    0  0.11466105030E+02 -0.80461292666E+01  0.47807433551E+03  0.47827950200E+03  0.00000000000E+00 0. -1.
         11    1    1    2    0    0  0.33465348531E+01  0.14022932134E+02 -0.49646822141E+03  0.49667749777E+03  0.00000000000E+00 0.  1.
        -15    1    1    2    0    0 -0.10865080520E+02 -0.43318883523E+01  0.10154127161E+02  0.15590999288E+02  0.17770000000E+01 0. -1.
         15    1    1    2    0    0 -0.39475593633E+01 -0.16449145154E+01  0.82397587406E+01  0.94520009413E+01  0.17770000000E+01 0.  1.
</event>
<event>
 6   1  0.3798113E-04  0.5040607E+03  0.7546771E-02  0.9390769E-01
        -11   -1    0    0    0    0  0.00000000000E+00  0.00000000000E+00  0.50000000000E+03  0.50000000000E+03  0.00000000000E+00 0.  1.
         11   -1    0    0    0    0 -0.00000000000E+00 -0.00000000000E+00 -0.50000000000E+03  0.50000000000E+03  0.00000000000E+00 0.  1.
        -11    1    1    2    0    0  0.69741043830E+01  0.11676200223E+02  0.49575274804E+03  0.49593926944E+03  0.00000000000E+00 0.  1.
         11    1    1    2    0    0  0.72775880911E+01  0.15877613661E+01 -0.47275608427E+03  0.47281476234E+03  0.00000000000E+00 0.  1.
        -15    1    1    2    0    0 -0.72595547509E+01 -0.21656201615E+01 -0.68494602679E+01  0.10366478709E+02  0.17770000000E+01 0.  1.
         15    1    1    2    0    0 -0.69921377232E+01 -0.11098341427E+02 -0.16147203505E+02  0.20879489515E+02  0.17770000000E+01 0. -1.
</event>
<event>
 6   1  0.3798113E-04  0.5063578E+03  0.7546771E-02  0.9385695E-01
        -11   -1    0    0    0    0  0.00000000000E+00  0.00000000000E+00  0.50000000000E+03  0.50000000000E+03  0.00000000000E+00 0.  1.
         11   -1    0    0    0    0 -0.00000000000E+00 -0.00000000000E+00 -0.50000000000E+03  0.50000000000E+03  0.00000000000E+00 0. -1.
        -11    1    1    2    0    0  0.13161065165E+02  0.35555108770E+01  0.48497087656E+03  0.48516245363E+03  0.00000000000E+00 0.  1.
         11    1    1    2    0    0 -0.45714773212E+01  0.57055275393E+01 -0.49358800930E+03  0.49364215215E+03  0.00000000000E+00 0. -1.
        -15    1    1    2    0    0 -0.84910224554E+01  0.21986946304E+00  0.75272494945E+01  0.11487515783E+02  0.17770000000E+01 0. -1.
         15    1    1    2    0    0 -0.98565388113E-01 -0.94809078794E+01  0.10898832479E+01  0.97078784421E+01  0.17770000000E+01 0.  1.
</event>
<event>
 6   1  0.3798113E-04  0.5018186E+03  0.7546771E-02  0.9395750E-01
        -11   -1    0    0    0    0  0.00000000000E+00  0.00000000000E+00  0.50000000000E+03  0.50000000000E+03  0.00000000000E+00 0. -1.
         11   -1    0    0    0    0 -0.00000000000E+00 -0.00000000000E+00 -0.50000000000E+03  0.50000000000E+03  0.00000000000E+00 0.  1.
        -11    1    1    2    0    0 -0.37330109763E+01 -0.55872679877E+01  0.45058994097E+03  0.45064004242E+03  0.00000000000E+00 0. -1.
         11    1    1    2    0    0  0.11725513169E+02 -0.73027350528E+01 -0.49798982373E+03  0.49818137474E+03  0.00000000000E+00 0.  1.
        -15    1    1    2    0    0  0.27419848042E+01  0.23978587059E+01  0.12657201219E+02  0.13290247505E+02  0.17770000000E+01 0. -1.
         15    1    1    2    0    0 -0.10734486997E+02  0.10492144335E+02  0.34742681549E+02  0.37888335330E+02  0.17770000000E+01 0.  1.
</event>
<event>
 6   1  0.3798113E-04  0.5075260E+03  0.7546771E-02  0.9383126E-01
        -11   -1    0    0    0    0  0.00000000000E+00  0.00000000000E+00  0.50000000000E+03  0.50000000000E+03  0.00000000000E+00 0.  1.
         11   -1    0    0    0    0 -0.00000000000E+00 -0.00000000000E+00 -0.50000000000E+03  0.50000000000E+03  0.00000000000E+00 0. -1.
        -11    1    1    2    0    0 -0.21314478371E+02  0.25018492218E+02  0.44120119001E+03  0.44242369061E+03  0.00000000000E+00 0.  1.
         11    1    1    2    0    0  0.45169633593E+01 -0.66617938868E+01 -0.49240826245E+03  0.49247403930E+03  0.00000000000E+00 0. -1.
        -15    1    1    2    0    0 -0.41011119773E+01 -0.61044291092E+01 -0.89267628369E+00  0.76182526964E+01  0.17770000000E+01 0. -1.
         15    1    1    2    0    0  0.20898626989E+02 -0.12252269222E+02  0.52099748717E+02  0.57484017401E+02  0.17770000000E+01 0.  1.
</event>
<event>
 6   1  0.3798113E-04  0.5003636E+03  0.7546771E-02  0.9398996E-01
        -11   -1    0    0    0    0  0.00000000000E+00  0.00000000000E+00  0.50000000000E+03  0.50000000000E+03  0.00000000000E+00 0.  1.
         11   -1    0    0    0    0 -0.00000000000E+00 -0.00000000000E+00 -0.50000000000E+03  0.50000000000E+03  0.00000000000E+00 0. -1.
        -11    1    1    2    0    0  0.13038331842E+02 -0.76058551253E+01  0.13974642522E+03  0.14055927750E+03  0.00000000000E+00 0.  1.
         11    1    1    2    0    0 -0.89702470955E+01  0.87056103942E+01 -0.49947996771E+03  0.49963635889E+03  0.00000000000E+00 0. -1.
        -15    1    1    2    0    0 -0.34749796587E+01 -0.26254302399E+01  0.24967333008E+03  0.24971763624E+03  0.17770000000E+01 0.  1.
         15    1    1    2    0    0 -0.59310508733E+00  0.15256749709E+01  0.11006021241E+03  0.11008672737E+03  0.17770000000E+01 0. -1.
</event>
<event>
 6   1  0.3798113E-04  0.5005303E+03  0.7546771E-02  0.9398624E-01
        -11   -1    0    0    0    0  0.00000000000E+00  0.00000000000E+00  0.50000000000E+03  0.50000000000E+03  0.00000000000E+00 0.  1.
         11   -1    0    0    0    0 -0.00000000000E+00 -0.00000000000E+00 -0.50000000000E+03  0.50000000000E+03  0.00000000000E+00 0.  1.
        -11    1    1    2    0    0 -0.20915529540E+01  0.86426145749E+01  0.41647867325E+03  0.41657358852E+03  0.00000000000E+00 0.  1.
         11    1    1    2    0    0 -0.72438095457E+01 -0.26991095480E+01 -0.49940989478E+03  0.49946971978E+03  0.00000000000E+00 0.  1.
        -15    1    1    2    0    0  0.20126887479E+01 -0.10157285746E+00  0.84293828953E+01  0.88472288338E+01  0.17770000000E+01 0. -1.
         15    1    1    2    0    0  0.73226737518E+01 -0.58419321694E+01  0.74501838639E+02  0.75109462866E+02  0.17770000000E+01 0.  1.
</event>
<event>
 6   1  0.3798113E-04  0.5004690E+03  0.7546771E-02  0.9398761E-01
        -11   -1    0    0    0    0  0.00000000000E+00  0.00000000000E+00  0.50000000000E+03  0.50000000000E+03  0.00000000000E+00 0.  1.
         11   -1    0    0    0    0 -0.00000000000E+00 -0.00000000000E+00 -0.50000000000E+03  0.50000000000E+03  0.00000000000E+00 0. -1.
        -11    1    1    2    0    0  0.18737379417E+01 -0.12683536870E+02  0.49936647626E+03  0.49953104070E+03  0.00000000000E+00 0.  1.
         11    1    1    2    0    0 -0.32716123392E+01  0.58014163497E-01 -0.11731117984E+03  0.11735680520E+03  0.00000000000E+00 0. -1.
        -15    1    1    2    0    0 -0.24539212709E+01  0.85044891602E+01 -0.40017800838E+02  0.41023532007E+02  0.17770000000E+01 0.  1.
         15    1    1    2    0    0  0.38517956685E+01  0.41210335461E+01 -0.34203749559E+03  0.34208862209E+03  0.17770000000E+01 0. -1.
</event>
<event>
 6   1  0.3798113E-04  0.5131268E+03  0.7546771E-02  0.9370907E-01
        -11   -1    0    0    0    0  0.00000000000E+00  0.00000000000E+00  0.50000000000E+03  0.50000000000E+03  0.00000000000E+00 0. -1.
         11   -1    0    0    0    0 -0.00000000000E+00 -0.00000000000E+00 -0.50000000000E+03  0.50000000000E+03  0.00000000000E+00 0.  1.
        -11    1    1    2    0    0 -0.37378115442E+02 -0.58706108455E+02  0.64709878563E+02  0.95031042652E+02  0.00000000000E+00 0. -1.
         11    1    1    2    0    0  0.22890167276E+02  0.63497440852E+02 -0.48217174825E+03  0.48687316579E+03  0.00000000000E+00 0.  1.
        -15    1    1    2    0    0 -0.15417991930E+01  0.40026228722E+01  0.81898376103E+02  0.82029871826E+02  0.17770000000E+01 0.  1.
         15    1    1    2    0    0  0.16029747359E+02 -0.87939552696E+01  0.33556349359E+03  0.33606591973E+03  0.17770000000E+01 0. -1.
</event>
<event>
 6   1  0.3798113E-04  0.5027664E+03  0.7546771E-02  0.9393641E-01
        -11   -1    0    0    0    0  0.00000000000E+00  0.00000000000E+00  0.50000000000E+03  0.50000000000E+03  0.00000000000E+00 0.  1.
         11   -1    0    0    0    0 -0.00000000000E+00 -0.00000000000E+00 -0.50000000000E+03  0.50000000000E+03  0.00000000000E+00 0.  1.
        -11    1    1    2    0    0  0.10998435915E+02  0.83773305185E+01  0.49704135672E+03  0.49723360260E+03  0.00000000000E+00 0.  1.
         11    1    1    2    0    0  0.16600509664E+01 -0.51949536511E+01 -0.39743871343E+03  0.39747613041E+03  0.00000000000E+00 0.  1.
        -15    1    1    2    0    0 -0.72791269782E+01  0.10020842144E+01 -0.97703654864E+02  0.97995672175E+02  0.17770000000E+01 0.  1.
         15    1    1    2    0    0 -0.53793599033E+01 -0.41844610817E+01 -0.18989884335E+01  0.72945948197E+01  0.17770000000E+01 0. -1.
</event>
<event>
 6   1  0.3798113E-04  0.5016708E+03  0.7546771E-02  0.9396079E-01
        -11   -1    0    0    0    0  0.00000000000E+00  0.00000000000E+00  0.50000000000E+03  0.50000000000E+03  0.00000000000E+00 0.  1.
         11   -1    0    0    0    0 -0.00000000000E+00 -0.00000000000E+00 -0.50000000000E+03  0.50000000000E+03  0.00000000000E+00 0. -1.
        -11    1    1    2    0    0  0.23748462924E+02 -0.71755656432E+00  0.36570161725E+03  0.36647261458E+03  0.00000000000E+00 0.  1.
         11    1    1    2    0    0 -0.58167831207E+01 -0.15888333680E+02 -0.49804186251E+03  0.49832917929E+03  0.00000000000E+00 0. -1.
        -15    1    1    2    0    0 -0.17536807040E+02  0.11840519007E+02  0.11967506283E+03  0.12154429597E+03  0.17770000000E+01 0.  1.
         15    1    1    2    0    0 -0.39487276325E+00  0.47653712370E+01  0.12665182443E+02  0.13653910167E+02  0.17770000000E+01 0. -1.
</event>
<event>
 6   1  0.3798113E-04  0.4890885E+03  0.7546771E-02  0.9424562E-01
        -11   -1    0    0    0    0  0.00000000000E+00  0.00000000000E+00  0.50000000000E+03  0.50000000000E+03  0.00000000000E+00 0. -1.
         11   -1    0    0    0    0 -0.00000000000E+00 -0.00000000000E+00 -0.50000000000E+03  0.50000000000E+03  0.00000000000E+00 0.  1.
        -11    1    1    2    0    0 -0.13657125215E+00  0.12684284155E+02  0.49119570192E+03  0.49135946852E+03  0.00000000000E+00 0. -1.
         11    1    1    2    0    0 -0.10043937407E+01  0.73537810667E+01 -0.48697590745E+03  0.48703246436E+03  0.00000000000E+00 0.  1.
        -15    1    1    2    0    0 -0.12448703086E+01 -0.11993230553E+02 -0.45881454123E+01  0.13022906300E+02  0.17770000000E+01 0.  1.
         15    1    1    2    0    0  0.23858353014E+01 -0.80448346693E+01  0.36835094125E+00  0.85851608231E+01  0.17770000000E+01 0. -1.
</event>
<event>
 6   1  0.3798113E-04  0.5041903E+03  0.7546771E-02  0.9390482E-01
        -11   -1    0    0    0    0  0.00000000000E+00  0.00000000000E+00  0.50000000000E+03  0.50000000000E+03  0.00000000000E+00 0.  1.
         11   -1    0    0    0    0 -0.00000000000E+00 -0.00000000000E+00 -0.50000000000E+03  0.50000000000E+03  0.00000000000E+00 0. -1.
        -11    1    1    2    0    0  0.24935592807E+02  0.20118542696E+02  0.31383010879E+03  0.31546137122E+03  0.00000000000E+00 0.  1.
         11    1    1    2    0    0  0.16270564900E+02 -0.57044803254E+01 -0.49550984639E+03  0.49580972181E+03  0.00000000000E+00 0. -1.
        -15    1    1    2    0    0 -0.20943321409E+02 -0.57870529743E+01  0.13869835478E+03  0.14040122522E+03  0.17770000000E+01 0.  1.
         15    1    1    2    0    0 -0.20262836298E+02 -0.86270093962E+01  0.42981382807E+02  0.48327681747E+02  0.17770000000E+01 0. -1.
</event>
<event>
 6   1  0.3798113E-04  0.5005671E+03  0.7546771E-02  0.9398542E-01
        -11   -1    0    0    0    0  0.00000000000E+00  0.00000000000E+00  0.50000000000E+03  0.50000000000E+03  0.00000000000E+00 0. -1.
         11   -1    0    0    0    0 -0.00000000000E+00 -0.00000000000E+00 -0.50000000000E+03  0.50000000000E+03  0.00000000000E+00 0.  1.
        -11    1    1    2    0    0 -0.19541078168E+02  0.24463350939E+02  0.49845047334E+03  0.49943286200E+03  0.00000000000E+00 0. -1.
         11    1    1    2    0    0  0.23549341114E+02 -0.17676138123E+02 -0.22530463107E+03  0.22722058469E+03  0.00000000000E+00 0.  1.
        -15    1    1    2    0    0  0.98228868898E+00 -0.31884486370E+01 -0.72436062291E+02  0.72534625835E+02  0.17770000000E+01 0.  1.
         15    1    1    2    0    0 -0.49905516347E+01 -0.35987641790E+01 -0.20070977997E+03  0.20081192747E+03  0.17770000000E+01 0.  1.
</event>
<event>
 6   1  0.3798113E-04  0.5015278E+03  0.7546771E-02  0.9396398E-01
        -11   -1    0    0    0    0  0.00000000000E+00  0.00000000000E+00  0.50000000000E+03  0.50000000000E+03  0.00000000000E+00 0.  1.
         11   -1    0    0    0    0 -0.00000000000E+00 -0.00000000000E+00 -0.50000000000E+03  0.50000000000E+03  0.00000000000E+00 0.  1.
        -11    1    1    2    0    0  0.11351666505E+02 -0.96509055824E+01  0.38156497760E+03  0.38185577440E+03  0.00000000000E+00 0.  1.
         11    1    1    2    0    0 -0.59884353629E+01 -0.72870788544E+01 -0.49838294033E+03  0.49847218386E+03  0.00000000000E+00 0.  1.
        -15    1    1    2    0    0  0.15310297075E+01  0.48132141563E+01  0.63204263969E+01  0.82835138268E+01  0.17770000000E+01 0.  1.
         15    1    1    2    0    0 -0.68942608493E+01  0.12124770280E+02  0.11049753633E+03  0.11138852792E+03  0.17770000000E+01 0. -1.
</event>
<event>
 6   1  0.3798113E-04  0.5040217E+03  0.7546771E-02  0.9390856E-01
        -11   -1    0    0    0    0  0.00000000000E+00  0.00000000000E+00  0.50000000000E+03  0.50000000000E+03  0.00000000000E+00 0.  1.
         11   -1    0    0    0    0 -0.00000000000E+00 -0.00000000000E+00 -0.50000000000E+03  0.50000000000E+03  0.00000000000E+00 0.  1.
        -11    1    1    2    0    0 -0.13836872180E+02  0.56370378751E+01  0.48159734360E+03  0.48182905328E+03  0.00000000000E+00 0.  1.
         11    1    1    2    0    0  0.94687277016E+01 -0.11310115105E+02 -0.49575894632E+03  0.49597833457E+03  0.00000000000E+00 0.  1.
        -15    1    1    2    0    0 -0.23227987810E+01  0.37359731733E+01  0.14233517272E+02  0.15003454024E+02  0.17770000000E+01 0. -1.
         15    1    1    2    0    0  0.66909432594E+01  0.19371040570E+01 -0.71914554098E-01  0.71891581240E+01  0.17770000000E+01 0.  1.
</event>
<event>
 6   1  0.3798113E-04  0.5000582E+03  0.7546771E-02  0.9399680E-01
        -11   -1    0    0    0    0  0.00000000000E+00  0.00000000000E+00  0.50000000000E+03  0.50000000000E+03  0.00000000000E+00 0. -1.
         11   -1    0    0    0    0 -0.00000000000E+00 -0.00000000000E+00 -0.50000000000E+03  0.50000000000E+03  0.00000000000E+00 0.  1.
        -11    1    1    2    0    0  0.10901588551E+02  0.63988328770E+01  0.49978199988E+03  0.49994183372E+03  0.00000000000E+00 0. -1.
         11    1    1    2    0    0 -0.42923702250E+01 -0.48621570919E+01 -0.33028717308E+03  0.33035084640E+03  0.00000000000E+00 0.  1.
        -15    1    1    2    0    0 -0.84283962987E+00  0.59070001543E+00 -0.34656580055E+02  0.34717367056E+02  0.17770000000E+01 0.  1.
         15    1    1    2    0    0 -0.57663786961E+01 -0.21273758006E+01 -0.13483824674E+03  0.13498995283E+03  0.17770000000E+01 0.  1.
</event>
<event>
 6   1  0.3798113E-04  0.5080159E+03  0.7546771E-02  0.9382050E-01
        -11   -1    0    0    0    0  0.00000000000E+00  0.00000000000E+00  0.50000000000E+03  0.50000000000E+03  0.00000000000E+00 0.  1.
         11   -1    0    0    0    0 -0.00000000000E+00 -0.00000000000E+00 -0.50000000000E+03  0.50000000000E+03  0.00000000000E+00 0. -1.
        -11    1    1    2    0    0 -0.22908591909E+02 -0.42930731338E+02  0.48957171766E+03  0.49198406276E+03  0.00000000000E+00 0.  1.
         11    1    1    2    0    0  0.51732042515E+01 -0.33494518775E+01 -0.42362576140E+03  0.42367058735E+03  0.00000000000E+00 0. -1.
        -15    1    1    2    0    0  0.87689105863E+01  0.22155205891E+02 -0.45631693079E+02  0.51508796173E+02  0.17770000000E+01 0. -1.
         15    1    1    2    0    0  0.89664770708E+01  0.24124977324E+02 -0.20314263186E+02  0.32836553713E+02  0.17770000000E+01 0.  1.
</event>
<event>
 6   1  0.3798113E-04  0.5024835E+03  0.7546771E-02  0.9394270E-01
        -11   -1    0    0    0    0  0.00000000000E+00  0.00000000000E+00  0.50000000000E+03  0.50000000000E+03  0.00000000000E+00 0.  1.
         11   -1    0    0    0    0 -0.00000000000E+00 -0.00000000000E+00 -0.50000000000E+03  0.50000000000E+03  0.00000000000E+00 0. -1.
        -11    1    1    2    0    0 -0.15095872687E+02 -0.25571172420E+02  0.49662952386E+03  0.49751648636E+03  0.00000000000E+00 0.  1.
         11    1    1    2    0    0  0.46826619708E+01 -0.41922649758E+01 -0.40091218287E+03  0.40096144551E+03  0.00000000000E+00 0. -1.
        -15    1    1    2    0    0  0.12802029629E+02  0.24203343708E+02 -0.74752189378E+02  0.79628772157E+02  0.17770000000E+01 0.  1.
         15    1    1    2    0    0 -0.23888189136E+01  0.55600936870E+01 -0.20965151609E+02  0.21893295974E+02  0.17770000000E+01 0. -1.
</event>
<event>
 6   1  0.3798113E-04  0.5014743E+03  0.7546771E-02  0.9396517E-01
        -11   -1    0    0    0    0  0.00000000000E+00  0.00000000000E+00  0.50000000000E+03  0.50000000000E+03  0.00000000000E+00 0.  1.
         11   -1    0    0    0    0 -0.00000000000E+00 -0.00000000000E+00 -0.50000000000E+03  0.50000000000E+03  0.00000000000E+00 0.  1.
        -11    1    1    2    0    0  0.10381798003E+02  0.11517520133E+02  0.49828451739E+03  0.49852572177E+03  0.00000000000E+00 0.  1.
         11    1    1    2    0    0  0.35541925184E+01 -0.10335544216E+02 -0.40786836047E+03  0.40801477330E+03  0.00000000000E+00 0.  1.
        -15    1    1    2    0    0 -0.10047543306E+02 -0.73621161189E+01 -0.77512947885E+02  0.78527502820E+02  0.17770000000E+01 0.  1.
         15    1    1    2    0    0 -0.38884472150E+01  0.61801402020E+01 -0.12903209028E+02  0.14932002105E+02  0.17770000000E+01 0. -1.
</event>
<event>
 6   1  0.3798113E-04  0.5033398E+03  0.7546771E-02  0.9392368E-01
        -11   -1    0    0    0    0  0.00000000000E+00  0.00000000000E+00  0.50000000000E+03  0.50000000000E+03  0.00000000000E+00 0.  1.
         11   -1    0    0    0    0 -0.00000000000E+00 -0.00000000000E+00 -0.50000000000E+03  0.50000000000E+03  0.00000000000E+00 0.  1.
        -11    1    1    2    0    0 -0.89889088812E+01  0.10314456150E+02  0.48526132560E+03  0.48545416119E+03  0.00000000000E+00 0.  1.
         11    1    1    2    0    0  0.31114442037E+01 -0.62037517670E+01 -0.49661175350E+03  0.49666024739E+03  0.00000000000E+00 0.  1.
        -15    1    1    2    0    0  0.46090176031E+01  0.28852310405E+01  0.21228481721E+01  0.61017878351E+01  0.17770000000E+01 0. -1.
         15    1    1    2    0    0  0.12684470744E+01 -0.69959354231E+01  0.92275797235E+01  0.11783803587E+02  0.17770000000E+01 0.  1.
</event>
<event>
 6   1  0.3798113E-04  0.5022251E+03  0.7546771E-02  0.9394845E-01
        -11   -1    0    0    0    0  0.00000000000E+00  0.00000000000E+00  0.50000000000E+03  0.50000000000E+03  0.00000000000E+00 0.  1.
         11   -1    0    0    0    0 -0.00000000000E+00 -0.00000000000E+00 -0.50000000000E+03  0.50000000000E+03  0.00000000000E+00 0. -1.
        -11    1    1    2    0    0 -0.31144823276E+02  0.12143658719E+02  0.13781292287E+03  0.14180927394E+03  0.00000000000E+00 0.  1.
         11    1    1    2    0    0  0.10888076143E+02 -0.81974275317E+01 -0.49758824903E+03  0.49777486236E+03  0.00000000000E+00 0. -1.
        -15    1    1    2    0    0  0.37921199010E+01 -0.16505065463E+01  0.10170404140E+03  0.10180360559E+03  0.17770000000E+01 0.  1.
         15    1    1    2    0    0  0.16464627232E+02 -0.22957246409E+01  0.25807128475E+03  0.25861225811E+03  0.17770000000E+01 0.  1.
</event>
<event>
 6   1  0.3798113E-04  0.5011505E+03  0.7546771E-02  0.9397239E-01
        -11   -1    0    0    0    0  0.00000000000E+00  0.00000000000E+00  0.50000000000E+03  0.50000000000E+03  0.00000000000E+00 0. -1.
         11   -1    0    0    0    0 -0.00000000000E+00 -0.00000000000E+00 -0.50000000000E+03  0.50000000000E+03  0.00000000000E+00 0. -1.
        -11    1    1    2    0    0 -0.18164775356E+01  0.84970900931E+01  0.41535383216E+03  0.41544470874E+03  0.00000000000E+00 0. -1.
         11    1    1    2    0    0 -0.46055665671E+01 -0.54373912521E+01 -0.49879865072E+03  0.49884954689E+03  0.00000000000E+00 0. -1.
        -15    1    1    2    0    0  0.79380225045E+01  0.42275779643E+01  0.22707104237E+02  0.24487852673E+02  0.17770000000E+01 0.  1.
         15    1    1    2    0    0 -0.15159784017E+01 -0.72872768053E+01  0.60737714330E+02  0.61217891704E+02  0.17770000000E+01 0. -1.
</event>
<event>
 6   1  0.3798113E-04  0.5002444E+03  0.7546771E-02  0.9399263E-01
        -11   -1    0    0    0    0  0.00000000000E+00  0.00000000000E+00  0.50000000000E+03  0.50000000000E+03  0.00000000000E+00 0. -1.
         11   -1    0    0    0    0 -0.00000000000E+00 -0.00000000000E+00 -0.50000000000E+03  0.50000000000E+03  0.00000000000E+00 0. -1.
        -11    1    1    2    0    0  0.28145288100E+02  0.34923585898E+02  0.49773875781E+03  0.49975562540E+03  0.00000000000E+00 0. -1.
         11    1    1    2    0    0  0.10428752419E+01 -0.84457371933E+01 -0.90225721963E+02  0.90626149479E+02  0.00000000000E+00 0. -1.
        -15    1    1    2    0    0 -0.53273759026E+00 -0.51538038072E+01 -0.40946766307E+02  0.41311510539E+02  0.17770000000E+01 0.  1.
         15    1    1    2    0    0 -0.28655425752E+02 -0.21324044898E+02 -0.36656626954E+03  0.36830671458E+03  0.17770000000E+01 0. -1.
</event>
<event>
 6   1  0.3798113E-04  0.5025565E+03  0.7546771E-02  0.9394107E-01
        -11   -1    0    0    0    0  0.00000000000E+00  0.00000000000E+00  0.50000000000E+03  0.50000000000E+03  0.00000000000E+00 0. -1.
         11   -1    0    0    0    0 -0.00000000000E+00 -0.00000000000E+00 -0.50000000000E+03  0.50000000000E+03  0.00000000000E+00 0.  1.
        -11    1    1    2    0    0  0.20047660474E+01  0.81808089367E+01  0.49737219064E+03  0.49744350508E+03  0.00000000000E+00 0. -1.
         11    1    1    2    0    0 -0.62768271595E+01 -0.32189235206E+01 -0.49346072211E+03  0.49351113897E+03  0.00000000000E+00 0.  1.
        -15    1    1    2    0    0  0.16813524697E+01 -0.37519069996E+01 -0.98810624508E+00  0.45867019973E+01  0.17770000000E+01 0.  1.
         15    1    1    2    0    0  0.25907086424E+01 -0.12099784165E+01 -0.29233622861E+01  0.44586539554E+01  0.17770000000E+01 0. -1.
</event>
<event>
 6   1  0.3798113E-04  0.5009767E+03  0.7546771E-02  0.9397627E-01
        -11   -1    0    0    0    0  0.00000000000E+00  0.00000000000E+00  0.50000000000E+03  0.50000000000E+03  0.00000000000E+00 0. -1.
         11   -1    0    0    0    0 -0.00000000000E+00 -0.00000000000E+00 -0.50000000000E+03  0.50000000000E+03  0.00000000000E+00 0.  1.
        -11    1    1    2    0    0  0.12316038807E+02  0.12994845783E+02  0.12572226691E+03  0.12699070528E+03  0.00000000000E+00 0. -1.
         11    1    1    2    0    0 -0.81736627773E+01  0.11156632771E+02 -0.49883165091E+03  0.49902334130E+03  0.00000000000E+00 0.  1.
        -15    1    1    2    0    0 -0.31486114795E+01 -0.18123344318E+02  0.23279559857E+03  0.23352798078E+03  0.17770000000E+01 0. -1.
         15    1    1    2    0    0 -0.99376455010E+00 -0.60281342367E+01  0.14031378543E+03  0.14045797265E+03  0.17770000000E+01 0. -1.
</event>
<event>
 6   1  0.3798113E-04  0.5009484E+03  0.7546771E-02  0.9397690E-01
        -11   -1    0    0    0    0  0.00000000000E+00  0.00000000000E+00  0.50000000000E+03  0.50000000000E+03  0.00000000000E+00 0. -1.
         11   -1    0    0    0    0 -0.00000000000E+00 -0.00000000000E+00 -0.50000000000E+03  0.50000000000E+03  0.00000000000E+00 0. -1.
        -11    1    1    2    0    0 -0.11204663714E+02  0.32440991973E+01  0.49891522188E+03  0.49905156777E+03  0.00000000000E+00 0. -1.
         11    1    1    2    0    0 -0.30318412812E+01 -0.68871505144E+01 -0.42966891779E+03  0.42973480639E+03  0.00000000000E+00 0. -1.
        -15    1    1    2    0    0  0.11543669350E+02  0.48050753026E+01 -0.45471885411E+02  0.47193168389E+02  0.17770000000E+01 0. -1.
         15    1    1    2    0    0  0.26928356446E+01 -0.11620239855E+01 -0.23774418680E+02  0.24020457451E+02  0.17770000000E+01 0.  1.
</event>
<event>
 6   1  0.3798113E-04  0.5002452E+03  0.7546771E-02  0.9399261E-01
        -11   -1    0    0    0    0  0.00000000000E+00  0.00000000000E+00  0.50000000000E+03  0.50000000000E+03  0.00000000000E+00 0. -1.
         11   -1    0    0    0    0 -0.00000000000E+00 -0.00000000000E+00 -0.50000000000E+03  0.50000000000E+03  0.00000000000E+00 0.  1.
        -11    1    1    2    0    0  0.32112462357E+02  0.11778142743E+02  0.49858293835E+03  0.49975482119E+03  0.00000000000E+00 0. -1.
         11    1    1    2    0    0 -0.33515473322E+01 -0.55458508751E+01 -0.18542798868E+03  0.18554117688E+03  0.00000000000E+00 0.  1.
        -15    1    1    2    0    0 -0.46092616740E+01 -0.50866179467E+00 -0.25798435641E+02  0.26272058171E+02  0.17770000000E+01 0. -1.
         15    1    1    2    0    0 -0.24151653351E+02 -0.57236300731E+01 -0.28735651403E+03  0.28843194376E+03  0.17770000000E+01 0.  1.
</event>
<event>
 6   1  0.3798113E-04  0.5010016E+03  0.7546771E-02  0.9397571E-01
        -11   -1    0    0    0    0  0.00000000000E+00  0.00000000000E+00  0.50000000000E+03  0.50000000000E+03  0.00000000000E+00 0. -1.
         11   -1    0    0    0    0 -0.00000000000E+00 -0.00000000000E+00 -0.50000000000E+03  0.50000000000E+03  0.00000000000E+00 0.  1.
        -11    1    1    2    0    0 -0.33231152915E+02  0.10402250930E+02  0.49778192470E+03  0.49899835762E+03  0.00000000000E+00 0. -1.
         11    1    1    2    0    0  0.67560217175E+00 -0.76695552746E+01 -0.29253242104E+03  0.29263372307E+03  0.00000000000E+00 0.  1.
        -15    1    1    2    0    0  0.18468572791E+02 -0.47144949222E+01 -0.78064430386E+02  0.80377407671E+02  0.17770000000E+01 0.  1.
         15    1    1    2    0    0  0.14086977952E+02  0.19817992671E+01 -0.12718507328E+03  0.12799051164E+03  0.17770000000E+01 0. -1.
</event>
<event>
 6   1  0.3798113E-04  0.5001043E+03  0.7546771E-02  0.9399576E-01
        -11   -1    0    0    0    0  0.00000000000E+00  0.00000000000E+00  0.50000000000E+03  0.50000000000E+03  0.00000000000E+00 0.  1.
         11   -1    0    0    0    0 -0.00000000000E+00 -0.00000000000E+00 -0.50000000000E+03  0.50000000000E+03  0.00000000000E+00 0. -1.
        -11    1    1    2    0    0 -0.36385918417E+01  0.11254370317E+01  0.87712538656E+02  0.87795190053E+02  0.00000000000E+00 0.  1.
         11    1    1    2    0    0 -0.12303437778E+01  0.12371992338E+02 -0.49974109238E+03  0.49989572848E+03  0.00000000000E+00 0. -1.
        -15    1    1    2    0    0  0.26935379941E+01 -0.79643495128E+01  0.28436480470E+03  0.28449461488E+03  0.17770000000E+01 0.  1.
         15    1    1    2    0    0  0.21753976253E+01 -0.55330798574E+01  0.12766374902E+03  0.12781446659E+03  0.17770000000E+01 0.  1.
</event>
<event>
 6   1  0.3798113E-04  0.5048632E+03  0.7546771E-02  0.9388993E-01
        -11   -1    0    0    0    0  0.00000000000E+00  0.00000000000E+00  0.50000000000E+03  0.50000000000E+03  0.00000000000E+00 0. -1.
         11   -1    0    0    0    0 -0.00000000000E+00 -0.00000000000E+00 -0.50000000000E+03  0.50000000000E+03  0.00000000000E+00 0.  1.
        -11    1    1    2    0    0 -0.18036787093E+01 -0.18236782082E+02  0.13974221590E+03  0.14093871144E+03  0.00000000000E+00 0. -1.
         11    1    1    2    0    0  0.22901554684E+01  0.33130196087E+02 -0.49402181723E+03  0.49513675949E+03  0.00000000000E+00 0.  1.
        -15    1    1    2    0    0  0.86912382328E+01 -0.41075828155E+02  0.10496192561E+03  0.11306159753E+03  0.17770000000E+01 0.  1.
         15    1    1    2    0    0 -0.91777149919E+01  0.26182414150E+02  0.24931767572E+03  0.25086293153E+03  0.17770000000E+01 0. -1.
</event>
<event>
 6   1  0.3798113E-04  0.5007387E+03  0.7546771E-02  0.9398158E-01
        -11   -1    0    0    0    0  0.00000000000E+00  0.00000000000E+00  0.50000000000E+03  0.50000000000E+03  0.00000000000E+00 0.  1.
         11   -1    0    0    0    0 -0.00000000000E+00 -0.00000000000E+00 -0.50000000000E+03  0.50000000000E+03  0.00000000000E+00 0.  1.
        -11    1    1    2    0    0 -0.52233429932E+01  0.14233252540E+02  0.49903100867E+03  0.49926127068E+03  0.00000000000E+00 0.  1.
         11    1    1    2    0    0 -0.38111694948E+01  0.28881155981E+01 -0.27676883975E+03  0.27681014592E+03  0.00000000000E+00 0.  1.
        -15    1    1    2    0    0  0.74374804061E+01 -0.11777173198E+02 -0.20851043266E+03  0.20898271742E+03  0.17770000000E+01 0.  1.
         15    1    1    2    0    0  0.15970320818E+01 -0.53441949397E+01 -0.13751736258E+02  0.14945865988E+02  0.17770000000E+01 0. -1.
</event>
<event>
 6   1  0.3798113E-04  0.5005032E+03  0.7546771E-02  0.9398684E-01
        -11   -1    0    0    0    0  0.00000000000E+00  0.00000000000E+00  0.50000000000E+03  0.50000000000E+03  0.00000000000E+00 0.  1.
         11   -1    0    0    0    0 -0.00000000000E+00 -0.00000000000E+00 -0.50000000000E+03  0.50000000000E+03  0.00000000000E+00 0.  1.
        -11    1    1    2    0    0  0.14180897954E+02  0.15974325725E+01  0.49929285988E+03  0.49949675633E+03  0.00000000000E+00 0.  1.
         11    1    1    2    0    0  0.15403701689E+01  0.95281303790E+01 -0.20450755048E+03  0.20473518557E+03  0.00000000000E+00 0.  1.
        -15    1    1    2    0    0 -0.53437843567E+01 -0.72998029417E+01 -0.58927027884E+02  0.59643905795E+02  0.17770000000E+01 0.  1.
         15    1    1    2    0    0 -0.10377483766E+02 -0.38257600098E+01 -0.23585828152E+03  0.23612415230E+03  0.17770000000E+01 0. -1.
</event>
<event>
 6   1  0.3798113E-04  0.4719465E+03  0.7546771E-02  0.9464866E-01
        -11   -1    0    0    0    0  0.00000000000E+00  0.00000000000E+00  0.50000000000E+03  0.50000000000E+03  0.00000000000E+00 0. -1.
         11   -1    0    0    0    0 -0.00000000000E+00 -0.00000000000E+00 -0.50000000000E+03  0.50000000000E+03  0.00000000000E+00 0.  1.
        -11    1    1    2    0    0 -0.13890163571E+02 -0.48425183855E+02  0.47818100189E+03  0.48082741774E+03  0.00000000000E+00 0. -1.
         11    1    1    2    0    0  0.23252167917E+02  0.11855546643E+00 -0.46387320260E+03  0.46445562270E+03  0.00000000000E+00 0.  1.
        -15    1    1    2    0    0 -0.70880885741E+01  0.11152709335E+02  0.29391831211E+01  0.13653587498E+02  0.17770000000E+01 0. -1.
         15    1    1    2    0    0 -0.22739157718E+01  0.37153919053E+02 -0.17246982411E+02  0.41063372063E+02  0.17770000000E+01 0.  1.
</event>
<event>
 6   1  0.3798113E-04  0.4539250E+03  0.7546771E-02  0.9509252E-01
        -11   -1    0    0    0    0  0.00000000000E+00  0.00000000000E+00  0.50000000000E+03  0.50000000000E+03  0.00000000000E+00 0. -1.
         11   -1    0    0    0    0 -0.00000000000E+00 -0.00000000000E+00 -0.50000000000E+03  0.50000000000E+03  0.00000000000E+00 0. -1.
        -11    1    1    2    0    0 -0.55737588031E+02  0.48744505433E+02  0.44622110053E+03  0.45232286708E+03  0.00000000000E+00 0. -1.
         11    1    1    2    0    0 -0.67479907962E+01 -0.73599749609E+01 -0.45859071619E+03  0.45869941092E+03  0.00000000000E+00 0. -1.
        -15    1    1    2    0    0 -0.69570105519E+01 -0.16269683557E+01 -0.20693202216E+01  0.76476687317E+01  0.17770000000E+01 0. -1.
         15    1    1    2    0    0  0.69442589379E+02 -0.39757562116E+02  0.14438935878E+02  0.81330053261E+02  0.17770000000E+01 0.  1.
</event>
<event>
 6   1  0.3798113E-04  0.5032935E+03  0.7546771E-02  0.9392470E-01
        -11   -1    0    0    0    0  0.00000000000E+00  0.00000000000E+00  0.50000000000E+03  0.50000000000E+03  0.00000000000E+00 0. -1.
         11   -1    0    0    0    0 -0.00000000000E+00 -0.00000000000E+00 -0.50000000000E+03  0.50000000000E+03  0.00000000000E+00 0.  1.
        -11    1    1    2    0    0 -0.11980519974E+02  0.39545522815E+00  0.49656178969E+03  0.49670645277E+03  0.00000000000E+00 0. -1.
         11    1    1    2    0    0 -0.32540822317E+01 -0.74762290766E+01 -0.47545394724E+03  0.47552385745E+03  0.00000000000E+00 0.  1.
        -15    1    1    2    0    0  0.10428052233E+02  0.69121469739E+01 -0.17097099511E+02  0.21260070316E+02  0.17770000000E+01 0. -1.
         15    1    1    2    0    0  0.48065499727E+01  0.16862687460E+00 -0.40107429353E+01  0.65096194632E+01  0.17770000000E+01 0.  1.
</event>
<event>
 6   1  0.3798113E-04  0.4909116E+03  0.7546771E-02  0.9420378E-01
        -11   -1    0    0    0    0  0.00000000000E+00  0.00000000000E+00  0.50000000000E+03  0.50000000000E+03  0.00000000000E+00 0. -1.
         11   -1    0    0    0    0 -0.00000000000E+00 -0.00000000000E+00 -0.50000000000E+03  0.50000000000E+03  0.00000000000E+00 0. -1.
        -11    1    1    2    0    0 -0.10236306732E+02 -0.21461694165E+02  0.48841215352E+03  0.48899061136E+03  0.00000000000E+00 0. -1.
         11    1    1    2    0    0  0.65879240125E+01  0.83547635267E+01 -0.49282198005E+03  0.49293681830E+03  0.00000000000E+00 0. -1.
        -15    1    1    2    0    0 -0.27468349619E+01  0.34751313662E+01  0.42243660727E+01  0.63737459971E+01  0.17770000000E+01 0. -1.
         15    1    1    2    0    0  0.63952176809E+01  0.96317992720E+01  0.18546046152E+00  0.11698824342E+02  0.17770000000E+01 0.  1.
</event>
<event>
 6   1  0.3798113E-04  0.5015725E+03  0.7546771E-02  0.9396298E-01
        -11   -1    0    0    0    0  0.00000000000E+00  0.00000000000E+00  0.50000000000E+03  0.50000000000E+03  0.00000000000E+00 0. -1.
         11   -1    0    0    0    0 -0.00000000000E+00 -0.00000000000E+00 -0.50000000000E+03  0.50000000000E+03  0.00000000000E+00 0. -1.
        -11    1    1    2    0    0  0.11091891907E+02  0.21191756535E+02  0.15392905457E+03  0.15577636038E+03  0.00000000000E+00 0. -1.
         11    1    1    2    0    0 -0.56944611498E+01  0.44256002591E+01 -0.49837531926E+03  0.49842749891E+03  0.00000000000E+00 0. -1.
        -15    1    1    2    0    0  0.99182623889E+00  0.57677012213E+00  0.67904271176E+02  0.67937207449E+02  0.17770000000E+01 0. -1.
         15    1    1    2    0    0 -0.63892569958E+01 -0.26194126916E+02  0.27654199351E+03  0.27785893326E+03  0.17770000000E+01 0. -1.
</event>
<event>
 6   1  0.3798113E-04  0.5011856E+03  0.7546771E-02  0.9397161E-01
        -11   -1    0    0    0    0  0.00000000000E+00  0.00000000000E+00  0.50000000000E+03  0.50000000000E+03  0.00000000000E+00 0.  1.
         11   -1    0    0    0    0 -0.00000000000E+00 -0.00000000000E+00 -0.50000000000E+03  0.50000000000E+03  0.00000000000E+00 0.  1.
        -11    1    1    2    0    0 -0.12149368060E+02 -0.10526261815E+01  0.49866528765E+03  0.49881437857E+03  0.00000000000E+00 0.  1.
         11    1    1    2    0    0  0.14836370390E+02 -0.51651848741E+01 -0.44253940187E+03  0.44281815594E+03  0.00000000000E+00 0.  1.
        -15    1    1    2    0    0  0.46580268976E+01  0.12885479792E+01 -0.35266090646E+02  0.35640039968E+02  0.17770000000E+01 0. -1.
         15    1    1    2    0    0 -0.73450292278E+01  0.49292630764E+01 -0.20859795129E+02  0.22727425517E+02  0.17770000000E+01 0.  1.
</event>
<event>
 6   1  0.3798113E-04  0.4394315E+03  0.7546771E-02  0.9546572E-01
        -11   -1    0    0    0    0  0.00000000000E+00  0.00000000000E+00  0.50000000000E+03  0.50000000000E+03  0.00000000000E+00 0.  1.
         11   -1    0    0    0    0 -0.00000000000E+00 -0.00000000000E+00 -0.50000000000E+03  0.50000000000E+03  0.00000000000E+00 0. -1.
        -11    1    1    2    0    0 -0.65511678129E+02  0.43581239788E+02  0.43968836463E+03  0.44667321660E+03  0.00000000000E+00 0.  1.
         11    1    1    2    0    0 -0.33329864169E+02 -0.78865317877E+02 -0.43004621589E+03  0.43848644906E+03  0.00000000000E+00 0. -1.
        -15    1    1    2    0    0  0.82596081207E+02  0.43566683618E+02  0.14739965837E+01  0.93410379226E+02  0.17770000000E+01 0.  1.
         15    1    1    2    0    0  0.16245461090E+02 -0.82826055284E+01 -0.11116145323E+02  0.21429955115E+02  0.17770000000E+01 0. -1.
</event>
<event>
 6   1  0.3798113E-04  0.5163825E+03  0.7546771E-02  0.9363881E-01
        -11   -1    0    0    0    0  0.00000000000E+00  0.00000000000E+00  0.50000000000E+03  0.50000000000E+03  0.00000000000E+00 0. -1.
         11   -1    0    0    0    0 -0.00000000000E+00 -0.00000000000E+00 -0.50000000000E+03  0.50000000000E+03  0.00000000000E+00 0. -1.
        -11    1    1    2    0    0  0.42881920347E+02  0.35297200576E+02  0.48041763576E+03  0.48361746889E+03  0.00000000000E+00 0. -1.
         11    1    1    2    0    0 -0.42652959189E+01 -0.15810412781E+02 -0.42247891037E+03  0.42279615846E+03  0.00000000000E+00 0. -1.
        -15    1    1    2    0    0 -0.31984408257E+02 -0.32758919446E+02 -0.15141288696E+02  0.48255212435E+02  0.17770000000E+01 0.  1.
         15    1    1    2    0    0 -0.66322161712E+01  0.13272131650E+02 -0.42797436698E+02  0.45331160219E+02  0.17770000000E+01 0. -1.
</event>
<event>
 6   1  0.3798113E-04  0.5010871E+03  0.7546771E-02  0.9397381E-01
        -11   -1    0    0    0    0  0.00000000000E+00  0.00000000000E+00  0.50000000000E+03  0.50000000000E+03  0.00000000000E+00 0. -1.
         11   -1    0    0    0    0 -0.00000000000E+00 -0.00000000000E+00 -0.50000000000E+03  0.50000000000E+03  0.00000000000E+00 0. -1.
        -11    1    1    2    0    0  0.61536754704E+01  0.38502238785E+01  0.46419697268E+03  0.46425372523E+03  0.00000000000E+00 0. -1.
         11    1    1    2    0    0 -0.69573744615E+01 -0.81486233836E+01 -0.49879787395E+03  0.49891294249E+03  0.00000000000E+00 0. -1.
        -15    1    1    2    0    0 -0.38850902514E+01  0.17583989090E+01  0.54462873301E+01  0.71418252336E+01  0.17770000000E+01 0. -1.
         15    1    1    2    0    0  0.46887892426E+01  0.25400005961E+01  0.29154613943E+02  0.29691507048E+02  0.17770000000E+01 0.  1.
</event>
<event>
 6   1  0.3798113E-04  0.5001902E+03  0.7546771E-02  0.9399384E-01
        -11   -1    0    0    0    0  0.00000000000E+00  0.00000000000E+00  0.50000000000E+03  0.50000000000E+03  0.00000000000E+00 0.  1.
         11   -1    0    0    0    0 -0.00000000000E+00 -0.00000000000E+00 -0.50000000000E+03  0.50000000000E+03  0.00000000000E+00 0. -1.
        -11    1    1    2    0    0 -0.88489991217E+01 -0.61612001008E+01  0.26328201239E+03  0.26350271957E+03  0.00000000000E+00 0.  1.
         11    1    1    2    0    0  0.51728721999E+01  0.45200185551E+01 -0.49976263189E+03  0.49980984125E+03  0.00000000000E+00 0. -1.
        -15    1    1    2    0    0  0.75395418935E+00 -0.24464454467E+01  0.15570457022E+03  0.15573575202E+03  0.17770000000E+01 0.  1.
         15    1    1    2    0    0  0.29221727324E+01  0.40876269925E+01  0.80776049281E+02  0.80951687162E+02  0.17770000000E+01 0. -1.
</event>
<event>
 6   1  0.3798113E-04  0.4958119E+03  0.7546771E-02  0.9409230E-01
        -11   -1    0    0    0    0  0.00000000000E+00  0.00000000000E+00  0.50000000000E+03  0.50000000000E+03  0.00000000000E+00 0.  1.
         11   -1    0    0    0    0 -0.00000000000E+00 -0.00000000000E+00 -0.50000000000E+03  0.50000000000E+03  0.00000000000E+00 0. -1.
        -11    1    1    2    0    0 -0.10220672747E+01  0.76658589173E+01  0.49550342400E+03  0.49556377310E+03  0.00000000000E+00 0.  1.
         11    1    1    2    0    0  0.49852970172E+01 -0.44637106705E+01 -0.49602813152E+03  0.49607326592E+03  0.00000000000E+00 0. -1.
        -15    1    1    2    0    0 -0.48381817803E+01 -0.88372234979E+00  0.84358097529E+00  0.52970110433E+01  0.17770000000E+01 0. -1.
         15    1    1    2    0    0  0.87495203781E+00 -0.23184258970E+01 -0.31887345376E+00  0.30659499323E+01  0.17770000000E+01 0.  1.
</event>
<event>
 6   1  0.3798113E-04  0.5038037E+03  0.7546771E-02  0.9391339E-01
        -11   -1    0    0    0    0  0.00000000000E+00  0.00000000000E+00  0.50000000000E+03  0.50000000000E+03  0.00000000000E+00 0.  1.
         11   -1    0    0    0    0 -0.00000000000E+00 -0.00000000000E+00 -0.50000000000E+03  0.50000000000E+03  0.00000000000E+00 0. -1.
        -11    1    1    2    0    0  0.52742734161E+01 -0.83938872288E+01  0.44367749566E+03  0.44378823267E+03  0.00000000000E+00 0.  1.
         11    1    1    2    0    0 -0.48436706378E+01  0.12805641174E+02 -0.49600734530E+03  0.49619626377E+03  0.00000000000E+00 0. -1.
        -15    1    1    2    0    0 -0.14264649515E+02 -0.37950476509E+01  0.21150892148E+02  0.25853444260E+02  0.17770000000E+01 0. -1.
         15    1    1    2    0    0  0.13834046736E+02 -0.61670629393E+00  0.31178957494E+02  0.34162059293E+02  0.17770000000E+01 0.  1.
</event>
<event>
 6   1  0.3798113E-04  0.5005132E+03  0.7546771E-02  0.9398662E-01
        -11   -1    0    0    0    0  0.00000000000E+00  0.00000000000E+00  0.50000000000E+03  0.50000000000E+03  0.00000000000E+00 0. -1.
         11   -1    0    0    0    0 -0.00000000000E+00 -0.00000000000E+00 -0.50000000000E+03  0.50000000000E+03  0.00000000000E+00 0. -1.
        -11    1    1    2    0    0 -0.18167278752E+02  0.12950025280E+02  0.34231349690E+03  0.34303976932E+03  0.00000000000E+00 0. -1.
         11    1    1    2    0    0  0.14207373723E+02 -0.25727656602E+01 -0.49927809618E+03  0.49948682256E+03  0.00000000000E+00 0. -1.
        -15    1    1    2    0    0  0.16410470322E+01 -0.96992074610E+00  0.23008792195E+02  0.23155906998E+02  0.17770000000E+01 0.  1.
         15    1    1    2    0    0  0.23188579968E+01 -0.94073388738E+01  0.13395580708E+03  0.13431750112E+03  0.17770000000E+01 0. -1.
</event>
<event>
 6   1  0.3798113E-04  0.5008898E+03  0.7546771E-02  0.9397821E-01
        -11   -1    0    0    0    0  0.00000000000E+00  0.00000000000E+00  0.50000000000E+03  0.50000000000E+03  0.00000000000E+00 0. -1.
         11   -1    0    0    0    0 -0.00000000000E+00 -0.00000000000E+00 -0.50000000000E+03  0.50000000000E+03  0.00000000000E+00 0. -1.
        -11    1    1    2    0    0  0.24631606273E+01  0.12410984010E+02  0.31125105947E+03  0.31150814067E+03  0.00000000000E+00 0. -1.
         11    1    1    2    0    0 -0.11456273774E+02 -0.15583980139E+01 -0.49897622056E+03  0.49911015166E+03  0.00000000000E+00 0. -1.
        -15    1    1    2    0    0  0.26097636418E+01 -0.89593331262E+01  0.29189403155E+02  0.30696245729E+02  0.17770000000E+01 0. -1.
         15    1    1    2    0    0  0.63833495050E+01 -0.18932528696E+01  0.15853575793E+03  0.15868546193E+03  0.17770000000E+01 0.  1.
</event>
<event>
 6   1  0.3798113E-04  0.5067319E+03  0.7546771E-02  0.9384871E-01
        -11   -1    0    0    0    0  0.00000000000E+00  0.00000000000E+00  0.50000000000E+03  0.50000000000E+03  0.00000000000E+00 0.  1.
         11   -1    0    0    0    0 -0.00000000000E+00 -0.00000000000E+00 -0.50000000000E+03  0.50000000000E+03  0.00000000000E+00 0.  1.
        -11    1    1    2    0    0 -0.59366736930E+01 -0.38202304717E+02  0.29975177245E+03  0.30223465266E+03  0.00000000000E+00 0.  1.
         11    1    1    2    0    0 -0.10028448943E+02 -0.20302091119E+02 -0.49274806396E+03  0.49326808048E+03  0.00000000000E+00 0.  1.
        -15    1    1    2    0    0 -0.68212508720E+00  0.54859909288E+01  0.60912016170E+02  0.61188175606E+02  0.17770000000E+01 0.  1.
         15    1    1    2    0    0  0.16647247723E+02  0.53018404907E+02  0.13208427534E+03  0.14330909125E+03  0.17770000000E+01 0. -1.
</event>
<event>
 6   1  0.3798113E-04  0.5005361E+03  0.7546771E-02  0.9398611E-01
        -11   -1    0    0    0    0  0.00000000000E+00  0.00000000000E+00  0.50000000000E+03  0.50000000000E+03  0.00000000000E+00 0.  1.
         11   -1    0    0    0    0 -0.00000000000E+00 -0.00000000000E+00 -0.50000000000E+03  0.50000000000E+03  0.00000000000E+00 0.  1.
        -11    1    1    2    0    0  0.26386373171E+02 -0.15560841238E+02  0.49852359861E+03  0.49946387141E+03  0.00000000000E+00 0.  1.
         11    1    1    2    0    0 -0.28143111012E+02  0.19320549884E+02 -0.43409435173E+03  0.43543452384E+03  0.00000000000E+00 0.  1.
        -15    1    1    2    0    0  0.34178847283E+01 -0.28642985581E+01 -0.18950496165E+02  0.19549045402E+02  0.17770000000E+01 0. -1.
         15    1    1    2    0    0 -0.16611468869E+01 -0.89541008826E+00 -0.45478750716E+02  0.45552559356E+02  0.17770000000E+01 0.  1.
</event>
<event>
 6   1  0.3798113E-04  0.5005947E+03  0.7546771E-02  0.9398480E-01
        -11   -1    0    0    0    0  0.00000000000E+00  0.00000000000E+00  0.50000000000E+03  0.50000000000E+03  0.00000000000E+00 0.  1.
         11   -1    0    0    0    0 -0.00000000000E+00 -0.00000000000E+00 -0.50000000000E+03  0.50000000000E+03  0.00000000000E+00 0. -1.
        -11    1    1    2    0    0  0.69569544344E+01 -0.23715489006E+01  0.49935122227E+03  0.49940531299E+03  0.00000000000E+00 0.  1.
         11    1    1    2    0    0  0.55668446789E+01  0.13575460848E+00 -0.40193252400E+03  0.40197109603E+03  0.00000000000E+00 0. -1.
        -15    1    1    2    0    0 -0.71758373670E+01  0.26884148481E+01 -0.78085109642E+02  0.78480330612E+02  0.17770000000E+01 0.  1.
         15    1    1    2    0    0 -0.53479617462E+01 -0.45262055600E+00 -0.19333588627E+02  0.20143260372E+02  0.17770000000E+01 0. -1.
</event>
<event>
 6   1  0.3798113E-04  0.5064086E+03  0.7546771E-02  0.9385583E-01
        -11   -1    0    0    0    0  0.00000000000E+00  0.00000000000E+00  0.50000000000E+03  0.50000000000E+03  0.00000000000E+00 0. -1.
         11   -1    0    0    0    0 -0.00000000000E+00 -0.00000000000E+00 -0.50000000000E+03  0.50000000000E+03  0.00000000000E+00 0. -1.
        -11    1    1    2    0    0 -0.13430581651E+02  0.34105487340E+01  0.49339686518E+03  0.49359140889E+03  0.00000000000E+00 0. -1.
         11    1    1    2    0    0 -0.91228700028E+01 -0.11986384256E+02 -0.47314518579E+03  0.47338490365E+03  0.00000000000E+00 0. -1.
        -15    1    1    2    0    0  0.15115493325E+02  0.23733147103E+01 -0.81643683541E+01  0.17433456364E+02  0.17770000000E+01 0.  1.
         15    1    1    2    0    0  0.74379583287E+01  0.62025208116E+01 -0.12087311030E+02  0.15590231090E+02  0.17770000000E+01 0. -1.
</event>
<event>
 6   1  0.3798113E-04  0.5003737E+03  0.7546771E-02  0.9398974E-01
        -11   -1    0    0    0    0  0.00000000000E+00  0.00000000000E+00  0.50000000000E+03  0.50000000000E+03  0.00000000000E+00 0. -1.
         11   -1    0    0    0    0 -0.00000000000E+00 -0.00000000000E+00 -0.50000000000E+03  0.50000000000E+03  0.00000000000E+00 0. -1.
        -11    1    1    2    0    0  0.50019359889E+01 -0.29229747363E+01  0.11559814320E+03  0.11574322381E+03  0.00000000000E+00 0. -1.
         11    1    1    2    0    0  0.13397341426E+02 -0.48719986250E+01 -0.49942286160E+03  0.49962628015E+03  0.00000000000E+00 0. -1.
        -15    1    1    2    0    0 -0.12446482550E+02 -0.24958949769E+01  0.20962421777E+03  0.21001574900E+03  0.17770000000E+01 0.  1.
         15    1    1    2    0    0 -0.59527948643E+01  0.10290868338E+02  0.17420050063E+03  0.17461474704E+03  0.17770000000E+01 0. -1.
</event>
<event>
 6   1  0.3798113E-04  0.5002683E+03  0.7546771E-02  0.9399210E-01
        -11   -1    0    0    0    0  0.00000000000E+00  0.00000000000E+00  0.50000000000E+03  0.50000000000E+03  0.00000000000E+00 0. -1.
         11   -1    0    0    0    0 -0.00000000000E+00 -0.00000000000E+00 -0.50000000000E+03  0.50000000000E+03  0.00000000000E+00 0.  1.
        -11    1    1    2    0    0 -0.10415039878E+02 -0.11279166440E+02  0.49949585051E+03  0.49973172535E+03  0.00000000000E+00 0. -1.
         11    1    1    2    0    0 -0.34593901381E+01 -0.19327258357E+01 -0.14465012697E+03  0.14470439538E+03  0.00000000000E+00 0.  1.
        -15    1    1    2    0    0  0.10614335855E+02  0.11129343067E+02 -0.17947686001E+03  0.18014335239E+03  0.17770000000E+01 0.  1.
         15    1    1    2    0    0  0.32600941615E+01  0.20825492093E+01 -0.17536886353E+03  0.17542052688E+03  0.17770000000E+01 0. -1.
</event>
<event>
 6   1  0.3798113E-04  0.5010268E+03  0.7546771E-02  0.9397515E-01
        -11   -1    0    0    0    0  0.00000000000E+00  0.00000000000E+00  0.50000000000E+03  0.50000000000E+03  0.00000000000E+00 0. -1.
         11   -1    0    0    0    0 -0.00000000000E+00 -0.00000000000E+00 -0.50000000000E+03  0.50000000000E+03  0.00000000000E+00 0. -1.
        -11    1    1    2    0    0  0.15031156695E+02  0.16108772207E+02  0.49848649360E+03  0.49897315812E+03  0.00000000000E+00 0. -1.
         11    1    1    2    0    0 -0.22016015278E+01 -0.40963395902E+01 -0.33971099865E+03  0.33974282869E+03  0.00000000000E+00 0. -1.
        -15    1    1    2    0    0 -0.16844019535E+02 -0.89577204887E+01 -0.77524111382E+02  0.79856792604E+02  0.17770000000E+01 0. -1.
         15    1    1    2    0    0  0.40144643686E+01 -0.30547121282E+01 -0.81251383577E+02  0.81427220587E+02  0.17770000000E+01 0. -1.
</event>
<event>
 6   1  0.3798113E-04  0.5009419E+03  0.7546771E-02  0.9397705E-01
        -11   -1    0    0    0    0  0.00000000000E+00  0.00000000000E+00  0.50000000000E+03  0.50000000000E+03  0.00000000000E+00 0.  1.
         11   -1    0    0    0    0 -0.00000000000E+00 -0.00000000000E+00 -0.50000000000E+03  0.50000000000E+03  0.00000000000E+00 0. -1.
        -11    1    1    2    0    0  0.16737535321E+02 -0.11469574783E+01  0.49877601203E+03  0.49905808357E+03  0.00000000000E+00 0.  1.
         11    1    1    2    0    0 -0.53249804612E+01 -0.21525867379E+01 -0.41126926798E+03  0.41130937241E+03  0.00000000000E+00 0. -1.
        -15    1    1    2    0    0  0.15250562896E+01 -0.34627242920E+01 -0.29304513079E+02  0.29601156599E+02  0.17770000000E+01 0.  1.
         15    1    1    2    0    0 -0.12937611149E+02  0.67622685082E+01 -0.58202230964E+02  0.60031387422E+02  0.17770000000E+01 0.  1.
</event>
<event>
 6   1  0.3798113E-04  0.5114338E+03  0.7546771E-02  0.9374583E-01
        -11   -1    0    0    0    0  0.00000000000E+00  0.00000000000E+00  0.50000000000E+03  0.50000000000E+03  0.00000000000E+00 0.  1.
         11   -1    0    0    0    0 -0.00000000000E+00 -0.00000000000E+00 -0.50000000000E+03  0.50000000000E+03  0.00000000000E+00 0.  1.
        -11    1    1    2    0    0 -0.68713062191E+02 -0.19902739515E+02  0.48330047101E+03  0.48856621786E+03  0.00000000000E+00 0.  1.
         11    1    1    2    0    0 -0.49161814723E+01  0.56224092986E+01 -0.33759871030E+03  0.33768131355E+03  0.00000000000E+00 0.  1.
        -15    1    1    2    0    0  0.68181509204E+02  0.94047294492E+01 -0.71828376310E+02  0.99496937168E+02  0.17770000000E+01 0.  1.
         15    1    1    2    0    0  0.54477344591E+01  0.48756007673E+01 -0.73873384404E+02  0.74255531416E+02  0.17770000000E+01 0. -1.
</event>
<event>
 6   1  0.3798113E-04  0.5026767E+03  0.7546771E-02  0.9393840E-01
        -11   -1    0    0    0    0  0.00000000000E+00  0.00000000000E+00  0.50000000000E+03  0.50000000000E+03  0.00000000000E+00 0. -1.
         11   -1    0    0    0    0 -0.00000000000E+00 -0.00000000000E+00 -0.50000000000E+03  0.50000000000E+03  0.00000000000E+00 0. -1.
        -11    1    1    2    0    0  0.20833312190E+02  0.18188366692E+02  0.27407405174E+03  0.27546584074E+03  0.00000000000E+00 0. -1.
         11    1    1    2    0    0  0.15867610946E+02  0.24327331967E+01 -0.49706418700E+03  0.49732334076E+03  0.00000000000E+00 0. -1.
        -15    1    1    2    0    0 -0.15832768441E+02 -0.98099334811E+01  0.71958207416E+02  0.74350875549E+02  0.17770000000E+01 0. -1.
         15    1    1    2    0    0 -0.20868154695E+02 -0.10811166408E+02  0.15103192785E+03  0.15285994295E+03  0.17770000000E+01 0. -1.
</event>
<event>
 6   1  0.3798113E-04  0.5065827E+03  0.7546771E-02  0.9385200E-01
        -11   -1    0    0    0    0  0.00000000000E+00  0.00000000000E+00  0.50000000000E+03  0.50000000000E+03  0.00000000000E+00 0.  1.
         11   -1    0    0    0    0 -0.00000000000E+00 -0.00000000000E+00 -0.50000000000E+03  0.50000000000E+03  0.00000000000E+00 0. -1.
        -11    1    1    2    0    0 -0.13301968390E+02 -0.28453275011E+01  0.49322978809E+03  0.49341733057E+03  0.00000000000E+00 0.  1.
         11    1    1    2    0    0 -0.12003732582E+02  0.80282207323E+01 -0.46649423511E+03  0.46671770195E+03  0.00000000000E+00 0. -1.
        -15    1    1    2    0    0  0.17985352516E+01 -0.53640952730E+01 -0.43435336127E+01  0.73506639424E+01  0.17770000000E+01 0. -1.
         15    1    1    2    0    0  0.23507165720E+02  0.18120204172E+00 -0.22392019368E+02  0.32514303541E+02  0.17770000000E+01 0.  1.
</event>
<event>
 6   1  0.3798113E-04  0.5002891E+03  0.7546771E-02  0.9399163E-01
        -11   -1    0    0    0    0  0.00000000000E+00  0.00000000000E+00  0.50000000000E+03  0.50000000000E+03  0.00000000000E+00 0.  1.
         11   -1    0    0    0    0 -0.00000000000E+00 -0.00000000000E+00 -0.50000000000E+03  0.50000000000E+03  0.00000000000E+00 0. -1.
        -11    1    1    2    0    0  0.26961421139E+01  0.30463663554E+01  0.17826997101E+03  0.17831638201E+03  0.00000000000E+00 0.  1.
         11    1    1    2    0    0  0.15861321809E+02  0.31097235007E+01 -0.49944938639E+03  0.49971085787E+03  0.00000000000E+00 0. -1.
        -15    1    1    2    0    0 -0.50185071725E+01 -0.26849859656E+01  0.40144314688E+02  0.40584705181E+02  0.17770000000E+01 0. -1.
         15    1    1    2    0    0 -0.13538956750E+02 -0.34711038905E+01  0.28103510069E+03  0.28138805494E+03  0.17770000000E+01 0.  1.
</event>
<event>
 6   1  0.3798113E-04  0.5060799E+03  0.7546771E-02  0.9386307E-01
        -11   -1    0    0    0    0  0.00000000000E+00  0.00000000000E+00  0.50000000000E+03  0.50000000000E+03  0.00000000000E+00 0. -1.
         11   -1    0    0    0    0 -0.00000000000E+00 -0.00000000000E+00 -0.50000000000E+03  0.50000000000E+03  0.00000000000E+00 0.  1.
        -11    1    1    2    0    0  0.28871064036E+01 -0.23216211332E+02  0.38957740784E+03  0.39027923920E+03  0.00000000000E+00 0. -1.
         11    1    1    2    0    0  0.12287031514E+00 -0.20723717621E+02 -0.49348518051E+03  0.49392014633E+03  0.00000000000E+00 0.  1.
        -15    1    1    2    0    0 -0.76756799129E+01  0.28400381680E+02  0.88787349400E+02  0.93551316849E+02  0.17770000000E+01 0. -1.
         15    1    1    2    0    0  0.46657031942E+01  0.15539547274E+02  0.15120423270E+02  0.22249297621E+02  0.17770000000E+01 0.  1.
</event>
<event>
 6   1  0.3798113E-04  0.4853805E+03  0.7546771E-02  0.9433130E-01
        -11   -1    0    0    0    0  0.00000000000E+00  0.00000000000E+00  0.50000000000E+03  0.50000000000E+03  0.00000000000E+00 0.  1.
         11   -1    0    0    0    0 -0.00000000000E+00 -0.00000000000E+00 -0.50000000000E+03  0.50000000000E+03  0.00000000000E+00 0. -1.
        -11    1    1    2    0    0 -0.95729874858E+01  0.10758399529E+02  0.49120302520E+03  0.49141407918E+03  0.00000000000E+00 0.  1.
         11    1    1    2    0    0 -0.10138241064E+02  0.30712294243E+01 -0.47959786830E+03  0.47971484411E+03  0.00000000000E+00 0. -1.
        -15    1    1    2    0    0  0.15482077642E+02 -0.52870526106E+01 -0.52322964325E+01  0.17267956115E+02  0.17770000000E+01 0. -1.
         15    1    1    2    0    0  0.42291509075E+01 -0.85425763430E+01 -0.63728604726E+01  0.11603120597E+02  0.17770000000E+01 0.  1.
</event>
<event>
 6   1  0.3798113E-04  0.4940134E+03  0.7546771E-02  0.9413306E-01
        -11   -1    0    0    0    0  0.00000000000E+00  0.00000000000E+00  0.50000000000E+03  0.50000000000E+03  0.00000000000E+00 0. -1.
         11   -1    0    0    0    0 -0.00000000000E+00 -0.00000000000E+00 -0.50000000000E+03  0.50000000000E+03  0.00000000000E+00 0. -1.
        -11    1    1    2    0    0 -0.89907221064E+01 -0.92362445914E+01  0.49418266118E+03  0.49435072966E+03  0.00000000000E+00 0. -1.
         11    1    1    2    0    0  0.99573015627E+01 -0.15505605084E+01 -0.49363263256E+03  0.49373548386E+03  0.00000000000E+00 0. -1.
        -15    1    1    2    0    0 -0.17762031571E+01  0.70091932868E+01 -0.14021595612E+01  0.75767716490E+01  0.17770000000E+01 0. -1.
         15    1    1    2    0    0  0.80962370076E+00  0.37776118130E+01  0.85213093688E+00  0.43370148352E+01  0.17770000000E+01 0.  1.
</event>
<event>
 6   1  0.3798113E-04  0.5052732E+03  0.7546771E-02  0.9388087E-01
        -11   -1    0    0    0    0  0.00000000000E+00  0.00000000000E+00  0.50000000000E+03  0.50000000000E+03  0.00000000000E+00 0. -1.
         11   -1    0    0    0    0 -0.00000000000E+00 -0.00000000000E+00 -0.50000000000E+03  0.50000000000E+03  0.00000000000E+00 0. -1.
        -11    1    1    2    0    0  0.37676080433E+02 -0.17188125918E+02  0.35606865341E+03  0.35846869410E+03  0.00000000000E+00 0. -1.
         11    1    1    2    0    0 -0.65549203120E+01 -0.62525180947E+01 -0.49464382221E+03  0.49472676481E+03  0.00000000000E+00 0. -1.
        -15    1    1    2    0    0 -0.12658178108E+02  0.18845004892E+02  0.36985488513E+02  0.43433256520E+02  0.17770000000E+01 0.  1.
         15    1    1    2    0    0 -0.18462982012E+02  0.45956391206E+01  0.10158968029E+03  0.10337128458E+03  0.17770000000E+01 0. -1.
</event>
<event>
 6   1  0.3798113E-04  0.5005951E+03  0.7546771E-02  0.9398479E-01
        -11   -1    0    0    0    0  0.00000000000E+00  0.00000000000E+00  0.50000000000E+03  0.50000000000E+03  0.00000000000E+00 0.  1.
         11   -1    0    0    0    0 -0.00000000000E+00 -0.00000000000E+00 -0.50000000000E+03  0.50000000000E+03  0.00000000000E+00 0. -1.
        -11    1    1    2    0    0 -0.18770297996E+02 -0.16252307380E+01  0.14206290392E+03  0.14330678328E+03  0.00000000000E+00 0.  1.
         11    1    1    2    0    0  0.12079888885E+02  0.10530578324E+02 -0.49914772118E+03  0.49940491022E+03  0.00000000000E+00 0. -1.
        -15    1    1    2    0    0  0.30438389603E+01 -0.63411884364E+01  0.21101388842E+03  0.21113856697E+03  0.17770000000E+01 0.  1.
         15    1    1    2    0    0  0.36465701508E+01 -0.25641591501E+01  0.14607092883E+03  0.14614973953E+03  0.17770000000E+01 0.  1.
</event>
<event>
 6   1  0.3798113E-04  0.5133406E+03  0.7546771E-02  0.9370444E-01
        -11   -1    0    0    0    0  0.00000000000E+00  0.00000000000E+00  0.50000000000E+03  0.50000000000E+03  0.00000000000E+00 0. -1.
         11   -1    0    0    0    0 -0.00000000000E+00 -0.00000000000E+00 -0.50000000000E+03  0.50000000000E+03  0.00000000000E+00 0.  1.
        -11    1    1    2    0    0 -0.61215917068E+02 -0.14014042708E+02  0.37139566393E+03  0.37666765335E+03  0.00000000000E+00 0. -1.
         11    1    1    2    0    0  0.81472935673E+01 -0.27983879848E+01 -0.48658312179E+03  0.48665937140E+03  0.00000000000E+00 0.  1.
        -15    1    1    2    0    0  0.29863979102E+02  0.32931722574E+02  0.60572079109E+02  0.75156437489E+02  0.17770000000E+01 0.  1.
         15    1    1    2    0    0  0.23204644399E+02 -0.16119291881E+02  0.54615378745E+02  0.61516537751E+02  0.17770000000E+01 0. -1.
</event>
<event>
 6   1  0.3798113E-04  0.5000896E+03  0.7546771E-02  0.9399609E-01
        -11   -1    0    0    0    0  0.00000000000E+00  0.00000000000E+00  0.50000000000E+03  0.50000000000E+03  0.00000000000E+00 0. -1.
         11   -1    0    0    0    0 -0.00000000000E+00 -0.00000000000E+00 -0.50000000000E+03  0.50000000000E+03  0.00000000000E+00 0.  1.
        -11    1    1    2    0    0 -0.24538048256E+01 -0.18973340203E+02  0.29642897072E+03  0.29704569258E+03  0.00000000000E+00 0. -1.
         11    1    1    2    0    0  0.94727811679E+01  0.23843839133E+02 -0.49925158668E+03  0.49991040102E+03  0.00000000000E+00 0.  1.
        -15    1    1    2    0    0 -0.38656005031E+01 -0.26758040293E+01  0.13127909765E+03  0.13137527166E+03  0.17770000000E+01 0.  1.
         15    1    1    2    0    0 -0.31533758392E+01 -0.21946949011E+01  0.71543518308E+02  0.71668634742E+02  0.17770000000E+01 0.  1.
</event>
<event>
 6   1  0.3798113E-04  0.4817232E+03  0.7546771E-02  0.9441661E-01
        -11   -1    0    0    0    0  0.00000000000E+00  0.00000000000E+00  0.50000000000E+03  0.50000000000E+03  0.00000000000E+00 0. -1.
         11   -1    0    0    0    0 -0.00000000000E+00 -0.00000000000E+00 -0.50000000000E+03  0.50000000000E+03  0.00000000000E+00 0. -1.
        -11    1    1    2    0    0  0.11480765059E+02  0.14902007288E+02  0.48114268113E+03  0.48151028794E+03  0.00000000000E+00 0. -1.
         11    1    1    2    0    0 -0.43012309121E+01  0.13855592618E+02 -0.48217423911E+03  0.48239244905E+03  0.00000000000E+00 0. -1.
        -15    1    1    2    0    0 -0.52732800526E+01 -0.16538459342E+02  0.10549731371E+02  0.20390749886E+02  0.17770000000E+01 0. -1.
         15    1    1    2    0    0 -0.19062540943E+01 -0.12219140564E+02 -0.95181733889E+01  0.15706513122E+02  0.17770000000E+01 0.  1.
</event>
<event>
 6   1  0.3798113E-04  0.5049114E+03  0.7546771E-02  0.9388887E-01
        -11   -1    0    0    0    0  0.00000000000E+00  0.00000000000E+00  0.50000000000E+03  0.50000000000E+03  0.00000000000E+00 0. -1.
         11   -1    0    0    0    0 -0.00000000000E+00 -0.00000000000E+00 -0.50000000000E+03  0.50000000000E+03  0.00000000000E+00 0.  1.
        -11    1    1    2    0    0 -0.41296069274E+01 -0.12369590788E+02  0.49491680665E+03  0.49508858393E+03  0.00000000000E+00 0. -1.
         11    1    1    2    0    0 -0.15430651675E+01  0.95618413153E+01 -0.49117275238E+03  0.49126823889E+03  0.00000000000E+00 0.  1.
        -15    1    1    2    0    0  0.38679879744E+01  0.54256407411E+01  0.16909818386E+01  0.71004265365E+01  0.17770000000E+01 0. -1.
         15    1    1    2    0    0  0.18046841204E+01 -0.26178912685E+01 -0.54350361090E+01  0.65427506429E+01  0.17770000000E+01 0.  1.
</event>
<event>
 6   1  0.3798113E-04  0.5004489E+03  0.7546771E-02  0.9398806E-01
        -11   -1    0    0    0    0  0.00000000000E+00  0.00000000000E+00  0.50000000000E+03  0.50000000000E+03  0.00000000000E+00 0.  1.
         11   -1    0    0    0    0 -0.00000000000E+00 -0.00000000000E+00 -0.50000000000E+03  0.50000000000E+03  0.00000000000E+00 0.  1.
        -11    1    1    2    0    0  0.14164387046E+01  0.92914616784E+01  0.49946268523E+03  0.49955110999E+03  0.00000000000E+00 0.  1.
         11    1    1    2    0    0  0.21133529941E+01 -0.53141259642E+01 -0.42339850945E+03  0.42343713110E+03  0.00000000000E+00 0.  1.
        -15    1    1    2    0    0 -0.44581643117E+01 -0.68282188663E+01 -0.46524149370E+02  0.47266838328E+02  0.17770000000E+01 0. -1.
         15    1    1    2    0    0  0.92837261295E+00  0.28508831521E+01 -0.29540026413E+02  0.29744920573E+02  0.17770000000E+01 0.  1.
</event>
<event>
 6   1  0.3798113E-04  0.4927384E+03  0.7546771E-02  0.9416206E-01
        -11   -1    0    0    0    0  0.00000000000E+00  0.00000000000E+00  0.50000000000E+03  0.50000000000E+03  0.00000000000E+00 0. -1.
         11   -1    0    0    0    0 -0.00000000000E+00 -0.00000000000E+00 -0.50000000000E+03  0.50000000000E+03  0.00000000000E+00 0. -1.
        -11    1    1    2    0    0 -0.10230254819E+02 -0.38149015419E+01  0.10795469674E+02  0.15354274744E+02  0.00000000000E+00 0. -1.
         11    1    1    2    0    0  0.67401310108E+01  0.39795165196E+01 -0.49720283704E+03  0.49726444381E+03  0.00000000000E+00 0. -1.
        -15    1    1    2    0    0 -0.77026542197E+01  0.11690411631E+02  0.19242022071E+03  0.19293702515E+03  0.17770000000E+01 0.  1.
         15    1    1    2    0    0  0.11192778028E+02 -0.11855026609E+02  0.29398714666E+03  0.29444425630E+03  0.17770000000E+01 0. -1.
</event>
<event>
 6   1  0.3798113E-04  0.5026024E+03  0.7546771E-02  0.9394005E-01
        -11   -1    0    0    0    0  0.00000000000E+00  0.00000000000E+00  0.50000000000E+03  0.50000000000E+03  0.00000000000E+00 0.  1.
         11   -1    0    0    0    0 -0.00000000000E+00 -0.00000000000E+00 -0.50000000000E+03  0.50000000000E+03  0.00000000000E+00 0. -1.
        -11    1    1    2    0    0  0.12020607770E+02  0.20489655053E+01  0.44207348852E+03  0.44224163364E+03  0.00000000000E+00 0.  1.
         11    1    1    2    0    0  0.43874043943E+01  0.11543783354E+02 -0.49724425376E+03  0.49739758357E+03  0.00000000000E+00 0. -1.
        -15    1    1    2    0    0 -0.13650561429E+00 -0.13761922073E+01  0.16260558102E+02  0.16415724705E+02  0.17770000000E+01 0. -1.
         15    1    1    2    0    0 -0.16271506550E+02 -0.12216556652E+02  0.38910207136E+02  0.43945058086E+02  0.17770000000E+01 0.  1.
</event>
<event>
 6   1  0.3798113E-04  0.5046654E+03  0.7546771E-02  0.9389431E-01
        -11   -1    0    0    0    0  0.00000000000E+00  0.00000000000E+00  0.50000000000E+03  0.50000000000E+03  0.00000000000E+00 0.  1.
         11   -1    0    0    0    0 -0.00000000000E+00 -0.00000000000E+00 -0.50000000000E+03  0.50000000000E+03  0.00000000000E+00 0. -1.
        -11    1    1    2    0    0 -0.83165984760E+01  0.10110974725E+02  0.49516160266E+03  0.49533464483E+03  0.00000000000E+00 0.  1.
         11    1    1    2    0    0 -0.29867501699E+01 -0.58507716757E+01 -0.48655559047E+03  0.48659993303E+03  0.00000000000E+00 0. -1.
        -15    1    1    2    0    0  0.26938189236E+01 -0.25189316293E+01 -0.81162379987E+01  0.90902544078E+01  0.17770000000E+01 0.  1.
         15    1    1    2    0    0  0.86095297224E+01 -0.17412714202E+01 -0.48977418828E+00  0.89751677397E+01  0.17770000000E+01 0. -1.
</event>
<event>
 6   1  0.3798113E-04  0.5445327E+03  0.7546771E-02  0.9305332E-01
        -11   -1    0    0    0    0  0.00000000000E+00  0.00000000000E+00  0.50000000000E+03  0.50000000000E+03  0.00000000000E+00 0.  1.
         11   -1    0    0    0    0 -0.00000000000E+00 -0.00000000000E+00 -0.50000000000E+03  0.50000000000E+03  0.00000000000E+00 0.  1.
        -11    1    1    2    0    0 -0.10867221421E+03  0.74262687285E+02  0.43603426773E+03  0.45546731990E+03  0.00000000000E+00 0.  1.
         11    1    1    2    0    0  0.55322835492E+01 -0.90254347537E+00 -0.33528163470E+03  0.33532848867E+03  0.00000000000E+00 0.  1.
        -15    1    1    2    0    0  0.10809122007E+03 -0.74904248249E+02 -0.25769415701E+02  0.13402081471E+03  0.17770000000E+01 0.  1.
         15    1    1    2    0    0 -0.49512894049E+01  0.15441044391E+01 -0.74983217322E+02  0.75183376715E+02  0.17770000000E+01 0. -1.
</event>
<event>
 6   1  0.3798113E-04  0.5016146E+03  0.7546771E-02  0.9396204E-01
        -11   -1    0    0    0    0  0.00000000000E+00  0.00000000000E+00  0.50000000000E+03  0.50000000000E+03  0.00000000000E+00 0. -1.
         11   -1    0    0    0    0 -0.00000000000E+00 -0.00000000000E+00 -0.50000000000E+03  0.50000000000E+03  0.00000000000E+00 0.  1.
        -11    1    1    2    0    0 -0.10270036788E+02  0.17891737520E+02  0.49795823866E+03  0.49838538840E+03  0.00000000000E+00 0. -1.
         11    1    1    2    0    0  0.80375302936E+01 -0.99111272372E+01 -0.47029576925E+03  0.47046885435E+03  0.00000000000E+00 0.  1.
        -15    1    1    2    0    0 -0.37352577175E+01  0.64604144286E-01 -0.77533031959E+01  0.87879328263E+01  0.17770000000E+01 0.  1.
         15    1    1    2    0    0  0.59677642123E+01 -0.80452144269E+01 -0.19909166206E+02  0.22357824422E+02  0.17770000000E+01 0. -1.
</event>
<event>
 6   1  0.3798113E-04  0.5000789E+03  0.7546771E-02  0.9399633E-01
        -11   -1    0    0    0    0  0.00000000000E+00  0.00000000000E+00  0.50000000000E+03  0.50000000000E+03  0.00000000000E+00 0. -1.
         11   -1    0    0    0    0 -0.00000000000E+00 -0.00000000000E+00 -0.50000000000E+03  0.50000000000E+03  0.00000000000E+00 0. -1.
        -11    1    1    2    0    0 -0.87973470941E+01  0.31652309678E+01  0.49983363263E+03  0.49992106608E+03  0.00000000000E+00 0. -1.
         11    1    1    2    0    0 -0.10696447203E+01  0.23689383746E+01 -0.56407131050E+02  0.56466985417E+02  0.00000000000E+00 0. -1.
        -15    1    1    2    0    0  0.73016772602E+00 -0.85909957131E+00 -0.11807639286E+03  0.11809514587E+03  0.17770000000E+01 0. -1.
         15    1    1    2    0    0  0.91368240883E+01 -0.46750697711E+01 -0.32535010871E+03  0.32551680264E+03  0.17770000000E+01 0. -1.
</event>
<event>
 6   1  0.3798113E-04  0.5001514E+03  0.7546771E-02  0.9399471E-01
        -11   -1    0    0    0    0  0.00000000000E+00  0.00000000000E+00  0.50000000000E+03  0.50000000000E+03  0.00000000000E+00 0.  1.
         11   -1    0    0    0    0 -0.00000000000E+00 -0.00000000000E+00 -0.50000000000E+03  0.50000000000E+03  0.00000000000E+00 0.  1.
        -11    1    1    2    0    0  0.52572630570E+01  0.60151509123E+01  0.49978470838E+03  0.49984855265E+03  0.00000000000E+00 0.  1.
         11    1    1    2    0    0 -0.31609287673E+01 -0.82478959839E+01 -0.35451017651E+03  0.35462019754E+03  0.00000000000E+00 0.  1.
        -15    1    1    2    0    0 -0.85249812796E+00  0.46006068867E+01 -0.64949739027E+02  0.65142295519E+02  0.17770000000E+01 0.  1.
         15    1    1    2    0    0 -0.12438361617E+01 -0.23678618151E+01 -0.80324792844E+02  0.80388954293E+02  0.17770000000E+01 0. -1.
</event>
<event>
 6   1  0.3798113E-04  0.5031192E+03  0.7546771E-02  0.9392857E-01
        -11   -1    0    0    0    0  0.00000000000E+00  0.00000000000E+00  0.50000000000E+03  0.50000000000E+03  0.00000000000E+00 0.  1.
         11   -1    0    0    0    0 -0.00000000000E+00 -0.00000000000E+00 -0.50000000000E+03  0.50000000000E+03  0.00000000000E+00 0. -1.
        -11    1    1    2    0    0  0.96513066501E+01  0.12173390781E+02  0.45603648605E+03  0.45630101443E+03  0.00000000000E+00 0.  1.
         11    1    1    2    0    0  0.31513591257E+00  0.77174231120E+01 -0.49682073354E+03  0.49688076961E+03  0.00000000000E+00 0. -1.
        -15    1    1    2    0    0 -0.86397978259E+01 -0.12755230876E+02  0.28188673482E+02  0.32172986539E+02  0.17770000000E+01 0.  1.
         15    1    1    2    0    0 -0.13266447368E+01 -0.71355830174E+01  0.12595574006E+02  0.14645229421E+02  0.17770000000E+01 0. -1.
</event>
<event>
 6   1  0.3798113E-04  0.5008626E+03  0.7546771E-02  0.9397882E-01
        -11   -1    0    0    0    0  0.00000000000E+00  0.00000000000E+00  0.50000000000E+03  0.50000000000E+03  0.00000000000E+00 0.  1.
         11   -1    0    0    0    0 -0.00000000000E+00 -0.00000000000E+00 -0.50000000000E+03  0.50000000000E+03  0.00000000000E+00 0.  1.
        -11    1    1    2    0    0  0.24013958138E+02  0.58110087661E+01  0.15828142499E+03  0.16019815076E+03  0.00000000000E+00 0.  1.
         11    1    1    2    0    0 -0.17393729232E+02 -0.26057661663E+01 -0.49882741810E+03  0.49913738077E+03  0.00000000000E+00 0.  1.
        -15    1    1    2    0    0 -0.37710860295E+01 -0.22978699298E+00  0.11941066375E+03  0.11948363167E+03  0.17770000000E+01 0.  1.
         15    1    1    2    0    0 -0.28491428765E+01 -0.29754556069E+01  0.22113532935E+03  0.22118083680E+03  0.17770000000E+01 0.  1.
</event>
<event>
 6   1  0.3798113E-04  0.4604719E+03  0.7546771E-02  0.9492878E-01
        -11   -1    0    0    0    0  0.00000000000E+00  0.00000000000E+00  0.50000000000E+03  0.50000000000E+03  0.00000000000E+00 0.  1.
         11   -1    0    0    0    0 -0.00000000000E+00 -0.00000000000E+00 -0.50000000000E+03  0.50000000000E+03  0.00000000000E+00 0. -1.
        -11    1    1    2    0    0  0.41429200573E+02 -0.38055299157E+02  0.45448606376E+03  0.45795432808E+03  0.00000000000E+00 0.  1.
         11    1    1    2    0    0  0.90066180773E+01 -0.13128627225E+02 -0.46558315467E+03  0.46585529292E+03  0.00000000000E+00 0. -1.
        -15    1    1    2    0    0  0.46622105225E-01 -0.14501746905E+01  0.11410899160E+01  0.25622247072E+01  0.17770000000E+01 0. -1.
         15    1    1    2    0    0 -0.50482440756E+02  0.52634101073E+02  0.99560009963E+01  0.73628154298E+02  0.17770000000E+01 0.  1.
</event>
<event>
 6   1  0.3798113E-04  0.5007355E+03  0.7546771E-02  0.9398166E-01
        -11   -1    0    0    0    0  0.00000000000E+00  0.00000000000E+00  0.50000000000E+03  0.50000000000E+03  0.00000000000E+00 0. -1.
         11   -1    0    0    0    0 -0.00000000000E+00 -0.00000000000E+00 -0.50000000000E+03  0.50000000000E+03  0.00000000000E+00 0.  1.
        -11    1    1    2    0    0 -0.48855036248E+01 -0.51690380557E+01  0.40674535043E+03  0.40680753090E+03  0.00000000000E+00 0. -1.
         11    1    1    2    0    0 -0.70402034646E+01 -0.31168917874E+01 -0.49920516467E+03  0.49926453500E+03  0.00000000000E+00 0.  1.
        -15    1    1    2    0    0  0.70772510211E+01  0.78451217687E+01  0.73327777411E+02  0.74106370081E+02  0.17770000000E+01 0.  1.
         15    1    1    2    0    0  0.48484560683E+01  0.44080807431E+00  0.19132036830E+02  0.19821564021E+02  0.17770000000E+01 0. -1.
</event>
<event>
 6   1  0.3798113E-04  0.4926820E+03  0.7546771E-02  0.9416335E-01
        -11   -1    0    0    0    0  0.00000000000E+00  0.00000000000E+00  0.50000000000E+03  0.50000000000E+03  0.00000000000E+00 0.  1.
         11   -1    0    0    0    0 -0.00000000000E+00 -0.00000000000E+00 -0.50000000000E+03  0.50000000000E+03  0.00000000000E+00 0.  1.
        -11    1    1    2    0    0 -0.14887308068E+02  0.17433556415E+00  0.49366029725E+03  0.49388475519E+03  0.00000000000E+00 0.  1.
         11    1    1    2    0    0  0.98727749155E+01  0.21935404549E+01 -0.49139348043E+03  0.49149754415E+03  0.00000000000E+00 0.  1.
        -15    1    1    2    0    0  0.39907475386E+01 -0.32878266770E+01  0.47543587643E+01  0.72455176789E+01  0.17770000000E+01 0. -1.
         15    1    1    2    0    0  0.10237856139E+01  0.91995065794E+00 -0.70211755856E+01  0.73721829739E+01  0.17770000000E+01 0.  1.
</event>
<event>
 6   1  0.3798113E-04  0.5021706E+03  0.7546771E-02  0.9394966E-01
        -11   -1    0    0    0    0  0.00000000000E+00  0.00000000000E+00  0.50000000000E+03  0.50000000000E+03  0.00000000000E+00 0. -1.
         11   -1    0    0    0    0 -0.00000000000E+00 -0.00000000000E+00 -0.50000000000E+03  0.50000000000E+03  0.00000000000E+00 0. -1.
        -11    1    1    2    0    0 -0.24836854949E+02  0.16109662502E+02  0.34331197512E+03  0.34458598760E+03  0.00000000000E+00 0. -1.
         11    1    1    2    0    0  0.36528725894E+02 -0.71764901902E+01 -0.49643555032E+03  0.49782939392E+03  0.00000000000E+00 0. -1.
        -15    1    1    2    0    0 -0.18212049637E+02  0.14402448899E+01  0.13059235334E+03  0.13187597786E+03  0.17770000000E+01 0.  1.
         15    1    1    2    0    0  0.65201786921E+01 -0.10373417201E+02  0.22531221868E+02  0.25708640619E+02  0.17770000000E+01 0. -1.
</event>
<event>
 6   1  0.3798113E-04  0.5007179E+03  0.7546771E-02  0.9398205E-01
        -11   -1    0    0    0    0  0.00000000000E+00  0.00000000000E+00  0.50000000000E+03  0.50000000000E+03  0.00000000000E+00 0.  1.
         11   -1    0    0    0    0 -0.00000000000E+00 -0.00000000000E+00 -0.50000000000E+03  0.50000000000E+03  0.00000000000E+00 0.  1.
        -11    1    1    2    0    0  0.22112753432E+02  0.13007048298E+02  0.18773286723E+03  0.18947766783E+03  0.00000000000E+00 0.  1.
         11    1    1    2    0    0 -0.20790346330E+02 -0.12040773361E+02 -0.49870367019E+03  0.49928205394E+03  0.00000000000E+00 0.  1.
        -15    1    1    2    0    0 -0.19199549880E+01 -0.57101922942E+01  0.24183624538E+03  0.24191779561E+03  0.17770000000E+01 0.  1.
         15    1    1    2    0    0  0.59754788639E+00  0.47439173578E+01  0.69134557585E+02  0.69322482622E+02  0.17770000000E+01 0. -1.
</event>
<event>
 6   1  0.3798113E-04  0.5038980E+03  0.7546771E-02  0.9391130E-01
        -11   -1    0    0    0    0  0.00000000000E+00  0.00000000000E+00  0.50000000000E+03  0.50000000000E+03  0.00000000000E+00 0.  1.
         11   -1    0    0    0    0 -0.00000000000E+00 -0.00000000000E+00 -0.50000000000E+03  0.50000000000E+03  0.00000000000E+00 0. -1.
        -11    1    1    2    0    0  0.12836103174E+02 -0.12154527035E+02  0.45710524142E+03  0.45744693660E+03  0.00000000000E+00 0.  1.
         11    1    1    2    0    0 -0.41050581402E+01 -0.76253731250E+01 -0.49602636565E+03  0.49610195851E+03  0.00000000000E+00 0. -1.
        -15    1    1    2    0    0 -0.10090935037E+02  0.20517942462E+02  0.36180153234E+02  0.42836598252E+02  0.17770000000E+01 0. -1.
         15    1    1    2    0    0  0.13598900031E+01 -0.73804230171E+00  0.27409709976E+01  0.36145066426E+01  0.17770000000E+01 0.  1.
</event>
<event>
 6   1  0.3798113E-04  0.5010468E+03  0.7546771E-02  0.9397470E-01
        -11   -1    0    0    0    0  0.00000000000E+00  0.00000000000E+00  0.50000000000E+03  0.50000000000E+03  0.00000000000E+00 0.  1.
         11   -1    0    0    0    0 -0.00000000000E+00 -0.00000000000E+00 -0.50000000000E+03  0.50000000000E+03  0.00000000000E+00 0. -1.
        -11    1    1    2    0    0 -0.77732365715E+00  0.83413583785E+01  0.49888288101E+03  0.49895321570E+03  0.00000000000E+00 0.  1.
         11    1    1    2    0    0  0.67957500687E+01  0.35950949529E+01 -0.44895792406E+03  0.44902374603E+03  0.00000000000E+00 0. -1.
        -15    1    1    2    0    0 -0.22548500618E+01 -0.71609901618E+01 -0.34418686570E+02  0.35272763474E+02  0.17770000000E+01 0. -1.
         15    1    1    2    0    0 -0.37635763498E+01 -0.47754631696E+01 -0.15506270386E+02  0.16750274795E+02  0.17770000000E+01 0.  1.
</event>
<event>
 6   1  0.3798113E-04  0.5002712E+03  0.7546771E-02  0.9399203E-01
        -11   -1    0    0    0    0  0.00000000000E+00  0.00000000000E+00  0.50000000000E+03  0.50000000000E+03  0.00000000000E+00 0. -1.
         11   -1    0    0    0    0 -0.00000000000E+00 -0.00000000000E+00 -0.50000000000E+03  0.50000000000E+03  0.00000000000E+00 0. -1.
        -11    1    1    2    0    0  0.12464621845E+02  0.48824994848E+01  0.49954949916E+03  0.49972883418E+03  0.00000000000E+00 0. -1.
         11    1    1    2    0    0 -0.50921398199E+01  0.16032122271E+01 -0.30116688158E+03  0.30121419412E+03  0.00000000000E+00 0. -1.
        -15    1    1    2    0    0 -0.10654523271E+02 -0.34161136688E+01 -0.12347162980E+03  0.12399028104E+03  0.17770000000E+01 0.  1.
         15    1    1    2    0    0  0.32820412459E+01 -0.30695980431E+01 -0.74910987786E+02  0.75066690662E+02  0.17770000000E+01 0. -1.
</event>
<event>
 6   1  0.3798113E-04  0.5013722E+03  0.7546771E-02  0.9396745E-01
        -11   -1    0    0    0    0  0.00000000000E+00  0.00000000000E+00  0.50000000000E+03  0.50000000000E+03  0.00000000000E+00 0. -1.
         11   -1    0    0    0    0 -0.00000000000E+00 -0.00000000000E+00 -0.50000000000E+03  0.50000000000E+03  0.00000000000E+00 0. -1.
        -11    1    1    2    0    0  0.66664669316E+00 -0.35687972213E+02  0.49734857702E+03  0.49862779991E+03  0.00000000000E+00 0. -1.
         11    1    1    2    0    0  0.37385464686E+01  0.86049196322E+01 -0.33993949468E+03  0.34006893627E+03  0.00000000000E+00 0. -1.
        -15    1    1    2    0    0 -0.10884264643E+02  0.49443722575E+01 -0.55650896951E+02  0.56948170245E+02  0.17770000000E+01 0.  1.
         15    1    1    2    0    0  0.64790714810E+01  0.22138680323E+02 -0.10175818539E+03  0.10435509358E+03  0.17770000000E+01 0. -1.
</event>
<event>
 6   1  0.3798113E-04  0.5058000E+03  0.7546771E-02  0.9386925E-01
        -11   -1    0    0    0    0  0.00000000000E+00  0.00000000000E+00  0.50000000000E+03  0.50000000000E+03  0.00000000000E+00 0.  1.
         11   -1    0    0    0    0 -0.00000000000E+00 -0.00000000000E+00 -0.50000000000E+03  0.50000000000E+03  0.00000000000E+00 0.  1.
        -11    1    1    2    0    0  0.70348547183E+01 -0.22062918148E+02  0.49365718859E+03  0.49420004187E+03  0.00000000000E+00 0.  1.
         11    1    1    2    0    0 -0.31719218743E+01 -0.10612501964E+02 -0.44943664775E+03  0.44957311600E+03  0.00000000000E+00 0.  1.
        -15    1    1    2    0    0 -0.15901614037E+01  0.84090229385E+01 -0.51547835613E+01  0.10147403739E+02  0.17770000000E+01 0.  1.
         15    1    1    2    0    0 -0.22727714403E+01  0.24266397173E+02 -0.39065757281E+02  0.46079438395E+02  0.17770000000E+01 0. -1.
</event>
<event>
 6   1  0.3798113E-04  0.4842078E+03  0.7546771E-02  0.9435856E-01
        -11   -1    0    0    0    0  0.00000000000E+00  0.00000000000E+00  0.50000000000E+03  0.50000000000E+03  0.00000000000E+00 0.  1.
         11   -1    0    0    0    0 -0.00000000000E+00 -0.00000000000E+00 -0.50000000000E+03  0.50000000000E+03  0.00000000000E+00 0.  1.
        -11    1    1    2    0    0  0.57616342997E+01 -0.15094552891E+02  0.48070959247E+03  0.48098103315E+03  0.00000000000E+00 0.  1.
         11    1    1    2    0    0 -0.11688178731E+02  0.82607909272E+00 -0.48744029444E+03  0.48758110769E+03  0.00000000000E+00 0.  1.
        -15    1    1    2    0    0  0.16273862230E+02  0.79521674419E+01  0.60015504159E+01  0.19163817347E+02  0.17770000000E+01 0.  1.
         15    1    1    2    0    0 -0.10347317799E+02  0.63163063566E+01  0.72915155428E+00  0.12274041820E+02  0.17770000000E+01 0. -1.
</event>
<event>
 6   1  0.3798113E-04  0.5061446E+03  0.7546771E-02  0.9386165E-01
        -11   -1    0    0    0    0  0.00000000000E+00  0.00000000000E+00  0.50000000000E+03  0.50000000000E+03  0.00000000000E+00 0. -1.
         11   -1    0    0    0    0 -0.00000000000E+00 -0.00000000000E+00 -0.50000000000E+03  0.50000000000E+03  0.00000000000E+00 0. -1.
        -11    1    1    2    0    0  0.16669943270E+02  0.54097384945E+01  0.49354436928E+03  0.49385544112E+03  0.00000000000E+00 0. -1.
         11    1    1    2    0    0 -0.56012003923E+01 -0.55212037908E+01 -0.48091249933E+03  0.48097680729E+03  0.00000000000E+00 0. -1.
        -15    1    1    2    0    0 -0.13388838286E+02 -0.60352407726E+01 -0.10070122038E+02  0.17895535999E+02  0.17770000000E+01 0. -1.
         15    1    1    2    0    0  0.23200954084E+01  0.61467060690E+01 -0.25617479095E+01  0.72722155877E+01  0.17770000000E+01 0.  1.
</event>
<event>
 6   1  0.3798113E-04  0.4685803E+03  0.7546771E-02  0.9472995E-01
        -11   -1    0    0    0    0  0.00000000000E+00  0.00000000000E+00  0.50000000000E+03  0.50000000000E+03  0.00000000000E+00 0.  1.
         11   -1    0    0    0    0 -0.00000000000E+00 -0.00000000000E+00 -0.50000000000E+03  0.50000000000E+03  0.00000000000E+00 0.  1.
        -11    1    1    2    0    0 -0.17087273582E+02 -0.38712388070E+02  0.47149122480E+03  0.47338631050E+03  0.00000000000E+00 0.  1.
         11    1    1    2    0    0  0.29450557882E+01 -0.99214875169E+01 -0.46504896219E+03  0.46516410707E+03  0.00000000000E+00 0.  1.
        -15    1    1    2    0    0  0.16915086302E+02  0.46551502213E+02  0.45668628044E+01  0.49771241372E+02  0.17770000000E+01 0.  1.
         15    1    1    2    0    0 -0.27728685079E+01  0.20823733741E+01 -0.11009125409E+02  0.11678341060E+02  0.17770000000E+01 0. -1.
</event>
<event>
 6   1  0.3798113E-04  0.4940506E+03  0.7546771E-02  0.9413221E-01
        -11   -1    0    0    0    0  0.00000000000E+00  0.00000000000E+00  0.50000000000E+03  0.50000000000E+03  0.00000000000E+00 0.  1.
         11   -1    0    0    0    0 -0.00000000000E+00 -0.00000000000E+00 -0.50000000000E+03  0.50000000000E+03  0.00000000000E+00 0.  1.
        -11    1    1    2    0    0  0.10886393259E+02  0.44935604320E+01  0.37051983125E+01  0.12346422076E+02  0.00000000000E+00 0.  1.
         11    1    1    2    0    0 -0.13012558980E+02  0.13560875045E+01 -0.49530994341E+03  0.49548269970E+03  0.00000000000E+00 0.  1.
        -15    1    1    2    0    0 -0.72851815936E+01 -0.92772499920E+01  0.17688680458E+03  0.17728858001E+03  0.17770000000E+01 0.  1.
         15    1    1    2    0    0  0.94113473142E+01  0.34276020556E+01  0.31471794052E+03  0.31488229821E+03  0.17770000000E+01 0. -1.
</event>
<event>
 6   1  0.3798113E-04  0.5013184E+03  0.7546771E-02  0.9396864E-01
        -11   -1    0    0    0    0  0.00000000000E+00  0.00000000000E+00  0.50000000000E+03  0.50000000000E+03  0.00000000000E+00 0.  1.
         11   -1    0    0    0    0 -0.00000000000E+00 -0.00000000000E+00 -0.50000000000E+03  0.50000000000E+03  0.00000000000E+00 0. -1.
        -11    1    1    2    0    0  0.28759592250E+02 -0.13474243730E+02  0.49766921982E+03  0.49868158353E+03  0.00000000000E+00 0.  1.
         11    1    1    2    0    0  0.10502684134E+01  0.11233289660E+01 -0.73204650777E+02  0.73220801874E+02  0.00000000000E+00 0. -1.
        -15    1    1    2    0    0 -0.86045846109E-01  0.13833357651E+02 -0.29141708667E+03  0.29175065607E+03  0.17770000000E+01 0. -1.
         15    1    1    2    0    0 -0.29723814817E+02 -0.14824428876E+01 -0.13304748237E+03  0.13634695853E+03  0.17770000000E+01 0.  1.
</event>
<event>
 6   1  0.3798113E-04  0.5004475E+03  0.7546771E-02  0.9398809E-01
        -11   -1    0    0    0    0  0.00000000000E+00  0.00000000000E+00  0.50000000000E+03  0.50000000000E+03  0.00000000000E+00 0. -1.
         11   -1    0    0    0    0 -0.00000000000E+00 -0.00000000000E+00 -0.50000000000E+03  0.50000000000E+03  0.00000000000E+00 0.  1.
        -11    1    1    2    0    0  0.14135681750E+02 -0.17476681263E+02  0.49904654422E+03  0.49955250494E+03  0.00000000000E+00 0. -1.
         11    1    1    2    0    0 -0.68458210990E+01 -0.17541652843E+01 -0.17004413907E+03  0.17019092688E+03  0.00000000000E+00 0.  1.
        -15    1    1    2    0    0 -0.14120778599E+02  0.14049474974E+02 -0.22878347341E+03  0.22965587206E+03  0.17770000000E+01 0. -1.
         15    1    1    2    0    0  0.68309179488E+01  0.51813715732E+01 -0.10021893174E+03  0.10060069612E+03  0.17770000000E+01 0.  1.
</event>
<event>
 6   1  0.3798113E-04  0.4924183E+03  0.7546771E-02  0.9416936E-01
        -11   -1    0    0    0    0  0.00000000000E+00  0.00000000000E+00  0.50000000000E+03  0.50000000000E+03  0.00000000000E+00 0. -1.
         11   -1    0    0    0    0 -0.00000000000E+00 -0.00000000000E+00 -0.50000000000E+03  0.50000000000E+03  0.00000000000E+00 0. -1.
        -11    1    1    2    0    0 -0.20501431386E+01  0.72794778887E+01  0.48995354703E+03  0.49001191020E+03  0.00000000000E+00 0. -1.
         11    1    1    2    0    0 -0.60501132328E+01 -0.41704386241E+01 -0.49482046177E+03  0.49487502039E+03  0.00000000000E+00 0. -1.
        -15    1    1    2    0    0 -0.99552408756E-01  0.12599765956E+01 -0.23567185673E+01  0.32108103508E+01  0.17770000000E+01 0.  1.
         15    1    1    2    0    0  0.81998087802E+01 -0.43690158602E+01  0.72236333017E+01  0.11902259059E+02  0.17770000000E+01 0. -1.
</event>
<event>
 6   1  0.3798113E-04  0.4575482E+03  0.7546771E-02  0.9500154E-01
        -11   -1    0    0    0    0  0.00000000000E+00  0.00000000000E+00  0.50000000000E+03  0.50000000000E+03  0.00000000000E+00 0. -1.
         11   -1    0    0    0    0 -0.00000000000E+00 -0.00000000000E+00 -0.50000000000E+03  0.50000000000E+03  0.00000000000E+00 0.  1.
        -11    1    1    2    0    0  0.38985181258E+02  0.56294280711E+02  0.45961247260E+03  0.46468539397E+03  0.00000000000E+00 0. -1.
         11    1    1    2    0    0  0.61084249154E+01  0.16873827371E+00 -0.45324049096E+03  0.45328168281E+03  0.00000000000E+00 0.  1.
        -15    1    1    2    0    0 -0.48763595232E+02 -0.49964778930E+02 -0.13984157590E+02  0.71225569468E+02  0.17770000000E+01 0. -1.
         15    1    1    2    0    0  0.36699890589E+01 -0.64982400552E+01  0.76121759520E+01  0.10807353757E+02  0.17770000000E+01 0.  1.
</event>
<event>
 6   1  0.3798113E-04  0.5001110E+03  0.7546771E-02  0.9399561E-01
        -11   -1    0    0    0    0  0.00000000000E+00  0.00000000000E+00  0.50000000000E+03  0.50000000000E+03  0.00000000000E+00 0. -1.
         11   -1    0    0    0    0 -0.00000000000E+00 -0.00000000000E+00 -0.50000000000E+03  0.50000000000E+03  0.00000000000E+00 0. -1.
        -11    1    1    2    0    0 -0.49716624916E+01 -0.98021709669E+01  0.21092229984E+03  0.21120846705E+03  0.00000000000E+00 0. -1.
         11    1    1    2    0    0  0.11682632049E+02  0.80166850442E+01 -0.49968815414E+03  0.49988899019E+03  0.00000000000E+00 0. -1.
        -15    1    1    2    0    0 -0.24314097140E+01  0.11101890029E+01  0.57670388077E+02  0.57759636969E+02  0.17770000000E+01 0. -1.
         15    1    1    2    0    0 -0.42795598438E+01  0.67529691971E+00  0.23109546622E+03  0.23114290579E+03  0.17770000000E+01 0. -1.
</event>
<event>
 6   1  0.3798113E-04  0.4834182E+03  0.7546771E-02  0.9437697E-01
        -11   -1    0    0    0    0  0.00000000000E+00  0.00000000000E+00  0.50000000000E+03  0.50000000000E+03  0.00000000000E+00 0. -1.
         11   -1    0    0    0    0 -0.00000000000E+00 -0.00000000000E+00 -0.50000000000E+03  0.50000000000E+03  0.00000000000E+00 0.  1.
        -11    1    1    2    0    0  0.12937216247E+02  0.50882779583E+01  0.47521580486E+03  0.47541910282E+03  0.00000000000E+00 0. -1.
         11    1    1    2    0    0  0.89969850971E+01  0.11278683627E+02 -0.49173389326E+03  0.49194550127E+03  0.00000000000E+00 0.  1.
        -15    1    1    2    0    0 -0.18899358246E+02 -0.12740939151E+02  0.15064454981E+02  0.27379057789E+02  0.17770000000E+01 0.  1.
         15    1    1    2    0    0 -0.30348430982E+01 -0.36260224344E+01  0.14536334157E+01  0.52563381201E+01  0.17770000000E+01 0. -1.
</event>
<event>
 6   1  0.3798113E-04  0.5010185E+03  0.7546771E-02  0.9397534E-01
        -11   -1    0    0    0    0  0.00000000000E+00  0.00000000000E+00  0.50000000000E+03  0.50000000000E+03  0.00000000000E+00 0. -1.
         11   -1    0    0    0    0 -0.00000000000E+00 -0.00000000000E+00 -0.50000000000E+03  0.50000000000E+03  0.00000000000E+00 0. -1.
        -11    1    1    2    0    0 -0.44753210641E+01  0.36055056904E+01  0.69465553317E+01  0.90156974709E+01  0.00000000000E+00 0. -1.
         11    1    1    2    0    0  0.11279744022E+02 -0.10898320416E+02 -0.49873492827E+03  0.49898149734E+03  0.00000000000E+00 0. -1.
        -15    1    1    2    0    0  0.64289805994E+00  0.52457054102E+00  0.18414196463E+02  0.18518338278E+02  0.17770000000E+01 0. -1.
         15    1    1    2    0    0 -0.74473210181E+01  0.67682441845E+01  0.47337417648E+03  0.47348446691E+03  0.17770000000E+01 0. -1.
</event>
<event>
 6   1  0.3798113E-04  0.5033686E+03  0.7546771E-02  0.9392304E-01
        -11   -1    0    0    0    0  0.00000000000E+00  0.00000000000E+00  0.50000000000E+03  0.50000000000E+03  0.00000000000E+00 0. -1.
         11   -1    0    0    0    0 -0.00000000000E+00 -0.00000000000E+00 -0.50000000000E+03  0.50000000000E+03  0.00000000000E+00 0. -1.
        -11    1    1    2    0    0  0.38555925816E+00  0.13650728534E+02  0.49644363719E+03  0.49663142868E+03  0.00000000000E+00 0. -1.
         11    1    1    2    0    0  0.69773697475E+01  0.39660455741E+00 -0.46863790899E+03  0.46869001560E+03  0.00000000000E+00 0. -1.
        -15    1    1    2    0    0 -0.10324784092E+02 -0.11862767663E+02 -0.17516881632E+02  0.23607738018E+02  0.17770000000E+01 0. -1.
         15    1    1    2    0    0  0.29618550867E+01 -0.21845654278E+01 -0.10288846573E+02  0.11070817696E+02  0.17770000000E+01 0.  1.
</event>
<event>
 6   1  0.3798113E-04  0.5011436E+03  0.7546771E-02  0.9397254E-01
        -11   -1    0    0    0    0  0.00000000000E+00  0.00000000000E+00  0.50000000000E+03  0.50000000000E+03  0.00000000000E+00 0.  1.
         11   -1    0    0    0    0 -0.00000000000E+00 -0.00000000000E+00 -0.50000000000E+03  0.50000000000E+03  0.00000000000E+00 0.  1.
        -11    1    1    2    0    0  0.12871485153E+02 -0.50519489142E+01  0.49866468182E+03  0.49885635429E+03  0.00000000000E+00 0.  1.
         11    1    1    2    0    0 -0.10809943493E+02 -0.56025445919E+01 -0.45211228097E+03  0.45227619657E+03  0.00000000000E+00 0.  1.
        -15    1    1    2    0    0 -0.22187244183E+01  0.38572461327E+01 -0.35138161676E+02  0.35463350388E+02  0.17770000000E+01 0. -1.
         15    1    1    2    0    0  0.15718275841E+00  0.67972473734E+01 -0.11414239178E+02  0.13404098749E+02  0.17770000000E+01 0.  1.
</event>
<event>
 6   1  0.3798113E-04  0.5029460E+03  0.7546771E-02  0.9393242E-01
        -11   -1    0    0    0    0  0.00000000000E+00  0.00000000000E+00  0.50000000000E+03  0.50000000000E+03  0.00000000000E+00 0. -1.
         11   -1    0    0    0    0 -0.00000000000E+00 -0.00000000000E+00 -0.50000000000E+03  0.50000000000E+03  0.00000000000E+00 0. -1.
        -11    1    1    2    0    0  0.47563221936E+01 -0.10042760304E+02  0.45190135406E+03  0.45203795575E+03  0.00000000000E+00 0. -1.
         11    1    1    2    0    0  0.14483974896E+02 -0.26210628270E+01 -0.49683603081E+03  0.49705401820E+03  0.00000000000E+00 0. -1.
        -15    1    1    2    0    0 -0.17289413562E+01  0.25191236707E+01  0.82148555457E+01  0.89429750597E+01  0.17770000000E+01 0.  1.
         15    1    1    2    0    0 -0.17511355733E+02  0.10144699460E+02  0.36719821201E+02  0.41965050992E+02  0.17770000000E+01 0. -1.
</event>
<event>
 6   1  0.3798113E-04  0.5102544E+03  0.7546771E-02  0.9377153E-01
        -11   -1    0    0    0    0  0.00000000000E+00  0.00000000000E+00  0.50000000000E+03  0.50000000000E+03  0.00000000000E+00 0. -1.
         11   -1    0    0    0    0 -0.00000000000E+00 -0.00000000000E+00 -0.50000000000E+03  0.50000000000E+03  0.00000000000E+00 0. -1.
        -11    1    1    2    0    0 -0.48209551739E+01  0.24523912966E+02  0.44682511338E+03  0.44752357017E+03  0.00000000000E+00 0. -1.
         11    1    1    2    0    0  0.77942796759E+00  0.88390717622E+01 -0.48966517881E+03  0.48974557072E+03  0.00000000000E+00 0. -1.
        -15    1    1    2    0    0 -0.46620935818E+01 -0.22707143556E+02  0.42971282487E+02  0.48857326294E+02  0.17770000000E+01 0. -1.
         15    1    1    2    0    0  0.87036207881E+01 -0.10655841172E+02 -0.13121705598E+00  0.13873532817E+02  0.17770000000E+01 0.  1.
</event>
<event>
 6   1  0.3798113E-04  0.5002366E+03  0.7546771E-02  0.9399280E-01
        -11   -1    0    0    0    0  0.00000000000E+00  0.00000000000E+00  0.50000000000E+03  0.50000000000E+03  0.00000000000E+00 0. -1.
         11   -1    0    0    0    0 -0.00000000000E+00 -0.00000000000E+00 -0.50000000000E+03  0.50000000000E+03  0.00000000000E+00 0.  1.
        -11    1    1    2    0    0 -0.80146387940E+01  0.87353496510E+00  0.37932957534E+03  0.37941523985E+03  0.00000000000E+00 0. -1.
         11    1    1    2    0    0  0.42293363856E+01  0.65831376652E+01 -0.49970210890E+03  0.49976336664E+03  0.00000000000E+00 0.  1.
        -15    1    1    2    0    0  0.16906917766E+01 -0.70693271517E+01  0.96094033971E+02  0.96384930974E+02  0.17770000000E+01 0. -1.
         15    1    1    2    0    0  0.20946106317E+01 -0.38734547866E+00  0.24278499592E+02  0.24436462544E+02  0.17770000000E+01 0.  1.
</event>
<event>
 6   1  0.3798113E-04  0.4852922E+03  0.7546771E-02  0.9433334E-01
        -11   -1    0    0    0    0  0.00000000000E+00  0.00000000000E+00  0.50000000000E+03  0.50000000000E+03  0.00000000000E+00 0.  1.
         11   -1    0    0    0    0 -0.00000000000E+00 -0.00000000000E+00 -0.50000000000E+03  0.50000000000E+03  0.00000000000E+00 0. -1.
        -11    1    1    2    0    0  0.17467559361E+02  0.72697044181E+01  0.47937646486E+03  0.47974968399E+03  0.00000000000E+00 0.  1.
         11    1    1    2    0    0  0.44074872490E+01 -0.13986646890E+02 -0.49095457922E+03  0.49117354478E+03  0.00000000000E+00 0. -1.
        -15    1    1    2    0    0 -0.19755486964E+02  0.10349894044E+01  0.62832866341E+01  0.20832375961E+02  0.17770000000E+01 0.  1.
         15    1    1    2    0    0 -0.21195596457E+01  0.56819530672E+01  0.52948277244E+01  0.82443952708E+01  0.17770000000E+01 0. -1.
</event>
<event>
 6   1  0.3798113E-04  0.5050086E+03  0.7546771E-02  0.9388672E-01
        -11   -1    0    0    0    0  0.00000000000E+00  0.00000000000E+00  0.50000000000E+03  0.50000000000E+03  0.00000000000E+00 0. -1.
         11   -1    0    0    0    0 -0.00000000000E+00 -0.00000000000E+00 -0.50000000000E+03  0.50000000000E+03  0.00000000000E+00 0. -1.
        -11    1    1    2    0    0 -0.10092400437E+02 -0.14957968721E+02  0.43583945164E+03  0.43621282074E+03  0.00000000000E+00 0. -1.
         11    1    1    2    0    0 -0.46557101438E+01 -0.91214383492E+01 -0.49488542752E+03  0.49499137633E+03  0.00000000000E+00 0. -1.
        -15    1    1    2    0    0  0.57485140157E+01 -0.20668568890E+01  0.51155774176E+01  0.81635881880E+01  0.17770000000E+01 0. -1.
         15    1    1    2    0    0  0.89995965656E+01  0.26146263959E+02  0.53930398462E+02  0.60632214743E+02  0.17770000000E+01 0.  1.
</event>
<event>
 6   1  0.3798113E-04  0.5008809E+03  0.7546771E-02  0.9397841E-01
        -11   -1    0    0    0    0  0.00000000000E+00  0.00000000000E+00  0.50000000000E+03  0.50000000000E+03  0.00000000000E+00 0. -1.
         11   -1    0    0    0    0 -0.00000000000E+00 -0.00000000000E+00 -0.50000000000E+03  0.50000000000E+03  0.00000000000E+00 0.  1.
        -11    1    1    2    0    0 -0.86580804636E+01 -0.83506031431E+00  0.49904328415E+03  0.49911908312E+03  0.00000000000E+00 0. -1.
         11    1    1    2    0    0  0.35541425189E+01  0.79060950336E+01 -0.44892666205E+03  0.44901034083E+03  0.00000000000E+00 0.  1.
        -15    1    1    2    0    0  0.61215206667E+01 -0.46620444798E+01 -0.46035849912E+02  0.46708295624E+02  0.17770000000E+01 0. -1.
         15    1    1    2    0    0 -0.10175827220E+01 -0.24089902395E+01 -0.40807721829E+01  0.51622804243E+01  0.17770000000E+01 0.  1.
</event>
<event>
 6   1  0.3798113E-04  0.5092554E+03  0.7546771E-02  0.9379335E-01
        -11   -1    0    0    0    0  0.00000000000E+00  0.00000000000E+00  0.50000000000E+03  0.50000000000E+03  0.00000000000E+00 0.  1.
         11   -1    0    0    0    0 -0.00000000000E+00 -0.00000000000E+00 -0.50000000000E+03  0.50000000000E+03  0.00000000000E+00 0. -1.
        -11    1    1    2    0    0 -0.29971365721E+02 -0.42564486603E+02  0.33110953808E+03  0.33517688538E+03  0.00000000000E+00 0.  1.
         11    1    1    2    0    0 -0.97233345846E+01 -0.70126317891E+01 -0.49059819713E+03  0.49074464976E+03  0.00000000000E+00 0. -1.
        -15    1    1    2    0    0  0.26498280008E+01  0.21927071338E+01  0.28387211043E+00  0.38817348420E+01  0.17770000000E+01 0. -1.
         15    1    1    2    0    0  0.37044872304E+02  0.47384411259E+02  0.15920478694E+03  0.17019673002E+03  0.17770000000E+01 0.  1.
</event>
<event>
 6   1  0.3798113E-04  0.5017678E+03  0.7546771E-02  0.9395863E-01
        -11   -1    0    0    0    0  0.00000000000E+00  0.00000000000E+00  0.50000000000E+03  0.50000000000E+03  0.00000000000E+00 0.  1.
         11   -1    0    0    0    0 -0.00000000000E+00 -0.00000000000E+00 -0.50000000000E+03  0.50000000000E+03  0.00000000000E+00 0.  1.
        -11    1    1    2    0    0  0.16364433073E+01  0.25264097399E+02  0.49758859168E+03  0.49823223414E+03  0.00000000000E+00 0.  1.
         11    1    1    2    0    0 -0.11793535840E+02  0.10298152704E+02 -0.28018662016E+03  0.28062373662E+03  0.00000000000E+00 0.  1.
        -15    1    1    2    0    0  0.12158230714E+02 -0.15227230766E+02 -0.90073370333E+02  0.92174079345E+02  0.17770000000E+01 0.  1.
         15    1    1    2    0    0 -0.20011381812E+01 -0.20335019336E+02 -0.12732860119E+03  0.12896994989E+03  0.17770000000E+01 0. -1.
</event>
<event>
 6   1  0.3798113E-04  0.5003602E+03  0.7546771E-02  0.9399004E-01
        -11   -1    0    0    0    0  0.00000000000E+00  0.00000000000E+00  0.50000000000E+03  0.50000000000E+03  0.00000000000E+00 0. -1.
         11   -1    0    0    0    0 -0.00000000000E+00 -0.00000000000E+00 -0.50000000000E+03  0.50000000000E+03  0.00000000000E+00 0. -1.
        -11    1    1    2    0    0 -0.29420169516E+01  0.95643233850E+01  0.49953953927E+03  0.49963975326E+03  0.00000000000E+00 0. -1.
         11    1    1    2    0    0 -0.84117255114E+01 -0.16097386472E+00 -0.30509296247E+03  0.30520894283E+03  0.00000000000E+00 0. -1.
        -15    1    1    2    0    0  0.43913289026E+00 -0.35421865406E+01 -0.54906702369E+02  0.55051281704E+02  0.17770000000E+01 0.  1.
         15    1    1    2    0    0  0.10914609573E+02 -0.58611629796E+01 -0.13953987444E+03  0.14010002220E+03  0.17770000000E+01 0. -1.
</event>
<event>
 6   1  0.3798113E-04  0.5003749E+03  0.7546771E-02  0.9398971E-01
        -11   -1    0    0    0    0  0.00000000000E+00  0.00000000000E+00  0.50000000000E+03  0.50000000000E+03  0.00000000000E+00 0. -1.
         11   -1    0    0    0    0 -0.00000000000E+00 -0.00000000000E+00 -0.50000000000E+03  0.50000000000E+03  0.00000000000E+00 0. -1.
        -11    1    1    2    0    0 -0.13315316100E+02  0.17199194440E+01  0.49944469020E+03  0.49962511379E+03  0.00000000000E+00 0. -1.
         11    1    1    2    0    0 -0.38633632289E+01 -0.18789020278E+01 -0.31442587720E+03  0.31445522432E+03  0.00000000000E+00 0. -1.
        -15    1    1    2    0    0  0.84646260357E+01  0.18008114206E+01 -0.72094282114E+02  0.72633573905E+02  0.17770000000E+01 0. -1.
         15    1    1    2    0    0  0.87140532930E+01 -0.16418288368E+01 -0.11292453088E+03  0.11328608798E+03  0.17770000000E+01 0.  1.
</event>
<event>
 6   1  0.3798113E-04  0.5005616E+03  0.7546771E-02  0.9398554E-01
        -11   -1    0    0    0    0  0.00000000000E+00  0.00000000000E+00  0.50000000000E+03  0.50000000000E+03  0.00000000000E+00 0. -1.
         11   -1    0    0    0    0 -0.00000000000E+00 -0.00000000000E+00 -0.50000000000E+03  0.50000000000E+03  0.00000000000E+00 0. -1.
        -11    1    1    2    0    0 -0.19618646037E+02 -0.34947078092E+01  0.49904066890E+03  0.49943837805E+03  0.00000000000E+00 0. -1.
         11    1    1    2    0    0 -0.28047406887E+01  0.14000057945E+01 -0.21151525093E+03  0.21153847868E+03  0.00000000000E+00 0. -1.
        -15    1    1    2    0    0  0.82191894270E+00 -0.31062972084E+01 -0.11566952068E+03  0.11572778568E+03  0.17770000000E+01 0.  1.
         15    1    1    2    0    0  0.21601467783E+02  0.52009992231E+01 -0.17185589729E+03  0.17329535760E+03  0.17770000000E+01 0. -1.
</event>
<event>
 6   1  0.3798113E-04  0.5016802E+03  0.7546771E-02  0.9396058E-01
        -11   -1    0    0    0    0  0.00000000000E+00  0.00000000000E+00  0.50000000000E+03  0.50000000000E+03  0.00000000000E+00 0.  1.
         11   -1    0    0    0    0 -0.00000000000E+00 -0.00000000000E+00 -0.50000000000E+03  0.50000000000E+03  0.00000000000E+00 0. -1.
        -11    1    1    2    0    0 -0.14326898159E+02 -0.66449325141E+01  0.49806947168E+03  0.49831979066E+03  0.00000000000E+00 0.  1.
         11    1    1    2    0    0  0.56430494192E+01  0.63737357397E+01 -0.45539769481E+03  0.45547725404E+03  0.00000000000E+00 0. -1.
        -15    1    1    2    0    0  0.94834542847E+01  0.58270071002E+01 -0.33087969771E+02  0.34955133951E+02  0.17770000000E+01 0.  1.
         15    1    1    2    0    0 -0.79960554443E+00 -0.55558103258E+01 -0.95838071058E+01  0.11247821347E+02  0.17770000000E+01 0. -1.
</event>
<event>
 6   1  0.3798113E-04  0.5029943E+03  0.7546771E-02  0.9393135E-01
        -11   -1    0    0    0    0  0.00000000000E+00  0.00000000000E+00  0.50000000000E+03  0.50000000000E+03  0.00000000000E+00 0.  1.
         11   -1    0    0    0    0 -0.00000000000E+00 -0.00000000000E+00 -0.50000000000E+03  0.50000000000E+03  0.00000000000E+00 0.  1.
        -11    1    1    2    0    0  0.55704664584E+01  0.13698223416E+02  0.49678570241E+03  0.49700573994E+03  0.00000000000E+00 0.  1.
         11    1    1    2    0    0  0.64786973335E+01 -0.59426203163E+00 -0.46655309669E+03  0.46659845553E+03  0.00000000000E+00 0.  1.
        -15    1    1    2    0    0 -0.83405760902E+01 -0.12117697951E+02 -0.27838009796E+02  0.31535952999E+02  0.17770000000E+01 0. -1.
         15    1    1    2    0    0 -0.37085877017E+01 -0.98626343319E+00 -0.23945959180E+01  0.48598515319E+01  0.17770000000E+01 0.  1.
</event>
<event>
 6   1  0.3798113E-04  0.5006538E+03  0.7546771E-02  0.9398348E-01
        -11   -1    0    0    0    0  0.00000000000E+00  0.00000000000E+00  0.50000000000E+03  0.50000000000E+03  0.00000000000E+00 0. -1.
         11   -1    0    0    0    0 -0.00000000000E+00 -0.00000000000E+00 -0.50000000000E+03  0.50000000000E+03  0.00000000000E+00 0. -1.
        -11    1    1    2    0    0  0.95394644203E+01  0.34777794214E+02  0.24433224033E+03  0.24697922993E+03  0.00000000000E+00 0. -1.
         11    1    1    2    0    0 -0.36308090880E+01 -0.38890782896E+02 -0.49781622747E+03  0.49934624470E+03  0.00000000000E+00 0. -1.
        -15    1    1    2    0    0 -0.46187362669E+01  0.32591953936E+01  0.22918506241E+03  0.22926165323E+03  0.17770000000E+01 0. -1.
         15    1    1    2    0    0 -0.12899190653E+01  0.85379328877E+00  0.24298924732E+02  0.24412872144E+02  0.17770000000E+01 0. -1.
</event>
<event>
 6   1  0.3798113E-04  0.5003298E+03  0.7546771E-02  0.9399072E-01
        -11   -1    0    0    0    0  0.00000000000E+00  0.00000000000E+00  0.50000000000E+03  0.50000000000E+03  0.00000000000E+00 0.  1.
         11   -1    0    0    0    0 -0.00000000000E+00 -0.00000000000E+00 -0.50000000000E+03  0.50000000000E+03  0.00000000000E+00 0. -1.
        -11    1    1    2    0    0  0.10880933767E+02 -0.48214926652E+01  0.23976383862E+03  0.24005903403E+03  0.00000000000E+00 0.  1.
         11    1    1    2    0    0 -0.55112341310E+01  0.22856902293E+02 -0.49911667639E+03  0.49967015954E+03  0.00000000000E+00 0. -1.
        -15    1    1    2    0    0 -0.68160149016E+01 -0.18031578145E+02  0.24083185384E+03  0.24160864103E+03  0.17770000000E+01 0.  1.
         15    1    1    2    0    0  0.14463152659E+01 -0.38314833509E-02  0.18520983935E+02  0.18662165401E+02  0.17770000000E+01 0. -1.
</event>
<event>
 6   1  0.3798113E-04  0.5004035E+03  0.7546771E-02  0.9398907E-01
        -11   -1    0    0    0    0  0.00000000000E+00  0.00000000000E+00  0.50000000000E+03  0.50000000000E+03  0.00000000000E+00 0.  1.
         11   -1    0    0    0    0 -0.00000000000E+00 -0.00000000000E+00 -0.50000000000E+03  0.50000000000E+03  0.00000000000E+00 0. -1.
        -11    1    1    2    0    0  0.54430488918E+01  0.95799162065E+00  0.17555580568E+02  0.18404970478E+02  0.00000000000E+00 0.  1.
         11    1    1    2    0    0 -0.94934713693E+01  0.44626053459E+01 -0.49948631423E+03  0.49959645610E+03  0.00000000000E+00 0. -1.
        -15    1    1    2    0    0  0.35999210641E+01 -0.30958322983E+01  0.27596244621E+03  0.27600900901E+03  0.17770000000E+01 0.  1.
         15    1    1    2    0    0  0.45050141341E+00 -0.23247646683E+01  0.20596828745E+03  0.20598956441E+03  0.17770000000E+01 0.  1.
</event>
<event>
 6   1  0.3798113E-04  0.5256704E+03  0.7546771E-02  0.9344134E-01
        -11   -1    0    0    0    0  0.00000000000E+00  0.00000000000E+00  0.50000000000E+03  0.50000000000E+03  0.00000000000E+00 0. -1.
         11   -1    0    0    0    0 -0.00000000000E+00 -0.00000000000E+00 -0.50000000000E+03  0.50000000000E+03  0.00000000000E+00 0.  1.
        -11    1    1    2    0    0  0.49590148217E+02 -0.20739885505E+02  0.23565154462E+03  0.24170431550E+03  0.00000000000E+00 0. -1.
         11    1    1    2    0    0 -0.37866912682E+02  0.17999851893E+02 -0.47247294141E+03  0.47432960914E+03  0.00000000000E+00 0.  1.
        -15    1    1    2    0    0  0.64304414265E+02  0.14130176744E+01  0.47621501462E+02  0.80050105830E+02  0.17770000000E+01 0. -1.
         15    1    1    2    0    0 -0.76027649801E+02  0.13270159378E+01  0.18919989533E+03  0.20391596953E+03  0.17770000000E+01 0.  1.
</event>
<event>
 6   1  0.3798113E-04  0.4912950E+03  0.7546771E-02  0.9419501E-01
        -11   -1    0    0    0    0  0.00000000000E+00  0.00000000000E+00  0.50000000000E+03  0.50000000000E+03  0.00000000000E+00 0.  1.
         11   -1    0    0    0    0 -0.00000000000E+00 -0.00000000000E+00 -0.50000000000E+03  0.50000000000E+03  0.00000000000E+00 0. -1.
        -11    1    1    2    0    0 -0.16268226548E+02 -0.58022006614E+01  0.49377256177E+03  0.49407455256E+03  0.00000000000E+00 0.  1.
         11    1    1    2    0    0  0.75278223238E+01  0.10713447059E+02 -0.48840571360E+03  0.48858119810E+03  0.00000000000E+00 0. -1.
        -15    1    1    2    0    0  0.10178127749E+02 -0.24755381850E+01  0.45276392595E+00  0.10634157134E+02  0.17770000000E+01 0. -1.
         15    1    1    2    0    0 -0.14377235250E+01 -0.24357082124E+01 -0.58196121014E+01  0.67100922081E+01  0.17770000000E+01 0.  1.
</event>
<event>
 6   1  0.3798113E-04  0.5035874E+03  0.7546771E-02  0.9391818E-01
        -11   -1    0    0    0    0  0.00000000000E+00  0.00000000000E+00  0.50000000000E+03  0.50000000000E+03  0.00000000000E+00 0.  1.
         11   -1    0    0    0    0 -0.00000000000E+00 -0.00000000000E+00 -0.50000000000E+03  0.50000000000E+03  0.00000000000E+00 0. -1.
        -11    1    1    2    0    0  0.11791371737E+02 -0.84925249138E+01  0.49619985934E+03  0.49641259033E+03  0.00000000000E+00 0.  1.
         11    1    1    2    0    0  0.19950124331E+01 -0.65639461546E+01 -0.46463566044E+03  0.46468630539E+03  0.00000000000E+00 0. -1.
        -15    1    1    2    0    0 -0.80888855781E+01  0.12554157326E+02 -0.27245348672E+02  0.31120791913E+02  0.17770000000E+01 0.  1.
         15    1    1    2    0    0 -0.56974985919E+01  0.25023137428E+01 -0.43188502271E+01  0.77803123688E+01  0.17770000000E+01 0. -1.
</event>
<event>
 6   1  0.3798113E-04  0.5038488E+03  0.7546771E-02  0.9391239E-01
        -11   -1    0    0    0    0  0.00000000000E+00  0.00000000000E+00  0.50000000000E+03  0.50000000000E+03  0.00000000000E+00 0.  1.
         11   -1    0    0    0    0 -0.00000000000E+00 -0.00000000000E+00 -0.50000000000E+03  0.50000000000E+03  0.00000000000E+00 0. -1.
        -11    1    1    2    0    0 -0.20233884847E+02  0.16731257176E+02  0.34191760283E+03  0.34292417848E+03  0.00000000000E+00 0.  1.
         11    1    1    2    0    0 -0.10162855961E+02 -0.13682151607E+02 -0.49585840265E+03  0.49615122734E+03  0.00000000000E+00 0. -1.
        -15    1    1    2    0    0  0.29615027908E+02 -0.15520315479E+02  0.97472891219E+02  0.10306334131E+03  0.17770000000E+01 0. -1.
         15    1    1    2    0    0  0.78171290080E+00  0.12471209911E+02  0.56467908604E+02  0.57861252862E+02  0.17770000000E+01 0.  1.
</event>
<event>
 6   1  0.3798113E-04  0.5000764E+03  0.7546771E-02  0.9399639E-01
        -11   -1    0    0    0    0  0.00000000000E+00  0.00000000000E+00  0.50000000000E+03  0.50000000000E+03  0.00000000000E+00 0. -1.
         11   -1    0    0    0    0 -0.00000000000E+00 -0.00000000000E+00 -0.50000000000E+03  0.50000000000E+03  0.00000000000E+00 0.  1.
        -11    1    1    2    0    0  0.17258630520E+01 -0.14682215596E+02  0.49970497646E+03  0.49992360372E+03  0.00000000000E+00 0. -1.
         11    1    1    2    0    0 -0.22907482093E+01  0.12379682422E+00 -0.78904903353E+02  0.78938245649E+02  0.00000000000E+00 0.  1.
        -15    1    1    2    0    0 -0.35744594182E+01  0.61777649955E+01 -0.18070066036E+03  0.18085029147E+03  0.17770000000E+01 0. -1.
         15    1    1    2    0    0  0.41393445755E+01  0.83806537763E+01 -0.24009941274E+03  0.24028785916E+03  0.17770000000E+01 0.  1.
</event>
<event>
 6   1  0.3798113E-04  0.5023572E+03  0.7546771E-02  0.9394551E-01
        -11   -1    0    0    0    0  0.00000000000E+00  0.00000000000E+00  0.50000000000E+03  0.50000000000E+03  0.00000000000E+00 0. -1.
         11   -1    0    0    0    0 -0.00000000000E+00 -0.00000000000E+00 -0.50000000000E+03  0.50000000000E+03  0.00000000000E+00 0.  1.
        -11    1    1    2    0    0 -0.20650425299E+02 -0.66429445094E+02  0.23092434880E+03  0.24117496991E+03  0.00000000000E+00 0. -1.
         11    1    1    2    0    0  0.24451519790E+02  0.70726788198E+02 -0.49198396931E+03  0.49764282517E+03  0.00000000000E+00 0.  1.
        -15    1    1    2    0    0 -0.15432115967E+01 -0.18525559859E+01  0.18913128739E+03  0.18915500275E+03  0.17770000000E+01 0. -1.
         15    1    1    2    0    0 -0.22578828937E+01 -0.24447871177E+01  0.71928333115E+02  0.72027202174E+02  0.17770000000E+01 0. -1.
</event>
<event>
 6   1  0.3798113E-04  0.5114942E+03  0.7546771E-02  0.9374452E-01
        -11   -1    0    0    0    0  0.00000000000E+00  0.00000000000E+00  0.50000000000E+03  0.50000000000E+03  0.00000000000E+00 0. -1.
         11   -1    0    0    0    0 -0.00000000000E+00 -0.00000000000E+00 -0.50000000000E+03  0.50000000000E+03  0.00000000000E+00 0. -1.
        -11    1    1    2    0    0 -0.62962104980E+01  0.15451404853E+02  0.48822073574E+03  0.48850575738E+03  0.00000000000E+00 0. -1.
         11    1    1    2    0    0 -0.54458182307E+01 -0.50823483459E+01 -0.47171749847E+03  0.47177630882E+03  0.00000000000E+00 0. -1.
        -15    1    1    2    0    0 -0.63078894675E+01 -0.92925811788E+01 -0.18210200145E+02  0.21468829796E+02  0.17770000000E+01 0. -1.
         15    1    1    2    0    0  0.18049918196E+02 -0.10764753287E+01  0.17069628667E+01  0.18249104012E+02  0.17770000000E+01 0.  1.
</event>
<event>
 6   1  0.3798113E-04  0.5026732E+03  0.7546771E-02  0.9393848E-01
        -11   -1    0    0    0    0  0.00000000000E+00  0.00000000000E+00  0.50000000000E+03  0.50000000000E+03  0.00000000000E+00 0. -1.
         11   -1    0    0    0    0 -0.00000000000E+00 -0.00000000000E+00 -0.50000000000E+03  0.50000000000E+03  0.00000000000E+00 0. -1.
        -11    1    1    2    0    0  0.68531744319E+01 -0.16801121584E+01  0.49727673870E+03  0.49732679762E+03  0.00000000000E+00 0. -1.
         11    1    1    2    0    0 -0.34558123828E+01 -0.59205823548E+01 -0.49086169573E+03  0.49090956425E+03  0.00000000000E+00 0. -1.
        -15    1    1    2    0    0 -0.37334214102E+01  0.51253723754E+01 -0.54551552311E+01  0.85512762210E+01  0.17770000000E+01 0.  1.
         15    1    1    2    0    0  0.33605936113E+00  0.24753221378E+01 -0.95988773936E+00  0.32123619118E+01  0.17770000000E+01 0. -1.
</event>
<event>
 6   1  0.3798113E-04  0.4271982E+03  0.7546771E-02  0.9579285E-01
        -11   -1    0    0    0    0  0.00000000000E+00  0.00000000000E+00  0.50000000000E+03  0.50000000000E+03  0.00000000000E+00 0.  1.
         11   -1    0    0    0    0 -0.00000000000E+00 -0.00000000000E+00 -0.50000000000E+03  0.50000000000E+03  0.00000000000E+00 0. -1.
        -11    1    1    2    0    0  0.62635951011E+01 -0.79526512618E+02  0.41796059443E+03  0.42550529648E+03  0.00000000000E+00 0.  1.
         11    1    1    2    0    0 -0.35276327613E+01  0.85861539417E+01 -0.43184826958E+03  0.43194802253E+03  0.00000000000E+00 0. -1.
        -15    1    1    2    0    0  0.13873373430E+01 -0.22090862778E+01 -0.47098132320E+02  0.47203777011E+02  0.17770000000E+01 0.  1.
         15    1    1    2    0    0 -0.41232996829E+01  0.73149444954E+02  0.60985807466E+02  0.95342903976E+02  0.17770000000E+01 0. -1.
</event>
<event>
 6   1  0.3798113E-04  0.4887080E+03  0.7546771E-02  0.9425437E-01
        -11   -1    0    0    0    0  0.00000000000E+00  0.00000000000E+00  0.50000000000E+03  0.50000000000E+03  0.00000000000E+00 0. -1.
         11   -1    0    0    0    0 -0.00000000000E+00 -0.00000000000E+00 -0.50000000000E+03  0.50000000000E+03  0.00000000000E+00 0. -1.
        -11    1    1    2    0    0 -0.18306818037E+02  0.52694959672E+00  0.48798108232E+03  0.48832463993E+03  0.00000000000E+00 0. -1.
         11    1    1    2    0    0  0.38173498562E+01 -0.10921666481E+02 -0.48911789551E+03  0.48925470939E+03  0.00000000000E+00 0. -1.
        -15    1    1    2    0    0  0.76749251757E+01  0.12539481221E+02 -0.72687103740E+00  0.14826636040E+02  0.17770000000E+01 0.  1.
         15    1    1    2    0    0  0.68145430047E+01 -0.21447643363E+01  0.18636842234E+01  0.75940146369E+01  0.17770000000E+01 0. -1.
</event>
<event>
 6   1  0.3798113E-04  0.5001365E+03  0.7546771E-02  0.9399504E-01
        -11   -1    0    0    0    0  0.00000000000E+00  0.00000000000E+00  0.50000000000E+03  0.50000000000E+03  0.00000000000E+00 0.  1.
         11   -1    0    0    0    0 -0.00000000000E+00 -0.00000000000E+00 -0.50000000000E+03  0.50000000000E+03  0.00000000000E+00 0.  1.
        -11    1    1    2    0    0 -0.27019140057E+01 -0.52162008777E+01  0.21257293264E+03  0.21265408715E+03  0.00000000000E+00 0.  1.
         11    1    1    2    0    0  0.78846040190E+01 -0.21844763779E+01 -0.49979654410E+03  0.49986350578E+03  0.00000000000E+00 0.  1.
        -15    1    1    2    0    0 -0.41064997243E+01  0.36136712674E+01  0.23804463585E+03  0.23811410782E+03  0.17770000000E+01 0.  1.
         15    1    1    2    0    0 -0.10761902890E+01  0.37870059883E+01  0.49178975611E+02  0.49368299252E+02  0.17770000000E+01 0. -1.
</event>
<event>
 6   1  0.3798113E-04  0.5095982E+03  0.7546771E-02  0.9378585E-01
        -11   -1    0    0    0    0  0.00000000000E+00  0.00000000000E+00  0.50000000000E+03  0.50000000000E+03  0.00000000000E+00 0. -1.
         11   -1    0    0    0    0 -0.00000000000E+00 -0.00000000000E+00 -0.50000000000E+03  0.50000000000E+03  0.00000000000E+00 0.  1.
        -11    1    1    2    0    0  0.14799262549E+02  0.12380536735E+02  0.49002208395E+03  0.49040181343E+03  0.00000000000E+00 0. -1.
         11    1    1    2    0    0 -0.14696188474E+00  0.20085946698E+02 -0.46486348497E+03  0.46529724533E+03  0.00000000000E+00 0.  1.
        -15    1    1    2    0    0 -0.26265046687E+01 -0.40576518788E+01 -0.61521054484E+01  0.80230415674E+01  0.17770000000E+01 0. -1.
         15    1    1    2    0    0 -0.12025795996E+02 -0.28408831554E+02 -0.19006493530E+02  0.36277899676E+02  0.17770000000E+01 0.  1.
</event>
<event>
 6   1  0.3798113E-04  0.5033388E+03  0.7546771E-02  0.9392370E-01
        -11   -1    0    0    0    0  0.00000000000E+00  0.00000000000E+00  0.50000000000E+03  0.50000000000E+03  0.00000000000E+00 0.  1.
         11   -1    0    0    0    0 -0.00000000000E+00 -0.00000000000E+00 -0.50000000000E+03  0.50000000000E+03  0.00000000000E+00 0. -1.
        -11    1    1    2    0    0  0.21927214225E+02  0.76834057747E+01  0.49611740674E+03  0.49666117094E+03  0.00000000000E+00 0.  1.
         11    1    1    2    0    0 -0.62783730944E+01 -0.57743201512E+01 -0.45212107910E+03  0.45220153793E+03  0.00000000000E+00 0. -1.
        -15    1    1    2    0    0 -0.18416854047E+02 -0.21684708783E+01 -0.21705814980E+02  0.28603896795E+02  0.17770000000E+01 0.  1.
         15    1    1    2    0    0  0.27680129160E+01  0.25938525480E+00 -0.22290512661E+02  0.22533394328E+02  0.17770000000E+01 0. -1.
</event>
<event>
 6   1  0.3798113E-04  0.4901269E+03  0.7546771E-02  0.9422177E-01
        -11   -1    0    0    0    0  0.00000000000E+00  0.00000000000E+00  0.50000000000E+03  0.50000000000E+03  0.00000000000E+00 0.  1.
         11   -1    0    0    0    0 -0.00000000000E+00 -0.00000000000E+00 -0.50000000000E+03  0.50000000000E+03  0.00000000000E+00 0. -1.
        -11    1    1    2    0    0  0.80788805745E+01  0.95128892374E+01  0.49153711071E+03  0.49169553036E+03  0.00000000000E+00 0.  1.
         11    1    1    2    0    0  0.72948420580E+01 -0.86217122910E-01 -0.48867393413E+03  0.48872838679E+03  0.00000000000E+00 0. -1.
        -15    1    1    2    0    0 -0.12337051141E+02 -0.91815604864E+01 -0.37720721884E+01  0.15933930508E+02  0.17770000000E+01 0.  1.
         15    1    1    2    0    0 -0.30366714913E+01 -0.24511162815E+00  0.90889561088E+00  0.36421523428E+01  0.17770000000E+01 0. -1.
</event>
<event>
 6   1  0.3798113E-04  0.5002534E+03  0.7546771E-02  0.9399243E-01
        -11   -1    0    0    0    0  0.00000000000E+00  0.00000000000E+00  0.50000000000E+03  0.50000000000E+03  0.00000000000E+00 0. -1.
         11   -1    0    0    0    0 -0.00000000000E+00 -0.00000000000E+00 -0.50000000000E+03  0.50000000000E+03  0.00000000000E+00 0.  1.
        -11    1    1    2    0    0  0.66229142041E+01  0.28174172883E+01  0.44924454438E+03  0.44930219395E+03  0.00000000000E+00 0. -1.
         11    1    1    2    0    0 -0.26478265110E+01 -0.63277626002E+01 -0.49969953671E+03  0.49974661435E+03  0.00000000000E+00 0.  1.
        -15    1    1    2    0    0 -0.13181499906E+01  0.30566139755E+01  0.23069410055E+02  0.23375966668E+02  0.17770000000E+01 0. -1.
         15    1    1    2    0    0 -0.26569377025E+01  0.45373133636E+00  0.27385582276E+02  0.27575225034E+02  0.17770000000E+01 0.  1.
</event>
<event>
 6   1  0.3798113E-04  0.4812207E+03  0.7546771E-02  0.9442839E-01
        -11   -1    0    0    0    0  0.00000000000E+00  0.00000000000E+00  0.50000000000E+03  0.50000000000E+03  0.00000000000E+00 0.  1.
         11   -1    0    0    0    0 -0.00000000000E+00 -0.00000000000E+00 -0.50000000000E+03  0.50000000000E+03  0.00000000000E+00 0. -1.
        -11    1    1    2    0    0  0.12273236324E+02 -0.17250388991E+02  0.48747391175E+03  0.48793342055E+03  0.00000000000E+00 0.  1.
         11    1    1    2    0    0  0.31134040015E+01 -0.90584289566E+01 -0.47497496106E+03  0.47507153362E+03  0.00000000000E+00 0. -1.
        -15    1    1    2    0    0 -0.19157262290E+01  0.27335656790E+01 -0.87438981619E+01  0.95265876562E+01  0.17770000000E+01 0.  1.
         15    1    1    2    0    0 -0.13470914097E+02  0.23575252268E+02 -0.37550525321E+01  0.27468458177E+02  0.17770000000E+01 0. -1.
</event>
<event>
 6   1  0.3798113E-04  0.5013857E+03  0.7546771E-02  0.9396714E-01
        -11   -1    0    0    0    0  0.00000000000E+00  0.00000000000E+00  0.50000000000E+03  0.50000000000E+03  0.00000000000E+00 0. -1.
         11   -1    0    0    0    0 -0.00000000000E+00 -0.00000000000E+00 -0.50000000000E+03  0.50000000000E+03  0.00000000000E+00 0.  1.
        -11    1    1    2    0    0  0.27567667637E+02  0.10948312470E+02  0.37989927251E+03  0.38105550659E+03  0.00000000000E+00 0. -1.
         11    1    1    2    0    0 -0.11703905690E+02 -0.88386921863E-01 -0.49847687163E+03  0.49861426049E+03  0.00000000000E+00 0.  1.
        -15    1    1    2    0    0 -0.68824083456E+01 -0.17305594429E+01  0.34783198356E+02  0.35544211871E+02  0.17770000000E+01 0.  1.
         15    1    1    2    0    0 -0.89813536016E+01 -0.91293661053E+01  0.83794400758E+02  0.84786021049E+02  0.17770000000E+01 0.  1.
</event>
<event>
 6   1  0.3798113E-04  0.4685179E+03  0.7546771E-02  0.9473147E-01
        -11   -1    0    0    0    0  0.00000000000E+00  0.00000000000E+00  0.50000000000E+03  0.50000000000E+03  0.00000000000E+00 0. -1.
         11   -1    0    0    0    0 -0.00000000000E+00 -0.00000000000E+00 -0.50000000000E+03  0.50000000000E+03  0.00000000000E+00 0. -1.
        -11    1    1    2    0    0 -0.61658609813E+01  0.28745305385E+02  0.47989673284E+03  0.48079640661E+03  0.00000000000E+00 0. -1.
         11    1    1    2    0    0 -0.13737103918E+02  0.14197251920E+02 -0.45728004355E+03  0.45770657437E+03  0.00000000000E+00 0. -1.
        -15    1    1    2    0    0  0.40213854163E+01 -0.77717784723E+01 -0.21014279413E+02  0.22832646574E+02  0.17770000000E+01 0.  1.
         15    1    1    2    0    0  0.15881579483E+02 -0.35170778833E+02 -0.16024098688E+01  0.38664372450E+02  0.17770000000E+01 0. -1.
</event>
<event>
 6   1  0.3798113E-04  0.5000317E+03  0.7546771E-02  0.9399739E-01
        -11   -1    0    0    0    0  0.00000000000E+00  0.00000000000E+00  0.50000000000E+03  0.50000000000E+03  0.00000000000E+00 0. -1.
         11   -1    0    0    0    0 -0.00000000000E+00 -0.00000000000E+00 -0.50000000000E+03  0.50000000000E+03  0.00000000000E+00 0. -1.
        -11    1    1    2    0    0 -0.17947759421E+01 -0.28743910388E+00  0.13056399380E+03  0.13057664538E+03  0.00000000000E+00 0. -1.
         11    1    1    2    0    0 -0.13851026694E+01  0.70637145250E+01 -0.49991643163E+03  0.49996825218E+03  0.00000000000E+00 0. -1.
        -15    1    1    2    0    0  0.12315571928E+01 -0.39048244426E+01  0.24770314425E+03  0.24774335468E+03  0.17770000000E+01 0.  1.
         15    1    1    2    0    0  0.19483214186E+01 -0.28714509786E+01  0.12164929358E+03  0.12171174776E+03  0.17770000000E+01 0. -1.
</event>
<event>
 6   1  0.3798113E-04  0.5087855E+03  0.7546771E-02  0.9380363E-01
        -11   -1    0    0    0    0  0.00000000000E+00  0.00000000000E+00  0.50000000000E+03  0.50000000000E+03  0.00000000000E+00 0. -1.
         11   -1    0    0    0    0 -0.00000000000E+00 -0.00000000000E+00 -0.50000000000E+03  0.50000000000E+03  0.00000000000E+00 0. -1.
        -11    1    1    2    0    0 -0.11364545727E+02 -0.21393983481E+02  0.40257491452E+03  0.40330313318E+03  0.00000000000E+00 0. -1.
         11    1    1    2    0    0 -0.11931245469E+02 -0.65545214285E+01 -0.49102578734E+03  0.49121445439E+03  0.00000000000E+00 0. -1.
        -15    1    1    2    0    0  0.12160432843E+02  0.21856112379E+02  0.89186741755E+02  0.92644473172E+02  0.17770000000E+01 0. -1.
         15    1    1    2    0    0  0.11135358353E+02  0.60923925300E+01 -0.73586893705E+00  0.12837939261E+02  0.17770000000E+01 0.  1.
</event>
<event>
 6   1  0.3798113E-04  0.5173593E+03  0.7546771E-02  0.9361783E-01
        -11   -1    0    0    0    0  0.00000000000E+00  0.00000000000E+00  0.50000000000E+03  0.50000000000E+03  0.00000000000E+00 0.  1.
         11   -1    0    0    0    0 -0.00000000000E+00 -0.00000000000E+00 -0.50000000000E+03  0.50000000000E+03  0.00000000000E+00 0. -1.
        -11    1    1    2    0    0 -0.35093171122E+02 -0.51544826086E+02  0.47859550303E+03  0.48264071034E+03  0.00000000000E+00 0.  1.
         11    1    1    2    0    0 -0.49366698552E+01  0.31569902456E+01 -0.43460266673E+03  0.43464216918E+03  0.00000000000E+00 0. -1.
        -15    1    1    2    0    0  0.35018711844E+02  0.51198924032E+02 -0.44953706003E+02  0.76626584249E+02  0.17770000000E+01 0.  1.
         15    1    1    2    0    0  0.50111291331E+01 -0.28110881915E+01  0.96086970857E+00  0.60905362331E+01  0.17770000000E+01 0. -1.
</event>
<event>
 6   1  0.3798113E-04  0.4813887E+03  0.7546771E-02  0.9442445E-01
        -11   -1    0    0    0    0  0.00000000000E+00  0.00000000000E+00  0.50000000000E+03  0.50000000000E+03  0.00000000000E+00 0.  1.
         11   -1    0    0    0    0 -0.00000000000E+00 -0.00000000000E+00 -0.50000000000E+03  0.50000000000E+03  0.00000000000E+00 0. -1.
        -11    1    1    2    0    0  0.10875684369E+02 -0.17037572385E+02  0.48011446918E+03  0.48053976204E+03  0.00000000000E+00 0.  1.
         11    1    1    2    0    0  0.55409990948E+01 -0.14615370422E+02 -0.48264808163E+03  0.48290111040E+03  0.00000000000E+00 0. -1.
        -15    1    1    2    0    0 -0.16527818962E+01  0.93907864526E+01  0.64806542458E+00  0.97209195033E+01  0.17770000000E+01 0. -1.
         15    1    1    2    0    0 -0.14763901568E+02  0.22262156354E+02  0.18855470232E+01  0.26838208055E+02  0.17770000000E+01 0.  1.
</event>
<event>
 6   1  0.3798113E-04  0.5033619E+03  0.7546771E-02  0.9392318E-01
        -11   -1    0    0    0    0  0.00000000000E+00  0.00000000000E+00  0.50000000000E+03  0.50000000000E+03  0.00000000000E+00 0.  1.
         11   -1    0    0    0    0 -0.00000000000E+00 -0.00000000000E+00 -0.50000000000E+03  0.50000000000E+03  0.00000000000E+00 0.  1.
        -11    1    1    2    0    0 -0.18859469759E+02 -0.11109036900E+01  0.25524243059E+03  0.25594064171E+03  0.00000000000E+00 0.  1.
         11    1    1    2    0    0  0.15346747023E+01  0.88124857081E+01 -0.49655752972E+03  0.49663809303E+03  0.00000000000E+00 0.  1.
        -15    1    1    2    0    0  0.13073197243E+02 -0.91587999313E+01  0.18277844581E+02  0.24331654976E+02  0.17770000000E+01 0. -1.
         15    1    1    2    0    0  0.42515978133E+01  0.14572179132E+01  0.22303725455E+03  0.22308961028E+03  0.17770000000E+01 0.  1.
</event>
<event>
 6   1  0.3798113E-04  0.5001697E+03  0.7546771E-02  0.9399430E-01
        -11   -1    0    0    0    0  0.00000000000E+00  0.00000000000E+00  0.50000000000E+03  0.50000000000E+03  0.00000000000E+00 0.  1.
         11   -1    0    0    0    0 -0.00000000000E+00 -0.00000000000E+00 -0.50000000000E+03  0.50000000000E+03  0.00000000000E+00 0. -1.
        -11    1    1    2    0    0  0.18213492335E+01  0.12653013606E+01  0.97661355739E+01  0.10014774317E+02  0.00000000000E+00 0.  1.
         11    1    1    2    0    0 -0.60423679052E+01 -0.88800678024E+01 -0.49971490794E+03  0.49983032624E+03  0.00000000000E+00 0. -1.
        -15    1    1    2    0    0  0.52168465734E+01  0.71039070904E+00  0.32698516356E+03  0.32703237617E+03  0.17770000000E+01 0.  1.
         15    1    1    2    0    0 -0.99582790176E+00  0.69043757327E+01  0.16296360880E+03  0.16312252328E+03  0.17770000000E+01 0. -1.
</event>
<event>
 6   1  0.3798113E-04  0.5016049E+03  0.7546771E-02  0.9396226E-01
        -11   -1    0    0    0    0  0.00000000000E+00  0.00000000000E+00  0.50000000000E+03  0.50000000000E+03  0.00000000000E+00 0.  1.
         11   -1    0    0    0    0 -0.00000000000E+00 -0.00000000000E+00 -0.50000000000E+03  0.50000000000E+03  0.00000000000E+00 0.  1.
        -11    1    1    2    0    0  0.30461639001E+01  0.92802501595E+01  0.49829937659E+03  0.49839509515E+03  0.00000000000E+00 0.  1.
         11    1    1    2    0    0 -0.63351477969E+01 -0.20808842974E+00 -0.45610782964E+03  0.45615187126E+03  0.00000000000E+00 0.  1.
        -15    1    1    2    0    0  0.93580446417E-01  0.33985659473E+01 -0.11518179600E+02  0.12140230562E+02  0.17770000000E+01 0.  1.
         15    1    1    2    0    0  0.31954034503E+01 -0.12470727677E+02 -0.30673367349E+02  0.33312803027E+02  0.17770000000E+01 0. -1.
</event>
<event>
 6   1  0.3798113E-04  0.5044753E+03  0.7546771E-02  0.9389851E-01
        -11   -1    0    0    0    0  0.00000000000E+00  0.00000000000E+00  0.50000000000E+03  0.50000000000E+03  0.00000000000E+00 0.  1.
         11   -1    0    0    0    0 -0.00000000000E+00 -0.00000000000E+00 -0.50000000000E+03  0.50000000000E+03  0.00000000000E+00 0. -1.
        -11    1    1    2    0    0  0.98821993780E+01  0.89406948356E+01  0.49534547864E+03  0.49552470887E+03  0.00000000000E+00 0.  1.
         11    1    1    2    0    0  0.35964373605E+01  0.67737379719E+01 -0.47444009928E+03  0.47450208186E+03  0.00000000000E+00 0. -1.
        -15    1    1    2    0    0 -0.13415602774E+01 -0.32205851870E+01 -0.30244818740E+01  0.49474410083E+01  0.17770000000E+01 0. -1.
         15    1    1    2    0    0 -0.12137076461E+02 -0.12493847620E+02 -0.17880897487E+02  0.25025768267E+02  0.17770000000E+01 0.  1.
</event>
<event>
 6   1  0.3798113E-04  0.5037075E+03  0.7546771E-02  0.9391552E-01
        -11   -1    0    0    0    0  0.00000000000E+00  0.00000000000E+00  0.50000000000E+03  0.50000000000E+03  0.00000000000E+00 0. -1.
         11   -1    0    0    0    0 -0.00000000000E+00 -0.00000000000E+00 -0.50000000000E+03  0.50000000000E+03  0.00000000000E+00 0.  1.
        -11    1    1    2    0    0  0.23198382021E+02 -0.68229860085E+01  0.47587006084E+03  0.47648403213E+03  0.00000000000E+00 0. -1.
         11    1    1    2    0    0 -0.11844568920E+02  0.19774535515E+02 -0.49575687552E+03  0.49629245984E+03  0.00000000000E+00 0.  1.
        -15    1    1    2    0    0 -0.71877432719E-02 -0.23448254956E+01  0.35689996341E+01  0.46253373560E+01  0.17770000000E+01 0.  1.
         15    1    1    2    0    0 -0.11346625358E+02 -0.10606724011E+02  0.16317815041E+02  0.22598170678E+02  0.17770000000E+01 0. -1.
</event>
<event>
 6   1  0.3798113E-04  0.5004772E+03  0.7546771E-02  0.9398743E-01
        -11   -1    0    0    0    0  0.00000000000E+00  0.00000000000E+00  0.50000000000E+03  0.50000000000E+03  0.00000000000E+00 0.  1.
         11   -1    0    0    0    0 -0.00000000000E+00 -0.00000000000E+00 -0.50000000000E+03  0.50000000000E+03  0.00000000000E+00 0.  1.
        -11    1    1    2    0    0  0.83878258804E+01  0.19073781150E+01  0.26397779279E+03  0.26411790701E+03  0.00000000000E+00 0.  1.
         11    1    1    2    0    0  0.48539803415E+01  0.46702862885E+01 -0.49947741028E+03  0.49952282838E+03  0.00000000000E+00 0.  1.
        -15    1    1    2    0    0 -0.93433179737E+01 -0.46074075452E+01  0.21735827841E+03  0.21761503790E+03  0.17770000000E+01 0. -1.
         15    1    1    2    0    0 -0.38984882482E+01 -0.19702568583E+01  0.18141339074E+02  0.18744226714E+02  0.17770000000E+01 0.  1.
</event>
<event>
 6   1  0.3798113E-04  0.5003871E+03  0.7546771E-02  0.9398944E-01
        -11   -1    0    0    0    0  0.00000000000E+00  0.00000000000E+00  0.50000000000E+03  0.50000000000E+03  0.00000000000E+00 0. -1.
         11   -1    0    0    0    0 -0.00000000000E+00 -0.00000000000E+00 -0.50000000000E+03  0.50000000000E+03  0.00000000000E+00 0.  1.
        -11    1    1    2    0    0  0.22839965850E+01 -0.28954484538E+02  0.49876795521E+03  0.49961290211E+03  0.00000000000E+00 0. -1.
         11    1    1    2    0    0 -0.12199046829E+02  0.17527172585E+02 -0.19845650177E+03  0.19960210825E+03  0.00000000000E+00 0.  1.
        -15    1    1    2    0    0  0.45425534444E+01  0.21952340500E+01 -0.14377162653E+03  0.14387109566E+03  0.17770000000E+01 0.  1.
         15    1    1    2    0    0  0.53724967994E+01  0.92320779025E+01 -0.15653982691E+03  0.15691389398E+03  0.17770000000E+01 0.  1.
</event>
<event>
 6   1  0.3798113E-04  0.5028800E+03  0.7546771E-02  0.9393389E-01
        -11   -1    0    0    0    0  0.00000000000E+00  0.00000000000E+00  0.50000000000E+03  0.50000000000E+03  0.00000000000E+00 0. -1.
         11   -1    0    0    0    0 -0.00000000000E+00 -0.00000000000E+00 -0.50000000000E+03  0.50000000000E+03  0.00000000000E+00 0.  1.
        -11    1    1    2    0    0 -0.41514812334E+02  0.84501174316E+01  0.49531146118E+03  0.49712003349E+03  0.00000000000E+00 0. -1.
         11    1    1    2    0    0 -0.72521888552E+01  0.48642123878E+00 -0.32257489794E+03  0.32265677683E+03  0.00000000000E+00 0.  1.
        -15    1    1    2    0    0  0.67109238006E+01 -0.13634435845E+01 -0.44074546364E+02  0.44638759424E+02  0.17770000000E+01 0. -1.
         15    1    1    2    0    0  0.42056077389E+02 -0.75730950858E+01 -0.12866201687E+03  0.13558443026E+03  0.17770000000E+01 0.  1.
</event>
<event>
 6   1  0.3798113E-04  0.5039051E+03  0.7546771E-02  0.9391114E-01
        -11   -1    0    0    0    0  0.00000000000E+00  0.00000000000E+00  0.50000000000E+03  0.50000000000E+03  0.00000000000E+00 0.  1.
         11   -1    0    0    0    0 -0.00000000000E+00 -0.00000000000E+00 -0.50000000000E+03  0.50000000000E+03  0.00000000000E+00 0.  1.
        -11    1    1    2    0    0  0.10482465527E+02 -0.85586221395E+01  0.46594447700E+03  0.46614095266E+03  0.00000000000E+00 0.  1.
         11    1    1    2    0    0 -0.46825506097E+01 -0.11159278091E+02 -0.49594729322E+03  0.49609492380E+03  0.00000000000E+00 0.  1.
        -15    1    1    2    0    0 -0.70762741324E+01  0.84164273518E+01  0.17722314239E+02  0.20931986431E+02  0.17770000000E+01 0.  1.
         15    1    1    2    0    0  0.12763592152E+01  0.11301472879E+02  0.12280501976E+02  0.16832137115E+02  0.17770000000E+01 0.  1.
</event>
<event>
 6   1  0.3798113E-04  0.5032686E+03  0.7546771E-02  0.9392526E-01
        -11   -1    0    0    0    0  0.00000000000E+00  0.00000000000E+00  0.50000000000E+03  0.50000000000E+03  0.00000000000E+00 0. -1.
         11   -1    0    0    0    0 -0.00000000000E+00 -0.00000000000E+00 -0.50000000000E+03  0.50000000000E+03  0.00000000000E+00 0. -1.
        -11    1    1    2    0    0  0.27390562481E+01  0.66355436053E+01  0.49667951253E+03  0.49673138720E+03  0.00000000000E+00 0. -1.
         11    1    1    2    0    0  0.80330035328E+01 -0.60355373494E+01 -0.48741671052E+03  0.48752026271E+03  0.00000000000E+00 0. -1.
        -15    1    1    2    0    0 -0.40065859909E+01  0.83692789851E+00 -0.69179748736E+01  0.82322102112E+01  0.17770000000E+01 0.  1.
         15    1    1    2    0    0 -0.67654737900E+01 -0.14369341544E+01 -0.23448271320E+01  0.75161398767E+01  0.17770000000E+01 0. -1.
</event>
<event>
 6   1  0.3798113E-04  0.5098660E+03  0.7546771E-02  0.9378000E-01
        -11   -1    0    0    0    0  0.00000000000E+00  0.00000000000E+00  0.50000000000E+03  0.50000000000E+03  0.00000000000E+00 0.  1.
         11   -1    0    0    0    0 -0.00000000000E+00 -0.00000000000E+00 -0.50000000000E+03  0.50000000000E+03  0.00000000000E+00 0.  1.
        -11    1    1    2    0    0  0.54695511472E+02  0.15578930791E+02  0.36502307499E+03  0.36942678211E+03  0.00000000000E+00 0.  1.
         11    1    1    2    0    0  0.42294123215E+01  0.52923421499E+01 -0.49008719252E+03  0.49013401543E+03  0.00000000000E+00 0.  1.
        -15    1    1    2    0    0 -0.47512875451E+02 -0.11680447550E+02  0.91570301698E+02  0.10383729614E+03  0.17770000000E+01 0. -1.
         15    1    1    2    0    0 -0.11412048342E+02 -0.91908253909E+01  0.33493815824E+02  0.36601906319E+02  0.17770000000E+01 0.  1.
</event>
<event>
 6   1  0.3798113E-04  0.5003253E+03  0.7546771E-02  0.9399082E-01
        -11   -1    0    0    0    0  0.00000000000E+00  0.00000000000E+00  0.50000000000E+03  0.50000000000E+03  0.00000000000E+00 0. -1.
         11   -1    0    0    0    0 -0.00000000000E+00 -0.00000000000E+00 -0.50000000000E+03  0.50000000000E+03  0.00000000000E+00 0.  1.
        -11    1    1    2    0    0 -0.12868663267E+02 -0.35515896075E+01  0.49949635226E+03  0.49967471640E+03  0.00000000000E+00 0. -1.
         11    1    1    2    0    0 -0.32392895676E+01  0.25789906384E+01 -0.26010288441E+03  0.26013583887E+03  0.00000000000E+00 0.  1.
        -15    1    1    2    0    0  0.10646892396E+02  0.83315433105E+00 -0.84665993479E+02  0.85355366817E+02  0.17770000000E+01 0. -1.
         15    1    1    2    0    0  0.54610604384E+01  0.13944463800E+00 -0.15472747438E+03  0.15483407791E+03  0.17770000000E+01 0.  1.
</event>
<event>
 6   1  0.3798113E-04  0.5002551E+03  0.7546771E-02  0.9399239E-01
        -11   -1    0    0    0    0  0.00000000000E+00  0.00000000000E+00  0.50000000000E+03  0.50000000000E+03  0.00000000000E+00 0.  1.
         11   -1    0    0    0    0 -0.00000000000E+00 -0.00000000000E+00 -0.50000000000E+03  0.50000000000E+03  0.00000000000E+00 0.  1.
        -11    1    1    2    0    0  0.12587820360E+01 -0.10203864038E+02  0.49963909883E+03  0.49974486736E+03  0.00000000000E+00 0.  1.
         11    1    1    2    0    0 -0.21595733531E+01  0.36884005668E+01 -0.24432721014E+03  0.24436459169E+03  0.00000000000E+00 0.  1.
        -15    1    1    2    0    0 -0.15765310297E+01  0.67258057487E+01 -0.45443689036E+02  0.46000092558E+02  0.17770000000E+01 0.  1.
         15    1    1    2    0    0  0.24773223468E+01 -0.21034227722E+00 -0.20986819965E+03  0.20989044839E+03  0.17770000000E+01 0.  1.
</event>
<event>
 6   1  0.3798113E-04  0.5003922E+03  0.7546771E-02  0.9398932E-01
        -11   -1    0    0    0    0  0.00000000000E+00  0.00000000000E+00  0.50000000000E+03  0.50000000000E+03  0.00000000000E+00 0.  1.
         11   -1    0    0    0    0 -0.00000000000E+00 -0.00000000000E+00 -0.50000000000E+03  0.50000000000E+03  0.00000000000E+00 0.  1.
        -11    1    1    2    0    0 -0.13171188391E+02 -0.90878604736E+00  0.49943329459E+03  0.49960776800E+03  0.00000000000E+00 0.  1.
         11    1    1    2    0    0 -0.76132587513E+01 -0.54426372263E+00 -0.20209367567E+03  0.20223776026E+03  0.00000000000E+00 0.  1.
        -15    1    1    2    0    0  0.30973605167E+01  0.19193058565E+01 -0.41468729418E+02  0.41666420841E+02  0.17770000000E+01 0. -1.
         15    1    1    2    0    0  0.17687086625E+02 -0.46625608655E+00 -0.25587088951E+03  0.25648805090E+03  0.17770000000E+01 0.  1.
</event>
<event>
 6   1  0.3798113E-04  0.5000506E+03  0.7546771E-02  0.9399696E-01
        -11   -1    0    0    0    0  0.00000000000E+00  0.00000000000E+00  0.50000000000E+03  0.50000000000E+03  0.00000000000E+00 0. -1.
         11   -1    0    0    0    0 -0.00000000000E+00 -0.00000000000E+00 -0.50000000000E+03  0.50000000000E+03  0.00000000000E+00 0. -1.
        -11    1    1    2    0    0 -0.56433215880E+01 -0.43908911978E+01  0.25632254325E+03  0.25642225563E+03  0.00000000000E+00 0. -1.
         11    1    1    2    0    0  0.54843660133E+01  0.44928201135E+01 -0.49989912762E+03  0.49994939894E+03  0.00000000000E+00 0. -1.
        -15    1    1    2    0    0  0.83752045115E+00 -0.16527309143E+01  0.12313502150E+03  0.12316178064E+03  0.17770000000E+01 0.  1.
         15    1    1    2    0    0 -0.67856487641E+00  0.15508019987E+01  0.12044156288E+03  0.12046656480E+03  0.17770000000E+01 0. -1.
</event>
<event>
 6   1  0.3798113E-04  0.5005021E+03  0.7546771E-02  0.9398687E-01
        -11   -1    0    0    0    0  0.00000000000E+00  0.00000000000E+00  0.50000000000E+03  0.50000000000E+03  0.00000000000E+00 0.  1.
         11   -1    0    0    0    0 -0.00000000000E+00 -0.00000000000E+00 -0.50000000000E+03  0.50000000000E+03  0.00000000000E+00 0.  1.
        -11    1    1    2    0    0 -0.87692392021E+01  0.16415328880E+01 -0.33670505845E+02  0.34832415222E+02  0.00000000000E+00 0.  1.
         11    1    1    2    0    0  0.89720128755E+01 -0.33475017580E+01 -0.46557123076E+03  0.46566970451E+03  0.00000000000E+00 0.  1.
        -15    1    1    2    0    0  0.19817080764E+00 -0.69306472587E+01  0.21472709916E+03  0.21484635902E+03  0.17770000000E+01 0. -1.
         15    1    1    2    0    0 -0.40094448110E+00  0.86366161287E+01  0.28451463745E+03  0.28465152124E+03  0.17770000000E+01 0.  1.
</event>
<event>
 6   1  0.3798113E-04  0.5002767E+03  0.7546771E-02  0.9399191E-01
        -11   -1    0    0    0    0  0.00000000000E+00  0.00000000000E+00  0.50000000000E+03  0.50000000000E+03  0.00000000000E+00 0.  1.
         11   -1    0    0    0    0 -0.00000000000E+00 -0.00000000000E+00 -0.50000000000E+03  0.50000000000E+03  0.00000000000E+00 0.  1.
        -11    1    1    2    0    0 -0.96856916096E+01  0.10975357288E+02  0.49950882664E+03  0.49972326240E+03  0.00000000000E+00 0.  1.
         11    1    1    2    0    0  0.15450836934E+01  0.40502731457E+01 -0.18585747129E+03  0.18590801927E+03  0.00000000000E+00 0.  1.
        -15    1    1    2    0    0  0.31012511839E+01  0.12635144887E+01 -0.39355598897E+02  0.39537768290E+02  0.17770000000E+01 0.  1.
         15    1    1    2    0    0  0.50393567323E+01 -0.16289144923E+02 -0.27429575646E+03  0.27483095004E+03  0.17770000000E+01 0. -1.
</event>
<event>
 6   1  0.3798113E-04  0.5004675E+03  0.7546771E-02  0.9398764E-01
        -11   -1    0    0    0    0  0.00000000000E+00  0.00000000000E+00  0.50000000000E+03  0.50000000000E+03  0.00000000000E+00 0.  1.
         11   -1    0    0    0    0 -0.00000000000E+00 -0.00000000000E+00 -0.50000000000E+03  0.50000000000E+03  0.00000000000E+00 0.  1.
        -11    1    1    2    0    0 -0.82288446442E+00 -0.71770179133E+01  0.44546405419E+03  0.44552262602E+03  0.00000000000E+00 0.  1.
         11    1    1    2    0    0 -0.54351026574E+01  0.51865676000E+01 -0.49947595655E+03  0.49953245340E+03  0.00000000000E+00 0.  1.
        -15    1    1    2    0    0  0.45853786117E+01  0.35688563243E+01  0.46415599695E+02  0.46811623092E+02  0.17770000000E+01 0.  1.
         15    1    1    2    0    0  0.16726085101E+01 -0.15784060111E+01  0.75963026714E+01  0.81332974887E+01  0.17770000000E+01 0. -1.
</event>
<event>
 6   1  0.3798113E-04  0.5013143E+03  0.7546771E-02  0.9396874E-01
        -11   -1    0    0    0    0  0.00000000000E+00  0.00000000000E+00  0.50000000000E+03  0.50000000000E+03  0.00000000000E+00 0.  1.
         11   -1    0    0    0    0 -0.00000000000E+00 -0.00000000000E+00 -0.50000000000E+03  0.50000000000E+03  0.00000000000E+00 0.  1.
        -11    1    1    2    0    0 -0.92669491543E+01  0.83751647103E+01  0.40003333361E+03  0.40022829451E+03  0.00000000000E+00 0.  1.
         11    1    1    2    0    0 -0.76910336651E+01 -0.12377541207E+00 -0.49862639020E+03  0.49868571699E+03  0.00000000000E+00 0.  1.
        -15    1    1    2    0    0  0.95107955708E+00 -0.36761329405E+01  0.37726938927E+02  0.37959164315E+02  0.17770000000E+01 0.  1.
         15    1    1    2    0    0  0.16006903262E+02 -0.45752563578E+01  0.60866117666E+02  0.63126824183E+02  0.17770000000E+01 0. -1.
</event>
<event>
 6   1  0.3798113E-04  0.5056844E+03  0.7546771E-02  0.9387179E-01
        -11   -1    0    0    0    0  0.00000000000E+00  0.00000000000E+00  0.50000000000E+03  0.50000000000E+03  0.00000000000E+00 0. -1.
         11   -1    0    0    0    0 -0.00000000000E+00 -0.00000000000E+00 -0.50000000000E+03  0.50000000000E+03  0.00000000000E+00 0.  1.
        -11    1    1    2    0    0 -0.28551253116E+02  0.65621633002E+01  0.49344670727E+03  0.49431557629E+03  0.00000000000E+00 0. -1.
         11    1    1    2    0    0  0.80009647205E+01 -0.51366381028E+00 -0.45729013083E+03  0.45736040826E+03  0.00000000000E+00 0.  1.
        -15    1    1    2    0    0 -0.45077829618E+01  0.24224409629E+01 -0.78898898329E+01  0.95706017587E+01  0.17770000000E+01 0. -1.
         15    1    1    2    0    0  0.25058071358E+02 -0.84709404528E+01 -0.28266686610E+02  0.38753413698E+02  0.17770000000E+01 0.  1.
</event>
<event>
 6   1  0.3798113E-04  0.5016716E+03  0.7546771E-02  0.9396077E-01
        -11   -1    0    0    0    0  0.00000000000E+00  0.00000000000E+00  0.50000000000E+03  0.50000000000E+03  0.00000000000E+00 0. -1.
         11   -1    0    0    0    0 -0.00000000000E+00 -0.00000000000E+00 -0.50000000000E+03  0.50000000000E+03  0.00000000000E+00 0. -1.
        -11    1    1    2    0    0  0.10480797035E+02 -0.25022954261E+02  0.49758935698E+03  0.49832836917E+03  0.00000000000E+00 0. -1.
         11    1    1    2    0    0 -0.36373394353E+01  0.47330760146E+01 -0.40522297203E+03  0.40526693586E+03  0.00000000000E+00 0. -1.
        -15    1    1    2    0    0 -0.71793965915E+00 -0.29444822779E+01 -0.12228218291E+02  0.12722911020E+02  0.17770000000E+01 0.  1.
         15    1    1    2    0    0 -0.61255179411E+01  0.23234360524E+02 -0.80138166661E+02  0.83681783943E+02  0.17770000000E+01 0.  1.
</event>
<event>
 6   1  0.3798113E-04  0.5158064E+03  0.7546771E-02  0.9365120E-01
        -11   -1    0    0    0    0  0.00000000000E+00  0.00000000000E+00  0.50000000000E+03  0.50000000000E+03  0.00000000000E+00 0. -1.
         11   -1    0    0    0    0 -0.00000000000E+00 -0.00000000000E+00 -0.50000000000E+03  0.50000000000E+03  0.00000000000E+00 0.  1.
        -11    1    1    2    0    0  0.75563712996E+01 -0.39328470668E+02  0.43575513551E+03  0.43759155096E+03  0.00000000000E+00 0. -1.
         11    1    1    2    0    0 -0.97012479010E+01 -0.17917823385E+01 -0.48409304866E+03  0.48419356094E+03  0.00000000000E+00 0.  1.
        -15    1    1    2    0    0 -0.53167376266E+01  0.41730437974E+02  0.54134472402E+02  0.68581309289E+02  0.17770000000E+01 0. -1.
         15    1    1    2    0    0  0.74616142280E+01 -0.61018496728E+00 -0.57965592447E+01  0.96335788085E+01  0.17770000000E+01 0.  1.
</event>
<event>
 6   1  0.3798113E-04  0.5300957E+03  0.7546771E-02  0.9334877E-01
        -11   -1    0    0    0    0  0.00000000000E+00  0.00000000000E+00  0.50000000000E+03  0.50000000000E+03  0.00000000000E+00 0. -1.
         11   -1    0    0    0    0 -0.00000000000E+00 -0.00000000000E+00 -0.50000000000E+03  0.50000000000E+03  0.00000000000E+00 0. -1.
        -11    1    1    2    0    0  0.64042313432E+02  0.92937958724E+02  0.19488237279E+03  0.22520661915E+03  0.00000000000E+00 0. -1.
         11    1    1    2    0    0  0.10729309417E+02  0.67897162529E+01 -0.46973268060E+03  0.46990425573E+03  0.00000000000E+00 0. -1.
        -15    1    1    2    0    0 -0.70086743132E+02 -0.95586157566E+02  0.27372638427E+03  0.29829206536E+03  0.17770000000E+01 0. -1.
         15    1    1    2    0    0 -0.46848797157E+01 -0.41415174107E+01  0.11239235383E+01  0.65970597642E+01  0.17770000000E+01 0.  1.
</event>
<event>
 6   1  0.3798113E-04  0.5024872E+03  0.7546771E-02  0.9394262E-01
        -11   -1    0    0    0    0  0.00000000000E+00  0.00000000000E+00  0.50000000000E+03  0.50000000000E+03  0.00000000000E+00 0.  1.
         11   -1    0    0    0    0 -0.00000000000E+00 -0.00000000000E+00 -0.50000000000E+03  0.50000000000E+03  0.00000000000E+00 0.  1.
        -11    1    1    2    0    0  0.26322862189E+01  0.10696482767E+02  0.10367321179E+02  0.15126963435E+02  0.00000000000E+00 0.  1.
         11    1    1    2    0    0 -0.79018625771E+01 -0.11300801895E+02 -0.49732165771E+03  0.49751279258E+03  0.00000000000E+00 0.  1.
        -15    1    1    2    0    0  0.84071138966E+01 -0.63625551610E+01  0.18862893264E+03  0.18893171685E+03  0.17770000000E+01 0. -1.
         15    1    1    2    0    0 -0.31375375383E+01  0.69668742885E+01  0.29832540388E+03  0.29842852714E+03  0.17770000000E+01 0.  1.
</event>
<event>
 6   1  0.3798113E-04  0.5070714E+03  0.7546771E-02  0.9384125E-01
        -11   -1    0    0    0    0  0.00000000000E+00  0.00000000000E+00  0.50000000000E+03  0.50000000000E+03  0.00000000000E+00 0.  1.
         11   -1    0    0    0    0 -0.00000000000E+00 -0.00000000000E+00 -0.50000000000E+03  0.50000000000E+03  0.00000000000E+00 0. -1.
        -11    1    1    2    0    0 -0.54502787985E+01  0.36204321028E+02  0.44545706218E+03  0.44695911742E+03  0.00000000000E+00 0.  1.
         11    1    1    2    0    0  0.13424588616E+01 -0.11883003994E+02 -0.49278353529E+03  0.49292861616E+03  0.00000000000E+00 0. -1.
        -15    1    1    2    0    0  0.10196182734E+02  0.40469419646E+00  0.74247571654E+01  0.12744044401E+02  0.17770000000E+01 0. -1.
         15    1    1    2    0    0 -0.60883627969E+01 -0.24726011231E+02  0.39901715943E+02  0.47368222018E+02  0.17770000000E+01 0.  1.
</event>
<event>
 6   1  0.3798113E-04  0.5088693E+03  0.7546771E-02  0.9380180E-01
        -11   -1    0    0    0    0  0.00000000000E+00  0.00000000000E+00  0.50000000000E+03  0.50000000000E+03  0.00000000000E+00 0. -1.
         11   -1    0    0    0    0 -0.00000000000E+00 -0.00000000000E+00 -0.50000000000E+03  0.50000000000E+03  0.00000000000E+00 0. -1.
        -11    1    1    2    0    0  0.17068031836E+02  0.35742615924E+01  0.49082099720E+03  0.49113067950E+03  0.00000000000E+00 0. -1.
         11    1    1    2    0    0  0.33679638905E+01 -0.68648840291E+01 -0.46692257649E+03  0.46698518418E+03  0.00000000000E+00 0. -1.
        -15    1    1    2    0    0 -0.24614103484E+01 -0.90377684612E+01 -0.16014937196E+02  0.18638018727E+02  0.17770000000E+01 0. -1.
         15    1    1    2    0    0 -0.17974585379E+02  0.12328390898E+02 -0.78834835125E+01  0.23246117589E+02  0.17770000000E+01 0.  1.
</event>
<event>
 6   1  0.3798113E-04  0.5006861E+03  0.7546771E-02  0.9398276E-01
        -11   -1    0    0    0    0  0.00000000000E+00  0.00000000000E+00  0.50000000000E+03  0.50000000000E+03  0.00000000000E+00 0. -1.
         11   -1    0    0    0    0 -0.00000000000E+00 -0.00000000000E+00 -0.50000000000E+03  0.50000000000E+03  0.00000000000E+00 0. -1.
        -11    1    1    2    0    0  0.41279726831E+01 -0.12419987466E+02  0.57958993901E+02  0.59418357611E+02  0.00000000000E+00 0. -1.
         11    1    1    2    0    0  0.32401046597E+00  0.13174156209E+02 -0.49913992297E+03  0.49931385528E+03  0.00000000000E+00 0. -1.
        -15    1    1    2    0    0 -0.50846690139E+01  0.12876374071E+01  0.35195707188E+03  0.35200063926E+03  0.17770000000E+01 0. -1.
         15    1    1    2    0    0  0.63268586485E+00 -0.20418061496E+01  0.89223857190E+02  0.89267147846E+02  0.17770000000E+01 0.  1.
</event>
<event>
 6   1  0.3798113E-04  0.5046036E+03  0.7546771E-02  0.9389567E-01
        -11   -1    0    0    0    0  0.00000000000E+00  0.00000000000E+00  0.50000000000E+03  0.50000000000E+03  0.00000000000E+00 0.  1.
         11   -1    0    0    0    0 -0.00000000000E+00 -0.00000000000E+00 -0.50000000000E+03  0.50000000000E+03  0.00000000000E+00 0. -1.
        -11    1    1    2    0    0 -0.52453943618E+01 -0.19592209466E+02  0.49498107702E+03  0.49539644270E+03  0.00000000000E+00 0.  1.
         11    1    1    2    0    0  0.14223114979E+02  0.69155584297E+00 -0.44561558183E+03  0.44584304639E+03  0.00000000000E+00 0. -1.
        -15    1    1    2    0    0 -0.35835892800E+01  0.19162978972E+01 -0.36355268690E+02  0.36624822188E+02  0.17770000000E+01 0. -1.
         15    1    1    2    0    0 -0.53941313375E+01  0.16984355726E+02 -0.13010226502E+02  0.22135688717E+02  0.17770000000E+01 0.  1.
</event>
<event>
 6   1  0.3798113E-04  0.5001426E+03  0.7546771E-02  0.9399491E-01
        -11   -1    0    0    0    0  0.00000000000E+00  0.00000000000E+00  0.50000000000E+03  0.50000000000E+03  0.00000000000E+00 0. -1.
         11   -1    0    0    0    0 -0.00000000000E+00 -0.00000000000E+00 -0.50000000000E+03  0.50000000000E+03  0.00000000000E+00 0.  1.
        -11    1    1    2    0    0  0.80480746840E+01  0.40193998366E+01  0.20347461572E+03  0.20367338148E+03  0.00000000000E+00 0. -1.
         11    1    1    2    0    0 -0.12960430590E+02  0.64664703161E+01 -0.49964753850E+03  0.49985743040E+03  0.00000000000E+00 0.  1.
        -15    1    1    2    0    0  0.56919168792E+01 -0.89120245530E+01  0.24752004609E+03  0.24775220089E+03  0.17770000000E+01 0. -1.
         15    1    1    2    0    0 -0.77956097324E+00 -0.15738455997E+01  0.48652876690E+02  0.48716987227E+02  0.17770000000E+01 0. -1.
</event>
<event>
 6   1  0.3798113E-04  0.5004069E+03  0.7546771E-02  0.9398900E-01
        -11   -1    0    0    0    0  0.00000000000E+00  0.00000000000E+00  0.50000000000E+03  0.50000000000E+03  0.00000000000E+00 0. -1.
         11   -1    0    0    0    0 -0.00000000000E+00 -0.00000000000E+00 -0.50000000000E+03  0.50000000000E+03  0.00000000000E+00 0.  1.
        -11    1    1    2    0    0 -0.14809071888E+02 -0.65884845636E+01  0.15751423651E+03  0.15834598651E+03  0.00000000000E+00 0. -1.
         11    1    1    2    0    0  0.92833060239E+01  0.52804495579E+01 -0.49947890950E+03  0.49959307836E+03  0.00000000000E+00 0.  1.
        -15    1    1    2    0    0  0.43335399282E+01 -0.44969899065E+00  0.14390542613E+03  0.14398232946E+03  0.17770000000E+01 0.  1.
         15    1    1    2    0    0  0.11922259360E+01  0.17577339963E+01  0.19805924685E+03  0.19807860567E+03  0.17770000000E+01 0. -1.
</event>
<event>
 6   1  0.3798113E-04  0.5022237E+03  0.7546771E-02  0.9394848E-01
        -11   -1    0    0    0    0  0.00000000000E+00  0.00000000000E+00  0.50000000000E+03  0.50000000000E+03  0.00000000000E+00 0. -1.
         11   -1    0    0    0    0 -0.00000000000E+00 -0.00000000000E+00 -0.50000000000E+03  0.50000000000E+03  0.00000000000E+00 0. -1.
        -11    1    1    2    0    0  0.60713388913E+01 -0.12286494738E+02  0.46839894173E+03  0.46859938937E+03  0.00000000000E+00 0. -1.
         11    1    1    2    0    0 -0.10000986979E+02 -0.15738874743E+01 -0.49767328541E+03  0.49777625081E+03  0.00000000000E+00 0. -1.
        -15    1    1    2    0    0 -0.12371611586E+01  0.27738303519E+01  0.31461353647E+01  0.47202329695E+01  0.17770000000E+01 0. -1.
         15    1    1    2    0    0  0.51668092468E+01  0.11086551861E+02  0.26128208317E+02  0.28904126848E+02  0.17770000000E+01 0.  1.
</event>
<event>
 6   1  0.3798113E-04  0.5004714E+03  0.7546771E-02  0.9398756E-01
        -11   -1    0    0    0    0  0.00000000000E+00  0.00000000000E+00  0.50000000000E+03  0.50000000000E+03  0.00000000000E+00 0.  1.
         11   -1    0    0    0    0 -0.00000000000E+00 -0.00000000000E+00 -0.50000000000E+03  0.50000000000E+03  0.00000000000E+00 0.  1.
        -11    1    1    2    0    0 -0.17823634222E+01  0.14306672441E+02  0.25277340688E+03  0.25318422724E+03  0.00000000000E+00 0.  1.
         11    1    1    2    0    0 -0.10643818416E+02 -0.45172218850E+01 -0.49939480834E+03  0.49952864859E+03  0.00000000000E+00 0.  1.
        -15    1    1    2    0    0  0.30854803792E+01 -0.61191688081E+00  0.10178790706E+03  0.10185200236E+03  0.17770000000E+01 0. -1.
         15    1    1    2    0    0  0.93407014589E+01 -0.91775336752E+01  0.14483349439E+03  0.14543512181E+03  0.17770000000E+01 0.  1.
</event>
<event>
 6   1  0.3798113E-04  0.5043226E+03  0.7546771E-02  0.9390189E-01
        -11   -1    0    0    0    0  0.00000000000E+00  0.00000000000E+00  0.50000000000E+03  0.50000000000E+03  0.00000000000E+00 0. -1.
         11   -1    0    0    0    0 -0.00000000000E+00 -0.00000000000E+00 -0.50000000000E+03  0.50000000000E+03  0.00000000000E+00 0. -1.
        -11    1    1    2    0    0  0.41223132261E+01  0.16989667684E+02  0.46082074758E+03  0.46115225650E+03  0.00000000000E+00 0. -1.
         11    1    1    2    0    0  0.95766937756E+01 -0.10606121636E+02 -0.49547139054E+03  0.49567741700E+03  0.00000000000E+00 0. -1.
        -15    1    1    2    0    0 -0.87523530713E+01  0.66923945706E+01  0.19578908343E+02  0.22536264337E+02  0.17770000000E+01 0. -1.
         15    1    1    2    0    0 -0.49466539305E+01 -0.13075940619E+02  0.15071734613E+02  0.20634062164E+02  0.17770000000E+01 0.  1.
</event>
<event>
 6   1  0.3798113E-04  0.5012085E+03  0.7546771E-02  0.9397110E-01
        -11   -1    0    0    0    0  0.00000000000E+00  0.00000000000E+00  0.50000000000E+03  0.50000000000E+03  0.00000000000E+00 0. -1.
         11   -1    0    0    0    0 -0.00000000000E+00 -0.00000000000E+00 -0.50000000000E+03  0.50000000000E+03  0.00000000000E+00 0.  1.
        -11    1    1    2    0    0 -0.40116903551E+01  0.15747709352E+02  0.49852667990E+03  0.49879147405E+03  0.00000000000E+00 0. -1.
         11    1    1    2    0    0 -0.34357127469E+01 -0.70877168462E+01 -0.41969609029E+03  0.41976999423E+03  0.00000000000E+00 0.  1.
        -15    1    1    2    0    0  0.48854158604E+01 -0.13238842660E+02 -0.46156890381E+02  0.48298555897E+02  0.17770000000E+01 0.  1.
         15    1    1    2    0    0  0.25619872416E+01  0.45788501540E+01 -0.32673699231E+02  0.33139975826E+02  0.17770000000E+01 0. -1.
</event>
<event>
 6   1  0.3798113E-04  0.5039342E+03  0.7546771E-02  0.9391049E-01
        -11   -1    0    0    0    0  0.00000000000E+00  0.00000000000E+00  0.50000000000E+03  0.50000000000E+03  0.00000000000E+00 0. -1.
         11   -1    0    0    0    0 -0.00000000000E+00 -0.00000000000E+00 -0.50000000000E+03  0.50000000000E+03  0.00000000000E+00 0. -1.
        -11    1    1    2    0    0  0.16553642222E+02 -0.99538514281E+01  0.49568961631E+03  0.49606582017E+03  0.00000000000E+00 0. -1.
         11    1    1    2    0    0 -0.64085911263E+01  0.22251289553E+01 -0.43975427865E+03  0.43980660162E+03  0.00000000000E+00 0. -1.
        -15    1    1    2    0    0 -0.15439705399E+02  0.12345130312E+02 -0.22888373124E+02  0.30295578860E+02  0.17770000000E+01 0. -1.
         15    1    1    2    0    0  0.52946543036E+01 -0.46164078392E+01 -0.33046964533E+02  0.33831999341E+02  0.17770000000E+01 0.  1.
</event>
<event>
 6   1  0.3798113E-04  0.4658048E+03  0.7546771E-02  0.9479753E-01
        -11   -1    0    0    0    0  0.00000000000E+00  0.00000000000E+00  0.50000000000E+03  0.50000000000E+03  0.00000000000E+00 0. -1.
         11   -1    0    0    0    0 -0.00000000000E+00 -0.00000000000E+00 -0.50000000000E+03  0.50000000000E+03  0.00000000000E+00 0.  1.
        -11    1    1    2    0    0 -0.24121676999E+02 -0.12029873300E+02  0.47245027636E+03  0.47321859302E+03  0.00000000000E+00 0. -1.
         11    1    1    2    0    0  0.14755250045E+02 -0.30404305626E+02 -0.45826737082E+03  0.45951183049E+03  0.00000000000E+00 0.  1.
        -15    1    1    2    0    0  0.29236918858E+02  0.24110815093E+02 -0.33128984589E+01  0.38082303685E+02  0.17770000000E+01 0. -1.
         15    1    1    2    0    0 -0.19870491904E+02  0.18323363833E+02 -0.10870007083E+02  0.29187272803E+02  0.17770000000E+01 0.  1.
</event>
<event>
 6   1  0.3798113E-04  0.5050766E+03  0.7546771E-02  0.9388522E-01
        -11   -1    0    0    0    0  0.00000000000E+00  0.00000000000E+00  0.50000000000E+03  0.50000000000E+03  0.00000000000E+00 0.  1.
         11   -1    0    0    0    0 -0.00000000000E+00 -0.00000000000E+00 -0.50000000000E+03  0.50000000000E+03  0.00000000000E+00 0. -1.
        -11    1    1    2    0    0 -0.88622433921E+01  0.13394327727E+02  0.49466272756E+03  0.49492338944E+03  0.00000000000E+00 0.  1.
         11    1    1    2    0    0 -0.12772198926E+02  0.39788030123E+01 -0.45502656067E+03  0.45522316599E+03  0.00000000000E+00 0. -1.
        -15    1    1    2    0    0  0.64734924686E+01 -0.10372437587E+02 -0.23572571775E+02  0.26614233698E+02  0.17770000000E+01 0.  1.
         15    1    1    2    0    0  0.15160949850E+02 -0.70006931516E+01 -0.16063595119E+02  0.23239210875E+02  0.17770000000E+01 0. -1.
</event>
<event>
 6   1  0.3798113E-04  0.5002008E+03  0.7546771E-02  0.9399361E-01
        -11   -1    0    0    0    0  0.00000000000E+00  0.00000000000E+00  0.50000000000E+03  0.50000000000E+03  0.00000000000E+00 0.  1.
         11   -1    0    0    0    0 -0.00000000000E+00 -0.00000000000E+00 -0.50000000000E+03  0.50000000000E+03  0.00000000000E+00 0.  1.
        -11    1    1    2    0    0  0.83813374289E+01 -0.53773932375E+01  0.49970001824E+03  0.49979923110E+03  0.00000000000E+00 0.  1.
         11    1    1    2    0    0 -0.43764614462E+01 -0.22278540964E+01 -0.29923055980E+03  0.29927085502E+03  0.00000000000E+00 0.  1.
        -15    1    1    2    0    0 -0.59859728582E+01  0.30412863220E+01 -0.67690131958E+02  0.68045521433E+02  0.17770000000E+01 0.  1.
         15    1    1    2    0    0  0.19810968755E+01  0.45639610120E+01 -0.13277932648E+03  0.13288439244E+03  0.17770000000E+01 0. -1.
</event>
<event>
 6   1  0.3798113E-04  0.5000681E+03  0.7546771E-02  0.9399657E-01
        -11   -1    0    0    0    0  0.00000000000E+00  0.00000000000E+00  0.50000000000E+03  0.50000000000E+03  0.00000000000E+00 0. -1.
         11   -1    0    0    0    0 -0.00000000000E+00 -0.00000000000E+00 -0.50000000000E+03  0.50000000000E+03  0.00000000000E+00 0. -1.
        -11    1    1    2    0    0 -0.22540235671E+01 -0.45921673893E+01  0.10465759745E+03  0.10478254305E+03  0.00000000000E+00 0. -1.
         11    1    1    2    0    0  0.99358100157E+01  0.23001464185E+01 -0.49982781772E+03  0.49993185372E+03  0.00000000000E+00 0. -1.
        -15    1    1    2    0    0 -0.38105728803E+01 -0.66803405903E+00  0.20775396334E+03  0.20779757878E+03  0.17770000000E+01 0. -1.
         15    1    1    2    0    0 -0.38712135683E+01  0.29600550298E+01  0.18741625694E+03  0.18748802445E+03  0.17770000000E+01 0. -1.
</event>
<event>
 6   1  0.3798113E-04  0.5032551E+03  0.7546771E-02  0.9392555E-01
        -11   -1    0    0    0    0  0.00000000000E+00  0.00000000000E+00  0.50000000000E+03  0.50000000000E+03  0.00000000000E+00 0.  1.
         11   -1    0    0    0    0 -0.00000000000E+00 -0.00000000000E+00 -0.50000000000E+03  0.50000000000E+03  0.00000000000E+00 0.  1.
        -11    1    1    2    0    0  0.10204426972E+02 -0.18872553328E+02  0.39072525443E+03  0.39131384853E+03  0.00000000000E+00 0.  1.
         11    1    1    2    0    0  0.36008843122E+01 -0.11486846082E+02 -0.49659896872E+03  0.49674485376E+03  0.00000000000E+00 0.  1.
        -15    1    1    2    0    0  0.14586362993E+01  0.54219542282E+01  0.91671215042E+01  0.10895827329E+02  0.17770000000E+01 0.  1.
         15    1    1    2    0    0 -0.15263947584E+02  0.24937445181E+02  0.96706592785E+02  0.10104547038E+03  0.17770000000E+01 0. -1.
</event>
<event>
 6   1  0.3798113E-04  0.5021409E+03  0.7546771E-02  0.9395032E-01
        -11   -1    0    0    0    0  0.00000000000E+00  0.00000000000E+00  0.50000000000E+03  0.50000000000E+03  0.00000000000E+00 0. -1.
         11   -1    0    0    0    0 -0.00000000000E+00 -0.00000000000E+00 -0.50000000000E+03  0.50000000000E+03  0.00000000000E+00 0. -1.
        -11    1    1    2    0    0  0.26585471780E+02 -0.59860143256E+01  0.13313038455E+03  0.13589083475E+03  0.00000000000E+00 0. -1.
         11    1    1    2    0    0 -0.73180972380E+01  0.13365116830E+02 -0.49762587408E+03  0.49785910803E+03  0.00000000000E+00 0. -1.
        -15    1    1    2    0    0 -0.21215246563E+02 -0.30246965098E+01  0.35327518336E+03  0.35392901602E+03  0.17770000000E+01 0. -1.
         15    1    1    2    0    0  0.19478720208E+01 -0.43544059942E+01  0.11220306161E+02  0.12321041203E+02  0.17770000000E+01 0.  1.
</event>
<event>
 6   1  0.3798113E-04  0.5001100E+03  0.7546771E-02  0.9399564E-01
        -11   -1    0    0    0    0  0.00000000000E+00  0.00000000000E+00  0.50000000000E+03  0.50000000000E+03  0.00000000000E+00 0.  1.
         11   -1    0    0    0    0 -0.00000000000E+00 -0.00000000000E+00 -0.50000000000E+03  0.50000000000E+03  0.00000000000E+00 0. -1.
        -11    1    1    2    0    0  0.12938369407E+02  0.34183091992E+01  0.15323965616E+03  0.15382288016E+03  0.00000000000E+00 0.  1.
         11    1    1    2    0    0 -0.21926618553E+02 -0.73299905693E+01 -0.49935509957E+03  0.49989000874E+03  0.00000000000E+00 0. -1.
        -15    1    1    2    0    0  0.49939314778E+01  0.35446625401E+01  0.23129885372E+03  0.23138673567E+03  0.17770000000E+01 0.  1.
         15    1    1    2    0    0  0.39943176680E+01  0.36701883000E+00  0.11481658969E+03  0.11490037543E+03  0.17770000000E+01 0.  1.
</event>
<event>
 6   1  0.3798113E-04  0.5123913E+03  0.7546771E-02  0.9372502E-01
        -11   -1    0    0    0    0  0.00000000000E+00  0.00000000000E+00  0.50000000000E+03  0.50000000000E+03  0.00000000000E+00 0. -1.
         11   -1    0    0    0    0 -0.00000000000E+00 -0.00000000000E+00 -0.50000000000E+03  0.50000000000E+03  0.00000000000E+00 0. -1.
        -11    1    1    2    0    0  0.32664409337E+02 -0.53871417790E+02  0.48352161577E+03  0.48760870194E+03  0.00000000000E+00 0. -1.
         11    1    1    2    0    0  0.83202611608E+01 -0.18387024237E+02 -0.36219363955E+03  0.36275548506E+03  0.00000000000E+00 0. -1.
        -15    1    1    2    0    0 -0.83105116446E+01  0.21038648403E+02 -0.15121415552E+02  0.27267274666E+02  0.17770000000E+01 0.  1.
         15    1    1    2    0    0 -0.32674158853E+02  0.51219793623E+02 -0.10620656067E+03  0.12236853833E+03  0.17770000000E+01 0. -1.
</event>
<event>
 6   1  0.3798113E-04  0.5003262E+03  0.7546771E-02  0.9399080E-01
        -11   -1    0    0    0    0  0.00000000000E+00  0.00000000000E+00  0.50000000000E+03  0.50000000000E+03  0.00000000000E+00 0. -1.
         11   -1    0    0    0    0 -0.00000000000E+00 -0.00000000000E+00 -0.50000000000E+03  0.50000000000E+03  0.00000000000E+00 0. -1.
        -11    1    1    2    0    0  0.48979491581E+01  0.55787613058E+01  0.49961859921E+03  0.49967375072E+03  0.00000000000E+00 0. -1.
         11    1    1    2    0    0 -0.93347046815E+00 -0.81876876179E+01 -0.44355497712E+03  0.44363152202E+03  0.00000000000E+00 0. -1.
        -15    1    1    2    0    0 -0.27563870944E+01 -0.12197603951E+01 -0.15282317055E+02  0.15677768617E+02  0.17770000000E+01 0.  1.
         15    1    1    2    0    0 -0.12080915955E+01  0.38286867072E+01 -0.40781305034E+02  0.41016958645E+02  0.17770000000E+01 0. -1.
</event>
<event>
 6   1  0.3798113E-04  0.5000557E+03  0.7546771E-02  0.9399685E-01
        -11   -1    0    0    0    0  0.00000000000E+00  0.00000000000E+00  0.50000000000E+03  0.50000000000E+03  0.00000000000E+00 0.  1.
         11   -1    0    0    0    0 -0.00000000000E+00 -0.00000000000E+00 -0.50000000000E+03  0.50000000000E+03  0.00000000000E+00 0.  1.
        -11    1    1    2    0    0  0.18401043933E+02 -0.77230579982E+01  0.49954585303E+03  0.49994430022E+03  0.00000000000E+00 0.  1.
         11    1    1    2    0    0 -0.22063757149E+01  0.86095089832E+00 -0.30396919255E+02  0.30489047713E+02  0.00000000000E+00 0.  1.
        -15    1    1    2    0    0 -0.78072348746E+01  0.63614237835E+01 -0.32597544301E+03  0.32613581190E+03  0.17770000000E+01 0.  1.
         15    1    1    2    0    0 -0.83874333433E+01  0.50068331645E+00 -0.14317349077E+03  0.14343084016E+03  0.17770000000E+01 0.  1.
</event>
<event>
 6   1  0.3798113E-04  0.4657651E+03  0.7546771E-02  0.9479850E-01
        -11   -1    0    0    0    0  0.00000000000E+00  0.00000000000E+00  0.50000000000E+03  0.50000000000E+03  0.00000000000E+00 0.  1.
         11   -1    0    0    0    0 -0.00000000000E+00 -0.00000000000E+00 -0.50000000000E+03  0.50000000000E+03  0.00000000000E+00 0. -1.
        -11    1    1    2    0    0 -0.45778833178E+02  0.15282511116E+02  0.45020528040E+03  0.45278477361E+03  0.00000000000E+00 0.  1.
         11    1    1    2    0    0 -0.80220585203E+01 -0.30565586648E+01 -0.48080281169E+03  0.48087944404E+03  0.00000000000E+00 0. -1.
        -15    1    1    2    0    0  0.29439707167E+02 -0.12488770612E+01  0.25643106770E+02  0.39102208452E+02  0.17770000000E+01 0.  1.
         15    1    1    2    0    0  0.24361184530E+02 -0.10977075390E+02  0.49544245211E+01  0.27233573897E+02  0.17770000000E+01 0. -1.
</event>
<event>
 6   1  0.3798113E-04  0.4292906E+03  0.7546771E-02  0.9573608E-01
        -11   -1    0    0    0    0  0.00000000000E+00  0.00000000000E+00  0.50000000000E+03  0.50000000000E+03  0.00000000000E+00 0.  1.
         11   -1    0    0    0    0 -0.00000000000E+00 -0.00000000000E+00 -0.50000000000E+03  0.50000000000E+03  0.00000000000E+00 0. -1.
        -11    1    1    2    0    0 -0.32365524582E+02  0.12860512744E+03  0.85449195366E+02  0.15776048610E+03  0.00000000000E+00 0.  1.
         11    1    1    2    0    0 -0.53453415270E+01 -0.24573939600E+01 -0.43528897242E+03  0.43532872748E+03  0.00000000000E+00 0. -1.
        -15    1    1    2    0    0  0.27334442224E+02 -0.93787111665E+02  0.35868150182E+03  0.37175095362E+03  0.17770000000E+01 0.  1.
         15    1    1    2    0    0  0.10376423885E+02 -0.32360621812E+02 -0.88417247640E+01  0.35159832800E+02  0.17770000000E+01 0. -1.
</event>
<event>
 6   1  0.3798113E-04  0.5005509E+03  0.7546771E-02  0.9398578E-01
        -11   -1    0    0    0    0  0.00000000000E+00  0.00000000000E+00  0.50000000000E+03  0.50000000000E+03  0.00000000000E+00 0. -1.
         11   -1    0    0    0    0 -0.00000000000E+00 -0.00000000000E+00 -0.50000000000E+03  0.50000000000E+03  0.00000000000E+00 0.  1.
        -11    1    1    2    0    0 -0.38085164346E+01  0.16932822360E+02  0.13532317660E+03  0.13643162168E+03  0.00000000000E+00 0. -1.
         11    1    1    2    0    0 -0.23896957682E+01 -0.11518031612E+02 -0.49931053207E+03  0.49944907962E+03  0.00000000000E+00 0.  1.
        -15    1    1    2    0    0  0.95428100171E+00 -0.30718969642E+01  0.16604124495E+03  0.16608190738E+03  0.17770000000E+01 0.  1.
         15    1    1    2    0    0  0.52439312011E+01 -0.23428937838E+01  0.19794611051E+03  0.19803739132E+03  0.17770000000E+01 0. -1.
</event>
<event>
 6   1  0.3798113E-04  0.5001864E+03  0.7546771E-02  0.9399393E-01
        -11   -1    0    0    0    0  0.00000000000E+00  0.00000000000E+00  0.50000000000E+03  0.50000000000E+03  0.00000000000E+00 0. -1.
         11   -1    0    0    0    0 -0.00000000000E+00 -0.00000000000E+00 -0.50000000000E+03  0.50000000000E+03  0.00000000000E+00 0. -1.
        -11    1    1    2    0    0  0.15216920845E+01  0.18350197237E+01  0.35202147962E+02  0.35282772926E+02  0.00000000000E+00 0. -1.
         11    1    1    2    0    0  0.12916937592E+02  0.11885962284E+01 -0.49964526168E+03  0.49981361282E+03  0.00000000000E+00 0. -1.
        -15    1    1    2    0    0 -0.31855098441E+01 -0.75385802910E+01  0.17170272956E+03  0.17190684319E+03  0.17770000000E+01 0.  1.
         15    1    1    2    0    0 -0.11253119833E+02  0.45149643389E+01  0.29274038416E+03  0.29299677107E+03  0.17770000000E+01 0. -1.
</event>
<event>
 6   1  0.3798113E-04  0.5004460E+03  0.7546771E-02  0.9398812E-01
        -11   -1    0    0    0    0  0.00000000000E+00  0.00000000000E+00  0.50000000000E+03  0.50000000000E+03  0.00000000000E+00 0.  1.
         11   -1    0    0    0    0 -0.00000000000E+00 -0.00000000000E+00 -0.50000000000E+03  0.50000000000E+03  0.00000000000E+00 0. -1.
        -11    1    1    2    0    0 -0.52123382272E+01  0.52652490302E+01  0.49949904079E+03  0.49955398414E+03  0.00000000000E+00 0.  1.
         11    1    1    2    0    0 -0.56369221497E+01 -0.23962750427E+01 -0.41133429784E+03  0.41137989937E+03  0.00000000000E+00 0. -1.
        -15    1    1    2    0    0  0.90976396694E+01 -0.30872201641E+01 -0.60004325616E+02  0.60794529339E+02  0.17770000000E+01 0.  1.
         15    1    1    2    0    0  0.17516207075E+01  0.21824617661E+00 -0.28160417334E+02  0.28271587149E+02  0.17770000000E+01 0. -1.
</event>
<event>
 6   1  0.3798113E-04  0.5049335E+03  0.7546771E-02  0.9388838E-01
        -11   -1    0    0    0    0  0.00000000000E+00  0.00000000000E+00  0.50000000000E+03  0.50000000000E+03  0.00000000000E+00 0.  1.
         11   -1    0    0    0    0 -0.00000000000E+00 -0.00000000000E+00 -0.50000000000E+03  0.50000000000E+03  0.00000000000E+00 0. -1.
        -11    1    1    2    0    0 -0.21673824752E+02  0.22397478360E+01  0.31756389886E+03  0.31831054178E+03  0.00000000000E+00 0.  1.
         11    1    1    2    0    0 -0.17288517625E+02  0.12062020712E+02 -0.49461752955E+03  0.49506654676E+03  0.00000000000E+00 0. -1.
        -15    1    1    2    0    0  0.36461622872E+02 -0.71021392143E+01  0.17445786002E+03  0.17837766950E+03  0.17770000000E+01 0.  1.
         15    1    1    2    0    0  0.25007195051E+01 -0.71996293338E+01  0.25957706644E+01  0.82452419570E+01  0.17770000000E+01 0. -1.
</event>
<event>
 6   1  0.3798113E-04  0.5007497E+03  0.7546771E-02  0.9398134E-01
        -11   -1    0    0    0    0  0.00000000000E+00  0.00000000000E+00  0.50000000000E+03  0.50000000000E+03  0.00000000000E+00 0.  1.
         11   -1    0    0    0    0 -0.00000000000E+00 -0.00000000000E+00 -0.50000000000E+03  0.50000000000E+03  0.00000000000E+00 0.  1.
        -11    1    1    2    0    0  0.17500697405E+02  0.51696229142E+00  0.49894323454E+03  0.49925033095E+03  0.00000000000E+00 0.  1.
         11    1    1    2    0    0 -0.62549514457E+01 -0.80058548428E+01 -0.32700877455E+03  0.32716655814E+03  0.00000000000E+00 0.  1.
        -15    1    1    2    0    0 -0.10210911398E+02 -0.18029859796E+01 -0.41885626980E+02  0.43186536635E+02  0.17770000000E+01 0. -1.
         15    1    1    2    0    0 -0.10348345612E+01  0.92918785310E+01 -0.13004883301E+03  0.13039657428E+03  0.17770000000E+01 0.  1.
</event>
<event>
 6   1  0.3798113E-04  0.5005403E+03  0.7546771E-02  0.9398602E-01
        -11   -1    0    0    0    0  0.00000000000E+00  0.00000000000E+00  0.50000000000E+03  0.50000000000E+03  0.00000000000E+00 0.  1.
         11   -1    0    0    0    0 -0.00000000000E+00 -0.00000000000E+00 -0.50000000000E+03  0.50000000000E+03  0.00000000000E+00 0. -1.
        -11    1    1    2    0    0 -0.10688875474E+02 -0.23782111962E+01  0.80868601541E+02  0.81606609185E+02  0.00000000000E+00 0.  1.
         11    1    1    2    0    0 -0.41869993667E+01 -0.54440702377E+01 -0.49941245678E+03  0.49945967890E+03  0.00000000000E+00 0. -1.
        -15    1    1    2    0    0  0.13009513873E+02  0.70365948167E+01  0.38216431441E+03  0.38245454901E+03  0.17770000000E+01 0.  1.
         15    1    1    2    0    0  0.18663609673E+01  0.78568661718E+00  0.36379540824E+02  0.36479162905E+02  0.17770000000E+01 0. -1.
</event>
<event>
 6   1  0.3798113E-04  0.5000725E+03  0.7546771E-02  0.9399647E-01
        -11   -1    0    0    0    0  0.00000000000E+00  0.00000000000E+00  0.50000000000E+03  0.50000000000E+03  0.00000000000E+00 0.  1.
         11   -1    0    0    0    0 -0.00000000000E+00 -0.00000000000E+00 -0.50000000000E+03  0.50000000000E+03  0.00000000000E+00 0.  1.
        -11    1    1    2    0    0  0.10424488834E+02  0.44716585991E+01  0.24993678237E+03  0.25019404645E+03  0.00000000000E+00 0.  1.
         11    1    1    2    0    0 -0.10312048806E+02 -0.71171395560E+01 -0.49977043424E+03  0.49992747371E+03  0.00000000000E+00 0.  1.
        -15    1    1    2    0    0 -0.62198123927E+00  0.14341871178E+01  0.16072187620E+03  0.16073930127E+03  0.17770000000E+01 0.  1.
         15    1    1    2    0    0  0.50954121110E+00  0.12112938391E+01  0.89111775664E+02  0.89139178570E+02  0.17770000000E+01 0.  1.
</event>
<event>
 6   1  0.3798113E-04  0.5003258E+03  0.7546771E-02  0.9399081E-01
        -11   -1    0    0    0    0  0.00000000000E+00  0.00000000000E+00  0.50000000000E+03  0.50000000000E+03  0.00000000000E+00 0. -1.
         11   -1    0    0    0    0 -0.00000000000E+00 -0.00000000000E+00 -0.50000000000E+03  0.50000000000E+03  0.00000000000E+00 0.  1.
        -11    1    1    2    0    0  0.87502468806E+01  0.52094603230E+01  0.13655377443E+03  0.13693297122E+03  0.00000000000E+00 0. -1.
         11    1    1    2    0    0 -0.24117223057E+01  0.81357318879E+01 -0.49960216908E+03  0.49967422776E+03  0.00000000000E+00 0.  1.
        -15    1    1    2    0    0 -0.53511940873E+01 -0.73314890082E+01  0.24406814735E+03  0.24424333008E+03  0.17770000000E+01 0. -1.
         15    1    1    2    0    0 -0.98733048759E+00 -0.60137032027E+01  0.11898024730E+03  0.11914947094E+03  0.17770000000E+01 0. -1.
</event>
<event>
 6   1  0.3798113E-04  0.4885054E+03  0.7546771E-02  0.9425903E-01
        -11   -1    0    0    0    0  0.00000000000E+00  0.00000000000E+00  0.50000000000E+03  0.50000000000E+03  0.00000000000E+00 0. -1.
         11   -1    0    0    0    0 -0.00000000000E+00 -0.00000000000E+00 -0.50000000000E+03  0.50000000000E+03  0.00000000000E+00 0. -1.
        -11    1    1    2    0    0 -0.49513130700E+01 -0.10663938677E+02  0.48599181204E+03  0.48613401081E+03  0.00000000000E+00 0. -1.
         11    1    1    2    0    0 -0.13251086903E+01 -0.68351318174E+01 -0.49101728533E+03  0.49106664459E+03  0.00000000000E+00 0. -1.
        -15    1    1    2    0    0  0.21306980468E+01 -0.40319684090E+00 -0.15475939488E+01  0.32023769125E+01  0.17770000000E+01 0.  1.
         15    1    1    2    0    0  0.41457237135E+01  0.17902267335E+02  0.65730672332E+01  0.19596967691E+02  0.17770000000E+01 0. -1.
</event>
<event>
 6   1  0.3798113E-04  0.5001646E+03  0.7546771E-02  0.9399442E-01
        -11   -1    0    0    0    0  0.00000000000E+00  0.00000000000E+00  0.50000000000E+03  0.50000000000E+03  0.00000000000E+00 0. -1.
         11   -1    0    0    0    0 -0.00000000000E+00 -0.00000000000E+00 -0.50000000000E+03  0.50000000000E+03  0.00000000000E+00 0. -1.
        -11    1    1    2    0    0 -0.10257098454E+02  0.55108057573E+01  0.49969979181E+03  0.49983543190E+03  0.00000000000E+00 0. -1.
         11    1    1    2    0    0 -0.34348738340E+01 -0.46853455301E+00 -0.19005782781E+03  0.19008944157E+03  0.00000000000E+00 0. -1.
        -15    1    1    2    0    0  0.34990297593E+01 -0.45738878405E+01 -0.11438000615E+03  0.11453867118E+03  0.17770000000E+01 0.  1.
         15    1    1    2    0    0  0.10192942528E+02 -0.46838336382E+00 -0.19526195785E+03  0.19553645535E+03  0.17770000000E+01 0. -1.
</event>
<event>
 6   1  0.3798113E-04  0.5083004E+03  0.7546771E-02  0.9381426E-01
        -11   -1    0    0    0    0  0.00000000000E+00  0.00000000000E+00  0.50000000000E+03  0.50000000000E+03  0.00000000000E+00 0. -1.
         11   -1    0    0    0    0 -0.00000000000E+00 -0.00000000000E+00 -0.50000000000E+03  0.50000000000E+03  0.00000000000E+00 0.  1.
        -11    1    1    2    0    0 -0.23098627491E+02 -0.65179603321E+00  0.49115630884E+03  0.49169959441E+03  0.00000000000E+00 0. -1.
         11    1    1    2    0    0 -0.14937887809E+00  0.16474951223E+02 -0.47051936691E+03  0.47080773248E+03  0.00000000000E+00 0.  1.
        -15    1    1    2    0    0  0.18734801610E+02 -0.50472534412E+01 -0.12713231368E+02  0.23264813334E+02  0.17770000000E+01 0. -1.
         15    1    1    2    0    0  0.45132047597E+01 -0.10775901749E+02 -0.79237105625E+01  0.14227859775E+02  0.17770000000E+01 0.  1.
</event>
<event>
 6   1  0.3798113E-04  0.5012425E+03  0.7546771E-02  0.9397034E-01
        -11   -1    0    0    0    0  0.00000000000E+00  0.00000000000E+00  0.50000000000E+03  0.50000000000E+03  0.00000000000E+00 0.  1.
         11   -1    0    0    0    0 -0.00000000000E+00 -0.00000000000E+00 -0.50000000000E+03  0.50000000000E+03  0.00000000000E+00 0. -1.
        -11    1    1    2    0    0 -0.71045251780E+01 -0.12183225944E+02  0.49855802939E+03  0.49875747006E+03  0.00000000000E+00 0.  1.
         11    1    1    2    0    0  0.58875304712E+01 -0.35681185932E+01 -0.34652895542E+03  0.34659733327E+03  0.00000000000E+00 0. -1.
        -15    1    1    2    0    0 -0.83197316415E+01  0.41311704708E+01 -0.25203775209E+02  0.26919742158E+02  0.17770000000E+01 0. -1.
         15    1    1    2    0    0  0.95367263482E+01  0.11620174067E+02 -0.12682529876E+03  0.12772545451E+03  0.17770000000E+01 0.  1.
</event>
<event>
 6   1  0.3798113E-04  0.5169577E+03  0.7546771E-02  0.9362645E-01
        -11   -1    0    0    0    0  0.00000000000E+00  0.00000000000E+00  0.50000000000E+03  0.50000000000E+03  0.00000000000E+00 0. -1.
         11   -1    0    0    0    0 -0.00000000000E+00 -0.00000000000E+00 -0.50000000000E+03  0.50000000000E+03  0.00000000000E+00 0.  1.
        -11    1    1    2    0    0  0.16833629856E+02  0.75562679579E+01  0.48268977571E+03  0.48304232511E+03  0.00000000000E+00 0. -1.
         11    1    1    2    0    0 -0.11273545449E+02 -0.55642319722E+01 -0.46847804894E+03  0.46864670685E+03  0.00000000000E+00 0.  1.
        -15    1    1    2    0    0 -0.18115328509E+02 -0.17523263046E+02 -0.12495832841E+02  0.28187469595E+02  0.17770000000E+01 0. -1.
         15    1    1    2    0    0  0.12555244102E+02  0.15531227061E+02 -0.17158939261E+01  0.20123498439E+02  0.17770000000E+01 0.  1.
</event>
<event>
 6   1  0.3798113E-04  0.5006552E+03  0.7546771E-02  0.9398345E-01
        -11   -1    0    0    0    0  0.00000000000E+00  0.00000000000E+00  0.50000000000E+03  0.50000000000E+03  0.00000000000E+00 0.  1.
         11   -1    0    0    0    0 -0.00000000000E+00 -0.00000000000E+00 -0.50000000000E+03  0.50000000000E+03  0.00000000000E+00 0.  1.
        -11    1    1    2    0    0  0.11068109018E+02  0.28538422578E+01  0.32864225227E+03  0.32884096070E+03  0.00000000000E+00 0.  1.
         11    1    1    2    0    0  0.57527374971E+01  0.68002362486E+01 -0.49926534705E+03  0.49934479467E+03  0.00000000000E+00 0.  1.
        -15    1    1    2    0    0 -0.22662174798E+01 -0.27462484052E+01  0.35671612989E+02  0.35892886819E+02  0.17770000000E+01 0. -1.
         15    1    1    2    0    0 -0.14554629035E+02 -0.69078301012E+01  0.13495148179E+03  0.13592135781E+03  0.17770000000E+01 0.  1.
</event>
<event>
 6   1  0.3798113E-04  0.5035047E+03  0.7546771E-02  0.9392002E-01
        -11   -1    0    0    0    0  0.00000000000E+00  0.00000000000E+00  0.50000000000E+03  0.50000000000E+03  0.00000000000E+00 0. -1.
         11   -1    0    0    0    0 -0.00000000000E+00 -0.00000000000E+00 -0.50000000000E+03  0.50000000000E+03  0.00000000000E+00 0.  1.
        -11    1    1    2    0    0 -0.12501885032E+02  0.20408767541E+02  0.49591813091E+03  0.49649532474E+03  0.00000000000E+00 0. -1.
         11    1    1    2    0    0  0.26757248508E+01  0.75793570497E+01 -0.37509754627E+03  0.37518365553E+03  0.00000000000E+00 0.  1.
        -15    1    1    2    0    0  0.60882269865E+01 -0.22537016511E+02 -0.34291440841E+02  0.41521612024E+02  0.17770000000E+01 0.  1.
         15    1    1    2    0    0  0.37379331944E+01 -0.54511080791E+01 -0.86529143793E+02  0.86799407707E+02  0.17770000000E+01 0.  1.
</event>
<event>
 6   1  0.3798113E-04  0.5019867E+03  0.7546771E-02  0.9395375E-01
        -11   -1    0    0    0    0  0.00000000000E+00  0.00000000000E+00  0.50000000000E+03  0.50000000000E+03  0.00000000000E+00 0.  1.
         11   -1    0    0    0    0 -0.00000000000E+00 -0.00000000000E+00 -0.50000000000E+03  0.50000000000E+03  0.00000000000E+00 0. -1.
        -11    1    1    2    0    0 -0.19872059671E+02 -0.71392811049E+01  0.49756541522E+03  0.49801326339E+03  0.00000000000E+00 0.  1.
         11    1    1    2    0    0  0.11200101055E+02 -0.77673725213E+00 -0.43870776295E+03  0.43885139495E+03  0.00000000000E+00 0. -1.
        -15    1    1    2    0    0 -0.24693008702E+01 -0.47008887885E+00 -0.37125735530E+02  0.37253139438E+02  0.17770000000E+01 0. -1.
         15    1    1    2    0    0  0.11141259486E+02  0.83861072359E+01 -0.21731916741E+02  0.25882202220E+02  0.17770000000E+01 0.  1.
</event>
<event>
 6   1  0.3798113E-04  0.5014940E+03  0.7546771E-02  0.9396473E-01
        -11   -1    0    0    0    0  0.00000000000E+00  0.00000000000E+00  0.50000000000E+03  0.50000000000E+03  0.00000000000E+00 0.  1.
         11   -1    0    0    0    0 -0.00000000000E+00 -0.00000000000E+00 -0.50000000000E+03  0.50000000000E+03  0.00000000000E+00 0.  1.
        -11    1    1    2    0    0 -0.84307693378E+01 -0.65137852577E+01  0.17659797616E+02  0.20624638708E+02  0.00000000000E+00 0.  1.
         11    1    1    2    0    0  0.13773545439E+02  0.11087949949E+02 -0.49819232774E+03  0.49850601663E+03  0.00000000000E+00 0.  1.
        -15    1    1    2    0    0 -0.45887148525E+01  0.54766756409E+01  0.15314343475E+03  0.15332031704E+03  0.17770000000E+01 0. -1.
         15    1    1    2    0    0 -0.75406124834E+00 -0.10050840332E+02  0.32738909538E+03  0.32754902763E+03  0.17770000000E+01 0.  1.
</event>
<event>
 6   1  0.3798113E-04  0.5043917E+03  0.7546771E-02  0.9390036E-01
        -11   -1    0    0    0    0  0.00000000000E+00  0.00000000000E+00  0.50000000000E+03  0.50000000000E+03  0.00000000000E+00 0. -1.
         11   -1    0    0    0    0 -0.00000000000E+00 -0.00000000000E+00 -0.50000000000E+03  0.50000000000E+03  0.00000000000E+00 0. -1.
        -11    1    1    2    0    0  0.40588896825E+02 -0.19474129535E+02  0.49355939975E+03  0.49560829427E+03  0.00000000000E+00 0. -1.
         11    1    1    2    0    0 -0.18557231085E+01  0.85093770127E+01 -0.25597543712E+03  0.25612355927E+03  0.00000000000E+00 0. -1.
        -15    1    1    2    0    0 -0.26122356131E+02  0.46679526687E+01 -0.23114507275E+03  0.23267008758E+03  0.17770000000E+01 0. -1.
         15    1    1    2    0    0 -0.12610817585E+02  0.62967998531E+01 -0.64388898834E+01  0.15598058869E+02  0.17770000000E+01 0.  1.
</event>
<event>
 6   1  0.3798113E-04  0.5016800E+03  0.7546771E-02  0.9396058E-01
        -11   -1    0    0    0    0  0.00000000000E+00  0.00000000000E+00  0.50000000000E+03  0.50000000000E+03  0.00000000000E+00 0. -1.
         11   -1    0    0    0    0 -0.00000000000E+00 -0.00000000000E+00 -0.50000000000E+03  0.50000000000E+03  0.00000000000E+00 0.  1.
        -11    1    1    2    0    0  0.11238336459E+02 -0.78596559998E+01  0.49813120935E+03  0.49831995357E+03  0.00000000000E+00 0. -1.
         11    1    1    2    0    0 -0.94016982420E+01 -0.54970944664E+01 -0.46411006444E+03  0.46423782902E+03  0.00000000000E+00 0.  1.
        -15    1    1    2    0    0 -0.23163007193E+01  0.75387449566E+01 -0.11158713052E+02  0.13779424172E+02  0.17770000000E+01 0.  1.
         15    1    1    2    0    0  0.47966250256E+00  0.58180055096E+01 -0.22862431862E+02  0.23662793239E+02  0.17770000000E+01 0. -1.
</event>
<event>
 6   1  0.3798113E-04  0.5000700E+03  0.7546771E-02  0.9399653E-01
        -11   -1    0    0    0    0  0.00000000000E+00  0.00000000000E+00  0.50000000000E+03  0.50000000000E+03  0.00000000000E+00 0. -1.
         11   -1    0    0    0    0 -0.00000000000E+00 -0.00000000000E+00 -0.50000000000E+03  0.50000000000E+03  0.00000000000E+00 0.  1.
        -11    1    1    2    0    0  0.44938852423E+00 -0.11016640685E+02  0.49980839649E+03  0.49992999662E+03  0.00000000000E+00 0. -1.
         11    1    1    2    0    0  0.28670642141E+01 -0.49230083224E+00 -0.10196311615E+03  0.10200460515E+03  0.00000000000E+00 0.  1.
        -15    1    1    2    0    0 -0.12402138802E+01  0.60365533165E+01 -0.13904839745E+03  0.13919623798E+03  0.17770000000E+01 0. -1.
         15    1    1    2    0    0 -0.20762388581E+01  0.54723882008E+01 -0.25879688290E+03  0.25886916024E+03  0.17770000000E+01 0.  1.
</event>
<event>
 6   1  0.3798113E-04  0.5066419E+03  0.7546771E-02  0.9385069E-01
        -11   -1    0    0    0    0  0.00000000000E+00  0.00000000000E+00  0.50000000000E+03  0.50000000000E+03  0.00000000000E+00 0. -1.
         11   -1    0    0    0    0 -0.00000000000E+00 -0.00000000000E+00 -0.50000000000E+03  0.50000000000E+03  0.00000000000E+00 0. -1.
        -11    1    1    2    0    0 -0.27779274279E+01  0.33480030795E+02  0.44095636567E+03  0.44223426571E+03  0.00000000000E+00 0. -1.
         11    1    1    2    0    0  0.72422014735E+01  0.20961434017E+01 -0.49330048757E+03  0.49335809949E+03  0.00000000000E+00 0. -1.
        -15    1    1    2    0    0 -0.89019527348E+00 -0.25393680498E+01  0.13054146062E+01  0.34788897671E+01  0.17770000000E+01 0.  1.
         15    1    1    2    0    0 -0.35740787721E+01 -0.33036806147E+02  0.51038707295E+02  0.60928745029E+02  0.17770000000E+01 0. -1.
</event>
<event>
 6   1  0.3798113E-04  0.5128860E+03  0.7546771E-02  0.9371429E-01
        -11   -1    0    0    0    0  0.00000000000E+00  0.00000000000E+00  0.50000000000E+03  0.50000000000E+03  0.00000000000E+00 0.  1.
         11   -1    0    0    0    0 -0.00000000000E+00 -0.00000000000E+00 -0.50000000000E+03  0.50000000000E+03  0.00000000000E+00 0.  1.
        -11    1    1    2    0    0 -0.34075974415E+01  0.24739234681E+02  0.48647339790E+03  0.48711395824E+03  0.00000000000E+00 0.  1.
         11    1    1    2    0    0  0.54688806176E+01 -0.43510557931E+01 -0.45535627739E+03  0.45540990294E+03  0.00000000000E+00 0.  1.
        -15    1    1    2    0    0  0.11706139704E+02 -0.15253511842E+02 -0.36850911944E+02  0.41603494690E+02  0.17770000000E+01 0.  1.
         15    1    1    2    0    0 -0.13767422880E+02 -0.51346670461E+01  0.57337914330E+01  0.15872644128E+02  0.17770000000E+01 0. -1.
</event>
<event>
 6   1  0.3798113E-04  0.5003163E+03  0.7546771E-02  0.9399102E-01
        -11   -1    0    0    0    0  0.00000000000E+00  0.00000000000E+00  0.50000000000E+03  0.50000000000E+03  0.00000000000E+00 0.  1.
         11   -1    0    0    0    0 -0.00000000000E+00 -0.00000000000E+00 -0.50000000000E+03  0.50000000000E+03  0.00000000000E+00 0.  1.
        -11    1    1    2    0    0 -0.15233077204E+00  0.81798793998E+01  0.17618212073E+03  0.17637197424E+03  0.00000000000E+00 0.  1.
         11    1    1    2    0    0 -0.62111169637E+01  0.47024834279E+01 -0.49962294993E+03  0.49968368337E+03  0.00000000000E+00 0.  1.
        -15    1    1    2    0    0  0.30951720282E+01  0.20555820693E+00  0.11758796903E+03  0.11764229908E+03  0.17770000000E+01 0.  1.
         15    1    1    2    0    0  0.32682757076E+01 -0.13087921035E+02  0.20585286017E+03  0.20630204331E+03  0.17770000000E+01 0. -1.
</event>
<event>
 6   1  0.3798113E-04  0.5027429E+03  0.7546771E-02  0.9393693E-01
        -11   -1    0    0    0    0  0.00000000000E+00  0.00000000000E+00  0.50000000000E+03  0.50000000000E+03  0.00000000000E+00 0.  1.
         11   -1    0    0    0    0 -0.00000000000E+00 -0.00000000000E+00 -0.50000000000E+03  0.50000000000E+03  0.00000000000E+00 0. -1.
        -11    1    1    2    0    0  0.36827697208E+02  0.33603948800E+00  0.49589136321E+03  0.49725711288E+03  0.00000000000E+00 0.  1.
         11    1    1    2    0    0 -0.73737632796E+01 -0.11843307482E+02 -0.37420868056E+03  0.37446865412E+03  0.00000000000E+00 0. -1.
        -15    1    1    2    0    0 -0.25590962079E+02  0.29555417024E+01 -0.53275982492E+02  0.59204059036E+02  0.17770000000E+01 0. -1.
         15    1    1    2    0    0 -0.38629718493E+01  0.85517262916E+01 -0.68406700163E+02  0.69070173956E+02  0.17770000000E+01 0.  1.
</event>
<event>
 6   1  0.3798113E-04  0.5008135E+03  0.7546771E-02  0.9397991E-01
        -11   -1    0    0    0    0  0.00000000000E+00  0.00000000000E+00  0.50000000000E+03  0.50000000000E+03  0.00000000000E+00 0. -1.
         11   -1    0    0    0    0 -0.00000000000E+00 -0.00000000000E+00 -0.50000000000E+03  0.50000000000E+03  0.00000000000E+00 0.  1.
        -11    1    1    2    0    0  0.29089677337E+01  0.88711664112E+01  0.49909917146E+03  0.49918648083E+03  0.00000000000E+00 0. -1.
         11    1    1    2    0    0  0.33884769192E+01  0.40831259575E+01 -0.35276037246E+03  0.35280027505E+03  0.00000000000E+00 0.  1.
        -15    1    1    2    0    0 -0.11270759198E+02 -0.11900522362E+02 -0.12020455217E+03  0.12132989960E+03  0.17770000000E+01 0.  1.
         15    1    1    2    0    0  0.49733145454E+01 -0.10537700071E+01 -0.26134246833E+02  0.26683344530E+02  0.17770000000E+01 0.  1.
</event>
<event>
 6   1  0.3798113E-04  0.5021069E+03  0.7546771E-02  0.9395108E-01
        -11   -1    0    0    0    0  0.00000000000E+00  0.00000000000E+00  0.50000000000E+03  0.50000000000E+03  0.00000000000E+00 0. -1.
         11   -1    0    0    0    0 -0.00000000000E+00 -0.00000000000E+00 -0.50000000000E+03  0.50000000000E+03  0.00000000000E+00 0.  1.
        -11    1    1    2    0    0  0.24753003225E+01 -0.11077449518E+02  0.42977248621E+03  0.42992234985E+03  0.00000000000E+00 0. -1.
         11    1    1    2    0    0 -0.89760003272E+01 -0.10733037764E+02 -0.49769644513E+03  0.49789307906E+03  0.00000000000E+00 0.  1.
        -15    1    1    2    0    0  0.13172308120E+01  0.11583314396E+02  0.44619262798E+02  0.46151322961E+02  0.17770000000E+01 0. -1.
         15    1    1    2    0    0  0.51834691927E+01  0.10227172887E+02  0.23304696120E+02  0.26033248133E+02  0.17770000000E+01 0.  1.
</event>
<event>
 6   1  0.3798113E-04  0.5002608E+03  0.7546771E-02  0.9399226E-01
        -11   -1    0    0    0    0  0.00000000000E+00  0.00000000000E+00  0.50000000000E+03  0.50000000000E+03  0.00000000000E+00 0.  1.
         11   -1    0    0    0    0 -0.00000000000E+00 -0.00000000000E+00 -0.50000000000E+03  0.50000000000E+03  0.00000000000E+00 0. -1.
        -11    1    1    2    0    0 -0.41087885016E+01 -0.29529056806E+01  0.22502863780E+03  0.22508551625E+03  0.00000000000E+00 0.  1.
         11    1    1    2    0    0 -0.39582661660E+01 -0.83674956136E+01 -0.49965341648E+03  0.49973915141E+03  0.00000000000E+00 0. -1.
        -15    1    1    2    0    0  0.73348970207E+01  0.84062373157E+01  0.25445788600E+03  0.25470853738E+03  0.17770000000E+01 0.  1.
         15    1    1    2    0    0  0.73215764694E+00  0.29141639784E+01  0.20166892685E+02  0.20466794963E+02  0.17770000000E+01 0. -1.
</event>
<event>
 6   1  0.3798113E-04  0.5160779E+03  0.7546771E-02  0.9364536E-01
        -11   -1    0    0    0    0  0.00000000000E+00  0.00000000000E+00  0.50000000000E+03  0.50000000000E+03  0.00000000000E+00 0. -1.
         11   -1    0    0    0    0 -0.00000000000E+00 -0.00000000000E+00 -0.50000000000E+03  0.50000000000E+03  0.00000000000E+00 0.  1.
        -11    1    1    2    0    0 -0.19601809449E+02  0.14431554112E+02  0.48330955520E+03  0.48392212890E+03  0.00000000000E+00 0. -1.
         11    1    1    2    0    0 -0.18724707742E+01  0.11683676538E+02 -0.46270794406E+03  0.46285921827E+03  0.00000000000E+00 0.  1.
        -15    1    1    2    0    0  0.12317855320E+02 -0.32383199668E+02 -0.66837331195E+01  0.35330315564E+02  0.17770000000E+01 0. -1.
         15    1    1    2    0    0  0.91564249033E+01  0.62679690176E+01 -0.13917878024E+02  0.17888337271E+02  0.17770000000E+01 0. -1.
</event>
<event>
 6   1  0.3798113E-04  0.5012422E+03  0.7546771E-02  0.9397034E-01
        -11   -1    0    0    0    0  0.00000000000E+00  0.00000000000E+00  0.50000000000E+03  0.50000000000E+03  0.00000000000E+00 0.  1.
         11   -1    0    0    0    0 -0.00000000000E+00 -0.00000000000E+00 -0.50000000000E+03  0.50000000000E+03  0.00000000000E+00 0.  1.
        -11    1    1    2    0    0  0.14125675367E+02  0.21891732019E+01  0.45525359177E+03  0.45547794678E+03  0.00000000000E+00 0.  1.
         11    1    1    2    0    0 -0.34522715380E+01 -0.78853836040E+01 -0.49868350684E+03  0.49875779437E+03  0.00000000000E+00 0.  1.
        -15    1    1    2    0    0 -0.80110233303E+01  0.70492221461E+00  0.29423597816E+02  0.30554529084E+02  0.17770000000E+01 0.  1.
         15    1    1    2    0    0 -0.26623804984E+01  0.49912881875E+01  0.14006317252E+02  0.15209729769E+02  0.17770000000E+01 0. -1.
</event>
<event>
 6   1  0.3798113E-04  0.5002389E+03  0.7546771E-02  0.9399275E-01
        -11   -1    0    0    0    0  0.00000000000E+00  0.00000000000E+00  0.50000000000E+03  0.50000000000E+03  0.00000000000E+00 0. -1.
         11   -1    0    0    0    0 -0.00000000000E+00 -0.00000000000E+00 -0.50000000000E+03  0.50000000000E+03  0.00000000000E+00 0.  1.
        -11    1    1    2    0    0 -0.39870091189E+01 -0.80895756473E+01  0.43886348482E+03  0.43895614335E+03  0.00000000000E+00 0. -1.
         11    1    1    2    0    0 -0.91722720588E+00  0.93369671674E+01 -0.49967306028E+03  0.49976113037E+03  0.00000000000E+00 0.  1.
        -15    1    1    2    0    0  0.16109668994E+01 -0.21032127292E+01  0.39622086291E+02  0.39750297725E+02  0.17770000000E+01 0. -1.
         15    1    1    2    0    0  0.32932694254E+01  0.85582120914E+00  0.21187489167E+02  0.21532428559E+02  0.17770000000E+01 0.  1.
</event>
<event>
 6   1  0.3798113E-04  0.5001371E+03  0.7546771E-02  0.9399503E-01
        -11   -1    0    0    0    0  0.00000000000E+00  0.00000000000E+00  0.50000000000E+03  0.50000000000E+03  0.00000000000E+00 0. -1.
         11   -1    0    0    0    0 -0.00000000000E+00 -0.00000000000E+00 -0.50000000000E+03  0.50000000000E+03  0.00000000000E+00 0. -1.
        -11    1    1    2    0    0  0.80677550354E+01 -0.12000226083E+02  0.49965366532E+03  0.49986286055E+03  0.00000000000E+00 0. -1.
         11    1    1    2    0    0  0.70126966016E+00  0.11419539125E+01 -0.66272682329E+02  0.66286229799E+02  0.00000000000E+00 0. -1.
        -15    1    1    2    0    0 -0.31888894012E+01  0.34706044336E+00 -0.22747911250E+02  0.23041585488E+02  0.17770000000E+01 0.  1.
         15    1    1    2    0    0 -0.55801352944E+01  0.10511211727E+02 -0.41063307174E+03  0.41080932416E+03  0.17770000000E+01 0. -1.
</event>
<event>
 6   1  0.3798113E-04  0.5011765E+03  0.7546771E-02  0.9397181E-01
        -11   -1    0    0    0    0  0.00000000000E+00  0.00000000000E+00  0.50000000000E+03  0.50000000000E+03  0.00000000000E+00 0.  1.
         11   -1    0    0    0    0 -0.00000000000E+00 -0.00000000000E+00 -0.50000000000E+03  0.50000000000E+03  0.00000000000E+00 0.  1.
        -11    1    1    2    0    0  0.64341369131E+00 -0.16124792344E+02  0.27455078924E+03  0.27502465123E+03  0.00000000000E+00 0.  1.
         11    1    1    2    0    0  0.69215919064E+01 -0.61476667209E+01 -0.49873759708E+03  0.49882350885E+03  0.00000000000E+00 0.  1.
        -15    1    1    2    0    0 -0.10992961872E+02  0.17997716051E+02  0.20576127048E+03  0.20684685434E+03  0.17770000000E+01 0. -1.
         15    1    1    2    0    0  0.34279562741E+01  0.42747430140E+01  0.18425537360E+02  0.19304985576E+02  0.17770000000E+01 0. -1.
</event>
<event>
 6   1  0.3798113E-04  0.5004145E+03  0.7546771E-02  0.9398883E-01
        -11   -1    0    0    0    0  0.00000000000E+00  0.00000000000E+00  0.50000000000E+03  0.50000000000E+03  0.00000000000E+00 0.  1.
         11   -1    0    0    0    0 -0.00000000000E+00 -0.00000000000E+00 -0.50000000000E+03  0.50000000000E+03  0.00000000000E+00 0.  1.
        -11    1    1    2    0    0  0.96774824006E+01 -0.69418441142E+00  0.28334036448E+03  0.28350643327E+03  0.00000000000E+00 0.  1.
         11    1    1    2    0    0  0.17669198394E+01  0.10670767012E+02 -0.49946839195E+03  0.49958549001E+03  0.00000000000E+00 0.  1.
        -15    1    1    2    0    0 -0.73874192413E+01 -0.77050857649E+01  0.19013810435E+03  0.19044578957E+03  0.17770000000E+01 0.  1.
         15    1    1    2    0    0 -0.40569829987E+01 -0.22714968352E+01  0.25989923110E+02  0.26462287150E+02  0.17770000000E+01 0. -1.
</event>
<event>
 6   1  0.3798113E-04  0.5002176E+03  0.7546771E-02  0.9399323E-01
        -11   -1    0    0    0    0  0.00000000000E+00  0.00000000000E+00  0.50000000000E+03  0.50000000000E+03  0.00000000000E+00 0. -1.
         11   -1    0    0    0    0 -0.00000000000E+00 -0.00000000000E+00 -0.50000000000E+03  0.50000000000E+03  0.00000000000E+00 0.  1.
        -11    1    1    2    0    0 -0.29510970588E+01  0.66424230026E+01  0.49972957331E+03  0.49978242986E+03  0.00000000000E+00 0. -1.
         11    1    1    2    0    0  0.67337529397E+01 -0.89170558954E+01 -0.34023118965E+03  0.34041462913E+03  0.00000000000E+00 0.  1.
        -15    1    1    2    0    0 -0.51390539415E+01 -0.41511744779E+00 -0.61241089654E+02  0.61483420439E+02  0.17770000000E+01 0. -1.
         15    1    1    2    0    0  0.13563980605E+01  0.26897503405E+01 -0.98257293998E+02  0.98319520572E+02  0.17770000000E+01 0.  1.
</event>
<event>
 6   1  0.3798113E-04  0.5003984E+03  0.7546771E-02  0.9398919E-01
        -11   -1    0    0    0    0  0.00000000000E+00  0.00000000000E+00  0.50000000000E+03  0.50000000000E+03  0.00000000000E+00 0. -1.
         11   -1    0    0    0    0 -0.00000000000E+00 -0.00000000000E+00 -0.50000000000E+03  0.50000000000E+03  0.00000000000E+00 0. -1.
        -11    1    1    2    0    0 -0.25049290848E+01  0.56784571539E+01  0.29104616976E+03  0.29111233652E+03  0.00000000000E+00 0. -1.
         11    1    1    2    0    0 -0.89712641636E+01 -0.57233110330E+00 -0.49952071205E+03  0.49960159418E+03  0.00000000000E+00 0. -1.
        -15    1    1    2    0    0  0.32864305788E+01 -0.57852432297E+00  0.12015264368E+02  0.12596016163E+02  0.17770000000E+01 0. -1.
         15    1    1    2    0    0  0.81897626696E+01 -0.45276017276E+01  0.19645927792E+03  0.19669005313E+03  0.17770000000E+01 0.  1.
</event>
<event>
 6   1  0.3798113E-04  0.5014657E+03  0.7546771E-02  0.9396536E-01
        -11   -1    0    0    0    0  0.00000000000E+00  0.00000000000E+00  0.50000000000E+03  0.50000000000E+03  0.00000000000E+00 0.  1.
         11   -1    0    0    0    0 -0.00000000000E+00 -0.00000000000E+00 -0.50000000000E+03  0.50000000000E+03  0.00000000000E+00 0.  1.
        -11    1    1    2    0    0  0.33621156614E+01 -0.36176743073E+02  0.14854940876E+03  0.15292804649E+03  0.00000000000E+00 0.  1.
         11    1    1    2    0    0 -0.67882047105E+01  0.40370164162E+02 -0.49685065186E+03  0.49853425171E+03  0.00000000000E+00 0.  1.
        -15    1    1    2    0    0 -0.32223527936E+01  0.14165114623E+01  0.99575961858E+02  0.99654001280E+02  0.17770000000E+01 0. -1.
         15    1    1    2    0    0  0.66484418426E+01 -0.56099325512E+01  0.24872528125E+03  0.24888370052E+03  0.17770000000E+01 0.  1.
</event>
<event>
 6   1  0.3798113E-04  0.5001891E+03  0.7546771E-02  0.9399387E-01
        -11   -1    0    0    0    0  0.00000000000E+00  0.00000000000E+00  0.50000000000E+03  0.50000000000E+03  0.00000000000E+00 0. -1.
         11   -1    0    0    0    0 -0.00000000000E+00 -0.00000000000E+00 -0.50000000000E+03  0.50000000000E+03  0.00000000000E+00 0.  1.
        -11    1    1    2    0    0 -0.13839451586E+02 -0.59321609529E+01  0.35401782866E+03  0.35433789518E+03  0.00000000000E+00 0. -1.
         11    1    1    2    0    0  0.10313865948E+02  0.24341071209E+01 -0.49969857652E+03  0.49981093234E+03  0.00000000000E+00 0.  1.
        -15    1    1    2    0    0  0.91041506212E-01  0.62811758958E+00  0.64592618395E+02  0.64620174097E+02  0.17770000000E+01 0. -1.
         15    1    1    2    0    0  0.34345441319E+01  0.28699362424E+01  0.81088129470E+02  0.81230998378E+02  0.17770000000E+01 0.  1.
</event>
<event>
 6   1  0.3798113E-04  0.5044522E+03  0.7546771E-02  0.9389902E-01
        -11   -1    0    0    0    0  0.00000000000E+00  0.00000000000E+00  0.50000000000E+03  0.50000000000E+03  0.00000000000E+00 0. -1.
         11   -1    0    0    0    0 -0.00000000000E+00 -0.00000000000E+00 -0.50000000000E+03  0.50000000000E+03  0.00000000000E+00 0. -1.
        -11    1    1    2    0    0  0.93297225202E+01  0.28717237684E+01  0.49545166928E+03  0.49554782525E+03  0.00000000000E+00 0. -1.
         11    1    1    2    0    0  0.19149419038E+01 -0.10803590505E+02 -0.48659201379E+03  0.48671569983E+03  0.00000000000E+00 0. -1.
        -15    1    1    2    0    0 -0.43251063719E+01  0.63404626075E+00 -0.48450022000E+01  0.67631601421E+01  0.17770000000E+01 0. -1.
         15    1    1    2    0    0 -0.69195580520E+01  0.72978204763E+01 -0.40146532829E+01  0.10973314783E+02  0.17770000000E+01 0.  1.
</event>
<event>
 6   1  0.3798113E-04  0.5024659E+03  0.7546771E-02  0.9394309E-01
        -11   -1    0    0    0    0  0.00000000000E+00  0.00000000000E+00  0.50000000000E+03  0.50000000000E+03  0.00000000000E+00 0. -1.
         11   -1    0    0    0    0 -0.00000000000E+00 -0.00000000000E+00 -0.50000000000E+03  0.50000000000E+03  0.00000000000E+00 0. -1.
        -11    1    1    2    0    0  0.11601178029E+02 -0.69007243228E+02  0.37736781024E+03  0.38380079618E+03  0.00000000000E+00 0. -1.
         11    1    1    2    0    0  0.26672542341E+01  0.58259553558E+02 -0.49410412675E+03  0.49753409722E+03  0.00000000000E+00 0. -1.
        -15    1    1    2    0    0 -0.85554777102E+01  0.12197157401E+02  0.76085348366E+02  0.77550659652E+02  0.17770000000E+01 0.  1.
         15    1    1    2    0    0 -0.57129545530E+01 -0.14494677316E+01  0.40650968152E+02  0.41114446939E+02  0.17770000000E+01 0. -1.
</event>
<event>
 6   1  0.3798113E-04  0.5271208E+03  0.7546771E-02  0.9341089E-01
        -11   -1    0    0    0    0  0.00000000000E+00  0.00000000000E+00  0.50000000000E+03  0.50000000000E+03  0.00000000000E+00 0.  1.
         11   -1    0    0    0    0 -0.00000000000E+00 -0.00000000000E+00 -0.50000000000E+03  0.50000000000E+03  0.00000000000E+00 0.  1.
        -11    1    1    2    0    0 -0.39380071409E+02  0.29863355400E+02  0.47028937415E+03  0.47287916581E+03  0.00000000000E+00 0.  1.
         11    1    1    2    0    0  0.42401930409E+00 -0.60409225834E+01 -0.43299294560E+03  0.43303529126E+03  0.00000000000E+00 0.  1.
        -15    1    1    2    0    0  0.22382845705E+02  0.24878959748E+02 -0.66116486241E+01  0.34158835556E+02  0.17770000000E+01 0. -1.
         15    1    1    2    0    0  0.16573206400E+02 -0.48701392565E+02 -0.30684779922E+02  0.59926707368E+02  0.17770000000E+01 0.  1.
</event>
<event>
 6   1  0.3798113E-04  0.5052134E+03  0.7546771E-02  0.9388219E-01
        -11   -1    0    0    0    0  0.00000000000E+00  0.00000000000E+00  0.50000000000E+03  0.50000000000E+03  0.00000000000E+00 0. -1.
         11   -1    0    0    0    0 -0.00000000000E+00 -0.00000000000E+00 -0.50000000000E+03  0.50000000000E+03  0.00000000000E+00 0.  1.
        -11    1    1    2    0    0  0.31732339617E+02 -0.22352106530E+02  0.45329426811E+03  0.45495302125E+03  0.00000000000E+00 0. -1.
         11    1    1    2    0    0 -0.15289396268E+02  0.40393963772E+01 -0.49453382611E+03  0.49478660808E+03  0.00000000000E+00 0.  1.
        -15    1    1    2    0    0 -0.29937590764E+01  0.12896112174E+02  0.13993069485E+02  0.19345180930E+02  0.17770000000E+01 0. -1.
         15    1    1    2    0    0 -0.13449184272E+02  0.54165979794E+01  0.27246488523E+02  0.30915189747E+02  0.17770000000E+01 0.  1.
</event>
<event>
 6   1  0.3798113E-04  0.4881426E+03  0.7546771E-02  0.9426739E-01
        -11   -1    0    0    0    0  0.00000000000E+00  0.00000000000E+00  0.50000000000E+03  0.50000000000E+03  0.00000000000E+00 0. -1.
         11   -1    0    0    0    0 -0.00000000000E+00 -0.00000000000E+00 -0.50000000000E+03  0.50000000000E+03  0.00000000000E+00 0. -1.
        -11    1    1    2    0    0 -0.12605660936E+02 -0.63192530925E+01  0.48300182574E+03  0.48320761513E+03  0.00000000000E+00 0. -1.
         11    1    1    2    0    0 -0.57150278013E+01  0.58965988611E+01 -0.49323487444E+03  0.49330322600E+03  0.00000000000E+00 0. -1.
        -15    1    1    2    0    0  0.98086220874E+01  0.39286946623E+01  0.90766503167E+01  0.14042329542E+02  0.17770000000E+01 0. -1.
         15    1    1    2    0    0  0.85120666499E+01 -0.35060404309E+01  0.11563983827E+01  0.94468293292E+01  0.17770000000E+01 0.  1.
</event>
<event>
 6   1  0.3798113E-04  0.5008087E+03  0.7546771E-02  0.9398002E-01
        -11   -1    0    0    0    0  0.00000000000E+00  0.00000000000E+00  0.50000000000E+03  0.50000000000E+03  0.00000000000E+00 0. -1.
         11   -1    0    0    0    0 -0.00000000000E+00 -0.00000000000E+00 -0.50000000000E+03  0.50000000000E+03  0.00000000000E+00 0. -1.
        -11    1    1    2    0    0 -0.13613004319E+02  0.69178492929E+01  0.74507715715E+02  0.76056362169E+02  0.00000000000E+00 0. -1.
         11    1    1    2    0    0  0.39917653657E+01 -0.76376036553E+01 -0.49911686884E+03  0.49919126188E+03  0.00000000000E+00 0. -1.
        -15    1    1    2    0    0  0.46027349536E+01  0.23189946440E+01  0.22267606587E+03  0.22274279100E+03  0.17770000000E+01 0. -1.
         15    1    1    2    0    0  0.50185039993E+01 -0.15992402816E+01  0.20193308726E+03  0.20200958494E+03  0.17770000000E+01 0. -1.
</event>
<event>
 6   1  0.3798113E-04  0.5124989E+03  0.7546771E-02  0.9372269E-01
        -11   -1    0    0    0    0  0.00000000000E+00  0.00000000000E+00  0.50000000000E+03  0.50000000000E+03  0.00000000000E+00 0.  1.
         11   -1    0    0    0    0 -0.00000000000E+00 -0.00000000000E+00 -0.50000000000E+03  0.50000000000E+03  0.00000000000E+00 0. -1.
        -11    1    1    2    0    0  0.77962938890E+02  0.28838708664E+03  0.29265749483E+03  0.41820299002E+03  0.00000000000E+00 0.  1.
         11    1    1    2    0    0 -0.11505849180E+03 -0.28695621687E+03 -0.37692836737E+03  0.48750109852E+03  0.00000000000E+00 0. -1.
        -15    1    1    2    0    0  0.39340425398E+01  0.65804515932E+01  0.11894518921E+02  0.14262410148E+02  0.17770000000E+01 0. -1.
         15    1    1    2    0    0  0.33161510373E+02 -0.80113213611E+01  0.72376353614E+02  0.80033501308E+02  0.17770000000E+01 0.  1.
</event>
<event>
 6   1  0.3798113E-04  0.5013792E+03  0.7546771E-02  0.9396729E-01
        -11   -1    0    0    0    0  0.00000000000E+00  0.00000000000E+00  0.50000000000E+03  0.50000000000E+03  0.00000000000E+00 0. -1.
         11   -1    0    0    0    0 -0.00000000000E+00 -0.00000000000E+00 -0.50000000000E+03  0.50000000000E+03  0.00000000000E+00 0. -1.
        -11    1    1    2    0    0  0.80623546118E+01  0.12168388566E+02  0.32662870650E+03  0.32695471116E+03  0.00000000000E+00 0. -1.
         11    1    1    2    0    0  0.10922640316E+02  0.20756579638E+01 -0.49849687625E+03  0.49862084599E+03  0.00000000000E+00 0. -1.
        -15    1    1    2    0    0 -0.22391325143E+01 -0.22878424500E+00  0.77234935025E+02  0.77288155457E+02  0.17770000000E+01 0. -1.
         15    1    1    2    0    0 -0.16745862413E+02 -0.14015262285E+02  0.94633234724E+02  0.97136287392E+02  0.17770000000E+01 0.  1.
</event>
<event>
 6   1  0.3798113E-04  0.5000891E+03  0.7546771E-02  0.9399610E-01
        -11   -1    0    0    0    0  0.00000000000E+00  0.00000000000E+00  0.50000000000E+03  0.50000000000E+03  0.00000000000E+00 0. -1.
         11   -1    0    0    0    0 -0.00000000000E+00 -0.00000000000E+00 -0.50000000000E+03  0.50000000000E+03  0.00000000000E+00 0. -1.
        -11    1    1    2    0    0 -0.26444539128E+01  0.47172229218E+01  0.20527499120E+03  0.20534621335E+03  0.00000000000E+00 0. -1.
         11    1    1    2    0    0 -0.65271738880E+01 -0.46093118398E+01 -0.49984703929E+03  0.49991090450E+03  0.00000000000E+00 0. -1.
        -15    1    1    2    0    0  0.39383942392E+01 -0.96464355193E+00  0.12250252157E+03  0.12258249062E+03  0.17770000000E+01 0. -1.
         15    1    1    2    0    0  0.52332335616E+01  0.85673246990E+00  0.17206952652E+03  0.17216039152E+03  0.17770000000E+01 0. -1.
</event>
<event>
 6   1  0.3798113E-04  0.5003958E+03  0.7546771E-02  0.9398925E-01
        -11   -1    0    0    0    0  0.00000000000E+00  0.00000000000E+00  0.50000000000E+03  0.50000000000E+03  0.00000000000E+00 0. -1.
         11   -1    0    0    0    0 -0.00000000000E+00 -0.00000000000E+00 -0.50000000000E+03  0.50000000000E+03  0.00000000000E+00 0. -1.
        -11    1    1    2    0    0  0.24209329324E+01 -0.10232747379E+02  0.39216230886E+03  0.39230325837E+03  0.00000000000E+00 0. -1.
         11    1    1    2    0    0  0.28838675181E+01  0.68536531164E+01 -0.49954886815E+03  0.49960420427E+03  0.00000000000E+00 0. -1.
        -15    1    1    2    0    0 -0.33610770087E+01 -0.33752829522E+01  0.44555785677E+02  0.44844900936E+02  0.17770000000E+01 0. -1.
         15    1    1    2    0    0 -0.19437234417E+01  0.67543772144E+01  0.62830773610E+02  0.63247636429E+02  0.17770000000E+01 0.  1.
</event>
<event>
 6   1  0.3798113E-04  0.5065169E+03  0.7546771E-02  0.9385345E-01
        -11   -1    0    0    0    0  0.00000000000E+00  0.00000000000E+00  0.50000000000E+03  0.50000000000E+03  0.00000000000E+00 0. -1.
         11   -1    0    0    0    0 -0.00000000000E+00 -0.00000000000E+00 -0.50000000000E+03  0.50000000000E+03  0.00000000000E+00 0.  1.
        -11    1    1    2    0    0 -0.12537501598E+02 -0.14170255400E+02  0.49312024370E+03  0.49348308971E+03  0.00000000000E+00 0. -1.
         11    1    1    2    0    0  0.47377147671E+01 -0.73465518679E+01 -0.47557381143E+03  0.47565414734E+03  0.00000000000E+00 0.  1.
        -15    1    1    2    0    0 -0.20490933862E+01  0.37810930063E+01 -0.54907219566E+01  0.71973053730E+01  0.17770000000E+01 0.  1.
         15    1    1    2    0    0  0.98488802173E+01  0.17735714261E+02 -0.12055710321E+02  0.23665457575E+02  0.17770000000E+01 0. -1.
</event>
<event>
 6   1  0.3798113E-04  0.4758768E+03  0.7546771E-02  0.9455466E-01
        -11   -1    0    0    0    0  0.00000000000E+00  0.00000000000E+00  0.50000000000E+03  0.50000000000E+03  0.00000000000E+00 0.  1.
         11   -1    0    0    0    0 -0.00000000000E+00 -0.00000000000E+00 -0.50000000000E+03  0.50000000000E+03  0.00000000000E+00 0.  1.
        -11    1    1    2    0    0 -0.38894840438E+02  0.14351758957E+02  0.24129610925E+02  0.47968945384E+02  0.00000000000E+00 0.  1.
         11    1    1    2    0    0  0.23309391825E+02  0.13856581905E+01 -0.48705844479E+03  0.48761785902E+03  0.00000000000E+00 0.  1.
        -15    1    1    2    0    0 -0.10181119952E+00 -0.12720905616E+02  0.70843599347E+02  0.71998646533E+02  0.17770000000E+01 0.  1.
         15    1    1    2    0    0  0.15687259812E+02 -0.30165115319E+01  0.39208523452E+03  0.39241454906E+03  0.17770000000E+01 0. -1.
</event>
<event>
 6   1  0.3798113E-04  0.4681268E+03  0.7546771E-02  0.9474096E-01
        -11   -1    0    0    0    0  0.00000000000E+00  0.00000000000E+00  0.50000000000E+03  0.50000000000E+03  0.00000000000E+00 0.  1.
         11   -1    0    0    0    0 -0.00000000000E+00 -0.00000000000E+00 -0.50000000000E+03  0.50000000000E+03  0.00000000000E+00 0. -1.
        -11    1    1    2    0    0  0.25539975602E+02 -0.29611022000E+02  0.46870988291E+03  0.47033823714E+03  0.00000000000E+00 0.  1.
         11    1    1    2    0    0 -0.11839132880E+02 -0.29737341933E+02 -0.46680041692E+03  0.46789646698E+03  0.00000000000E+00 0. -1.
        -15    1    1    2    0    0 -0.11975708790E+02  0.55539477228E+02 -0.17266627470E-01  0.56843725765E+02  0.17770000000E+01 0.  1.
         15    1    1    2    0    0 -0.17251339318E+01  0.38088867063E+01 -0.18921993603E+01  0.49215701197E+01  0.17770000000E+01 0. -1.
</event>
<event>
 6   1  0.3798113E-04  0.5002258E+03  0.7546771E-02  0.9399305E-01
        -11   -1    0    0    0    0  0.00000000000E+00  0.00000000000E+00  0.50000000000E+03  0.50000000000E+03  0.00000000000E+00 0.  1.
         11   -1    0    0    0    0 -0.00000000000E+00 -0.00000000000E+00 -0.50000000000E+03  0.50000000000E+03  0.00000000000E+00 0. -1.
        -11    1    1    2    0    0 -0.62964857701E+01  0.22433836501E+02  0.49923074551E+03  0.49977420904E+03  0.00000000000E+00 0.  1.
         11    1    1    2    0    0 -0.22313835066E+01  0.16950105644E+01 -0.63369892973E+02  0.63431817478E+02  0.00000000000E+00 0. -1.
        -15    1    1    2    0    0  0.83386018592E+00 -0.12811975156E+02 -0.13614118531E+03  0.13675679909E+03  0.17770000000E+01 0. -1.
         15    1    1    2    0    0  0.76940090908E+01 -0.11316871909E+02 -0.29971966723E+03  0.30003717439E+03  0.17770000000E+01 0.  1.
</event>
<event>
 6   1  0.3798113E-04  0.4897002E+03  0.7546771E-02  0.9423156E-01
        -11   -1    0    0    0    0  0.00000000000E+00  0.00000000000E+00  0.50000000000E+03  0.50000000000E+03  0.00000000000E+00 0. -1.
         11   -1    0    0    0    0 -0.00000000000E+00 -0.00000000000E+00 -0.50000000000E+03  0.50000000000E+03  0.00000000000E+00 0. -1.
        -11    1    1    2    0    0 -0.18241578168E+02  0.83020678987E+01 -0.60102555329E+01  0.20923734778E+02  0.00000000000E+00 0. -1.
         11    1    1    2    0    0  0.73144020970E+01  0.15466142503E+01 -0.48612225180E+03  0.48617973650E+03  0.00000000000E+00 0. -1.
        -15    1    1    2    0    0 -0.56407125273E+01  0.27483805682E+01  0.12592057644E+03  0.12608933553E+03  0.17770000000E+01 0.  1.
         15    1    1    2    0    0  0.16567888599E+02 -0.12597062717E+02  0.36621193089E+03  0.36680719319E+03  0.17770000000E+01 0. -1.
</event>
<event>
 6   1  0.3798113E-04  0.5002250E+03  0.7546771E-02  0.9399306E-01
        -11   -1    0    0    0    0  0.00000000000E+00  0.00000000000E+00  0.50000000000E+03  0.50000000000E+03  0.00000000000E+00 0. -1.
         11   -1    0    0    0    0 -0.00000000000E+00 -0.00000000000E+00 -0.50000000000E+03  0.50000000000E+03  0.00000000000E+00 0. -1.
        -11    1    1    2    0    0 -0.14680993131E+02 -0.85841322049E+01  0.22353824787E+03  0.22418422591E+03  0.00000000000E+00 0. -1.
         11    1    1    2    0    0  0.13198178644E+02  0.12715914105E+02 -0.49943884544E+03  0.49977499610E+03  0.00000000000E+00 0. -1.
        -15    1    1    2    0    0 -0.11026267119E+01 -0.25184915188E+01  0.22235570003E+03  0.22237979596E+03  0.17770000000E+01 0. -1.
         15    1    1    2    0    0  0.25854411983E+01 -0.16132903813E+01  0.53544897539E+02  0.53660982040E+02  0.17770000000E+01 0.  1.
</event>
<event>
 6   1  0.3798113E-04  0.5003272E+03  0.7546771E-02  0.9399078E-01
        -11   -1    0    0    0    0  0.00000000000E+00  0.00000000000E+00  0.50000000000E+03  0.50000000000E+03  0.00000000000E+00 0.  1.
         11   -1    0    0    0    0 -0.00000000000E+00 -0.00000000000E+00 -0.50000000000E+03  0.50000000000E+03  0.00000000000E+00 0. -1.
        -11    1    1    2    0    0  0.79590787695E+01  0.12876525693E+02  0.49944345657E+03  0.49967281110E+03  0.00000000000E+00 0.  1.
         11    1    1    2    0    0  0.50297416304E+01 -0.41880158633E+01 -0.27802195967E+03  0.27809898927E+03  0.00000000000E+00 0. -1.
        -15    1    1    2    0    0 -0.13311352919E+02 -0.43093500630E+01 -0.15659122078E+03  0.15722509586E+03  0.17770000000E+01 0. -1.
         15    1    1    2    0    0  0.32253251890E+00 -0.43791597665E+01 -0.64830276120E+02  0.65003103759E+02  0.17770000000E+01 0.  1.
</event>
<event>
 6   1  0.3798113E-04  0.4938216E+03  0.7546771E-02  0.9413742E-01
        -11   -1    0    0    0    0  0.00000000000E+00  0.00000000000E+00  0.50000000000E+03  0.50000000000E+03  0.00000000000E+00 0.  1.
         11   -1    0    0    0    0 -0.00000000000E+00 -0.00000000000E+00 -0.50000000000E+03  0.50000000000E+03  0.00000000000E+00 0. -1.
        -11    1    1    2    0    0 -0.85724993322E+01  0.10369372935E+02 -0.37548371478E+01  0.13968193937E+02  0.00000000000E+00 0.  1.
         11    1    1    2    0    0  0.12533913627E+02 -0.14693322616E+02 -0.49007879138E+03  0.49045918737E+03  0.00000000000E+00 0. -1.
        -15    1    1    2    0    0  0.92085104165E+01 -0.10382092101E+02  0.76518204703E+02  0.77786746174E+02  0.17770000000E+01 0. -1.
         15    1    1    2    0    0 -0.13169924712E+02  0.14706041782E+02  0.41731542382E+03  0.41778587251E+03  0.17770000000E+01 0.  1.
</event>
<event>
 6   1  0.3798113E-04  0.5010641E+03  0.7546771E-02  0.9397432E-01
        -11   -1    0    0    0    0  0.00000000000E+00  0.00000000000E+00  0.50000000000E+03  0.50000000000E+03  0.00000000000E+00 0. -1.
         11   -1    0    0    0    0 -0.00000000000E+00 -0.00000000000E+00 -0.50000000000E+03  0.50000000000E+03  0.00000000000E+00 0. -1.
        -11    1    1    2    0    0 -0.38394597656E+01  0.18899164843E+02  0.23486386103E+03  0.23565430847E+03  0.00000000000E+00 0. -1.
         11    1    1    2    0    0  0.12339616445E+02 -0.69031403178E+01 -0.49873550890E+03  0.49893589500E+03  0.00000000000E+00 0. -1.
        -15    1    1    2    0    0 -0.39282858625E+01 -0.17651524448E+02  0.23019773365E+03  0.23091375457E+03  0.17770000000E+01 0. -1.
         15    1    1    2    0    0 -0.45718708168E+01  0.56554999222E+01  0.33673914228E+02  0.34496041955E+02  0.17770000000E+01 0.  1.
</event>
<event>
 6   1  0.3798113E-04  0.4884945E+03  0.7546771E-02  0.9425929E-01
        -11   -1    0    0    0    0  0.00000000000E+00  0.00000000000E+00  0.50000000000E+03  0.50000000000E+03  0.00000000000E+00 0. -1.
         11   -1    0    0    0    0 -0.00000000000E+00 -0.00000000000E+00 -0.50000000000E+03  0.50000000000E+03  0.00000000000E+00 0.  1.
        -11    1    1    2    0    0 -0.11604190353E+02 -0.40956443639E+01  0.49043775239E+03  0.49059211215E+03  0.00000000000E+00 0. -1.
         11    1    1    2    0    0  0.20893697941E+01  0.13094334275E+02 -0.48631263547E+03  0.48649337762E+03  0.00000000000E+00 0.  1.
        -15    1    1    2    0    0  0.10712618604E+01 -0.70098646915E+01  0.60044839272E+01  0.94603044982E+01  0.17770000000E+01 0.  1.
         15    1    1    2    0    0  0.84435586982E+01 -0.19888252192E+01 -0.10129600852E+02  0.13454205724E+02  0.17770000000E+01 0. -1.
</event>
<event>
 6   1  0.3798113E-04  0.5001312E+03  0.7546771E-02  0.9399516E-01
        -11   -1    0    0    0    0  0.00000000000E+00  0.00000000000E+00  0.50000000000E+03  0.50000000000E+03  0.00000000000E+00 0.  1.
         11   -1    0    0    0    0 -0.00000000000E+00 -0.00000000000E+00 -0.50000000000E+03  0.50000000000E+03  0.00000000000E+00 0. -1.
        -11    1    1    2    0    0 -0.71906793367E+01  0.32215287613E+01  0.49980669614E+03  0.49986880041E+03  0.00000000000E+00 0.  1.
         11    1    1    2    0    0  0.22734754347E+01  0.46604969592E+01 -0.22529654771E+03  0.22535621432E+03  0.00000000000E+00 0. -1.
        -15    1    1    2    0    0  0.34602485792E+01 -0.36040403105E+01 -0.67532192013E+02  0.67740070224E+02  0.17770000000E+01 0. -1.
         15    1    1    2    0    0  0.14569553229E+01 -0.42779854100E+01 -0.20697795642E+03  0.20703491505E+03  0.17770000000E+01 0.  1.
</event>
<event>
 6   1  0.3798113E-04  0.5013361E+03  0.7546771E-02  0.9396825E-01
        -11   -1    0    0    0    0  0.00000000000E+00  0.00000000000E+00  0.50000000000E+03  0.50000000000E+03  0.00000000000E+00 0. -1.
         11   -1    0    0    0    0 -0.00000000000E+00 -0.00000000000E+00 -0.50000000000E+03  0.50000000000E+03  0.00000000000E+00 0.  1.
        -11    1    1    2    0    0  0.10533813092E+02 -0.17253054970E+02  0.49825404930E+03  0.49866394172E+03  0.00000000000E+00 0. -1.
         11    1    1    2    0    0 -0.50642566998E+01  0.46861961450E+01 -0.46156396981E+03  0.46161553847E+03  0.00000000000E+00 0.  1.
        -15    1    1    2    0    0 -0.16638899610E+00  0.71596611553E+01 -0.19608361318E+02  0.20950751674E+02  0.17770000000E+01 0. -1.
         15    1    1    2    0    0 -0.53031673957E+01  0.54071976696E+01 -0.17081718179E+02  0.18769768140E+02  0.17770000000E+01 0.  1.
</event>
<event>
 6   1  0.3798113E-04  0.4746260E+03  0.7546771E-02  0.9458447E-01
        -11   -1    0    0    0    0  0.00000000000E+00  0.00000000000E+00  0.50000000000E+03  0.50000000000E+03  0.00000000000E+00 0. -1.
         11   -1    0    0    0    0 -0.00000000000E+00 -0.00000000000E+00 -0.50000000000E+03  0.50000000000E+03  0.00000000000E+00 0.  1.
        -11    1    1    2    0    0  0.42619919388E+02 -0.33159390378E+01  0.47852139095E+03  0.48042707519E+03  0.00000000000E+00 0. -1.
         11    1    1    2    0    0 -0.45608230732E+01 -0.12443871432E+02 -0.46957352504E+03  0.46976052033E+03  0.00000000000E+00 0.  1.
        -15    1    1    2    0    0 -0.31398767808E+02  0.36757892148E+01 -0.14510413437E+02  0.34829640729E+02  0.17770000000E+01 0.  1.
         15    1    1    2    0    0 -0.66603285068E+01  0.12084021255E+02  0.55625475340E+01  0.14982763749E+02  0.17770000000E+01 0. -1.
</event>
<event>
 6   1  0.3798113E-04  0.5006109E+03  0.7546771E-02  0.9398444E-01
        -11   -1    0    0    0    0  0.00000000000E+00  0.00000000000E+00  0.50000000000E+03  0.50000000000E+03  0.00000000000E+00 0. -1.
         11   -1    0    0    0    0 -0.00000000000E+00 -0.00000000000E+00 -0.50000000000E+03  0.50000000000E+03  0.00000000000E+00 0.  1.
        -11    1    1    2    0    0  0.13015364512E+02 -0.84446021831E+01  0.44603396044E+03  0.44630371372E+03  0.00000000000E+00 0. -1.
         11    1    1    2    0    0 -0.48796751085E+01  0.46867703662E+01 -0.49934326068E+03  0.49938909583E+03  0.00000000000E+00 0.  1.
        -15    1    1    2    0    0 -0.59289098821E+01  0.11027096222E+01  0.37796667051E+02  0.38315971997E+02  0.17770000000E+01 0.  1.
         15    1    1    2    0    0 -0.22067795219E+01  0.26551221947E+01  0.15512633197E+02  0.15991218448E+02  0.17770000000E+01 0. -1.
</event>
<event>
 6   1  0.3798113E-04  0.5025356E+03  0.7546771E-02  0.9394154E-01
        -11   -1    0    0    0    0  0.00000000000E+00  0.00000000000E+00  0.50000000000E+03  0.50000000000E+03  0.00000000000E+00 0. -1.
         11   -1    0    0    0    0 -0.00000000000E+00 -0.00000000000E+00 -0.50000000000E+03  0.50000000000E+03  0.00000000000E+00 0. -1.
        -11    1    1    2    0    0  0.22049534169E+02 -0.11585845008E+02  0.35356295423E+03  0.35443924214E+03  0.00000000000E+00 0. -1.
         11    1    1    2    0    0  0.68477613015E+01  0.16157345953E+02 -0.49715477024E+03  0.49746438791E+03  0.00000000000E+00 0. -1.
        -15    1    1    2    0    0 -0.20762683971E+02  0.68668382404E+01  0.93935495723E+02  0.96463866804E+02  0.17770000000E+01 0.  1.
         15    1    1    2    0    0 -0.81346114994E+01 -0.11438339185E+02  0.49656320292E+02  0.51632503149E+02  0.17770000000E+01 0. -1.
</event>
<event>
 6   1  0.3798113E-04  0.5015100E+03  0.7546771E-02  0.9396437E-01
        -11   -1    0    0    0    0  0.00000000000E+00  0.00000000000E+00  0.50000000000E+03  0.50000000000E+03  0.00000000000E+00 0. -1.
         11   -1    0    0    0    0 -0.00000000000E+00 -0.00000000000E+00 -0.50000000000E+03  0.50000000000E+03  0.00000000000E+00 0.  1.
        -11    1    1    2    0    0 -0.41017098136E+01  0.89960117277E+01  0.43546742573E+03  0.43557964958E+03  0.00000000000E+00 0. -1.
         11    1    1    2    0    0 -0.81082379289E+01  0.64040111470E+00 -0.49842363640E+03  0.49848999485E+03  0.00000000000E+00 0.  1.
        -15    1    1    2    0    0  0.75094231397E+01 -0.27006441071E+01  0.13852071895E+02  0.16084854344E+02  0.17770000000E+01 0. -1.
         15    1    1    2    0    0  0.47005246028E+01 -0.69357687353E+01  0.49104138774E+02  0.49845501234E+02  0.17770000000E+01 0.  1.
</event>
<event>
 6   1  0.3798113E-04  0.5005128E+03  0.7546771E-02  0.9398663E-01
        -11   -1    0    0    0    0  0.00000000000E+00  0.00000000000E+00  0.50000000000E+03  0.50000000000E+03  0.00000000000E+00 0.  1.
         11   -1    0    0    0    0 -0.00000000000E+00 -0.00000000000E+00 -0.50000000000E+03  0.50000000000E+03  0.00000000000E+00 0. -1.
        -11    1    1    2    0    0  0.75321539791E+01 -0.15827823281E+02  0.49917950589E+03  0.49948716944E+03  0.00000000000E+00 0.  1.
         11    1    1    2    0    0  0.52817102657E+01  0.41932295960E-01 -0.31305171038E+03  0.31309626570E+03  0.00000000000E+00 0. -1.
        -15    1    1    2    0    0 -0.10693967617E+02  0.95693781736E+01 -0.10288871330E+03  0.10389985079E+03  0.17770000000E+01 0.  1.
         15    1    1    2    0    0 -0.21198966280E+01  0.62165128114E+01 -0.83239082213E+02  0.83516714075E+02  0.17770000000E+01 0. -1.
</event>
<event>
 6   1  0.3798113E-04  0.5026683E+03  0.7546771E-02  0.9393859E-01
        -11   -1    0    0    0    0  0.00000000000E+00  0.00000000000E+00  0.50000000000E+03  0.50000000000E+03  0.00000000000E+00 0.  1.
         11   -1    0    0    0    0 -0.00000000000E+00 -0.00000000000E+00 -0.50000000000E+03  0.50000000000E+03  0.00000000000E+00 0. -1.
        -11    1    1    2    0    0  0.13978218886E+02 -0.97910095532E+00  0.49713429046E+03  0.49733173234E+03  0.00000000000E+00 0.  1.
         11    1    1    2    0    0 -0.62593374528E+01 -0.65039152721E+01 -0.47884579230E+03  0.47893086456E+03  0.00000000000E+00 0. -1.
        -15    1    1    2    0    0 -0.86816529280E+01  0.89072878375E+01 -0.16196252412E+02  0.20498468122E+02  0.17770000000E+01 0. -1.
         15    1    1    2    0    0  0.96277149518E+00 -0.14242716101E+01 -0.20922457418E+01  0.32389349816E+01  0.17770000000E+01 0. -1.
</event>
<event>
 6   1  0.3798113E-04  0.5012741E+03  0.7546771E-02  0.9396963E-01
        -11   -1    0    0    0    0  0.00000000000E+00  0.00000000000E+00  0.50000000000E+03  0.50000000000E+03  0.00000000000E+00 0. -1.
         11   -1    0    0    0    0 -0.00000000000E+00 -0.00000000000E+00 -0.50000000000E+03  0.50000000000E+03  0.00000000000E+00 0.  1.
        -11    1    1    2    0    0 -0.47942666615E+01  0.17600938069E+02  0.26177694962E+03  0.26241179350E+03  0.00000000000E+00 0. -1.
         11    1    1    2    0    0 -0.18269914683E+02 -0.29191577328E+01 -0.49838256652E+03  0.49872587047E+03  0.00000000000E+00 0.  1.
        -15    1    1    2    0    0  0.15767660476E+02 -0.36608006552E+01  0.17871706302E+03  0.17945742371E+03  0.17770000000E+01 0.  1.
         15    1    1    2    0    0  0.72965208688E+01 -0.11020979681E+02  0.57888553873E+02  0.59404912326E+02  0.17770000000E+01 0. -1.
</event>
<event>
 6   1  0.3798113E-04  0.5003971E+03  0.7546771E-02  0.9398922E-01
        -11   -1    0    0    0    0  0.00000000000E+00  0.00000000000E+00  0.50000000000E+03  0.50000000000E+03  0.00000000000E+00 0. -1.
         11   -1    0    0    0    0 -0.00000000000E+00 -0.00000000000E+00 -0.50000000000E+03  0.50000000000E+03  0.00000000000E+00 0. -1.
        -11    1    1    2    0    0  0.60837855069E+01 -0.23204116088E+01  0.39095484850E+03  0.39100906680E+03  0.00000000000E+00 0. -1.
         11    1    1    2    0    0 -0.43193748000E+00  0.89526789896E+01 -0.49952244555E+03  0.49960285291E+03  0.00000000000E+00 0. -1.
        -15    1    1    2    0    0 -0.35221752211E+01 -0.35200957426E+00  0.76077517501E+02  0.76180548877E+02  0.17770000000E+01 0.  1.
         15    1    1    2    0    0 -0.21296728058E+01 -0.62802578066E+01  0.32490079551E+02  0.33207531414E+02  0.17770000000E+01 0. -1.
</event>
<event>
 6   1  0.3798113E-04  0.5011050E+03  0.7546771E-02  0.9397340E-01
        -11   -1    0    0    0    0  0.00000000000E+00  0.00000000000E+00  0.50000000000E+03  0.50000000000E+03  0.00000000000E+00 0. -1.
         11   -1    0    0    0    0 -0.00000000000E+00 -0.00000000000E+00 -0.50000000000E+03  0.50000000000E+03  0.00000000000E+00 0.  1.
        -11    1    1    2    0    0 -0.13911114342E+02 -0.21737162630E+01  0.44216850317E+03  0.44239261900E+03  0.00000000000E+00 0. -1.
         11    1    1    2    0    0  0.64882854009E+01 -0.25628401285E+01 -0.49884617462E+03  0.49889495079E+03  0.00000000000E+00 0.  1.
        -15    1    1    2    0    0 -0.31968474730E+01  0.27675734132E+00  0.13771309168E+02  0.14251424967E+02  0.17770000000E+01 0. -1.
         15    1    1    2    0    0  0.10619676414E+02  0.44597990501E+01  0.42906362276E+02  0.44461005246E+02  0.17770000000E+01 0.  1.
</event>
<event>
 6   1  0.3798113E-04  0.4958396E+03  0.7546771E-02  0.9409167E-01
        -11   -1    0    0    0    0  0.00000000000E+00  0.00000000000E+00  0.50000000000E+03  0.50000000000E+03  0.00000000000E+00 0. -1.
         11   -1    0    0    0    0 -0.00000000000E+00 -0.00000000000E+00 -0.50000000000E+03  0.50000000000E+03  0.00000000000E+00 0. -1.
        -11    1    1    2    0    0  0.29173943631E+01  0.81527089382E+01 -0.29494131629E+01  0.91475073602E+01  0.00000000000E+00 0. -1.
         11    1    1    2    0    0 -0.89763874178E+01 -0.78355224144E+01 -0.49342784520E+03  0.49357168615E+03  0.00000000000E+00 0. -1.
        -15    1    1    2    0    0  0.55122424208E+01  0.12549643916E+02  0.36506849277E+03  0.36533004328E+03  0.17770000000E+01 0. -1.
         15    1    1    2    0    0  0.54675063387E+00 -0.12866830440E+02  0.13130876560E+03  0.13195076322E+03  0.17770000000E+01 0.  1.
</event>
<event>
 6   1  0.3798113E-04  0.5004653E+03  0.7546771E-02  0.9398769E-01
        -11   -1    0    0    0    0  0.00000000000E+00  0.00000000000E+00  0.50000000000E+03  0.50000000000E+03  0.00000000000E+00 0.  1.
         11   -1    0    0    0    0 -0.00000000000E+00 -0.00000000000E+00 -0.50000000000E+03  0.50000000000E+03  0.00000000000E+00 0.  1.
        -11    1    1    2    0    0 -0.53229258222E+01 -0.66690105987E+01  0.34497089867E+03  0.34507641208E+03  0.00000000000E+00 0.  1.
         11    1    1    2    0    0  0.19787116130E+01  0.11174625988E+02 -0.49940574136E+03  0.49953466554E+03  0.00000000000E+00 0.  1.
        -15    1    1    2    0    0 -0.44583398363E+01 -0.59937541418E+01  0.10574532219E+03  0.10602373685E+03  0.17770000000E+01 0. -1.
         15    1    1    2    0    0  0.78025540454E+01  0.14881387520E+01  0.48689520507E+02  0.49365185534E+02  0.17770000000E+01 0.  1.
</event>
<event>
 6   1  0.3798113E-04  0.5005189E+03  0.7546771E-02  0.9398649E-01
        -11   -1    0    0    0    0  0.00000000000E+00  0.00000000000E+00  0.50000000000E+03  0.50000000000E+03  0.00000000000E+00 0.  1.
         11   -1    0    0    0    0 -0.00000000000E+00 -0.00000000000E+00 -0.50000000000E+03  0.50000000000E+03  0.00000000000E+00 0.  1.
        -11    1    1    2    0    0  0.13795089692E+02  0.61657042993E+01  0.35106210812E+03  0.35138714286E+03  0.00000000000E+00 0.  1.
         11    1    1    2    0    0 -0.37919952230E+01 -0.76479744242E+01 -0.49940819634E+03  0.49948114810E+03  0.00000000000E+00 0.  1.
        -15    1    1    2    0    0 -0.86495865129E+01  0.56516304577E+01  0.10871709350E+03  0.10922142840E+03  0.17770000000E+01 0.  1.
         15    1    1    2    0    0 -0.13535079562E+01 -0.41693603328E+01  0.39628994716E+02  0.39910280638E+02  0.17770000000E+01 0.  1.
</event>
<event>
 6   1  0.3798113E-04  0.4664835E+03  0.7546771E-02  0.9478096E-01
        -11   -1    0    0    0    0  0.00000000000E+00  0.00000000000E+00  0.50000000000E+03  0.50000000000E+03  0.00000000000E+00 0. -1.
         11   -1    0    0    0    0 -0.00000000000E+00 -0.00000000000E+00 -0.50000000000E+03  0.50000000000E+03  0.00000000000E+00 0. -1.
        -11    1    1    2    0    0 -0.33016560201E+01 -0.69140585530E+02  0.47322955205E+03  0.47826512567E+03  0.00000000000E+00 0. -1.
         11    1    1    2    0    0 -0.17148265544E+01  0.83381532338E+01 -0.45676023485E+03  0.45683955342E+03  0.00000000000E+00 0. -1.
        -15    1    1    2    0    0  0.48329344184E+01  0.13505006614E+02  0.89108965805E+00  0.14480822784E+02  0.17770000000E+01 0. -1.
         15    1    1    2    0    0  0.18354815611E+00  0.47297425682E+02 -0.17360406856E+02  0.50414498126E+02  0.17770000000E+01 0.  1.
</event>
<event>
 6   1  0.3798113E-04  0.4829870E+03  0.7546771E-02  0.9438703E-01
        -11   -1    0    0    0    0  0.00000000000E+00  0.00000000000E+00  0.50000000000E+03  0.50000000000E+03  0.00000000000E+00 0.  1.
         11   -1    0    0    0    0 -0.00000000000E+00 -0.00000000000E+00 -0.50000000000E+03  0.50000000000E+03  0.00000000000E+00 0.  1.
        -11    1    1    2    0    0  0.15212436992E+02  0.98318488632E+01  0.47696234649E+03  0.47730615275E+03  0.00000000000E+00 0.  1.
         11    1    1    2    0    0 -0.81635948390E+01  0.10976139076E+02 -0.48879881591E+03  0.48899018635E+03  0.00000000000E+00 0.  1.
        -15    1    1    2    0    0 -0.88515482808E+01 -0.14042530260E+02  0.17750780958E+02  0.24367817232E+02  0.17770000000E+01 0.  1.
         15    1    1    2    0    0  0.18027061275E+01 -0.67654576801E+01 -0.59143115347E+01  0.93358436647E+01  0.17770000000E+01 0. -1.
</event>
<event>
 6   1  0.3798113E-04  0.5125419E+03  0.7546771E-02  0.9372176E-01
        -11   -1    0    0    0    0  0.00000000000E+00  0.00000000000E+00  0.50000000000E+03  0.50000000000E+03  0.00000000000E+00 0. -1.
         11   -1    0    0    0    0 -0.00000000000E+00 -0.00000000000E+00 -0.50000000000E+03  0.50000000000E+03  0.00000000000E+00 0. -1.
        -11    1    1    2    0    0  0.14984131526E+01  0.54871943603E+02  0.19702709749E+03  0.20453081084E+03  0.00000000000E+00 0. -1.
         11    1    1    2    0    0 -0.14010850976E+02  0.26242729038E+02 -0.48654952867E+03  0.48745813012E+03  0.00000000000E+00 0. -1.
        -15    1    1    2    0    0 -0.11728289825E+02  0.45946444735E+01  0.69178575096E+02  0.70338442699E+02  0.17770000000E+01 0.  1.
         15    1    1    2    0    0  0.24240727648E+02 -0.85709317114E+02  0.22034385608E+03  0.23767261634E+03  0.17770000000E+01 0. -1.
</event>
<event>
 6   1  0.3798113E-04  0.5002087E+03  0.7546771E-02  0.9399343E-01
        -11   -1    0    0    0    0  0.00000000000E+00  0.00000000000E+00  0.50000000000E+03  0.50000000000E+03  0.00000000000E+00 0.  1.
         11   -1    0    0    0    0 -0.00000000000E+00 -0.00000000000E+00 -0.50000000000E+03  0.50000000000E+03  0.00000000000E+00 0.  1.
        -11    1    1    2    0    0 -0.21040596294E+01  0.54463006744E+01  0.35649117724E+03  0.35653898624E+03  0.00000000000E+00 0.  1.
         11    1    1    2    0    0 -0.50293839767E+01 -0.70746474016E+01 -0.49971595091E+03  0.49979133339E+03  0.00000000000E+00 0.  1.
        -15    1    1    2    0    0  0.36154494896E+01  0.44708241408E+01  0.59373448187E+02  0.59677666025E+02  0.17770000000E+01 0. -1.
         15    1    1    2    0    0  0.35179941165E+01 -0.28424774137E+01  0.83851325480E+02  0.83992014348E+02  0.17770000000E+01 0.  1.
</event>
<event>
 6   1  0.3798113E-04  0.5020836E+03  0.7546771E-02  0.9395160E-01
        -11   -1    0    0    0    0  0.00000000000E+00  0.00000000000E+00  0.50000000000E+03  0.50000000000E+03  0.00000000000E+00 0. -1.
         11   -1    0    0    0    0 -0.00000000000E+00 -0.00000000000E+00 -0.50000000000E+03  0.50000000000E+03  0.00000000000E+00 0. -1.
        -11    1    1    2    0    0  0.12347426058E+02  0.99384284190E+00  0.49776227170E+03  0.49791638433E+03  0.00000000000E+00 0. -1.
         11    1    1    2    0    0 -0.41056084793E+01  0.61551864088E+01 -0.46736557927E+03  0.46742414040E+03  0.00000000000E+00 0. -1.
        -15    1    1    2    0    0 -0.87898136979E+01 -0.18215475845E+00 -0.20834492894E+02  0.22683205866E+02  0.17770000000E+01 0. -1.
         15    1    1    2    0    0  0.54799611908E+00 -0.69668744922E+01 -0.95621995331E+01  0.11976269404E+02  0.17770000000E+01 0.  1.
</event>
<event>
 6   1  0.3798113E-04  0.5017035E+03  0.7546771E-02  0.9396006E-01
        -11   -1    0    0    0    0  0.00000000000E+00  0.00000000000E+00  0.50000000000E+03  0.50000000000E+03  0.00000000000E+00 0.  1.
         11   -1    0    0    0    0 -0.00000000000E+00 -0.00000000000E+00 -0.50000000000E+03  0.50000000000E+03  0.00000000000E+00 0.  1.
        -11    1    1    2    0    0  0.49028121108E+01  0.52363600928E+01  0.44439049374E+03  0.44444838615E+03  0.00000000000E+00 0.  1.
         11    1    1    2    0    0  0.82368365497E+01 -0.64046281463E+01 -0.49818726143E+03  0.49829651031E+03  0.00000000000E+00 0.  1.
        -15    1    1    2    0    0 -0.75056794940E+01 -0.63736068889E+01  0.26507181459E+02  0.28332781144E+02  0.17770000000E+01 0. -1.
         15    1    1    2    0    0 -0.56339691664E+01  0.75418749424E+01  0.27289586238E+02  0.28922322387E+02  0.17770000000E+01 0.  1.
</event>
<event>
 6   1  0.3798113E-04  0.5040689E+03  0.7546771E-02  0.9390751E-01
        -11   -1    0    0    0    0  0.00000000000E+00  0.00000000000E+00  0.50000000000E+03  0.50000000000E+03  0.00000000000E+00 0.  1.
         11   -1    0    0    0    0 -0.00000000000E+00 -0.00000000000E+00 -0.50000000000E+03  0.50000000000E+03  0.00000000000E+00 0. -1.
        -11    1    1    2    0    0 -0.14776158401E+02 -0.99448362469E+01  0.26881588297E+02  0.32246773706E+02  0.00000000000E+00 0.  1.
         11    1    1    2    0    0  0.67936179372E+01 -0.39782699601E+01 -0.49586861106E+03  0.49593110339E+03  0.00000000000E+00 0. -1.
        -15    1    1    2    0    0 -0.16308613397E+02 -0.72168971533E+01  0.11755467537E+03  0.11891305188E+03  0.17770000000E+01 0. -1.
         15    1    1    2    0    0  0.24291153861E+02  0.21140003360E+02  0.35143234739E+03  0.35290907103E+03  0.17770000000E+01 0.  1.
</event>
<event>
 6   1  0.3798113E-04  0.5095715E+03  0.7546771E-02  0.9378644E-01
        -11   -1    0    0    0    0  0.00000000000E+00  0.00000000000E+00  0.50000000000E+03  0.50000000000E+03  0.00000000000E+00 0. -1.
         11   -1    0    0    0    0 -0.00000000000E+00 -0.00000000000E+00 -0.50000000000E+03  0.50000000000E+03  0.00000000000E+00 0.  1.
        -11    1    1    2    0    0  0.27583890275E+02  0.47922377228E+00  0.48965192021E+03  0.49042848981E+03  0.00000000000E+00 0. -1.
         11    1    1    2    0    0  0.95466319319E+01 -0.95066994767E+01 -0.45913116658E+03  0.45932879688E+03  0.00000000000E+00 0.  1.
        -15    1    1    2    0    0 -0.32838634007E+02  0.10444033562E+02 -0.23663122659E+02  0.41839632210E+02  0.17770000000E+01 0.  1.
         15    1    1    2    0    0 -0.42918881998E+01 -0.14165578578E+01 -0.68576309641E+01  0.84030810971E+01  0.17770000000E+01 0. -1.
</event>
<event>
 6   1  0.3798113E-04  0.4874578E+03  0.7546771E-02  0.9428319E-01
        -11   -1    0    0    0    0  0.00000000000E+00  0.00000000000E+00  0.50000000000E+03  0.50000000000E+03  0.00000000000E+00 0. -1.
         11   -1    0    0    0    0 -0.00000000000E+00 -0.00000000000E+00 -0.50000000000E+03  0.50000000000E+03  0.00000000000E+00 0. -1.
        -11    1    1    2    0    0 -0.56381276445E+01 -0.20897453364E+02  0.48210392358E+03  0.48258956182E+03  0.00000000000E+00 0. -1.
         11    1    1    2    0    0 -0.84001990896E+01  0.89394790402E+01 -0.49240212204E+03  0.49255489787E+03  0.00000000000E+00 0. -1.
        -15    1    1    2    0    0  0.24257714573E+01 -0.87461834929E+00  0.62533901690E+01  0.69937073162E+01  0.17770000000E+01 0. -1.
         15    1    1    2    0    0  0.11612555277E+02  0.12832592673E+02  0.40448082871E+01  0.17861832993E+02  0.17770000000E+01 0.  1.
</event>
<event>
 6   1  0.3798113E-04  0.5029717E+03  0.7546771E-02  0.9393185E-01
        -11   -1    0    0    0    0  0.00000000000E+00  0.00000000000E+00  0.50000000000E+03  0.50000000000E+03  0.00000000000E+00 0.  1.
         11   -1    0    0    0    0 -0.00000000000E+00 -0.00000000000E+00 -0.50000000000E+03  0.50000000000E+03  0.00000000000E+00 0. -1.
        -11    1    1    2    0    0 -0.62105672525E+01 -0.27160652370E+02  0.33270700613E+03  0.33387156829E+03  0.00000000000E+00 0.  1.
         11    1    1    2    0    0 -0.30335505146E+01 -0.69066799177E+01 -0.49697108262E+03  0.49702833080E+03  0.00000000000E+00 0. -1.
        -15    1    1    2    0    0  0.32113579778E+01  0.67014043960E+01  0.11702193392E+02  0.13975718232E+02  0.17770000000E+01 0. -1.
         15    1    1    2    0    0  0.60327597894E+01  0.27365927892E+02  0.15256188309E+03  0.15512438268E+03  0.17770000000E+01 0.  1.
</event>
<event>
 6   1  0.3798113E-04  0.5019057E+03  0.7546771E-02  0.9395556E-01
        -11   -1    0    0    0    0  0.00000000000E+00  0.00000000000E+00  0.50000000000E+03  0.50000000000E+03  0.00000000000E+00 0. -1.
         11   -1    0    0    0    0 -0.00000000000E+00 -0.00000000000E+00 -0.50000000000E+03  0.50000000000E+03  0.00000000000E+00 0. -1.
        -11    1    1    2    0    0  0.72023959697E+01  0.12746271532E+02  0.49787911266E+03  0.49809432116E+03  0.00000000000E+00 0. -1.
         11    1    1    2    0    0  0.69439122895E+01  0.22820207589E+01 -0.43142508296E+03  0.43148699603E+03  0.00000000000E+00 0. -1.
        -15    1    1    2    0    0 -0.13029676622E+02 -0.15092009199E+02 -0.50428304453E+02  0.54255993526E+02  0.17770000000E+01 0. -1.
         15    1    1    2    0    0 -0.11166316371E+01  0.63716908259E-01 -0.16025725252E+02  0.16162689284E+02  0.17770000000E+01 0.  1.
</event>
<event>
 6   1  0.3798113E-04  0.5026429E+03  0.7546771E-02  0.9393915E-01
        -11   -1    0    0    0    0  0.00000000000E+00  0.00000000000E+00  0.50000000000E+03  0.50000000000E+03  0.00000000000E+00 0. -1.
         11   -1    0    0    0    0 -0.00000000000E+00 -0.00000000000E+00 -0.50000000000E+03  0.50000000000E+03  0.00000000000E+00 0.  1.
        -11    1    1    2    0    0  0.36070572281E+01  0.55069847661E+02  0.49428570837E+03  0.49735707543E+03  0.00000000000E+00 0. -1.
         11    1    1    2    0    0 -0.18895520311E+01 -0.47082360168E+00 -0.14239905682E+03  0.14241237118E+03  0.00000000000E+00 0.  1.
        -15    1    1    2    0    0 -0.99372143887E+01 -0.63187659615E+02 -0.27077965001E+03  0.27823767744E+03  0.17770000000E+01 0.  1.
         15    1    1    2    0    0  0.82197091917E+01  0.85886355559E+01 -0.81107001530E+02  0.81992875947E+02  0.17770000000E+01 0.  1.
</event>
<event>
 6   1  0.3798113E-04  0.4815340E+03  0.7546771E-02  0.9442104E-01
        -11   -1    0    0    0    0  0.00000000000E+00  0.00000000000E+00  0.50000000000E+03  0.50000000000E+03  0.00000000000E+00 0. -1.
         11   -1    0    0    0    0 -0.00000000000E+00 -0.00000000000E+00 -0.50000000000E+03  0.50000000000E+03  0.00000000000E+00 0.  1.
        -11    1    1    2    0    0  0.22155572557E+02 -0.23406706605E+01  0.48312048970E+03  0.48363390669E+03  0.00000000000E+00 0. -1.
         11    1    1    2    0    0  0.95862830359E+01 -0.11076984139E+02 -0.47983246890E+03  0.48005603279E+03  0.00000000000E+00 0.  1.
        -15    1    1    2    0    0 -0.81982118783E+01  0.58638596736E+00 -0.42476361706E+01  0.94209696179E+01  0.17770000000E+01 0.  1.
         15    1    1    2    0    0 -0.23543643714E+02  0.12831268832E+02  0.95961537765E+00  0.26889090908E+02  0.17770000000E+01 0. -1.
</event>
<event>
 6   1  0.3798113E-04  0.5004269E+03  0.7546771E-02  0.9398855E-01
        -11   -1    0    0    0    0  0.00000000000E+00  0.00000000000E+00  0.50000000000E+03  0.50000000000E+03  0.00000000000E+00 0. -1.
         11   -1    0    0    0    0 -0.00000000000E+00 -0.00000000000E+00 -0.50000000000E+03  0.50000000000E+03  0.00000000000E+00 0.  1.
        -11    1    1    2    0    0 -0.97567046436E+01 -0.76877379155E+01  0.49941864535E+03  0.49957309567E+03  0.00000000000E+00 0. -1.
         11    1    1    2    0    0  0.22289791778E+01  0.84832638279E+01 -0.39235226638E+03  0.39245029628E+03  0.00000000000E+00 0.  1.
        -15    1    1    2    0    0  0.19650681427E+01  0.10463705068E+01 -0.52225960902E+01  0.59489177977E+01  0.17770000000E+01 0. -1.
         15    1    1    2    0    0  0.55626573230E+01 -0.18418964192E+01 -0.10184378288E+03  0.10202769025E+03  0.17770000000E+01 0.  1.
</event>
<event>
 6   1  0.3798113E-04  0.4855256E+03  0.7546771E-02  0.9432793E-01
        -11   -1    0    0    0    0  0.00000000000E+00  0.00000000000E+00  0.50000000000E+03  0.50000000000E+03  0.00000000000E+00 0.  1.
         11   -1    0    0    0    0 -0.00000000000E+00 -0.00000000000E+00 -0.50000000000E+03  0.50000000000E+03  0.00000000000E+00 0.  1.
        -11    1    1    2    0    0 -0.16443217898E+02 -0.11070938617E+02  0.48916018852E+03  0.48956167653E+03  0.00000000000E+00 0.  1.
         11    1    1    2    0    0 -0.46309070409E+00 -0.69774689805E+01 -0.48178155826E+03  0.48183230423E+03  0.00000000000E+00 0.  1.
        -15    1    1    2    0    0 -0.41888303126E+00  0.64592439114E+01 -0.20518208574E+01  0.70189025304E+01  0.17770000000E+01 0.  1.
         15    1    1    2    0    0  0.17325191633E+02  0.11589163686E+02 -0.53268094042E+01  0.21587116702E+02  0.17770000000E+01 0. -1.
</event>
<event>
 6   1  0.3798113E-04  0.5011294E+03  0.7546771E-02  0.9397286E-01
        -11   -1    0    0    0    0  0.00000000000E+00  0.00000000000E+00  0.50000000000E+03  0.50000000000E+03  0.00000000000E+00 0. -1.
         11   -1    0    0    0    0 -0.00000000000E+00 -0.00000000000E+00 -0.50000000000E+03  0.50000000000E+03  0.00000000000E+00 0.  1.
        -11    1    1    2    0    0  0.44586633017E+01  0.64834297898E+01  0.43554908037E+03  0.43562015099E+03  0.00000000000E+00 0. -1.
         11    1    1    2    0    0 -0.87344639689E+00  0.82206700364E+01 -0.49880207649E+03  0.49887057824E+03  0.00000000000E+00 0.  1.
        -15    1    1    2    0    0 -0.11648287242E+01 -0.11022392762E+02  0.53445973305E+02  0.54612084374E+02  0.17770000000E+01 0. -1.
         15    1    1    2    0    0 -0.24203881806E+01 -0.36817070646E+01  0.98070228175E+01  0.10897186398E+02  0.17770000000E+01 0.  1.
</event>
<event>
 6   1  0.3798113E-04  0.5053706E+03  0.7546771E-02  0.9387872E-01
        -11   -1    0    0    0    0  0.00000000000E+00  0.00000000000E+00  0.50000000000E+03  0.50000000000E+03  0.00000000000E+00 0. -1.
         11   -1    0    0    0    0 -0.00000000000E+00 -0.00000000000E+00 -0.50000000000E+03  0.50000000000E+03  0.00000000000E+00 0.  1.
        -11    1    1    2    0    0  0.17680579035E+02 -0.43336882795E+01  0.43777788352E+03  0.43815620391E+03  0.00000000000E+00 0. -1.
         11    1    1    2    0    0  0.70953478547E+01  0.73169101841E+01 -0.49452436723E+03  0.49462938744E+03  0.00000000000E+00 0.  1.
        -15    1    1    2    0    0 -0.16256888273E+02 -0.61562095168E+01  0.11244904069E+02  0.20779579602E+02  0.17770000000E+01 0.  1.
         15    1    1    2    0    0 -0.85190386167E+01  0.31729876122E+01  0.45501579644E+02  0.46434829045E+02  0.17770000000E+01 0. -1.
</event>
<event>
 6   1  0.3798113E-04  0.4930123E+03  0.7546771E-02  0.9415582E-01
        -11   -1    0    0    0    0  0.00000000000E+00  0.00000000000E+00  0.50000000000E+03  0.50000000000E+03  0.00000000000E+00 0.  1.
         11   -1    0    0    0    0 -0.00000000000E+00 -0.00000000000E+00 -0.50000000000E+03  0.50000000000E+03  0.00000000000E+00 0.  1.
        -11    1    1    2    0    0  0.66864891522E+01  0.14924245185E+02  0.16491227865E+00  0.16354492581E+02  0.00000000000E+00 0.  1.
         11    1    1    2    0    0  0.10914306451E+02 -0.96304368470E+01 -0.49036755146E+03  0.49058353308E+03  0.00000000000E+00 0.  1.
        -15    1    1    2    0    0 -0.14753256095E+02 -0.24832057036E+02  0.18846730057E+03  0.19067608852E+03  0.17770000000E+01 0. -1.
         15    1    1    2    0    0 -0.28475395086E+01  0.19538248698E+02  0.30173533862E+03  0.30238588582E+03  0.17770000000E+01 0.  1.
</event>
<event>
 6   1  0.3798113E-04  0.5032221E+03  0.7546771E-02  0.9392629E-01
        -11   -1    0    0    0    0  0.00000000000E+00  0.00000000000E+00  0.50000000000E+03  0.50000000000E+03  0.00000000000E+00 0. -1.
         11   -1    0    0    0    0 -0.00000000000E+00 -0.00000000000E+00 -0.50000000000E+03  0.50000000000E+03  0.00000000000E+00 0.  1.
        -11    1    1    2    0    0  0.62720414000E+01  0.17425775597E+02  0.49643260405E+03  0.49677794488E+03  0.00000000000E+00 0. -1.
         11    1    1    2    0    0  0.52158436341E+01  0.84595683041E+01 -0.42772011003E+03  0.42783555467E+03  0.00000000000E+00 0.  1.
        -15    1    1    2    0    0 -0.88104282049E+01 -0.24124565157E+02 -0.49154451419E+02  0.55488161913E+02  0.17770000000E+01 0. -1.
         15    1    1    2    0    0 -0.26774568292E+01 -0.17607787444E+01 -0.19558042602E+02  0.19898338530E+02  0.17770000000E+01 0.  1.
</event>
<event>
 6   1  0.3798113E-04  0.5011741E+03  0.7546771E-02  0.9397186E-01
        -11   -1    0    0    0    0  0.00000000000E+00  0.00000000000E+00  0.50000000000E+03  0.50000000000E+03  0.00000000000E+00 0. -1.
         11   -1    0    0    0    0 -0.00000000000E+00 -0.00000000000E+00 -0.50000000000E+03  0.50000000000E+03  0.00000000000E+00 0. -1.
        -11    1    1    2    0    0  0.62867332660E+01 -0.14888949646E+02  0.29393620741E+03  0.29438019271E+03  0.00000000000E+00 0. -1.
         11    1    1    2    0    0  0.73580847682E+01  0.83180804746E-01 -0.49877164733E+03  0.49882592607E+03  0.00000000000E+00 0. -1.
        -15    1    1    2    0    0  0.91508194876E+00 -0.39707512952E+01  0.39766355493E+02  0.40014060016E+02  0.17770000000E+01 0.  1.
         15    1    1    2    0    0 -0.14559899983E+02  0.18776520137E+02  0.16506908444E+03  0.16677982121E+03  0.17770000000E+01 0. -1.
</event>
<event>
 6   1  0.3798113E-04  0.5005415E+03  0.7546771E-02  0.9398599E-01
        -11   -1    0    0    0    0  0.00000000000E+00  0.00000000000E+00  0.50000000000E+03  0.50000000000E+03  0.00000000000E+00 0.  1.
         11   -1    0    0    0    0 -0.00000000000E+00 -0.00000000000E+00 -0.50000000000E+03  0.50000000000E+03  0.00000000000E+00 0. -1.
        -11    1    1    2    0    0  0.63250358339E+02  0.19221396559E+02  0.49506432496E+03  0.49945846250E+03  0.00000000000E+00 0.  1.
         11    1    1    2    0    0 -0.10589239523E+01 -0.59337917428E+00 -0.61375809862E+02  0.61387811942E+02  0.00000000000E+00 0. -1.
        -15    1    1    2    0    0 -0.41052323022E+01  0.15057492734E+01 -0.81419689982E+02  0.81556384538E+02  0.17770000000E+01 0.  1.
         15    1    1    2    0    0 -0.58086202085E+02 -0.20133766658E+02 -0.35226882511E+03  0.35759734102E+03  0.17770000000E+01 0. -1.
</event>
<event>
 6   1  0.3798113E-04  0.5015478E+03  0.7546771E-02  0.9396353E-01
        -11   -1    0    0    0    0  0.00000000000E+00  0.00000000000E+00  0.50000000000E+03  0.50000000000E+03  0.00000000000E+00 0. -1.
         11   -1    0    0    0    0 -0.00000000000E+00 -0.00000000000E+00 -0.50000000000E+03  0.50000000000E+03  0.00000000000E+00 0. -1.
        -11    1    1    2    0    0  0.35646009768E+02 -0.17125040019E+02  0.49688093648E+03  0.49845217428E+03  0.00000000000E+00 0. -1.
         11    1    1    2    0    0 -0.47960000379E+01 -0.45790897535E+01 -0.31723267057E+03  0.31730196494E+03  0.00000000000E+00 0. -1.
        -15    1    1    2    0    0 -0.15761731508E+02  0.28925698950E+01 -0.56985744292E+02  0.59222731466E+02  0.17770000000E+01 0.  1.
         15    1    1    2    0    0 -0.15088278221E+02  0.18811559877E+02 -0.12266252162E+03  0.12502312932E+03  0.17770000000E+01 0. -1.
</event>
<event>
 6   1  0.3798113E-04  0.5007857E+03  0.7546771E-02  0.9398053E-01
        -11   -1    0    0    0    0  0.00000000000E+00  0.00000000000E+00  0.50000000000E+03  0.50000000000E+03  0.00000000000E+00 0. -1.
         11   -1    0    0    0    0 -0.00000000000E+00 -0.00000000000E+00 -0.50000000000E+03  0.50000000000E+03  0.00000000000E+00 0. -1.
        -11    1    1    2    0    0 -0.96198943866E+01 -0.72702440686E+00  0.49912112004E+03  0.49921434615E+03  0.00000000000E+00 0. -1.
         11    1    1    2    0    0  0.29299616601E+01 -0.82291198180E+01 -0.44592840020E+03  0.44601394731E+03  0.00000000000E+00 0. -1.
        -15    1    1    2    0    0  0.31048903622E+01  0.81996635527E+01 -0.38440723938E+02  0.39467984651E+02  0.17770000000E+01 0.  1.
         15    1    1    2    0    0  0.35850423642E+01  0.75648067219E+00 -0.14751995900E+02  0.15303721894E+02  0.17770000000E+01 0. -1.
</event>
<event>
 6   1  0.3798113E-04  0.4931019E+03  0.7546771E-02  0.9415378E-01
        -11   -1    0    0    0    0  0.00000000000E+00  0.00000000000E+00  0.50000000000E+03  0.50000000000E+03  0.00000000000E+00 0.  1.
         11   -1    0    0    0    0 -0.00000000000E+00 -0.00000000000E+00 -0.50000000000E+03  0.50000000000E+03  0.00000000000E+00 0.  1.
        -11    1    1    2    0    0  0.69302731766E+01 -0.33076575857E+00  0.49051941696E+03  0.49056848300E+03  0.00000000000E+00 0.  1.
         11    1    1    2    0    0  0.21979623830E+01 -0.68178227468E+01 -0.49566513258E+03  0.49571689239E+03  0.00000000000E+00 0.  1.
        -15    1    1    2    0    0 -0.31586693697E+01  0.32308058557E+01  0.39519369450E+01  0.62602582440E+01  0.17770000000E+01 0. -1.
         15    1    1    2    0    0 -0.59695661899E+01  0.39177826497E+01  0.11937786761E+01  0.74543663657E+01  0.17770000000E+01 0.  1.
</event>
<event>
 6   1  0.3798113E-04  0.5071006E+03  0.7546771E-02  0.9384060E-01
        -11   -1    0    0    0    0  0.00000000000E+00  0.00000000000E+00  0.50000000000E+03  0.50000000000E+03  0.00000000000E+00 0.  1.
         11   -1    0    0    0    0 -0.00000000000E+00 -0.00000000000E+00 -0.50000000000E+03  0.50000000000E+03  0.00000000000E+00 0. -1.
        -11    1    1    2    0    0  0.21151710524E+02  0.23497548796E+02  0.30622942488E+02  0.44014705090E+02  0.00000000000E+00 0.  1.
         11    1    1    2    0    0 -0.30955268902E+01 -0.70402916853E+01 -0.49283938930E+03  0.49289939302E+03  0.00000000000E+00 0. -1.
        -15    1    1    2    0    0 -0.13491669842E+02 -0.17979914247E+02  0.40954080771E+03  0.41016110662E+03  0.17770000000E+01 0.  1.
         15    1    1    2    0    0 -0.45645137912E+01  0.15226571364E+01  0.52675639100E+02  0.52924795271E+02  0.17770000000E+01 0. -1.
</event>
<event>
 6   1  0.3798113E-04  0.5012585E+03  0.7546771E-02  0.9396998E-01
        -11   -1    0    0    0    0  0.00000000000E+00  0.00000000000E+00  0.50000000000E+03  0.50000000000E+03  0.00000000000E+00 0.  1.
         11   -1    0    0    0    0 -0.00000000000E+00 -0.00000000000E+00 -0.50000000000E+03  0.50000000000E+03  0.00000000000E+00 0. -1.
        -11    1    1    2    0    0 -0.22110876533E+01  0.69504543547E+01  0.94612800693E+01  0.11946277449E+02  0.00000000000E+00 0.  1.
         11    1    1    2    0    0 -0.42855620977E+01 -0.54701266923E+01 -0.49869311971E+03  0.49874153223E+03  0.00000000000E+00 0. -1.
        -15    1    1    2    0    0  0.61916364822E+00  0.11236001856E+01  0.11346380219E+03  0.11348496807E+03  0.17770000000E+01 0. -1.
         15    1    1    2    0    0  0.58774861028E+01 -0.26039278480E+01  0.37576803745E+03  0.37582722225E+03  0.17770000000E+01 0.  1.
</event>
<event>
 6   1  0.3798113E-04  0.5026299E+03  0.7546771E-02  0.9393944E-01
        -11   -1    0    0    0    0  0.00000000000E+00  0.00000000000E+00  0.50000000000E+03  0.50000000000E+03  0.00000000000E+00 0.  1.
         11   -1    0    0    0    0 -0.00000000000E+00 -0.00000000000E+00 -0.50000000000E+03  0.50000000000E+03  0.00000000000E+00 0. -1.
        -11    1    1    2    0    0 -0.38578307665E+01  0.26278862380E+02  0.49666041689E+03  0.49737011487E+03  0.00000000000E+00 0.  1.
         11    1    1    2    0    0  0.36478410025E+01 -0.54143016080E+01 -0.39685654301E+03  0.39691023814E+03  0.00000000000E+00 0. -1.
        -15    1    1    2    0    0  0.30535001518E+01  0.54428735335E+01 -0.88224662944E+01  0.10951820670E+02  0.17770000000E+01 0. -1.
         15    1    1    2    0    0 -0.28435103878E+01 -0.26307434306E+02 -0.90981407580E+02  0.94767826320E+02  0.17770000000E+01 0.  1.
</event>
<event>
 6   1  0.3798113E-04  0.5001560E+03  0.7546771E-02  0.9399461E-01
        -11   -1    0    0    0    0  0.00000000000E+00  0.00000000000E+00  0.50000000000E+03  0.50000000000E+03  0.00000000000E+00 0.  1.
         11   -1    0    0    0    0 -0.00000000000E+00 -0.00000000000E+00 -0.50000000000E+03  0.50000000000E+03  0.00000000000E+00 0. -1.
        -11    1    1    2    0    0  0.28353126669E+01  0.27527894761E+01  0.23085058987E+02  0.23420862415E+02  0.00000000000E+00 0.  1.
         11    1    1    2    0    0 -0.22507730809E+01 -0.14593136086E+02 -0.49962585233E+03  0.49984399358E+03  0.00000000000E+00 0. -1.
        -15    1    1    2    0    0  0.16397367201E+01  0.74144191908E+01  0.34678242588E+03  0.34687010678E+03  0.17770000000E+01 0.  1.
         15    1    1    2    0    0 -0.22242763061E+01  0.44259274186E+01  0.12975836746E+03  0.12986503722E+03  0.17770000000E+01 0. -1.
</event>
<event>
 6   1  0.3798113E-04  0.5003707E+03  0.7546771E-02  0.9398981E-01
        -11   -1    0    0    0    0  0.00000000000E+00  0.00000000000E+00  0.50000000000E+03  0.50000000000E+03  0.00000000000E+00 0.  1.
         11   -1    0    0    0    0 -0.00000000000E+00 -0.00000000000E+00 -0.50000000000E+03  0.50000000000E+03  0.00000000000E+00 0. -1.
        -11    1    1    2    0    0  0.92068489473E+01 -0.39337054242E+01  0.49952899842E+03  0.49962932296E+03  0.00000000000E+00 0.  1.
         11    1    1    2    0    0  0.13090093086E+01  0.59842651729E+01 -0.38694873550E+03  0.38699722071E+03  0.00000000000E+00 0. -1.
        -15    1    1    2    0    0 -0.39177054446E+01 -0.11316513068E+01 -0.17972582440E+02  0.18514872378E+02  0.17770000000E+01 0. -1.
         15    1    1    2    0    0 -0.65981528113E+01 -0.91890844185E+00 -0.94607680481E+02  0.94858583946E+02  0.17770000000E+01 0.  1.
</event>
<event>
 6   1  0.3798113E-04  0.4956749E+03  0.7546771E-02  0.9409540E-01
        -11   -1    0    0    0    0  0.00000000000E+00  0.00000000000E+00  0.50000000000E+03  0.50000000000E+03  0.00000000000E+00 0. -1.
         11   -1    0    0    0    0 -0.00000000000E+00 -0.00000000000E+00 -0.50000000000E+03  0.50000000000E+03  0.00000000000E+00 0.  1.
        -11    1    1    2    0    0  0.79277317003E+01  0.37323755519E+01  0.29898368193E+00  0.87674938503E+01  0.00000000000E+00 0. -1.
         11    1    1    2    0    0 -0.10580076883E+02 -0.18209528472E+01 -0.49562411258E+03  0.49574037042E+03  0.00000000000E+00 0.  1.
        -15    1    1    2    0    0  0.65247155746E+01 -0.31158988621E+01  0.20863223517E+03  0.20876505459E+03  0.17770000000E+01 0. -1.
         15    1    1    2    0    0 -0.38723703920E+01  0.12044761574E+01  0.28669289373E+03  0.28672708114E+03  0.17770000000E+01 0.  1.
</event>
<event>
 6   1  0.3798113E-04  0.5014871E+03  0.7546771E-02  0.9396488E-01
        -11   -1    0    0    0    0  0.00000000000E+00  0.00000000000E+00  0.50000000000E+03  0.50000000000E+03  0.00000000000E+00 0.  1.
         11   -1    0    0    0    0 -0.00000000000E+00 -0.00000000000E+00 -0.50000000000E+03  0.50000000000E+03  0.00000000000E+00 0. -1.
        -11    1    1    2    0    0 -0.56349547845E+01 -0.10385344437E+02  0.49837284368E+03  0.49851288791E+03  0.00000000000E+00 0.  1.
         11    1    1    2    0    0 -0.13674001766E+01  0.99119404050E+01 -0.48297597325E+03  0.48307960740E+03  0.00000000000E+00 0. -1.
        -15    1    1    2    0    0  0.36508784260E+01 -0.23296681424E+01 -0.43272094406E+01  0.63748519573E+01  0.17770000000E+01 0. -1.
         15    1    1    2    0    0  0.33514765352E+01  0.28030721747E+01 -0.11069660988E+02  0.12032652740E+02  0.17770000000E+01 0.  1.
</event>
<event>
 6   1  0.3798113E-04  0.5081334E+03  0.7546771E-02  0.9381792E-01
        -11   -1    0    0    0    0  0.00000000000E+00  0.00000000000E+00  0.50000000000E+03  0.50000000000E+03  0.00000000000E+00 0.  1.
         11   -1    0    0    0    0 -0.00000000000E+00 -0.00000000000E+00 -0.50000000000E+03  0.50000000000E+03  0.00000000000E+00 0.  1.
        -11    1    1    2    0    0 -0.18395432753E+02 -0.93519119849E+01  0.49143351927E+03  0.49186660191E+03  0.00000000000E+00 0.  1.
         11    1    1    2    0    0 -0.14799707718E+01 -0.66612402369E+01 -0.46950756028E+03  0.46955714412E+03  0.00000000000E+00 0.  1.
        -15    1    1    2    0    0  0.26930028076E+01  0.25502945808E+00 -0.13245353219E+02  0.13635043639E+02  0.17770000000E+01 0. -1.
         15    1    1    2    0    0  0.17182400717E+02  0.15758122764E+02 -0.86806057789E+01  0.24941210338E+02  0.17770000000E+01 0.  1.
</event>
<event>
 6   1  0.3798113E-04  0.5001720E+03  0.7546771E-02  0.9399425E-01
        -11   -1    0    0    0    0  0.00000000000E+00  0.00000000000E+00  0.50000000000E+03  0.50000000000E+03  0.00000000000E+00 0.  1.
         11   -1    0    0    0    0 -0.00000000000E+00 -0.00000000000E+00 -0.50000000000E+03  0.50000000000E+03  0.00000000000E+00 0.  1.
        -11    1    1    2    0    0  0.15747377909E+00  0.58458235466E+01  0.87632191036E+02  0.87827099216E+02  0.00000000000E+00 0.  1.
         11    1    1    2    0    0 -0.53624249299E+01 -0.70586740329E+01 -0.49974942483E+03  0.49982803853E+03  0.00000000000E+00 0.  1.
        -15    1    1    2    0    0  0.89112642853E+01 -0.35288942803E+00  0.24204237396E+03  0.24221313689E+03  0.17770000000E+01 0. -1.
         15    1    1    2    0    0 -0.37063131345E+01  0.15657399143E+01  0.17007485983E+03  0.17013172536E+03  0.17770000000E+01 0.  1.
</event>
<event>
 6   1  0.3798113E-04  0.5001718E+03  0.7546771E-02  0.9399425E-01
        -11   -1    0    0    0    0  0.00000000000E+00  0.00000000000E+00  0.50000000000E+03  0.50000000000E+03  0.00000000000E+00 0.  1.
         11   -1    0    0    0    0 -0.00000000000E+00 -0.00000000000E+00 -0.50000000000E+03  0.50000000000E+03  0.00000000000E+00 0.  1.
        -11    1    1    2    0    0 -0.34231163206E+01  0.11251327069E+02  0.19183089977E+03  0.19219106168E+03  0.00000000000E+00 0.  1.
         11    1    1    2    0    0  0.55869649109E+01 -0.10638219546E+02 -0.49968370457E+03  0.49982816098E+03  0.00000000000E+00 0.  1.
        -15    1    1    2    0    0  0.15816958441E+01 -0.23104511337E+01  0.63186716183E+02  0.63273681552E+02  0.17770000000E+01 0. -1.
         15    1    1    2    0    0 -0.37455444345E+01  0.16973436106E+01  0.24466608862E+03  0.24470709579E+03  0.17770000000E+01 0.  1.
</event>
<event>
 6   1  0.3798113E-04  0.5049133E+03  0.7546771E-02  0.9388883E-01
        -11   -1    0    0    0    0  0.00000000000E+00  0.00000000000E+00  0.50000000000E+03  0.50000000000E+03  0.00000000000E+00 0. -1.
         11   -1    0    0    0    0 -0.00000000000E+00 -0.00000000000E+00 -0.50000000000E+03  0.50000000000E+03  0.00000000000E+00 0.  1.
        -11    1    1    2    0    0 -0.82006977949E+01  0.20595467399E+02  0.45498958423E+03  0.45552930365E+03  0.00000000000E+00 0. -1.
         11    1    1    2    0    0 -0.88236513724E+01  0.68714308080E+00 -0.49500760955E+03  0.49508672220E+03  0.00000000000E+00 0.  1.
        -15    1    1    2    0    0  0.11085728334E+02 -0.68341937686E+01  0.19952383215E+02  0.23892570019E+02  0.17770000000E+01 0.  1.
         15    1    1    2    0    0  0.59386208331E+01 -0.14448416711E+02  0.20065642102E+02  0.25491404135E+02  0.17770000000E+01 0. -1.
</event>
<event>
 6   1  0.3798113E-04  0.5048614E+03  0.7546771E-02  0.9388997E-01
        -11   -1    0    0    0    0  0.00000000000E+00  0.00000000000E+00  0.50000000000E+03  0.50000000000E+03  0.00000000000E+00 0.  1.
         11   -1    0    0    0    0 -0.00000000000E+00 -0.00000000000E+00 -0.50000000000E+03  0.50000000000E+03  0.00000000000E+00 0. -1.
        -11    1    1    2    0    0 -0.17358646300E+02 -0.99370085412E+01  0.45404259762E+03  0.45448294489E+03  0.00000000000E+00 0.  1.
         11    1    1    2    0    0 -0.85960639282E+01  0.39042420619E+01 -0.49504854020E+03  0.49513855896E+03  0.00000000000E+00 0. -1.
        -15    1    1    2    0    0  0.25341549045E+02  0.57830182310E+01  0.40881933781E+02  0.48478115130E+02  0.17770000000E+01 0.  1.
         15    1    1    2    0    0  0.61316118293E+00  0.24974824831E+00  0.12400879175E+00  0.19003810155E+01  0.17770000000E+01 0.  1.
</event>
<event>
 6   1  0.3798113E-04  0.5033177E+03  0.7546771E-02  0.9392417E-01
        -11   -1    0    0    0    0  0.00000000000E+00  0.00000000000E+00  0.50000000000E+03  0.50000000000E+03  0.00000000000E+00 0.  1.
         11   -1    0    0    0    0 -0.00000000000E+00 -0.00000000000E+00 -0.50000000000E+03  0.50000000000E+03  0.00000000000E+00 0. -1.
        -11    1    1    2    0    0  0.32459859420E+02 -0.34283425557E+02  0.49443337176E+03  0.49668234804E+03  0.00000000000E+00 0.  1.
         11    1    1    2    0    0  0.51868031717E+01 -0.31990920685E+00 -0.24836817949E+03  0.24842253894E+03  0.00000000000E+00 0. -1.
        -15    1    1    2    0    0 -0.41653774602E+01  0.14972699612E+01 -0.43843442832E+00  0.47897954519E+01  0.17770000000E+01 0.  1.
         15    1    1    2    0    0 -0.33481285132E+02  0.33106064802E+02 -0.24562675784E+03  0.25010531757E+03  0.17770000000E+01 0. -1.
</event>
<event>
 6   1  0.3798113E-04  0.5051418E+03  0.7546771E-02  0.9388377E-01
        -11   -1    0    0    0    0  0.00000000000E+00  0.00000000000E+00  0.50000000000E+03  0.50000000000E+03  0.00000000000E+00 0. -1.
         11   -1    0    0    0    0 -0.00000000000E+00 -0.00000000000E+00 -0.50000000000E+03  0.50000000000E+03  0.00000000000E+00 0.  1.
        -11    1    1    2    0    0 -0.90338868849E+01  0.61142346382E+01  0.47002995649E+03  0.47015652178E+03  0.00000000000E+00 0. -1.
         11    1    1    2    0    0 -0.89627983873E+01 -0.16740118513E+02 -0.49449373350E+03  0.49485817746E+03  0.00000000000E+00 0.  1.
        -15    1    1    2    0    0  0.17279801598E+02  0.36564983559E+01  0.16591703532E+02  0.24298227890E+02  0.17770000000E+01 0. -1.
         15    1    1    2    0    0  0.71688367433E+00  0.69693855185E+01  0.78720734829E+01  0.10687072875E+02  0.17770000000E+01 0.  1.
</event>
<event>
 6   1  0.3798113E-04  0.5039628E+03  0.7546771E-02  0.9390986E-01
        -11   -1    0    0    0    0  0.00000000000E+00  0.00000000000E+00  0.50000000000E+03  0.50000000000E+03  0.00000000000E+00 0. -1.
         11   -1    0    0    0    0 -0.00000000000E+00 -0.00000000000E+00 -0.50000000000E+03  0.50000000000E+03  0.00000000000E+00 0. -1.
        -11    1    1    2    0    0  0.22851622214E+02 -0.12019633127E+02  0.49536476881E+03  0.49603721876E+03  0.00000000000E+00 0. -1.
         11    1    1    2    0    0  0.98420131119E+01 -0.24609219060E+01 -0.40249178108E+03  0.40261961601E+03  0.00000000000E+00 0. -1.
        -15    1    1    2    0    0 -0.37225150152E+01 -0.13090694770E+01 -0.30055573253E+02  0.30365539572E+02  0.17770000000E+01 0.  1.
         15    1    1    2    0    0 -0.28971120311E+02  0.15789624510E+02 -0.62817414474E+02  0.70977625661E+02  0.17770000000E+01 0. -1.
</event>
<event>
 6   1  0.3798113E-04  0.5154854E+03  0.7546771E-02  0.9365811E-01
        -11   -1    0    0    0    0  0.00000000000E+00  0.00000000000E+00  0.50000000000E+03  0.50000000000E+03  0.00000000000E+00 0. -1.
         11   -1    0    0    0    0 -0.00000000000E+00 -0.00000000000E+00 -0.50000000000E+03  0.50000000000E+03  0.00000000000E+00 0. -1.
        -11    1    1    2    0    0 -0.10682653778E+02 -0.79524174559E+02  0.24590681154E+03  0.25866652932E+03  0.00000000000E+00 0. -1.
         11    1    1    2    0    0  0.10361526341E+02  0.39824143761E+01 -0.48438740176E+03  0.48451457753E+03  0.00000000000E+00 0. -1.
        -15    1    1    2    0    0 -0.51450385261E+01 -0.24718640127E+01  0.15116224828E+00  0.59801431552E+01  0.17770000000E+01 0.  1.
         15    1    1    2    0    0  0.54661659626E+01  0.78013624195E+02  0.23832942798E+03  0.25083875000E+03  0.17770000000E+01 0. -1.
</event>
<event>
 6   1  0.3798113E-04  0.5080251E+03  0.7546771E-02  0.9382030E-01
        -11   -1    0    0    0    0  0.00000000000E+00  0.00000000000E+00  0.50000000000E+03  0.50000000000E+03  0.00000000000E+00 0. -1.
         11   -1    0    0    0    0 -0.00000000000E+00 -0.00000000000E+00 -0.50000000000E+03  0.50000000000E+03  0.00000000000E+00 0.  1.
        -11    1    1    2    0    0 -0.36405674467E+02 -0.58355654706E+01  0.42022660202E+03  0.42184099375E+03  0.00000000000E+00 0. -1.
         11    1    1    2    0    0  0.66941628340E+01 -0.49292734396E+01 -0.49190461901E+03  0.49197486090E+03  0.00000000000E+00 0.  1.
        -15    1    1    2    0    0 -0.76962386634E+01  0.83758147997E+00  0.20574083243E+02  0.22054121216E+02  0.17770000000E+01 0. -1.
         15    1    1    2    0    0  0.37407750296E+02  0.99272574303E+01  0.51103933745E+02  0.64130024135E+02  0.17770000000E+01 0.  1.
</event>
<event>
 6   1  0.3798113E-04  0.5014040E+03  0.7546771E-02  0.9396674E-01
        -11   -1    0    0    0    0  0.00000000000E+00  0.00000000000E+00  0.50000000000E+03  0.50000000000E+03  0.00000000000E+00 0.  1.
         11   -1    0    0    0    0 -0.00000000000E+00 -0.00000000000E+00 -0.50000000000E+03  0.50000000000E+03  0.00000000000E+00 0.  1.
        -11    1    1    2    0    0 -0.11860443092E+02 -0.16117805531E+02 -0.55566775821E+02  0.59060311045E+02  0.00000000000E+00 0.  1.
         11    1    1    2    0    0  0.14136407601E+02  0.17719262569E+02 -0.44176253344E+03  0.44234369695E+03  0.00000000000E+00 0.  1.
        -15    1    1    2    0    0 -0.91881575234E+01  0.11996278362E+02  0.37471073807E+03  0.37501950334E+03  0.17770000000E+01 0.  1.
         15    1    1    2    0    0  0.69121930144E+01 -0.13597735399E+02  0.12261857119E+03  0.12357648866E+03  0.17770000000E+01 0. -1.
</event>
<event>
 6   1  0.3798113E-04  0.5009797E+03  0.7546771E-02  0.9397620E-01
        -11   -1    0    0    0    0  0.00000000000E+00  0.00000000000E+00  0.50000000000E+03  0.50000000000E+03  0.00000000000E+00 0.  1.
         11   -1    0    0    0    0 -0.00000000000E+00 -0.00000000000E+00 -0.50000000000E+03  0.50000000000E+03  0.00000000000E+00 0. -1.
        -11    1    1    2    0    0  0.23239386311E+01  0.24821642359E+02  0.49839720668E+03  0.49902033049E+03  0.00000000000E+00 0.  1.
         11    1    1    2    0    0  0.11566835498E+02  0.42870610610E+01 -0.24136826270E+03  0.24168328204E+03  0.00000000000E+00 0. -1.
        -15    1    1    2    0    0 -0.13476410217E+02 -0.17114693578E+02 -0.17912177010E+03  0.18045024971E+03  0.17770000000E+01 0.  1.
         15    1    1    2    0    0 -0.41436391236E+00 -0.11994009842E+02 -0.77907173873E+02  0.78846137759E+02  0.17770000000E+01 0. -1.
</event>
<event>
 6   1  0.3798113E-04  0.5022834E+03  0.7546771E-02  0.9394715E-01
        -11   -1    0    0    0    0  0.00000000000E+00  0.00000000000E+00  0.50000000000E+03  0.50000000000E+03  0.00000000000E+00 0.  1.
         11   -1    0    0    0    0 -0.00000000000E+00 -0.00000000000E+00 -0.50000000000E+03  0.50000000000E+03  0.00000000000E+00 0.  1.
        -11    1    1    2    0    0  0.12845848835E+02 -0.16270872256E+02  0.23357010844E+03  0.23448827833E+03  0.00000000000E+00 0.  1.
         11    1    1    2    0    0  0.82687833959E+01 -0.34830490219E+01 -0.49763573139E+03  0.49771661170E+03  0.00000000000E+00 0.  1.
        -15    1    1    2    0    0 -0.33099902903E+01  0.27135223678E+01  0.18273798733E+03  0.18279674227E+03  0.17770000000E+01 0. -1.
         15    1    1    2    0    0 -0.17804641940E+02  0.17040398910E+02  0.81327635611E+02  0.84998367706E+02  0.17770000000E+01 0.  1.
</event>
<event>
 6   1  0.3798113E-04  0.5000627E+03  0.7546771E-02  0.9399669E-01
        -11   -1    0    0    0    0  0.00000000000E+00  0.00000000000E+00  0.50000000000E+03  0.50000000000E+03  0.00000000000E+00 0. -1.
         11   -1    0    0    0    0 -0.00000000000E+00 -0.00000000000E+00 -0.50000000000E+03  0.50000000000E+03  0.00000000000E+00 0.  1.
        -11    1    1    2    0    0 -0.32993792515E+01  0.13329105533E+02  0.49974864226E+03  0.49993725246E+03  0.00000000000E+00 0. -1.
         11    1    1    2    0    0 -0.29612369759E+01 -0.49622581772E+01 -0.21237918892E+03  0.21245779067E+03  0.00000000000E+00 0.  1.
        -15    1    1    2    0    0  0.46971396414E+01 -0.73323466209E+01 -0.24076682477E+03  0.24093079519E+03  0.17770000000E+01 0.  1.
         15    1    1    2    0    0  0.15634765860E+01 -0.10345007351E+01 -0.46602628565E+02  0.46674161685E+02  0.17770000000E+01 0. -1.
</event>
<event>
 6   1  0.3798113E-04  0.5011285E+03  0.7546771E-02  0.9397288E-01
        -11   -1    0    0    0    0  0.00000000000E+00  0.00000000000E+00  0.50000000000E+03  0.50000000000E+03  0.00000000000E+00 0.  1.
         11   -1    0    0    0    0 -0.00000000000E+00 -0.00000000000E+00 -0.50000000000E+03  0.50000000000E+03  0.00000000000E+00 0.  1.
        -11    1    1    2    0    0  0.11970063693E+02 -0.12308263092E+02  0.54582943526E+02  0.57219520175E+02  0.00000000000E+00 0.  1.
         11    1    1    2    0    0 -0.23911299468E+02  0.65804375124E+01 -0.49825467477E+03  0.49887149982E+03  0.00000000000E+00 0.  1.
        -15    1    1    2    0    0  0.80133750818E+01  0.12954140498E+01  0.26536727079E+03  0.26549734163E+03  0.17770000000E+01 0.  1.
         15    1    1    2    0    0  0.39278606924E+01  0.44324115296E+01  0.17830446045E+03  0.17841163838E+03  0.17770000000E+01 0. -1.
</event>
<event>
 6   1  0.3798113E-04  0.5010848E+03  0.7546771E-02  0.9397386E-01
        -11   -1    0    0    0    0  0.00000000000E+00  0.00000000000E+00  0.50000000000E+03  0.50000000000E+03  0.00000000000E+00 0. -1.
         11   -1    0    0    0    0 -0.00000000000E+00 -0.00000000000E+00 -0.50000000000E+03  0.50000000000E+03  0.00000000000E+00 0. -1.
        -11    1    1    2    0    0 -0.23704112851E+02 -0.23420525783E+02  0.34954023848E+03  0.35112502661E+03  0.00000000000E+00 0. -1.
         11    1    1    2    0    0  0.11769445971E+02  0.14325247749E+02 -0.49857062241E+03  0.49891522137E+03  0.00000000000E+00 0. -1.
        -15    1    1    2    0    0  0.95229202021E+01  0.35011151235E+01  0.88331619319E+02  0.88930177763E+02  0.17770000000E+01 0. -1.
         15    1    1    2    0    0  0.24117466788E+01  0.55941629108E+01  0.60698764612E+02  0.61029574267E+02  0.17770000000E+01 0.  1.
</event>
<event>
 6   1  0.3798113E-04  0.5001358E+03  0.7546771E-02  0.9399506E-01
        -11   -1    0    0    0    0  0.00000000000E+00  0.00000000000E+00  0.50000000000E+03  0.50000000000E+03  0.00000000000E+00 0.  1.
         11   -1    0    0    0    0 -0.00000000000E+00 -0.00000000000E+00 -0.50000000000E+03  0.50000000000E+03  0.00000000000E+00 0. -1.
        -11    1    1    2    0    0  0.15136827661E+01 -0.77966120126E+01  0.93256388913E+02  0.93593976663E+02  0.00000000000E+00 0.  1.
         11    1    1    2    0    0  0.52184802382E+01  0.12961832825E+02 -0.49966889687E+03  0.49986422971E+03  0.00000000000E+00 0. -1.
        -15    1    1    2    0    0 -0.56774591239E+01 -0.51720271101E+01  0.35546118553E+03  0.35554858395E+03  0.17770000000E+01 0.  1.
         15    1    1    2    0    0 -0.10547038804E+01  0.68062978107E-02  0.50951322427E+02  0.50993209672E+02  0.17770000000E+01 0.  1.
</event>
<event>
 6   1  0.3798113E-04  0.5003707E+03  0.7546771E-02  0.9398981E-01
        -11   -1    0    0    0    0  0.00000000000E+00  0.00000000000E+00  0.50000000000E+03  0.50000000000E+03  0.00000000000E+00 0.  1.
         11   -1    0    0    0    0 -0.00000000000E+00 -0.00000000000E+00 -0.50000000000E+03  0.50000000000E+03  0.00000000000E+00 0. -1.
        -11    1    1    2    0    0  0.60062867134E+01 -0.30620281983E+00  0.25131655507E+03  0.25138850430E+03  0.00000000000E+00 0.  1.
         11    1    1    2    0    0 -0.75708105978E+01  0.46071000712E+01 -0.49955073642E+03  0.49962934342E+03  0.00000000000E+00 0. -1.
        -15    1    1    2    0    0 -0.51826414027E+01  0.32011999324E+01  0.40371436149E+02  0.40867077687E+02  0.17770000000E+01 0.  1.
         15    1    1    2    0    0  0.67471652871E+01 -0.75020971838E+01  0.20786274520E+03  0.20811507459E+03  0.17770000000E+01 0. -1.
</event>
<event>
 6   1  0.3798113E-04  0.5019219E+03  0.7546771E-02  0.9395520E-01
        -11   -1    0    0    0    0  0.00000000000E+00  0.00000000000E+00  0.50000000000E+03  0.50000000000E+03  0.00000000000E+00 0. -1.
         11   -1    0    0    0    0 -0.00000000000E+00 -0.00000000000E+00 -0.50000000000E+03  0.50000000000E+03  0.00000000000E+00 0. -1.
        -11    1    1    2    0    0 -0.15085118216E+02 -0.20122920741E+01  0.49784556418E+03  0.49807812227E+03  0.00000000000E+00 0. -1.
         11    1    1    2    0    0  0.62267772409E+01  0.44989864829E+01 -0.45657998625E+03  0.45664460741E+03  0.00000000000E+00 0. -1.
        -15    1    1    2    0    0  0.12832910929E+02 -0.36435757428E+01 -0.24913930199E+02  0.28316442115E+02  0.17770000000E+01 0. -1.
         15    1    1    2    0    0 -0.39745699532E+01  0.11568813341E+01 -0.16351647737E+02  0.16960828206E+02  0.17770000000E+01 0.  1.
</event>
<event>
 6   1  0.3798113E-04  0.5016073E+03  0.7546771E-02  0.9396221E-01
        -11   -1    0    0    0    0  0.00000000000E+00  0.00000000000E+00  0.50000000000E+03  0.50000000000E+03  0.00000000000E+00 0. -1.
         11   -1    0    0    0    0 -0.00000000000E+00 -0.00000000000E+00 -0.50000000000E+03  0.50000000000E+03  0.00000000000E+00 0.  1.
        -11    1    1    2    0    0  0.31742920418E+01  0.13793776754E+02  0.45334032892E+03  0.45356123979E+03  0.00000000000E+00 0. -1.
         11    1    1    2    0    0  0.38877938284E+01 -0.57671545634E+01 -0.49834421185E+03  0.49839274523E+03  0.00000000000E+00 0.  1.
        -15    1    1    2    0    0 -0.47162609493E+01  0.79031540982E-02  0.32538402288E+02  0.32926410862E+02  0.17770000000E+01 0. -1.
         15    1    1    2    0    0 -0.23458249209E+01 -0.80345253449E+01  0.12465480642E+02  0.15119604119E+02  0.17770000000E+01 0.  1.
</event>
<event>
 6   1  0.3798113E-04  0.5000529E+03  0.7546771E-02  0.9399691E-01
        -11   -1    0    0    0    0  0.00000000000E+00  0.00000000000E+00  0.50000000000E+03  0.50000000000E+03  0.00000000000E+00 0.  1.
         11   -1    0    0    0    0 -0.00000000000E+00 -0.00000000000E+00 -0.50000000000E+03  0.50000000000E+03  0.00000000000E+00 0. -1.
        -11    1    1    2    0    0  0.39044867683E+01 -0.48698032821E+01  0.19790775871E+03  0.19800616394E+03  0.00000000000E+00 0.  1.
         11    1    1    2    0    0 -0.41268975148E+00  0.68760307958E+01 -0.49989961318E+03  0.49994707057E+03  0.00000000000E+00 0. -1.
        -15    1    1    2    0    0 -0.12283701645E+01 -0.18446525053E+01  0.13297123661E+03  0.13300157567E+03  0.17770000000E+01 0.  1.
         15    1    1    2    0    0 -0.22634268523E+01 -0.16157500847E+00  0.16902061787E+03  0.16904518982E+03  0.17770000000E+01 0.  1.
</event>
<event>
 6   1  0.3798113E-04  0.4913603E+03  0.7546771E-02  0.9419352E-01
        -11   -1    0    0    0    0  0.00000000000E+00  0.00000000000E+00  0.50000000000E+03  0.50000000000E+03  0.00000000000E+00 0. -1.
         11   -1    0    0    0    0 -0.00000000000E+00 -0.00000000000E+00 -0.50000000000E+03  0.50000000000E+03  0.00000000000E+00 0. -1.
        -11    1    1    2    0    0 -0.74808174142E+01 -0.41117100670E+01  0.49350437207E+03  0.49357819446E+03  0.00000000000E+00 0. -1.
         11    1    1    2    0    0 -0.39894084385E+01 -0.59058831973E+01 -0.48921788327E+03  0.48926979484E+03  0.00000000000E+00 0. -1.
        -15    1    1    2    0    0  0.93221120500E+01  0.75706268939E+01 -0.97387628472E+00  0.12178765482E+02  0.17770000000E+01 0. -1.
         15    1    1    2    0    0  0.21481138028E+01  0.24469663704E+01 -0.33126125177E+01  0.49732452202E+01  0.17770000000E+01 0.  1.
</event>
<event>
 6   1  0.3798113E-04  0.5011286E+03  0.7546771E-02  0.9397288E-01
        -11   -1    0    0    0    0  0.00000000000E+00  0.00000000000E+00  0.50000000000E+03  0.50000000000E+03  0.00000000000E+00 0.  1.
         11   -1    0    0    0    0 -0.00000000000E+00 -0.00000000000E+00 -0.50000000000E+03  0.50000000000E+03  0.00000000000E+00 0.  1.
        -11    1    1    2    0    0 -0.13820976215E+02 -0.10198303994E+02  0.49857560085E+03  0.49887138077E+03  0.00000000000E+00 0.  1.
         11    1    1    2    0    0  0.40564682878E+01 -0.13277159009E+01 -0.29990913667E+03  0.29993950727E+03  0.00000000000E+00 0.  1.
        -15    1    1    2    0    0  0.56095540850E+01  0.68520050408E+01 -0.15740682726E+02  0.18147834356E+02  0.17770000000E+01 0.  1.
         15    1    1    2    0    0  0.41549538427E+01  0.46740148538E+01 -0.18292578146E+03  0.18304127761E+03  0.17770000000E+01 0. -1.
</event>
<event>
 6   1  0.3798113E-04  0.5008498E+03  0.7546771E-02  0.9397910E-01
        -11   -1    0    0    0    0  0.00000000000E+00  0.00000000000E+00  0.50000000000E+03  0.50000000000E+03  0.00000000000E+00 0. -1.
         11   -1    0    0    0    0 -0.00000000000E+00 -0.00000000000E+00 -0.50000000000E+03  0.50000000000E+03  0.00000000000E+00 0.  1.
        -11    1    1    2    0    0 -0.10010407349E+02  0.13218166039E+02  0.99992046492E+02  0.10135747397E+03  0.00000000000E+00 0. -1.
         11    1    1    2    0    0  0.20519811838E+02  0.46574906497E+01 -0.49870648487E+03  0.49915019077E+03  0.00000000000E+00 0.  1.
        -15    1    1    2    0    0 -0.11336941646E+02 -0.15903265804E+02  0.25572998378E+03  0.25648084225E+03  0.17770000000E+01 0.  1.
         15    1    1    2    0    0  0.82753715642E+00 -0.19723908850E+01  0.14298445460E+03  0.14301149300E+03  0.17770000000E+01 0. -1.
</event>
<event>
 6   1  0.3798113E-04  0.5043536E+03  0.7546771E-02  0.9390121E-01
        -11   -1    0    0    0    0  0.00000000000E+00  0.00000000000E+00  0.50000000000E+03  0.50000000000E+03  0.00000000000E+00 0.  1.
         11   -1    0    0    0    0 -0.00000000000E+00 -0.00000000000E+00 -0.50000000000E+03  0.50000000000E+03  0.00000000000E+00 0. -1.
        -11    1    1    2    0    0 -0.15954880345E+02 -0.18104056074E+02  0.45968205359E+03  0.46031500676E+03  0.00000000000E+00 0.  1.
         11    1    1    2    0    0 -0.61697084855E+01  0.79039564762E+01 -0.49554494660E+03  0.49564637791E+03  0.00000000000E+00 0. -1.
        -15    1    1    2    0    0  0.17374905195E+02  0.63135987552E+01  0.30440905136E+02  0.35658873991E+02  0.17770000000E+01 0. -1.
         15    1    1    2    0    0  0.47496836353E+01  0.38865008423E+01  0.54219878742E+01  0.83797413409E+01  0.17770000000E+01 0.  1.
</event>
<event>
 6   1  0.3798113E-04  0.5016670E+03  0.7546771E-02  0.9396087E-01
        -11   -1    0    0    0    0  0.00000000000E+00  0.00000000000E+00  0.50000000000E+03  0.50000000000E+03  0.00000000000E+00 0. -1.
         11   -1    0    0    0    0 -0.00000000000E+00 -0.00000000000E+00 -0.50000000000E+03  0.50000000000E+03  0.00000000000E+00 0. -1.
        -11    1    1    2    0    0  0.12490586956E+02  0.45712825095E+02  0.49607471377E+03  0.49833301996E+03  0.00000000000E+00 0. -1.
         11    1    1    2    0    0  0.12336960893E+01 -0.28057091501E+02 -0.77195520124E+02  0.82145424198E+02  0.00000000000E+00 0. -1.
        -15    1    1    2    0    0 -0.29847347706E+01 -0.74271497001E+01 -0.16442920995E+03  0.16463351423E+03  0.17770000000E+01 0. -1.
         15    1    1    2    0    0 -0.10739548275E+02 -0.10228583893E+02 -0.25444998370E+03  0.25488804161E+03  0.17770000000E+01 0.  1.
</event>
<event>
 6   1  0.3798113E-04  0.5001037E+03  0.7546771E-02  0.9399578E-01
        -11   -1    0    0    0    0  0.00000000000E+00  0.00000000000E+00  0.50000000000E+03  0.50000000000E+03  0.00000000000E+00 0.  1.
         11   -1    0    0    0    0 -0.00000000000E+00 -0.00000000000E+00 -0.50000000000E+03  0.50000000000E+03  0.00000000000E+00 0.  1.
        -11    1    1    2    0    0  0.30718917254E+01  0.51089888491E+01  0.23701875819E+03  0.23709371569E+03  0.00000000000E+00 0.  1.
         11    1    1    2    0    0 -0.69895716333E-01 -0.92620262467E+01 -0.49981045190E+03  0.49989626709E+03  0.00000000000E+00 0.  1.
        -15    1    1    2    0    0 -0.51503788455E+01  0.36517055209E+01  0.23079269899E+03  0.23088587872E+03  0.17770000000E+01 0. -1.
         15    1    1    2    0    0  0.21483828364E+01  0.50133187669E+00  0.31998994723E+02  0.32124138506E+02  0.17770000000E+01 0. -1.
</event>
<event>
 6   1  0.3798113E-04  0.5022335E+03  0.7546771E-02  0.9394826E-01
        -11   -1    0    0    0    0  0.00000000000E+00  0.00000000000E+00  0.50000000000E+03  0.50000000000E+03  0.00000000000E+00 0. -1.
         11   -1    0    0    0    0 -0.00000000000E+00 -0.00000000000E+00 -0.50000000000E+03  0.50000000000E+03  0.00000000000E+00 0.  1.
        -11    1    1    2    0    0  0.11708798010E+02 -0.36317795613E+01  0.49761554255E+03  0.49776652555E+03  0.00000000000E+00 0. -1.
         11    1    1    2    0    0  0.76200399985E+01  0.93730137052E+00 -0.45327678310E+03  0.45334179780E+03  0.00000000000E+00 0.  1.
        -15    1    1    2    0    0 -0.80766234443E+01 -0.14311717367E+01 -0.15884772204E+02  0.17965628733E+02  0.17770000000E+01 0. -1.
         15    1    1    2    0    0 -0.11252214564E+02  0.41256499275E+01 -0.28453987250E+02  0.30926047910E+02  0.17770000000E+01 0.  1.
</event>
<event>
 6   1  0.3798113E-04  0.5138099E+03  0.7546771E-02  0.9369428E-01
        -11   -1    0    0    0    0  0.00000000000E+00  0.00000000000E+00  0.50000000000E+03  0.50000000000E+03  0.00000000000E+00 0. -1.
         11   -1    0    0    0    0 -0.00000000000E+00 -0.00000000000E+00 -0.50000000000E+03  0.50000000000E+03  0.00000000000E+00 0. -1.
        -11    1    1    2    0    0 -0.48823130299E+02 -0.13254690503E+02  0.48355084747E+03  0.48619009344E+03  0.00000000000E+00 0. -1.
         11    1    1    2    0    0 -0.19447897568E+02  0.18224204101E+02 -0.41001749691E+03  0.41088281798E+03  0.00000000000E+00 0. -1.
        -15    1    1    2    0    0  0.19249954848E+02 -0.33073057448E+01 -0.36521910877E+02  0.41454875902E+02  0.17770000000E+01 0.  1.
         15    1    1    2    0    0  0.49021073019E+02 -0.16622078539E+01 -0.37011439682E+02  0.61472212675E+02  0.17770000000E+01 0. -1.
</event>
<event>
 6   1  0.3798113E-04  0.5083632E+03  0.7546771E-02  0.9381288E-01
        -11   -1    0    0    0    0  0.00000000000E+00  0.00000000000E+00  0.50000000000E+03  0.50000000000E+03  0.00000000000E+00 0. -1.
         11   -1    0    0    0    0 -0.00000000000E+00 -0.00000000000E+00 -0.50000000000E+03  0.50000000000E+03  0.00000000000E+00 0.  1.
        -11    1    1    2    0    0 -0.62562329635E+02 -0.10384717266E+02  0.48752933806E+03  0.49163679980E+03  0.00000000000E+00 0. -1.
         11    1    1    2    0    0 -0.10630930113E+01  0.67882674785E+01 -0.36419728033E+03  0.36426208936E+03  0.00000000000E+00 0.  1.
        -15    1    1    2    0    0  0.38327264293E+02  0.92937482410E+01 -0.10532474946E+03  0.11248028059E+03  0.17770000000E+01 0.  1.
         15    1    1    2    0    0  0.25298158354E+02 -0.56972984531E+01 -0.18007308275E+02  0.31620830256E+02  0.17770000000E+01 0. -1.
</event>
<event>
 6   1  0.3798113E-04  0.5049610E+03  0.7546771E-02  0.9388777E-01
        -11   -1    0    0    0    0  0.00000000000E+00  0.00000000000E+00  0.50000000000E+03  0.50000000000E+03  0.00000000000E+00 0.  1.
         11   -1    0    0    0    0 -0.00000000000E+00 -0.00000000000E+00 -0.50000000000E+03  0.50000000000E+03  0.00000000000E+00 0. -1.
        -11    1    1    2    0    0  0.77059740335E+01 -0.18391190249E+02  0.49463719617E+03  0.49503896185E+03  0.00000000000E+00 0.  1.
         11    1    1    2    0    0 -0.91401383585E+01  0.13678347659E+02 -0.48756492681E+03  0.48784238969E+03  0.00000000000E+00 0. -1.
        -15    1    1    2    0    0  0.70586915279E+00  0.80011205969E+01  0.90801086275E+00  0.82763757040E+01  0.17770000000E+01 0.  1.
         15    1    1    2    0    0  0.72829517229E+00 -0.32882780072E+01 -0.79802802204E+01  0.88422727569E+01  0.17770000000E+01 0. -1.
</event>
<event>
 6   1  0.3798113E-04  0.5023383E+03  0.7546771E-02  0.9394593E-01
        -11   -1    0    0    0    0  0.00000000000E+00  0.00000000000E+00  0.50000000000E+03  0.50000000000E+03  0.00000000000E+00 0.  1.
         11   -1    0    0    0    0 -0.00000000000E+00 -0.00000000000E+00 -0.50000000000E+03  0.50000000000E+03  0.00000000000E+00 0.  1.
        -11    1    1    2    0    0  0.78847793143E+01 -0.24308185089E+00  0.49759912518E+03  0.49766165034E+03  0.00000000000E+00 0.  1.
         11    1    1    2    0    0  0.49144524224E+01  0.42965173090E+01 -0.47480916176E+03  0.47485403231E+03  0.00000000000E+00 0.  1.
        -15    1    1    2    0    0 -0.84796479815E+01 -0.46032532272E+00 -0.90655507648E+01  0.12548237684E+02  0.17770000000E+01 0. -1.
         15    1    1    2    0    0 -0.43195837552E+01 -0.35931101354E+01 -0.13724412653E+02  0.14936079671E+02  0.17770000000E+01 0.  1.
</event>
<event>
 6   1  0.3798113E-04  0.5019657E+03  0.7546771E-02  0.9395422E-01
        -11   -1    0    0    0    0  0.00000000000E+00  0.00000000000E+00  0.50000000000E+03  0.50000000000E+03  0.00000000000E+00 0.  1.
         11   -1    0    0    0    0 -0.00000000000E+00 -0.00000000000E+00 -0.50000000000E+03  0.50000000000E+03  0.00000000000E+00 0. -1.
        -11    1    1    2    0    0  0.46969347716E+01 -0.14936298367E+02  0.49778814659E+03  0.49803432923E+03  0.00000000000E+00 0.  1.
         11    1    1    2    0    0 -0.18003644849E+01  0.66570122317E+01 -0.43110998374E+03  0.43116513682E+03  0.00000000000E+00 0. -1.
        -15    1    1    2    0    0 -0.19670382968E+01 -0.52344817659E+01 -0.43513566868E+02  0.43907371473E+02  0.17770000000E+01 0. -1.
         15    1    1    2    0    0 -0.92953198988E+00  0.13513767901E+02 -0.23164595978E+02  0.26893162485E+02  0.17770000000E+01 0.  1.
</event>
<event>
 6   1  0.3798113E-04  0.5002894E+03  0.7546771E-02  0.9399162E-01
        -11   -1    0    0    0    0  0.00000000000E+00  0.00000000000E+00  0.50000000000E+03  0.50000000000E+03  0.00000000000E+00 0.  1.
         11   -1    0    0    0    0 -0.00000000000E+00 -0.00000000000E+00 -0.50000000000E+03  0.50000000000E+03  0.00000000000E+00 0.  1.
        -11    1    1    2    0    0 -0.59292821976E+01  0.49047443283E+01  0.49965134817E+03  0.49971059888E+03  0.00000000000E+00 0.  1.
         11    1    1    2    0    0 -0.40094967424E+01  0.25330085297E+01 -0.30010146704E+03  0.30013893902E+03  0.00000000000E+00 0.  1.
        -15    1    1    2    0    0  0.28750824948E+01 -0.55713599673E+01 -0.13621970897E+03  0.13637548531E+03  0.17770000000E+01 0.  1.
         15    1    1    2    0    0  0.70636964453E+01 -0.18663928907E+01 -0.63330172162E+02  0.63774976793E+02  0.17770000000E+01 0. -1.
</event>
<event>
 6   1  0.3798113E-04  0.5031831E+03  0.7546771E-02  0.9392715E-01
        -11   -1    0    0    0    0  0.00000000000E+00  0.00000000000E+00  0.50000000000E+03  0.50000000000E+03  0.00000000000E+00 0. -1.
         11   -1    0    0    0    0 -0.00000000000E+00 -0.00000000000E+00 -0.50000000000E+03  0.50000000000E+03  0.00000000000E+00 0. -1.
        -11    1    1    2    0    0 -0.23363635597E+00 -0.11842634550E+02  0.46190263987E+03  0.46205448953E+03  0.00000000000E+00 0. -1.
         11    1    1    2    0    0 -0.92984970586E+01  0.23544932875E+01 -0.49672432515E+03  0.49681692894E+03  0.00000000000E+00 0. -1.
        -15    1    1    2    0    0  0.92892080656E+00  0.12449988624E+02  0.19624019708E+02  0.23326486857E+02  0.17770000000E+01 0.  1.
         15    1    1    2    0    0  0.86032126080E+01 -0.29618473615E+01  0.15197665570E+02  0.17802094673E+02  0.17770000000E+01 0. -1.
</event>
<event>
 6   1  0.3798113E-04  0.5008623E+03  0.7546771E-02  0.9397882E-01
        -11   -1    0    0    0    0  0.00000000000E+00  0.00000000000E+00  0.50000000000E+03  0.50000000000E+03  0.00000000000E+00 0.  1.
         11   -1    0    0    0    0 -0.00000000000E+00 -0.00000000000E+00 -0.50000000000E+03  0.50000000000E+03  0.00000000000E+00 0. -1.
        -11    1    1    2    0    0  0.99076427856E+01 -0.22909882167E+01  0.39565220321E+03  0.39578286461E+03  0.00000000000E+00 0.  1.
         11    1    1    2    0    0  0.60292341840E+01  0.39091750542E+01 -0.49908593336E+03  0.49913765856E+03  0.00000000000E+00 0. -1.
        -15    1    1    2    0    0 -0.11700010281E+02 -0.24507456027E+01  0.49904544726E+02  0.51347032123E+02  0.17770000000E+01 0. -1.
         15    1    1    2    0    0 -0.42368666885E+01  0.83255876529E+00  0.53529185424E+02  0.53732444711E+02  0.17770000000E+01 0.  1.
</event>
<event>
 6   1  0.3798113E-04  0.5021109E+03  0.7546771E-02  0.9395099E-01
        -11   -1    0    0    0    0  0.00000000000E+00  0.00000000000E+00  0.50000000000E+03  0.50000000000E+03  0.00000000000E+00 0.  1.
         11   -1    0    0    0    0 -0.00000000000E+00 -0.00000000000E+00 -0.50000000000E+03  0.50000000000E+03  0.00000000000E+00 0.  1.
        -11    1    1    2    0    0  0.54001732418E+01  0.13230573592E+02  0.49768398440E+03  0.49788910239E+03  0.00000000000E+00 0.  1.
         11    1    1    2    0    0  0.87057220726E+01 -0.81228614266E+00 -0.44796511204E+03  0.44805043356E+03  0.00000000000E+00 0.  1.
        -15    1    1    2    0    0 -0.39902497779E+01  0.84426418955E+00 -0.10037349729E+02  0.10979116262E+02  0.17770000000E+01 0. -1.
         15    1    1    2    0    0 -0.10115645536E+02 -0.13262551639E+02 -0.39681522624E+02  0.43081347790E+02  0.17770000000E+01 0.  1.
</event>
<event>
 6   1  0.3798113E-04  0.5004427E+03  0.7546771E-02  0.9398820E-01
        -11   -1    0    0    0    0  0.00000000000E+00  0.00000000000E+00  0.50000000000E+03  0.50000000000E+03  0.00000000000E+00 0.  1.
         11   -1    0    0    0    0 -0.00000000000E+00 -0.00000000000E+00 -0.50000000000E+03  0.50000000000E+03  0.00000000000E+00 0.  1.
        -11    1    1    2    0    0  0.52143696100E+01  0.24867431781E+01  0.26452593482E+03  0.26458900910E+03  0.00000000000E+00 0.  1.
         11    1    1    2    0    0 -0.10821076429E+02 -0.11039972633E+02 -0.49931810287E+03  0.49955734860E+03  0.00000000000E+00 0.  1.
        -15    1    1    2    0    0  0.14935599728E+01 -0.27992198192E+01  0.86622318189E+01  0.93945911072E+01  0.17770000000E+01 0. -1.
         15    1    1    2    0    0  0.41131468460E+01  0.11352449274E+02  0.22612993623E+03  0.22645905119E+03  0.17770000000E+01 0.  1.
</event>
<event>
 6   1  0.3798113E-04  0.5022413E+03  0.7546771E-02  0.9394809E-01
        -11   -1    0    0    0    0  0.00000000000E+00  0.00000000000E+00  0.50000000000E+03  0.50000000000E+03  0.00000000000E+00 0.  1.
         11   -1    0    0    0    0 -0.00000000000E+00 -0.00000000000E+00 -0.50000000000E+03  0.50000000000E+03  0.00000000000E+00 0. -1.
        -11    1    1    2    0    0  0.22735684604E+01  0.15176118619E+02  0.49752209093E+03  0.49775869118E+03  0.00000000000E+00 0.  1.
         11    1    1    2    0    0 -0.66299269459E+01 -0.60129242262E+01 -0.46017538592E+03  0.46026242188E+03  0.00000000000E+00 0. -1.
        -15    1    1    2    0    0  0.53886654326E+01 -0.17263439058E+01 -0.32112068118E+02  0.32655177633E+02  0.17770000000E+01 0.  1.
         15    1    1    2    0    0 -0.10323069472E+01 -0.74368504870E+01 -0.52346368853E+01  0.93237093005E+01  0.17770000000E+01 0. -1.
</event>
<event>
 6   1  0.3798113E-04  0.5009182E+03  0.7546771E-02  0.9397757E-01
        -11   -1    0    0    0    0  0.00000000000E+00  0.00000000000E+00  0.50000000000E+03  0.50000000000E+03  0.00000000000E+00 0.  1.
         11   -1    0    0    0    0 -0.00000000000E+00 -0.00000000000E+00 -0.50000000000E+03  0.50000000000E+03  0.00000000000E+00 0. -1.
        -11    1    1    2    0    0  0.82380005874E+01  0.26345006362E+01  0.19662227952E+03  0.19681241335E+03  0.00000000000E+00 0.  1.
         11    1    1    2    0    0  0.86371521416E+01 -0.12062423789E+02 -0.49886120477E+03  0.49908176093E+03  0.00000000000E+00 0. -1.
        -15    1    1    2    0    0 -0.16201069647E+01  0.82728646954E+01  0.23365775737E+03  0.23381653138E+03  0.17770000000E+01 0.  1.
         15    1    1    2    0    0 -0.15255045764E+02  0.11550584575E+01  0.68581167889E+02  0.70289294344E+02  0.17770000000E+01 0. -1.
</event>
<event>
 6   1  0.3798113E-04  0.5032316E+03  0.7546771E-02  0.9392608E-01
        -11   -1    0    0    0    0  0.00000000000E+00  0.00000000000E+00  0.50000000000E+03  0.50000000000E+03  0.00000000000E+00 0. -1.
         11   -1    0    0    0    0 -0.00000000000E+00 -0.00000000000E+00 -0.50000000000E+03  0.50000000000E+03  0.00000000000E+00 0. -1.
        -11    1    1    2    0    0 -0.11245174312E+01 -0.16888216674E+02  0.46844241265E+03  0.46874808839E+03  0.00000000000E+00 0. -1.
         11    1    1    2    0    0  0.83739623871E+01 -0.39898220984E+00 -0.49669760613E+03  0.49676835081E+03  0.00000000000E+00 0. -1.
        -15    1    1    2    0    0 -0.21728532795E+01  0.26411515792E+01  0.83135318973E+01  0.91634881266E+01  0.17770000000E+01 0. -1.
         15    1    1    2    0    0 -0.50765916764E+01  0.14646047304E+02  0.19941661583E+02  0.25320072677E+02  0.17770000000E+01 0.  1.
</event>
<event>
 6   1  0.3798113E-04  0.5001800E+03  0.7546771E-02  0.9399407E-01
        -11   -1    0    0    0    0  0.00000000000E+00  0.00000000000E+00  0.50000000000E+03  0.50000000000E+03  0.00000000000E+00 0.  1.
         11   -1    0    0    0    0 -0.00000000000E+00 -0.00000000000E+00 -0.50000000000E+03  0.50000000000E+03  0.00000000000E+00 0.  1.
        -11    1    1    2    0    0 -0.13659831906E+01  0.29754229750E+02  0.42512698203E+03  0.42616913420E+03  0.00000000000E+00 0.  1.
         11    1    1    2    0    0  0.31216471718E+01 -0.29956037344E+02 -0.49891169828E+03  0.49981995912E+03  0.00000000000E+00 0.  1.
        -15    1    1    2    0    0 -0.32787772505E+00 -0.19385756955E+01  0.32349590362E+02  0.32457962122E+02  0.17770000000E+01 0.  1.
         15    1    1    2    0    0 -0.14277862562E+01  0.21403832891E+01  0.41435125892E+02  0.41552944552E+02  0.17770000000E+01 0. -1.
</event>
<event>
 6   1  0.3798113E-04  0.5016242E+03  0.7546771E-02  0.9396183E-01
        -11   -1    0    0    0    0  0.00000000000E+00  0.00000000000E+00  0.50000000000E+03  0.50000000000E+03  0.00000000000E+00 0. -1.
         11   -1    0    0    0    0 -0.00000000000E+00 -0.00000000000E+00 -0.50000000000E+03  0.50000000000E+03  0.00000000000E+00 0.  1.
        -11    1    1    2    0    0  0.76235668077E+01 -0.18387413737E+01  0.45923761623E+03  0.45930456987E+03  0.00000000000E+00 0. -1.
         11    1    1    2    0    0 -0.36996242834E+01 -0.82720056928E+01 -0.49829344406E+03  0.49837583177E+03  0.00000000000E+00 0.  1.
        -15    1    1    2    0    0  0.16087897183E+01  0.69675263752E+01  0.94369119418E+01  0.11972788487E+02  0.17770000000E+01 0.  1.
         15    1    1    2    0    0 -0.55327322427E+01  0.31432206913E+01  0.29618915885E+02  0.30346809875E+02  0.17770000000E+01 0. -1.
</event>
<event>
 6   1  0.3798113E-04  0.5149339E+03  0.7546771E-02  0.9367000E-01
        -11   -1    0    0    0    0  0.00000000000E+00  0.00000000000E+00  0.50000000000E+03  0.50000000000E+03  0.00000000000E+00 0.  1.
         11   -1    0    0    0    0 -0.00000000000E+00 -0.00000000000E+00 -0.50000000000E+03  0.50000000000E+03  0.00000000000E+00 0. -1.
        -11    1    1    2    0    0 -0.47027158071E+02 -0.75727170341E+02  0.47680493783E+03  0.48506608485E+03  0.00000000000E+00 0.  1.
         11    1    1    2    0    0 -0.38419274037E+01 -0.12055961331E+02 -0.31738107594E+03  0.31763320666E+03  0.00000000000E+00 0. -1.
        -15    1    1    2    0    0  0.57502776780E+02  0.75016362311E+02 -0.10640108659E+03  0.14233191107E+03  0.17770000000E+01 0. -1.
         15    1    1    2    0    0 -0.66336913060E+01  0.12766769361E+02 -0.53022775300E+02  0.54968797420E+02  0.17770000000E+01 0.  1.
</event>
<event>
 6   1  0.3798113E-04  0.5009106E+03  0.7546771E-02  0.9397775E-01
        -11   -1    0    0    0    0  0.00000000000E+00  0.00000000000E+00  0.50000000000E+03  0.50000000000E+03  0.00000000000E+00 0. -1.
         11   -1    0    0    0    0 -0.00000000000E+00 -0.00000000000E+00 -0.50000000000E+03  0.50000000000E+03  0.00000000000E+00 0. -1.
        -11    1    1    2    0    0 -0.60588413560E+01  0.83366590280E+01  0.49898303221E+03  0.49908944676E+03  0.00000000000E+00 0. -1.
         11    1    1    2    0    0  0.68290981962E+01 -0.20516144130E+01 -0.47921731327E+03  0.47927036111E+03  0.00000000000E+00 0. -1.
        -15    1    1    2    0    0 -0.23974209744E+01 -0.31072522618E+01 -0.13859714879E+02  0.14513857843E+02  0.17770000000E+01 0.  1.
         15    1    1    2    0    0  0.16271641342E+01 -0.31777923532E+01 -0.59060040546E+01  0.71263342787E+01  0.17770000000E+01 0. -1.
</event>
<event>
 6   1  0.3798113E-04  0.5049961E+03  0.7546771E-02  0.9388699E-01
        -11   -1    0    0    0    0  0.00000000000E+00  0.00000000000E+00  0.50000000000E+03  0.50000000000E+03  0.00000000000E+00 0.  1.
         11   -1    0    0    0    0 -0.00000000000E+00 -0.00000000000E+00 -0.50000000000E+03  0.50000000000E+03  0.00000000000E+00 0. -1.
        -11    1    1    2    0    0  0.16442771289E+02  0.16544032497E+02  0.49445402779E+03  0.49500389427E+03  0.00000000000E+00 0.  1.
         11    1    1    2    0    0  0.56918709772E+01 -0.65898222584E+01 -0.45796103989E+03  0.45804381582E+03  0.00000000000E+00 0. -1.
        -15    1    1    2    0    0 -0.20741088765E+01  0.35457400871E+01 -0.10462267287E+02  0.11379409746E+02  0.17770000000E+01 0.  1.
         15    1    1    2    0    0 -0.20060533390E+02 -0.13499950326E+02 -0.26030720615E+02  0.35572880168E+02  0.17770000000E+01 0. -1.
</event>
<event>
 6   1  0.3798113E-04  0.5081516E+03  0.7546771E-02  0.9381752E-01
        -11   -1    0    0    0    0  0.00000000000E+00  0.00000000000E+00  0.50000000000E+03  0.50000000000E+03  0.00000000000E+00 0.  1.
         11   -1    0    0    0    0 -0.00000000000E+00 -0.00000000000E+00 -0.50000000000E+03  0.50000000000E+03  0.00000000000E+00 0.  1.
        -11    1    1    2    0    0  0.94655590730E+01 -0.26768474231E+02  0.44518586595E+03  0.44609035325E+03  0.00000000000E+00 0.  1.
         11    1    1    2    0    0  0.10704021260E+02 -0.77884163894E+01 -0.49167017915E+03  0.49184835119E+03  0.00000000000E+00 0.  1.
        -15    1    1    2    0    0 -0.14858219139E+02  0.27521203517E+02  0.40735895887E+02  0.51388269690E+02  0.17770000000E+01 0. -1.
         15    1    1    2    0    0 -0.53113611945E+01  0.70356871032E+01  0.57484173125E+01  0.10673025876E+02  0.17770000000E+01 0.  1.
</event>
<event>
 6   1  0.3798113E-04  0.5130415E+03  0.7546771E-02  0.9371092E-01
        -11   -1    0    0    0    0  0.00000000000E+00  0.00000000000E+00  0.50000000000E+03  0.50000000000E+03  0.00000000000E+00 0.  1.
         11   -1    0    0    0    0 -0.00000000000E+00 -0.00000000000E+00 -0.50000000000E+03  0.50000000000E+03  0.00000000000E+00 0. -1.
        -11    1    1    2    0    0 -0.35588341379E+02  0.14324264857E+01  0.44912953986E+03  0.45053959366E+03  0.00000000000E+00 0.  1.
         11    1    1    2    0    0 -0.70508814618E+01 -0.16622958134E+02 -0.48662365435E+03  0.48695853894E+03  0.00000000000E+00 0. -1.
        -15    1    1    2    0    0  0.35550065044E+02  0.80692139085E+01  0.37456035131E+02  0.52297529908E+02  0.17770000000E+01 0. -1.
         15    1    1    2    0    0  0.70891577977E+01  0.71213177399E+01  0.38079365830E-01  0.10204337493E+02  0.17770000000E+01 0.  1.
</event>
<event>
 6   1  0.3798113E-04  0.5026057E+03  0.7546771E-02  0.9393998E-01
        -11   -1    0    0    0    0  0.00000000000E+00  0.00000000000E+00  0.50000000000E+03  0.50000000000E+03  0.00000000000E+00 0. -1.
         11   -1    0    0    0    0 -0.00000000000E+00 -0.00000000000E+00 -0.50000000000E+03  0.50000000000E+03  0.00000000000E+00 0.  1.
        -11    1    1    2    0    0  0.92439270881E+01 -0.44027477376E+02  0.15070762802E+03  0.15727891815E+03  0.00000000000E+00 0. -1.
         11    1    1    2    0    0 -0.96323543638E+01  0.44461807664E+02 -0.49530945826E+03  0.49739430438E+03  0.00000000000E+00 0.  1.
        -15    1    1    2    0    0 -0.78365424085E+01 -0.70940607551E+01  0.22107037845E+03  0.22133008619E+03  0.17770000000E+01 0. -1.
         15    1    1    2    0    0  0.82249696841E+01  0.66597304675E+01  0.12353145179E+03  0.12399669127E+03  0.17770000000E+01 0.  1.
</event>
<event>
 6   1  0.3798113E-04  0.4765217E+03  0.7546771E-02  0.9453933E-01
        -11   -1    0    0    0    0  0.00000000000E+00  0.00000000000E+00  0.50000000000E+03  0.50000000000E+03  0.00000000000E+00 0. -1.
         11   -1    0    0    0    0 -0.00000000000E+00 -0.00000000000E+00 -0.50000000000E+03  0.50000000000E+03  0.00000000000E+00 0.  1.
        -11    1    1    2    0    0 -0.15156021559E+02 -0.28463612239E+02  0.48178400554E+03  0.48286199914E+03  0.00000000000E+00 0. -1.
         11    1    1    2    0    0 -0.77399549624E+01  0.34518705999E+01 -0.47077173136E+03  0.47084800664E+03  0.00000000000E+00 0.  1.
        -15    1    1    2    0    0 -0.40694946317E+00  0.13642449288E+02 -0.14587633932E+02  0.20055892480E+02  0.17770000000E+01 0. -1.
         15    1    1    2    0    0  0.23302925984E+02  0.11369292352E+02  0.35753597428E+01  0.26234101744E+02  0.17770000000E+01 0.  1.
</event>
<event>
 6   1  0.3798113E-04  0.4465915E+03  0.7546771E-02  0.9527946E-01
        -11   -1    0    0    0    0  0.00000000000E+00  0.00000000000E+00  0.50000000000E+03  0.50000000000E+03  0.00000000000E+00 0. -1.
         11   -1    0    0    0    0 -0.00000000000E+00 -0.00000000000E+00 -0.50000000000E+03  0.50000000000E+03  0.00000000000E+00 0. -1.
        -11    1    1    2    0    0 -0.33954591228E+02 -0.73669358574E+02  0.44950913683E+03  0.45676969333E+03  0.00000000000E+00 0. -1.
         11    1    1    2    0    0  0.76184931010E+00  0.59426445101E+01 -0.43960611464E+03  0.43964693956E+03  0.00000000000E+00 0. -1.
        -15    1    1    2    0    0  0.21349088348E+02  0.51563307781E+02  0.26642368633E+02  0.61867049534E+02  0.17770000000E+01 0. -1.
         15    1    1    2    0    0  0.11843653570E+02  0.16163406283E+02 -0.36545390822E+02  0.41716317574E+02  0.17770000000E+01 0.  1.
</event>
<event>
 6   1  0.3798113E-04  0.5049133E+03  0.7546771E-02  0.9388882E-01
        -11   -1    0    0    0    0  0.00000000000E+00  0.00000000000E+00  0.50000000000E+03  0.50000000000E+03  0.00000000000E+00 0.  1.
         11   -1    0    0    0    0 -0.00000000000E+00 -0.00000000000E+00 -0.50000000000E+03  0.50000000000E+03  0.00000000000E+00 0.  1.
        -11    1    1    2    0    0 -0.19441604052E+02  0.88605158421E+01  0.49462547408E+03  0.49508670384E+03  0.00000000000E+00 0.  1.
         11    1    1    2    0    0 -0.57782215014E+00  0.17809648461E+02 -0.38733389395E+03  0.38774355296E+03  0.00000000000E+00 0.  1.
        -15    1    1    2    0    0  0.19126221036E+02 -0.14181169281E+02 -0.27657812605E+02  0.36538065362E+02  0.17770000000E+01 0. -1.
         15    1    1    2    0    0  0.89320516611E+00 -0.12488995022E+02 -0.79633767524E+02  0.80631677839E+02  0.17770000000E+01 0.  1.
</event>
<event>
 6   1  0.3798113E-04  0.5027539E+03  0.7546771E-02  0.9393669E-01
        -11   -1    0    0    0    0  0.00000000000E+00  0.00000000000E+00  0.50000000000E+03  0.50000000000E+03  0.00000000000E+00 0. -1.
         11   -1    0    0    0    0 -0.00000000000E+00 -0.00000000000E+00 -0.50000000000E+03  0.50000000000E+03  0.00000000000E+00 0. -1.
        -11    1    1    2    0    0 -0.21517363932E+01 -0.78537456466E+01  0.49717936993E+03  0.49724605295E+03  0.00000000000E+00 0. -1.
         11    1    1    2    0    0  0.68721736445E+01 -0.20154320941E+01 -0.48710518076E+03  0.48715782439E+03  0.00000000000E+00 0. -1.
        -15    1    1    2    0    0 -0.98783695464E+00  0.56177516729E+01 -0.51819083031E+01  0.79085307339E+01  0.17770000000E+01 0.  1.
         15    1    1    2    0    0 -0.37326002966E+01  0.42514260677E+01 -0.48922808646E+01  0.76875919274E+01  0.17770000000E+01 0. -1.
</event>
<event>
 6   1  0.3798113E-04  0.5006664E+03  0.7546771E-02  0.9398320E-01
        -11   -1    0    0    0    0  0.00000000000E+00  0.00000000000E+00  0.50000000000E+03  0.50000000000E+03  0.00000000000E+00 0. -1.
         11   -1    0    0    0    0 -0.00000000000E+00 -0.00000000000E+00 -0.50000000000E+03  0.50000000000E+03  0.00000000000E+00 0. -1.
        -11    1    1    2    0    0  0.83073516737E+01 -0.34299456718E+01  0.49925273980E+03  0.49933363077E+03  0.00000000000E+00 0. -1.
         11    1    1    2    0    0 -0.70280912033E+01  0.96489323657E+00 -0.43506618573E+03  0.43512401801E+03  0.00000000000E+00 0. -1.
        -15    1    1    2    0    0 -0.34855605274E+01 -0.43621204780E+01 -0.29714543578E+02  0.30286780224E+02  0.17770000000E+01 0.  1.
         15    1    1    2    0    0  0.22063000569E+01  0.68271729133E+01 -0.34472010490E+02  0.35255570995E+02  0.17770000000E+01 0. -1.
</event>
<event>
 6   1  0.3798113E-04  0.4584853E+03  0.7546771E-02  0.9497816E-01
        -11   -1    0    0    0    0  0.00000000000E+00  0.00000000000E+00  0.50000000000E+03  0.50000000000E+03  0.00000000000E+00 0.  1.
         11   -1    0    0    0    0 -0.00000000000E+00 -0.00000000000E+00 -0.50000000000E+03  0.50000000000E+03  0.00000000000E+00 0. -1.
        -11    1    1    2    0    0  0.39998660022E+02 -0.43081889337E+02  0.47294266739E+03  0.47658232094E+03  0.00000000000E+00 0.  1.
         11    1    1    2    0    0  0.89874312126E+01  0.35883619417E+01 -0.44292885380E+03  0.44303455824E+03  0.00000000000E+00 0. -1.
        -15    1    1    2    0    0 -0.37435056376E+02  0.42584572181E+02 -0.35697765751E+02  0.67024752459E+02  0.17770000000E+01 0. -1.
         15    1    1    2    0    0 -0.11551034858E+02 -0.30910447851E+01  0.56839521625E+01  0.13358368364E+02  0.17770000000E+01 0.  1.
</event>
<event>
 6   1  0.3798113E-04  0.5001507E+03  0.7546771E-02  0.9399473E-01
        -11   -1    0    0    0    0  0.00000000000E+00  0.00000000000E+00  0.50000000000E+03  0.50000000000E+03  0.00000000000E+00 0. -1.
         11   -1    0    0    0    0 -0.00000000000E+00 -0.00000000000E+00 -0.50000000000E+03  0.50000000000E+03  0.00000000000E+00 0. -1.
        -11    1    1    2    0    0 -0.36884739004E+01 -0.45930051310E+01  0.38018042873E+03  0.38022606293E+03  0.00000000000E+00 0. -1.
         11    1    1    2    0    0  0.94319318292E+01 -0.14961636914E+00 -0.49976029717E+03  0.49984931565E+03  0.00000000000E+00 0. -1.
        -15    1    1    2    0    0 -0.31010468731E+01  0.94779283682E+00  0.70080420323E+02  0.70177901397E+02  0.17770000000E+01 0. -1.
         15    1    1    2    0    0 -0.26424110557E+01  0.37948286634E+01  0.49499448116E+02  0.49746720029E+02  0.17770000000E+01 0.  1.
</event>
<event>
 6   1  0.3798113E-04  0.5304924E+03  0.7546771E-02  0.9334052E-01
        -11   -1    0    0    0    0  0.00000000000E+00  0.00000000000E+00  0.50000000000E+03  0.50000000000E+03  0.00000000000E+00 0. -1.
         11   -1    0    0    0    0 -0.00000000000E+00 -0.00000000000E+00 -0.50000000000E+03  0.50000000000E+03  0.00000000000E+00 0. -1.
        -11    1    1    2    0    0  0.71251468018E+02 -0.11042498107E+02  0.94142685085E+02  0.11858142188E+03  0.00000000000E+00 0. -1.
         11    1    1    2    0    0  0.54160801800E+01  0.99304455128E+01 -0.46937128283E+03  0.46950755991E+03  0.00000000000E+00 0. -1.
        -15    1    1    2    0    0 -0.14949394586E+02 -0.15129798433E+02  0.33662968215E+03  0.33730564157E+03  0.17770000000E+01 0. -1.
         15    1    1    2    0    0 -0.61718153612E+02  0.16241851028E+02  0.38598915594E+02  0.74605376643E+02  0.17770000000E+01 0.  1.
</event>
<event>
 6   1  0.3798113E-04  0.5009089E+03  0.7546771E-02  0.9397778E-01
        -11   -1    0    0    0    0  0.00000000000E+00  0.00000000000E+00  0.50000000000E+03  0.50000000000E+03  0.00000000000E+00 0.  1.
         11   -1    0    0    0    0 -0.00000000000E+00 -0.00000000000E+00 -0.50000000000E+03  0.50000000000E+03  0.00000000000E+00 0.  1.
        -11    1    1    2    0    0  0.99628538755E+01  0.65957876496E+01  0.49894806412E+03  0.49909110748E+03  0.00000000000E+00 0.  1.
         11    1    1    2    0    0  0.42261129367E+01 -0.10671481306E+02 -0.41579342264E+03  0.41595181314E+03  0.00000000000E+00 0.  1.
        -15    1    1    2    0    0 -0.89915317190E+01  0.58156486378E+01 -0.41087170439E+02  0.42496855360E+02  0.17770000000E+01 0. -1.
         15    1    1    2    0    0 -0.51974350932E+01 -0.17399549810E+01 -0.42067471046E+02  0.42460224023E+02  0.17770000000E+01 0.  1.
</event>
<event>
 6   1  0.3798113E-04  0.4735402E+03  0.7546771E-02  0.9461043E-01
        -11   -1    0    0    0    0  0.00000000000E+00  0.00000000000E+00  0.50000000000E+03  0.50000000000E+03  0.00000000000E+00 0.  1.
         11   -1    0    0    0    0 -0.00000000000E+00 -0.00000000000E+00 -0.50000000000E+03  0.50000000000E+03  0.00000000000E+00 0. -1.
        -11    1    1    2    0    0  0.17082086705E+02  0.51762962217E+02  0.47872782503E+03  0.48182105848E+03  0.00000000000E+00 0.  1.
         11    1    1    2    0    0 -0.32263352751E+02 -0.70752217507E+01 -0.46535812087E+03  0.46652884514E+03  0.00000000000E+00 0. -1.
        -15    1    1    2    0    0 -0.81040338059E-01 -0.20620037184E+02 -0.15775762174E+01  0.20756661021E+02  0.17770000000E+01 0.  1.
         15    1    1    2    0    0  0.15262306384E+02 -0.24067703282E+02 -0.11792127942E+02  0.30893435352E+02  0.17770000000E+01 0. -1.
</event>
<event>
 6   1  0.3798113E-04  0.5019683E+03  0.7546771E-02  0.9395416E-01
        -11   -1    0    0    0    0  0.00000000000E+00  0.00000000000E+00  0.50000000000E+03  0.50000000000E+03  0.00000000000E+00 0.  1.
         11   -1    0    0    0    0 -0.00000000000E+00 -0.00000000000E+00 -0.50000000000E+03  0.50000000000E+03  0.00000000000E+00 0. -1.
        -11    1    1    2    0    0  0.30017423035E+01  0.11127225609E+02  0.49789833266E+03  0.49803170107E+03  0.00000000000E+00 0.  1.
         11    1    1    2    0    0 -0.47603582438E+01 -0.84145113714E+01 -0.43879424264E+03  0.43890073182E+03  0.00000000000E+00 0. -1.
        -15    1    1    2    0    0  0.13228951270E+01 -0.88760337052E+01 -0.10035201460E+02  0.13579286550E+02  0.17770000000E+01 0.  1.
         15    1    1    2    0    0  0.43572081331E+00  0.61633194680E+01 -0.49068888557E+02  0.49488280560E+02  0.17770000000E+01 0. -1.
</event>
<event>
 6   1  0.3798113E-04  0.5021361E+03  0.7546771E-02  0.9395043E-01
        -11   -1    0    0    0    0  0.00000000000E+00  0.00000000000E+00  0.50000000000E+03  0.50000000000E+03  0.00000000000E+00 0. -1.
         11   -1    0    0    0    0 -0.00000000000E+00 -0.00000000000E+00 -0.50000000000E+03  0.50000000000E+03  0.00000000000E+00 0. -1.
        -11    1    1    2    0    0 -0.16957339169E+02 -0.45689173794E+01  0.46457419092E+03  0.46490601763E+03  0.00000000000E+00 0. -1.
         11    1    1    2    0    0  0.23231909688E+01  0.72675867448E+01 -0.49780545648E+03  0.49786392472E+03  0.00000000000E+00 0. -1.
        -15    1    1    2    0    0  0.86236492608E+01 -0.38865867303E+01  0.14168787548E+02  0.17128489500E+02  0.17770000000E+01 0. -1.
         15    1    1    2    0    0  0.60104989389E+01  0.11879173649E+01  0.19062478010E+02  0.20101568149E+02  0.17770000000E+01 0.  1.
</event>
<event>
 6   1  0.3798113E-04  0.5000773E+03  0.7546771E-02  0.9399637E-01
        -11   -1    0    0    0    0  0.00000000000E+00  0.00000000000E+00  0.50000000000E+03  0.50000000000E+03  0.00000000000E+00 0. -1.
         11   -1    0    0    0    0 -0.00000000000E+00 -0.00000000000E+00 -0.50000000000E+03  0.50000000000E+03  0.00000000000E+00 0.  1.
        -11    1    1    2    0    0 -0.65931019051E+01 -0.70724827179E+01  0.49982922776E+03  0.49992273996E+03  0.00000000000E+00 0. -1.
         11    1    1    2    0    0 -0.95441317147E+00  0.37673141286E+00 -0.74473419571E+02  0.74480487737E+02  0.00000000000E+00 0.  1.
        -15    1    1    2    0    0  0.78770856550E+01  0.28402448367E+01 -0.36034965081E+03  0.36045130605E+03  0.17770000000E+01 0.  1.
         15    1    1    2    0    0 -0.32957057845E+00  0.38555064683E+01 -0.65006157379E+02  0.65145466251E+02  0.17770000000E+01 0. -1.
</event>
<event>
 6   1  0.3798113E-04  0.5103377E+03  0.7546771E-02  0.9376971E-01
        -11   -1    0    0    0    0  0.00000000000E+00  0.00000000000E+00  0.50000000000E+03  0.50000000000E+03  0.00000000000E+00 0. -1.
         11   -1    0    0    0    0 -0.00000000000E+00 -0.00000000000E+00 -0.50000000000E+03  0.50000000000E+03  0.00000000000E+00 0. -1.
        -11    1    1    2    0    0  0.16779383810E+02 -0.48834718312E+01  0.48935035888E+03  0.48966230175E+03  0.00000000000E+00 0. -1.
         11    1    1    2    0    0 -0.21913494993E+02  0.34841783233E+01 -0.40314212894E+03  0.40375229645E+03  0.00000000000E+00 0. -1.
        -15    1    1    2    0    0  0.22160020434E+02 -0.11824023078E+01 -0.40561687325E+01  0.22629070123E+02  0.17770000000E+01 0. -1.
         15    1    1    2    0    0 -0.17025909251E+02  0.25816958157E+01 -0.82152061209E+02  0.83956331679E+02  0.17770000000E+01 0.  1.
</event>
<event>
 6   1  0.3798113E-04  0.4351997E+03  0.7546771E-02  0.9557758E-01
        -11   -1    0    0    0    0  0.00000000000E+00  0.00000000000E+00  0.50000000000E+03  0.50000000000E+03  0.00000000000E+00 0.  1.
         11   -1    0    0    0    0 -0.00000000000E+00 -0.00000000000E+00 -0.50000000000E+03  0.50000000000E+03  0.00000000000E+00 0. -1.
        -11    1    1    2    0    0 -0.68475698845E+02 -0.78918988366E+02  0.40861939072E+03  0.42176644547E+03  0.00000000000E+00 0.  1.
         11    1    1    2    0    0  0.18563265124E+02  0.36760451302E+01 -0.45409011715E+03  0.45448426003E+03  0.00000000000E+00 0. -1.
        -15    1    1    2    0    0  0.40280627427E+02  0.88550904745E+02  0.31983902652E+02  0.10242030773E+03  0.17770000000E+01 0.  1.
         15    1    1    2    0    0  0.96318062942E+01 -0.13307961509E+02  0.13486823780E+02  0.21328986771E+02  0.17770000000E+01 0. -1.
</event>
<event>
 6   1  0.3798113E-04  0.5002702E+03  0.7546771E-02  0.9399205E-01
        -11   -1    0    0    0    0  0.00000000000E+00  0.00000000000E+00  0.50000000000E+03  0.50000000000E+03  0.00000000000E+00 0.  1.
         11   -1    0    0    0    0 -0.00000000000E+00 -0.00000000000E+00 -0.50000000000E+03  0.50000000000E+03  0.00000000000E+00 0. -1.
        -11    1    1    2    0    0 -0.87640840574E+01  0.69023934176E+01  0.10899684573E+03  0.10956625659E+03  0.00000000000E+00 0.  1.
         11    1    1    2    0    0  0.40129632382E+01 -0.11075584324E+02 -0.49959094315E+03  0.49972980991E+03  0.00000000000E+00 0. -1.
        -15    1    1    2    0    0  0.38376253069E+01 -0.26098735705E+00  0.21871883733E+03  0.21875987524E+03  0.17770000000E+01 0.  1.
         15    1    1    2    0    0  0.91349551228E+00  0.44341782634E+01  0.17187526009E+03  0.17194405826E+03  0.17770000000E+01 0.  1.
</event>
<event>
 6   1  0.3798113E-04  0.5020890E+03  0.7546771E-02  0.9395147E-01
        -11   -1    0    0    0    0  0.00000000000E+00  0.00000000000E+00  0.50000000000E+03  0.50000000000E+03  0.00000000000E+00 0. -1.
         11   -1    0    0    0    0 -0.00000000000E+00 -0.00000000000E+00 -0.50000000000E+03  0.50000000000E+03  0.00000000000E+00 0. -1.
        -11    1    1    2    0    0 -0.19571937806E+02  0.10946084595E+01  0.80032012425E+02  0.82397705854E+02  0.00000000000E+00 0. -1.
         11    1    1    2    0    0 -0.65826288150E+01 -0.51613713287E+01 -0.49784071655E+03  0.49791098583E+03  0.00000000000E+00 0. -1.
        -15    1    1    2    0    0 -0.38294063247E+01  0.56712523061E+01  0.15603971283E+03  0.15619979886E+03  0.17770000000E+01 0.  1.
         15    1    1    2    0    0  0.29983972946E+02 -0.16044894368E+01  0.26176899129E+03  0.26349150945E+03  0.17770000000E+01 0. -1.
</event>
<event>
 6   1  0.3798113E-04  0.4686576E+03  0.7546771E-02  0.9472808E-01
        -11   -1    0    0    0    0  0.00000000000E+00  0.00000000000E+00  0.50000000000E+03  0.50000000000E+03  0.00000000000E+00 0.  1.
         11   -1    0    0    0    0 -0.00000000000E+00 -0.00000000000E+00 -0.50000000000E+03  0.50000000000E+03  0.00000000000E+00 0. -1.
        -11    1    1    2    0    0  0.33308604261E+02 -0.27839000375E+02  0.45644032902E+03  0.45849999675E+03  0.00000000000E+00 0.  1.
         11    1    1    2    0    0  0.48864060300E+01 -0.85423025076E+01 -0.48050591215E+03  0.48060667859E+03  0.00000000000E+00 0. -1.
        -15    1    1    2    0    0 -0.21690417711E+01  0.22650189744E+01  0.78935060498E+01  0.86775699315E+01  0.17770000000E+01 0.  1.
         15    1    1    2    0    0 -0.36025968520E+02  0.34116283908E+02  0.16172077079E+02  0.52215754725E+02  0.17770000000E+01 0. -1.
</event>
<event>
 6   1  0.3798113E-04  0.4638020E+03  0.7546771E-02  0.9484660E-01
        -11   -1    0    0    0    0  0.00000000000E+00  0.00000000000E+00  0.50000000000E+03  0.50000000000E+03  0.00000000000E+00 0.  1.
         11   -1    0    0    0    0 -0.00000000000E+00 -0.00000000000E+00 -0.50000000000E+03  0.50000000000E+03  0.00000000000E+00 0. -1.
        -11    1    1    2    0    0  0.45721608090E+02  0.45625985102E+02  0.26826734182E+02  0.69941901817E+02  0.00000000000E+00 0.  1.
         11    1    1    2    0    0 -0.11604858860E+02 -0.93972051359E+00 -0.47652910636E+03  0.47667131761E+03  0.00000000000E+00 0. -1.
        -15    1    1    2    0    0 -0.26109033254E+02 -0.40902654239E+02  0.36934169088E+03  0.37252000093E+03  0.17770000000E+01 0.  1.
         15    1    1    2    0    0 -0.80077159756E+01 -0.37836103496E+01  0.80360681300E+02  0.80866779647E+02  0.17770000000E+01 0. -1.
</event>
<event>
 6   1  0.3798113E-04  0.5001833E+03  0.7546771E-02  0.9399400E-01
        -11   -1    0    0    0    0  0.00000000000E+00  0.00000000000E+00  0.50000000000E+03  0.50000000000E+03  0.00000000000E+00 0. -1.
         11   -1    0    0    0    0 -0.00000000000E+00 -0.00000000000E+00 -0.50000000000E+03  0.50000000000E+03  0.00000000000E+00 0. -1.
        -11    1    1    2    0    0  0.23181214000E+01  0.20554430845E+02  0.49938850457E+03  0.49981670322E+03  0.00000000000E+00 0. -1.
         11    1    1    2    0    0  0.27257287412E+01 -0.29888484453E+01 -0.23840610051E+03  0.23844041514E+03  0.00000000000E+00 0. -1.
        -15    1    1    2    0    0 -0.65477922485E+01 -0.11224307966E+02 -0.16179420470E+03  0.16232492439E+03  0.17770000000E+01 0. -1.
         15    1    1    2    0    0  0.15039421072E+01 -0.63412744340E+01 -0.99188199357E+02  0.99417957251E+02  0.17770000000E+01 0.  1.
</event>
<event>
 6   1  0.3798113E-04  0.5047494E+03  0.7546771E-02  0.9389245E-01
        -11   -1    0    0    0    0  0.00000000000E+00  0.00000000000E+00  0.50000000000E+03  0.50000000000E+03  0.00000000000E+00 0.  1.
         11   -1    0    0    0    0 -0.00000000000E+00 -0.00000000000E+00 -0.50000000000E+03  0.50000000000E+03  0.00000000000E+00 0.  1.
        -11    1    1    2    0    0 -0.27355589286E+02 -0.14497151263E+02  0.45871401432E+02  0.55341495545E+02  0.00000000000E+00 0.  1.
         11    1    1    2    0    0  0.19695151637E+02  0.62120604289E+01 -0.49481981399E+03  0.49525058002E+03  0.00000000000E+00 0.  1.
        -15    1    1    2    0    0  0.80104928010E+01  0.12835637620E+02  0.36372747924E+03  0.36404636857E+03  0.17770000000E+01 0.  1.
         15    1    1    2    0    0 -0.35005515275E+00 -0.45505467855E+01  0.85220933319E+02  0.85361555864E+02  0.17770000000E+01 0.  1.
</event>
<event>
 6   1  0.3798113E-04  0.4919469E+03  0.7546771E-02  0.9418012E-01
        -11   -1    0    0    0    0  0.00000000000E+00  0.00000000000E+00  0.50000000000E+03  0.50000000000E+03  0.00000000000E+00 0. -1.
         11   -1    0    0    0    0 -0.00000000000E+00 -0.00000000000E+00 -0.50000000000E+03  0.50000000000E+03  0.00000000000E+00 0. -1.
        -11    1    1    2    0    0  0.79032588661E+01  0.66397964877E+00  0.49175620403E+03  0.49182015674E+03  0.00000000000E+00 0. -1.
         11    1    1    2    0    0  0.47099072540E+01 -0.69465989974E+01 -0.49210312871E+03  0.49217469231E+03  0.00000000000E+00 0. -1.
        -15    1    1    2    0    0 -0.23637257414E+01 -0.33823214822E+00 -0.18153405779E+01  0.34863721517E+01  0.17770000000E+01 0.  1.
         15    1    1    2    0    0 -0.10249440379E+02  0.66208514969E+01  0.21622652516E+01  0.12518778800E+02  0.17770000000E+01 0.  1.
</event>
<event>
 6   1  0.3798113E-04  0.5009418E+03  0.7546771E-02  0.9397705E-01
        -11   -1    0    0    0    0  0.00000000000E+00  0.00000000000E+00  0.50000000000E+03  0.50000000000E+03  0.00000000000E+00 0. -1.
         11   -1    0    0    0    0 -0.00000000000E+00 -0.00000000000E+00 -0.50000000000E+03  0.50000000000E+03  0.00000000000E+00 0. -1.
        -11    1    1    2    0    0  0.69953558725E+00  0.95826837157E+01  0.49896567286E+03  0.49905817284E+03  0.00000000000E+00 0. -1.
         11    1    1    2    0    0 -0.98083410852E+01 -0.57964628611E+01 -0.44387730226E+03  0.44402349262E+03  0.00000000000E+00 0. -1.
        -15    1    1    2    0    0  0.45724303404E+01 -0.67085639924E+01 -0.26564802716E+02  0.27834482614E+02  0.17770000000E+01 0. -1.
         15    1    1    2    0    0  0.45363751576E+01  0.29223431378E+01 -0.28523567887E+02  0.29083851928E+02  0.17770000000E+01 0.  1.
</event>
<event>
 6   1  0.3798113E-04  0.5055956E+03  0.7546771E-02  0.9387376E-01
        -11   -1    0    0    0    0  0.00000000000E+00  0.00000000000E+00  0.50000000000E+03  0.50000000000E+03  0.00000000000E+00 0.  1.
         11   -1    0    0    0    0 -0.00000000000E+00 -0.00000000000E+00 -0.50000000000E+03  0.50000000000E+03  0.00000000000E+00 0. -1.
        -11    1    1    2    0    0  0.99489676376E+01 -0.11244177380E+02  0.47541117470E+03  0.47564818776E+03  0.00000000000E+00 0.  1.
         11    1    1    2    0    0  0.35896998765E+01  0.24978229139E+02 -0.49375999765E+03  0.49440442267E+03  0.00000000000E+00 0. -1.
        -15    1    1    2    0    0 -0.12568013715E+02 -0.13754682072E+02  0.19957928859E+02  0.27360974051E+02  0.17770000000E+01 0. -1.
         15    1    1    2    0    0 -0.97065379875E+00  0.20630313039E-01 -0.16091059091E+01  0.25864155184E+01  0.17770000000E+01 0.  1.
</event>
<event>
 6   1  0.3798113E-04  0.5001312E+03  0.7546771E-02  0.9399516E-01
        -11   -1    0    0    0    0  0.00000000000E+00  0.00000000000E+00  0.50000000000E+03  0.50000000000E+03  0.00000000000E+00 0.  1.
         11   -1    0    0    0    0 -0.00000000000E+00 -0.00000000000E+00 -0.50000000000E+03  0.50000000000E+03  0.00000000000E+00 0.  1.
        -11    1    1    2    0    0  0.80387728530E+01 -0.93884325370E+01  0.49971597471E+03  0.49986880270E+03  0.00000000000E+00 0.  1.
         11    1    1    2    0    0  0.29403266760E+01  0.37376431559E+00 -0.13946706323E+03  0.13949855535E+03  0.00000000000E+00 0.  1.
        -15    1    1    2    0    0 -0.96967740548E+01  0.65878903329E+01 -0.32890395354E+03  0.32911760225E+03  0.17770000000E+01 0.  1.
         15    1    1    2    0    0 -0.12823254742E+01  0.24267778885E+01 -0.31344957944E+02  0.31515039696E+02  0.17770000000E+01 0. -1.
</event>
<event>
 6   1  0.3798113E-04  0.4920885E+03  0.7546771E-02  0.9417688E-01
        -11   -1    0    0    0    0  0.00000000000E+00  0.00000000000E+00  0.50000000000E+03  0.50000000000E+03  0.00000000000E+00 0. -1.
         11   -1    0    0    0    0 -0.00000000000E+00 -0.00000000000E+00 -0.50000000000E+03  0.50000000000E+03  0.00000000000E+00 0. -1.
        -11    1    1    2    0    0 -0.91433612373E+01  0.12737634933E+02 -0.14176645281E+01  0.15743512032E+02  0.00000000000E+00 0. -1.
         11    1    1    2    0    0 -0.43850752572E+01 -0.67590251760E+01 -0.49125221387E+03  0.49131827865E+03  0.00000000000E+00 0. -1.
        -15    1    1    2    0    0  0.85908905992E+01 -0.64708738231E+01  0.30674283029E+03  0.30693647107E+03  0.17770000000E+01 0.  1.
         15    1    1    2    0    0  0.49375458953E+01  0.49226406630E+00  0.18592704811E+03  0.18600173825E+03  0.17770000000E+01 0. -1.
</event>
<event>
 6   1  0.3798113E-04  0.5006580E+03  0.7546771E-02  0.9398339E-01
        -11   -1    0    0    0    0  0.00000000000E+00  0.00000000000E+00  0.50000000000E+03  0.50000000000E+03  0.00000000000E+00 0. -1.
         11   -1    0    0    0    0 -0.00000000000E+00 -0.00000000000E+00 -0.50000000000E+03  0.50000000000E+03  0.00000000000E+00 0.  1.
        -11    1    1    2    0    0 -0.62664839356E+01 -0.12793670429E+02  0.22163866664E+03  0.22209602737E+03  0.00000000000E+00 0. -1.
         11    1    1    2    0    0 -0.77783185633E+01  0.41713732667E+01 -0.49926400341E+03  0.49934201475E+03  0.00000000000E+00 0.  1.
        -15    1    1    2    0    0  0.26295109313E+01  0.10548094680E+02  0.12179237299E+03  0.12228947819E+03  0.17770000000E+01 0.  1.
         15    1    1    2    0    0  0.11415291568E+02 -0.19257975175E+01  0.15583296378E+03  0.15627247969E+03  0.17770000000E+01 0. -1.
</event>
<event>
 6   1  0.3798113E-04  0.5001935E+03  0.7546771E-02  0.9399377E-01
        -11   -1    0    0    0    0  0.00000000000E+00  0.00000000000E+00  0.50000000000E+03  0.50000000000E+03  0.00000000000E+00 0.  1.
         11   -1    0    0    0    0 -0.00000000000E+00 -0.00000000000E+00 -0.50000000000E+03  0.50000000000E+03  0.00000000000E+00 0. -1.
        -11    1    1    2    0    0 -0.70919576832E+01 -0.70032025730E+00  0.28097442396E+03  0.28106478476E+03  0.00000000000E+00 0.  1.
         11    1    1    2    0    0  0.10035647667E+00  0.11048825901E+02 -0.49968440044E+03  0.49980654924E+03  0.00000000000E+00 0. -1.
        -15    1    1    2    0    0  0.66482378419E+01 -0.76446800771E+01  0.16591578811E+03  0.16623431256E+03  0.17770000000E+01 0.  1.
         15    1    1    2    0    0  0.34336336469E+00 -0.27038255664E+01  0.52794188368E+02  0.52894353438E+02  0.17770000000E+01 0. -1.
</event>
<event>
 6   1  0.3798113E-04  0.4847583E+03  0.7546771E-02  0.9434575E-01
        -11   -1    0    0    0    0  0.00000000000E+00  0.00000000000E+00  0.50000000000E+03  0.50000000000E+03  0.00000000000E+00 0.  1.
         11   -1    0    0    0    0 -0.00000000000E+00 -0.00000000000E+00 -0.50000000000E+03  0.50000000000E+03  0.00000000000E+00 0.  1.
        -11    1    1    2    0    0 -0.10784377401E+01  0.18097999805E+02  0.48057429736E+03  0.48091616308E+03  0.00000000000E+00 0.  1.
         11    1    1    2    0    0  0.18270041981E+02  0.39217710980E+01 -0.48867964710E+03  0.48903678002E+03  0.00000000000E+00 0.  1.
        -15    1    1    2    0    0 -0.37281793828E+01 -0.45510330636E+01 -0.79657551459E+00  0.61970545428E+01  0.17770000000E+01 0.  1.
         15    1    1    2    0    0 -0.13463424858E+02 -0.17468737840E+02  0.89019252489E+01  0.23850002364E+02  0.17770000000E+01 0. -1.
</event>
<event>
 6   1  0.3798113E-04  0.5051658E+03  0.7546771E-02  0.9388324E-01
        -11   -1    0    0    0    0  0.00000000000E+00  0.00000000000E+00  0.50000000000E+03  0.50000000000E+03  0.00000000000E+00 0. -1.
         11   -1    0    0    0    0 -0.00000000000E+00 -0.00000000000E+00 -0.50000000000E+03  0.50000000000E+03  0.00000000000E+00 0.  1.
        -11    1    1    2    0    0 -0.60771668559E+01 -0.10474573180E+02  0.49468600700E+03  0.49483420876E+03  0.00000000000E+00 0. -1.
         11    1    1    2    0    0 -0.28683668042E+01 -0.59038148924E+01 -0.47973214653E+03  0.47977704715E+03  0.00000000000E+00 0.  1.
        -15    1    1    2    0    0 -0.69252172833E+00  0.28349066794E+01 -0.86084477951E+00  0.35235018036E+01  0.17770000000E+01 0.  1.
         15    1    1    2    0    0  0.96380553885E+01  0.13543481393E+02 -0.14093015685E+02  0.21865242281E+02  0.17770000000E+01 0. -1.
</event>
<event>
 6   1  0.3798113E-04  0.5005396E+03  0.7546771E-02  0.9398603E-01
        -11   -1    0    0    0    0  0.00000000000E+00  0.00000000000E+00  0.50000000000E+03  0.50000000000E+03  0.00000000000E+00 0.  1.
         11   -1    0    0    0    0 -0.00000000000E+00 -0.00000000000E+00 -0.50000000000E+03  0.50000000000E+03  0.00000000000E+00 0. -1.
        -11    1    1    2    0    0 -0.11510817388E+02  0.24949911805E+02  0.49870397516E+03  0.49946036064E+03  0.00000000000E+00 0.  1.
         11    1    1    2    0    0 -0.51388066200E+01  0.26917022468E+01 -0.14518654797E+03  0.14530239608E+03  0.00000000000E+00 0. -1.
        -15    1    1    2    0    0  0.70948294106E+01 -0.20568396901E+02 -0.26665546491E+03  0.26754754764E+03  0.17770000000E+01 0. -1.
         15    1    1    2    0    0  0.95547945972E+01 -0.70732171509E+01 -0.86861962274E+02  0.87689695631E+02  0.17770000000E+01 0.  1.
</event>
<event>
 6   1  0.3798113E-04  0.4793569E+03  0.7546771E-02  0.9447223E-01
        -11   -1    0    0    0    0  0.00000000000E+00  0.00000000000E+00  0.50000000000E+03  0.50000000000E+03  0.00000000000E+00 0.  1.
         11   -1    0    0    0    0 -0.00000000000E+00 -0.00000000000E+00 -0.50000000000E+03  0.50000000000E+03  0.00000000000E+00 0.  1.
        -11    1    1    2    0    0 -0.28117767363E+02 -0.20862589607E+02  0.48510075837E+03  0.48636262424E+03  0.00000000000E+00 0.  1.
         11    1    1    2    0    0  0.28898197012E+01 -0.72350736976E+01 -0.47310533985E+03  0.47316948332E+03  0.00000000000E+00 0.  1.
        -15    1    1    2    0    0  0.74107245454E+01  0.39443116759E+01 -0.28186401115E+01  0.90321035181E+01  0.17770000000E+01 0. -1.
         15    1    1    2    0    0  0.17817223116E+02  0.24153351629E+02 -0.91767784081E+01  0.31435788927E+02  0.17770000000E+01 0.  1.
</event>
<event>
 6   1  0.3798113E-04  0.5001236E+03  0.7546771E-02  0.9399533E-01
        -11   -1    0    0    0    0  0.00000000000E+00  0.00000000000E+00  0.50000000000E+03  0.50000000000E+03  0.00000000000E+00 0.  1.
         11   -1    0    0    0    0 -0.00000000000E+00 -0.00000000000E+00 -0.50000000000E+03  0.50000000000E+03  0.00000000000E+00 0.  1.
        -11    1    1    2    0    0 -0.31339656338E+01  0.11264681257E+02  0.25900057423E+03  0.25926436746E+03  0.00000000000E+00 0.  1.
         11    1    1    2    0    0 -0.35736992147E+01 -0.12270631352E+02 -0.49971302806E+03  0.49987643486E+03  0.00000000000E+00 0.  1.
        -15    1    1    2    0    0  0.35679952276E+01  0.20023577976E+01  0.15659558206E+03  0.15665910148E+03  0.17770000000E+01 0.  1.
         15    1    1    2    0    0  0.31396696208E+01 -0.99640770248E+00  0.84116871770E+02  0.84200096193E+02  0.17770000000E+01 0.  1.
</event>
<event>
 6   1  0.3798113E-04  0.5022401E+03  0.7546771E-02  0.9394811E-01
        -11   -1    0    0    0    0  0.00000000000E+00  0.00000000000E+00  0.50000000000E+03  0.50000000000E+03  0.00000000000E+00 0. -1.
         11   -1    0    0    0    0 -0.00000000000E+00 -0.00000000000E+00 -0.50000000000E+03  0.50000000000E+03  0.00000000000E+00 0.  1.
        -11    1    1    2    0    0  0.81714253214E+01  0.81299729541E+01  0.46000183856E+03  0.46014623777E+03  0.00000000000E+00 0. -1.
         11    1    1    2    0    0 -0.40230765721E+01  0.88744561109E+01 -0.49766456585E+03  0.49775994336E+03  0.00000000000E+00 0.  1.
        -15    1    1    2    0    0  0.80297612950E+00 -0.56696495625E+01  0.88688907449E+01  0.10705356083E+02  0.17770000000E+01 0.  1.
         15    1    1    2    0    0 -0.49513248788E+01 -0.11334779502E+02  0.28793836541E+02  0.31388462788E+02  0.17770000000E+01 0. -1.
</event>
<event>
 6   1  0.3798113E-04  0.4838636E+03  0.7546771E-02  0.9436658E-01
        -11   -1    0    0    0    0  0.00000000000E+00  0.00000000000E+00  0.50000000000E+03  0.50000000000E+03  0.00000000000E+00 0.  1.
         11   -1    0    0    0    0 -0.00000000000E+00 -0.00000000000E+00 -0.50000000000E+03  0.50000000000E+03  0.00000000000E+00 0.  1.
        -11    1    1    2    0    0 -0.24131585098E+02 -0.18952107220E+02  0.48760495471E+03  0.48856945016E+03  0.00000000000E+00 0.  1.
         11    1    1    2    0    0 -0.10137901196E+01  0.83002366363E+01 -0.47950401888E+03  0.47957692377E+03  0.00000000000E+00 0.  1.
        -15    1    1    2    0    0  0.19305856190E+02  0.12606027426E+02 -0.99618519550E+01  0.25179837848E+02  0.17770000000E+01 0. -1.
         15    1    1    2    0    0  0.58395190279E+01 -0.19541568425E+01  0.18609161207E+01  0.66737882234E+01  0.17770000000E+01 0.  1.
</event>
<event>
 6   1  0.3798113E-04  0.5071914E+03  0.7546771E-02  0.9383861E-01
        -11   -1    0    0    0    0  0.00000000000E+00  0.00000000000E+00  0.50000000000E+03  0.50000000000E+03  0.00000000000E+00 0. -1.
         11   -1    0    0    0    0 -0.00000000000E+00 -0.00000000000E+00 -0.50000000000E+03  0.50000000000E+03  0.00000000000E+00 0.  1.
        -11    1    1    2    0    0  0.35077726538E+02 -0.28443512875E+02  0.75004042344E+02  0.87550480819E+02  0.00000000000E+00 0. -1.
         11    1    1    2    0    0 -0.23525165773E+02  0.29010468253E+01 -0.49223823925E+03  0.49280861770E+03  0.00000000000E+00 0.  1.
        -15    1    1    2    0    0 -0.85428324686E+01 -0.14102279893E+00  0.23727576726E+02  0.25281524881E+02  0.17770000000E+01 0.  1.
         15    1    1    2    0    0 -0.30097282967E+01  0.25683488848E+02  0.39350662018E+03  0.39435937660E+03  0.17770000000E+01 0. -1.
</event>
<event>
 6   1  0.3798113E-04  0.5014040E+03  0.7546771E-02  0.9396674E-01
        -11   -1    0    0    0    0  0.00000000000E+00  0.00000000000E+00  0.50000000000E+03  0.50000000000E+03  0.00000000000E+00 0.  1.
         11   -1    0    0    0    0 -0.00000000000E+00 -0.00000000000E+00 -0.50000000000E+03  0.50000000000E+03  0.00000000000E+00 0. -1.
        -11    1    1    2    0    0  0.58357723788E+01 -0.14663236539E+02  0.40873061257E+03  0.40903518234E+03  0.00000000000E+00 0.  1.
         11    1    1    2    0    0  0.22358022399E+01  0.21256519130E+02 -0.49813765716E+03  0.49859599266E+03  0.00000000000E+00 0. -1.
        -15    1    1    2    0    0 -0.25507489463E+00 -0.12390810420E+02  0.37720722090E+02  0.39744280721E+02  0.17770000000E+01 0.  1.
         15    1    1    2    0    0 -0.78164997240E+01  0.57975278285E+01  0.51686322504E+02  0.52624544272E+02  0.17770000000E+01 0. -1.
</event>
<event>
 6   1  0.3798113E-04  0.5033331E+03  0.7546771E-02  0.9392382E-01
        -11   -1    0    0    0    0  0.00000000000E+00  0.00000000000E+00  0.50000000000E+03  0.50000000000E+03  0.00000000000E+00 0. -1.
         11   -1    0    0    0    0 -0.00000000000E+00 -0.00000000000E+00 -0.50000000000E+03  0.50000000000E+03  0.00000000000E+00 0. -1.
        -11    1    1    2    0    0  0.74386382275E+01 -0.28277842092E+00  0.47496908577E+03  0.47502741578E+03  0.00000000000E+00 0. -1.
         11    1    1    2    0    0  0.18704455390E+01  0.78686667017E+01 -0.49660107882E+03  0.49666693666E+03  0.00000000000E+00 0. -1.
        -15    1    1    2    0    0 -0.70987726321E+01 -0.39764591275E+01  0.22171108276E+02  0.23683761764E+02  0.17770000000E+01 0. -1.
         15    1    1    2    0    0 -0.22103111344E+01 -0.36094291533E+01 -0.53911522737E+00  0.46218858004E+01  0.17770000000E+01 0. -1.
</event>
<event>
 6   1  0.3798113E-04  0.5061752E+03  0.7546771E-02  0.9386097E-01
        -11   -1    0    0    0    0  0.00000000000E+00  0.00000000000E+00  0.50000000000E+03  0.50000000000E+03  0.00000000000E+00 0. -1.
         11   -1    0    0    0    0 -0.00000000000E+00 -0.00000000000E+00 -0.50000000000E+03  0.50000000000E+03  0.00000000000E+00 0.  1.
        -11    1    1    2    0    0 -0.17199278756E+02 -0.15529724525E+01  0.49352274598E+03  0.49382479455E+03  0.00000000000E+00 0. -1.
         11    1    1    2    0    0 -0.47998290190E+00  0.11715661581E+02 -0.46521734099E+03  0.46536508407E+03  0.00000000000E+00 0.  1.
        -15    1    1    2    0    0  0.62663571714E+01  0.41895748937E+01 -0.91199867523E+00  0.77980279926E+01  0.17770000000E+01 0. -1.
         15    1    1    2    0    0  0.11412904487E+02 -0.14352264022E+02 -0.27393406312E+02  0.33012093386E+02  0.17770000000E+01 0.  1.
</event>
<event>
 6   1  0.3798113E-04  0.5005813E+03  0.7546771E-02  0.9398510E-01
        -11   -1    0    0    0    0  0.00000000000E+00  0.00000000000E+00  0.50000000000E+03  0.50000000000E+03  0.00000000000E+00 0. -1.
         11   -1    0    0    0    0 -0.00000000000E+00 -0.00000000000E+00 -0.50000000000E+03  0.50000000000E+03  0.00000000000E+00 0.  1.
        -11    1    1    2    0    0  0.12340303986E+02 -0.44868419855E+02  0.49724600779E+03  0.49941871257E+03  0.00000000000E+00 0. -1.
         11    1    1    2    0    0  0.25384492089E+01  0.16280390552E+01 -0.12524709885E+03  0.12528339876E+03  0.00000000000E+00 0.  1.
        -15    1    1    2    0    0 -0.98087750317E+01  0.23387890082E+02 -0.13246623145E+03  0.13488389701E+03  0.17770000000E+01 0. -1.
         15    1    1    2    0    0 -0.50699781630E+01  0.19852490718E+02 -0.23953267749E+03  0.24041399165E+03  0.17770000000E+01 0.  1.
</event>
<event>
 6   1  0.3798113E-04  0.5003906E+03  0.7546771E-02  0.9398936E-01
        -11   -1    0    0    0    0  0.00000000000E+00  0.00000000000E+00  0.50000000000E+03  0.50000000000E+03  0.00000000000E+00 0. -1.
         11   -1    0    0    0    0 -0.00000000000E+00 -0.00000000000E+00 -0.50000000000E+03  0.50000000000E+03  0.00000000000E+00 0. -1.
        -11    1    1    2    0    0  0.44437590672E+01 -0.46169290319E+01  0.44791529705E+02  0.45247587357E+02  0.00000000000E+00 0. -1.
         11    1    1    2    0    0 -0.49185273172E+01  0.85427320120E+01 -0.49951216898E+03  0.49960942459E+03  0.00000000000E+00 0. -1.
        -15    1    1    2    0    0 -0.42414003886E+01 -0.68249612739E+01  0.40499198386E+03  0.40507559084E+03  0.17770000000E+01 0.  1.
         15    1    1    2    0    0  0.47161686385E+01  0.28991582938E+01  0.49728655413E+02  0.50067397212E+02  0.17770000000E+01 0. -1.
</event>
<event>
 6   1  0.3798113E-04  0.5008446E+03  0.7546771E-02  0.9397922E-01
        -11   -1    0    0    0    0  0.00000000000E+00  0.00000000000E+00  0.50000000000E+03  0.50000000000E+03  0.00000000000E+00 0.  1.
         11   -1    0    0    0    0 -0.00000000000E+00 -0.00000000000E+00 -0.50000000000E+03  0.50000000000E+03  0.00000000000E+00 0. -1.
        -11    1    1    2    0    0  0.59397137924E+00 -0.11899090225E+02  0.13751543470E+03  0.13803056158E+03  0.00000000000E+00 0.  1.
         11    1    1    2    0    0  0.63256280410E+01 -0.37682002774E+01 -0.49910104440E+03  0.49915535199E+03  0.00000000000E+00 0. -1.
        -15    1    1    2    0    0 -0.13556551020E+02  0.15543705535E+02  0.31960861823E+03  0.32027833744E+03  0.17770000000E+01 0. -1.
         15    1    1    2    0    0  0.66369515995E+01  0.12358496802E+00  0.41976991468E+02  0.42535748982E+02  0.17770000000E+01 0.  1.
</event>
<event>
 6   1  0.3798113E-04  0.5000917E+03  0.7546771E-02  0.9399605E-01
        -11   -1    0    0    0    0  0.00000000000E+00  0.00000000000E+00  0.50000000000E+03  0.50000000000E+03  0.00000000000E+00 0. -1.
         11   -1    0    0    0    0 -0.00000000000E+00 -0.00000000000E+00 -0.50000000000E+03  0.50000000000E+03  0.00000000000E+00 0. -1.
        -11    1    1    2    0    0  0.73416204027E+01 -0.28672378693E+01  0.19021271772E+03  0.19037593972E+03  0.00000000000E+00 0. -1.
         11    1    1    2    0    0 -0.37611969108E+01  0.71953126279E+01 -0.49984235114E+03  0.49990828671E+03  0.00000000000E+00 0. -1.
        -15    1    1    2    0    0 -0.14627717716E+01 -0.34296751951E+01  0.22070194079E+03  0.22074058705E+03  0.17770000000E+01 0. -1.
         15    1    1    2    0    0 -0.21176517203E+01 -0.89839956353E+00  0.88927692626E+02  0.88975186515E+02  0.17770000000E+01 0. -1.
</event>
<event>
 6   1  0.3798113E-04  0.5008476E+03  0.7546771E-02  0.9397915E-01
        -11   -1    0    0    0    0  0.00000000000E+00  0.00000000000E+00  0.50000000000E+03  0.50000000000E+03  0.00000000000E+00 0. -1.
         11   -1    0    0    0    0 -0.00000000000E+00 -0.00000000000E+00 -0.50000000000E+03  0.50000000000E+03  0.00000000000E+00 0. -1.
        -11    1    1    2    0    0 -0.20488199779E+01  0.75698726444E+01  0.49909083598E+03  0.49915244485E+03  0.00000000000E+00 0. -1.
         11    1    1    2    0    0 -0.28781436136E+01  0.57018075711E+01 -0.42945316913E+03  0.42950066216E+03  0.00000000000E+00 0. -1.
        -15    1    1    2    0    0  0.35989997950E+01 -0.98353210494E+01 -0.38387666716E+02  0.39830353056E+02  0.17770000000E+01 0. -1.
         15    1    1    2    0    0  0.13279637964E+01 -0.34363591662E+01 -0.31250000137E+02  0.31516539939E+02  0.17770000000E+01 0.  1.
</event>
<event>
 6   1  0.3798113E-04  0.5017002E+03  0.7546771E-02  0.9396013E-01
        -11   -1    0    0    0    0  0.00000000000E+00  0.00000000000E+00  0.50000000000E+03  0.50000000000E+03  0.00000000000E+00 0.  1.
         11   -1    0    0    0    0 -0.00000000000E+00 -0.00000000000E+00 -0.50000000000E+03  0.50000000000E+03  0.00000000000E+00 0.  1.
        -11    1    1    2    0    0  0.52138981169E+01 -0.13922188010E+02  0.43770618793E+03  0.43795858138E+03  0.00000000000E+00 0.  1.
         11    1    1    2    0    0  0.80468939125E+01  0.25855350620E+01 -0.49822810609E+03  0.49829979248E+03  0.00000000000E+00 0.  1.
        -15    1    1    2    0    0 -0.76193859251E+01  0.10592290735E+02  0.49373777369E+02  0.51099699466E+02  0.17770000000E+01 0.  1.
         15    1    1    2    0    0 -0.56414061043E+01  0.74436221275E+00  0.11148140785E+02  0.12641926668E+02  0.17770000000E+01 0. -1.
</event>
<event>
 6   1  0.3798113E-04  0.5001982E+03  0.7546771E-02  0.9399366E-01
        -11   -1    0    0    0    0  0.00000000000E+00  0.00000000000E+00  0.50000000000E+03  0.50000000000E+03  0.00000000000E+00 0.  1.
         11   -1    0    0    0    0 -0.00000000000E+00 -0.00000000000E+00 -0.50000000000E+03  0.50000000000E+03  0.00000000000E+00 0. -1.
        -11    1    1    2    0    0  0.57594259587E+01 -0.12817938420E+02  0.34858900395E+03  0.34887213160E+03  0.00000000000E+00 0.  1.
         11    1    1    2    0    0 -0.11440519103E+02  0.98013280773E+01 -0.49957474650E+03  0.49980183958E+03  0.00000000000E+00 0. -1.
        -15    1    1    2    0    0 -0.21338639658E+00  0.28898838982E+01  0.31763845209E+02  0.31945211756E+02  0.17770000000E+01 0.  1.
         15    1    1    2    0    0  0.58944795405E+01  0.12672644455E+00  0.11922189734E+03  0.11938081706E+03  0.17770000000E+01 0.  1.
</event>
<event>
 6   1  0.3798113E-04  0.5015233E+03  0.7546771E-02  0.9396408E-01
        -11   -1    0    0    0    0  0.00000000000E+00  0.00000000000E+00  0.50000000000E+03  0.50000000000E+03  0.00000000000E+00 0. -1.
         11   -1    0    0    0    0 -0.00000000000E+00 -0.00000000000E+00 -0.50000000000E+03  0.50000000000E+03  0.00000000000E+00 0.  1.
        -11    1    1    2    0    0  0.77268053858E+01 -0.32661521175E+00 -0.71671577824E+01  0.10544114455E+02  0.00000000000E+00 0. -1.
         11    1    1    2    0    0  0.11192177205E+02  0.25036102884E+01 -0.49084522176E+03  0.49097918960E+03  0.00000000000E+00 0.  1.
        -15    1    1    2    0    0 -0.10131734442E+02 -0.90618559107E-01  0.15507530434E+03  0.15541611242E+03  0.17770000000E+01 0.  1.
         15    1    1    2    0    0 -0.87872481481E+01 -0.20863765176E+01  0.34293707520E+03  0.34306058353E+03  0.17770000000E+01 0. -1.
</event>
<event>
 6   1  0.3798113E-04  0.5070673E+03  0.7546771E-02  0.9384133E-01
        -11   -1    0    0    0    0  0.00000000000E+00  0.00000000000E+00  0.50000000000E+03  0.50000000000E+03  0.00000000000E+00 0. -1.
         11   -1    0    0    0    0 -0.00000000000E+00 -0.00000000000E+00 -0.50000000000E+03  0.50000000000E+03  0.00000000000E+00 0. -1.
        -11    1    1    2    0    0 -0.25680372360E+02 -0.50244113316E+00  0.44668413381E+03  0.44742200367E+03  0.00000000000E+00 0. -1.
         11    1    1    2    0    0 -0.71711390958E+01 -0.56679621618E+01 -0.49284794561E+03  0.49293270182E+03  0.00000000000E+00 0. -1.
        -15    1    1    2    0    0  0.36621553391E+01  0.22294444350E+01 -0.24772291029E+00  0.46476768236E+01  0.17770000000E+01 0. -1.
         15    1    1    2    0    0  0.29189356117E+02  0.39409588600E+01  0.46411534710E+02  0.54997617680E+02  0.17770000000E+01 0.  1.
</event>
<event>
 6   1  0.3798113E-04  0.5014115E+03  0.7546771E-02  0.9396657E-01
        -11   -1    0    0    0    0  0.00000000000E+00  0.00000000000E+00  0.50000000000E+03  0.50000000000E+03  0.00000000000E+00 0.  1.
         11   -1    0    0    0    0 -0.00000000000E+00 -0.00000000000E+00 -0.50000000000E+03  0.50000000000E+03  0.00000000000E+00 0.  1.
        -11    1    1    2    0    0  0.62271184455E+01 -0.68107210873E+01  0.49850305863E+03  0.49858846997E+03  0.00000000000E+00 0.  1.
         11    1    1    2    0    0  0.52014829710E+01  0.86820954641E+01 -0.45151019093E+03  0.45162361178E+03  0.00000000000E+00 0.  1.
        -15    1    1    2    0    0 -0.10115174985E+02 -0.35660762030E+01 -0.21008701022E+02  0.23654955339E+02  0.17770000000E+01 0.  1.
         15    1    1    2    0    0 -0.13134264318E+01  0.16947018262E+01 -0.25984166678E+02  0.26132962906E+02  0.17770000000E+01 0. -1.
</event>
<event>
 6   1  0.3798113E-04  0.5004974E+03  0.7546771E-02  0.9398698E-01
        -11   -1    0    0    0    0  0.00000000000E+00  0.00000000000E+00  0.50000000000E+03  0.50000000000E+03  0.00000000000E+00 0. -1.
         11   -1    0    0    0    0 -0.00000000000E+00 -0.00000000000E+00 -0.50000000000E+03  0.50000000000E+03  0.00000000000E+00 0. -1.
        -11    1    1    2    0    0  0.54744803186E+01  0.63484856930E+00  0.12446768553E+03  0.12458963725E+03  0.00000000000E+00 0. -1.
         11    1    1    2    0    0 -0.16724985454E+01  0.66804311633E+01 -0.49945517417E+03  0.49950264906E+03  0.00000000000E+00 0. -1.
        -15    1    1    2    0    0  0.60170547347E+01 -0.70020060652E+01  0.31134718363E+03  0.31148910016E+03  0.17770000000E+01 0. -1.
         15    1    1    2    0    0 -0.98190365080E+01 -0.31327366745E+00  0.63640305013E+02  0.64418613533E+02  0.17770000000E+01 0.  1.
</event>
<event>
 6   1  0.3798113E-04  0.5003848E+03  0.7546771E-02  0.9398949E-01
        -11   -1    0    0    0    0  0.00000000000E+00  0.00000000000E+00  0.50000000000E+03  0.50000000000E+03  0.00000000000E+00 0.  1.
         11   -1    0    0    0    0 -0.00000000000E+00 -0.00000000000E+00 -0.50000000000E+03  0.50000000000E+03  0.00000000000E+00 0.  1.
        -11    1    1    2    0    0 -0.82422309693E+01  0.47025483563E+01  0.73357479323E+02  0.73968696791E+02  0.00000000000E+00 0.  1.
         11    1    1    2    0    0  0.40436243418E+01  0.61542449383E+01 -0.49956089937E+03  0.49961516972E+03  0.00000000000E+00 0.  1.
        -15    1    1    2    0    0  0.92076398761E+00 -0.90470365149E+01  0.31189331533E+03  0.31203091922E+03  0.17770000000E+01 0.  1.
         15    1    1    2    0    0  0.32778426398E+01 -0.18097567797E+01  0.11431010473E+03  0.11438521427E+03  0.17770000000E+01 0. -1.
</event>
<event>
 6   1  0.3798113E-04  0.5001360E+03  0.7546771E-02  0.9399505E-01
        -11   -1    0    0    0    0  0.00000000000E+00  0.00000000000E+00  0.50000000000E+03  0.50000000000E+03  0.00000000000E+00 0.  1.
         11   -1    0    0    0    0 -0.00000000000E+00 -0.00000000000E+00 -0.50000000000E+03  0.50000000000E+03  0.00000000000E+00 0. -1.
        -11    1    1    2    0    0 -0.39687625201E+01  0.41243250854E+01  0.15610201098E+03  0.15620691074E+03  0.00000000000E+00 0.  1.
         11    1    1    2    0    0 -0.56223748330E+01 -0.43638314597E+01 -0.49981328511E+03  0.49986395559E+03  0.00000000000E+00 0. -1.
        -15    1    1    2    0    0  0.40158561540E+01  0.33656022308E+01  0.17509836847E+03  0.17518576069E+03  0.17770000000E+01 0.  1.
         15    1    1    2    0    0  0.55752811991E+01 -0.31260958565E+01  0.16861290567E+03  0.16874337298E+03  0.17770000000E+01 0. -1.
</event>
<event>
 6   1  0.3798113E-04  0.5002532E+03  0.7546771E-02  0.9399243E-01
        -11   -1    0    0    0    0  0.00000000000E+00  0.00000000000E+00  0.50000000000E+03  0.50000000000E+03  0.00000000000E+00 0.  1.
         11   -1    0    0    0    0 -0.00000000000E+00 -0.00000000000E+00 -0.50000000000E+03  0.50000000000E+03  0.00000000000E+00 0. -1.
        -11    1    1    2    0    0  0.97872958671E+01 -0.10826924304E+01  0.10580274323E+03  0.10625998239E+03  0.00000000000E+00 0.  1.
         11    1    1    2    0    0 -0.73022134933E+01 -0.55295082883E+01 -0.49966281565E+03  0.49974676300E+03  0.00000000000E+00 0. -1.
        -15    1    1    2    0    0 -0.15675815178E+01 -0.55483931024E+00  0.14984065957E+03  0.14986042222E+03  0.17770000000E+01 0.  1.
         15    1    1    2    0    0 -0.91750085606E+00  0.71670400289E+01  0.24401941285E+03  0.24413283239E+03  0.17770000000E+01 0.  1.
</event>
<event>
 6   1  0.3798113E-04  0.5051159E+03  0.7546771E-02  0.9388435E-01
        -11   -1    0    0    0    0  0.00000000000E+00  0.00000000000E+00  0.50000000000E+03  0.50000000000E+03  0.00000000000E+00 0. -1.
         11   -1    0    0    0    0 -0.00000000000E+00 -0.00000000000E+00 -0.50000000000E+03  0.50000000000E+03  0.00000000000E+00 0.  1.
        -11    1    1    2    0    0  0.84424362402E+01  0.89556616278E+01  0.46407830358E+03  0.46424147861E+03  0.00000000000E+00 0. -1.
         11    1    1    2    0    0  0.36178654850E+01  0.14148524993E+02 -0.49466856040E+03  0.49488408174E+03  0.00000000000E+00 0.  1.
        -15    1    1    2    0    0 -0.11803887679E+02 -0.17478058329E+02  0.22985525507E+02  0.31245902117E+02  0.17770000000E+01 0. -1.
         15    1    1    2    0    0 -0.25641404601E+00 -0.56261282916E+01  0.76047313153E+01  0.96285375367E+01  0.17770000000E+01 0.  1.
</event>
<event>
 6   1  0.3798113E-04  0.4223036E+03  0.7546771E-02  0.9592703E-01
        -11   -1    0    0    0    0  0.00000000000E+00  0.00000000000E+00  0.50000000000E+03  0.50000000000E+03  0.00000000000E+00 0.  1.
         11   -1    0    0    0    0 -0.00000000000E+00 -0.00000000000E+00 -0.50000000000E+03  0.50000000000E+03  0.00000000000E+00 0. -1.
        -11    1    1    2    0    0 -0.77973904243E+02  0.16459279459E+02  0.40121353555E+03  0.40905151110E+03  0.00000000000E+00 0.  1.
         11    1    1    2    0    0 -0.52964244625E+02  0.93356509754E+01 -0.44385015478E+03  0.44709655052E+03  0.00000000000E+00 0. -1.
        -15    1    1    2    0    0  0.10483915629E+03 -0.76206134136E+01  0.27991452088E+02  0.10879338932E+03  0.17770000000E+01 0.  1.
         15    1    1    2    0    0  0.26098992579E+02 -0.18174317021E+02  0.14645167139E+02  0.35058549062E+02  0.17770000000E+01 0. -1.
</event>
<event>
 6   1  0.3798113E-04  0.5003188E+03  0.7546771E-02  0.9399097E-01
        -11   -1    0    0    0    0  0.00000000000E+00  0.00000000000E+00  0.50000000000E+03  0.50000000000E+03  0.00000000000E+00 0.  1.
         11   -1    0    0    0    0 -0.00000000000E+00 -0.00000000000E+00 -0.50000000000E+03  0.50000000000E+03  0.00000000000E+00 0. -1.
        -11    1    1    2    0    0  0.56383088692E+01  0.13537183949E+01  0.34223575452E+03  0.34228487368E+03  0.00000000000E+00 0.  1.
         11    1    1    2    0    0 -0.49993560419E+01  0.62298449361E+01 -0.49961736528E+03  0.49968121459E+03  0.00000000000E+00 0. -1.
        -15    1    1    2    0    0  0.21974872880E+01 -0.14756640622E+01  0.10178459991E+02  0.10666082298E+02  0.17770000000E+01 0. -1.
         15    1    1    2    0    0 -0.28364401153E+01 -0.61078992688E+01  0.14720315077E+03  0.14736782943E+03  0.17770000000E+01 0.  1.
</event>
<event>
 6   1  0.3798113E-04  0.4899041E+03  0.7546771E-02  0.9422688E-01
        -11   -1    0    0    0    0  0.00000000000E+00  0.00000000000E+00  0.50000000000E+03  0.50000000000E+03  0.00000000000E+00 0. -1.
         11   -1    0    0    0    0 -0.00000000000E+00 -0.00000000000E+00 -0.50000000000E+03  0.50000000000E+03  0.00000000000E+00 0.  1.
        -11    1    1    2    0    0 -0.97439276129E+01  0.13046789419E+02  0.49326320867E+03  0.49353191981E+03  0.00000000000E+00 0. -1.
         11    1    1    2    0    0  0.56713246250E+01  0.35369702727E+01 -0.48640307549E+03  0.48644899622E+03  0.00000000000E+00 0.  1.
        -15    1    1    2    0    0  0.26642245502E+01 -0.19748624919E+01 -0.27936690274E+01  0.46862020817E+01  0.17770000000E+01 0. -1.
         15    1    1    2    0    0  0.14083784377E+01 -0.14608897199E+02 -0.40664641603E+01  0.15332881887E+02  0.17770000000E+01 0.  1.
</event>
<event>
 6   1  0.3798113E-04  0.5005414E+03  0.7546771E-02  0.9398599E-01
        -11   -1    0    0    0    0  0.00000000000E+00  0.00000000000E+00  0.50000000000E+03  0.50000000000E+03  0.00000000000E+00 0. -1.
         11   -1    0    0    0    0 -0.00000000000E+00 -0.00000000000E+00 -0.50000000000E+03  0.50000000000E+03  0.00000000000E+00 0.  1.
        -11    1    1    2    0    0  0.33106174495E+00 -0.11960485676E+02  0.49931531103E+03  0.49945864959E+03  0.00000000000E+00 0. -1.
         11    1    1    2    0    0 -0.57942368488E+01 -0.55224546307E+00 -0.21233733046E+03  0.21241708986E+03  0.00000000000E+00 0.  1.
        -15    1    1    2    0    0  0.12950453636E+02  0.12189649439E+02 -0.18845007071E+03  0.18929577038E+03  0.17770000000E+01 0. -1.
         15    1    1    2    0    0 -0.74872785318E+01  0.32308170011E+00 -0.98527909854E+02  0.98828490178E+02  0.17770000000E+01 0.  1.
</event>
<event>
 6   1  0.3798113E-04  0.5195104E+03  0.7546771E-02  0.9357182E-01
        -11   -1    0    0    0    0  0.00000000000E+00  0.00000000000E+00  0.50000000000E+03  0.50000000000E+03  0.00000000000E+00 0.  1.
         11   -1    0    0    0    0 -0.00000000000E+00 -0.00000000000E+00 -0.50000000000E+03  0.50000000000E+03  0.00000000000E+00 0. -1.
        -11    1    1    2    0    0 -0.40177966877E+01  0.77572142142E+02  0.26112447005E+03  0.27243268671E+03  0.00000000000E+00 0.  1.
         11    1    1    2    0    0 -0.17486070258E+01  0.77425998148E+01 -0.48042407453E+03  0.48048964283E+03  0.00000000000E+00 0. -1.
        -15    1    1    2    0    0  0.47602334904E+01 -0.85373147410E+02  0.22516841245E+03  0.24086345887E+03  0.17770000000E+01 0.  1.
         15    1    1    2    0    0  0.10061702231E+01  0.58405452462E-01 -0.58688079703E+01  0.62142115917E+01  0.17770000000E+01 0. -1.
</event>
<event>
 6   1  0.3798113E-04  0.4889131E+03  0.7546771E-02  0.9424965E-01
        -11   -1    0    0    0    0  0.00000000000E+00  0.00000000000E+00  0.50000000000E+03  0.50000000000E+03  0.00000000000E+00 0. -1.
         11   -1    0    0    0    0 -0.00000000000E+00 -0.00000000000E+00 -0.50000000000E+03  0.50000000000E+03  0.00000000000E+00 0.  1.
        -11    1    1    2    0    0  0.12397519312E+02 -0.35965486005E+01  0.49033375016E+03  0.49050363932E+03  0.00000000000E+00 0. -1.
         11    1    1    2    0    0  0.76601143845E+01  0.31304979138E+01 -0.48746241421E+03  0.48753264776E+03  0.00000000000E+00 0.  1.
        -15    1    1    2    0    0 -0.13244600584E+02  0.28335246217E+01 -0.44549456853E+01  0.14368457693E+02  0.17770000000E+01 0. -1.
         15    1    1    2    0    0 -0.68130331126E+01 -0.23674739350E+01  0.15836097374E+01  0.75952552180E+01  0.17770000000E+01 0.  1.
</event>
<event>
 6   1  0.3798113E-04  0.4772405E+03  0.7546771E-02  0.9452227E-01
        -11   -1    0    0    0    0  0.00000000000E+00  0.00000000000E+00  0.50000000000E+03  0.50000000000E+03  0.00000000000E+00 0.  1.
         11   -1    0    0    0    0 -0.00000000000E+00 -0.00000000000E+00 -0.50000000000E+03  0.50000000000E+03  0.00000000000E+00 0.  1.
        -11    1    1    2    0    0  0.15190699599E+02  0.17353165302E+02  0.48468485501E+03  0.48523324121E+03  0.00000000000E+00 0.  1.
         11    1    1    2    0    0  0.44736222913E+00  0.63291773334E+01 -0.46974359022E+03  0.46978643996E+03  0.00000000000E+00 0.  1.
        -15    1    1    2    0    0 -0.67446149647E+01  0.14613282597E+01 -0.16736829292E+02  0.18190780496E+02  0.17770000000E+01 0.  1.
         15    1    1    2    0    0 -0.88934468631E+01 -0.25143670895E+02  0.17955645091E+01  0.26789538333E+02  0.17770000000E+01 0. -1.
</event>
<event>
 6   1  0.3798113E-04  0.5001614E+03  0.7546771E-02  0.9399449E-01
        -11   -1    0    0    0    0  0.00000000000E+00  0.00000000000E+00  0.50000000000E+03  0.50000000000E+03  0.00000000000E+00 0.  1.
         11   -1    0    0    0    0 -0.00000000000E+00 -0.00000000000E+00 -0.50000000000E+03  0.50000000000E+03  0.00000000000E+00 0. -1.
        -11    1    1    2    0    0 -0.10304691846E+02 -0.79748333490E+01  0.49966869932E+03  0.49983856766E+03  0.00000000000E+00 0.  1.
         11    1    1    2    0    0 -0.15756974117E+01  0.39542660189E+01 -0.29626518121E+03  0.29629575873E+03  0.00000000000E+00 0. -1.
        -15    1    1    2    0    0  0.22151587712E+01 -0.53121330734E+00 -0.42508019919E+02  0.42606086448E+02  0.17770000000E+01 0. -1.
         15    1    1    2    0    0  0.96652304863E+01  0.45517806374E+01 -0.16089549819E+03  0.16125958717E+03  0.17770000000E+01 0.  1.
</event>
<event>
 6   1  0.3798113E-04  0.5000826E+03  0.7546771E-02  0.9399625E-01
        -11   -1    0    0    0    0  0.00000000000E+00  0.00000000000E+00  0.50000000000E+03  0.50000000000E+03  0.00000000000E+00 0. -1.
         11   -1    0    0    0    0 -0.00000000000E+00 -0.00000000000E+00 -0.50000000000E+03  0.50000000000E+03  0.00000000000E+00 0.  1.
        -11    1    1    2    0    0 -0.12972496707E+01  0.36022329362E+01  0.54292371883E+02  0.54427204443E+02  0.00000000000E+00 0. -1.
         11    1    1    2    0    0  0.68085666928E+01  0.62377736191E+00 -0.49987064395E+03  0.49991739954E+03  0.00000000000E+00 0.  1.
        -15    1    1    2    0    0 -0.27922105052E+01 -0.52413325326E+00  0.16751041188E+03  0.16754392550E+03  0.17770000000E+01 0.  1.
         15    1    1    2    0    0 -0.27191065169E+01 -0.37018770449E+01  0.27806786019E+03  0.27811147052E+03  0.17770000000E+01 0. -1.
</event>
<event>
 6   1  0.3798113E-04  0.5135466E+03  0.7546771E-02  0.9369998E-01
        -11   -1    0    0    0    0  0.00000000000E+00  0.00000000000E+00  0.50000000000E+03  0.50000000000E+03  0.00000000000E+00 0.  1.
         11   -1    0    0    0    0 -0.00000000000E+00 -0.00000000000E+00 -0.50000000000E+03  0.50000000000E+03  0.00000000000E+00 0.  1.
        -11    1    1    2    0    0  0.59876735649E+01  0.23829721192E+02  0.48583251027E+03  0.48645342623E+03  0.00000000000E+00 0.  1.
         11    1    1    2    0    0  0.21425376975E+02  0.83990605575E+01 -0.44705744819E+03  0.44764936388E+03  0.00000000000E+00 0.  1.
        -15    1    1    2    0    0 -0.22343160424E+02 -0.18238644457E+02 -0.41595550973E+02  0.50647927491E+02  0.17770000000E+01 0. -1.
         15    1    1    2    0    0 -0.50698901160E+01 -0.13990137292E+02  0.28204888914E+01  0.15249282404E+02  0.17770000000E+01 0.  1.
</event>
<event>
 6   1  0.3798113E-04  0.4937702E+03  0.7546771E-02  0.9413858E-01
        -11   -1    0    0    0    0  0.00000000000E+00  0.00000000000E+00  0.50000000000E+03  0.50000000000E+03  0.00000000000E+00 0.  1.
         11   -1    0    0    0    0 -0.00000000000E+00 -0.00000000000E+00 -0.50000000000E+03  0.50000000000E+03  0.00000000000E+00 0. -1.
        -11    1    1    2    0    0  0.67081948132E+01 -0.14681367035E+01  0.49365588922E+03  0.49370364822E+03  0.00000000000E+00 0.  1.
         11    1    1    2    0    0  0.39636978989E+01  0.55417919020E+01 -0.49385579864E+03  0.49390279631E+03  0.00000000000E+00 0. -1.
        -15    1    1    2    0    0 -0.85027735059E+01 -0.29357975191E+01  0.11036255059E+01  0.92353550351E+01  0.17770000000E+01 0. -1.
         15    1    1    2    0    0 -0.21691192061E+01 -0.11378576794E+01 -0.90371608490E+00  0.31582004355E+01  0.17770000000E+01 0.  1.
</event>
<event>
 6   1  0.3798113E-04  0.5136465E+03  0.7546771E-02  0.9369782E-01
        -11   -1    0    0    0    0  0.00000000000E+00  0.00000000000E+00  0.50000000000E+03  0.50000000000E+03  0.00000000000E+00 0.  1.
         11   -1    0    0    0    0 -0.00000000000E+00 -0.00000000000E+00 -0.50000000000E+03  0.50000000000E+03  0.00000000000E+00 0.  1.
        -11    1    1    2    0    0 -0.11547434246E+02 -0.19146616589E+02  0.46519770958E+03  0.46573473691E+03  0.00000000000E+00 0.  1.
         11    1    1    2    0    0  0.16636672484E+02 -0.94131232650E+01 -0.48597769111E+03  0.48635347435E+03  0.00000000000E+00 0.  1.
        -15    1    1    2    0    0  0.44317648290E+01  0.27073364901E+02  0.25078593532E+02  0.37211573591E+02  0.17770000000E+01 0. -1.
         15    1    1    2    0    0 -0.95210030672E+01  0.14863749530E+01 -0.42986120104E+01  0.10700215144E+02  0.17770000000E+01 0.  1.
</event>
<event>
 6   1  0.3798113E-04  0.5088460E+03  0.7546771E-02  0.9380231E-01
        -11   -1    0    0    0    0  0.00000000000E+00  0.00000000000E+00  0.50000000000E+03  0.50000000000E+03  0.00000000000E+00 0.  1.
         11   -1    0    0    0    0 -0.00000000000E+00 -0.00000000000E+00 -0.50000000000E+03  0.50000000000E+03  0.00000000000E+00 0.  1.
        -11    1    1    2    0    0  0.30549035282E+02  0.67431680642E+02  0.14894672582E+03  0.16632919841E+03  0.00000000000E+00 0.  1.
         11    1    1    2    0    0 -0.33848365738E+01 -0.42458367389E+02 -0.48930362276E+03  0.49115395277E+03  0.00000000000E+00 0.  1.
        -15    1    1    2    0    0 -0.18453228988E+02 -0.22283350508E+02  0.24506679742E+03  0.24677512496E+03  0.17770000000E+01 0.  1.
         15    1    1    2    0    0 -0.87109697200E+01 -0.26899627455E+01  0.95290099516E+02  0.95741723861E+02  0.17770000000E+01 0. -1.
</event>
<event>
 6   1  0.3798113E-04  0.5001018E+03  0.7546771E-02  0.9399582E-01
        -11   -1    0    0    0    0  0.00000000000E+00  0.00000000000E+00  0.50000000000E+03  0.50000000000E+03  0.00000000000E+00 0.  1.
         11   -1    0    0    0    0 -0.00000000000E+00 -0.00000000000E+00 -0.50000000000E+03  0.50000000000E+03  0.00000000000E+00 0.  1.
        -11    1    1    2    0    0  0.11950983097E+01 -0.16065706881E+02  0.36179102092E+03  0.36214952439E+03  0.00000000000E+00 0.  1.
         11    1    1    2    0    0  0.56118233987E+00  0.14816357741E+02 -0.49967823230E+03  0.49989816485E+03  0.00000000000E+00 0.  1.
        -15    1    1    2    0    0 -0.78608664484E+00  0.99882028411E+00  0.65950648156E+02  0.65986826681E+02  0.17770000000E+01 0. -1.
         15    1    1    2    0    0 -0.97019400471E+00  0.25052885622E+00  0.71936563227E+02  0.71965484081E+02  0.17770000000E+01 0.  1.
</event>
<event>
 6   1  0.3798113E-04  0.5004507E+03  0.7546771E-02  0.9398802E-01
        -11   -1    0    0    0    0  0.00000000000E+00  0.00000000000E+00  0.50000000000E+03  0.50000000000E+03  0.00000000000E+00 0. -1.
         11   -1    0    0    0    0 -0.00000000000E+00 -0.00000000000E+00 -0.50000000000E+03  0.50000000000E+03  0.00000000000E+00 0.  1.
        -11    1    1    2    0    0  0.66931118992E+01 -0.12053078389E+02  0.49935900849E+03  0.49954929067E+03  0.00000000000E+00 0. -1.
         11    1    1    2    0    0  0.43017920986E+01 -0.13303437270E+00 -0.27966729266E+03  0.27970040704E+03  0.00000000000E+00 0.  1.
        -15    1    1    2    0    0 -0.10060108868E+01  0.22379434936E+01 -0.12130443573E+03  0.12134226101E+03  0.17770000000E+01 0. -1.
         15    1    1    2    0    0 -0.99888931109E+01  0.99481692684E+01 -0.98387280099E+02  0.99408041283E+02  0.17770000000E+01 0.  1.
</event>
<event>
 6   1  0.3798113E-04  0.5108442E+03  0.7546771E-02  0.9375867E-01
        -11   -1    0    0    0    0  0.00000000000E+00  0.00000000000E+00  0.50000000000E+03  0.50000000000E+03  0.00000000000E+00 0.  1.
         11   -1    0    0    0    0 -0.00000000000E+00 -0.00000000000E+00 -0.50000000000E+03  0.50000000000E+03  0.00000000000E+00 0.  1.
        -11    1    1    2    0    0  0.18063297543E+02 -0.13891806214E+01  0.46664613984E+03  0.46699767919E+03  0.00000000000E+00 0.  1.
         11    1    1    2    0    0  0.78435872796E+01 -0.14965090981E+02 -0.48886392795E+03  0.48915581961E+03  0.00000000000E+00 0.  1.
        -15    1    1    2    0    0 -0.90354115411E+01  0.18232018313E+02  0.93116455234E+01  0.22447931415E+02  0.17770000000E+01 0.  1.
         15    1    1    2    0    0 -0.16871473281E+02 -0.18777467108E+01  0.12906142580E+02  0.21398569781E+02  0.17770000000E+01 0. -1.
</event>
<event>
 6   1  0.3798113E-04  0.5013140E+03  0.7546771E-02  0.9396874E-01
        -11   -1    0    0    0    0  0.00000000000E+00  0.00000000000E+00  0.50000000000E+03  0.50000000000E+03  0.00000000000E+00 0.  1.
         11   -1    0    0    0    0 -0.00000000000E+00 -0.00000000000E+00 -0.50000000000E+03  0.50000000000E+03  0.00000000000E+00 0. -1.
        -11    1    1    2    0    0 -0.19010922308E+02  0.34583267785E+02  0.26638935709E+03  0.26929668982E+03  0.00000000000E+00 0.  1.
         11    1    1    2    0    0  0.55651500039E+01 -0.37329464286E+02 -0.49725576412E+03  0.49868602823E+03  0.00000000000E+00 0. -1.
        -15    1    1    2    0    0  0.13842509906E+02  0.82917823760E+01  0.19546315491E+03  0.19613610425E+03  0.17770000000E+01 0.  1.
         15    1    1    2    0    0 -0.39673760166E+00 -0.55455858750E+01  0.35403252122E+02  0.35881177701E+02  0.17770000000E+01 0. -1.
</event>
<event>
 6   1  0.3798113E-04  0.5002192E+03  0.7546771E-02  0.9399319E-01
        -11   -1    0    0    0    0  0.00000000000E+00  0.00000000000E+00  0.50000000000E+03  0.50000000000E+03  0.00000000000E+00 0. -1.
         11   -1    0    0    0    0 -0.00000000000E+00 -0.00000000000E+00 -0.50000000000E+03  0.50000000000E+03  0.00000000000E+00 0.  1.
        -11    1    1    2    0    0 -0.12018254051E+01  0.31083044900E+02  0.49881187248E+03  0.49978083615E+03  0.00000000000E+00 0. -1.
         11    1    1    2    0    0 -0.31403686566E+01 -0.39177003279E+01 -0.13217021639E+03  0.13226555255E+03  0.00000000000E+00 0.  1.
        -15    1    1    2    0    0 -0.42606691033E+01 -0.15924949234E+02 -0.17621234645E+03  0.17699069490E+03  0.17770000000E+01 0. -1.
         15    1    1    2    0    0  0.86028631650E+01 -0.11240395338E+02 -0.19042930963E+03  0.19096291640E+03  0.17770000000E+01 0.  1.
</event>
<event>
 6   1  0.3798113E-04  0.5028038E+03  0.7546771E-02  0.9393558E-01
        -11   -1    0    0    0    0  0.00000000000E+00  0.00000000000E+00  0.50000000000E+03  0.50000000000E+03  0.00000000000E+00 0. -1.
         11   -1    0    0    0    0 -0.00000000000E+00 -0.00000000000E+00 -0.50000000000E+03  0.50000000000E+03  0.00000000000E+00 0.  1.
        -11    1    1    2    0    0  0.73987110239E+01 -0.18853552238E+02  0.49678351337E+03  0.49719619520E+03  0.00000000000E+00 0. -1.
         11    1    1    2    0    0  0.49170087250E+01  0.64644582221E+01 -0.46806368316E+03  0.46813414498E+03  0.00000000000E+00 0.  1.
        -15    1    1    2    0    0 -0.68533419951E+01  0.45925550173E+01 -0.72839943431E+01  0.11147832107E+02  0.17770000000E+01 0.  1.
         15    1    1    2    0    0 -0.54623777537E+01  0.77965389980E+01 -0.21435835866E+02  0.23521827721E+02  0.17770000000E+01 0. -1.
</event>
<event>
 6   1  0.3798113E-04  0.5008573E+03  0.7546771E-02  0.9397893E-01
        -11   -1    0    0    0    0  0.00000000000E+00  0.00000000000E+00  0.50000000000E+03  0.50000000000E+03  0.00000000000E+00 0.  1.
         11   -1    0    0    0    0 -0.00000000000E+00 -0.00000000000E+00 -0.50000000000E+03  0.50000000000E+03  0.00000000000E+00 0. -1.
        -11    1    1    2    0    0  0.64047100800E+01  0.77692206580E+01  0.49904112738E+03  0.49914269294E+03  0.00000000000E+00 0.  1.
         11    1    1    2    0    0 -0.81805326579E+01  0.37797538334E+01 -0.40492764262E+03  0.40502790449E+03  0.00000000000E+00 0. -1.
        -15    1    1    2    0    0 -0.49617218155E+01 -0.48452344679E+01 -0.58140106666E+02  0.58579217411E+02  0.17770000000E+01 0. -1.
         15    1    1    2    0    0  0.67375443934E+01 -0.67037400235E+01 -0.35973378086E+02  0.37250185163E+02  0.17770000000E+01 0.  1.
</event>
<event>
 6   1  0.3798113E-04  0.5001045E+03  0.7546771E-02  0.9399576E-01
        -11   -1    0    0    0    0  0.00000000000E+00  0.00000000000E+00  0.50000000000E+03  0.50000000000E+03  0.00000000000E+00 0. -1.
         11   -1    0    0    0    0 -0.00000000000E+00 -0.00000000000E+00 -0.50000000000E+03  0.50000000000E+03  0.00000000000E+00 0. -1.
        -11    1    1    2    0    0  0.65765273266E+01 -0.72365109263E+01  0.20236522753E+03  0.20260134036E+03  0.00000000000E+00 0. -1.
         11    1    1    2    0    0 -0.10662599030E+02  0.24998726863E+01 -0.49977556942E+03  0.49989554926E+03  0.00000000000E+00 0. -1.
        -15    1    1    2    0    0  0.13294856466E+01  0.20110155052E+01  0.92734935823E+02  0.92783283875E+02  0.17770000000E+01 0. -1.
         15    1    1    2    0    0  0.27565860572E+01  0.27256227348E+01  0.20467540607E+03  0.20471982651E+03  0.17770000000E+01 0. -1.
</event>
<event>
 6   1  0.3798113E-04  0.4865250E+03  0.7546771E-02  0.9430476E-01
        -11   -1    0    0    0    0  0.00000000000E+00  0.00000000000E+00  0.50000000000E+03  0.50000000000E+03  0.00000000000E+00 0.  1.
         11   -1    0    0    0    0 -0.00000000000E+00 -0.00000000000E+00 -0.50000000000E+03  0.50000000000E+03  0.00000000000E+00 0.  1.
        -11    1    1    2    0    0 -0.10719405857E+02  0.33638810580E+00  0.48888816413E+03  0.48900578304E+03  0.00000000000E+00 0.  1.
         11    1    1    2    0    0  0.92190862281E+01  0.82541948522E+01 -0.48393778919E+03  0.48409596889E+03  0.00000000000E+00 0.  1.
        -15    1    1    2    0    0  0.24931325335E+01 -0.74446660497E+01  0.93904700504E+01  0.12368404068E+02  0.17770000000E+01 0.  1.
         15    1    1    2    0    0 -0.99281290473E+00 -0.11459169082E+01 -0.14340844985E+02  0.14529844008E+02  0.17770000000E+01 0. -1.
</event>
<event>
 6   1  0.3798113E-04  0.4930863E+03  0.7546771E-02  0.9415414E-01
        -11   -1    0    0    0    0  0.00000000000E+00  0.00000000000E+00  0.50000000000E+03  0.50000000000E+03  0.00000000000E+00 0. -1.
         11   -1    0    0    0    0 -0.00000000000E+00 -0.00000000000E+00 -0.50000000000E+03  0.50000000000E+03  0.00000000000E+00 0. -1.
        -11    1    1    2    0    0  0.56757162195E+01 -0.61629714213E+01  0.49149489107E+03  0.49156629657E+03  0.00000000000E+00 0. -1.
         11    1    1    2    0    0  0.17470605982E+01  0.81552501831E+01 -0.49457069413E+03  0.49464101308E+03  0.00000000000E+00 0. -1.
        -15    1    1    2    0    0 -0.78024523554E+01 -0.52788404262E+01  0.29687574560E+01  0.10035719647E+02  0.17770000000E+01 0. -1.
         15    1    1    2    0    0  0.37967553771E+00  0.32865616644E+01  0.10704560367E+00  0.37569707011E+01  0.17770000000E+01 0.  1.
</event>
<event>
 6   1  0.3798113E-04  0.4923639E+03  0.7546771E-02  0.9417060E-01
        -11   -1    0    0    0    0  0.00000000000E+00  0.00000000000E+00  0.50000000000E+03  0.50000000000E+03  0.00000000000E+00 0.  1.
         11   -1    0    0    0    0 -0.00000000000E+00 -0.00000000000E+00 -0.50000000000E+03  0.50000000000E+03  0.00000000000E+00 0. -1.
        -11    1    1    2    0    0 -0.11257990987E+02 -0.30770288865E+00  0.49297108971E+03  0.49309971845E+03  0.00000000000E+00 0.  1.
         11    1    1    2    0    0  0.78368677033E+01  0.20735896917E+01 -0.49156983637E+03  0.49163667510E+03  0.00000000000E+00 0. -1.
        -15    1    1    2    0    0 -0.38521589691E+01 -0.11711868895E+01  0.40517312424E+01  0.59820617277E+01  0.17770000000E+01 0.  1.
         15    1    1    2    0    0  0.72732822525E+01 -0.59469991354E+00 -0.54529845770E+01  0.92815447265E+01  0.17770000000E+01 0. -1.
</event>
<event>
 6   1  0.3798113E-04  0.5024950E+03  0.7546771E-02  0.9394244E-01
        -11   -1    0    0    0    0  0.00000000000E+00  0.00000000000E+00  0.50000000000E+03  0.50000000000E+03  0.00000000000E+00 0. -1.
         11   -1    0    0    0    0 -0.00000000000E+00 -0.00000000000E+00 -0.50000000000E+03  0.50000000000E+03  0.00000000000E+00 0.  1.
        -11    1    1    2    0    0  0.12006034558E+02 -0.16504355970E+02  0.24954457653E+03  0.25037778317E+03  0.00000000000E+00 0. -1.
         11    1    1    2    0    0 -0.50281699770E+01 -0.23205738362E+02 -0.49693810475E+03  0.49750504393E+03  0.00000000000E+00 0.  1.
        -15    1    1    2    0    0  0.20349234769E+01  0.10743575871E+02  0.21474521797E+02  0.24163570752E+02  0.17770000000E+01 0.  1.
         15    1    1    2    0    0 -0.90127880583E+01  0.28966518461E+02  0.22591900642E+03  0.22795360214E+03  0.17770000000E+01 0. -1.
</event>
<event>
 6   1  0.3798113E-04  0.5027013E+03  0.7546771E-02  0.9393786E-01
        -11   -1    0    0    0    0  0.00000000000E+00  0.00000000000E+00  0.50000000000E+03  0.50000000000E+03  0.00000000000E+00 0.  1.
         11   -1    0    0    0    0 -0.00000000000E+00 -0.00000000000E+00 -0.50000000000E+03  0.50000000000E+03  0.00000000000E+00 0.  1.
        -11    1    1    2    0    0 -0.26977378741E+01  0.18639885146E+02  0.29255037116E+03  0.29315600415E+03  0.00000000000E+00 0.  1.
         11    1    1    2    0    0  0.81561038653E+01  0.75486730001E+01 -0.49717455712E+03  0.49729874798E+03  0.00000000000E+00 0.  1.
        -15    1    1    2    0    0 -0.54690829207E+01  0.14557068743E+01  0.43290214223E+01  0.73435758301E+01  0.17770000000E+01 0. -1.
         15    1    1    2    0    0  0.10716929538E-01 -0.27644265020E+02  0.20029516455E+03  0.20220167203E+03  0.17770000000E+01 0.  1.
</event>
<event>
 6   1  0.3798113E-04  0.5097202E+03  0.7546771E-02  0.9378319E-01
        -11   -1    0    0    0    0  0.00000000000E+00  0.00000000000E+00  0.50000000000E+03  0.50000000000E+03  0.00000000000E+00 0. -1.
         11   -1    0    0    0    0 -0.00000000000E+00 -0.00000000000E+00 -0.50000000000E+03  0.50000000000E+03  0.00000000000E+00 0. -1.
        -11    1    1    2    0    0  0.30833039407E+02 -0.24683946880E+02  0.48868630404E+03  0.49027979492E+03  0.00000000000E+00 0. -1.
         11    1    1    2    0    0 -0.20808872958E+01  0.29747101658E+02 -0.41061619164E+03  0.41169755523E+03  0.00000000000E+00 0. -1.
        -15    1    1    2    0    0 -0.35647832910E+02  0.19528494282E+01 -0.24044348064E+02  0.43079809829E+02  0.17770000000E+01 0. -1.
         15    1    1    2    0    0  0.68956807987E+01 -0.70160042070E+01 -0.54025764335E+02  0.54942840022E+02  0.17770000000E+01 0.  1.
</event>
<event>
 6   1  0.3798113E-04  0.5007488E+03  0.7546771E-02  0.9398136E-01
        -11   -1    0    0    0    0  0.00000000000E+00  0.00000000000E+00  0.50000000000E+03  0.50000000000E+03  0.00000000000E+00 0.  1.
         11   -1    0    0    0    0 -0.00000000000E+00 -0.00000000000E+00 -0.50000000000E+03  0.50000000000E+03  0.00000000000E+00 0.  1.
        -11    1    1    2    0    0  0.14912432617E+02  0.82046217790E+01  0.10622883376E+03  0.10758374221E+03  0.00000000000E+00 0.  1.
         11    1    1    2    0    0 -0.19033558304E+02  0.18700374645E+01 -0.49888469550E+03  0.49925115201E+03  0.00000000000E+00 0.  1.
        -15    1    1    2    0    0  0.49586531904E+01  0.29690249614E+01  0.17925868532E+03  0.17936063488E+03  0.17770000000E+01 0. -1.
         15    1    1    2    0    0 -0.83752750335E+00 -0.13043684205E+02  0.21339717641E+03  0.21380447091E+03  0.17770000000E+01 0.  1.
</event>
<event>
 6   1  0.3798113E-04  0.5008978E+03  0.7546771E-02  0.9397803E-01
        -11   -1    0    0    0    0  0.00000000000E+00  0.00000000000E+00  0.50000000000E+03  0.50000000000E+03  0.00000000000E+00 0.  1.
         11   -1    0    0    0    0 -0.00000000000E+00 -0.00000000000E+00 -0.50000000000E+03  0.50000000000E+03  0.00000000000E+00 0. -1.
        -11    1    1    2    0    0 -0.10387782118E+02 -0.10452698232E+02  0.49888460910E+03  0.49910221209E+03  0.00000000000E+00 0.  1.
         11    1    1    2    0    0 -0.84124186330E+00 -0.53666199734E+01 -0.37728987776E+03  0.37732898134E+03  0.00000000000E+00 0. -1.
        -15    1    1    2    0    0  0.74483818386E+01  0.51803249336E+01 -0.76133330066E+02  0.76692606126E+02  0.17770000000E+01 0. -1.
         15    1    1    2    0    0  0.37806421427E+01  0.10638993272E+02 -0.45461401276E+02  0.46876200441E+02  0.17770000000E+01 0.  1.
</event>
<event>
 6   1  0.3798113E-04  0.5048826E+03  0.7546771E-02  0.9388950E-01
        -11   -1    0    0    0    0  0.00000000000E+00  0.00000000000E+00  0.50000000000E+03  0.50000000000E+03  0.00000000000E+00 0.  1.
         11   -1    0    0    0    0 -0.00000000000E+00 -0.00000000000E+00 -0.50000000000E+03  0.50000000000E+03  0.00000000000E+00 0. -1.
        -11    1    1    2    0    0  0.25311338707E+02  0.55448941674E+01  0.39190033024E+03  0.39275600385E+03  0.00000000000E+00 0.  1.
         11    1    1    2    0    0 -0.74883189294E+01  0.23151398285E+01 -0.49505536633E+03  0.49511741085E+03  0.00000000000E+00 0. -1.
        -15    1    1    2    0    0 -0.38846444388E+00 -0.69811917696E+01  0.89764595273E+02  0.90054029542E+02  0.17770000000E+01 0.  1.
         15    1    1    2    0    0 -0.17434555333E+02 -0.87884222637E+00  0.13390440818E+02  0.22072555757E+02  0.17770000000E+01 0. -1.
</event>
<event>
 6   1  0.3798113E-04  0.5041542E+03  0.7546771E-02  0.9390562E-01
        -11   -1    0    0    0    0  0.00000000000E+00  0.00000000000E+00  0.50000000000E+03  0.50000000000E+03  0.00000000000E+00 0. -1.
         11   -1    0    0    0    0 -0.00000000000E+00 -0.00000000000E+00 -0.50000000000E+03  0.50000000000E+03  0.00000000000E+00 0.  1.
        -11    1    1    2    0    0  0.60956471823E+02 -0.12931010505E+01  0.49208305943E+03  0.49584584393E+03  0.00000000000E+00 0. -1.
         11    1    1    2    0    0 -0.45521842957E+01  0.67380221496E+01 -0.34023005834E+03  0.34032721890E+03  0.00000000000E+00 0.  1.
        -15    1    1    2    0    0 -0.13239748269E+01 -0.17572063842E+01 -0.72094668213E+00  0.29185915674E+01  0.17770000000E+01 0.  1.
         15    1    1    2    0    0 -0.55080312700E+02 -0.36877147149E+01 -0.15113205440E+03  0.16090834560E+03  0.17770000000E+01 0. -1.
</event>
<event>
 6   1  0.3798113E-04  0.5035202E+03  0.7546771E-02  0.9391967E-01
        -11   -1    0    0    0    0  0.00000000000E+00  0.00000000000E+00  0.50000000000E+03  0.50000000000E+03  0.00000000000E+00 0.  1.
         11   -1    0    0    0    0 -0.00000000000E+00 -0.00000000000E+00 -0.50000000000E+03  0.50000000000E+03  0.00000000000E+00 0.  1.
        -11    1    1    2    0    0 -0.12607729197E+01 -0.33585414977E+02  0.28590007104E+03  0.28786875529E+03  0.00000000000E+00 0.  1.
         11    1    1    2    0    0  0.44378137991E+02  0.88174082120E+01 -0.49441381828E+03  0.49647979770E+03  0.00000000000E+00 0.  1.
        -15    1    1    2    0    0 -0.22500198491E+02  0.20170051374E+02  0.15794373426E+03  0.16081812965E+03  0.17770000000E+01 0.  1.
         15    1    1    2    0    0 -0.20617166580E+02  0.45979553907E+01  0.50570012978E+02  0.54833317365E+02  0.17770000000E+01 0. -1.
</event>
<event>
 6   1  0.3798113E-04  0.5007495E+03  0.7546771E-02  0.9398134E-01
        -11   -1    0    0    0    0  0.00000000000E+00  0.00000000000E+00  0.50000000000E+03  0.50000000000E+03  0.00000000000E+00 0.  1.
         11   -1    0    0    0    0 -0.00000000000E+00 -0.00000000000E+00 -0.50000000000E+03  0.50000000000E+03  0.00000000000E+00 0. -1.
        -11    1    1    2    0    0 -0.39506381759E+01 -0.60924090827E+01  0.38074050459E+03  0.38080973835E+03  0.00000000000E+00 0.  1.
         11    1    1    2    0    0 -0.10791370338E+02  0.22817681481E+01 -0.49912861896E+03  0.49925047662E+03  0.00000000000E+00 0. -1.
        -15    1    1    2    0    0  0.11970710013E+01  0.22778074425E+00  0.53003457092E+02  0.53047234195E+02  0.17770000000E+01 0.  1.
         15    1    1    2    0    0  0.13544937512E+02  0.35828601903E+01  0.65384657282E+02  0.66892550828E+02  0.17770000000E+01 0. -1.
</event>
<event>
 6   1  0.3798113E-04  0.5001688E+03  0.7546771E-02  0.9399432E-01
        -11   -1    0    0    0    0  0.00000000000E+00  0.00000000000E+00  0.50000000000E+03  0.50000000000E+03  0.00000000000E+00 0.  1.
         11   -1    0    0    0    0 -0.00000000000E+00 -0.00000000000E+00 -0.50000000000E+03  0.50000000000E+03  0.00000000000E+00 0.  1.
        -11    1    1    2    0    0 -0.17167359943E+01 -0.15892213558E+02  0.49957553530E+03  0.49983119661E+03  0.00000000000E+00 0.  1.
         11    1    1    2    0    0  0.30494849530E+01 -0.23977797614E+01 -0.12207591682E+03  0.12213753794E+03  0.00000000000E+00 0.  1.
        -15    1    1    2    0    0  0.13695676304E+01  0.61657959493E+01 -0.80609999088E+02  0.80876587695E+02  0.17770000000E+01 0. -1.
         15    1    1    2    0    0 -0.27023165891E+01  0.12124197370E+02 -0.29688961940E+03  0.29715467776E+03  0.17770000000E+01 0.  1.
</event>
<event>
 6   1  0.3798113E-04  0.5014172E+03  0.7546771E-02  0.9396644E-01
        -11   -1    0    0    0    0  0.00000000000E+00  0.00000000000E+00  0.50000000000E+03  0.50000000000E+03  0.00000000000E+00 0. -1.
         11   -1    0    0    0    0 -0.00000000000E+00 -0.00000000000E+00 -0.50000000000E+03  0.50000000000E+03  0.00000000000E+00 0.  1.
        -11    1    1    2    0    0 -0.11196943449E+02 -0.10874708537E+01  0.49845590341E+03  0.49858283342E+03  0.00000000000E+00 0. -1.
         11    1    1    2    0    0 -0.92279868252E+01  0.19977052468E+01 -0.41988382108E+03  0.41998996390E+03  0.00000000000E+00 0.  1.
        -15    1    1    2    0    0  0.76645102413E+01 -0.22804507804E+01 -0.24871464062E+02  0.26185733264E+02  0.17770000000E+01 0.  1.
         15    1    1    2    0    0  0.12760420033E+02  0.13702163872E+01 -0.53700618267E+02  0.55241469419E+02  0.17770000000E+01 0. -1.
</event>
<event>
 6   1  0.3798113E-04  0.5039981E+03  0.7546771E-02  0.9390908E-01
        -11   -1    0    0    0    0  0.00000000000E+00  0.00000000000E+00  0.50000000000E+03  0.50000000000E+03  0.00000000000E+00 0. -1.
         11   -1    0    0    0    0 -0.00000000000E+00 -0.00000000000E+00 -0.50000000000E+03  0.50000000000E+03  0.00000000000E+00 0.  1.
        -11    1    1    2    0    0 -0.11475255126E+02  0.18676572744E+00  0.49586913836E+03  0.49600193421E+03  0.00000000000E+00 0. -1.
         11    1    1    2    0    0 -0.11562020728E+02 -0.44278324908E+01 -0.46059113254E+03  0.46075750390E+03  0.00000000000E+00 0.  1.
        -15    1    1    2    0    0  0.18684696256E+02  0.62657826376E+01 -0.29495668259E+02  0.35518024738E+02  0.17770000000E+01 0. -1.
         15    1    1    2    0    0  0.43525795982E+01 -0.20247158742E+01 -0.57823375538E+01  0.77225371553E+01  0.17770000000E+01 0.  1.
</event>
<event>
 6   1  0.3798113E-04  0.5004689E+03  0.7546771E-02  0.9398761E-01
        -11   -1    0    0    0    0  0.00000000000E+00  0.00000000000E+00  0.50000000000E+03  0.50000000000E+03  0.00000000000E+00 0.  1.
         11   -1    0    0    0    0 -0.00000000000E+00 -0.00000000000E+00 -0.50000000000E+03  0.50000000000E+03  0.00000000000E+00 0. -1.
        -11    1    1    2    0    0  0.11723139799E+02 -0.18786968780E+01  0.23094419537E+03  0.23124917920E+03  0.00000000000E+00 0.  1.
         11    1    1    2    0    0 -0.74194238100E+01  0.20290561737E+02 -0.49906373650E+03  0.49953114801E+03  0.00000000000E+00 0. -1.
        -15    1    1    2    0    0 -0.32796561160E+00 -0.20015377758E+01  0.13433912149E+03  0.13436618253E+03  0.17770000000E+01 0. -1.
         15    1    1    2    0    0 -0.39757503774E+01 -0.16410327083E+02  0.13378041964E+03  0.13485349026E+03  0.17770000000E+01 0.  1.
</event>
<event>
 6   1  0.3798113E-04  0.5009274E+03  0.7546771E-02  0.9397737E-01
        -11   -1    0    0    0    0  0.00000000000E+00  0.00000000000E+00  0.50000000000E+03  0.50000000000E+03  0.00000000000E+00 0.  1.
         11   -1    0    0    0    0 -0.00000000000E+00 -0.00000000000E+00 -0.50000000000E+03  0.50000000000E+03  0.00000000000E+00 0. -1.
        -11    1    1    2    0    0 -0.57183502428E+01  0.10001548330E+02  0.49893959250E+03  0.49907258737E+03  0.00000000000E+00 0.  1.
         11    1    1    2    0    0  0.66009680467E+01 -0.48802997681E+01 -0.44986113037E+03  0.44993602515E+03  0.00000000000E+00 0. -1.
        -15    1    1    2    0    0  0.31213776505E+01 -0.71540810072E+01 -0.39032650869E+02  0.39845067905E+02  0.17770000000E+01 0. -1.
         15    1    1    2    0    0 -0.40039954544E+01  0.20328324449E+01 -0.10045811257E+02  0.11146319579E+02  0.17770000000E+01 0.  1.
</event>
<event>
 6   1  0.3798113E-04  0.5032728E+03  0.7546771E-02  0.9392516E-01
        -11   -1    0    0    0    0  0.00000000000E+00  0.00000000000E+00  0.50000000000E+03  0.50000000000E+03  0.00000000000E+00 0.  1.
         11   -1    0    0    0    0 -0.00000000000E+00 -0.00000000000E+00 -0.50000000000E+03  0.50000000000E+03  0.00000000000E+00 0.  1.
        -11    1    1    2    0    0  0.57315010826E+01  0.13403669454E+02  0.49651324317E+03  0.49672719787E+03  0.00000000000E+00 0.  1.
         11    1    1    2    0    0 -0.42897554256E+01  0.66219451805E+01 -0.45372495235E+03  0.45379354838E+03  0.00000000000E+00 0.  1.
        -15    1    1    2    0    0 -0.20290958778E+00 -0.51947355795E+01 -0.27597213801E+02  0.28138770205E+02  0.17770000000E+01 0. -1.
         15    1    1    2    0    0 -0.12388360692E+01 -0.14830879055E+02 -0.15191077013E+02  0.21340483551E+02  0.17770000000E+01 0.  1.
</event>
<event>
 6   1  0.3798113E-04  0.5023797E+03  0.7546771E-02  0.9394501E-01
        -11   -1    0    0    0    0  0.00000000000E+00  0.00000000000E+00  0.50000000000E+03  0.50000000000E+03  0.00000000000E+00 0.  1.
         11   -1    0    0    0    0 -0.00000000000E+00 -0.00000000000E+00 -0.50000000000E+03  0.50000000000E+03  0.00000000000E+00 0.  1.
        -11    1    1    2    0    0  0.47160214068E+01  0.11792725755E+02  0.43931165893E+03  0.43949521375E+03  0.00000000000E+00 0.  1.
         11    1    1    2    0    0 -0.53305119510E+00  0.68836325111E+01 -0.49757238938E+03  0.49762028818E+03  0.00000000000E+00 0.  1.
        -15    1    1    2    0    0 -0.17686291416E+01 -0.54826040581E+00  0.10108938401E+01  0.27583099661E+01  0.17770000000E+01 0. -1.
         15    1    1    2    0    0 -0.24143410700E+01 -0.18128097860E+02  0.57249836609E+02  0.60126188101E+02  0.17770000000E+01 0.  1.
</event>
<event>
 6   1  0.3798113E-04  0.4763604E+03  0.7546771E-02  0.9454316E-01
        -11   -1    0    0    0    0  0.00000000000E+00  0.00000000000E+00  0.50000000000E+03  0.50000000000E+03  0.00000000000E+00 0. -1.
         11   -1    0    0    0    0 -0.00000000000E+00 -0.00000000000E+00 -0.50000000000E+03  0.50000000000E+03  0.00000000000E+00 0.  1.
        -11    1    1    2    0    0  0.96425857193E+01 -0.68602753061E+01  0.46880181470E+03  0.46895115343E+03  0.00000000000E+00 0. -1.
         11    1    1    2    0    0  0.21342417060E+02  0.64918070881E+01 -0.48387871201E+03  0.48439266123E+03  0.00000000000E+00 0.  1.
        -15    1    1    2    0    0 -0.20092343501E+02 -0.60981787765E+01 -0.60807854483E+01  0.21932253246E+02  0.17770000000E+01 0.  1.
         15    1    1    2    0    0 -0.10892659277E+02  0.64666469944E+01  0.21157682751E+02  0.24723932088E+02  0.17770000000E+01 0. -1.
</event>
<event>
 6   1  0.3798113E-04  0.4936110E+03  0.7546771E-02  0.9414220E-01
        -11   -1    0    0    0    0  0.00000000000E+00  0.00000000000E+00  0.50000000000E+03  0.50000000000E+03  0.00000000000E+00 0.  1.
         11   -1    0    0    0    0 -0.00000000000E+00 -0.00000000000E+00 -0.50000000000E+03  0.50000000000E+03  0.00000000000E+00 0. -1.
        -11    1    1    2    0    0 -0.11919139762E+02 -0.22600722434E+01  0.64895491803E+01  0.13758200019E+02  0.00000000000E+00 0.  1.
         11    1    1    2    0    0  0.32000924402E+01  0.27769091154E+02 -0.49505820745E+03  0.49584674223E+03  0.00000000000E+00 0. -1.
        -15    1    1    2    0    0  0.91551262997E+00 -0.17876955172E+02  0.44756160409E+03  0.44792295194E+03  0.17770000000E+01 0.  1.
         15    1    1    2    0    0  0.78035346917E+01 -0.76320637385E+01  0.41007054182E+02  0.42472105814E+02  0.17770000000E+01 0. -1.
</event>
<event>
 6   1  0.3798113E-04  0.5035418E+03  0.7546771E-02  0.9391919E-01
        -11   -1    0    0    0    0  0.00000000000E+00  0.00000000000E+00  0.50000000000E+03  0.50000000000E+03  0.00000000000E+00 0.  1.
         11   -1    0    0    0    0 -0.00000000000E+00 -0.00000000000E+00 -0.50000000000E+03  0.50000000000E+03  0.00000000000E+00 0.  1.
        -11    1    1    2    0    0  0.11509759177E+02 -0.61026903590E+01  0.49628720151E+03  0.49645815913E+03  0.00000000000E+00 0.  1.
         11    1    1    2    0    0  0.26906316292E+01 -0.98704317875E+01 -0.46030222814E+03  0.46041590562E+03  0.00000000000E+00 0.  1.
        -15    1    1    2    0    0 -0.46312990362E+01  0.35529332700E+01 -0.35571918636E+01  0.70628328975E+01  0.17770000000E+01 0. -1.
         15    1    1    2    0    0 -0.95690917697E+01  0.12420188877E+02 -0.32427781506E+02  0.36063102355E+02  0.17770000000E+01 0.  1.
</event>
<event>
 6   1  0.3798113E-04  0.5016334E+03  0.7546771E-02  0.9396162E-01
        -11   -1    0    0    0    0  0.00000000000E+00  0.00000000000E+00  0.50000000000E+03  0.50000000000E+03  0.00000000000E+00 0. -1.
         11   -1    0    0    0    0 -0.00000000000E+00 -0.00000000000E+00 -0.50000000000E+03  0.50000000000E+03  0.00000000000E+00 0. -1.
        -11    1    1    2    0    0 -0.40799682330E+02 -0.30993157611E+02  0.49572576962E+03  0.49836656044E+03  0.00000000000E+00 0. -1.
         11    1    1    2    0    0  0.22439021948E+02 -0.15365124994E+01 -0.24135686759E+03  0.24240257447E+03  0.00000000000E+00 0. -1.
        -15    1    1    2    0    0  0.42854350241E+01 -0.17235349308E+00 -0.34284332675E+01  0.57711820923E+01  0.17770000000E+01 0. -1.
         15    1    1    2    0    0  0.14075225358E+02  0.32702023603E+02 -0.25094046876E+03  0.25345968300E+03  0.17770000000E+01 0.  1.
</event>
<event>
 6   1  0.3798113E-04  0.5011142E+03  0.7546771E-02  0.9397320E-01
        -11   -1    0    0    0    0  0.00000000000E+00  0.00000000000E+00  0.50000000000E+03  0.50000000000E+03  0.00000000000E+00 0.  1.
         11   -1    0    0    0    0 -0.00000000000E+00 -0.00000000000E+00 -0.50000000000E+03  0.50000000000E+03  0.00000000000E+00 0. -1.
        -11    1    1    2    0    0 -0.63684118421E+02 -0.47134339095E+02  0.42524283578E+03  0.43256072666E+03  0.00000000000E+00 0.  1.
         11    1    1    2    0    0  0.63045725129E+02  0.42401052019E+02 -0.49306637800E+03  0.49888582439E+03  0.00000000000E+00 0. -1.
        -15    1    1    2    0    0 -0.41249164956E+00  0.60281591557E+01  0.60673655047E+02  0.60999663917E+02  0.17770000000E+01 0.  1.
         15    1    1    2    0    0  0.10508849415E+01 -0.12948720791E+01  0.71498871641E+01  0.75537850327E+01  0.17770000000E+01 0. -1.
</event>
<event>
 6   1  0.3798113E-04  0.5012227E+03  0.7546771E-02  0.9397078E-01
        -11   -1    0    0    0    0  0.00000000000E+00  0.00000000000E+00  0.50000000000E+03  0.50000000000E+03  0.00000000000E+00 0.  1.
         11   -1    0    0    0    0 -0.00000000000E+00 -0.00000000000E+00 -0.50000000000E+03  0.50000000000E+03  0.00000000000E+00 0.  1.
        -11    1    1    2    0    0 -0.43591127892E+01  0.84093904004E+01  0.49868736001E+03  0.49877730777E+03  0.00000000000E+00 0.  1.
         11    1    1    2    0    0 -0.34202668304E+01  0.82472169075E+01 -0.36286029846E+03  0.36297012413E+03  0.00000000000E+00 0.  1.
        -15    1    1    2    0    0  0.51529413398E+01 -0.55685943099E+01 -0.10580663689E+03  0.10609318634E+03  0.17770000000E+01 0.  1.
         15    1    1    2    0    0  0.26264382798E+01 -0.11088012998E+02 -0.30020424659E+02  0.32159381772E+02  0.17770000000E+01 0. -1.
</event>
<event>
 6   1  0.3798113E-04  0.4875507E+03  0.7546771E-02  0.9428105E-01
        -11   -1    0    0    0    0  0.00000000000E+00  0.00000000000E+00  0.50000000000E+03  0.50000000000E+03  0.00000000000E+00 0. -1.
         11   -1    0    0    0    0 -0.00000000000E+00 -0.00000000000E+00 -0.50000000000E+03  0.50000000000E+03  0.00000000000E+00 0. -1.
        -11    1    1    2    0    0 -0.10732416731E+02 -0.12666206327E+02  0.49099131002E+03  0.49127190442E+03  0.00000000000E+00 0. -1.
         11    1    1    2    0    0 -0.90619635617E+01  0.34897872482E+01 -0.48400119165E+03  0.48409859669E+03  0.00000000000E+00 0. -1.
        -15    1    1    2    0    0  0.16748646229E+02  0.95387232131E+01 -0.35290725214E+01  0.19675275676E+02  0.17770000000E+01 0. -1.
         15    1    1    2    0    0  0.30457340637E+01 -0.36230413447E+00 -0.34610458491E+01  0.49542232128E+01  0.17770000000E+01 0. -1.
</event>
<event>
 6   1  0.3798113E-04  0.5004511E+03  0.7546771E-02  0.9398801E-01
        -11   -1    0    0    0    0  0.00000000000E+00  0.00000000000E+00  0.50000000000E+03  0.50000000000E+03  0.00000000000E+00 0. -1.
         11   -1    0    0    0    0 -0.00000000000E+00 -0.00000000000E+00 -0.50000000000E+03  0.50000000000E+03  0.00000000000E+00 0.  1.
        -11    1    1    2    0    0  0.18994671250E+01  0.10384756896E+02  0.38357308092E+03  0.38371833362E+03  0.00000000000E+00 0. -1.
         11    1    1    2    0    0 -0.84057719124E+01 -0.12316447966E+01 -0.49947663786E+03  0.49954888222E+03  0.00000000000E+00 0.  1.
        -15    1    1    2    0    0  0.52515783265E+01 -0.98030693102E+01  0.10452184124E+03  0.10512683895E+03  0.17770000000E+01 0. -1.
         15    1    1    2    0    0  0.12547264609E+01  0.64995721113E+00  0.11381715705E+02  0.11605945212E+02  0.17770000000E+01 0.  1.
</event>
<event>
 6   1  0.3798113E-04  0.5021093E+03  0.7546771E-02  0.9395102E-01
        -11   -1    0    0    0    0  0.00000000000E+00  0.00000000000E+00  0.50000000000E+03  0.50000000000E+03  0.00000000000E+00 0.  1.
         11   -1    0    0    0    0 -0.00000000000E+00 -0.00000000000E+00 -0.50000000000E+03  0.50000000000E+03  0.00000000000E+00 0. -1.
        -11    1    1    2    0    0  0.54645673044E+01  0.11380247663E+02  0.49341579332E+03  0.49357726511E+03  0.00000000000E+00 0.  1.
         11    1    1    2    0    0 -0.26172281368E+01 -0.72668108804E+01 -0.49783079921E+03  0.49789071197E+03  0.00000000000E+00 0. -1.
        -15    1    1    2    0    0 -0.60506091538E+00 -0.32834233642E+01  0.40323875759E+01  0.55285482961E+01  0.17770000000E+01 0.  1.
         15    1    1    2    0    0 -0.22422782522E+01 -0.83001341866E+00  0.38261831925E+00  0.30034746234E+01  0.17770000000E+01 0. -1.
</event>
<event>
 6   1  0.3798113E-04  0.5032390E+03  0.7546771E-02  0.9392591E-01
        -11   -1    0    0    0    0  0.00000000000E+00  0.00000000000E+00  0.50000000000E+03  0.50000000000E+03  0.00000000000E+00 0.  1.
         11   -1    0    0    0    0 -0.00000000000E+00 -0.00000000000E+00 -0.50000000000E+03  0.50000000000E+03  0.00000000000E+00 0. -1.
        -11    1    1    2    0    0 -0.11367602344E+02 -0.10529519214E+01  0.46330540712E+03  0.46344603932E+03  0.00000000000E+00 0.  1.
         11    1    1    2    0    0 -0.82789709516E+01  0.29186359947E+01 -0.49668338294E+03  0.49676095124E+03  0.00000000000E+00 0. -1.
        -15    1    1    2    0    0  0.16603579599E+02 -0.61877214118E+00  0.31386988484E+02  0.35557875493E+02  0.17770000000E+01 0. -1.
         15    1    1    2    0    0  0.30429936964E+01 -0.12469119321E+01  0.19909873305E+01  0.42351339475E+01  0.17770000000E+01 0.  1.
</event>
<event>
 6   1  0.3798113E-04  0.5014807E+03  0.7546771E-02  0.9396503E-01
        -11   -1    0    0    0    0  0.00000000000E+00  0.00000000000E+00  0.50000000000E+03  0.50000000000E+03  0.00000000000E+00 0.  1.
         11   -1    0    0    0    0 -0.00000000000E+00 -0.00000000000E+00 -0.50000000000E+03  0.50000000000E+03  0.00000000000E+00 0. -1.
        -11    1    1    2    0    0  0.74268063200E+01 -0.13510566711E+02  0.39183934426E+03  0.39214253094E+03  0.00000000000E+00 0.  1.
         11    1    1    2    0    0  0.45402516880E-01 -0.70779126056E+01 -0.49846901089E+03  0.49851926113E+03  0.00000000000E+00 0. -1.
        -15    1    1    2    0    0  0.21451238337E+01  0.58594696921E+01  0.30512827231E+02  0.31194956259E+02  0.17770000000E+01 0.  1.
         15    1    1    2    0    0 -0.96173326706E+01  0.14729009625E+02  0.76116839394E+02  0.78143251664E+02  0.17770000000E+01 0. -1.
</event>
<event>
 6   1  0.3798113E-04  0.5046272E+03  0.7546771E-02  0.9389515E-01
        -11   -1    0    0    0    0  0.00000000000E+00  0.00000000000E+00  0.50000000000E+03  0.50000000000E+03  0.00000000000E+00 0.  1.
         11   -1    0    0    0    0 -0.00000000000E+00 -0.00000000000E+00 -0.50000000000E+03  0.50000000000E+03  0.00000000000E+00 0.  1.
        -11    1    1    2    0    0  0.88881014178E+01 -0.34678412773E+01  0.49009984521E+03  0.49019269940E+03  0.00000000000E+00 0.  1.
         11    1    1    2    0    0 -0.67374287758E+01  0.30989907707E+01 -0.49531728509E+03  0.49537279860E+03  0.00000000000E+00 0.  1.
        -15    1    1    2    0    0  0.36349875618E+01 -0.27747390279E+01 -0.12206108221E+01  0.50556830425E+01  0.17770000000E+01 0. -1.
         15    1    1    2    0    0 -0.57856602038E+01  0.31435895345E+01  0.64380507046E+01  0.93788189571E+01  0.17770000000E+01 0. -1.
</event>
<event>
 6   1  0.3798113E-04  0.5024202E+03  0.7546771E-02  0.9394411E-01
        -11   -1    0    0    0    0  0.00000000000E+00  0.00000000000E+00  0.50000000000E+03  0.50000000000E+03  0.00000000000E+00 0.  1.
         11   -1    0    0    0    0 -0.00000000000E+00 -0.00000000000E+00 -0.50000000000E+03  0.50000000000E+03  0.00000000000E+00 0.  1.
        -11    1    1    2    0    0 -0.40444845589E+01  0.64885963381E+01  0.49752109522E+03  0.49757984277E+03  0.00000000000E+00 0.  1.
         11    1    1    2    0    0 -0.13014258140E+02  0.31880426529E+01 -0.45522961796E+03  0.45542676645E+03  0.00000000000E+00 0.  1.
        -15    1    1    2    0    0  0.10765687194E+02 -0.84297715378E+01 -0.29931907400E+02  0.32955088811E+02  0.17770000000E+01 0.  1.
         15    1    1    2    0    0  0.62930555048E+01 -0.12468674533E+01 -0.12359569866E+02  0.14038301974E+02  0.17770000000E+01 0. -1.
</event>
<event>
 6   1  0.3798113E-04  0.1000000E+04  0.7546771E-02  0.8684367E-01
        -11   -1    0    0    0    0  0.00000000000E+00  0.00000000000E+00  0.50000000000E+03  0.50000000000E+03  0.00000000000E+00 0. -1.
         11   -1    0    0    0    0 -0.00000000000E+00 -0.00000000000E+00 -0.50000000000E+03  0.50000000000E+03  0.00000000000E+00 0. -1.
        -11    1    1    2    0    0  0.20790683186E+01  0.16595180944E+01 -0.87364425742E+02  0.87404916398E+02  0.00000000000E+00 0. -1.
         11    1    1    2    0    0 -0.14255740801E+01 -0.46033351166E+01 -0.34888949980E+03  0.34892277946E+03  0.00000000000E+00 0. -1.
        -15    1    1    2    0    0 -0.84894415028E+02  0.95352247642E+02  0.41827742128E+03  0.43733084926E+03  0.17770000000E+01 0. -1.
         15    1    1    2    0    0  0.84240920789E+02 -0.92408430620E+02  0.17976504261E+02  0.12634145487E+03  0.17770000000E+01 0.  1.
</event>
<event>
 6   1  0.3798113E-04  0.5061945E+03  0.7546771E-02  0.9386055E-01
        -11   -1    0    0    0    0  0.00000000000E+00  0.00000000000E+00  0.50000000000E+03  0.50000000000E+03  0.00000000000E+00 0.  1.
         11   -1    0    0    0    0 -0.00000000000E+00 -0.00000000000E+00 -0.50000000000E+03  0.50000000000E+03  0.00000000000E+00 0. -1.
        -11    1    1    2    0    0 -0.69545678251E+00  0.16144455959E+02  0.46944192389E+03  0.46971996660E+03  0.00000000000E+00 0.  1.
         11    1    1    2    0    0 -0.11676025529E+02 -0.44289236103E+01 -0.49364759397E+03  0.49380552039E+03  0.00000000000E+00 0. -1.
        -15    1    1    2    0    0  0.95454429838E+01  0.38601902831E+01  0.51845080628E+01  0.11664193227E+02  0.17770000000E+01 0. -1.
         15    1    1    2    0    0  0.28260393282E+01 -0.15575722632E+02  0.19021162017E+02  0.24810319774E+02  0.17770000000E+01 0.  1.
</event>
<event>
 6   1  0.3798113E-04  0.5005935E+03  0.7546771E-02  0.9398483E-01
        -11   -1    0    0    0    0  0.00000000000E+00  0.00000000000E+00  0.50000000000E+03  0.50000000000E+03  0.00000000000E+00 0.  1.
         11   -1    0    0    0    0 -0.00000000000E+00 -0.00000000000E+00 -0.50000000000E+03  0.50000000000E+03  0.00000000000E+00 0.  1.
        -11    1    1    2    0    0 -0.51123998132E+01 -0.37422942914E+01  0.42838409557E+03  0.42843094512E+03  0.00000000000E+00 0.  1.
         11    1    1    2    0    0  0.30757439857E+01 -0.64476855642E+01 -0.49935537721E+03  0.49940647332E+03  0.00000000000E+00 0.  1.
        -15    1    1    2    0    0 -0.24666564077E+01  0.30414115514E+01  0.19137492456E+02  0.19614686451E+02  0.17770000000E+01 0. -1.
         15    1    1    2    0    0  0.45033122352E+01  0.71485683041E+01  0.51833789185E+02  0.52547895107E+02  0.17770000000E+01 0.  1.
</event>
<event>
 6   1  0.3798113E-04  0.5000683E+03  0.7546771E-02  0.9399657E-01
        -11   -1    0    0    0    0  0.00000000000E+00  0.00000000000E+00  0.50000000000E+03  0.50000000000E+03  0.00000000000E+00 0.  1.
         11   -1    0    0    0    0 -0.00000000000E+00 -0.00000000000E+00 -0.50000000000E+03  0.50000000000E+03  0.00000000000E+00 0.  1.
        -11    1    1    2    0    0 -0.69120552500E+00 -0.14981681413E+02  0.49970669473E+03  0.49993170463E+03  0.00000000000E+00 0.  1.
         11    1    1    2    0    0  0.57445999370E+00 -0.60142563810E+00 -0.51516291854E+02  0.51523004993E+02  0.00000000000E+00 0.  1.
        -15    1    1    2    0    0 -0.84397891275E+00  0.13327952049E+01 -0.25649733471E+02  0.25759565206E+02  0.17770000000E+01 0.  1.
         15    1    1    2    0    0  0.96072444405E+00  0.14250311846E+02 -0.42254066940E+03  0.42278572517E+03  0.17770000000E+01 0.  1.
</event>
<event>
 6   1  0.3798113E-04  0.5033178E+03  0.7546771E-02  0.9392416E-01
        -11   -1    0    0    0    0  0.00000000000E+00  0.00000000000E+00  0.50000000000E+03  0.50000000000E+03  0.00000000000E+00 0.  1.
         11   -1    0    0    0    0 -0.00000000000E+00 -0.00000000000E+00 -0.50000000000E+03  0.50000000000E+03  0.00000000000E+00 0.  1.
        -11    1    1    2    0    0  0.17970979189E+02 -0.20093918382E+02  0.25525712046E+03  0.25667668222E+03  0.00000000000E+00 0.  1.
         11    1    1    2    0    0  0.19750981254E+02  0.86423602937E+01 -0.49621407295E+03  0.49668218998E+03  0.00000000000E+00 0.  1.
        -15    1    1    2    0    0 -0.14944230472E+02  0.38447820608E+01  0.25612021058E+02  0.29954060245E+02  0.17770000000E+01 0. -1.
         15    1    1    2    0    0 -0.22777729971E+02  0.76067760275E+01  0.21534493143E+03  0.21668706755E+03  0.17770000000E+01 0.  1.
</event>
<event>
 6   1  0.3798113E-04  0.5007061E+03  0.7546771E-02  0.9398231E-01
        -11   -1    0    0    0    0  0.00000000000E+00  0.00000000000E+00  0.50000000000E+03  0.50000000000E+03  0.00000000000E+00 0. -1.
         11   -1    0    0    0    0 -0.00000000000E+00 -0.00000000000E+00 -0.50000000000E+03  0.50000000000E+03  0.00000000000E+00 0.  1.
        -11    1    1    2    0    0 -0.23586185615E+02  0.35573904573E+00  0.49873641577E+03  0.49929394861E+03  0.00000000000E+00 0. -1.
         11    1    1    2    0    0  0.13988518331E+01 -0.30781316131E-02 -0.90656850894E+02  0.90667642574E+02  0.00000000000E+00 0.  1.
        -15    1    1    2    0    0  0.19810253252E+02  0.10796135998E+02 -0.14965716762E+03  0.15135860807E+03  0.17770000000E+01 0. -1.
         15    1    1    2    0    0  0.23770805305E+01 -0.11148796912E+02 -0.25842239725E+03  0.25867980075E+03  0.17770000000E+01 0.  1.
</event>
<event>
 6   1  0.3798113E-04  0.4609052E+03  0.7546771E-02  0.9491804E-01
        -11   -1    0    0    0    0  0.00000000000E+00  0.00000000000E+00  0.50000000000E+03  0.50000000000E+03  0.00000000000E+00 0. -1.
         11   -1    0    0    0    0 -0.00000000000E+00 -0.00000000000E+00 -0.50000000000E+03  0.50000000000E+03  0.00000000000E+00 0.  1.
        -11    1    1    2    0    0  0.51287430004E+02  0.29906043729E+02  0.44696812367E+03  0.45089386279E+03  0.00000000000E+00 0. -1.
         11    1    1    2    0    0  0.58855835120E+01  0.61141784953E+01 -0.47370038474E+03  0.47377640061E+03  0.00000000000E+00 0.  1.
        -15    1    1    2    0    0 -0.49336777439E+02 -0.32513690897E+02  0.29593814089E+02  0.66107558306E+02  0.17770000000E+01 0. -1.
         15    1    1    2    0    0 -0.78362360770E+01 -0.35065313268E+01 -0.28615530143E+01  0.92221782922E+01  0.17770000000E+01 0.  1.
</event>
<event>
 6   1  0.3798113E-04  0.4952329E+03  0.7546771E-02  0.9410540E-01
        -11   -1    0    0    0    0  0.00000000000E+00  0.00000000000E+00  0.50000000000E+03  0.50000000000E+03  0.00000000000E+00 0.  1.
         11   -1    0    0    0    0 -0.00000000000E+00 -0.00000000000E+00 -0.50000000000E+03  0.50000000000E+03  0.00000000000E+00 0.  1.
        -11    1    1    2    0    0 -0.52841387530E+01 -0.54174947216E+01  0.49648937452E+03  0.49654704751E+03  0.00000000000E+00 0.  1.
         11    1    1    2    0    0  0.78521387503E+00  0.66668005029E+01 -0.49388748799E+03  0.49393310639E+03  0.00000000000E+00 0.  1.
        -15    1    1    2    0    0  0.19825505360E-01 -0.29651995120E+01  0.56633708605E+00  0.35030369526E+01  0.17770000000E+01 0. -1.
         15    1    1    2    0    0  0.44790993726E+01  0.17158937307E+01 -0.31682236161E+01  0.60168091516E+01  0.17770000000E+01 0.  1.
</event>
<event>
 6   1  0.3798113E-04  0.5007574E+03  0.7546771E-02  0.9398117E-01
        -11   -1    0    0    0    0  0.00000000000E+00  0.00000000000E+00  0.50000000000E+03  0.50000000000E+03  0.00000000000E+00 0. -1.
         11   -1    0    0    0    0 -0.00000000000E+00 -0.00000000000E+00 -0.50000000000E+03  0.50000000000E+03  0.00000000000E+00 0.  1.
        -11    1    1    2    0    0 -0.81918939574E+01 -0.76892615446E+01  0.37930829929E+03  0.37947466027E+03  0.00000000000E+00 0. -1.
         11    1    1    2    0    0  0.11912180702E+01  0.71172011720E+01 -0.49919043949E+03  0.49924259477E+03  0.00000000000E+00 0.  1.
        -15    1    1    2    0    0  0.87337212399E+01  0.27171493416E+01  0.11514014240E+03  0.11551653954E+03  0.17770000000E+01 0.  1.
         15    1    1    2    0    0 -0.17330453527E+01 -0.21450889689E+01  0.47419977984E+01  0.57662054246E+01  0.17770000000E+01 0. -1.
</event>
<event>
 6   1  0.3798113E-04  0.5002659E+03  0.7546771E-02  0.9399215E-01
        -11   -1    0    0    0    0  0.00000000000E+00  0.00000000000E+00  0.50000000000E+03  0.50000000000E+03  0.00000000000E+00 0. -1.
         11   -1    0    0    0    0 -0.00000000000E+00 -0.00000000000E+00 -0.50000000000E+03  0.50000000000E+03  0.00000000000E+00 0.  1.
        -11    1    1    2    0    0  0.50640152725E+01  0.25025363772E+02  0.49908145885E+03  0.49973414498E+03  0.00000000000E+00 0. -1.
         11    1    1    2    0    0 -0.15658796498E+01 -0.10682911011E+01 -0.35561793445E+02  0.35612278472E+02  0.00000000000E+00 0.  1.
        -15    1    1    2    0    0 -0.10995803637E+02 -0.14881189210E+02 -0.19903749721E+03  0.19990357805E+03  0.17770000000E+01 0. -1.
         15    1    1    2    0    0  0.74976680146E+01 -0.90758834612E+01 -0.26448216820E+03  0.26474999851E+03  0.17770000000E+01 0.  1.
</event>
<event>
 6   1  0.3798113E-04  0.5004425E+03  0.7546771E-02  0.9398820E-01
        -11   -1    0    0    0    0  0.00000000000E+00  0.00000000000E+00  0.50000000000E+03  0.50000000000E+03  0.00000000000E+00 0.  1.
         11   -1    0    0    0    0 -0.00000000000E+00 -0.00000000000E+00 -0.50000000000E+03  0.50000000000E+03  0.00000000000E+00 0. -1.
        -11    1    1    2    0    0 -0.37741762368E+01 -0.57816604788E+01  0.49950979149E+03  0.49955750800E+03  0.00000000000E+00 0.  1.
         11    1    1    2    0    0 -0.48858491639E+01  0.41576722977E+01 -0.42570395155E+03  0.42575228963E+03  0.00000000000E+00 0. -1.
        -15    1    1    2    0    0  0.10046650877E+01  0.28186482555E+01 -0.20051107503E+02  0.20350891161E+02  0.17770000000E+01 0.  1.
         15    1    1    2    0    0  0.76553603129E+01 -0.11946600745E+01 -0.53754732435E+02  0.54339311206E+02  0.17770000000E+01 0. -1.
</event>
<event>
 6   1  0.3798113E-04  0.5004635E+03  0.7546771E-02  0.9398773E-01
        -11   -1    0    0    0    0  0.00000000000E+00  0.00000000000E+00  0.50000000000E+03  0.50000000000E+03  0.00000000000E+00 0. -1.
         11   -1    0    0    0    0 -0.00000000000E+00 -0.00000000000E+00 -0.50000000000E+03  0.50000000000E+03  0.00000000000E+00 0. -1.
        -11    1    1    2    0    0 -0.12169741991E+02  0.87266937359E+01  0.40559763051E+03  0.40587398990E+03  0.00000000000E+00 0. -1.
         11    1    1    2    0    0  0.56619405343E+01 -0.14777097726E+02 -0.49928579053E+03  0.49953650599E+03  0.00000000000E+00 0. -1.
        -15    1    1    2    0    0  0.15694490386E+01 -0.17514095423E+01  0.37903819810E+02  0.38018257336E+02  0.17770000000E+01 0. -1.
         15    1    1    2    0    0  0.49383524183E+01  0.78018135326E+01  0.55784340214E+02  0.56571246770E+02  0.17770000000E+01 0.  1.
</event>
<event>
 6   1  0.3798113E-04  0.5006128E+03  0.7546771E-02  0.9398440E-01
        -11   -1    0    0    0    0  0.00000000000E+00  0.00000000000E+00  0.50000000000E+03  0.50000000000E+03  0.00000000000E+00 0.  1.
         11   -1    0    0    0    0 -0.00000000000E+00 -0.00000000000E+00 -0.50000000000E+03  0.50000000000E+03  0.00000000000E+00 0. -1.
        -11    1    1    2    0    0 -0.23139853038E+01 -0.94530947246E+01  0.37626134405E+03  0.37638718702E+03  0.00000000000E+00 0.  1.
         11    1    1    2    0    0  0.94559483680E+01 -0.19226457136E+00 -0.49929762144E+03  0.49938719117E+03  0.00000000000E+00 0. -1.
        -15    1    1    2    0    0  0.26440293422E+01  0.26840681510E+01  0.17289251074E+02  0.17784010929E+02  0.17770000000E+01 0. -1.
         15    1    1    2    0    0 -0.97859924064E+01  0.69612911450E+01  0.10574702632E+03  0.10644161088E+03  0.17770000000E+01 0.  1.
</event>
