<event>
 6    1  0.1144925E-002  0.1837588E+03  0.7546771E-02  0.1067457E+00
        -11   -1    0    0    0    0  0.00000000000E+00  0.00000000000E+00  0.18250000000E+03  0.18250000000E+03  0.00000000000E+00 0.  1.
         11   -1    0    0    0    0 -0.00000000000E+00 -0.00000000000E+00 -0.18250000000E+03  0.18250000000E+03  0.00000000000E+00 0. -1.
        -11    1    1    2    0    0  0.60568233877E+01  0.10249855151E+01 -0.20294872880E+02  0.21204187560E+02  0.00000000000E+00 0.  1.
         11    1    1    2    0    0 -0.37553367731E+01 -0.89946596953E+00 -0.15999038676E+03  0.16003698151E+03  0.00000000000E+00 0. -1.
        -15    1    1    2    0    0 -0.63298952041E+01  0.53040225588E+01  0.17444610592E+03  0.17465051339E+03  0.17770000000E+01 0.  1.
         15    1    1    2    0    0  0.40284085895E+01 -0.54295421044E+01  0.58391537247E+01  0.91083175421E+01  0.17770000000E+01 0. -1.
</event>
<event>
 6    1  0.1144925E-002  0.1862758E+03  0.7546771E-02  0.1065488E+00
        -11   -1    0    0    0    0  0.00000000000E+00  0.00000000000E+00  0.18250000000E+03  0.18250000000E+03  0.00000000000E+00 0. -1.
         11   -1    0    0    0    0 -0.00000000000E+00 -0.00000000000E+00 -0.18250000000E+03  0.18250000000E+03  0.00000000000E+00 0.  1.
        -11    1    1    2    0    0 -0.27272521092E+01 -0.19020357681E+02  0.53595064430E+02  0.56935426946E+02  0.00000000000E+00 0. -1.
         11    1    1    2    0    0  0.52963451357E+01 -0.37891616088E+01 -0.17860548037E+03  0.17872416355E+03  0.00000000000E+00 0.  1.
        -15    1    1    2    0    0  0.33192463897E+01  0.25932268555E+02  0.10252191234E+03  0.10581776877E+03  0.17770000000E+01 0. -1.
         15    1    1    2    0    0 -0.58883394161E+01 -0.31227492658E+01  0.22488503598E+02  0.23522640735E+02  0.17770000000E+01 0.  1.
</event>
<event>
 6    1  0.1144925E-002  0.1826516E+03  0.7546771E-02  0.1068334E+00
        -11   -1    0    0    0    0  0.00000000000E+00  0.00000000000E+00  0.18250000000E+03  0.18250000000E+03  0.00000000000E+00 0.  1.
         11   -1    0    0    0    0 -0.00000000000E+00 -0.00000000000E+00 -0.18250000000E+03  0.18250000000E+03  0.00000000000E+00 0.  1.
        -11    1    1    2    0    0 -0.25495992899E+01  0.18823846328E+01  0.18232081129E+03  0.18234835360E+03  0.00000000000E+00 0.  1.
         11    1    1    2    0    0 -0.10331330708E+00 -0.21203160881E+01 -0.14460268422E+03  0.14461826544E+03  0.00000000000E+00 0.  1.
        -15    1    1    2    0    0  0.50669282551E+00  0.48664826741E+00 -0.20570709153E+02  0.20659268337E+02  0.17770000000E+01 0.  1.
         15    1    1    2    0    0  0.21462197715E+01 -0.24871681219E+00 -0.17147417921E+02  0.17374112631E+02  0.17770000000E+01 0. -1.
</event>
<event>
 6    1  0.1144925E-002  0.1443564E+03  0.7546771E-02  0.1103661E+00
        -11   -1    0    0    0    0  0.00000000000E+00  0.00000000000E+00  0.18250000000E+03  0.18250000000E+03  0.00000000000E+00 0. -1.
         11   -1    0    0    0    0 -0.00000000000E+00 -0.00000000000E+00 -0.18250000000E+03  0.18250000000E+03  0.00000000000E+00 0.  1.
        -11    1    1    2    0    0 -0.42518768956E+02  0.34229275163E+02  0.12485071029E+03  0.13626147237E+03  0.00000000000E+00 0. -1.
         11    1    1    2    0    0  0.20771256353E+02  0.41566678664E-01 -0.15551792938E+03  0.15689892663E+03  0.00000000000E+00 0.  1.
        -15    1    1    2    0    0  0.79824607505E+01 -0.32616787215E+02 -0.45661593093E+01  0.33934967625E+02  0.17770000000E+01 0. -1.
         15    1    1    2    0    0  0.13765051853E+02 -0.16540546260E+01  0.35233378401E+02  0.37904633382E+02  0.17770000000E+01 0.  1.
</event>
<event>
 6    1  0.1144925E-002  0.1843695E+03  0.7546771E-02  0.1066976E+00
        -11   -1    0    0    0    0  0.00000000000E+00  0.00000000000E+00  0.18250000000E+03  0.18250000000E+03  0.00000000000E+00 0.  1.
         11   -1    0    0    0    0 -0.00000000000E+00 -0.00000000000E+00 -0.18250000000E+03  0.18250000000E+03  0.00000000000E+00 0.  1.
        -11    1    1    2    0    0  0.11350836712E+02  0.41955841048E+01  0.12877142129E+03  0.12933879295E+03  0.00000000000E+00 0.  1.
         11    1    1    2    0    0  0.20155435048E+01 -0.28128892781E+01 -0.18059738294E+03  0.18063053309E+03  0.00000000000E+00 0.  1.
        -15    1    1    2    0    0 -0.13073675375E+02  0.15534763408E+01  0.48330954532E+02  0.50123578997E+02  0.17770000000E+01 0. -1.
         15    1    1    2    0    0 -0.29270484107E+00 -0.29361711675E+01  0.34950071161E+01  0.49070949644E+01  0.17770000000E+01 0.  1.
</event>
<event>
 6    1  0.1144925E-002  0.1828099E+03  0.7546771E-02  0.1068208E+00
        -11   -1    0    0    0    0  0.00000000000E+00  0.00000000000E+00  0.18250000000E+03  0.18250000000E+03  0.00000000000E+00 0.  1.
         11   -1    0    0    0    0 -0.00000000000E+00 -0.00000000000E+00 -0.18250000000E+03  0.18250000000E+03  0.00000000000E+00 0. -1.
        -11    1    1    2    0    0 -0.10690628237E+02  0.24420740271E+01  0.18185982719E+03  0.18219014793E+03  0.00000000000E+00 0.  1.
         11    1    1    2    0    0  0.20823201585E+01 -0.54894563180E+01 -0.95334745381E+02  0.95515359313E+02  0.00000000000E+00 0. -1.
        -15    1    1    2    0    0  0.53149145894E+01 -0.11824009952E+01 -0.51424848411E+02  0.51742817398E+02  0.17770000000E+01 0.  1.
         15    1    1    2    0    0  0.32933934887E+01  0.42297832861E+01 -0.35100233397E+02  0.35551675359E+02  0.17770000000E+01 0. -1.
</event>
<event>
 6    1  0.1144925E-002  0.1835326E+03  0.7546771E-02  0.1067636E+00
        -11   -1    0    0    0    0  0.00000000000E+00  0.00000000000E+00  0.18250000000E+03  0.18250000000E+03  0.00000000000E+00 0.  1.
         11   -1    0    0    0    0 -0.00000000000E+00 -0.00000000000E+00 -0.18250000000E+03  0.18250000000E+03  0.00000000000E+00 0. -1.
        -11    1    1    2    0    0 -0.81849681511E+01 -0.69082177640E+01  0.36725270897E+02  0.38255230999E+02  0.00000000000E+00 0.  1.
         11    1    1    2    0    0 -0.11571960926E+01  0.24084218369E+01 -0.18144769259E+03  0.18146736551E+03  0.00000000000E+00 0. -1.
        -15    1    1    2    0    0  0.37511959908E+01  0.53258979968E+01  0.79896908722E+02  0.80181733663E+02  0.17770000000E+01 0. -1.
         15    1    1    2    0    0  0.55909682529E+01 -0.82610206963E+00  0.64825512967E+02  0.65095669833E+02  0.17770000000E+01 0. -1.
</event>
<event>
 6    1  0.1144925E-002  0.1841858E+03  0.7546771E-02  0.1067121E+00
        -11   -1    0    0    0    0  0.00000000000E+00  0.00000000000E+00  0.18250000000E+03  0.18250000000E+03  0.00000000000E+00 0. -1.
         11   -1    0    0    0    0 -0.00000000000E+00 -0.00000000000E+00 -0.18250000000E+03  0.18250000000E+03  0.00000000000E+00 0. -1.
        -11    1    1    2    0    0  0.42597251716E+01  0.31131609669E-01  0.18076398841E+03  0.18081417460E+03  0.00000000000E+00 0. -1.
         11    1    1    2    0    0  0.18095722776E+01 -0.19845479103E+01 -0.17343575774E+03  0.17345655089E+03  0.00000000000E+00 0. -1.
        -15    1    1    2    0    0 -0.11699846640E+01  0.72441076849E-01 -0.11104890701E+01  0.24010470213E+01  0.17770000000E+01 0.  1.
         15    1    1    2    0    0 -0.48993127852E+01  0.18809752238E+01 -0.62177415999E+01  0.83282274923E+01  0.17770000000E+01 0.  1.
</event>
<event>
 6    1  0.1144925E-002  0.1883536E+03  0.7546771E-02  0.1063889E+00
        -11   -1    0    0    0    0  0.00000000000E+00  0.00000000000E+00  0.18250000000E+03  0.18250000000E+03  0.00000000000E+00 0.  1.
         11   -1    0    0    0    0 -0.00000000000E+00 -0.00000000000E+00 -0.18250000000E+03  0.18250000000E+03  0.00000000000E+00 0. -1.
        -11    1    1    2    0    0 -0.17358160219E+02 -0.14061932387E+02  0.17522817569E+03  0.17664641866E+03  0.00000000000E+00 0.  1.
         11    1    1    2    0    0  0.73062836947E+01 -0.24145375876E+01 -0.13873737822E+03  0.13895060953E+03  0.00000000000E+00 0. -1.
        -15    1    1    2    0    0  0.15862696833E+02  0.14557845750E+02 -0.13337978648E+02  0.25389277798E+02  0.17770000000E+01 0. -1.
         15    1    1    2    0    0 -0.58108203096E+01  0.19186242246E+01 -0.23152818822E+02  0.24013694010E+02  0.17770000000E+01 0.  1.
</event>
<event>
 6    1  0.1144925E-002  0.1828473E+03  0.7546771E-02  0.1068179E+00
        -11   -1    0    0    0    0  0.00000000000E+00  0.00000000000E+00  0.18250000000E+03  0.18250000000E+03  0.00000000000E+00 0.  1.
         11   -1    0    0    0    0 -0.00000000000E+00 -0.00000000000E+00 -0.18250000000E+03  0.18250000000E+03  0.00000000000E+00 0.  1.
        -11    1    1    2    0    0 -0.50188520595E+01 -0.41077626256E+01  0.97424645249E+02  0.97640279043E+02  0.00000000000E+00 0.  1.
         11    1    1    2    0    0  0.46146400976E+01  0.11076113493E+02 -0.18175705818E+03  0.18215269252E+03  0.00000000000E+00 0.  1.
        -15    1    1    2    0    0  0.29118638948E+01 -0.26457587357E+01  0.65496647630E+02  0.65638765760E+02  0.17770000000E+01 0.  1.
         15    1    1    2    0    0 -0.25076519330E+01 -0.43225921320E+01  0.18835765299E+02  0.19568262681E+02  0.17770000000E+01 0. -1.
</event>
<event>
 6    1  0.1144925E-002  0.1772215E+03  0.7546771E-02  0.1072736E+00
        -11   -1    0    0    0    0  0.00000000000E+00  0.00000000000E+00  0.18250000000E+03  0.18250000000E+03  0.00000000000E+00 0. -1.
         11   -1    0    0    0    0 -0.00000000000E+00 -0.00000000000E+00 -0.18250000000E+03  0.18250000000E+03  0.00000000000E+00 0.  1.
        -11    1    1    2    0    0  0.34770423664E+01  0.76866379737E+01  0.17698565550E+03  0.17718661485E+03  0.00000000000E+00 0. -1.
         11    1    1    2    0    0 -0.25977235635E+01  0.10591581948E+01 -0.17734330462E+03  0.17736549179E+03  0.00000000000E+00 0.  1.
        -15    1    1    2    0    0  0.11589605128E+01 -0.65784687601E+01  0.78337035915E+00  0.69563524075E+01  0.17770000000E+01 0.  1.
         15    1    1    2    0    0 -0.20382793157E+01 -0.21673274084E+01 -0.42572123711E+00  0.34915409543E+01  0.17770000000E+01 0. -1.
</event>
<event>
 6    1  0.1144925E-002  0.1733705E+03  0.7546771E-02  0.1075963E+00
        -11   -1    0    0    0    0  0.00000000000E+00  0.00000000000E+00  0.18250000000E+03  0.18250000000E+03  0.00000000000E+00 0. -1.
         11   -1    0    0    0    0 -0.00000000000E+00 -0.00000000000E+00 -0.18250000000E+03  0.18250000000E+03  0.00000000000E+00 0. -1.
        -11    1    1    2    0    0  0.97122003468E+01 -0.92921620181E+00  0.17617385872E+03  0.17644381194E+03  0.00000000000E+00 0. -1.
         11    1    1    2    0    0  0.15528838060E+01 -0.63751076462E+01 -0.17047753150E+03  0.17060375785E+03  0.00000000000E+00 0. -1.
        -15    1    1    2    0    0 -0.78518939268E+01  0.48567686525E+01  0.14114605895E+01  0.95073860749E+01  0.17770000000E+01 0.  1.
         15    1    1    2    0    0 -0.34131902261E+01  0.24475551955E+01 -0.71077878051E+01  0.84450441347E+01  0.17770000000E+01 0. -1.
</event>
<event>
 6    1  0.1144925E-002  0.1844147E+03  0.7546771E-02  0.1066941E+00
        -11   -1    0    0    0    0  0.00000000000E+00  0.00000000000E+00  0.18250000000E+03  0.18250000000E+03  0.00000000000E+00 0. -1.
         11   -1    0    0    0    0 -0.00000000000E+00 -0.00000000000E+00 -0.18250000000E+03  0.18250000000E+03  0.00000000000E+00 0.  1.
        -11    1    1    2    0    0 -0.40386183887E+01  0.15266916081E+02  0.17989348570E+03  0.18058531325E+03  0.00000000000E+00 0. -1.
         11    1    1    2    0    0 -0.23429566544E+01 -0.56566990154E-01 -0.13655365367E+03  0.13657376386E+03  0.00000000000E+00 0.  1.
        -15    1    1    2    0    0  0.57679430537E+01 -0.64708911335E+01 -0.33032311963E+02  0.34196972991E+02  0.17770000000E+01 0.  1.
         15    1    1    2    0    0  0.61363198942E+00 -0.87394579576E+01 -0.10307520075E+02  0.13643949894E+02  0.17770000000E+01 0. -1.
</event>
<event>
 6    1  0.1144925E-002  0.1284980E+03  0.7546771E-02  0.1122031E+00
        -11   -1    0    0    0    0  0.00000000000E+00  0.00000000000E+00  0.18250000000E+03  0.18250000000E+03  0.00000000000E+00 0.  1.
         11   -1    0    0    0    0 -0.00000000000E+00 -0.00000000000E+00 -0.18250000000E+03  0.18250000000E+03  0.00000000000E+00 0.  1.
        -11    1    1    2    0    0 -0.32501300488E+02 -0.72264163355E+02  0.12038363898E+03  0.14412031215E+03  0.00000000000E+00 0.  1.
         11    1    1    2    0    0  0.10664231942E+02 -0.12065326929E+02 -0.12627940219E+03  0.12730194568E+03  0.00000000000E+00 0.  1.
        -15    1    1    2    0    0 -0.34119321352E+01 -0.11401013335E+01  0.16486610590E+01  0.43378478804E+01  0.17770000000E+01 0. -1.
         15    1    1    2    0    0  0.25249000682E+02  0.85469591617E+02  0.42471021494E+01  0.89239894287E+02  0.17770000000E+01 0.  1.
</event>
<event>
 6    1  0.1144925E-002  0.1841889E+03  0.7546771E-02  0.1067118E+00
        -11   -1    0    0    0    0  0.00000000000E+00  0.00000000000E+00  0.18250000000E+03  0.18250000000E+03  0.00000000000E+00 0. -1.
         11   -1    0    0    0    0 -0.00000000000E+00 -0.00000000000E+00 -0.18250000000E+03  0.18250000000E+03  0.00000000000E+00 0. -1.
        -11    1    1    2    0    0  0.19632560626E+01  0.99676041487E+01  0.18052545375E+03  0.18081108085E+03  0.00000000000E+00 0. -1.
         11    1    1    2    0    0 -0.80138295184E+01  0.16205697286E+01 -0.15019015970E+03  0.15041253864E+03  0.00000000000E+00 0. -1.
        -15    1    1    2    0    0  0.63011568448E+01 -0.91492810162E+01 -0.19364996241E+02  0.22395864108E+02  0.17770000000E+01 0.  1.
         15    1    1    2    0    0 -0.25058338894E+00 -0.24388928611E+01 -0.10970297813E+02  0.11380516400E+02  0.17770000000E+01 0. -1.
</event>
<event>
 6    1  0.1144925E-002  0.1928438E+03  0.7546771E-02  0.1060507E+00
        -11   -1    0    0    0    0  0.00000000000E+00  0.00000000000E+00  0.18250000000E+03  0.18250000000E+03  0.00000000000E+00 0. -1.
         11   -1    0    0    0    0 -0.00000000000E+00 -0.00000000000E+00 -0.18250000000E+03  0.18250000000E+03  0.00000000000E+00 0.  1.
        -11    1    1    2    0    0 -0.60677839465E+01 -0.53407480935E+01  0.15011805353E+03  0.15033553002E+03  0.00000000000E+00 0. -1.
         11    1    1    2    0    0 -0.21831424190E+02 -0.73319727502E+01 -0.17060890481E+03  0.17215622936E+03  0.00000000000E+00 0.  1.
        -15    1    1    2    0    0  0.24803736176E+02  0.13348093431E+01  0.16882093690E+02  0.30086040960E+02  0.17770000000E+01 0.  1.
         15    1    1    2    0    0  0.30954719606E+01  0.11337911501E+02  0.36087575975E+01  0.12422199654E+02  0.17770000000E+01 0. -1.
</event>
<event>
 6    1  0.1144925E-002  0.1844985E+03  0.7546771E-02  0.1066875E+00
        -11   -1    0    0    0    0  0.00000000000E+00  0.00000000000E+00  0.18250000000E+03  0.18250000000E+03  0.00000000000E+00 0. -1.
         11   -1    0    0    0    0 -0.00000000000E+00 -0.00000000000E+00 -0.18250000000E+03  0.18250000000E+03  0.00000000000E+00 0. -1.
        -11    1    1    2    0    0  0.37021684351E+01  0.14371602055E+01  0.17563157001E+03  0.17567646360E+03  0.00000000000E+00 0. -1.
         11    1    1    2    0    0  0.17211445230E+01 -0.23553945697E+01 -0.18047797295E+03  0.18050154831E+03  0.00000000000E+00 0. -1.
        -15    1    1    2    0    0 -0.25020538107E+01 -0.55028870823E+00  0.59871962753E+00  0.31747889893E+01  0.17770000000E+01 0.  1.
         15    1    1    2    0    0 -0.29212591474E+01  0.14685230724E+01  0.42476833210E+01  0.56471990948E+01  0.17770000000E+01 0. -1.
</event>
<event>
 6    1  0.1144925E-002  0.1828916E+03  0.7546771E-02  0.1068144E+00
        -11   -1    0    0    0    0  0.00000000000E+00  0.00000000000E+00  0.18250000000E+03  0.18250000000E+03  0.00000000000E+00 0.  1.
         11   -1    0    0    0    0 -0.00000000000E+00 -0.00000000000E+00 -0.18250000000E+03  0.18250000000E+03  0.00000000000E+00 0. -1.
        -11    1    1    2    0    0  0.13495454691E+01  0.46290889490E+01  0.14163656751E+03  0.14171861908E+03  0.00000000000E+00 0.  1.
         11    1    1    2    0    0  0.25985758734E+01 -0.37609604005E+00 -0.18208949381E+03  0.18210842320E+03  0.00000000000E+00 0. -1.
        -15    1    1    2    0    0 -0.99221005257E+00  0.61376241189E-02  0.76873888017E+01  0.79522445918E+01  0.17770000000E+01 0. -1.
         15    1    1    2    0    0 -0.29559112899E+01 -0.42591305330E+01  0.32765537492E+02  0.33220713126E+02  0.17770000000E+01 0.  1.
</event>
<event>
 6    1  0.1144925E-002  0.1973090E+03  0.7546771E-02  0.1057242E+00
        -11   -1    0    0    0    0  0.00000000000E+00  0.00000000000E+00  0.18250000000E+03  0.18250000000E+03  0.00000000000E+00 0.  1.
         11   -1    0    0    0    0 -0.00000000000E+00 -0.00000000000E+00 -0.18250000000E+03  0.18250000000E+03  0.00000000000E+00 0. -1.
        -11    1    1    2    0    0  0.26441549554E+01  0.28849371062E+02  0.12634841084E+03  0.12962715259E+03  0.00000000000E+00 0.  1.
         11    1    1    2    0    0 -0.14386275165E+01  0.25234356111E+01 -0.16766587788E+03  0.16769103727E+03  0.00000000000E+00 0. -1.
        -15    1    1    2    0    0 -0.22885300686E+01 -0.35874447439E+02  0.47601577819E+02  0.59676471819E+02  0.17770000000E+01 0. -1.
         15    1    1    2    0    0  0.10830026297E+01  0.45016407655E+01 -0.62841107868E+01  0.80053383226E+01  0.17770000000E+01 0.  1.
</event>
<event>
 6    1  0.1144925E-002  0.1774407E+03  0.7546771E-02  0.1072555E+00
        -11   -1    0    0    0    0  0.00000000000E+00  0.00000000000E+00  0.18250000000E+03  0.18250000000E+03  0.00000000000E+00 0.  1.
         11   -1    0    0    0    0 -0.00000000000E+00 -0.00000000000E+00 -0.18250000000E+03  0.18250000000E+03  0.00000000000E+00 0.  1.
        -11    1    1    2    0    0 -0.29861257822E+01 -0.91472596490E+01 -0.29888248447E+01  0.10075831491E+02  0.00000000000E+00 0.  1.
         11    1    1    2    0    0  0.39367557788E+01  0.85927378356E+01 -0.17578932705E+03  0.17604323530E+03  0.00000000000E+00 0.  1.
        -15    1    1    2    0    0  0.41631471851E+00 -0.14979882516E+01  0.12087246237E+03  0.12089552173E+03  0.17770000000E+01 0.  1.
         15    1    1    2    0    0 -0.13669447151E+01  0.20525100651E+01  0.57905689528E+02  0.57985411477E+02  0.17770000000E+01 0.  1.
</event>
<event>
 6    1  0.1144925E-002  0.1858039E+03  0.7546771E-02  0.1065855E+00
        -11   -1    0    0    0    0  0.00000000000E+00  0.00000000000E+00  0.18250000000E+03  0.18250000000E+03  0.00000000000E+00 0.  1.
         11   -1    0    0    0    0 -0.00000000000E+00 -0.00000000000E+00 -0.18250000000E+03  0.18250000000E+03  0.00000000000E+00 0. -1.
        -11    1    1    2    0    0 -0.53058574854E+01  0.30604649818E+01  0.14097920061E+03  0.14111220207E+03  0.00000000000E+00 0.  1.
         11    1    1    2    0    0 -0.13290498131E+02 -0.47182209013E+01 -0.17864031086E+03  0.17919614843E+03  0.00000000000E+00 0. -1.
        -15    1    1    2    0    0  0.16298097026E+01 -0.14470139375E+01 -0.42512186046E+00  0.28440440570E+01  0.17770000000E+01 0. -1.
         15    1    1    2    0    0  0.16966545913E+02  0.31047698570E+01  0.38086232110E+02  0.41847605444E+02  0.17770000000E+01 0.  1.
</event>
<event>
 6    1  0.1144925E-002  0.1851607E+03  0.7546771E-02  0.1066356E+00
        -11   -1    0    0    0    0  0.00000000000E+00  0.00000000000E+00  0.18250000000E+03  0.18250000000E+03  0.00000000000E+00 0.  1.
         11   -1    0    0    0    0 -0.00000000000E+00 -0.00000000000E+00 -0.18250000000E+03  0.18250000000E+03  0.00000000000E+00 0.  1.
        -11    1    1    2    0    0 -0.29539433611E+00  0.24888124208E+01  0.17982187130E+03  0.17983933619E+03  0.00000000000E+00 0.  1.
         11    1    1    2    0    0  0.16064137121E+01 -0.18651336984E+01 -0.17891711962E+03  0.17893405204E+03  0.00000000000E+00 0.  1.
        -15    1    1    2    0    0 -0.17523188667E+01  0.18326857847E+01 -0.49584172884E+00  0.31357529584E+01  0.17770000000E+01 0.  1.
         15    1    1    2    0    0  0.44129949071E+00 -0.24563645071E+01 -0.40890995051E+00  0.30908588094E+01  0.17770000000E+01 0. -1.
</event>
<event>
 6    1  0.1144925E-002  0.1839385E+03  0.7546771E-02  0.1067316E+00
        -11   -1    0    0    0    0  0.00000000000E+00  0.00000000000E+00  0.18250000000E+03  0.18250000000E+03  0.00000000000E+00 0.  1.
         11   -1    0    0    0    0 -0.00000000000E+00 -0.00000000000E+00 -0.18250000000E+03  0.18250000000E+03  0.00000000000E+00 0.  1.
        -11    1    1    2    0    0  0.47052253353E+01 -0.62181494043E+01  0.18089354243E+03  0.18106153158E+03  0.00000000000E+00 0.  1.
         11    1    1    2    0    0 -0.49450557727E+01 -0.42503159068E+01 -0.13255574965E+03  0.13271603342E+03  0.00000000000E+00 0.  1.
        -15    1    1    2    0    0  0.23656094610E+01  0.84645742641E+01 -0.13434502273E+02  0.16152049589E+02  0.17770000000E+01 0.  1.
         15    1    1    2    0    0 -0.21257790235E+01  0.20038910470E+01 -0.34903290506E+02  0.35070385412E+02  0.17770000000E+01 0. -1.
</event>
<event>
 6    1  0.1144925E-002  0.1831675E+03  0.7546771E-02  0.1067925E+00
        -11   -1    0    0    0    0  0.00000000000E+00  0.00000000000E+00  0.18250000000E+03  0.18250000000E+03  0.00000000000E+00 0.  1.
         11   -1    0    0    0    0 -0.00000000000E+00 -0.00000000000E+00 -0.18250000000E+03  0.18250000000E+03  0.00000000000E+00 0. -1.
        -11    1    1    2    0    0 -0.41134233376E+01  0.16345949512E+01  0.18177862059E+03  0.18183250275E+03  0.00000000000E+00 0.  1.
         11    1    1    2    0    0  0.14258157871E+01  0.17403714944E+01 -0.13183444887E+03  0.13185364520E+03  0.00000000000E+00 0. -1.
        -15    1    1    2    0    0  0.45771808550E+01  0.61852413690E-02 -0.42112993807E+02  0.42398261748E+02  0.17770000000E+01 0.  1.
         15    1    1    2    0    0 -0.18895733045E+01 -0.33811516870E+01 -0.78311779089E+01  0.89155903026E+01  0.17770000000E+01 0. -1.
</event>
<event>
 6    1  0.1144925E-002  0.1859113E+03  0.7546771E-02  0.1065771E+00
        -11   -1    0    0    0    0  0.00000000000E+00  0.00000000000E+00  0.18250000000E+03  0.18250000000E+03  0.00000000000E+00 0.  1.
         11   -1    0    0    0    0 -0.00000000000E+00 -0.00000000000E+00 -0.18250000000E+03  0.18250000000E+03  0.00000000000E+00 0. -1.
        -11    1    1    2    0    0 -0.83651008084E+01  0.11291495993E+02  0.17853654886E+03  0.17908872681E+03  0.00000000000E+00 0.  1.
         11    1    1    2    0    0 -0.82157679231E+01 -0.50346692410E+01 -0.15417313581E+03  0.15447395425E+03  0.00000000000E+00 0. -1.
        -15    1    1    2    0    0  0.16519568909E+02 -0.42487020452E+01 -0.20386739030E+02  0.26640654708E+02  0.17770000000E+01 0.  1.
         15    1    1    2    0    0  0.61299822738E-01 -0.20081247065E+01 -0.39766740129E+01  0.47966642273E+01  0.17770000000E+01 0. -1.
</event>
<event>
 6    1  0.1144925E-002  0.1832252E+03  0.7546771E-02  0.1067879E+00
        -11   -1    0    0    0    0  0.00000000000E+00  0.00000000000E+00  0.18250000000E+03  0.18250000000E+03  0.00000000000E+00 0.  1.
         11   -1    0    0    0    0 -0.00000000000E+00 -0.00000000000E+00 -0.18250000000E+03  0.18250000000E+03  0.00000000000E+00 0.  1.
        -11    1    1    2    0    0  0.17121710454E+02 -0.92990045560E+01  0.18072752081E+03  0.18177475411E+03  0.00000000000E+00 0.  1.
         11    1    1    2    0    0 -0.13448509870E+02  0.73772668726E+01 -0.76104034666E+02  0.77634467710E+02  0.00000000000E+00 0.  1.
        -15    1    1    2    0    0  0.42212412125E+01  0.33333673751E+01 -0.55134131277E+02  0.55424366267E+02  0.17770000000E+01 0.  1.
         15    1    1    2    0    0 -0.78944417961E+01 -0.14116296918E+01 -0.49489354868E+02  0.50166411910E+02  0.17770000000E+01 0. -1.
</event>
<event>
 6    1  0.1144925E-002  0.1855035E+03  0.7546771E-02  0.1066089E+00
        -11   -1    0    0    0    0  0.00000000000E+00  0.00000000000E+00  0.18250000000E+03  0.18250000000E+03  0.00000000000E+00 0.  1.
         11   -1    0    0    0    0 -0.00000000000E+00 -0.00000000000E+00 -0.18250000000E+03  0.18250000000E+03  0.00000000000E+00 0.  1.
        -11    1    1    2    0    0  0.61777392218E+01  0.58419274461E+01  0.15802935217E+03  0.15825791837E+03  0.00000000000E+00 0.  1.
         11    1    1    2    0    0 -0.33960973601E+01 -0.20898403469E+01 -0.17945218552E+03  0.17949648408E+03  0.00000000000E+00 0.  1.
        -15    1    1    2    0    0 -0.48629687466E+01 -0.55611445280E+01  0.22535098152E+02  0.23781572093E+02  0.17770000000E+01 0.  1.
         15    1    1    2    0    0  0.20813268850E+01  0.18090574288E+01 -0.11122648019E+01  0.34640254578E+01  0.17770000000E+01 0.  1.
</event>
<event>
 6    1  0.1144925E-002  0.1840614E+03  0.7546771E-02  0.1067219E+00
        -11   -1    0    0    0    0  0.00000000000E+00  0.00000000000E+00  0.18250000000E+03  0.18250000000E+03  0.00000000000E+00 0. -1.
         11   -1    0    0    0    0 -0.00000000000E+00 -0.00000000000E+00 -0.18250000000E+03  0.18250000000E+03  0.00000000000E+00 0.  1.
        -11    1    1    2    0    0  0.12891856771E+02 -0.93875363337E+01  0.52855003713E+02  0.55208488722E+02  0.00000000000E+00 0. -1.
         11    1    1    2    0    0 -0.39188085486E+01  0.38611050995E+01 -0.18085495205E+03  0.18093860526E+03  0.00000000000E+00 0.  1.
        -15    1    1    2    0    0 -0.18326256589E+01 -0.60968397115E-01  0.75706139524E+02  0.75749188276E+02  0.17770000000E+01 0.  1.
         15    1    1    2    0    0 -0.71404225634E+01  0.55873996313E+01  0.52293808811E+02  0.53103717742E+02  0.17770000000E+01 0. -1.
</event>
<event>
 6    1  0.1144925E-002  0.1838760E+03  0.7546771E-02  0.1067365E+00
        -11   -1    0    0    0    0  0.00000000000E+00  0.00000000000E+00  0.18250000000E+03  0.18250000000E+03  0.00000000000E+00 0.  1.
         11   -1    0    0    0    0 -0.00000000000E+00 -0.00000000000E+00 -0.18250000000E+03  0.18250000000E+03  0.00000000000E+00 0. -1.
        -11    1    1    2    0    0 -0.53488219854E+01  0.57586587911E+00  0.18104412287E+03  0.18112403469E+03  0.00000000000E+00 0.  1.
         11    1    1    2    0    0  0.12998744552E+01 -0.32077855878E+01 -0.17427786163E+03  0.17431222739E+03  0.00000000000E+00 0. -1.
        -15    1    1    2    0    0  0.31444069611E+01  0.81755744524E+00 -0.53827655312E+01  0.65335739896E+01  0.17770000000E+01 0.  1.
         15    1    1    2    0    0  0.90454056914E+00  0.18143622635E+01 -0.13834957054E+01  0.30301639281E+01  0.17770000000E+01 0. -1.
</event>
<event>
 6    1  0.1144925E-002  0.1826828E+03  0.7546771E-02  0.1068309E+00
        -11   -1    0    0    0    0  0.00000000000E+00  0.00000000000E+00  0.18250000000E+03  0.18250000000E+03  0.00000000000E+00 0.  1.
         11   -1    0    0    0    0 -0.00000000000E+00 -0.00000000000E+00 -0.18250000000E+03  0.18250000000E+03  0.00000000000E+00 0.  1.
        -11    1    1    2    0    0 -0.34210175218E+00 -0.40389482947E+01  0.18227209210E+03  0.18231715689E+03  0.00000000000E+00 0.  1.
         11    1    1    2    0    0 -0.13917882508E+01  0.24340312899E+01 -0.15019378130E+03  0.15021995049E+03  0.00000000000E+00 0.  1.
        -15    1    1    2    0    0  0.13989152290E+01  0.10634548342E+01 -0.10136298585E+02  0.10439836111E+02  0.17770000000E+01 0. -1.
         15    1    1    2    0    0  0.33497477406E+00  0.54146217055E+00 -0.21942012212E+02  0.22023056515E+02  0.17770000000E+01 0. -1.
</event>
<event>
 6    1  0.1144925E-002  0.1765019E+03  0.7546771E-02  0.1073332E+00
        -11   -1    0    0    0    0  0.00000000000E+00  0.00000000000E+00  0.18250000000E+03  0.18250000000E+03  0.00000000000E+00 0. -1.
         11   -1    0    0    0    0 -0.00000000000E+00 -0.00000000000E+00 -0.18250000000E+03  0.18250000000E+03  0.00000000000E+00 0. -1.
        -11    1    1    2    0    0  0.57070390548E+01 -0.23199982070E+01  0.17554705261E+03  0.17565511768E+03  0.00000000000E+00 0. -1.
         11    1    1    2    0    0  0.37061153545E+01 -0.17866783449E+01 -0.17745556003E+03  0.17750324869E+03  0.00000000000E+00 0. -1.
        -15    1    1    2    0    0 -0.29564866862E+01 -0.11913561031E+00 -0.66581171887E+00  0.35151160812E+01  0.17770000000E+01 0.  1.
         15    1    1    2    0    0 -0.64566677231E+01  0.42258121622E+01  0.25743191397E+01  0.83265175524E+01  0.17770000000E+01 0. -1.
</event>
<event>
 6    1  0.1144925E-002  0.1830767E+03  0.7546771E-02  0.1067997E+00
        -11   -1    0    0    0    0  0.00000000000E+00  0.00000000000E+00  0.18250000000E+03  0.18250000000E+03  0.00000000000E+00 0. -1.
         11   -1    0    0    0    0 -0.00000000000E+00 -0.00000000000E+00 -0.18250000000E+03  0.18250000000E+03  0.00000000000E+00 0.  1.
        -11    1    1    2    0    0  0.21419234222E+01 -0.79722163999E+01  0.58675072094E+02  0.59252916853E+02  0.00000000000E+00 0. -1.
         11    1    1    2    0    0  0.52005948744E+01  0.45132542231E+01 -0.18179294677E+03  0.18192331116E+03  0.00000000000E+00 0.  1.
        -15    1    1    2    0    0 -0.56284397107E+01  0.26681260843E+01  0.11700119822E+03  0.11718035818E+03  0.17770000000E+01 0.  1.
         15    1    1    2    0    0 -0.17140785860E+01  0.79083609257E+00  0.61166764551E+01  0.66434138047E+01  0.17770000000E+01 0. -1.
</event>
<event>
 6    1  0.1144925E-002  0.1836552E+03  0.7546771E-02  0.1067539E+00
        -11   -1    0    0    0    0  0.00000000000E+00  0.00000000000E+00  0.18250000000E+03  0.18250000000E+03  0.00000000000E+00 0.  1.
         11   -1    0    0    0    0 -0.00000000000E+00 -0.00000000000E+00 -0.18250000000E+03  0.18250000000E+03  0.00000000000E+00 0.  1.
        -11    1    1    2    0    0  0.25107211707E+01  0.24173296624E+00  0.17535296286E+03  0.17537110292E+03  0.00000000000E+00 0.  1.
         11    1    1    2    0    0  0.54312964044E-01 -0.26740966027E+01 -0.18132511580E+03  0.18134484101E+03  0.00000000000E+00 0.  1.
        -15    1    1    2    0    0 -0.77406308614E+00  0.12793248862E+00  0.83515375829E+00  0.21144150924E+01  0.17770000000E+01 0. -1.
         15    1    1    2    0    0 -0.17909710486E+01  0.23044311479E+01  0.51369991799E+01  0.61696409771E+01  0.17770000000E+01 0.  1.
</event>
<event>
 6    1  0.1144925E-002  0.1884064E+03  0.7546771E-02  0.1063848E+00
        -11   -1    0    0    0    0  0.00000000000E+00  0.00000000000E+00  0.18250000000E+03  0.18250000000E+03  0.00000000000E+00 0.  1.
         11   -1    0    0    0    0 -0.00000000000E+00 -0.00000000000E+00 -0.18250000000E+03  0.18250000000E+03  0.00000000000E+00 0.  1.
        -11    1    1    2    0    0  0.17986429767E+02  0.32209108954E-01  0.17567518347E+03  0.17659355249E+03  0.00000000000E+00 0.  1.
         11    1    1    2    0    0 -0.72781106115E+00  0.11076026228E+02 -0.15446647863E+03  0.15486478324E+03  0.00000000000E+00 0.  1.
        -15    1    1    2    0    0 -0.10914447581E+02 -0.69425938486E+01 -0.22127832442E+02  0.25692868134E+02  0.17770000000E+01 0.  1.
         15    1    1    2    0    0 -0.63441711255E+01 -0.41656414887E+01  0.91912759866E+00  0.78487961385E+01  0.17770000000E+01 0. -1.
</event>
<event>
 6    1  0.1144925E-002  0.1867467E+03  0.7546771E-02  0.1065124E+00
        -11   -1    0    0    0    0  0.00000000000E+00  0.00000000000E+00  0.18250000000E+03  0.18250000000E+03  0.00000000000E+00 0.  1.
         11   -1    0    0    0    0 -0.00000000000E+00 -0.00000000000E+00 -0.18250000000E+03  0.18250000000E+03  0.00000000000E+00 0. -1.
        -11    1    1    2    0    0  0.72956397499E+01  0.14568458590E+01  0.16383978552E+03  0.16400860977E+03  0.00000000000E+00 0.  1.
         11    1    1    2    0    0  0.73941120714E+01 -0.60007284072E+01 -0.17799876882E+03  0.17825331228E+03  0.00000000000E+00 0. -1.
        -15    1    1    2    0    0 -0.77780616193E+01 -0.18677708195E+01  0.62878989307E+01  0.10328708165E+02  0.17770000000E+01 0.  1.
         15    1    1    2    0    0 -0.69116902021E+01  0.64116533676E+01  0.78710843763E+01  0.12409369791E+02  0.17770000000E+01 0. -1.
</event>
<event>
 6    1  0.1144925E-002  0.1826807E+03  0.7546771E-02  0.1068311E+00
        -11   -1    0    0    0    0  0.00000000000E+00  0.00000000000E+00  0.18250000000E+03  0.18250000000E+03  0.00000000000E+00 0. -1.
         11   -1    0    0    0    0 -0.00000000000E+00 -0.00000000000E+00 -0.18250000000E+03  0.18250000000E+03  0.00000000000E+00 0.  1.
        -11    1    1    2    0    0 -0.26345298936E+01  0.85926980901E+01  0.18209763044E+03  0.18231928648E+03  0.00000000000E+00 0. -1.
         11    1    1    2    0    0  0.56761509305E+01 -0.74078901209E+01 -0.11571120943E+03  0.11608694808E+03  0.00000000000E+00 0.  1.
        -15    1    1    2    0    0 -0.14104811345E+01 -0.14378728266E+01 -0.27179908619E+02  0.27312306692E+02  0.17770000000E+01 0. -1.
         15    1    1    2    0    0 -0.16311399023E+01  0.25306485740E+00 -0.39206512391E+02  0.39281458757E+02  0.17770000000E+01 0. -1.
</event>
<event>
 6    1  0.1144925E-002  0.1766273E+03  0.7546771E-02  0.1073228E+00
        -11   -1    0    0    0    0  0.00000000000E+00  0.00000000000E+00  0.18250000000E+03  0.18250000000E+03  0.00000000000E+00 0. -1.
         11   -1    0    0    0    0 -0.00000000000E+00 -0.00000000000E+00 -0.18250000000E+03  0.18250000000E+03  0.00000000000E+00 0. -1.
        -11    1    1    2    0    0 -0.98095184174E+01  0.37428623927E+01  0.17597375321E+03  0.17628669119E+03  0.00000000000E+00 0. -1.
         11    1    1    2    0    0 -0.16561228187E+00 -0.33384319706E+01 -0.17707905223E+03  0.17711059622E+03  0.00000000000E+00 0. -1.
        -15    1    1    2    0    0  0.57367513189E+01  0.14927490612E+01  0.20945222508E+01  0.65332509452E+01  0.17770000000E+01 0.  1.
         15    1    1    2    0    0  0.42383793803E+01 -0.18971794832E+01 -0.98922322789E+00  0.50694616438E+01  0.17770000000E+01 0. -1.
</event>
<event>
 6    1  0.1144925E-002  0.1848270E+03  0.7546771E-02  0.1066617E+00
        -11   -1    0    0    0    0  0.00000000000E+00  0.00000000000E+00  0.18250000000E+03  0.18250000000E+03  0.00000000000E+00 0. -1.
         11   -1    0    0    0    0 -0.00000000000E+00 -0.00000000000E+00 -0.18250000000E+03  0.18250000000E+03  0.00000000000E+00 0.  1.
        -11    1    1    2    0    0  0.31925995470E+01  0.10829108889E+01  0.18014148835E+03  0.18017303131E+03  0.00000000000E+00 0. -1.
         11    1    1    2    0    0  0.27729784047E+01 -0.15388486916E+01 -0.17512373600E+03  0.17515244896E+03  0.00000000000E+00 0.  1.
        -15    1    1    2    0    0 -0.38413385782E+01 -0.13814672374E+00 -0.39511270027E+00  0.42530941249E+01  0.17770000000E+01 0. -1.
         15    1    1    2    0    0 -0.21242393736E+01  0.59408452649E+00 -0.46226396411E+01  0.54214256051E+01  0.17770000000E+01 0.  1.
</event>
<event>
 6    1  0.1144925E-002  0.1831456E+03  0.7546771E-02  0.1067942E+00
        -11   -1    0    0    0    0  0.00000000000E+00  0.00000000000E+00  0.18250000000E+03  0.18250000000E+03  0.00000000000E+00 0.  1.
         11   -1    0    0    0    0 -0.00000000000E+00 -0.00000000000E+00 -0.18250000000E+03  0.18250000000E+03  0.00000000000E+00 0.  1.
        -11    1    1    2    0    0  0.25039313878E+01  0.45563725803E+01  0.31505614948E+02  0.31931708015E+02  0.00000000000E+00 0.  1.
         11    1    1    2    0    0  0.53053791384E+00  0.77541430351E+01 -0.18168824743E+03  0.18185441281E+03  0.00000000000E+00 0.  1.
        -15    1    1    2    0    0 -0.14728904526E+01 -0.73538348065E+01  0.13187780685E+03  0.13210284615E+03  0.17770000000E+01 0.  1.
         15    1    1    2    0    0 -0.15615788491E+01 -0.49566808088E+01  0.18304825630E+02  0.19111033031E+02  0.17770000000E+01 0. -1.
</event>
<event>
 6    1  0.1144925E-002  0.1833626E+03  0.7546771E-02  0.1067770E+00
        -11   -1    0    0    0    0  0.00000000000E+00  0.00000000000E+00  0.18250000000E+03  0.18250000000E+03  0.00000000000E+00 0.  1.
         11   -1    0    0    0    0 -0.00000000000E+00 -0.00000000000E+00 -0.18250000000E+03  0.18250000000E+03  0.00000000000E+00 0. -1.
        -11    1    1    2    0    0  0.31663725035E+01  0.56016611766E+01  0.16053694457E+02  0.17295248726E+02  0.00000000000E+00 0.  1.
         11    1    1    2    0    0 -0.22537783675E+01 -0.12851942987E+01 -0.18161882915E+03  0.18163735944E+03  0.00000000000E+00 0. -1.
        -15    1    1    2    0    0  0.27526429145E+01  0.24883998546E+01  0.88420486163E+02  0.88516152645E+02  0.17770000000E+01 0. -1.
         15    1    1    2    0    0 -0.36652370505E+01 -0.68048667325E+01  0.77144648532E+02  0.77551239190E+02  0.17770000000E+01 0.  1.
</event>
<event>
 6    1  0.1144925E-002  0.1827292E+03  0.7546771E-02  0.1068273E+00
        -11   -1    0    0    0    0  0.00000000000E+00  0.00000000000E+00  0.18250000000E+03  0.18250000000E+03  0.00000000000E+00 0. -1.
         11   -1    0    0    0    0 -0.00000000000E+00 -0.00000000000E+00 -0.18250000000E+03  0.18250000000E+03  0.00000000000E+00 0.  1.
        -11    1    1    2    0    0  0.54992886306E+01 -0.23596703048E+01  0.44764178727E+02  0.45162394937E+02  0.00000000000E+00 0. -1.
         11    1    1    2    0    0 -0.10758235840E+02 -0.20584946733E+01 -0.18194139817E+03  0.18227081337E+03  0.00000000000E+00 0.  1.
        -15    1    1    2    0    0 -0.76228061732E+00  0.18779729712E+01  0.69336108234E+02  0.69388482390E+02  0.17770000000E+01 0. -1.
         15    1    1    2    0    0  0.60212278265E+01  0.25401920069E+01  0.67841111210E+02  0.68178309301E+02  0.17770000000E+01 0.  1.
</event>
<event>
 6    1  0.1144925E-002  0.1828303E+03  0.7546771E-02  0.1068192E+00
        -11   -1    0    0    0    0  0.00000000000E+00  0.00000000000E+00  0.18250000000E+03  0.18250000000E+03  0.00000000000E+00 0.  1.
         11   -1    0    0    0    0 -0.00000000000E+00 -0.00000000000E+00 -0.18250000000E+03  0.18250000000E+03  0.00000000000E+00 0. -1.
        -11    1    1    2    0    0  0.39885217269E+01  0.21991024362E+01  0.41206785815E+02  0.41457732141E+02  0.00000000000E+00 0.  1.
         11    1    1    2    0    0 -0.57274782747E+00  0.30785885163E+01 -0.18214278426E+03  0.18216970002E+03  0.00000000000E+00 0. -1.
        -15    1    1    2    0    0  0.11483108147E+01  0.14405059095E+01  0.46882840645E+02  0.46952658614E+02  0.17770000000E+01 0. -1.
         15    1    1    2    0    0 -0.45640847141E+01 -0.67181968621E+01  0.94053157797E+02  0.94419909229E+02  0.17770000000E+01 0.  1.
</event>
<event>
 6    1  0.1144925E-002  0.1833168E+03  0.7546771E-02  0.1067806E+00
        -11   -1    0    0    0    0  0.00000000000E+00  0.00000000000E+00  0.18250000000E+03  0.18250000000E+03  0.00000000000E+00 0.  1.
         11   -1    0    0    0    0 -0.00000000000E+00 -0.00000000000E+00 -0.18250000000E+03  0.18250000000E+03  0.00000000000E+00 0. -1.
        -11    1    1    2    0    0  0.95077883498E+01  0.39958262728E+01  0.18139024859E+03  0.18168320492E+03  0.00000000000E+00 0.  1.
         11    1    1    2    0    0 -0.11846701469E+02  0.16147424053E+01 -0.15035331819E+03  0.15082795504E+03  0.00000000000E+00 0. -1.
        -15    1    1    2    0    0  0.29402771831E+01 -0.66007956855E+01 -0.25329419772E+02  0.26399866829E+02  0.17770000000E+01 0.  1.
         15    1    1    2    0    0 -0.60136406363E+00  0.99022700745E+00 -0.57075106242E+01  0.60889732130E+01  0.17770000000E+01 0. -1.
</event>
<event>
 6    1  0.1144925E-002  0.1859298E+03  0.7546771E-02  0.1065757E+00
        -11   -1    0    0    0    0  0.00000000000E+00  0.00000000000E+00  0.18250000000E+03  0.18250000000E+03  0.00000000000E+00 0.  1.
         11   -1    0    0    0    0 -0.00000000000E+00 -0.00000000000E+00 -0.18250000000E+03  0.18250000000E+03  0.00000000000E+00 0. -1.
        -11    1    1    2    0    0  0.13713521434E+02  0.83910542226E+01  0.15884539260E+03  0.15965691094E+03  0.00000000000E+00 0.  1.
         11    1    1    2    0    0  0.46105669602E+00 -0.31990891781E+01 -0.17904102298E+03  0.17907019477E+03  0.00000000000E+00 0. -1.
        -15    1    1    2    0    0 -0.34996212594E+01 -0.14274104645E+00  0.93488053562E+01  0.10140296571E+02  0.17770000000E+01 0. -1.
         15    1    1    2    0    0 -0.10674956870E+02 -0.50492239981E+01  0.10846825024E+02  0.16132597723E+02  0.17770000000E+01 0.  1.
</event>
<event>
 6    1  0.1144925E-002  0.1827047E+03  0.7546771E-02  0.1068292E+00
        -11   -1    0    0    0    0  0.00000000000E+00  0.00000000000E+00  0.18250000000E+03  0.18250000000E+03  0.00000000000E+00 0. -1.
         11   -1    0    0    0    0 -0.00000000000E+00 -0.00000000000E+00 -0.18250000000E+03  0.18250000000E+03  0.00000000000E+00 0. -1.
        -11    1    1    2    0    0 -0.89801814825E+01  0.12602829345E+01  0.18206964450E+03  0.18229533022E+03  0.00000000000E+00 0. -1.
         11    1    1    2    0    0  0.18036678839E+01 -0.92562699116E+00 -0.78067040914E+02  0.78093360027E+02  0.00000000000E+00 0. -1.
        -15    1    1    2    0    0  0.23186979864E+01 -0.20585248240E+01 -0.14181011606E+02  0.14624387303E+02  0.17770000000E+01 0.  1.
         15    1    1    2    0    0  0.48578156121E+01  0.17238688807E+01 -0.89821591981E+02  0.89986922447E+02  0.17770000000E+01 0. -1.
</event>
<event>
 6    1  0.1144925E-002  0.1827344E+03  0.7546771E-02  0.1068268E+00
        -11   -1    0    0    0    0  0.00000000000E+00  0.00000000000E+00  0.18250000000E+03  0.18250000000E+03  0.00000000000E+00 0.  1.
         11   -1    0    0    0    0 -0.00000000000E+00 -0.00000000000E+00 -0.18250000000E+03  0.18250000000E+03  0.00000000000E+00 0.  1.
        -11    1    1    2    0    0  0.62213219912E+01 -0.34882960024E+01  0.18212594821E+03  0.18226555919E+03  0.00000000000E+00 0.  1.
         11    1    1    2    0    0 -0.27162407897E+01 -0.15520240615E+01 -0.11000098696E+03  0.11004546276E+03  0.00000000000E+00 0.  1.
        -15    1    1    2    0    0 -0.45996443890E+00  0.46824435745E+01 -0.53029767272E+02  0.53267727482E+02  0.17770000000E+01 0.  1.
         15    1    1    2    0    0 -0.30451167626E+01  0.35787648931E+00 -0.19095193977E+02  0.19421250570E+02  0.17770000000E+01 0. -1.
</event>
<event>
 6    1  0.1144925E-002  0.1830839E+03  0.7546771E-02  0.1067991E+00
        -11   -1    0    0    0    0  0.00000000000E+00  0.00000000000E+00  0.18250000000E+03  0.18250000000E+03  0.00000000000E+00 0.  1.
         11   -1    0    0    0    0 -0.00000000000E+00 -0.00000000000E+00 -0.18250000000E+03  0.18250000000E+03  0.00000000000E+00 0.  1.
        -11    1    1    2    0    0 -0.22371823853E+01  0.12512722039E+02  0.71862916810E+02  0.72978435241E+02  0.00000000000E+00 0.  1.
         11    1    1    2    0    0  0.37497166039E+01 -0.74706384378E+01 -0.18172394164E+03  0.18191608445E+03  0.00000000000E+00 0.  1.
        -15    1    1    2    0    0  0.95933533905E+00 -0.11772497668E+01  0.43165121221E+02  0.43228366385E+02  0.17770000000E+01 0. -1.
         15    1    1    2    0    0 -0.24718695577E+01 -0.38648338340E+01  0.66695903613E+02  0.66877113929E+02  0.17770000000E+01 0.  1.
</event>
<event>
 6    1  0.1144925E-002  0.1834917E+03  0.7546771E-02  0.1067668E+00
        -11   -1    0    0    0    0  0.00000000000E+00  0.00000000000E+00  0.18250000000E+03  0.18250000000E+03  0.00000000000E+00 0.  1.
         11   -1    0    0    0    0 -0.00000000000E+00 -0.00000000000E+00 -0.18250000000E+03  0.18250000000E+03  0.00000000000E+00 0.  1.
        -11    1    1    2    0    0 -0.49094669650E+01  0.17386247854E+01  0.14123525852E+03  0.14133125603E+03  0.00000000000E+00 0.  1.
         11    1    1    2    0    0  0.20993582127E+01 -0.43758720494E+01 -0.18144337817E+03  0.18150827817E+03  0.00000000000E+00 0.  1.
        -15    1    1    2    0    0 -0.43258689844E+01  0.21819677891E+01  0.13436269891E+02  0.14393234643E+02  0.17770000000E+01 0.  1.
         15    1    1    2    0    0  0.71359777366E+01  0.45527947488E+00  0.26771849758E+02  0.27767231157E+02  0.17770000000E+01 0. -1.
</event>
<event>
 6    1  0.1144925E-002  0.1847492E+03  0.7546771E-02  0.1066678E+00
        -11   -1    0    0    0    0  0.00000000000E+00  0.00000000000E+00  0.18250000000E+03  0.18250000000E+03  0.00000000000E+00 0. -1.
         11   -1    0    0    0    0 -0.00000000000E+00 -0.00000000000E+00 -0.18250000000E+03  0.18250000000E+03  0.00000000000E+00 0.  1.
        -11    1    1    2    0    0 -0.87451370845E+00 -0.47000450193E+01  0.17640045447E+03  0.17646522471E+03  0.00000000000E+00 0. -1.
         11    1    1    2    0    0  0.19549589710E+01  0.23292042369E+01 -0.18022519256E+03  0.18025084491E+03  0.00000000000E+00 0.  1.
        -15    1    1    2    0    0  0.29157111119E+00 -0.14772515324E+01  0.29246724593E+01  0.37388131535E+01  0.17770000000E+01 0.  1.
         15    1    1    2    0    0 -0.13720163737E+01  0.38480923148E+01  0.90006563886E+00  0.45451172204E+01  0.17770000000E+01 0. -1.
</event>
<event>
 6    1  0.1144925E-002  0.1857091E+03  0.7546771E-02  0.1065929E+00
        -11   -1    0    0    0    0  0.00000000000E+00  0.00000000000E+00  0.18250000000E+03  0.18250000000E+03  0.00000000000E+00 0. -1.
         11   -1    0    0    0    0 -0.00000000000E+00 -0.00000000000E+00 -0.18250000000E+03  0.18250000000E+03  0.00000000000E+00 0.  1.
        -11    1    1    2    0    0 -0.33985451785E+01  0.50856642959E+01  0.17136148328E+03  0.17147061569E+03  0.00000000000E+00 0. -1.
         11    1    1    2    0    0  0.42217233152E+01  0.49089202773E+00 -0.17924049768E+03  0.17929088078E+03  0.00000000000E+00 0.  1.
        -15    1    1    2    0    0  0.42513437173E+01 -0.43595425635E+01  0.43971920408E+01  0.77183263476E+01  0.17770000000E+01 0.  1.
         15    1    1    2    0    0 -0.50745218541E+01 -0.12170137602E+01  0.34818223579E+01  0.65201771810E+01  0.17770000000E+01 0. -1.
</event>
<event>
 6    1  0.1144925E-002  0.1682791E+03  0.7546771E-02  0.1080374E+00
        -11   -1    0    0    0    0  0.00000000000E+00  0.00000000000E+00  0.18250000000E+03  0.18250000000E+03  0.00000000000E+00 0. -1.
         11   -1    0    0    0    0 -0.00000000000E+00 -0.00000000000E+00 -0.18250000000E+03  0.18250000000E+03  0.00000000000E+00 0. -1.
        -11    1    1    2    0    0  0.65857049401E+02 -0.26936265360E+02  0.15387555515E+03  0.16952993782E+03  0.00000000000E+00 0. -1.
         11    1    1    2    0    0  0.17908574375E+01  0.29828599928E+01 -0.43343963541E+02  0.43483373829E+02  0.00000000000E+00 0. -1.
        -15    1    1    2    0    0 -0.70762243419E+02  0.30471607238E+02 -0.51961559255E+02  0.92946088194E+02  0.17770000000E+01 0. -1.
         15    1    1    2    0    0  0.31143365811E+01 -0.65182018709E+01 -0.58570032349E+02  0.59040600153E+02  0.17770000000E+01 0.  1.
</event>
<event>
 6    1  0.1144925E-002  0.1837581E+03  0.7546771E-02  0.1067458E+00
        -11   -1    0    0    0    0  0.00000000000E+00  0.00000000000E+00  0.18250000000E+03  0.18250000000E+03  0.00000000000E+00 0.  1.
         11   -1    0    0    0    0 -0.00000000000E+00 -0.00000000000E+00 -0.18250000000E+03  0.18250000000E+03  0.00000000000E+00 0. -1.
        -11    1    1    2    0    0  0.12369787282E+02 -0.12071841237E+02  0.18041590004E+03  0.18124193216E+03  0.00000000000E+00 0.  1.
         11    1    1    2    0    0 -0.10620792303E+01 -0.20925343681E+01 -0.12713812358E+03  0.12715977815E+03  0.00000000000E+00 0. -1.
        -15    1    1    2    0    0 -0.39029582883E+01  0.62852119387E+01 -0.28643725599E+02  0.29637100359E+02  0.17770000000E+01 0.  1.
         15    1    1    2    0    0 -0.74047497639E+01  0.78791636661E+01 -0.24634050862E+02  0.26961189329E+02  0.17770000000E+01 0. -1.
</event>
<event>
 6    1  0.1144925E-002  0.1845119E+03  0.7546771E-02  0.1066865E+00
        -11   -1    0    0    0    0  0.00000000000E+00  0.00000000000E+00  0.18250000000E+03  0.18250000000E+03  0.00000000000E+00 0. -1.
         11   -1    0    0    0    0 -0.00000000000E+00 -0.00000000000E+00 -0.18250000000E+03  0.18250000000E+03  0.00000000000E+00 0. -1.
        -11    1    1    2    0    0 -0.23670410028E+02  0.38890598068E+02  0.17465162060E+03  0.18048810350E+03  0.00000000000E+00 0. -1.
         11    1    1    2    0    0  0.22573686469E+02 -0.36254092144E+02 -0.15492028616E+03  0.16069917729E+03  0.00000000000E+00 0. -1.
        -15    1    1    2    0    0 -0.36291723582E+01 -0.33155740100E+01 -0.17476832480E+02  0.18241746779E+02  0.17770000000E+01 0. -1.
         15    1    1    2    0    0  0.47258959173E+01  0.67906808609E+00 -0.22545019589E+01  0.55709724258E+01  0.17770000000E+01 0.  1.
</event>
<event>
 6    1  0.1144925E-002  0.1827295E+03  0.7546771E-02  0.1068272E+00
        -11   -1    0    0    0    0  0.00000000000E+00  0.00000000000E+00  0.18250000000E+03  0.18250000000E+03  0.00000000000E+00 0. -1.
         11   -1    0    0    0    0 -0.00000000000E+00 -0.00000000000E+00 -0.18250000000E+03  0.18250000000E+03  0.00000000000E+00 0. -1.
        -11    1    1    2    0    0 -0.25157083108E+01 -0.95528936033E+01  0.18200262373E+03  0.18227051766E+03  0.00000000000E+00 0. -1.
         11    1    1    2    0    0  0.82355891596E-01  0.29079837364E+01 -0.11645922314E+03  0.11649555274E+03  0.00000000000E+00 0. -1.
        -15    1    1    2    0    0  0.18777332439E+01  0.70328122025E+01 -0.56340621618E+02  0.56836693280E+02  0.17770000000E+01 0. -1.
         15    1    1    2    0    0  0.55561917532E+00 -0.38790233556E+00 -0.92027789638E+01  0.93972363249E+01  0.17770000000E+01 0. -1.
</event>
<event>
 6    1  0.1144925E-002  0.1831204E+03  0.7546771E-02  0.1067962E+00
        -11   -1    0    0    0    0  0.00000000000E+00  0.00000000000E+00  0.18250000000E+03  0.18250000000E+03  0.00000000000E+00 0. -1.
         11   -1    0    0    0    0 -0.00000000000E+00 -0.00000000000E+00 -0.18250000000E+03  0.18250000000E+03  0.00000000000E+00 0.  1.
        -11    1    1    2    0    0 -0.21942773191E+01 -0.43858627118E+01  0.18181344764E+03  0.18187957661E+03  0.00000000000E+00 0. -1.
         11    1    1    2    0    0  0.79062955136E+00  0.56498431827E+01 -0.16036347172E+03  0.16046491481E+03  0.00000000000E+00 0.  1.
        -15    1    1    2    0    0  0.35811985557E+01 -0.82319773370E+00 -0.15941422879E+02  0.16455677744E+02  0.17770000000E+01 0.  1.
         15    1    1    2    0    0 -0.21775507879E+01 -0.44078273718E+00 -0.55085530431E+01  0.61998308431E+01  0.17770000000E+01 0.  1.
</event>
<event>
 6    1  0.1144925E-002  0.3650000E+03  0.7546771E-02  0.9765871E-01
        -11   -1    0    0    0    0  0.00000000000E+00  0.00000000000E+00  0.18250000000E+03  0.18250000000E+03  0.00000000000E+00 0. -1.
         11   -1    0    0    0    0 -0.00000000000E+00 -0.00000000000E+00 -0.18250000000E+03  0.18250000000E+03  0.00000000000E+00 0.  1.
        -11    1    1    2    0    0  0.53488847404E+01 -0.13675422740E+02 -0.11238826232E+02  0.18491591878E+02  0.00000000000E+00 0. -1.
         11    1    1    2    0    0  0.15057454899E+02 -0.11765118423E+02 -0.15846169987E+03  0.15960969671E+03  0.00000000000E+00 0.  1.
        -15    1    1    2    0    0 -0.46082825641E+01 -0.12160387835E+02  0.81631081830E+00  0.13150490212E+02  0.17770000000E+01 0.  1.
         15    1    1    2    0    0 -0.15798057076E+02  0.37600928997E+02  0.16888421528E+03  0.17374822120E+03  0.17770000000E+01 0. -1.
</event>
<event>
 6    1  0.1144925E-002  0.1859293E+03  0.7546771E-02  0.1065757E+00
        -11   -1    0    0    0    0  0.00000000000E+00  0.00000000000E+00  0.18250000000E+03  0.18250000000E+03  0.00000000000E+00 0. -1.
         11   -1    0    0    0    0 -0.00000000000E+00 -0.00000000000E+00 -0.18250000000E+03  0.18250000000E+03  0.00000000000E+00 0.  1.
        -11    1    1    2    0    0 -0.25530991941E+00 -0.16159330028E+02  0.12541966451E+03  0.12645663832E+03  0.00000000000E+00 0. -1.
         11    1    1    2    0    0 -0.85445107643E+01  0.11149139821E+02 -0.17851895429E+03  0.17907073748E+03  0.00000000000E+00 0.  1.
        -15    1    1    2    0    0 -0.68727438571E+01  0.71493194307E+01  0.27939571568E+02  0.29700585261E+02  0.17770000000E+01 0. -1.
         15    1    1    2    0    0  0.15672564541E+02 -0.21391292239E+01  0.25159718211E+02  0.29772038939E+02  0.17770000000E+01 0.  1.
</event>
<event>
 6    1  0.1144925E-002  0.1771880E+03  0.7546771E-02  0.1072764E+00
        -11   -1    0    0    0    0  0.00000000000E+00  0.00000000000E+00  0.18250000000E+03  0.18250000000E+03  0.00000000000E+00 0.  1.
         11   -1    0    0    0    0 -0.00000000000E+00 -0.00000000000E+00 -0.18250000000E+03  0.18250000000E+03  0.00000000000E+00 0. -1.
        -11    1    1    2    0    0  0.49248294224E+01 -0.89809289752E+00  0.17927773706E+03  0.17934761644E+03  0.00000000000E+00 0.  1.
         11    1    1    2    0    0  0.18204109881E+01  0.41515358382E+01 -0.17507375724E+03  0.17513243452E+03  0.00000000000E+00 0. -1.
        -15    1    1    2    0    0 -0.94243133385E-01 -0.56273212605E+00 -0.21527922890E+01  0.28491740651E+01  0.17770000000E+01 0. -1.
         15    1    1    2    0    0 -0.66509972771E+01 -0.26907108147E+01 -0.20511875336E+01  0.76707749782E+01  0.17770000000E+01 0. -1.
</event>
<event>
 6    1  0.1144925E-002  0.1849262E+03  0.7546771E-02  0.1066540E+00
        -11   -1    0    0    0    0  0.00000000000E+00  0.00000000000E+00  0.18250000000E+03  0.18250000000E+03  0.00000000000E+00 0.  1.
         11   -1    0    0    0    0 -0.00000000000E+00 -0.00000000000E+00 -0.18250000000E+03  0.18250000000E+03  0.00000000000E+00 0. -1.
        -11    1    1    2    0    0 -0.96355164696E+01 -0.15106040583E+02  0.17918020585E+03  0.18007382321E+03  0.00000000000E+00 0.  1.
         11    1    1    2    0    0  0.90615288405E+00 -0.32250078275E+01 -0.13401260739E+03  0.13405446926E+03  0.00000000000E+00 0. -1.
        -15    1    1    2    0    0  0.10169439347E+01  0.56066329097E+01 -0.25254171550E+02  0.25949940601E+02  0.17770000000E+01 0.  1.
         15    1    1    2    0    0  0.77124196509E+01  0.12724415501E+02 -0.19913426907E+02  0.24921766930E+02  0.17770000000E+01 0. -1.
</event>
<event>
 6    1  0.1144925E-002  0.1832786E+03  0.7546771E-02  0.1067837E+00
        -11   -1    0    0    0    0  0.00000000000E+00  0.00000000000E+00  0.18250000000E+03  0.18250000000E+03  0.00000000000E+00 0.  1.
         11   -1    0    0    0    0 -0.00000000000E+00 -0.00000000000E+00 -0.18250000000E+03  0.18250000000E+03  0.00000000000E+00 0. -1.
        -11    1    1    2    0    0 -0.60638914105E+01 -0.35842298894E+01  0.18158479662E+03  0.18172136872E+03  0.00000000000E+00 0.  1.
         11    1    1    2    0    0  0.17978101678E-01  0.23731314267E+01 -0.15439623544E+03  0.15441447340E+03  0.00000000000E+00 0. -1.
        -15    1    1    2    0    0  0.59068880040E+01  0.28045975712E+01 -0.23588833035E+02  0.24542776256E+02  0.17770000000E+01 0. -1.
         15    1    1    2    0    0  0.13902530483E+00 -0.15934991086E+01 -0.35997281459E+01  0.43213816273E+01  0.17770000000E+01 0. -1.
</event>
<event>
 6    1  0.1144925E-002  0.1830322E+03  0.7546771E-02  0.1068032E+00
        -11   -1    0    0    0    0  0.00000000000E+00  0.00000000000E+00  0.18250000000E+03  0.18250000000E+03  0.00000000000E+00 0. -1.
         11   -1    0    0    0    0 -0.00000000000E+00 -0.00000000000E+00 -0.18250000000E+03  0.18250000000E+03  0.00000000000E+00 0. -1.
        -11    1    1    2    0    0  0.14624593828E+01  0.87608703440E+01  0.18175086084E+03  0.18196776378E+03  0.00000000000E+00 0. -1.
         11    1    1    2    0    0 -0.35903042841E+01 -0.18280739180E+01 -0.71996269783E+02  0.72108910696E+02  0.00000000000E+00 0. -1.
        -15    1    1    2    0    0  0.69688295438E+01  0.27076965815E+00 -0.48023078069E+02  0.48559362204E+02  0.17770000000E+01 0.  1.
         15    1    1    2    0    0 -0.48409846426E+01 -0.72035660841E+01 -0.61731512990E+02  0.62363963325E+02  0.17770000000E+01 0. -1.
</event>
<event>
 6    1  0.1144925E-002  0.1737181E+03  0.7546771E-02  0.1075668E+00
        -11   -1    0    0    0    0  0.00000000000E+00  0.00000000000E+00  0.18250000000E+03  0.18250000000E+03  0.00000000000E+00 0.  1.
         11   -1    0    0    0    0 -0.00000000000E+00 -0.00000000000E+00 -0.18250000000E+03  0.18250000000E+03  0.00000000000E+00 0.  1.
        -11    1    1    2    0    0 -0.51769663346E+01 -0.74328071083E+01  0.17292141190E+03  0.17315848895E+03  0.00000000000E+00 0.  1.
         11    1    1    2    0    0 -0.27962699802E+01 -0.68509919868E+01 -0.17450935875E+03  0.17466617162E+03  0.00000000000E+00 0.  1.
        -15    1    1    2    0    0  0.62515733514E+01  0.86392717718E+01  0.20166674311E+01  0.10997448006E+02  0.17770000000E+01 0.  1.
         15    1    1    2    0    0  0.17216629633E+01  0.56445273233E+01 -0.42872058049E+00  0.61778914202E+01  0.17770000000E+01 0. -1.
</event>
<event>
 6    1  0.1144925E-002  0.1838294E+03  0.7546771E-02  0.1067401E+00
        -11   -1    0    0    0    0  0.00000000000E+00  0.00000000000E+00  0.18250000000E+03  0.18250000000E+03  0.00000000000E+00 0.  1.
         11   -1    0    0    0    0 -0.00000000000E+00 -0.00000000000E+00 -0.18250000000E+03  0.18250000000E+03  0.00000000000E+00 0.  1.
        -11    1    1    2    0    0 -0.21893000775E+01  0.52493670145E+01  0.10384689339E+03  0.10400252957E+03  0.00000000000E+00 0.  1.
         11    1    1    2    0    0 -0.27978377956E+01  0.44780824941E+01 -0.18109360812E+03  0.18117057162E+03  0.00000000000E+00 0.  1.
        -15    1    1    2    0    0 -0.17674679918E+01 -0.23611295844E+01  0.57689395167E+02  0.57792066235E+02  0.17770000000E+01 0.  1.
         15    1    1    2    0    0  0.67546058649E+01 -0.73663199242E+01  0.19557319555E+02  0.22034832579E+02  0.17770000000E+01 0.  1.
</event>
<event>
 6    1  0.1144925E-002  0.1826355E+03  0.7546771E-02  0.1068347E+00
        -11   -1    0    0    0    0  0.00000000000E+00  0.00000000000E+00  0.18250000000E+03  0.18250000000E+03  0.00000000000E+00 0. -1.
         11   -1    0    0    0    0 -0.00000000000E+00 -0.00000000000E+00 -0.18250000000E+03  0.18250000000E+03  0.00000000000E+00 0. -1.
        -11    1    1    2    0    0 -0.44009516137E+01 -0.11792125302E+01 -0.24920677455E+02  0.25333753810E+02  0.00000000000E+00 0. -1.
         11    1    1    2    0    0  0.50694572986E+01  0.60018313521E+00 -0.15721893472E+03  0.15730178973E+03  0.00000000000E+00 0. -1.
        -15    1    1    2    0    0 -0.21650520627E+01 -0.28550678322E+01  0.49961747133E+02  0.50121579867E+02  0.17770000000E+01 0.  1.
         15    1    1    2    0    0  0.14965463778E+01  0.34340972272E+01  0.13217786504E+03  0.13224287660E+03  0.17770000000E+01 0. -1.
</event>
<event>
 6    1  0.1144925E-002  0.1865130E+03  0.7546771E-02  0.1065305E+00
        -11   -1    0    0    0    0  0.00000000000E+00  0.00000000000E+00  0.18250000000E+03  0.18250000000E+03  0.00000000000E+00 0. -1.
         11   -1    0    0    0    0 -0.00000000000E+00 -0.00000000000E+00 -0.18250000000E+03  0.18250000000E+03  0.00000000000E+00 0. -1.
        -11    1    1    2    0    0 -0.23889282089E+01  0.83919065494E+01  0.17538984704E+03  0.17560674679E+03  0.00000000000E+00 0. -1.
         11    1    1    2    0    0 -0.10742102251E+01 -0.60993093010E+01 -0.17837947492E+03  0.17848695351E+03  0.00000000000E+00 0. -1.
        -15    1    1    2    0    0  0.25970830513E+01  0.15010144900E+01 -0.22444796133E+01  0.41464807498E+01  0.17770000000E+01 0.  1.
         15    1    1    2    0    0  0.86605538273E+00 -0.37936117384E+01  0.52341074894E+01  0.67598189441E+01  0.17770000000E+01 0.  1.
</event>
<event>
 6    1  0.1144925E-002  0.1880478E+03  0.7546771E-02  0.1064123E+00
        -11   -1    0    0    0    0  0.00000000000E+00  0.00000000000E+00  0.18250000000E+03  0.18250000000E+03  0.00000000000E+00 0.  1.
         11   -1    0    0    0    0 -0.00000000000E+00 -0.00000000000E+00 -0.18250000000E+03  0.18250000000E+03  0.00000000000E+00 0.  1.
        -11    1    1    2    0    0 -0.36751215368E+01 -0.95789660068E+01  0.17665447384E+03  0.17695215804E+03  0.00000000000E+00 0.  1.
         11    1    1    2    0    0  0.45034016284E+01 -0.32619148999E+01 -0.16316236591E+03  0.16325709285E+03  0.00000000000E+00 0.  1.
        -15    1    1    2    0    0 -0.48864801339E+01  0.13875672663E+02 -0.59192798030E+01  0.15956427618E+02  0.17770000000E+01 0. -1.
         15    1    1    2    0    0  0.40582000424E+01 -0.10347917563E+01 -0.75728281221E+01  0.88343214980E+01  0.17770000000E+01 0.  1.
</event>
<event>
 6    1  0.1144925E-002  0.1843905E+03  0.7546771E-02  0.1066960E+00
        -11   -1    0    0    0    0  0.00000000000E+00  0.00000000000E+00  0.18250000000E+03  0.18250000000E+03  0.00000000000E+00 0. -1.
         11   -1    0    0    0    0 -0.00000000000E+00 -0.00000000000E+00 -0.18250000000E+03  0.18250000000E+03  0.00000000000E+00 0.  1.
        -11    1    1    2    0    0 -0.40472458007E+00  0.37894899371E+01  0.17737196447E+03  0.17741290206E+03  0.00000000000E+00 0. -1.
         11    1    1    2    0    0  0.44858234019E+01 -0.30820055555E+01 -0.18052751038E+03  0.18060953290E+03  0.00000000000E+00 0.  1.
        -15    1    1    2    0    0 -0.22539258158E+01 -0.17253213125E+01  0.24336174605E+01  0.41397026654E+01  0.17770000000E+01 0. -1.
         15    1    1    2    0    0 -0.18271730061E+01  0.10178369308E+01  0.72192844798E+00  0.28378623814E+01  0.17770000000E+01 0. -1.
</event>
<event>
 6    1  0.1144925E-002  0.1778722E+03  0.7546771E-02  0.1072199E+00
        -11   -1    0    0    0    0  0.00000000000E+00  0.00000000000E+00  0.18250000000E+03  0.18250000000E+03  0.00000000000E+00 0.  1.
         11   -1    0    0    0    0 -0.00000000000E+00 -0.00000000000E+00 -0.18250000000E+03  0.18250000000E+03  0.00000000000E+00 0. -1.
        -11    1    1    2    0    0 -0.47451299254E+01 -0.14457618271E+00  0.17634399677E+03  0.17640788632E+03  0.00000000000E+00 0.  1.
         11    1    1    2    0    0 -0.22364401242E+01  0.17759723533E+01 -0.17939915082E+03  0.17942188009E+03  0.00000000000E+00 0. -1.
        -15    1    1    2    0    0  0.39328915317E+01 -0.24528163879E+01  0.12337260510E+01  0.51150516128E+01  0.17770000000E+01 0.  1.
         15    1    1    2    0    0  0.30486785179E+01  0.82142021728E+00  0.18214280008E+01  0.40551819739E+01  0.17770000000E+01 0. -1.
</event>
<event>
 6    1  0.1144925E-002  0.1827387E+03  0.7546771E-02  0.1068265E+00
        -11   -1    0    0    0    0  0.00000000000E+00  0.00000000000E+00  0.18250000000E+03  0.18250000000E+03  0.00000000000E+00 0.  1.
         11   -1    0    0    0    0 -0.00000000000E+00 -0.00000000000E+00 -0.18250000000E+03  0.18250000000E+03  0.00000000000E+00 0. -1.
        -11    1    1    2    0    0 -0.31621611389E+00 -0.36590278677E+01  0.18222425223E+03  0.18226125912E+03  0.00000000000E+00 0.  1.
         11    1    1    2    0    0  0.20051016927E+01  0.16997012187E+01 -0.13814270708E+03  0.13816771308E+03  0.00000000000E+00 0. -1.
        -15    1    1    2    0    0  0.96705020158E-01  0.12501442955E+01 -0.57071288592E+01  0.61074758646E+01  0.17770000000E+01 0. -1.
         15    1    1    2    0    0 -0.17855905990E+01  0.70918235348E+00 -0.38374416285E+02  0.38463551937E+02  0.17770000000E+01 0.  1.
</event>
<event>
 6    1  0.1144925E-002  0.1901328E+03  0.7546771E-02  0.1062536E+00
        -11   -1    0    0    0    0  0.00000000000E+00  0.00000000000E+00  0.18250000000E+03  0.18250000000E+03  0.00000000000E+00 0.  1.
         11   -1    0    0    0    0 -0.00000000000E+00 -0.00000000000E+00 -0.18250000000E+03  0.18250000000E+03  0.00000000000E+00 0. -1.
        -11    1    1    2    0    0 -0.69681127972E+01  0.21632592930E+02  0.17338399706E+03  0.17486718992E+03  0.00000000000E+00 0.  1.
         11    1    1    2    0    0  0.63770440680E+01  0.10139789785E+02 -0.14331284231E+03  0.14381256134E+03  0.00000000000E+00 0. -1.
        -15    1    1    2    0    0 -0.27283716837E-01 -0.30686848168E+02 -0.21583737050E+02  0.37559270878E+02  0.17770000000E+01 0.  1.
         15    1    1    2    0    0  0.61835244610E+00 -0.10855345477E+01 -0.84874176982E+01  0.87609778670E+01  0.17770000000E+01 0. -1.
</event>
<event>
 6    1  0.1144925E-002  0.1840344E+03  0.7546771E-02  0.1067240E+00
        -11   -1    0    0    0    0  0.00000000000E+00  0.00000000000E+00  0.18250000000E+03  0.18250000000E+03  0.00000000000E+00 0.  1.
         11   -1    0    0    0    0 -0.00000000000E+00 -0.00000000000E+00 -0.18250000000E+03  0.18250000000E+03  0.00000000000E+00 0. -1.
        -11    1    1    2    0    0 -0.52193478588E+01 -0.22130909231E+01  0.37940673709E+01  0.68216061686E+01  0.00000000000E+00 0.  1.
         11    1    1    2    0    0  0.28159540543E+01  0.60755714526E+00 -0.18094262546E+03  0.18096555593E+03  0.00000000000E+00 0. -1.
        -15    1    1    2    0    0  0.76733143955E+00  0.75545416099E+00  0.59108470088E+02  0.59144978431E+02  0.17770000000E+01 0.  1.
         15    1    1    2    0    0  0.16360623650E+01  0.85007961688E+00  0.11804008800E+03  0.11806785947E+03  0.17770000000E+01 0.  1.
</event>
<event>
 6    1  0.1144925E-002  0.1836037E+03  0.7546771E-02  0.1067580E+00
        -11   -1    0    0    0    0  0.00000000000E+00  0.00000000000E+00  0.18250000000E+03  0.18250000000E+03  0.00000000000E+00 0.  1.
         11   -1    0    0    0    0 -0.00000000000E+00 -0.00000000000E+00 -0.18250000000E+03  0.18250000000E+03  0.00000000000E+00 0.  1.
        -11    1    1    2    0    0  0.10995754963E+02  0.63058767959E-02  0.15040538739E+03  0.15080678772E+03  0.00000000000E+00 0.  1.
         11    1    1    2    0    0 -0.71010779786E+01  0.74071818486E+01 -0.18110581635E+03  0.18139627440E+03  0.00000000000E+00 0.  1.
        -15    1    1    2    0    0 -0.58111622498E+00 -0.36677263117E+01  0.46462259710E+01  0.62076611649E+01  0.17770000000E+01 0.  1.
         15    1    1    2    0    0 -0.33135607592E+01 -0.37457614137E+01  0.26054202987E+02  0.26589276706E+02  0.17770000000E+01 0. -1.
</event>
<event>
 6    1  0.1144925E-002  0.1820921E+03  0.7546771E-02  0.1068780E+00
        -11   -1    0    0    0    0  0.00000000000E+00  0.00000000000E+00  0.18250000000E+03  0.18250000000E+03  0.00000000000E+00 0.  1.
         11   -1    0    0    0    0 -0.00000000000E+00 -0.00000000000E+00 -0.18250000000E+03  0.18250000000E+03  0.00000000000E+00 0. -1.
        -11    1    1    2    0    0  0.28550163277E+00  0.10141144637E+01  0.38452471601E+00  0.11215161992E+01  0.00000000000E+00 0.  1.
         11    1    1    2    0    0 -0.18738691028E+01 -0.20357573545E+01 -0.18196217315E+03  0.18198320844E+03  0.00000000000E+00 0. -1.
        -15    1    1    2    0    0  0.32093133669E+01 -0.20814372716E+01  0.15196185490E+03  0.15202037740E+03  0.17770000000E+01 0.  1.
         15    1    1    2    0    0 -0.16209458969E+01  0.31030801623E+01  0.29615793542E+02  0.29874897962E+02  0.17770000000E+01 0. -1.
</event>
<event>
 6    1  0.1144925E-002  0.1827140E+03  0.7546771E-02  0.1068285E+00
        -11   -1    0    0    0    0  0.00000000000E+00  0.00000000000E+00  0.18250000000E+03  0.18250000000E+03  0.00000000000E+00 0.  1.
         11   -1    0    0    0    0 -0.00000000000E+00 -0.00000000000E+00 -0.18250000000E+03  0.18250000000E+03  0.00000000000E+00 0. -1.
        -11    1    1    2    0    0 -0.35630902375E+01 -0.24244497746E+01  0.34731054246E+02  0.34997424159E+02  0.00000000000E+00 0.  1.
         11    1    1    2    0    0  0.10696083563E+02  0.25857263977E+01 -0.18195352684E+03  0.18228597893E+03  0.00000000000E+00 0. -1.
        -15    1    1    2    0    0 -0.30399487444E+01  0.54650910300E+00  0.12441137655E+03  0.12446239715E+03  0.17770000000E+01 0.  1.
         15    1    1    2    0    0 -0.40930445809E+01 -0.70778572611E+00  0.22811096050E+02  0.23254199762E+02  0.17770000000E+01 0. -1.
</event>
<event>
 6    1  0.1144925E-002  0.1827102E+03  0.7546771E-02  0.1068288E+00
        -11   -1    0    0    0    0  0.00000000000E+00  0.00000000000E+00  0.18250000000E+03  0.18250000000E+03  0.00000000000E+00 0. -1.
         11   -1    0    0    0    0 -0.00000000000E+00 -0.00000000000E+00 -0.18250000000E+03  0.18250000000E+03  0.00000000000E+00 0.  1.
        -11    1    1    2    0    0  0.45064606326E+01 -0.65093009175E+00  0.11719655996E+03  0.11728497587E+03  0.00000000000E+00 0. -1.
         11    1    1    2    0    0 -0.48114177670E+01 -0.12595512799E+01 -0.18222193777E+03  0.18228979898E+03  0.00000000000E+00 0.  1.
        -15    1    1    2    0    0  0.11933211301E+01  0.38137520698E+01  0.44938911405E+02  0.45151214906E+02  0.17770000000E+01 0. -1.
         15    1    1    2    0    0 -0.88836399562E+00 -0.19032706982E+01  0.20086466398E+02  0.20274010242E+02  0.17770000000E+01 0. -1.
</event>
<event>
 6    1  0.1144925E-002  0.1827372E+03  0.7546771E-02  0.1068266E+00
        -11   -1    0    0    0    0  0.00000000000E+00  0.00000000000E+00  0.18250000000E+03  0.18250000000E+03  0.00000000000E+00 0.  1.
         11   -1    0    0    0    0 -0.00000000000E+00 -0.00000000000E+00 -0.18250000000E+03  0.18250000000E+03  0.00000000000E+00 0. -1.
        -11    1    1    2    0    0  0.10224887973E+01 -0.60068853291E+01  0.38380270755E+02  0.38860948753E+02  0.00000000000E+00 0.  1.
         11    1    1    2    0    0  0.28300844229E+01  0.60163442285E+01 -0.18214152921E+03  0.18226283889E+03  0.00000000000E+00 0. -1.
        -15    1    1    2    0    0 -0.27943369781E+01  0.88971443744E+00  0.97026542509E+02  0.97087113415E+02  0.17770000000E+01 0.  1.
         15    1    1    2    0    0 -0.10582362420E+01 -0.89917333684E+00  0.46734715946E+02  0.46789098946E+02  0.17770000000E+01 0.  1.
</event>
<event>
 6    1  0.1144925E-002  0.1841365E+03  0.7546771E-02  0.1067160E+00
        -11   -1    0    0    0    0  0.00000000000E+00  0.00000000000E+00  0.18250000000E+03  0.18250000000E+03  0.00000000000E+00 0. -1.
         11   -1    0    0    0    0 -0.00000000000E+00 -0.00000000000E+00 -0.18250000000E+03  0.18250000000E+03  0.00000000000E+00 0. -1.
        -11    1    1    2    0    0 -0.70811653387E+01 -0.10286519817E+01  0.16606107155E+03  0.16621516330E+03  0.00000000000E+00 0. -1.
         11    1    1    2    0    0  0.12932153839E+01 -0.57899272964E+01 -0.18076620317E+03  0.18086352831E+03  0.00000000000E+00 0. -1.
        -15    1    1    2    0    0  0.39772482723E+01  0.20824662103E+01  0.61491944046E+01  0.78182792328E+01  0.17770000000E+01 0.  1.
         15    1    1    2    0    0  0.18107016825E+01  0.47361130677E+01  0.85559372174E+01  0.10103029162E+02  0.17770000000E+01 0. -1.
</event>
<event>
 6    1  0.1144925E-002  0.1840578E+03  0.7546771E-02  0.1067222E+00
        -11   -1    0    0    0    0  0.00000000000E+00  0.00000000000E+00  0.18250000000E+03  0.18250000000E+03  0.00000000000E+00 0. -1.
         11   -1    0    0    0    0 -0.00000000000E+00 -0.00000000000E+00 -0.18250000000E+03  0.18250000000E+03  0.00000000000E+00 0.  1.
        -11    1    1    2    0    0 -0.59716095577E-01  0.93372150728E+01  0.18070110240E+03  0.18094218844E+03  0.00000000000E+00 0. -1.
         11    1    1    2    0    0 -0.79105615328E+00 -0.21810932756E+01 -0.16366784867E+03  0.16368429255E+03  0.00000000000E+00 0.  1.
        -15    1    1    2    0    0  0.32267591298E+01 -0.73309963867E+01 -0.12646860276E+02  0.15075021935E+02  0.17770000000E+01 0.  1.
         15    1    1    2    0    0 -0.23759868810E+01  0.17487458951E+00 -0.43863934490E+01  0.52984970765E+01  0.17770000000E+01 0.  1.
</event>
<event>
 6    1  0.1144925E-002  0.1847526E+03  0.7546771E-02  0.1066676E+00
        -11   -1    0    0    0    0  0.00000000000E+00  0.00000000000E+00  0.18250000000E+03  0.18250000000E+03  0.00000000000E+00 0. -1.
         11   -1    0    0    0    0 -0.00000000000E+00 -0.00000000000E+00 -0.18250000000E+03  0.18250000000E+03  0.00000000000E+00 0.  1.
        -11    1    1    2    0    0 -0.72911739437E+00  0.65605619180E+01  0.16930685902E+03  0.16943548948E+03  0.00000000000E+00 0. -1.
         11    1    1    2    0    0  0.72898002432E+00  0.23961814823E+01 -0.18023002103E+03  0.18024742322E+03  0.00000000000E+00 0.  1.
        -15    1    1    2    0    0 -0.17865093825E+00 -0.61011648829E+01  0.99566336203E+01  0.11813061040E+02  0.17770000000E+01 0.  1.
         15    1    1    2    0    0  0.17878830830E+00 -0.28555785175E+01  0.96652838894E+00  0.35040262635E+01  0.17770000000E+01 0. -1.
</event>
<event>
 6    1  0.1144925E-002  0.1778292E+03  0.7546771E-02  0.1072235E+00
        -11   -1    0    0    0    0  0.00000000000E+00  0.00000000000E+00  0.18250000000E+03  0.18250000000E+03  0.00000000000E+00 0. -1.
         11   -1    0    0    0    0 -0.00000000000E+00 -0.00000000000E+00 -0.18250000000E+03  0.18250000000E+03  0.00000000000E+00 0.  1.
        -11    1    1    2    0    0  0.19990765833E+01 -0.35218504661E+01  0.17663785911E+03  0.17668427493E+03  0.00000000000E+00 0. -1.
         11    1    1    2    0    0  0.20527115030E+01 -0.16649697750E+01 -0.17902357514E+03  0.17904308477E+03  0.00000000000E+00 0.  1.
        -15    1    1    2    0    0  0.16968580802E+00  0.19664803853E+01 -0.87138287027E+00  0.27951521400E+01  0.17770000000E+01 0.  1.
         15    1    1    2    0    0 -0.42214738943E+01  0.32203398559E+01  0.32570989020E+01  0.64774881617E+01  0.17770000000E+01 0. -1.
</event>
<event>
 6    1  0.1144925E-002  0.1941624E+03  0.7546771E-02  0.1059533E+00
        -11   -1    0    0    0    0  0.00000000000E+00  0.00000000000E+00  0.18250000000E+03  0.18250000000E+03  0.00000000000E+00 0. -1.
         11   -1    0    0    0    0 -0.00000000000E+00 -0.00000000000E+00 -0.18250000000E+03  0.18250000000E+03  0.00000000000E+00 0. -1.
        -11    1    1    2    0    0 -0.57412097252E+01 -0.14207287131E+02  0.16173962501E+03  0.16246388767E+03  0.00000000000E+00 0. -1.
         11    1    1    2    0    0  0.12789463190E+02  0.70939785466E+01 -0.17021045670E+03  0.17083762604E+03  0.00000000000E+00 0. -1.
        -15    1    1    2    0    0  0.22781252151E+01  0.16427913176E+02  0.77116185782E+01  0.18376424460E+02  0.17770000000E+01 0.  1.
         15    1    1    2    0    0 -0.93263786802E+01 -0.93146045918E+01  0.75921310601E+00  0.13322061835E+02  0.17770000000E+01 0. -1.
</event>
<event>
 6    1  0.1144925E-002  0.1826736E+03  0.7546771E-02  0.1068317E+00
        -11   -1    0    0    0    0  0.00000000000E+00  0.00000000000E+00  0.18250000000E+03  0.18250000000E+03  0.00000000000E+00 0.  1.
         11   -1    0    0    0    0 -0.00000000000E+00 -0.00000000000E+00 -0.18250000000E+03  0.18250000000E+03  0.00000000000E+00 0. -1.
        -11    1    1    2    0    0  0.17843917764E+01  0.25778503732E+01  0.13293093697E+02  0.13657807532E+02  0.00000000000E+00 0.  1.
         11    1    1    2    0    0 -0.27817271891E+01 -0.47519636205E+01 -0.18224320303E+03  0.18232636731E+03  0.00000000000E+00 0. -1.
        -15    1    1    2    0    0 -0.24518410790E+00  0.17375430554E+01  0.86333538014E+02  0.86369651418E+02  0.17770000000E+01 0.  1.
         15    1    1    2    0    0  0.12425195207E+01  0.43657019188E+00  0.82616571321E+02  0.82646173742E+02  0.17770000000E+01 0.  1.
</event>
<event>
 6    1  0.1144925E-002  0.1826588E+03  0.7546771E-02  0.1068329E+00
        -11   -1    0    0    0    0  0.00000000000E+00  0.00000000000E+00  0.18250000000E+03  0.18250000000E+03  0.00000000000E+00 0.  1.
         11   -1    0    0    0    0 -0.00000000000E+00 -0.00000000000E+00 -0.18250000000E+03  0.18250000000E+03  0.00000000000E+00 0. -1.
        -11    1    1    2    0    0  0.74264202735E+01 -0.37228070235E+01  0.11844212962E+03  0.11873310018E+03  0.00000000000E+00 0.  1.
         11    1    1    2    0    0 -0.76587829760E+01  0.22199297004E+01 -0.18216680409E+03  0.18234124480E+03  0.00000000000E+00 0. -1.
        -15    1    1    2    0    0  0.90204082147E+00  0.22124330846E+01  0.42597370942E+02  0.42701314710E+02  0.17770000000E+01 0.  1.
         15    1    1    2    0    0 -0.66967811895E+00 -0.70955576146E+00  0.21127303527E+02  0.21224340307E+02  0.17770000000E+01 0. -1.
</event>
<event>
 6    1  0.1144925E-002  0.1837706E+03  0.7546771E-02  0.1067448E+00
        -11   -1    0    0    0    0  0.00000000000E+00  0.00000000000E+00  0.18250000000E+03  0.18250000000E+03  0.00000000000E+00 0.  1.
         11   -1    0    0    0    0 -0.00000000000E+00 -0.00000000000E+00 -0.18250000000E+03  0.18250000000E+03  0.00000000000E+00 0. -1.
        -11    1    1    2    0    0 -0.31123875071E+02  0.15706709415E+02  0.17784463636E+03  0.18122944298E+03  0.00000000000E+00 0.  1.
         11    1    1    2    0    0  0.65309893822E+00 -0.10574884620E+01 -0.54847268721E+02  0.54861349840E+02  0.00000000000E+00 0. -1.
        -15    1    1    2    0    0  0.37258253474E+01  0.33153826556E+00 -0.31841938388E+01  0.52238406889E+01  0.17770000000E+01 0.  1.
         15    1    1    2    0    0  0.26744950786E+02 -0.14980759219E+02 -0.11981317380E+03  0.12368536649E+03  0.17770000000E+01 0. -1.
</event>
<event>
 6    1  0.1144925E-002  0.1907491E+03  0.7546771E-02  0.1062072E+00
        -11   -1    0    0    0    0  0.00000000000E+00  0.00000000000E+00  0.18250000000E+03  0.18250000000E+03  0.00000000000E+00 0. -1.
         11   -1    0    0    0    0 -0.00000000000E+00 -0.00000000000E+00 -0.18250000000E+03  0.18250000000E+03  0.00000000000E+00 0.  1.
        -11    1    1    2    0    0  0.16794926534E+02  0.20998099042E+02  0.14548447979E+03  0.14794838147E+03  0.00000000000E+00 0. -1.
         11    1    1    2    0    0  0.81131672633E+00  0.24422033760E+01 -0.17423188486E+03  0.17425088893E+03  0.00000000000E+00 0.  1.
        -15    1    1    2    0    0 -0.17054343809E+02 -0.22068780064E+02  0.29228741094E+02  0.40439568880E+02  0.17770000000E+01 0.  1.
         15    1    1    2    0    0 -0.55189945065E+00 -0.13715223546E+01 -0.48133602688E+00  0.23611607195E+01  0.17770000000E+01 0. -1.
</event>
<event>
 6    1  0.1144925E-002  0.1849689E+03  0.7546771E-02  0.1066506E+00
        -11   -1    0    0    0    0  0.00000000000E+00  0.00000000000E+00  0.18250000000E+03  0.18250000000E+03  0.00000000000E+00 0.  1.
         11   -1    0    0    0    0 -0.00000000000E+00 -0.00000000000E+00 -0.18250000000E+03  0.18250000000E+03  0.00000000000E+00 0. -1.
        -11    1    1    2    0    0 -0.50711561088E+01 -0.53990935574E+01  0.17058441605E+03  0.17074516050E+03  0.00000000000E+00 0.  1.
         11    1    1    2    0    0  0.10336983104E+01 -0.32129259154E+01 -0.17999949161E+03  0.18003113177E+03  0.00000000000E+00 0. -1.
        -15    1    1    2    0    0  0.13931149078E+01  0.11294895949E+01  0.24049624923E+01  0.34868452046E+01  0.17770000000E+01 0.  1.
         15    1    1    2    0    0  0.26443428906E+01  0.74825298779E+01  0.70101130669E+01  0.10736862526E+02  0.17770000000E+01 0. -1.
</event>
<event>
 6    1  0.1144925E-002  0.1840048E+03  0.7546771E-02  0.1067263E+00
        -11   -1    0    0    0    0  0.00000000000E+00  0.00000000000E+00  0.18250000000E+03  0.18250000000E+03  0.00000000000E+00 0. -1.
         11   -1    0    0    0    0 -0.00000000000E+00 -0.00000000000E+00 -0.18250000000E+03  0.18250000000E+03  0.00000000000E+00 0.  1.
        -11    1    1    2    0    0 -0.72174212348E+01 -0.27913167324E+01  0.18082968329E+03  0.18099518495E+03  0.00000000000E+00 0. -1.
         11    1    1    2    0    0 -0.18407022535E+01 -0.39468199209E+01 -0.15712951264E+03  0.15718985118E+03  0.00000000000E+00 0.  1.
        -15    1    1    2    0    0  0.74592589214E+01  0.64932662134E+01 -0.17728027811E+02  0.20377530489E+02  0.17770000000E+01 0.  1.
         15    1    1    2    0    0  0.15988645669E+01  0.24487043989E+00 -0.59721428335E+01  0.64374333751E+01  0.17770000000E+01 0. -1.
</event>
<event>
 6    1  0.1144925E-002  0.1838129E+03  0.7546771E-02  0.1067415E+00
        -11   -1    0    0    0    0  0.00000000000E+00  0.00000000000E+00  0.18250000000E+03  0.18250000000E+03  0.00000000000E+00 0.  1.
         11   -1    0    0    0    0 -0.00000000000E+00 -0.00000000000E+00 -0.18250000000E+03  0.18250000000E+03  0.00000000000E+00 0.  1.
        -11    1    1    2    0    0  0.18829143065E+01  0.68658042237E+01  0.18104719361E+03  0.18118711585E+03  0.00000000000E+00 0.  1.
         11    1    1    2    0    0 -0.11833667671E+01 -0.20645280246E+01 -0.15058969308E+03  0.15060849343E+03  0.00000000000E+00 0.  1.
        -15    1    1    2    0    0 -0.45117125099E+00 -0.70049289452E+01 -0.89608726415E+01  0.11520744443E+02  0.17770000000E+01 0.  1.
         15    1    1    2    0    0 -0.24837628840E+00  0.22036527461E+01 -0.21496627894E+02  0.21683646281E+02  0.17770000000E+01 0. -1.
</event>
<event>
 6    1  0.1144925E-002  0.1863619E+03  0.7546771E-02  0.1065422E+00
        -11   -1    0    0    0    0  0.00000000000E+00  0.00000000000E+00  0.18250000000E+03  0.18250000000E+03  0.00000000000E+00 0. -1.
         11   -1    0    0    0    0 -0.00000000000E+00 -0.00000000000E+00 -0.18250000000E+03  0.18250000000E+03  0.00000000000E+00 0. -1.
        -11    1    1    2    0    0  0.87968130722E+01 -0.45831565076E-01  0.17149749088E+03  0.17172296119E+03  0.00000000000E+00 0. -1.
         11    1    1    2    0    0 -0.20448117917E+00  0.47363871285E+01 -0.17857518718E+03  0.17863810527E+03  0.00000000000E+00 0. -1.
        -15    1    1    2    0    0 -0.72556903834E+01 -0.31837157268E+01  0.12419534865E+01  0.82146981826E+01  0.17770000000E+01 0. -1.
         15    1    1    2    0    0 -0.13366415097E+01 -0.15068398366E+01  0.58357428160E+01  0.64242353656E+01  0.17770000000E+01 0.  1.
</event>
<event>
 6    1  0.1144925E-002  0.1618106E+03  0.7546771E-02  0.1086231E+00
        -11   -1    0    0    0    0  0.00000000000E+00  0.00000000000E+00  0.18250000000E+03  0.18250000000E+03  0.00000000000E+00 0. -1.
         11   -1    0    0    0    0 -0.00000000000E+00 -0.00000000000E+00 -0.18250000000E+03  0.18250000000E+03  0.00000000000E+00 0.  1.
        -11    1    1    2    0    0  0.28265492180E+02 -0.32140946488E+00  0.16913030065E+03  0.17147623727E+03  0.00000000000E+00 0. -1.
         11    1    1    2    0    0  0.14477207503E+01  0.15688247411E+01 -0.15385273061E+03  0.15386753986E+03  0.00000000000E+00 0.  1.
        -15    1    1    2    0    0 -0.21688961916E+02 -0.96333319196E+01 -0.14545541695E+02  0.27891623565E+02  0.17770000000E+01 0.  1.
         15    1    1    2    0    0 -0.80242510142E+01  0.83859166434E+01 -0.73202834635E+00  0.11764599304E+02  0.17770000000E+01 0. -1.
</event>
<event>
 6    1  0.1144925E-002  0.1867429E+03  0.7546771E-02  0.1065127E+00
        -11   -1    0    0    0    0  0.00000000000E+00  0.00000000000E+00  0.18250000000E+03  0.18250000000E+03  0.00000000000E+00 0. -1.
         11   -1    0    0    0    0 -0.00000000000E+00 -0.00000000000E+00 -0.18250000000E+03  0.18250000000E+03  0.00000000000E+00 0. -1.
        -11    1    1    2    0    0 -0.81507036935E+01  0.67179547077E+01  0.17794392738E+03  0.17825713500E+03  0.00000000000E+00 0. -1.
         11    1    1    2    0    0  0.61643851061E+00  0.26200015071E+01 -0.16704558521E+03  0.16706726772E+03  0.00000000000E+00 0. -1.
        -15    1    1    2    0    0  0.99847289185E+01 -0.80735105864E+01 -0.96717312959E+01  0.16173326808E+02  0.17770000000E+01 0.  1.
         15    1    1    2    0    0 -0.24504637355E+01 -0.12644456284E+01 -0.12266108707E+01  0.35022704771E+01  0.17770000000E+01 0. -1.
</event>
<event>
 6    1  0.1144925E-002  0.1798989E+03  0.7546771E-02  0.1070544E+00
        -11   -1    0    0    0    0  0.00000000000E+00  0.00000000000E+00  0.18250000000E+03  0.18250000000E+03  0.00000000000E+00 0. -1.
         11   -1    0    0    0    0 -0.00000000000E+00 -0.00000000000E+00 -0.18250000000E+03  0.18250000000E+03  0.00000000000E+00 0.  1.
        -11    1    1    2    0    0 -0.25883283904E+02 -0.11685270838E+02  0.17920796037E+03  0.18144415946E+03  0.00000000000E+00 0. -1.
         11    1    1    2    0    0  0.91877527592E+00 -0.28463169749E+01 -0.55895315622E+01  0.63394425160E+01  0.00000000000E+00 0.  1.
        -15    1    1    2    0    0  0.17927308371E+02  0.87768504323E+01 -0.60778065568E+02  0.63996503593E+02  0.17770000000E+01 0. -1.
         15    1    1    2    0    0  0.70372002572E+01  0.57547373803E+01 -0.11284036324E+03  0.11321989443E+03  0.17770000000E+01 0.  1.
</event>
<event>
 6    1  0.1144925E-002  0.1768168E+03  0.7546771E-02  0.1073071E+00
        -11   -1    0    0    0    0  0.00000000000E+00  0.00000000000E+00  0.18250000000E+03  0.18250000000E+03  0.00000000000E+00 0.  1.
         11   -1    0    0    0    0 -0.00000000000E+00 -0.00000000000E+00 -0.18250000000E+03  0.18250000000E+03  0.00000000000E+00 0. -1.
        -11    1    1    2    0    0  0.10110556214E+02  0.75984857678E+01  0.17453833013E+03  0.17499596858E+03  0.00000000000E+00 0.  1.
         11    1    1    2    0    0 -0.85939234014E+01 -0.14534431161E+00 -0.17853531080E+03  0.17874208751E+03  0.00000000000E+00 0. -1.
        -15    1    1    2    0    0 -0.35857647390E+01 -0.50173218942E+01  0.92129920431E+00  0.64836524411E+01  0.17770000000E+01 0. -1.
         15    1    1    2    0    0  0.20691319261E+01 -0.24358195620E+01  0.30756814693E+01  0.47782914694E+01  0.17770000000E+01 0.  1.
</event>
<event>
 6    1  0.1144925E-002  0.1838163E+03  0.7546771E-02  0.1067412E+00
        -11   -1    0    0    0    0  0.00000000000E+00  0.00000000000E+00  0.18250000000E+03  0.18250000000E+03  0.00000000000E+00 0. -1.
         11   -1    0    0    0    0 -0.00000000000E+00 -0.00000000000E+00 -0.18250000000E+03  0.18250000000E+03  0.00000000000E+00 0. -1.
        -11    1    1    2    0    0  0.40152132432E+01 -0.40956287614E+01  0.16643897552E+03  0.16653776954E+03  0.00000000000E+00 0. -1.
         11    1    1    2    0    0 -0.24672901418E+01 -0.34421825009E+00 -0.18116660254E+03  0.18118372963E+03  0.00000000000E+00 0. -1.
        -15    1    1    2    0    0 -0.11931098358E+01  0.10086066797E+01  0.12664789833E+02  0.12883921337E+02  0.17770000000E+01 0. -1.
         15    1    1    2    0    0 -0.35481326555E+00  0.34312403318E+01  0.20628371881E+01  0.43945794943E+01  0.17770000000E+01 0.  1.
</event>
<event>
 6    1  0.1144925E-002  0.1746585E+03  0.7546771E-02  0.1074874E+00
        -11   -1    0    0    0    0  0.00000000000E+00  0.00000000000E+00  0.18250000000E+03  0.18250000000E+03  0.00000000000E+00 0. -1.
         11   -1    0    0    0    0 -0.00000000000E+00 -0.00000000000E+00 -0.18250000000E+03  0.18250000000E+03  0.00000000000E+00 0. -1.
        -11    1    1    2    0    0 -0.81010258461E+01  0.52721187391E+01  0.17249792938E+03  0.17276850841E+03  0.00000000000E+00 0. -1.
         11    1    1    2    0    0  0.48425229015E+01  0.99107933427E+00 -0.17657452036E+03  0.17664369082E+03  0.00000000000E+00 0. -1.
        -15    1    1    2    0    0 -0.37083425280E+01 -0.66501617486E+01  0.16629692803E+01  0.79937257530E+01  0.17770000000E+01 0.  1.
         15    1    1    2    0    0  0.69668454726E+01  0.38696367523E+00  0.24136216981E+01  0.75940750211E+01  0.17770000000E+01 0. -1.
</event>
<event>
 6    1  0.1144925E-002  0.1827490E+03  0.7546771E-02  0.1068257E+00
        -11   -1    0    0    0    0  0.00000000000E+00  0.00000000000E+00  0.18250000000E+03  0.18250000000E+03  0.00000000000E+00 0.  1.
         11   -1    0    0    0    0 -0.00000000000E+00 -0.00000000000E+00 -0.18250000000E+03  0.18250000000E+03  0.00000000000E+00 0. -1.
        -11    1    1    2    0    0  0.26968036910E+00 -0.22444107955E+01  0.15789101990E+03  0.15790720145E+03  0.00000000000E+00 0.  1.
         11    1    1    2    0    0  0.15050663975E+01  0.28682865885E+01 -0.18222223232E+03  0.18225101987E+03  0.00000000000E+00 0. -1.
        -15    1    1    2    0    0 -0.58222542366E+00  0.24096359402E+00  0.18079944553E+02  0.18177985970E+02  0.17770000000E+01 0. -1.
         15    1    1    2    0    0 -0.11925213430E+01 -0.86483938705E+00  0.62512678671E+01  0.66637927088E+01  0.17770000000E+01 0.  1.
</event>
<event>
 6    1  0.1144925E-002  0.1831391E+03  0.7546771E-02  0.1067947E+00
        -11   -1    0    0    0    0  0.00000000000E+00  0.00000000000E+00  0.18250000000E+03  0.18250000000E+03  0.00000000000E+00 0.  1.
         11   -1    0    0    0    0 -0.00000000000E+00 -0.00000000000E+00 -0.18250000000E+03  0.18250000000E+03  0.00000000000E+00 0. -1.
        -11    1    1    2    0    0 -0.90401328753E+01 -0.64987605642E+01  0.18151976504E+03  0.18186088912E+03  0.00000000000E+00 0.  1.
         11    1    1    2    0    0 -0.29338592784E+00 -0.23230305223E+01 -0.12049585692E+03  0.12051860471E+03  0.00000000000E+00 0. -1.
        -15    1    1    2    0    0  0.15736080716E+01  0.63772173225E+00 -0.75002647768E+01  0.78926948562E+01  0.17770000000E+01 0.  1.
         15    1    1    2    0    0  0.77599107316E+01  0.81840693542E+01 -0.53523643341E+02  0.54727811315E+02  0.17770000000E+01 0. -1.
</event>
<event>
 6    1  0.1144925E-002  0.1729723E+03  0.7546771E-02  0.1076302E+00
        -11   -1    0    0    0    0  0.00000000000E+00  0.00000000000E+00  0.18250000000E+03  0.18250000000E+03  0.00000000000E+00 0. -1.
         11   -1    0    0    0    0 -0.00000000000E+00 -0.00000000000E+00 -0.18250000000E+03  0.18250000000E+03  0.00000000000E+00 0. -1.
        -11    1    1    2    0    0  0.10953689964E+02 -0.15321036583E+02  0.16463458171E+01  0.18905764739E+02  0.00000000000E+00 0. -1.
         11    1    1    2    0    0 -0.18162887170E+00 -0.33193736409E+01 -0.17299728938E+03  0.17302922691E+03  0.00000000000E+00 0. -1.
        -15    1    1    2    0    0 -0.34531195690E+01  0.21594627987E+01  0.14360316647E+02  0.15032090258E+02  0.17770000000E+01 0. -1.
         15    1    1    2    0    0 -0.73189415235E+01  0.16480947425E+02  0.15699062692E+03  0.15803291810E+03  0.17770000000E+01 0. -1.
</event>
<event>
 6    1  0.1144925E-002  0.1694300E+03  0.7546771E-02  0.1079362E+00
        -11   -1    0    0    0    0  0.00000000000E+00  0.00000000000E+00  0.18250000000E+03  0.18250000000E+03  0.00000000000E+00 0.  1.
         11   -1    0    0    0    0 -0.00000000000E+00 -0.00000000000E+00 -0.18250000000E+03  0.18250000000E+03  0.00000000000E+00 0.  1.
        -11    1    1    2    0    0 -0.15378407704E+02  0.72523480741E+01  0.17377395315E+03  0.17460377651E+03  0.00000000000E+00 0.  1.
         11    1    1    2    0    0 -0.82589551370E+00  0.60827096982E+01 -0.16490707115E+03  0.16502128219E+03  0.00000000000E+00 0.  1.
        -15    1    1    2    0    0  0.74593745767E+01 -0.72229195359E+01  0.11955926313E+01  0.10601886928E+02  0.17770000000E+01 0. -1.
         15    1    1    2    0    0  0.87449286406E+01 -0.61121382364E+01 -0.10062474634E+02  0.14773054373E+02  0.17770000000E+01 0.  1.
</event>
<event>
 6    1  0.1144925E-002  0.1923620E+03  0.7546771E-02  0.1060865E+00
        -11   -1    0    0    0    0  0.00000000000E+00  0.00000000000E+00  0.18250000000E+03  0.18250000000E+03  0.00000000000E+00 0. -1.
         11   -1    0    0    0    0 -0.00000000000E+00 -0.00000000000E+00 -0.18250000000E+03  0.18250000000E+03  0.00000000000E+00 0. -1.
        -11    1    1    2    0    0  0.35351849694E+02  0.84409239170E+01  0.16876871195E+03  0.17263800452E+03  0.00000000000E+00 0. -1.
         11    1    1    2    0    0 -0.10062808007E+02 -0.21649369491E+01 -0.14589287813E+03  0.14625552621E+03  0.00000000000E+00 0. -1.
        -15    1    1    2    0    0  0.12356604881E+01 -0.28168660688E+01 -0.18628068370E+02  0.18963761533E+02  0.17770000000E+01 0. -1.
         15    1    1    2    0    0 -0.26524702175E+02 -0.34591208991E+01 -0.42477654438E+01  0.27142707734E+02  0.17770000000E+01 0.  1.
</event>
<event>
 6    1  0.1144925E-002  0.1834632E+03  0.7546771E-02  0.1067691E+00
        -11   -1    0    0    0    0  0.00000000000E+00  0.00000000000E+00  0.18250000000E+03  0.18250000000E+03  0.00000000000E+00 0.  1.
         11   -1    0    0    0    0 -0.00000000000E+00 -0.00000000000E+00 -0.18250000000E+03  0.18250000000E+03  0.00000000000E+00 0.  1.
        -11    1    1    2    0    0 -0.41204082289E+00  0.29994630741E+01  0.17057971477E+03  0.17060658149E+03  0.00000000000E+00 0.  1.
         11    1    1    2    0    0 -0.24220612251E+01  0.17038245537E+01 -0.18151266813E+03  0.18153682296E+03  0.00000000000E+00 0.  1.
        -15    1    1    2    0    0  0.11434734894E+01 -0.33465249066E+01  0.66162208013E+01  0.77096606451E+01  0.17770000000E+01 0. -1.
         15    1    1    2    0    0  0.16906285586E+01 -0.13567627211E+01  0.43167325576E+01  0.51469349110E+01  0.17770000000E+01 0.  1.
</event>
<event>
 6    1  0.1144925E-002  0.1812880E+03  0.7546771E-02  0.1069424E+00
        -11   -1    0    0    0    0  0.00000000000E+00  0.00000000000E+00  0.18250000000E+03  0.18250000000E+03  0.00000000000E+00 0. -1.
         11   -1    0    0    0    0 -0.00000000000E+00 -0.00000000000E+00 -0.18250000000E+03  0.18250000000E+03  0.00000000000E+00 0. -1.
        -11    1    1    2    0    0 -0.16748711663E+01 -0.15370482030E+01  0.11133205461E+01  0.25312434178E+01  0.00000000000E+00 0. -1.
         11    1    1    2    0    0  0.11674688016E+01  0.26295236986E+01 -0.18171945454E+03  0.18174222827E+03  0.00000000000E+00 0. -1.
        -15    1    1    2    0    0  0.14701230200E+01 -0.36356328221E-01  0.25620507513E+02  0.25724127151E+02  0.17770000000E+01 0. -1.
         15    1    1    2    0    0 -0.96272065524E+00 -0.10561191674E+01  0.15498562648E+03  0.15500240116E+03  0.17770000000E+01 0. -1.
</event>
<event>
 6    1  0.1144925E-002  0.1712059E+03  0.7546771E-02  0.1077818E+00
        -11   -1    0    0    0    0  0.00000000000E+00  0.00000000000E+00  0.18250000000E+03  0.18250000000E+03  0.00000000000E+00 0.  1.
         11   -1    0    0    0    0 -0.00000000000E+00 -0.00000000000E+00 -0.18250000000E+03  0.18250000000E+03  0.00000000000E+00 0. -1.
        -11    1    1    2    0    0  0.91462469653E+01  0.16037514283E+02  0.17128906642E+03  0.17228116546E+03  0.00000000000E+00 0.  1.
         11    1    1    2    0    0  0.37026481578E+01 -0.84134819279E+01 -0.17021012734E+03  0.17045815830E+03  0.00000000000E+00 0. -1.
        -15    1    1    2    0    0 -0.15674549333E+01 -0.88722858757E+01  0.35894699725E+01  0.98598374891E+01  0.17770000000E+01 0.  1.
         15    1    1    2    0    0 -0.11281440190E+02  0.12482535204E+01 -0.46684090467E+01  0.12400838747E+02  0.17770000000E+01 0. -1.
</event>
<event>
 6    1  0.1144925E-002  0.1858510E+03  0.7546771E-02  0.1065818E+00
        -11   -1    0    0    0    0  0.00000000000E+00  0.00000000000E+00  0.18250000000E+03  0.18250000000E+03  0.00000000000E+00 0.  1.
         11   -1    0    0    0    0 -0.00000000000E+00 -0.00000000000E+00 -0.18250000000E+03  0.18250000000E+03  0.00000000000E+00 0. -1.
        -11    1    1    2    0    0 -0.64950981609E+01 -0.75735357233E+01  0.17887091376E+03  0.17914895627E+03  0.00000000000E+00 0.  1.
         11    1    1    2    0    0  0.94849657755E+01 -0.19468546945E+01 -0.17117259470E+03  0.17144623645E+03  0.00000000000E+00 0. -1.
        -15    1    1    2    0    0  0.58521055569E+00  0.19820016334E+01 -0.45659642208E+01  0.53175708866E+01  0.17770000000E+01 0.  1.
         15    1    1    2    0    0 -0.35750781703E+01  0.75383887844E+01 -0.31323548421E+01  0.90872363921E+01  0.17770000000E+01 0. -1.
</event>
<event>
 6    1  0.1144925E-002  0.1832732E+03  0.7546771E-02  0.1067841E+00
        -11   -1    0    0    0    0  0.00000000000E+00  0.00000000000E+00  0.18250000000E+03  0.18250000000E+03  0.00000000000E+00 0.  1.
         11   -1    0    0    0    0 -0.00000000000E+00 -0.00000000000E+00 -0.18250000000E+03  0.18250000000E+03  0.00000000000E+00 0. -1.
        -11    1    1    2    0    0 -0.27753849338E+01  0.63509049905E+00  0.18170450797E+03  0.18172681232E+03  0.00000000000E+00 0.  1.
         11    1    1    2    0    0  0.65018894575E+00  0.26469290318E+01 -0.16307649392E+03  0.16309926992E+03  0.00000000000E+00 0. -1.
        -15    1    1    2    0    0  0.12873875251E+01 -0.26349148616E+01 -0.34806476755E+01  0.48859779174E+01  0.17770000000E+01 0. -1.
         15    1    1    2    0    0  0.83780846302E+00 -0.64710466923E+00 -0.15147366373E+02  0.15287939839E+02  0.17770000000E+01 0.  1.
</event>
<event>
 6    1  0.1144925E-002  0.1841713E+03  0.7546771E-02  0.1067132E+00
        -11   -1    0    0    0    0  0.00000000000E+00  0.00000000000E+00  0.18250000000E+03  0.18250000000E+03  0.00000000000E+00 0. -1.
         11   -1    0    0    0    0 -0.00000000000E+00 -0.00000000000E+00 -0.18250000000E+03  0.18250000000E+03  0.00000000000E+00 0.  1.
        -11    1    1    2    0    0  0.82916609738E+01  0.26119785844E+01  0.15119756289E+03  0.15144727497E+03  0.00000000000E+00 0. -1.
         11    1    1    2    0    0  0.34176334434E+01  0.34256210116E+01 -0.18076398930E+03  0.18082874475E+03  0.00000000000E+00 0.  1.
        -15    1    1    2    0    0 -0.20136142282E+01 -0.20724627883E+01  0.76185291972E+01  0.83396319102E+01  0.17770000000E+01 0.  1.
         15    1    1    2    0    0 -0.96956801890E+01 -0.39651368077E+01  0.21947897220E+02  0.24384348373E+02  0.17770000000E+01 0. -1.
</event>
<event>
 6    1  0.1144925E-002  0.1829721E+03  0.7546771E-02  0.1068080E+00
        -11   -1    0    0    0    0  0.00000000000E+00  0.00000000000E+00  0.18250000000E+03  0.18250000000E+03  0.00000000000E+00 0. -1.
         11   -1    0    0    0    0 -0.00000000000E+00 -0.00000000000E+00 -0.18250000000E+03  0.18250000000E+03  0.00000000000E+00 0.  1.
        -11    1    1    2    0    0 -0.82586149927E+01  0.64613443512E+01  0.18172565999E+03  0.18202793520E+03  0.00000000000E+00 0. -1.
         11    1    1    2    0    0  0.17472914234E+01  0.15657106815E+01 -0.10912692987E+03  0.10915214748E+03  0.00000000000E+00 0.  1.
        -15    1    1    2    0    0  0.30113716793E+01 -0.85603704382E+01 -0.55758829420E+02  0.56520377642E+02  0.17770000000E+01 0.  1.
         15    1    1    2    0    0  0.34999518900E+01  0.53331540548E+00 -0.16839900702E+02  0.17299539682E+02  0.17770000000E+01 0. -1.
</event>
<event>
 6    1  0.1144925E-002  0.1839463E+03  0.7546771E-02  0.1067309E+00
        -11   -1    0    0    0    0  0.00000000000E+00  0.00000000000E+00  0.18250000000E+03  0.18250000000E+03  0.00000000000E+00 0.  1.
         11   -1    0    0    0    0 -0.00000000000E+00 -0.00000000000E+00 -0.18250000000E+03  0.18250000000E+03  0.00000000000E+00 0. -1.
        -11    1    1    2    0    0  0.66024149367E+01 -0.11150804965E+01  0.16034419930E+03  0.16048394790E+03  0.00000000000E+00 0.  1.
         11    1    1    2    0    0  0.32570775809E+01  0.29417842783E+01 -0.18100048102E+03  0.18105368480E+03  0.00000000000E+00 0. -1.
        -15    1    1    2    0    0 -0.35103641749E+01 -0.13630034509E+00  0.10705827158E+02  0.11406739173E+02  0.17770000000E+01 0. -1.
         15    1    1    2    0    0 -0.63491283428E+01 -0.16904034367E+01  0.99504545651E+01  0.12055628127E+02  0.17770000000E+01 0.  1.
</event>
<event>
 6    1  0.1144925E-002  0.1827941E+03  0.7546771E-02  0.1068221E+00
        -11   -1    0    0    0    0  0.00000000000E+00  0.00000000000E+00  0.18250000000E+03  0.18250000000E+03  0.00000000000E+00 0. -1.
         11   -1    0    0    0    0 -0.00000000000E+00 -0.00000000000E+00 -0.18250000000E+03  0.18250000000E+03  0.00000000000E+00 0. -1.
        -11    1    1    2    0    0  0.79202836476E+01 -0.40199694059E+01  0.18198929207E+03  0.18220590955E+03  0.00000000000E+00 0. -1.
         11    1    1    2    0    0 -0.21305627262E+01  0.57576998160E+01 -0.12802716569E+03  0.12817427807E+03  0.00000000000E+00 0. -1.
        -15    1    1    2    0    0 -0.44519239911E+01  0.19199446826E+00 -0.21719519882E+02  0.22243016028E+02  0.17770000000E+01 0.  1.
         15    1    1    2    0    0 -0.13377969304E+01 -0.19297248784E+01 -0.32242606505E+02  0.32376796351E+02  0.17770000000E+01 0. -1.
</event>
<event>
 6    1  0.1144925E-002  0.1827074E+03  0.7546771E-02  0.1068290E+00
        -11   -1    0    0    0    0  0.00000000000E+00  0.00000000000E+00  0.18250000000E+03  0.18250000000E+03  0.00000000000E+00 0.  1.
         11   -1    0    0    0    0 -0.00000000000E+00 -0.00000000000E+00 -0.18250000000E+03  0.18250000000E+03  0.00000000000E+00 0.  1.
        -11    1    1    2    0    0  0.45126484913E+01  0.13371218741E+00  0.12632206017E+03  0.12640270867E+03  0.00000000000E+00 0.  1.
         11    1    1    2    0    0 -0.31689733372E+01 -0.10589262146E+01 -0.18226201847E+03  0.18229264136E+03  0.00000000000E+00 0.  1.
        -15    1    1    2    0    0  0.72765186575E+00 -0.29180834612E+00  0.42146313110E+02  0.42191042499E+02  0.17770000000E+01 0. -1.
         15    1    1    2    0    0 -0.20713270198E+01  0.12170223733E+01  0.13793645192E+02  0.14113607469E+02  0.17770000000E+01 0.  1.
</event>
<event>
 6    1  0.1144925E-002  0.1943319E+03  0.7546771E-02  0.1059408E+00
        -11   -1    0    0    0    0  0.00000000000E+00  0.00000000000E+00  0.18250000000E+03  0.18250000000E+03  0.00000000000E+00 0. -1.
         11   -1    0    0    0    0 -0.00000000000E+00 -0.00000000000E+00 -0.18250000000E+03  0.18250000000E+03  0.00000000000E+00 0. -1.
        -11    1    1    2    0    0 -0.18107362065E+02 -0.43960548768E+02  0.87070293136E+02  0.99205052068E+02  0.00000000000E+00 0. -1.
         11    1    1    2    0    0  0.37383808332E+02 -0.28642801966E+01 -0.16649875269E+03  0.17066806342E+03  0.00000000000E+00 0. -1.
        -15    1    1    2    0    0 -0.12177533038E+02  0.24461671299E+02  0.53585235795E+02  0.60176414797E+02  0.17770000000E+01 0.  1.
         15    1    1    2    0    0 -0.70989132290E+01  0.22363157666E+02  0.25843223757E+02  0.34950469710E+02  0.17770000000E+01 0. -1.
</event>
<event>
 6    1  0.1144925E-002  0.1841344E+03  0.7546771E-02  0.1067161E+00
        -11   -1    0    0    0    0  0.00000000000E+00  0.00000000000E+00  0.18250000000E+03  0.18250000000E+03  0.00000000000E+00 0. -1.
         11   -1    0    0    0    0 -0.00000000000E+00 -0.00000000000E+00 -0.18250000000E+03  0.18250000000E+03  0.00000000000E+00 0. -1.
        -11    1    1    2    0    0 -0.17916727026E+02 -0.42978683956E+01  0.17992463973E+03  0.18086557650E+03  0.00000000000E+00 0. -1.
         11    1    1    2    0    0 -0.85116694170E+00 -0.17092206419E+01 -0.11705921943E+03  0.11707479137E+03  0.00000000000E+00 0. -1.
        -15    1    1    2    0    0 -0.10576578939E+01  0.23049220593E+01 -0.85292452227E+01  0.90739770217E+01  0.17770000000E+01 0.  1.
         15    1    1    2    0    0  0.19825551861E+02  0.37021669782E+01 -0.54336175080E+02  0.57985655108E+02  0.17770000000E+01 0.  1.
</event>
<event>
 6    1  0.1144925E-002  0.1825828E+03  0.7546771E-02  0.1068389E+00
        -11   -1    0    0    0    0  0.00000000000E+00  0.00000000000E+00  0.18250000000E+03  0.18250000000E+03  0.00000000000E+00 0.  1.
         11   -1    0    0    0    0 -0.00000000000E+00 -0.00000000000E+00 -0.18250000000E+03  0.18250000000E+03  0.00000000000E+00 0. -1.
        -11    1    1    2    0    0  0.31828908936E+01 -0.20832956552E+01  0.38588452377E+02  0.38775502216E+02  0.00000000000E+00 0.  1.
         11    1    1    2    0    0 -0.35576241183E+01  0.59462185410E+01 -0.18228558228E+03  0.18241723524E+03  0.00000000000E+00 0. -1.
        -15    1    1    2    0    0 -0.15042685776E+00 -0.25744275249E+01  0.10299884848E+03  0.10304644983E+03  0.17770000000E+01 0.  1.
         15    1    1    2    0    0  0.52516008243E+00 -0.12884953609E+01  0.40698281421E+02  0.40760812713E+02  0.17770000000E+01 0.  1.
</event>
<event>
 6    1  0.1144925E-002  0.1835917E+03  0.7546771E-02  0.1067589E+00
        -11   -1    0    0    0    0  0.00000000000E+00  0.00000000000E+00  0.18250000000E+03  0.18250000000E+03  0.00000000000E+00 0. -1.
         11   -1    0    0    0    0 -0.00000000000E+00 -0.00000000000E+00 -0.18250000000E+03  0.18250000000E+03  0.00000000000E+00 0. -1.
        -11    1    1    2    0    0 -0.44804256473E+01 -0.28190430999E+01  0.17524503335E+03  0.17532496380E+03  0.00000000000E+00 0. -1.
         11    1    1    2    0    0  0.10899605294E+01  0.39041000510E+01 -0.18136304158E+03  0.18140833184E+03  0.00000000000E+00 0. -1.
        -15    1    1    2    0    0  0.61399170496E+00 -0.67958490151E+00  0.11980629363E+01  0.23306448145E+01  0.17770000000E+01 0.  1.
         15    1    1    2    0    0  0.27764734129E+01 -0.40547204966E+00  0.49199452974E+01  0.59360595453E+01  0.17770000000E+01 0. -1.
</event>
<event>
 6    1  0.1144925E-002  0.1831766E+03  0.7546771E-02  0.1067918E+00
        -11   -1    0    0    0    0  0.00000000000E+00  0.00000000000E+00  0.18250000000E+03  0.18250000000E+03  0.00000000000E+00 0. -1.
         11   -1    0    0    0    0 -0.00000000000E+00 -0.00000000000E+00 -0.18250000000E+03  0.18250000000E+03  0.00000000000E+00 0.  1.
        -11    1    1    2    0    0 -0.60641822475E+01  0.42623372529E+01  0.18167226625E+03  0.18182341474E+03  0.00000000000E+00 0. -1.
         11    1    1    2    0    0  0.33633209526E+01  0.12706279751E+01 -0.15940575188E+03  0.15944629239E+03  0.00000000000E+00 0.  1.
        -15    1    1    2    0    0  0.12035750618E+01 -0.52854311375E+01 -0.17763788059E+02  0.18657284648E+02  0.17770000000E+01 0.  1.
         15    1    1    2    0    0  0.14972862330E+01 -0.24753409056E+00 -0.45027263101E+01  0.50730082213E+01  0.17770000000E+01 0. -1.
</event>
<event>
 6    1  0.1144925E-002  0.1839010E+03  0.7546771E-02  0.1067345E+00
        -11   -1    0    0    0    0  0.00000000000E+00  0.00000000000E+00  0.18250000000E+03  0.18250000000E+03  0.00000000000E+00 0.  1.
         11   -1    0    0    0    0 -0.00000000000E+00 -0.00000000000E+00 -0.18250000000E+03  0.18250000000E+03  0.00000000000E+00 0.  1.
        -11    1    1    2    0    0  0.50898487177E+01  0.16561464176E+01  0.18101989415E+03  0.18109901010E+03  0.00000000000E+00 0.  1.
         11    1    1    2    0    0  0.39661240148E+00 -0.30289506906E+01 -0.17002497519E+03  0.17005241555E+03  0.00000000000E+00 0.  1.
        -15    1    1    2    0    0 -0.87928260091E+00  0.23636246683E+01 -0.60459304540E+01  0.67875521006E+01  0.17770000000E+01 0.  1.
         15    1    1    2    0    0 -0.46071785183E+01 -0.99082039528E+00 -0.49489885060E+01  0.70610222480E+01  0.17770000000E+01 0.  1.
</event>
<event>
 6    1  0.1144925E-002  0.1831470E+03  0.7546771E-02  0.1067941E+00
        -11   -1    0    0    0    0  0.00000000000E+00  0.00000000000E+00  0.18250000000E+03  0.18250000000E+03  0.00000000000E+00 0.  1.
         11   -1    0    0    0    0 -0.00000000000E+00 -0.00000000000E+00 -0.18250000000E+03  0.18250000000E+03  0.00000000000E+00 0.  1.
        -11    1    1    2    0    0 -0.15016683741E+01 -0.72343551255E+01  0.14203128934E+03  0.14222333864E+03  0.00000000000E+00 0.  1.
         11    1    1    2    0    0 -0.35352160397E+01  0.12420156908E+01 -0.18181436968E+03  0.18185297737E+03  0.00000000000E+00 0.  1.
        -15    1    1    2    0    0  0.11483824792E+01  0.31936522179E+01  0.10063298332E+02  0.10767817752E+02  0.17770000000E+01 0.  1.
         15    1    1    2    0    0  0.38885019346E+01  0.27986872168E+01  0.29719782007E+02  0.30155866245E+02  0.17770000000E+01 0. -1.
</event>
<event>
 6    1  0.1144925E-002  0.1831816E+03  0.7546771E-02  0.1067914E+00
        -11   -1    0    0    0    0  0.00000000000E+00  0.00000000000E+00  0.18250000000E+03  0.18250000000E+03  0.00000000000E+00 0. -1.
         11   -1    0    0    0    0 -0.00000000000E+00 -0.00000000000E+00 -0.18250000000E+03  0.18250000000E+03  0.00000000000E+00 0.  1.
        -11    1    1    2    0    0 -0.14289037636E+02  0.92531470998E+01  0.18101974498E+03  0.18181844076E+03  0.00000000000E+00 0. -1.
         11    1    1    2    0    0 -0.11339350239E+01 -0.52610071850E+01 -0.89650309986E+02  0.89811703501E+02  0.00000000000E+00 0.  1.
        -15    1    1    2    0    0  0.10640556910E+02 -0.61897641796E+01 -0.45643740030E+02  0.47307963017E+02  0.17770000000E+01 0.  1.
         15    1    1    2    0    0  0.47824157504E+01  0.21976242648E+01 -0.45725694961E+02  0.46061892726E+02  0.17770000000E+01 0. -1.
</event>
<event>
 6    1  0.1144925E-002  0.1835518E+03  0.7546771E-02  0.1067621E+00
        -11   -1    0    0    0    0  0.00000000000E+00  0.00000000000E+00  0.18250000000E+03  0.18250000000E+03  0.00000000000E+00 0.  1.
         11   -1    0    0    0    0 -0.00000000000E+00 -0.00000000000E+00 -0.18250000000E+03  0.18250000000E+03  0.00000000000E+00 0.  1.
        -11    1    1    2    0    0  0.20001648551E+02 -0.42158190596E+01  0.11865119020E+03  0.12039910303E+03  0.00000000000E+00 0.  1.
         11    1    1    2    0    0 -0.15766856102E+02  0.52592485077E+01 -0.18068534353E+03  0.18144819319E+03  0.00000000000E+00 0.  1.
        -15    1    1    2    0    0  0.18298173009E+01 -0.39573829429E+01  0.20023889249E+02  0.20569953348E+02  0.17770000000E+01 0.  1.
         15    1    1    2    0    0 -0.60646097499E+01  0.29139534948E+01  0.42010264082E+02  0.42582750423E+02  0.17770000000E+01 0. -1.
</event>
<event>
 6    1  0.1144925E-002  0.1774906E+03  0.7546771E-02  0.1072514E+00
        -11   -1    0    0    0    0  0.00000000000E+00  0.00000000000E+00  0.18250000000E+03  0.18250000000E+03  0.00000000000E+00 0. -1.
         11   -1    0    0    0    0 -0.00000000000E+00 -0.00000000000E+00 -0.18250000000E+03  0.18250000000E+03  0.00000000000E+00 0. -1.
        -11    1    1    2    0    0 -0.35054709591E+01  0.21404652060E+01  0.17919713072E+03  0.17924419538E+03  0.00000000000E+00 0. -1.
         11    1    1    2    0    0 -0.37217263667E+01 -0.12960095581E+01 -0.17578388381E+03  0.17582805434E+03  0.00000000000E+00 0. -1.
        -15    1    1    2    0    0  0.22017260841E+01  0.17133025693E+01 -0.19401640278E+01  0.38347058425E+01  0.17770000000E+01 0.  1.
         15    1    1    2    0    0  0.50254712417E+01 -0.25577582172E+01 -0.14730828871E+01  0.60930444353E+01  0.17770000000E+01 0. -1.
</event>
<event>
 6    1  0.1144925E-002  0.1840288E+03  0.7546771E-02  0.1067244E+00
        -11   -1    0    0    0    0  0.00000000000E+00  0.00000000000E+00  0.18250000000E+03  0.18250000000E+03  0.00000000000E+00 0. -1.
         11   -1    0    0    0    0 -0.00000000000E+00 -0.00000000000E+00 -0.18250000000E+03  0.18250000000E+03  0.00000000000E+00 0.  1.
        -11    1    1    2    0    0  0.17011149409E+02  0.48792333958E+01  0.15531183651E+03  0.15631683429E+03  0.00000000000E+00 0. -1.
         11    1    1    2    0    0 -0.84324818057E+01 -0.21211040076E+01 -0.18076216262E+03  0.18097117248E+03  0.00000000000E+00 0.  1.
        -15    1    1    2    0    0 -0.36134153725E+01 -0.28385713673E+01  0.17429658017E+02  0.18112563752E+02  0.17770000000E+01 0.  1.
         15    1    1    2    0    0 -0.49652522305E+01  0.80441979156E-01  0.80206680991E+01  0.95994294821E+01  0.17770000000E+01 0. -1.
</event>
<event>
 6    1  0.1144925E-002  0.1837148E+03  0.7546771E-02  0.1067492E+00
        -11   -1    0    0    0    0  0.00000000000E+00  0.00000000000E+00  0.18250000000E+03  0.18250000000E+03  0.00000000000E+00 0. -1.
         11   -1    0    0    0    0 -0.00000000000E+00 -0.00000000000E+00 -0.18250000000E+03  0.18250000000E+03  0.00000000000E+00 0. -1.
        -11    1    1    2    0    0 -0.59073438603E+00  0.33539164823E+01  0.16688595142E+03  0.16692069526E+03  0.00000000000E+00 0. -1.
         11    1    1    2    0    0 -0.23017183183E+01 -0.20020942998E+01 -0.18125954001E+03  0.18128520936E+03  0.00000000000E+00 0. -1.
        -15    1    1    2    0    0  0.87949529105E+00  0.27583498789E+01  0.35734533479E+01  0.49304466178E+01  0.17770000000E+01 0.  1.
         15    1    1    2    0    0  0.20129574133E+01 -0.41101720615E+01  0.10800135238E+02  0.11863648768E+02  0.17770000000E+01 0. -1.
</event>
<event>
 6    1  0.1144925E-002  0.1856149E+03  0.7546771E-02  0.1066002E+00
        -11   -1    0    0    0    0  0.00000000000E+00  0.00000000000E+00  0.18250000000E+03  0.18250000000E+03  0.00000000000E+00 0. -1.
         11   -1    0    0    0    0 -0.00000000000E+00 -0.00000000000E+00 -0.18250000000E+03  0.18250000000E+03  0.00000000000E+00 0. -1.
        -11    1    1    2    0    0  0.44406569480E+01 -0.13488143109E+02  0.11021016865E+03  0.11112124330E+03  0.00000000000E+00 0. -1.
         11    1    1    2    0    0 -0.22879314731E+01  0.18827624430E+01 -0.17936065857E+03  0.17938513112E+03  0.00000000000E+00 0. -1.
        -15    1    1    2    0    0 -0.31913703531E+01  0.81842658691E+01  0.50862234876E+01  0.10305069185E+02  0.17770000000E+01 0.  1.
         15    1    1    2    0    0  0.10386448783E+01  0.34211147973E+01  0.64064266429E+02  0.64188556393E+02  0.17770000000E+01 0. -1.
</event>
<event>
 6    1  0.1144925E-002  0.1839582E+03  0.7546771E-02  0.1067300E+00
        -11   -1    0    0    0    0  0.00000000000E+00  0.00000000000E+00  0.18250000000E+03  0.18250000000E+03  0.00000000000E+00 0. -1.
         11   -1    0    0    0    0 -0.00000000000E+00 -0.00000000000E+00 -0.18250000000E+03  0.18250000000E+03  0.00000000000E+00 0.  1.
        -11    1    1    2    0    0 -0.17618740658E+02  0.85658675325E+00  0.86232729896E+02  0.88018392786E+02  0.00000000000E+00 0. -1.
         11    1    1    2    0    0  0.38525739676E+01 -0.63832665717E+01 -0.18088819724E+03  0.18104178611E+03  0.00000000000E+00 0.  1.
        -15    1    1    2    0    0  0.48442892721E+01  0.27570420312E+01  0.27582922246E+02  0.28196520139E+02  0.17770000000E+01 0. -1.
         15    1    1    2    0    0  0.89218774186E+01  0.27696377872E+01  0.67072545099E+02  0.67743300962E+02  0.17770000000E+01 0. -1.
</event>
<event>
 6    1  0.1144925E-002  0.1631390E+03  0.7546771E-02  0.1085004E+00
        -11   -1    0    0    0    0  0.00000000000E+00  0.00000000000E+00  0.18250000000E+03  0.18250000000E+03  0.00000000000E+00 0.  1.
         11   -1    0    0    0    0 -0.00000000000E+00 -0.00000000000E+00 -0.18250000000E+03  0.18250000000E+03  0.00000000000E+00 0. -1.
        -11    1    1    2    0    0 -0.22091246140E+02  0.75559266453E+01  0.15769140349E+03  0.15941045737E+03  0.00000000000E+00 0.  1.
         11    1    1    2    0    0 -0.59462241669E+01 -0.35124905819E+00 -0.16821264771E+03  0.16831807927E+03  0.00000000000E+00 0. -1.
        -15    1    1    2    0    0  0.20258586725E+02 -0.39177480576E+01  0.16743878539E+02  0.26632203879E+02  0.17770000000E+01 0.  1.
         15    1    1    2    0    0  0.77788835821E+01 -0.32869295295E+01 -0.62226343175E+01  0.10639259484E+02  0.17770000000E+01 0. -1.
</event>
<event>
 6    1  0.1144925E-002  0.1861905E+03  0.7546771E-02  0.1065555E+00
        -11   -1    0    0    0    0  0.00000000000E+00  0.00000000000E+00  0.18250000000E+03  0.18250000000E+03  0.00000000000E+00 0. -1.
         11   -1    0    0    0    0 -0.00000000000E+00 -0.00000000000E+00 -0.18250000000E+03  0.18250000000E+03  0.00000000000E+00 0.  1.
        -11    1    1    2    0    0 -0.97100908205E+00 -0.43533755264E+02  0.17342634371E+03  0.17880947234E+03  0.00000000000E+00 0. -1.
         11    1    1    2    0    0 -0.22941088740E+00  0.43731055268E+02 -0.69267650722E+02  0.81917429530E+02  0.00000000000E+00 0.  1.
        -15    1    1    2    0    0  0.15887302087E+01  0.11117130314E+01 -0.52568873133E+02  0.52634628535E+02  0.17770000000E+01 0. -1.
         15    1    1    2    0    0 -0.38831023929E+00 -0.13090130355E+01 -0.51589819857E+02  0.51638469593E+02  0.17770000000E+01 0.  1.
</event>
<event>
 6    1  0.1144925E-002  0.1841902E+03  0.7546771E-02  0.1067117E+00
        -11   -1    0    0    0    0  0.00000000000E+00  0.00000000000E+00  0.18250000000E+03  0.18250000000E+03  0.00000000000E+00 0. -1.
         11   -1    0    0    0    0 -0.00000000000E+00 -0.00000000000E+00 -0.18250000000E+03  0.18250000000E+03  0.00000000000E+00 0. -1.
        -11    1    1    2    0    0  0.72382205913E+00 -0.59656145643E+01  0.32554094396E+02  0.33104101520E+02  0.00000000000E+00 0. -1.
         11    1    1    2    0    0 -0.20745217080E+01  0.66293070196E+01 -0.18067636335E+03  0.18080984383E+03  0.00000000000E+00 0. -1.
        -15    1    1    2    0    0  0.46469462226E+01 -0.78078941968E+01  0.13718014575E+03  0.13749220864E+03  0.17770000000E+01 0. -1.
         15    1    1    2    0    0 -0.32962465737E+01  0.71442017415E+01  0.10942123207E+02  0.13593846007E+02  0.17770000000E+01 0.  1.
</event>
<event>
 6    1  0.1144925E-002  0.1831010E+03  0.7546771E-02  0.1067977E+00
        -11   -1    0    0    0    0  0.00000000000E+00  0.00000000000E+00  0.18250000000E+03  0.18250000000E+03  0.00000000000E+00 0. -1.
         11   -1    0    0    0    0 -0.00000000000E+00 -0.00000000000E+00 -0.18250000000E+03  0.18250000000E+03  0.00000000000E+00 0.  1.
        -11    1    1    2    0    0 -0.67445635773E+01  0.12502182985E+01  0.18176962477E+03  0.18189900679E+03  0.00000000000E+00 0. -1.
         11    1    1    2    0    0 -0.14258552667E+01 -0.16409128449E+01 -0.14267760638E+03  0.14269416604E+03  0.00000000000E+00 0.  1.
        -15    1    1    2    0    0  0.40887162282E+01  0.86339189009E-01 -0.29409310415E+02  0.29745425243E+02  0.17770000000E+01 0.  1.
         15    1    1    2    0    0  0.40817026158E+01  0.30435535737E+00 -0.96827079698E+01  0.10661401927E+02  0.17770000000E+01 0. -1.
</event>
<event>
 6    1  0.1144925E-002  0.1834694E+03  0.7546771E-02  0.1067686E+00
        -11   -1    0    0    0    0  0.00000000000E+00  0.00000000000E+00  0.18250000000E+03  0.18250000000E+03  0.00000000000E+00 0.  1.
         11   -1    0    0    0    0 -0.00000000000E+00 -0.00000000000E+00 -0.18250000000E+03  0.18250000000E+03  0.00000000000E+00 0. -1.
        -11    1    1    2    0    0 -0.44552290020E+01  0.73587956777E+01  0.13598380117E+03  0.13625562418E+03  0.00000000000E+00 0.  1.
         11    1    1    2    0    0  0.92150918848E+00  0.30440643258E+01 -0.18150270538E+03  0.18153056924E+03  0.00000000000E+00 0. -1.
        -15    1    1    2    0    0  0.10989581973E+01 -0.57710311915E+00  0.59722305891E+01  0.63534261890E+01  0.17770000000E+01 0.  1.
         15    1    1    2    0    0  0.24347616162E+01 -0.98257568843E+01  0.39546673619E+02  0.40860380392E+02  0.17770000000E+01 0. -1.
</event>
<event>
 6    1  0.1144925E-002  0.1826325E+03  0.7546771E-02  0.1068349E+00
        -11   -1    0    0    0    0  0.00000000000E+00  0.00000000000E+00  0.18250000000E+03  0.18250000000E+03  0.00000000000E+00 0. -1.
         11   -1    0    0    0    0 -0.00000000000E+00 -0.00000000000E+00 -0.18250000000E+03  0.18250000000E+03  0.00000000000E+00 0. -1.
        -11    1    1    2    0    0 -0.16142852319E+01 -0.63808022939E+00  0.66900177299E+01  0.69115411028E+01  0.00000000000E+00 0. -1.
         11    1    1    2    0    0  0.29124200039E+01  0.80969672026E+00 -0.18234248829E+03  0.18236754326E+03  0.00000000000E+00 0. -1.
        -15    1    1    2    0    0 -0.78103595563E+00 -0.11835256520E+01  0.51054009138E+02  0.51104601830E+02  0.17770000000E+01 0. -1.
         15    1    1    2    0    0 -0.51709881636E+00  0.10119091611E+01  0.12459846142E+03  0.12461631381E+03  0.17770000000E+01 0. -1.
</event>
<event>
 6    1  0.1144925E-002  0.1827370E+03  0.7546771E-02  0.1068266E+00
        -11   -1    0    0    0    0  0.00000000000E+00  0.00000000000E+00  0.18250000000E+03  0.18250000000E+03  0.00000000000E+00 0.  1.
         11   -1    0    0    0    0 -0.00000000000E+00 -0.00000000000E+00 -0.18250000000E+03  0.18250000000E+03  0.00000000000E+00 0.  1.
        -11    1    1    2    0    0  0.10658036687E+01 -0.15758463776E+01  0.13590968186E+03  0.13592299604E+03  0.00000000000E+00 0.  1.
         11    1    1    2    0    0  0.45679160704E+01  0.30813833614E+01 -0.18217972037E+03  0.18226302777E+03  0.00000000000E+00 0.  1.
        -15    1    1    2    0    0 -0.37867275323E+01 -0.17335159582E+01  0.30915543154E+02  0.31245366384E+02  0.17770000000E+01 0. -1.
         15    1    1    2    0    0 -0.18469922068E+01  0.22797897447E+00  0.15354495348E+02  0.15568609797E+02  0.17770000000E+01 0.  1.
</event>
<event>
 6    1  0.1144925E-002  0.1835990E+03  0.7546771E-02  0.1067583E+00
        -11   -1    0    0    0    0  0.00000000000E+00  0.00000000000E+00  0.18250000000E+03  0.18250000000E+03  0.00000000000E+00 0.  1.
         11   -1    0    0    0    0 -0.00000000000E+00 -0.00000000000E+00 -0.18250000000E+03  0.18250000000E+03  0.00000000000E+00 0.  1.
        -11    1    1    2    0    0  0.73118989299E+01  0.27386457871E+01  0.14774234327E+03  0.14794851822E+03  0.00000000000E+00 0.  1.
         11    1    1    2    0    0 -0.16859658308E+01  0.42690819270E+01 -0.18134290613E+03  0.18140098441E+03  0.00000000000E+00 0.  1.
        -15    1    1    2    0    0 -0.33412746078E+01 -0.44350310380E+00  0.58031744723E+01  0.69422888130E+01  0.17770000000E+01 0.  1.
         15    1    1    2    0    0 -0.22846584913E+01 -0.65642246103E+01  0.27797388381E+02  0.28708208564E+02  0.17770000000E+01 0. -1.
</event>
<event>
 6    1  0.1144925E-002  0.1668377E+03  0.7546771E-02  0.1081654E+00
        -11   -1    0    0    0    0  0.00000000000E+00  0.00000000000E+00  0.18250000000E+03  0.18250000000E+03  0.00000000000E+00 0.  1.
         11   -1    0    0    0    0 -0.00000000000E+00 -0.00000000000E+00 -0.18250000000E+03  0.18250000000E+03  0.00000000000E+00 0. -1.
        -11    1    1    2    0    0 -0.17532197097E+02 -0.14879755666E+02  0.17299276837E+03  0.17451442053E+03  0.00000000000E+00 0.  1.
         11    1    1    2    0    0 -0.10017576330E+01 -0.31106770691E+01 -0.16036418655E+03  0.16039748177E+03  0.00000000000E+00 0. -1.
        -15    1    1    2    0    0  0.15302165425E+02  0.17830566556E+02 -0.10248803068E+02  0.25695934771E+02  0.17770000000E+01 0. -1.
         15    1    1    2    0    0  0.32317893044E+01  0.15986617898E+00 -0.23797787484E+01  0.43921629290E+01  0.17770000000E+01 0.  1.
</event>
<event>
 6    1  0.1144925E-002  0.1831081E+03  0.7546771E-02  0.1067972E+00
        -11   -1    0    0    0    0  0.00000000000E+00  0.00000000000E+00  0.18250000000E+03  0.18250000000E+03  0.00000000000E+00 0.  1.
         11   -1    0    0    0    0 -0.00000000000E+00 -0.00000000000E+00 -0.18250000000E+03  0.18250000000E+03  0.00000000000E+00 0.  1.
        -11    1    1    2    0    0  0.16959443834E+01  0.14635834564E+01  0.16284796768E+03  0.16286337490E+03  0.00000000000E+00 0.  1.
         11    1    1    2    0    0  0.37375791895E+01 -0.35399840259E+01 -0.18181906507E+03  0.18189192783E+03  0.00000000000E+00 0.  1.
        -15    1    1    2    0    0 -0.16760768473E+01  0.14892511330E+01  0.81824277665E+01  0.86681575718E+01  0.17770000000E+01 0.  1.
         15    1    1    2    0    0 -0.37574467257E+01  0.58714943650E+00  0.10788669621E+02  0.11576539706E+02  0.17770000000E+01 0. -1.
</event>
<event>
 6    1  0.1144925E-002  0.1831276E+03  0.7546771E-02  0.1067956E+00
        -11   -1    0    0    0    0  0.00000000000E+00  0.00000000000E+00  0.18250000000E+03  0.18250000000E+03  0.00000000000E+00 0. -1.
         11   -1    0    0    0    0 -0.00000000000E+00 -0.00000000000E+00 -0.18250000000E+03  0.18250000000E+03  0.00000000000E+00 0.  1.
        -11    1    1    2    0    0 -0.69547968847E+01  0.51045062371E+01  0.11779579996E+03  0.11811128512E+03  0.00000000000E+00 0. -1.
         11    1    1    2    0    0 -0.57484883225E+00 -0.56907494568E+01 -0.18178241189E+03  0.18187237380E+03  0.00000000000E+00 0.  1.
        -15    1    1    2    0    0  0.88869401990E+00  0.26053143492E+01  0.92573415684E+01  0.98200581380E+01  0.17770000000E+01 0. -1.
         15    1    1    2    0    0  0.66409516970E+01 -0.20190711294E+01  0.54729270356E+02  0.55196282940E+02  0.17770000000E+01 0.  1.
</event>
<event>
 6    1  0.1144925E-002  0.1400963E+03  0.7546771E-02  0.1108331E+00
        -11   -1    0    0    0    0  0.00000000000E+00  0.00000000000E+00  0.18250000000E+03  0.18250000000E+03  0.00000000000E+00 0.  1.
         11   -1    0    0    0    0 -0.00000000000E+00 -0.00000000000E+00 -0.18250000000E+03  0.18250000000E+03  0.00000000000E+00 0. -1.
        -11    1    1    2    0    0 -0.24156710361E+02  0.68695331304E+02  0.14949444769E+03  0.16628645491E+03  0.00000000000E+00 0.  1.
         11    1    1    2    0    0  0.60419345597E+02 -0.20971696544E+02 -0.10572991647E+03  0.12356829940E+03  0.00000000000E+00 0. -1.
        -15    1    1    2    0    0 -0.28734520715E+02 -0.31956513515E+02 -0.35332956751E+02  0.55663875166E+02  0.17770000000E+01 0.  1.
         15    1    1    2    0    0 -0.75281145208E+01 -0.15767121246E+02 -0.84315744622E+01  0.19481370525E+02  0.17770000000E+01 0. -1.
</event>
<event>
 6    1  0.1144925E-002  0.1829953E+03  0.7546771E-02  0.1068061E+00
        -11   -1    0    0    0    0  0.00000000000E+00  0.00000000000E+00  0.18250000000E+03  0.18250000000E+03  0.00000000000E+00 0.  1.
         11   -1    0    0    0    0 -0.00000000000E+00 -0.00000000000E+00 -0.18250000000E+03  0.18250000000E+03  0.00000000000E+00 0.  1.
        -11    1    1    2    0    0  0.17556911187E+01  0.29031160240E+01  0.16030366321E+03  0.16033956147E+03  0.00000000000E+00 0.  1.
         11    1    1    2    0    0  0.13988335299E+01 -0.22993698942E+01 -0.18198474985E+03  0.18200465108E+03  0.00000000000E+00 0.  1.
        -15    1    1    2    0    0  0.19003432141E+00 -0.16307328819E+01  0.55522183379E+01  0.60564230572E+01  0.17770000000E+01 0.  1.
         15    1    1    2    0    0 -0.33445589700E+01  0.10269867521E+01  0.16128868300E+02  0.16599364389E+02  0.17770000000E+01 0. -1.
</event>
<event>
 6    1  0.1144925E-002  0.1859689E+03  0.7546771E-02  0.1065727E+00
        -11   -1    0    0    0    0  0.00000000000E+00  0.00000000000E+00  0.18250000000E+03  0.18250000000E+03  0.00000000000E+00 0.  1.
         11   -1    0    0    0    0 -0.00000000000E+00 -0.00000000000E+00 -0.18250000000E+03  0.18250000000E+03  0.00000000000E+00 0. -1.
        -11    1    1    2    0    0 -0.32142252001E+01 -0.23655649664E+02  0.17743231666E+03  0.17903113696E+03  0.00000000000E+00 0.  1.
         11    1    1    2    0    0  0.35008318729E+01  0.58179669562E-01 -0.14491052006E+03  0.14495281313E+03  0.00000000000E+00 0. -1.
        -15    1    1    2    0    0  0.16564459876E+01  0.39259622489E+01 -0.98902453772E+01  0.10914745783E+02  0.17770000000E+01 0.  1.
         15    1    1    2    0    0 -0.19430526603E+01  0.19671507746E+02 -0.22631551224E+02  0.30101304132E+02  0.17770000000E+01 0. -1.
</event>
<event>
 6    1  0.1144925E-002  0.1835845E+03  0.7546771E-02  0.1067595E+00
        -11   -1    0    0    0    0  0.00000000000E+00  0.00000000000E+00  0.18250000000E+03  0.18250000000E+03  0.00000000000E+00 0. -1.
         11   -1    0    0    0    0 -0.00000000000E+00 -0.00000000000E+00 -0.18250000000E+03  0.18250000000E+03  0.00000000000E+00 0.  1.
        -11    1    1    2    0    0 -0.52468762895E+01 -0.73184150279E+01  0.14118936453E+03  0.14147623676E+03  0.00000000000E+00 0. -1.
         11    1    1    2    0    0  0.12170392812E+00  0.34987196817E+01 -0.18138171653E+03  0.18141549808E+03  0.00000000000E+00 0.  1.
        -15    1    1    2    0    0 -0.24403377454E+00  0.16220209031E+01  0.30998542847E+02  0.31092730532E+02  0.17770000000E+01 0.  1.
         15    1    1    2    0    0  0.53692061359E+01  0.21976744431E+01  0.91938091529E+01  0.11015534632E+02  0.17770000000E+01 0. -1.
</event>
<event>
 6    1  0.1144925E-002  0.1827849E+03  0.7546771E-02  0.1068228E+00
        -11   -1    0    0    0    0  0.00000000000E+00  0.00000000000E+00  0.18250000000E+03  0.18250000000E+03  0.00000000000E+00 0. -1.
         11   -1    0    0    0    0 -0.00000000000E+00 -0.00000000000E+00 -0.18250000000E+03  0.18250000000E+03  0.00000000000E+00 0.  1.
        -11    1    1    2    0    0 -0.48666526535E+01 -0.59289545948E+01  0.18205357621E+03  0.18221509658E+03  0.00000000000E+00 0. -1.
         11    1    1    2    0    0  0.12516995307E+01  0.32846921373E+01 -0.15137239488E+03  0.15141320248E+03  0.00000000000E+00 0.  1.
        -15    1    1    2    0    0  0.84876827690E+00  0.68822472414E+00 -0.18151871659E+02  0.18271350103E+02  0.17770000000E+01 0.  1.
         15    1    1    2    0    0  0.27661848459E+01  0.19560377334E+01 -0.12529309670E+02  0.13100350836E+02  0.17770000000E+01 0.  1.
</event>
<event>
 6    1  0.1144925E-002  0.1833193E+03  0.7546771E-02  0.1067805E+00
        -11   -1    0    0    0    0  0.00000000000E+00  0.00000000000E+00  0.18250000000E+03  0.18250000000E+03  0.00000000000E+00 0.  1.
         11   -1    0    0    0    0 -0.00000000000E+00 -0.00000000000E+00 -0.18250000000E+03  0.18250000000E+03  0.00000000000E+00 0.  1.
        -11    1    1    2    0    0  0.13133142521E+01 -0.82360743362E+01  0.18148919250E+03  0.18168072189E+03  0.00000000000E+00 0.  1.
         11    1    1    2    0    0 -0.60487298054E+01 -0.28564562740E+01 -0.12518708855E+03  0.12536567957E+03  0.00000000000E+00 0.  1.
        -15    1    1    2    0    0  0.31337630391E+01  0.10727720433E+02 -0.46279962376E+02  0.47643437145E+02  0.17770000000E+01 0. -1.
         15    1    1    2    0    0  0.16016525143E+01  0.36481017695E+00 -0.10022141575E+02  0.10310161395E+02  0.17770000000E+01 0.  1.
</event>
<event>
 6    1  0.1144925E-002  0.1835965E+03  0.7546771E-02  0.1067585E+00
        -11   -1    0    0    0    0  0.00000000000E+00  0.00000000000E+00  0.18250000000E+03  0.18250000000E+03  0.00000000000E+00 0.  1.
         11   -1    0    0    0    0 -0.00000000000E+00 -0.00000000000E+00 -0.18250000000E+03  0.18250000000E+03  0.00000000000E+00 0.  1.
        -11    1    1    2    0    0  0.72889285479E+01 -0.69779245184E+01  0.13751505013E+03  0.13788476682E+03  0.00000000000E+00 0.  1.
         11    1    1    2    0    0 -0.18642318941E+01 -0.27933972147E+01 -0.18137236081E+03  0.18140345006E+03  0.00000000000E+00 0.  1.
        -15    1    1    2    0    0 -0.23496316536E+01  0.11390831704E+01  0.68125355965E+01  0.75091044492E+01  0.17770000000E+01 0. -1.
         15    1    1    2    0    0 -0.30750650002E+01  0.86322385626E+01  0.37044775083E+02  0.38202678667E+02  0.17770000000E+01 0.  1.
</event>
<event>
 6    1  0.1144925E-002  0.1828655E+03  0.7546771E-02  0.1068164E+00
        -11   -1    0    0    0    0  0.00000000000E+00  0.00000000000E+00  0.18250000000E+03  0.18250000000E+03  0.00000000000E+00 0.  1.
         11   -1    0    0    0    0 -0.00000000000E+00 -0.00000000000E+00 -0.18250000000E+03  0.18250000000E+03  0.00000000000E+00 0.  1.
        -11    1    1    2    0    0 -0.17962283889E+01 -0.78956044551E+00  0.14318908537E+03  0.14320252795E+03  0.00000000000E+00 0.  1.
         11    1    1    2    0    0 -0.40509560621E+00  0.24557937119E+01 -0.18211746190E+03  0.18213446943E+03  0.00000000000E+00 0.  1.
        -15    1    1    2    0    0  0.12838135618E+01 -0.35121740883E+01  0.31113987482E+02  0.31388238086E+02  0.17770000000E+01 0.  1.
         15    1    1    2    0    0  0.91751043331E+00  0.18459408219E+01  0.78143890444E+01  0.82747645314E+01  0.17770000000E+01 0.  1.
</event>
<event>
 6    1  0.1144925E-002  0.1804879E+03  0.7546771E-02  0.1070068E+00
        -11   -1    0    0    0    0  0.00000000000E+00  0.00000000000E+00  0.18250000000E+03  0.18250000000E+03  0.00000000000E+00 0. -1.
         11   -1    0    0    0    0 -0.00000000000E+00 -0.00000000000E+00 -0.18250000000E+03  0.18250000000E+03  0.00000000000E+00 0.  1.
        -11    1    1    2    0    0  0.10194507554E+00  0.93764250577E+00  0.41326723737E+01  0.42389323203E+01  0.00000000000E+00 0. -1.
         11    1    1    2    0    0 -0.30287357525E+01 -0.10666692105E+01 -0.18229950255E+03  0.18232778081E+03  0.00000000000E+00 0.  1.
        -15    1    1    2    0    0 -0.19833696643E+01 -0.10025640567E+01  0.11669623489E+03  0.11673092074E+03  0.17770000000E+01 0. -1.
         15    1    1    2    0    0  0.49101603412E+01  0.11315907614E+01  0.61470595286E+02  0.61702366130E+02  0.17770000000E+01 0. -1.
</event>
<event>
 6    1  0.1144925E-002  0.1828003E+03  0.7546771E-02  0.1068216E+00
        -11   -1    0    0    0    0  0.00000000000E+00  0.00000000000E+00  0.18250000000E+03  0.18250000000E+03  0.00000000000E+00 0. -1.
         11   -1    0    0    0    0 -0.00000000000E+00 -0.00000000000E+00 -0.18250000000E+03  0.18250000000E+03  0.00000000000E+00 0. -1.
        -11    1    1    2    0    0 -0.14282703676E+01 -0.64449783517E+01  0.12011860739E+03  0.12029986510E+03  0.00000000000E+00 0. -1.
         11    1    1    2    0    0 -0.70300020517E+00  0.28356283546E+01 -0.18217632203E+03  0.18219974563E+03  0.00000000000E+00 0. -1.
        -15    1    1    2    0    0  0.21822526751E+01  0.68393329283E+00  0.45523113569E+02  0.45615146492E+02  0.17770000000E+01 0.  1.
         15    1    1    2    0    0 -0.50982102299E-01  0.29254167043E+01  0.16534601073E+02  0.16885242779E+02  0.17770000000E+01 0. -1.
</event>
<event>
 6    1  0.3021654E-002  0.1827930E+03  0.7546771E-02  0.1068222E+00
        -11   -1    0    0    0    0  0.00000000000E+00  0.00000000000E+00  0.18250000000E+03  0.18250000000E+03  0.00000000000E+00 0.  1.
         11   -1    0    0    0    0 -0.00000000000E+00 -0.00000000000E+00 -0.18250000000E+03  0.18250000000E+03  0.00000000000E+00 0.  1.
        -11    1    1    2    0    0 -0.10302749148E+02 -0.20646381028E+01  0.18190377833E+03  0.18220700848E+03  0.00000000000E+00 0.  1.
         11    1    1    2    0    0  0.18597787817E+01 -0.13092083297E+01 -0.56101025291E+02  0.56147108939E+02  0.00000000000E+00 0.  1.
        -15    1    1    2    0    0  0.75103469722E+01  0.46673856405E+01 -0.50092924282E+02  0.50898414440E+02  0.17770000000E+01 0.  1.
         15    1    1    2    0    0  0.93262339410E+00 -0.12935392080E+01 -0.75709828755E+02  0.75747468137E+02  0.17770000000E+01 0. -1.
</event>
<event>
 6    1  0.1144925E-002  0.1843244E+03  0.7546771E-02  0.1067012E+00
        -11   -1    0    0    0    0  0.00000000000E+00  0.00000000000E+00  0.18250000000E+03  0.18250000000E+03  0.00000000000E+00 0. -1.
         11   -1    0    0    0    0 -0.00000000000E+00 -0.00000000000E+00 -0.18250000000E+03  0.18250000000E+03  0.00000000000E+00 0. -1.
        -11    1    1    2    0    0  0.73913664362E+01  0.22901786955E+01  0.10867275227E+02  0.13340722885E+02  0.00000000000E+00 0. -1.
         11    1    1    2    0    0  0.11524134915E+02 -0.82666220484E+01 -0.18011808772E+03  0.18067558842E+03  0.00000000000E+00 0. -1.
        -15    1    1    2    0    0 -0.10328967286E+02  0.62006231714E+01  0.13766633492E+03  0.13820388125E+03  0.17770000000E+01 0. -1.
         15    1    1    2    0    0 -0.85865340655E+01 -0.22417981852E+00  0.31584477572E+02  0.32779807448E+02  0.17770000000E+01 0.  1.
</event>
<event>
 6    1  0.1144925E-002  0.1838512E+03  0.7546771E-02  0.1067384E+00
        -11   -1    0    0    0    0  0.00000000000E+00  0.00000000000E+00  0.18250000000E+03  0.18250000000E+03  0.00000000000E+00 0. -1.
         11   -1    0    0    0    0 -0.00000000000E+00 -0.00000000000E+00 -0.18250000000E+03  0.18250000000E+03  0.00000000000E+00 0. -1.
        -11    1    1    2    0    0 -0.21968603630E+02 -0.20429422104E+02  0.17864743467E+03  0.18114879726E+03  0.00000000000E+00 0. -1.
         11    1    1    2    0    0 -0.54501132425E+01  0.11513034541E+02 -0.56187287295E+02  0.57613062341E+02  0.00000000000E+00 0. -1.
        -15    1    1    2    0    0  0.24459167795E+02  0.89162246029E+01 -0.11615392060E+03  0.11904890151E+03  0.17770000000E+01 0. -1.
         15    1    1    2    0    0  0.29595490779E+01  0.16296023338E-03 -0.63062267744E+01  0.71892388958E+01  0.17770000000E+01 0. -1.
</event>
<event>
 6    1  0.1144925E-002  0.1834524E+03  0.7546771E-02  0.1067699E+00
        -11   -1    0    0    0    0  0.00000000000E+00  0.00000000000E+00  0.18250000000E+03  0.18250000000E+03  0.00000000000E+00 0.  1.
         11   -1    0    0    0    0 -0.00000000000E+00 -0.00000000000E+00 -0.18250000000E+03  0.18250000000E+03  0.00000000000E+00 0. -1.
        -11    1    1    2    0    0  0.22519848363E+00 -0.77772564509E+01  0.15590529494E+03  0.15609931910E+03  0.00000000000E+00 0.  1.
         11    1    1    2    0    0  0.37321483561E+01  0.16644248665E+01 -0.18150156478E+03  0.18154756198E+03  0.00000000000E+00 0. -1.
        -15    1    1    2    0    0 -0.10267769165E+01  0.57815689422E+01  0.14803877275E+02  0.16024772125E+02  0.17770000000E+01 0.  1.
         15    1    1    2    0    0 -0.29305699233E+01  0.33126264224E+00  0.10792392561E+02  0.11328346799E+02  0.17770000000E+01 0. -1.
</event>
<event>
 6    1  0.1144925E-002  0.1904110E+03  0.7546771E-02  0.1062326E+00
        -11   -1    0    0    0    0  0.00000000000E+00  0.00000000000E+00  0.18250000000E+03  0.18250000000E+03  0.00000000000E+00 0. -1.
         11   -1    0    0    0    0 -0.00000000000E+00 -0.00000000000E+00 -0.18250000000E+03  0.18250000000E+03  0.00000000000E+00 0.  1.
        -11    1    1    2    0    0 -0.19661759677E+01 -0.16052699042E+02  0.17383832884E+03  0.17458900185E+03  0.00000000000E+00 0. -1.
         11    1    1    2    0    0 -0.23816691096E+01  0.16655114370E+01 -0.10841420163E+03  0.10845314837E+03  0.00000000000E+00 0.  1.
        -15    1    1    2    0    0 -0.14813576984E+01  0.14780819544E+02  0.12423456458E+01  0.15012268274E+02  0.17770000000E+01 0.  1.
         15    1    1    2    0    0  0.58292027757E+01 -0.39363193874E+00 -0.66666472858E+02  0.66945581508E+02  0.17770000000E+01 0. -1.
</event>
<event>
 6    1  0.1242879E-002  0.1825442E+03  0.7546771E-02  0.1068420E+00
        -11   -1    0    0    0    0  0.00000000000E+00  0.00000000000E+00  0.18250000000E+03  0.18250000000E+03  0.00000000000E+00 0. -1.
         11   -1    0    0    0    0 -0.00000000000E+00 -0.00000000000E+00 -0.18250000000E+03  0.18250000000E+03  0.00000000000E+00 0. -1.
        -11    1    1    2    0    0 -0.51281869856E+01 -0.91390642846E+01  0.18215460874E+03  0.18245580913E+03  0.00000000000E+00 0. -1.
         11    1    1    2    0    0  0.21150995844E+01  0.24246326201E+01 -0.41668777472E+02  0.41792816435E+02  0.00000000000E+00 0. -1.
        -15    1    1    2    0    0  0.79748110778E+00  0.21502789868E+01 -0.31594140450E+02  0.31727072282E+02  0.17770000000E+01 0.  1.
         15    1    1    2    0    0  0.22156062934E+01  0.45641526777E+01 -0.10889169082E+03  0.10902430215E+03  0.17770000000E+01 0. -1.
</event>
<event>
 6    1  0.1144925E-002  0.1870511E+03  0.7546771E-02  0.1064889E+00
        -11   -1    0    0    0    0  0.00000000000E+00  0.00000000000E+00  0.18250000000E+03  0.18250000000E+03  0.00000000000E+00 0. -1.
         11   -1    0    0    0    0 -0.00000000000E+00 -0.00000000000E+00 -0.18250000000E+03  0.18250000000E+03  0.00000000000E+00 0.  1.
        -11    1    1    2    0    0 -0.51630486796E+01  0.10731385766E+02  0.15311102001E+03  0.15357344875E+03  0.00000000000E+00 0. -1.
         11    1    1    2    0    0 -0.26218864952E+01 -0.75352499939E+00 -0.17792799180E+03  0.17794890378E+03  0.00000000000E+00 0.  1.
        -15    1    1    2    0    0 -0.59396016490E+00  0.32537354013E+01 -0.36205691719E+00  0.37720547385E+01  0.17770000000E+01 0.  1.
         15    1    1    2    0    0  0.83788953397E+01 -0.13231596168E+02  0.25179028709E+02  0.29705592739E+02  0.17770000000E+01 0. -1.
</event>
<event>
 6    1  0.1144925E-002  0.1829081E+03  0.7546771E-02  0.1068130E+00
        -11   -1    0    0    0    0  0.00000000000E+00  0.00000000000E+00  0.18250000000E+03  0.18250000000E+03  0.00000000000E+00 0.  1.
         11   -1    0    0    0    0 -0.00000000000E+00 -0.00000000000E+00 -0.18250000000E+03  0.18250000000E+03  0.00000000000E+00 0. -1.
        -11    1    1    2    0    0  0.24471609489E+01  0.54605374008E+01  0.18199355595E+03  0.18209190117E+03  0.00000000000E+00 0.  1.
         11    1    1    2    0    0  0.14814749112E+01 -0.24351404263E+01 -0.15468171894E+03  0.15470797928E+03  0.00000000000E+00 0. -1.
        -15    1    1    2    0    0 -0.26818205936E+01 -0.23918277817E+01 -0.22838789380E+02  0.23187950129E+02  0.17770000000E+01 0.  1.
         15    1    1    2    0    0 -0.12468152665E+01 -0.63356919283E+00 -0.44730476282E+01  0.50121694220E+01  0.17770000000E+01 0. -1.
</event>
<event>
 6    1  0.1144925E-002  0.1852485E+03  0.7546771E-02  0.1066288E+00
        -11   -1    0    0    0    0  0.00000000000E+00  0.00000000000E+00  0.18250000000E+03  0.18250000000E+03  0.00000000000E+00 0.  1.
         11   -1    0    0    0    0 -0.00000000000E+00 -0.00000000000E+00 -0.18250000000E+03  0.18250000000E+03  0.00000000000E+00 0. -1.
        -11    1    1    2    0    0 -0.44265775942E+01 -0.76165509438E+01  0.17953549203E+03  0.17975149328E+03  0.00000000000E+00 0.  1.
         11    1    1    2    0    0  0.52887293613E+01 -0.24370008096E+01 -0.16602827017E+03  0.16613035884E+03  0.00000000000E+00 0. -1.
        -15    1    1    2    0    0  0.23221899088E+01  0.72599297081E+01 -0.11916303551E+02  0.14256758561E+02  0.17770000000E+01 0. -1.
         15    1    1    2    0    0 -0.31843416760E+01  0.27936220453E+01 -0.15909183100E+01  0.48613893190E+01  0.17770000000E+01 0.  1.
</event>
<event>
 6    1  0.1144925E-002  0.1841516E+03  0.7546771E-02  0.1067148E+00
        -11   -1    0    0    0    0  0.00000000000E+00  0.00000000000E+00  0.18250000000E+03  0.18250000000E+03  0.00000000000E+00 0.  1.
         11   -1    0    0    0    0 -0.00000000000E+00 -0.00000000000E+00 -0.18250000000E+03  0.18250000000E+03  0.00000000000E+00 0. -1.
        -11    1    1    2    0    0  0.11649707412E+00  0.65345730514E+01  0.16989219086E+03  0.17001785415E+03  0.00000000000E+00 0.  1.
         11    1    1    2    0    0 -0.31800494715E+01 -0.41605740556E+01 -0.18077260730E+03  0.18084844108E+03  0.00000000000E+00 0. -1.
        -15    1    1    2    0    0 -0.14996144942E+01 -0.11879876459E+01  0.59141512749E+00  0.26772484253E+01  0.17770000000E+01 0. -1.
         15    1    1    2    0    0  0.45631668915E+01 -0.11860113499E+01  0.10289001312E+02  0.11456456346E+02  0.17770000000E+01 0.  1.
</event>
<event>
 6    1  0.1144925E-002  0.1829582E+03  0.7546771E-02  0.1068091E+00
        -11   -1    0    0    0    0  0.00000000000E+00  0.00000000000E+00  0.18250000000E+03  0.18250000000E+03  0.00000000000E+00 0. -1.
         11   -1    0    0    0    0 -0.00000000000E+00 -0.00000000000E+00 -0.18250000000E+03  0.18250000000E+03  0.00000000000E+00 0.  1.
        -11    1    1    2    0    0 -0.85607273693E+00  0.46814042997E+01  0.14673458466E+03  0.14681173911E+03  0.00000000000E+00 0. -1.
         11    1    1    2    0    0 -0.30593714739E+01  0.15788069583E+00 -0.18201606370E+03  0.18204184169E+03  0.00000000000E+00 0.  1.
        -15    1    1    2    0    0  0.24525936175E+01 -0.35581867010E+01  0.15460937036E+02  0.16151600883E+02  0.17770000000E+01 0. -1.
         15    1    1    2    0    0  0.14628505933E+01 -0.12810982946E+01  0.19820542011E+02  0.19994818311E+02  0.17770000000E+01 0.  1.
</event>
<event>
 6    1  0.1144925E-002  0.1833560E+03  0.7546771E-02  0.1067776E+00
        -11   -1    0    0    0    0  0.00000000000E+00  0.00000000000E+00  0.18250000000E+03  0.18250000000E+03  0.00000000000E+00 0.  1.
         11   -1    0    0    0    0 -0.00000000000E+00 -0.00000000000E+00 -0.18250000000E+03  0.18250000000E+03  0.00000000000E+00 0.  1.
        -11    1    1    2    0    0  0.15516593319E+02  0.16273140370E+01  0.18097277472E+03  0.18164404204E+03  0.00000000000E+00 0.  1.
         11    1    1    2    0    0  0.20287217680E+01 -0.42776476946E+01 -0.98061846831E+02  0.98176065239E+02  0.00000000000E+00 0.  1.
        -15    1    1    2    0    0 -0.16680693812E+02  0.36026610580E+01 -0.69243729201E+02  0.71337763319E+02  0.17770000000E+01 0.  1.
         15    1    1    2    0    0 -0.86462127543E+00 -0.95232740040E+00 -0.13667198687E+02  0.13842129402E+02  0.17770000000E+01 0.  1.
</event>
<event>
 6    1  0.1144925E-002  0.1666280E+03  0.7546771E-02  0.1081841E+00
        -11   -1    0    0    0    0  0.00000000000E+00  0.00000000000E+00  0.18250000000E+03  0.18250000000E+03  0.00000000000E+00 0.  1.
         11   -1    0    0    0    0 -0.00000000000E+00 -0.00000000000E+00 -0.18250000000E+03  0.18250000000E+03  0.00000000000E+00 0.  1.
        -11    1    1    2    0    0  0.79757705521E-01  0.96702505392E+01  0.16862484781E+03  0.16890192244E+03  0.00000000000E+00 0.  1.
         11    1    1    2    0    0  0.90153904982E+01  0.75297818068E+01 -0.16452800788E+03  0.16494678007E+03  0.00000000000E+00 0.  1.
        -15    1    1    2    0    0 -0.10275950402E+02 -0.13397106427E+02  0.76498500648E+01  0.18621373534E+02  0.17770000000E+01 0. -1.
         15    1    1    2    0    0  0.11808021986E+01 -0.38029259187E+01 -0.11746689993E+02  0.12529923949E+02  0.17770000000E+01 0.  1.
</event>
<event>
 6    1  0.1144925E-002  0.1827878E+03  0.7546771E-02  0.1068226E+00
        -11   -1    0    0    0    0  0.00000000000E+00  0.00000000000E+00  0.18250000000E+03  0.18250000000E+03  0.00000000000E+00 0.  1.
         11   -1    0    0    0    0 -0.00000000000E+00 -0.00000000000E+00 -0.18250000000E+03  0.18250000000E+03  0.00000000000E+00 0.  1.
        -11    1    1    2    0    0  0.17209153001E+01 -0.31721886651E+01  0.14533382378E+03  0.14537862520E+03  0.00000000000E+00 0.  1.
         11    1    1    2    0    0 -0.26987059734E+01  0.95335948733E+00 -0.18218970100E+03  0.18221218142E+03  0.00000000000E+00 0.  1.
        -15    1    1    2    0    0  0.26866144579E+01  0.14120376040E+01  0.26547429892E+02  0.26779385921E+02  0.17770000000E+01 0.  1.
         15    1    1    2    0    0 -0.17088237845E+01  0.80679157380E+00  0.10308447324E+02  0.10629807458E+02  0.17770000000E+01 0.  1.
</event>
<event>
 6    1  0.1144925E-002  0.1867887E+03  0.7546771E-02  0.1065091E+00
        -11   -1    0    0    0    0  0.00000000000E+00  0.00000000000E+00  0.18250000000E+03  0.18250000000E+03  0.00000000000E+00 0.  1.
         11   -1    0    0    0    0 -0.00000000000E+00 -0.00000000000E+00 -0.18250000000E+03  0.18250000000E+03  0.00000000000E+00 0. -1.
        -11    1    1    2    0    0  0.25442977466E+02 -0.42138038375E+02  0.58867820653E+02  0.76735778414E+02  0.00000000000E+00 0.  1.
         11    1    1    2    0    0 -0.19782758942E+02  0.57245180548E+02 -0.16760342147E+03  0.17821132157E+03  0.00000000000E+00 0. -1.
        -15    1    1    2    0    0 -0.77689890090E+00 -0.46521033041E+01  0.24593964383E+02  0.25105108049E+02  0.17770000000E+01 0.  1.
         15    1    1    2    0    0 -0.48833196235E+01 -0.10455038869E+02  0.84141636437E+02  0.84947791964E+02  0.17770000000E+01 0.  1.
</event>
<event>
 6    1  0.1144925E-002  0.1841476E+03  0.7546771E-02  0.1067151E+00
        -11   -1    0    0    0    0  0.00000000000E+00  0.00000000000E+00  0.18250000000E+03  0.18250000000E+03  0.00000000000E+00 0.  1.
         11   -1    0    0    0    0 -0.00000000000E+00 -0.00000000000E+00 -0.18250000000E+03  0.18250000000E+03  0.00000000000E+00 0.  1.
        -11    1    1    2    0    0  0.76872025115E+01 -0.21122899938E+01  0.16368853659E+03  0.16388255509E+03  0.00000000000E+00 0.  1.
         11    1    1    2    0    0 -0.33775573057E+01 -0.23878314839E+01 -0.18080511536E+03  0.18085242429E+03  0.00000000000E+00 0.  1.
        -15    1    1    2    0    0 -0.62346996559E+01  0.31414031705E+01  0.14977987437E+02  0.16620401029E+02  0.17770000000E+01 0. -1.
         15    1    1    2    0    0  0.19250544501E+01  0.13587183071E+01  0.21385913299E+01  0.36446195892E+01  0.17770000000E+01 0.  1.
</event>
<event>
 6    1  0.1144925E-002  0.1913301E+03  0.7546771E-02  0.1061636E+00
        -11   -1    0    0    0    0  0.00000000000E+00  0.00000000000E+00  0.18250000000E+03  0.18250000000E+03  0.00000000000E+00 0. -1.
         11   -1    0    0    0    0 -0.00000000000E+00 -0.00000000000E+00 -0.18250000000E+03  0.18250000000E+03  0.00000000000E+00 0.  1.
        -11    1    1    2    0    0  0.25053574383E+02 -0.43846120120E+01  0.10493687726E+03  0.10797525004E+03  0.00000000000E+00 0. -1.
         11    1    1    2    0    0  0.21721261642E+02 -0.39898001145E+01 -0.17225999712E+03  0.17366991196E+03  0.00000000000E+00 0.  1.
        -15    1    1    2    0    0 -0.43505556690E+02  0.53316038988E+01  0.63664192814E+02  0.77313948539E+02  0.17770000000E+01 0. -1.
         15    1    1    2    0    0 -0.32692793347E+01  0.30428082277E+01  0.36589270490E+01  0.60408894568E+01  0.17770000000E+01 0.  1.
</event>
<event>
 6    1  0.1144925E-002  0.1847518E+03  0.7546771E-02  0.1066676E+00
        -11   -1    0    0    0    0  0.00000000000E+00  0.00000000000E+00  0.18250000000E+03  0.18250000000E+03  0.00000000000E+00 0.  1.
         11   -1    0    0    0    0 -0.00000000000E+00 -0.00000000000E+00 -0.18250000000E+03  0.18250000000E+03  0.00000000000E+00 0.  1.
        -11    1    1    2    0    0  0.42245522409E+01 -0.18202455851E+02  0.13634640500E+03  0.13762092282E+03  0.00000000000E+00 0.  1.
         11    1    1    2    0    0 -0.37863088483E+01  0.21057685395E+01 -0.18019614277E+03  0.18024821848E+03  0.00000000000E+00 0.  1.
        -15    1    1    2    0    0  0.27489589774E+00  0.13682140237E+01  0.38684584855E+01  0.44799863196E+01  0.17770000000E+01 0. -1.
         15    1    1    2    0    0 -0.71313929035E+00  0.14728473288E+02  0.39981279282E+02  0.42650872384E+02  0.17770000000E+01 0.  1.
</event>
<event>
 6    1  0.1144925E-002  0.1634571E+03  0.7546771E-02  0.1084712E+00
        -11   -1    0    0    0    0  0.00000000000E+00  0.00000000000E+00  0.18250000000E+03  0.18250000000E+03  0.00000000000E+00 0. -1.
         11   -1    0    0    0    0 -0.00000000000E+00 -0.00000000000E+00 -0.18250000000E+03  0.18250000000E+03  0.00000000000E+00 0.  1.
        -11    1    1    2    0    0 -0.27002751725E+02  0.22525355410E+01  0.17090570020E+03  0.17304040245E+03  0.00000000000E+00 0. -1.
         11    1    1    2    0    0 -0.38307147860E+01  0.54035943977E+01 -0.15562808862E+03  0.15576898015E+03  0.00000000000E+00 0.  1.
        -15    1    1    2    0    0  0.42262900971E+01 -0.96529076177E+00 -0.49663364308E+01  0.68275574537E+01  0.17770000000E+01 0. -1.
         15    1    1    2    0    0  0.26607176414E+02 -0.66908391769E+01 -0.10311275151E+02  0.29363059954E+02  0.17770000000E+01 0.  1.
</event>
<event>
 6    1  0.1144925E-002  0.1858925E+03  0.7546771E-02  0.1065786E+00
        -11   -1    0    0    0    0  0.00000000000E+00  0.00000000000E+00  0.18250000000E+03  0.18250000000E+03  0.00000000000E+00 0.  1.
         11   -1    0    0    0    0 -0.00000000000E+00 -0.00000000000E+00 -0.18250000000E+03  0.18250000000E+03  0.00000000000E+00 0. -1.
        -11    1    1    2    0    0 -0.67244319575E+01  0.10105838714E+02  0.15015456035E+03  0.15064440897E+03  0.00000000000E+00 0.  1.
         11    1    1    2    0    0 -0.69186859924E-01  0.31111702982E+01 -0.17908043277E+03  0.17910746933E+03  0.00000000000E+00 0. -1.
        -15    1    1    2    0    0  0.11222223368E+01 -0.27010169675E+01 -0.48197569476E+00  0.34561402174E+01  0.17770000000E+01 0. -1.
         15    1    1    2    0    0  0.56713964806E+01 -0.10515992045E+02  0.29407848117E+02  0.31791981482E+02  0.17770000000E+01 0.  1.
</event>
<event>
 6    1  0.1144925E-002  0.1882021E+03  0.7546771E-02  0.1064004E+00
        -11   -1    0    0    0    0  0.00000000000E+00  0.00000000000E+00  0.18250000000E+03  0.18250000000E+03  0.00000000000E+00 0.  1.
         11   -1    0    0    0    0 -0.00000000000E+00 -0.00000000000E+00 -0.18250000000E+03  0.18250000000E+03  0.00000000000E+00 0.  1.
        -11    1    1    2    0    0 -0.19977638809E+02 -0.50777044114E+01  0.17559211975E+03  0.17679785534E+03  0.00000000000E+00 0.  1.
         11    1    1    2    0    0 -0.31118162676E+01 -0.28936143799E+00 -0.15542637083E+03  0.15545778809E+03  0.00000000000E+00 0.  1.
        -15    1    1    2    0    0 -0.25942563267E+00  0.47570152859E+00 -0.11453004139E+01  0.21824380040E+01  0.17770000000E+01 0. -1.
         15    1    1    2    0    0  0.23348880709E+02  0.48913643208E+01 -0.19020448514E+02  0.30561918558E+02  0.17770000000E+01 0.  1.
</event>
<event>
 6    1  0.1144925E-002  0.1517614E+03  0.7546771E-02  0.1095952E+00
        -11   -1    0    0    0    0  0.00000000000E+00  0.00000000000E+00  0.18250000000E+03  0.18250000000E+03  0.00000000000E+00 0.  1.
         11   -1    0    0    0    0 -0.00000000000E+00 -0.00000000000E+00 -0.18250000000E+03  0.18250000000E+03  0.00000000000E+00 0. -1.
        -11    1    1    2    0    0  0.23727301426E+02 -0.12256607234E+03  0.11287276421E+03  0.16830237022E+03  0.00000000000E+00 0.  1.
         11    1    1    2    0    0 -0.23485803982E+02  0.12581908473E+03 -0.57385143655E+02  0.14026788579E+03  0.00000000000E+00 0. -1.
        -15    1    1    2    0    0  0.25925331044E+01 -0.11498168706E+01 -0.46396546513E+02  0.46517099695E+02  0.17770000000E+01 0. -1.
         15    1    1    2    0    0 -0.28340305487E+01 -0.21031955248E+01 -0.90910740454E+01  0.99126442923E+01  0.17770000000E+01 0.  1.
</event>
<event>
 6    1  0.1144925E-002  0.1832864E+03  0.7546771E-02  0.1067831E+00
        -11   -1    0    0    0    0  0.00000000000E+00  0.00000000000E+00  0.18250000000E+03  0.18250000000E+03  0.00000000000E+00 0.  1.
         11   -1    0    0    0    0 -0.00000000000E+00 -0.00000000000E+00 -0.18250000000E+03  0.18250000000E+03  0.00000000000E+00 0.  1.
        -11    1    1    2    0    0  0.55159965358E+01 -0.29053261889E+01  0.12729510740E+03  0.12744768144E+03  0.00000000000E+00 0.  1.
         11    1    1    2    0    0 -0.16773771911E+01 -0.21260212887E+01 -0.18169338792E+03  0.18171356794E+03  0.00000000000E+00 0.  1.
        -15    1    1    2    0    0 -0.46062261831E+01  0.58597277733E+01  0.52327646021E+02  0.52885669102E+02  0.17770000000E+01 0.  1.
         15    1    1    2    0    0  0.76760683845E+00 -0.82838029564E+00  0.20706345001E+01  0.29530815101E+01  0.17770000000E+01 0. -1.
</event>
<event>
 6    1  0.1144925E-002  0.1757303E+03  0.7546771E-02  0.1073975E+00
        -11   -1    0    0    0    0  0.00000000000E+00  0.00000000000E+00  0.18250000000E+03  0.18250000000E+03  0.00000000000E+00 0. -1.
         11   -1    0    0    0    0 -0.00000000000E+00 -0.00000000000E+00 -0.18250000000E+03  0.18250000000E+03  0.00000000000E+00 0.  1.
        -11    1    1    2    0    0 -0.39123753726E+01  0.50259470852E+00  0.17805950696E+03  0.17810319284E+03  0.00000000000E+00 0. -1.
         11    1    1    2    0    0 -0.41654862442E+01  0.48168401253E+01 -0.17340441244E+03  0.17352130554E+03  0.00000000000E+00 0.  1.
        -15    1    1    2    0    0  0.23502383716E+01  0.16138556246E+01 -0.98232085971E+00  0.35001190911E+01  0.17770000000E+01 0. -1.
         15    1    1    2    0    0  0.57276232452E+01 -0.69332904584E+01 -0.36727736639E+01  0.98753825245E+01  0.17770000000E+01 0.  1.
</event>
<event>
 6    1  0.1144925E-002  0.1846137E+03  0.7546771E-02  0.1066785E+00
        -11   -1    0    0    0    0  0.00000000000E+00  0.00000000000E+00  0.18250000000E+03  0.18250000000E+03  0.00000000000E+00 0. -1.
         11   -1    0    0    0    0 -0.00000000000E+00 -0.00000000000E+00 -0.18250000000E+03  0.18250000000E+03  0.00000000000E+00 0.  1.
        -11    1    1    2    0    0 -0.13370152012E+02  0.71881807004E+01  0.88653415531E+02  0.89943643421E+02  0.00000000000E+00 0. -1.
         11    1    1    2    0    0 -0.80149171185E+01 -0.12036525915E+02 -0.17980571946E+03  0.18038628995E+03  0.00000000000E+00 0.  1.
        -15    1    1    2    0    0  0.54586886984E+01  0.47477433025E+01  0.13872913525E+02  0.15746549065E+02  0.17770000000E+01 0.  1.
         15    1    1    2    0    0  0.15926380432E+02  0.10060191176E+00  0.77279390403E+02  0.78923517562E+02  0.17770000000E+01 0. -1.
</event>
<event>
 6    1  0.1144925E-002  0.1836068E+03  0.7546771E-02  0.1067577E+00
        -11   -1    0    0    0    0  0.00000000000E+00  0.00000000000E+00  0.18250000000E+03  0.18250000000E+03  0.00000000000E+00 0. -1.
         11   -1    0    0    0    0 -0.00000000000E+00 -0.00000000000E+00 -0.18250000000E+03  0.18250000000E+03  0.00000000000E+00 0. -1.
        -11    1    1    2    0    0  0.53801263664E+01  0.40104052421E+00  0.19562291868E+02  0.20292605952E+02  0.00000000000E+00 0. -1.
         11    1    1    2    0    0 -0.44291571697E+01  0.86373738568E+00 -0.18133709055E+03  0.18139322999E+03  0.00000000000E+00 0. -1.
        -15    1    1    2    0    0 -0.70052131895E+01 -0.31093800565E+01  0.14616554894E+03  0.14637713852E+03  0.17770000000E+01 0. -1.
         15    1    1    2    0    0  0.60542439927E+01  0.18446021466E+01  0.15609249750E+02  0.16937025541E+02  0.17770000000E+01 0.  1.
</event>
<event>
 6    1  0.1144925E-002  0.1834726E+03  0.7546771E-02  0.1067683E+00
        -11   -1    0    0    0    0  0.00000000000E+00  0.00000000000E+00  0.18250000000E+03  0.18250000000E+03  0.00000000000E+00 0. -1.
         11   -1    0    0    0    0 -0.00000000000E+00 -0.00000000000E+00 -0.18250000000E+03  0.18250000000E+03  0.00000000000E+00 0.  1.
        -11    1    1    2    0    0  0.52378885146E+01  0.43969368560E+01  0.14436654508E+03  0.14452843273E+03  0.00000000000E+00 0. -1.
         11    1    1    2    0    0 -0.17712336145E+01  0.43577636454E+01 -0.18146643835E+03  0.18152739634E+03  0.00000000000E+00 0.  1.
        -15    1    1    2    0    0 -0.35371355219E+01 -0.12815366606E+01  0.13065237249E+02  0.13711740126E+02  0.17770000000E+01 0.  1.
         15    1    1    2    0    0  0.70480621773E-01 -0.74731638408E+01  0.24034656027E+02  0.25232430811E+02  0.17770000000E+01 0. -1.
</event>
