<event>
 7    1  0.3234965E-006  0.5258887E+03  0.7546771E-02  0.9343675E-01
        -11   -1    0    0    0    0  0.00000000000E+00  0.00000000000E+00  0.50000000000E+03  0.50000000000E+03  0.00000000000E+00 0. -1.
         11   -1    0    0    0    0 -0.00000000000E+00 -0.00000000000E+00 -0.50000000000E+03  0.50000000000E+03  0.00000000000E+00 0. -1.
         23    2    1    2    0    0 -0.52172842530E+02 -0.17549051156E+03 -0.42768378784E+03  0.47411130124E+03  0.91373838894E+02 0.  0.
        -11    1    1    2    0    0  0.11709535094E+03  0.42428274666E+00  0.19620813383E+03  0.22849317935E+03  0.00000000000E+00 0. -1.
         11    1    1    2    0    0 -0.64922508411E+02  0.17506622881E+03  0.23147565401E+03  0.29739551942E+03  0.00000000000E+00 0. -1.
        -15    1    3    3    0    0 -0.49317426981E+00 -0.13737320515E+03 -0.32688039953E+03  0.35457805071E+03  0.17770000000E+01 0. -1.
         15    1    3    3    0    0 -0.51679668261E+02 -0.38117306408E+02 -0.10080338830E+03  0.11953325053E+03  0.17770000000E+01 0.  1.
</event>
<event>
 7    1  0.3234965E-006  0.3166766E+03  0.7546771E-02  0.9940751E-01
        -11   -1    0    0    0    0  0.00000000000E+00  0.00000000000E+00  0.50000000000E+03  0.50000000000E+03  0.00000000000E+00 0.  1.
         11   -1    0    0    0    0 -0.00000000000E+00 -0.00000000000E+00 -0.50000000000E+03  0.50000000000E+03  0.00000000000E+00 0. -1.
         23    2    1    2    0    0 -0.16028047873E+03  0.30153579737E+03 -0.93763874141E+02  0.36944726855E+03  0.10528984368E+03 0.  0.
        -11    1    1    2    0    0 -0.87799141135E+01 -0.11305777225E+03  0.28924557194E+03  0.31068013719E+03  0.00000000000E+00 0.  1.
         11    1    1    2    0    0  0.16906039285E+03 -0.18847802513E+03 -0.19548169780E+03  0.31987259426E+03  0.00000000000E+00 0. -1.
        -15    1    3    3    0    0 -0.29039733969E+02  0.69844273175E+02  0.22427337173E+02  0.78915599383E+02  0.17770000000E+01 0.  1.
         15    1    3    3    0    0 -0.13124074477E+03  0.23169152420E+03 -0.11619121131E+03  0.29053166917E+03  0.17770000000E+01 0. -1.
</event>
<event>
 7    1  0.3234965E-006  0.3428279E+03  0.7546771E-02  0.9842263E-01
        -11   -1    0    0    0    0  0.00000000000E+00  0.00000000000E+00  0.50000000000E+03  0.50000000000E+03  0.00000000000E+00 0.  1.
         11   -1    0    0    0    0 -0.00000000000E+00 -0.00000000000E+00 -0.50000000000E+03  0.50000000000E+03  0.00000000000E+00 0. -1.
         23    2    1    2    0    0  0.21657015899E+03  0.17231617341E+03 -0.92448092765E+02  0.30799792078E+03  0.98592961043E+02 0.  0.
        -11    1    1    2    0    0 -0.13306830511E+03 -0.17586607085E+03  0.35419195298E+03  0.41723852681E+03  0.00000000000E+00 0.  1.
         11    1    1    2    0    0 -0.83501853872E+02  0.35498974434E+01 -0.26174386021E+03  0.27476355241E+03  0.00000000000E+00 0. -1.
        -15    1    3    3    0    0  0.66437721084E+02  0.39399901307E+01 -0.77550367160E+01  0.67028297222E+02  0.17770000000E+01 0.  1.
         15    1    3    3    0    0  0.15013243790E+03  0.16837618328E+03 -0.84693056049E+02  0.24096962356E+03  0.17770000000E+01 0. -1.
</event>
<event>
 7    1  0.3234965E-006  0.4202432E+03  0.7546771E-02  0.9598410E-01
        -11   -1    0    0    0    0  0.00000000000E+00  0.00000000000E+00  0.50000000000E+03  0.50000000000E+03  0.00000000000E+00 0. -1.
         11   -1    0    0    0    0 -0.00000000000E+00 -0.00000000000E+00 -0.50000000000E+03  0.50000000000E+03  0.00000000000E+00 0.  1.
         23    2    1    2    0    0 -0.59600533306E+02  0.38060194995E+02 -0.94708869688E+02  0.15124336799E+03  0.94360925964E+02 0.  0.
        -11    1    1    2    0    0 -0.17731071939E+03 -0.21006916158E+03  0.36048755585E+03  0.45334249942E+03  0.00000000000E+00 0. -1.
         11    1    1    2    0    0  0.23691125269E+03  0.17200896659E+03 -0.26577868616E+03  0.39541413260E+03  0.00000000000E+00 0.  1.
        -15    1    3    3    0    0 -0.47891819521E+02  0.65531756218E+02 -0.43935033751E+02  0.92311875562E+02  0.17770000000E+01 0. -1.
         15    1    3    3    0    0 -0.11708713786E+02 -0.27471561224E+02 -0.50773835937E+02  0.58931492424E+02  0.17770000000E+01 0.  1.
</event>
<event>
 7    1  0.3234965E-006  0.5129915E+03  0.7546771E-02  0.9371200E-01
        -11   -1    0    0    0    0  0.00000000000E+00  0.00000000000E+00  0.50000000000E+03  0.50000000000E+03  0.00000000000E+00 0.  1.
         11   -1    0    0    0    0 -0.00000000000E+00 -0.00000000000E+00 -0.50000000000E+03  0.50000000000E+03  0.00000000000E+00 0. -1.
         23    2    1    2    0    0 -0.59511583588E+02  0.44366102220E+02  0.34216176857E+03  0.36173713355E+03  0.90934582560E+02 0.  0.
        -11    1    1    2    0    0 -0.51571762874E+02 -0.53036026395E+02  0.13192958155E+03  0.15125435964E+03  0.00000000000E+00 0.  1.
         11    1    1    2    0    0  0.11108334646E+03  0.86699241751E+01 -0.47409135012E+03  0.48700850681E+03  0.00000000000E+00 0. -1.
        -15    1    3    3    0    0 -0.49129316853E+02  0.71470634158E+02  0.22842198532E+03  0.24433890895E+03  0.17770000000E+01 0.  1.
         15    1    3    3    0    0 -0.10382266735E+02 -0.27104531939E+02  0.11373978326E+03  0.11739822460E+03  0.17770000000E+01 0. -1.
</event>
<event>
 7    1  0.3234965E-006  0.3870118E+03  0.7546771E-02  0.9695575E-01
        -11   -1    0    0    0    0  0.00000000000E+00  0.00000000000E+00  0.50000000000E+03  0.50000000000E+03  0.00000000000E+00 0. -1.
         11   -1    0    0    0    0 -0.00000000000E+00 -0.00000000000E+00 -0.50000000000E+03  0.50000000000E+03  0.00000000000E+00 0. -1.
         23    2    1    2    0    0 -0.51301509659E+02  0.13378810478E+02  0.16876901703E+03  0.20601869732E+03  0.10559301622E+03 0.  0.
        -11    1    1    2    0    0  0.21689930212E+02 -0.35015159816E+03 -0.26819279074E+03  0.44159253591E+03  0.00000000000E+00 0. -1.
         11    1    1    2    0    0  0.29611579448E+02  0.33677278769E+03  0.99423773716E+02  0.35238876677E+03  0.00000000000E+00 0. -1.
        -15    1    3    3    0    0 -0.83925291585E+02  0.37104784447E+01  0.12293696088E+03  0.14890895305E+03  0.17770000000E+01 0. -1.
         15    1    3    3    0    0  0.32623781925E+02  0.96683320333E+01  0.45832056144E+02  0.57109744272E+02  0.17770000000E+01 0.  1.
</event>
<event>
 7    1  0.3234965E-006  0.3708451E+03  0.7546771E-02  0.9746697E-01
        -11   -1    0    0    0    0  0.00000000000E+00  0.00000000000E+00  0.50000000000E+03  0.50000000000E+03  0.00000000000E+00 0.  1.
         11   -1    0    0    0    0 -0.00000000000E+00 -0.00000000000E+00 -0.50000000000E+03  0.50000000000E+03  0.00000000000E+00 0. -1.
         23    2    1    2    0    0  0.65177771260E+02  0.20012070949E+03  0.40093360272E+02  0.22798424803E+03  0.77928810966E+02 0.  0.
        -11    1    1    2    0    0 -0.15388642725E+02 -0.92016988589E+02  0.35101361168E+03  0.36320034705E+03  0.00000000000E+00 0.  1.
         11    1    1    2    0    0 -0.49789128535E+02 -0.10810372090E+03 -0.39110697195E+03  0.40881540492E+03  0.00000000000E+00 0. -1.
        -15    1    3    3    0    0  0.75839697534E+02  0.15361833849E+03  0.10149428065E+02  0.17162873379E+03  0.17770000000E+01 0. -1.
         15    1    3    3    0    0 -0.10661926274E+02  0.46502370996E+02  0.29943932207E+02  0.56355514238E+02  0.17770000000E+01 0.  1.
</event>
<event>
 7    1  0.3234965E-006  0.4645364E+03  0.7546771E-02  0.9482857E-01
        -11   -1    0    0    0    0  0.00000000000E+00  0.00000000000E+00  0.50000000000E+03  0.50000000000E+03  0.00000000000E+00 0.  1.
         11   -1    0    0    0    0 -0.00000000000E+00 -0.00000000000E+00 -0.50000000000E+03  0.50000000000E+03  0.00000000000E+00 0. -1.
         23    2    1    2    0    0 -0.54505292073E+02  0.24054155579E+03 -0.40015885003E+03  0.48350892702E+03  0.11323740693E+03 0.  0.
        -11    1    1    2    0    0  0.63685869180E+02 -0.15972962198E+03  0.39974150729E+03  0.43515826399E+03  0.00000000000E+00 0.  1.
         11    1    1    2    0    0 -0.91805771068E+01 -0.80811933811E+02  0.41734273871E+00  0.81332808984E+02  0.00000000000E+00 0. -1.
        -15    1    3    3    0    0 -0.56043827879E+02  0.37735647567E+02 -0.11858947057E+03  0.13649728935E+03  0.17770000000E+01 0.  1.
         15    1    3    3    0    0  0.15385358057E+01  0.20280590823E+03 -0.28156937946E+03  0.34701163768E+03  0.17770000000E+01 0. -1.
</event>
<event>
 7    1  0.3234965E-006  0.4141395E+03  0.7546771E-02  0.9615522E-01
        -11   -1    0    0    0    0  0.00000000000E+00  0.00000000000E+00  0.50000000000E+03  0.50000000000E+03  0.00000000000E+00 0.  1.
         11   -1    0    0    0    0 -0.00000000000E+00 -0.00000000000E+00 -0.50000000000E+03  0.50000000000E+03  0.00000000000E+00 0.  1.
         23    2    1    2    0    0 -0.11529522834E+03 -0.17340012213E+01 -0.42298209136E+03  0.44742054292E+03  0.89304513724E+02 0.  0.
        -11    1    1    2    0    0 -0.66460608172E+01  0.10150956488E+03  0.37399154155E+03  0.38757971443E+03  0.00000000000E+00 0.  1.
         11    1    1    2    0    0  0.12194128916E+03 -0.99775563657E+02  0.48990549814E+02  0.16499974265E+03  0.00000000000E+00 0.  1.
        -15    1    3    3    0    0 -0.94844258089E+02  0.29382416011E+02 -0.36672873630E+03  0.37993668343E+03  0.17770000000E+01 0.  1.
         15    1    3    3    0    0 -0.20450970251E+02 -0.31116417232E+02 -0.56253355067E+02  0.67483859484E+02  0.17770000000E+01 0. -1.
</event>
<event>
 6    1  0.3234965E-006  0.3550815E+03  0.7546771E-02  0.9799305E-01
        -11   -1    0    0    0    0  0.00000000000E+00  0.00000000000E+00  0.50000000000E+03  0.50000000000E+03  0.00000000000E+00 0.  1.
         11   -1    0    0    0    0 -0.00000000000E+00 -0.00000000000E+00 -0.50000000000E+03  0.50000000000E+03  0.00000000000E+00 0.  1.
        -11    1    1    2    0    0 -0.82168236527E+02  0.55679205391E+02  0.41975788929E+03  0.43133337296E+03  0.00000000000E+00 0.  1.
         11    1    1    2    0    0  0.11328629645E+03  0.10254381730E+03 -0.27177911722E+03  0.31178984587E+03  0.00000000000E+00 0.  1.
        -15    1    1    2    0    0 -0.12462045416E+02 -0.96728888611E+02 -0.22187325431E+01  0.97569774885E+02  0.17770000000E+01 0. -1.
         15    1    1    2    0    0 -0.18656014508E+02 -0.61494134075E+02 -0.14576003952E+03  0.15930700629E+03  0.17770000000E+01 0.  1.
</event>
<event>
 7    1  0.3234965E-006  0.5099119E+03  0.7546771E-02  0.9377900E-01
        -11   -1    0    0    0    0  0.00000000000E+00  0.00000000000E+00  0.50000000000E+03  0.50000000000E+03  0.00000000000E+00 0.  1.
         11   -1    0    0    0    0 -0.00000000000E+00 -0.00000000000E+00 -0.50000000000E+03  0.50000000000E+03  0.00000000000E+00 0. -1.
         23    2    1    2    0    0 -0.18850207340E+03 -0.33997648386E+02 -0.29489528527E+03  0.36318683606E+03  0.90843694569E+02 0.  0.
        -11    1    1    2    0    0  0.26616227243E+03 -0.98747036730E+01  0.41139575331E+03  0.49008808482E+03  0.00000000000E+00 0.  1.
         11    1    1    2    0    0 -0.77660199033E+02  0.43872352058E+02 -0.11650046804E+03  0.14672507912E+03  0.00000000000E+00 0. -1.
        -15    1    3    3    0    0 -0.10116073716E+03 -0.37660248755E+02 -0.90492399719E+02  0.14086809864E+03  0.17770000000E+01 0. -1.
         15    1    3    3    0    0 -0.87341336237E+02  0.36626003698E+01 -0.20440288555E+03  0.22231873742E+03  0.17770000000E+01 0.  1.
</event>
<event>
 7    1  0.3234965E-006  0.5267003E+03  0.7546771E-02  0.9341971E-01
        -11   -1    0    0    0    0  0.00000000000E+00  0.00000000000E+00  0.50000000000E+03  0.50000000000E+03  0.00000000000E+00 0.  1.
         11   -1    0    0    0    0 -0.00000000000E+00 -0.00000000000E+00 -0.50000000000E+03  0.50000000000E+03  0.00000000000E+00 0. -1.
         23    2    1    2    0    0 -0.13032637641E+02 -0.18099514872E+02 -0.37600484530E+03  0.38557574310E+03  0.82410969546E+02 0.  0.
        -11    1    1    2    0    0 -0.91090900816E+02 -0.18153549079E+02  0.46409647235E+03  0.47329973506E+03  0.00000000000E+00 0.  1.
         11    1    1    2    0    0  0.10412353846E+03  0.36253063951E+02 -0.88091627056E+02  0.14112452184E+03  0.00000000000E+00 0. -1.
        -15    1    3    3    0    0 -0.38349582799E+02 -0.36884251598E+02 -0.21401659919E+03  0.22053888767E+03  0.17770000000E+01 0. -1.
         15    1    3    3    0    0  0.25316945158E+02  0.18784736726E+02 -0.16198824611E+03  0.16503685543E+03  0.17770000000E+01 0.  1.
</event>
<event>
 7    1  0.3234965E-006  0.4343392E+03  0.7546771E-02  0.9560049E-01
        -11   -1    0    0    0    0  0.00000000000E+00  0.00000000000E+00  0.50000000000E+03  0.50000000000E+03  0.00000000000E+00 0.  1.
         11   -1    0    0    0    0 -0.00000000000E+00 -0.00000000000E+00 -0.50000000000E+03  0.50000000000E+03  0.00000000000E+00 0. -1.
         23    2    1    2    0    0 -0.17323453924E+02 -0.27705443447E+02 -0.40543703105E+03  0.41704013623E+03  0.92062997066E+02 0.  0.
        -11    1    1    2    0    0 -0.10626254813E+03 -0.85181750749E+00  0.43905990950E+03  0.45173671409E+03  0.00000000000E+00 0.  1.
         11    1    1    2    0    0  0.12358600205E+03  0.28557260954E+02 -0.33622878452E+02  0.13122314968E+03  0.00000000000E+00 0. -1.
        -15    1    3    3    0    0 -0.40911830890E+02 -0.48262612762E+02 -0.21805790782E+03  0.22705828897E+03  0.17770000000E+01 0.  1.
         15    1    3    3    0    0  0.23588376966E+02  0.20557169315E+02 -0.18737912322E+03  0.18998184726E+03  0.17770000000E+01 0. -1.
</event>
<event>
 7    1  0.4223153E-006  0.5081158E+03  0.7546771E-02  0.9381831E-01
        -11   -1    0    0    0    0  0.00000000000E+00  0.00000000000E+00  0.50000000000E+03  0.50000000000E+03  0.00000000000E+00 0. -1.
         11   -1    0    0    0    0 -0.00000000000E+00 -0.00000000000E+00 -0.50000000000E+03  0.50000000000E+03  0.00000000000E+00 0. -1.
         23    2    1    2    0    0  0.38022398175E+02  0.13088753715E+03  0.32988228407E+03  0.36372217801E+03  0.69958925692E+02 0.  0.
        -11    1    1    2    0    0 -0.29615003755E+02  0.11554170296E+02  0.14085089654E+03  0.14439363682E+03  0.00000000000E+00 0. -1.
         11    1    1    2    0    0 -0.84073944201E+01 -0.14244170744E+03 -0.47073318061E+03  0.49188418518E+03  0.00000000000E+00 0. -1.
        -15    1    3    3    0    0  0.25689919368E+02  0.69300671615E+01  0.83141074522E+02  0.87313193674E+02  0.17770000000E+01 0.  1.
         15    1    3    3    0    0  0.12332478807E+02  0.12395746999E+03  0.24674120955E+03  0.27640898433E+03  0.17770000000E+01 0. -1.
</event>
<event>
 7    1  0.3234965E-006  0.5134510E+03  0.7546771E-02  0.9370205E-01
        -11   -1    0    0    0    0  0.00000000000E+00  0.00000000000E+00  0.50000000000E+03  0.50000000000E+03  0.00000000000E+00 0. -1.
         11   -1    0    0    0    0 -0.00000000000E+00 -0.00000000000E+00 -0.50000000000E+03  0.50000000000E+03  0.00000000000E+00 0.  1.
         23    2    1    2    0    0 -0.76427334701E+02  0.39163373468E+02 -0.30035608856E+03  0.32469906724E+03  0.88548275099E+02 0.  0.
        -11    1    1    2    0    0  0.88363808720E+02  0.23900681919E+02  0.47786032062E+03  0.48654896086E+03  0.00000000000E+00 0. -1.
         11    1    1    2    0    0 -0.11936474019E+02 -0.63064055387E+02 -0.17750423206E+03  0.18875197190E+03  0.00000000000E+00 0.  1.
        -15    1    3    3    0    0 -0.49234794346E+02  0.59559104331E+02 -0.13224897995E+03  0.15318061989E+03  0.17770000000E+01 0.  1.
         15    1    3    3    0    0 -0.27192540356E+02 -0.20395730863E+02 -0.16810710861E+03  0.17151844736E+03  0.17770000000E+01 0. -1.
</event>
<event>
 7    1  0.3234965E-006  0.5156454E+03  0.7546771E-02  0.9365467E-01
        -11   -1    0    0    0    0  0.00000000000E+00  0.00000000000E+00  0.50000000000E+03  0.50000000000E+03  0.00000000000E+00 0. -1.
         11   -1    0    0    0    0 -0.00000000000E+00 -0.00000000000E+00 -0.50000000000E+03  0.50000000000E+03  0.00000000000E+00 0. -1.
         23    2    1    2    0    0 -0.13554546779E+01 -0.39629171185E+02 -0.16797674438E+03  0.19497604965E+03  0.90703719970E+02 0.  0.
        -11    1    1    2    0    0  0.10085930519E+03  0.31282015684E+02  0.47270308794E+03  0.48435459458E+03  0.00000000000E+00 0. -1.
         11    1    1    2    0    0 -0.99503850514E+02  0.83471555010E+01 -0.30472634355E+03  0.32066935577E+03  0.00000000000E+00 0. -1.
        -15    1    3    3    0    0  0.28769217157E+01 -0.55612845728E+02 -0.16935969672E+03  0.17828889447E+03  0.17770000000E+01 0.  1.
         15    1    3    3    0    0 -0.42323763937E+01  0.15983674543E+02  0.13829523361E+01  0.16687155180E+02  0.17770000000E+01 0. -1.
</event>
<event>
 7    1  0.3234965E-006  0.3685194E+03  0.7546771E-02  0.9754281E-01
        -11   -1    0    0    0    0  0.00000000000E+00  0.00000000000E+00  0.50000000000E+03  0.50000000000E+03  0.00000000000E+00 0.  1.
         11   -1    0    0    0    0 -0.00000000000E+00 -0.00000000000E+00 -0.50000000000E+03  0.50000000000E+03  0.00000000000E+00 0. -1.
         23    2    1    2    0    0  0.82667039543E+00 -0.78633567232E+02 -0.19839552497E+03  0.23268584454E+03  0.92725382937E+02 0.  0.
        -11    1    1    2    0    0  0.67404560301E+02 -0.12382594582E+03  0.42981916637E+03  0.45235025742E+03  0.00000000000E+00 0.  1.
         11    1    1    2    0    0 -0.68231230696E+02  0.20245951305E+03 -0.23142364141E+03  0.31496389804E+03  0.00000000000E+00 0. -1.
        -15    1    3    3    0    0 -0.40962768587E+02 -0.66287678978E+02 -0.12952860784E+03  0.15117150119E+03  0.17770000000E+01 0. -1.
         15    1    3    3    0    0  0.41789438982E+02 -0.12345888254E+02 -0.68866917127E+02  0.81514343344E+02  0.17770000000E+01 0.  1.
</event>
<event>
 7    1  0.3234965E-006  0.3247082E+03  0.7546771E-02  0.9909447E-01
        -11   -1    0    0    0    0  0.00000000000E+00  0.00000000000E+00  0.50000000000E+03  0.50000000000E+03  0.00000000000E+00 0.  1.
         11   -1    0    0    0    0 -0.00000000000E+00 -0.00000000000E+00 -0.50000000000E+03  0.50000000000E+03  0.00000000000E+00 0.  1.
         23    2    1    2    0    0 -0.20346962311E+03  0.12056843833E+03 -0.22650770138E+03  0.34034300957E+03  0.92687591011E+02 0.  0.
        -11    1    1    2    0    0 -0.59402124107E+02 -0.58731086008E+02  0.35207137635E+03  0.36184555664E+03  0.00000000000E+00 0.  1.
         11    1    1    2    0    0  0.26287174722E+03 -0.61837352322E+02 -0.12556367497E+03  0.29781143380E+03  0.00000000000E+00 0.  1.
        -15    1    3    3    0    0 -0.12429407335E+03  0.81575211229E+02 -0.19793790683E+03  0.24756030466E+03  0.17770000000E+01 0.  1.
         15    1    3    3    0    0 -0.79175549762E+02  0.38993227101E+02 -0.28569794554E+02  0.92782704906E+02  0.17770000000E+01 0. -1.
</event>
<event>
 7    1  0.3234965E-006  0.5232799E+03  0.7546771E-02  0.9349175E-01
        -11   -1    0    0    0    0  0.00000000000E+00  0.00000000000E+00  0.50000000000E+03  0.50000000000E+03  0.00000000000E+00 0. -1.
         11   -1    0    0    0    0 -0.00000000000E+00 -0.00000000000E+00 -0.50000000000E+03  0.50000000000E+03  0.00000000000E+00 0. -1.
         23    2    1    2    0    0  0.17682123977E+02  0.92468659611E+02 -0.34716420119E+03  0.37152824649E+03  0.92990025446E+02 0.  0.
        -11    1    1    2    0    0 -0.12177661095E+03 -0.70785918782E+02  0.45543590365E+03  0.47672009776E+03  0.00000000000E+00 0. -1.
         11    1    1    2    0    0  0.10409448697E+03 -0.21682740829E+02 -0.10827170247E+03  0.15175165575E+03  0.00000000000E+00 0. -1.
        -15    1    3    3    0    0 -0.71024383153E+01 -0.14540063643E+02 -0.96279655006E+02  0.97646237910E+02  0.17770000000E+01 0. -1.
         15    1    3    3    0    0  0.24784562293E+02  0.10700872325E+03 -0.25088454618E+03  0.27388200858E+03  0.17770000000E+01 0.  1.
</event>
<event>
 7    1  0.3234965E-006  0.4649037E+03  0.7546771E-02  0.9481957E-01
        -11   -1    0    0    0    0  0.00000000000E+00  0.00000000000E+00  0.50000000000E+03  0.50000000000E+03  0.00000000000E+00 0.  1.
         11   -1    0    0    0    0 -0.00000000000E+00 -0.00000000000E+00 -0.50000000000E+03  0.50000000000E+03  0.00000000000E+00 0.  1.
         23    2    1    2    0    0  0.66040362684E+02 -0.15502805525E+01 -0.42686667920E+03  0.44195566825E+03  0.93519612988E+02 0.  0.
        -11    1    1    2    0    0 -0.11039898889E+03 -0.46693572630E+02  0.46636595723E+03  0.48152407264E+03  0.00000000000E+00 0.  1.
         11    1    1    2    0    0  0.44358626210E+02  0.48243853183E+02 -0.39499278031E+02  0.76520259109E+02  0.00000000000E+00 0.  1.
        -15    1    3    3    0    0 -0.52557594519E+01 -0.33705113851E+02 -0.17173342517E+03  0.17509764349E+03  0.17770000000E+01 0. -1.
         15    1    3    3    0    0  0.71296122136E+02  0.32154833299E+02 -0.25513325403E+03  0.26685802475E+03  0.17770000000E+01 0.  1.
</event>
<event>
 7    1  0.3234965E-006  0.3635583E+03  0.7546771E-02  0.9770660E-01
        -11   -1    0    0    0    0  0.00000000000E+00  0.00000000000E+00  0.50000000000E+03  0.50000000000E+03  0.00000000000E+00 0.  1.
         11   -1    0    0    0    0 -0.00000000000E+00 -0.00000000000E+00 -0.50000000000E+03  0.50000000000E+03  0.00000000000E+00 0. -1.
         23    2    1    2    0    0  0.54609975305E+02 -0.18581359574E+03 -0.10816097087E+03  0.23979847193E+03  0.91080018414E+02 0.  0.
        -11    1    1    2    0    0 -0.50578869532E+02 -0.17371674210E+03  0.30175654917E+03  0.35184192970E+03  0.00000000000E+00 0.  1.
         11    1    1    2    0    0 -0.40311057733E+01  0.35953033784E+03 -0.19359557830E+03  0.40835959837E+03  0.00000000000E+00 0. -1.
        -15    1    3    3    0    0  0.81408979267E+01 -0.15863637545E+03 -0.68939642671E+02  0.17316929836E+03  0.17770000000E+01 0.  1.
         15    1    3    3    0    0  0.46469077378E+02 -0.27177220290E+02 -0.39221328201E+02  0.66629173565E+02  0.17770000000E+01 0. -1.
</event>
<event>
 7    1  0.3234965E-006  0.5083695E+03  0.7546771E-02  0.9381275E-01
        -11   -1    0    0    0    0  0.00000000000E+00  0.00000000000E+00  0.50000000000E+03  0.50000000000E+03  0.00000000000E+00 0. -1.
         11   -1    0    0    0    0 -0.00000000000E+00 -0.00000000000E+00 -0.50000000000E+03  0.50000000000E+03  0.00000000000E+00 0. -1.
         23    2    1    2    0    0  0.18188002968E+03  0.23162224413E+03 -0.38349284210E+03  0.49163045516E+03  0.88907453727E+02 0.  0.
        -11    1    1    2    0    0  0.64982662245E+01 -0.18103498752E+02  0.11635745119E+03  0.11793651080E+03  0.00000000000E+00 0. -1.
         11    1    1    2    0    0 -0.18837829590E+03 -0.21351874537E+03  0.26713539091E+03  0.39043303404E+03  0.00000000000E+00 0. -1.
        -15    1    3    3    0    0  0.15091171402E+03  0.15249548936E+03 -0.32115901468E+03  0.38623243020E+03  0.17770000000E+01 0. -1.
         15    1    3    3    0    0  0.30968315662E+02  0.79126754766E+02 -0.62333827426E+02  0.10539802496E+03  0.17770000000E+01 0.  1.
</event>
<event>
 7    1  0.4263156E-006  0.5074027E+03  0.7546771E-02  0.9383396E-01
        -11   -1    0    0    0    0  0.00000000000E+00  0.00000000000E+00  0.50000000000E+03  0.50000000000E+03  0.00000000000E+00 0.  1.
         11   -1    0    0    0    0 -0.00000000000E+00 -0.00000000000E+00 -0.50000000000E+03  0.50000000000E+03  0.00000000000E+00 0. -1.
         23    2    1    2    0    0 -0.65552974201E+02  0.26288040954E+02  0.28735874330E+03  0.30994139277E+03  0.92197429895E+02 0.  0.
        -11    1    1    2    0    0 -0.26265431126E+02  0.31776120007E+02  0.19310977841E+03  0.19746134100E+03  0.00000000000E+00 0.  1.
         11    1    1    2    0    0  0.91818405327E+02 -0.58064160961E+02 -0.48046852170E+03  0.49259726623E+03  0.00000000000E+00 0. -1.
        -15    1    3    3    0    0 -0.10216258791E+02  0.50181429265E+02  0.17595714493E+03  0.18326653368E+03  0.17770000000E+01 0.  1.
         15    1    3    3    0    0 -0.55336715410E+02 -0.23893388310E+02  0.11140159836E+03  0.12667485908E+03  0.17770000000E+01 0. -1.
</event>
<event>
 7    1  0.3234965E-006  0.3549521E+03  0.7546771E-02  0.9799749E-01
        -11   -1    0    0    0    0  0.00000000000E+00  0.00000000000E+00  0.50000000000E+03  0.50000000000E+03  0.00000000000E+00 0. -1.
         11   -1    0    0    0    0 -0.00000000000E+00 -0.00000000000E+00 -0.50000000000E+03  0.50000000000E+03  0.00000000000E+00 0.  1.
         23    2    1    2    0    0 -0.22089199861E+03  0.57522694624E+02 -0.21763925094E+03  0.32759852246E+03  0.88610456058E+02 0.  0.
        -11    1    1    2    0    0  0.19649136313E+03  0.17436282694E+03  0.32316367246E+03  0.41646849869E+03  0.00000000000E+00 0. -1.
         11    1    1    2    0    0  0.24400635480E+02 -0.23188552157E+03 -0.10552442152E+03  0.25593297885E+03  0.00000000000E+00 0.  1.
        -15    1    3    3    0    0 -0.15053995579E+03 -0.40195187887E+01 -0.14668751232E+03  0.21023515124E+03  0.17770000000E+01 0.  1.
         15    1    3    3    0    0 -0.70352042820E+02  0.61542213412E+02 -0.70951738622E+02  0.11736337122E+03  0.17770000000E+01 0. -1.
</event>
<event>
 7    1  0.3234965E-006  0.4337207E+03  0.7546771E-02  0.9561700E-01
        -11   -1    0    0    0    0  0.00000000000E+00  0.00000000000E+00  0.50000000000E+03  0.50000000000E+03  0.00000000000E+00 0.  1.
         11   -1    0    0    0    0 -0.00000000000E+00 -0.00000000000E+00 -0.50000000000E+03  0.50000000000E+03  0.00000000000E+00 0. -1.
         23    2    1    2    0    0  0.59751471749E+02  0.44339972540E+01 -0.38468615535E+03  0.39998879214E+03  0.91748008210E+02 0.  0.
        -11    1    1    2    0    0 -0.19897455293E+02  0.99044885033E+02  0.45673346136E+03  0.46777265066E+03  0.00000000000E+00 0.  1.
         11    1    1    2    0    0 -0.39854016456E+02 -0.10347888229E+03 -0.72047306008E+02  0.13223855720E+03  0.00000000000E+00 0. -1.
        -15    1    3    3    0    0  0.58167441220E+02 -0.35324498759E+02 -0.27480341590E+03  0.28311013148E+03  0.17770000000E+01 0. -1.
         15    1    3    3    0    0  0.15840305289E+01  0.39758496013E+02 -0.10988273945E+03  0.11687866066E+03  0.17770000000E+01 0.  1.
</event>
<event>
 7    1  0.3234965E-006  0.3388390E+03  0.7546771E-02  0.9856664E-01
        -11   -1    0    0    0    0  0.00000000000E+00  0.00000000000E+00  0.50000000000E+03  0.50000000000E+03  0.00000000000E+00 0. -1.
         11   -1    0    0    0    0 -0.00000000000E+00 -0.00000000000E+00 -0.50000000000E+03  0.50000000000E+03  0.00000000000E+00 0. -1.
         23    2    1    2    0    0  0.24371732672E+02  0.22698532524E+02  0.26650275171E+03  0.28409366468E+03  0.92608255071E+02 0.  0.
        -11    1    1    2    0    0 -0.19052329514E+03 -0.17242477533E+03  0.10877268722E+03  0.27903570852E+03  0.00000000000E+00 0. -1.
         11    1    1    2    0    0  0.16615156247E+03  0.14972624281E+03 -0.37527543894E+03  0.43687062681E+03  0.00000000000E+00 0. -1.
        -15    1    3    3    0    0 -0.33127736258E+02 -0.43694209492E+01  0.70510534098E+02  0.78047625824E+02  0.17770000000E+01 0.  1.
         15    1    3    3    0    0  0.57499468930E+02  0.27067953473E+02  0.19599221762E+03  0.20604603885E+03  0.17770000000E+01 0. -1.
</event>
<event>
 6    1  0.5011892E-006  0.3984581E+03  0.7546771E-02  0.9660968E-01
        -11   -1    0    0    0    0  0.00000000000E+00  0.00000000000E+00  0.50000000000E+03  0.50000000000E+03  0.00000000000E+00 0.  1.
         11   -1    0    0    0    0 -0.00000000000E+00 -0.00000000000E+00 -0.50000000000E+03  0.50000000000E+03  0.00000000000E+00 0.  1.
        -11    1    1    2    0    0  0.28349608202E+02  0.59079973002E+02  0.39178438327E+03  0.39722681993E+03  0.00000000000E+00 0.  1.
         11    1    1    2    0    0 -0.12140626940E+03  0.21721276953E+02 -0.39013341089E+03  0.40916423893E+03  0.00000000000E+00 0.  1.
        -15    1    1    2    0    0  0.96297325873E+02  0.78215771183E-01  0.37898345688E+02  0.10350180396E+03  0.17770000000E+01 0.  1.
         15    1    1    2    0    0 -0.32406646738E+01 -0.80879465725E+02 -0.39549318065E+02  0.90107137186E+02  0.17770000000E+01 0. -1.
</event>
<event>
 7    1  0.3234965E-006  0.5317780E+03  0.7546771E-02  0.9331383E-01
        -11   -1    0    0    0    0  0.00000000000E+00  0.00000000000E+00  0.50000000000E+03  0.50000000000E+03  0.00000000000E+00 0. -1.
         11   -1    0    0    0    0 -0.00000000000E+00 -0.00000000000E+00 -0.50000000000E+03  0.50000000000E+03  0.00000000000E+00 0. -1.
         23    2    1    2    0    0  0.15416126345E+03 -0.17020937370E+02 -0.19845548490E+03  0.26781086147E+03  0.91009178553E+02 0.  0.
        -11    1    1    2    0    0 -0.15019073233E+03 -0.11066827296E+03  0.42944976851E+03  0.46822198410E+03  0.00000000000E+00 0. -1.
         11    1    1    2    0    0 -0.39705311146E+01  0.12768921033E+03 -0.23099428361E+03  0.26396715442E+03  0.00000000000E+00 0. -1.
        -15    1    3    3    0    0  0.13116778420E+03 -0.29055645417E+02 -0.20089432457E+03  0.24168348209E+03  0.17770000000E+01 0.  1.
         15    1    3    3    0    0  0.22993479248E+02  0.12034708047E+02  0.24388396669E+01  0.26127379387E+02  0.17770000000E+01 0. -1.
</event>
<event>
 7    1  0.3234965E-006  0.5131132E+03  0.7546771E-02  0.9370937E-01
        -11   -1    0    0    0    0  0.00000000000E+00  0.00000000000E+00  0.50000000000E+03  0.50000000000E+03  0.00000000000E+00 0.  1.
         11   -1    0    0    0    0 -0.00000000000E+00 -0.00000000000E+00 -0.50000000000E+03  0.50000000000E+03  0.00000000000E+00 0. -1.
         23    2    1    2    0    0  0.16318942613E+02  0.18766671195E+03  0.34258441218E+03  0.40153954536E+03  0.91568686538E+02 0.  0.
        -11    1    1    2    0    0  0.30322952138E+02 -0.70339319090E+01  0.10714342573E+03  0.11157361382E+03  0.00000000000E+00 0.  1.
         11    1    1    2    0    0 -0.46641894751E+02 -0.18063278004E+03 -0.44972783791E+03  0.48688684082E+03  0.00000000000E+00 0. -1.
        -15    1    3    3    0    0  0.13903266091E+02  0.63682026421E+02  0.21044626987E+03  0.22031679811E+03  0.17770000000E+01 0.  1.
         15    1    3    3    0    0  0.24156765228E+01  0.12398468553E+03  0.13213814231E+03  0.18122274725E+03  0.17770000000E+01 0. -1.
</event>
<event>
 7    1  0.3234965E-006  0.4363673E+03  0.7546771E-02  0.9554658E-01
        -11   -1    0    0    0    0  0.00000000000E+00  0.00000000000E+00  0.50000000000E+03  0.50000000000E+03  0.00000000000E+00 0.  1.
         11   -1    0    0    0    0 -0.00000000000E+00 -0.00000000000E+00 -0.50000000000E+03  0.50000000000E+03  0.00000000000E+00 0. -1.
         23    2    1    2    0    0 -0.24913345885E+02 -0.82079360376E+02  0.10362202578E+02  0.12299895390E+03  0.87542396673E+02 0.  0.
        -11    1    1    2    0    0  0.97175442878E+02  0.70405613398E+02  0.42187489592E+03  0.43860967261E+03  0.00000000000E+00 0.  1.
         11    1    1    2    0    0 -0.72262096993E+02  0.11673746978E+02 -0.43223709850E+03  0.43839137349E+03  0.00000000000E+00 0. -1.
        -15    1    3    3    0    0 -0.26240935122E+02 -0.39006613661E+02 -0.36326378249E+02  0.59437917789E+02  0.17770000000E+01 0.  1.
         15    1    3    3    0    0  0.13275892376E+01 -0.43072746715E+02  0.46688580827E+02  0.63561036110E+02  0.17770000000E+01 0. -1.
</event>
<event>
 7    1  0.3234965E-006  0.4573121E+03  0.7546771E-02  0.9500744E-01
        -11   -1    0    0    0    0  0.00000000000E+00  0.00000000000E+00  0.50000000000E+03  0.50000000000E+03  0.00000000000E+00 0.  1.
         11   -1    0    0    0    0 -0.00000000000E+00 -0.00000000000E+00 -0.50000000000E+03  0.50000000000E+03  0.00000000000E+00 0. -1.
         23    2    1    2    0    0 -0.49609351518E+02  0.43626721856E+02 -0.45206109737E+03  0.46599516019E+03  0.91803458258E+02 0.  0.
        -11    1    1    2    0    0 -0.22359216840E+02 -0.94567391163E+02  0.43303298746E+03  0.44380231441E+03  0.00000000000E+00 0.  1.
         11    1    1    2    0    0  0.71968568358E+02  0.50940669307E+02  0.19028109919E+02  0.90202525398E+02  0.00000000000E+00 0. -1.
        -15    1    3    3    0    0  0.26837532120E+02  0.10137973221E+02 -0.92108190706E+02  0.96488901721E+02  0.17770000000E+01 0.  1.
         15    1    3    3    0    0 -0.76446883638E+02  0.33488748635E+02 -0.35995290667E+03  0.36950625847E+03  0.17770000000E+01 0. -1.
</event>
<event>
 7    1  0.3234965E-006  0.4412578E+03  0.7546771E-02  0.9541785E-01
        -11   -1    0    0    0    0  0.00000000000E+00  0.00000000000E+00  0.50000000000E+03  0.50000000000E+03  0.00000000000E+00 0.  1.
         11   -1    0    0    0    0 -0.00000000000E+00 -0.00000000000E+00 -0.50000000000E+03  0.50000000000E+03  0.00000000000E+00 0. -1.
         23    2    1    2    0    0 -0.49902064736E+02 -0.23099846831E+02 -0.41558819997E+03  0.42905094088E+03  0.91363772507E+02 0.  0.
        -11    1    1    2    0    0 -0.63395446974E+02  0.43922559771E+02  0.44534406954E+03  0.45197291316E+03  0.00000000000E+00 0.  1.
         11    1    1    2    0    0  0.11329751171E+03 -0.20822712939E+02 -0.29755869577E+02  0.11897614596E+03  0.00000000000E+00 0. -1.
        -15    1    3    3    0    0 -0.21714920439E+02  0.29275580140E+02 -0.76225825956E+02  0.84511133195E+02  0.17770000000E+01 0. -1.
         15    1    3    3    0    0 -0.28187144297E+02 -0.52375426971E+02 -0.33936237401E+03  0.34453980768E+03  0.17770000000E+01 0. -1.
</event>
<event>
 7    1  0.3234965E-006  0.4726886E+03  0.7546771E-02  0.9463084E-01
        -11   -1    0    0    0    0  0.00000000000E+00  0.00000000000E+00  0.50000000000E+03  0.50000000000E+03  0.00000000000E+00 0. -1.
         11   -1    0    0    0    0 -0.00000000000E+00 -0.00000000000E+00 -0.50000000000E+03  0.50000000000E+03  0.00000000000E+00 0.  1.
         23    2    1    2    0    0 -0.74145544544E+02  0.57864400591E+02 -0.44786094589E+03  0.46757428405E+03  0.95918890835E+02 0.  0.
        -11    1    1    2    0    0  0.94924128508E+02 -0.11662796991E+03  0.44534305559E+03  0.47004586021E+03  0.00000000000E+00 0. -1.
         11    1    1    2    0    0 -0.20778583964E+02  0.58763569322E+02  0.25178902970E+01  0.62379855743E+02  0.00000000000E+00 0.  1.
        -15    1    3    3    0    0  0.13514372632E+02  0.42439894277E+02 -0.17332085098E+03  0.17896105165E+03  0.17770000000E+01 0. -1.
         15    1    3    3    0    0 -0.87659917176E+02  0.15424506315E+02 -0.27454009490E+03  0.28861323239E+03  0.17770000000E+01 0.  1.
</event>
<event>
 6    1  0.3234965E-006  0.3913389E+03  0.7546771E-02  0.9682344E-01
        -11   -1    0    0    0    0  0.00000000000E+00  0.00000000000E+00  0.50000000000E+03  0.50000000000E+03  0.00000000000E+00 0.  1.
         11   -1    0    0    0    0 -0.00000000000E+00 -0.00000000000E+00 -0.50000000000E+03  0.50000000000E+03  0.00000000000E+00 0. -1.
        -11    1    1    2    0    0  0.28560258879E+02  0.74152052338E+02  0.35453462600E+03  0.36333045054E+03  0.00000000000E+00 0.  1.
         11    1    1    2    0    0 -0.12113921884E+03 -0.53629666978E+02 -0.40563988285E+03  0.42672539891E+03  0.00000000000E+00 0. -1.
        -15    1    1    2    0    0  0.14330899734E+03  0.63225994485E+01  0.51778726878E+02  0.15251766543E+03  0.17770000000E+01 0.  1.
         15    1    1    2    0    0 -0.50730037381E+02 -0.26844984809E+02 -0.67347003363E+00  0.57426485118E+02  0.17770000000E+01 0. -1.
</event>
<event>
 7    1  0.3234965E-006  0.3492509E+03  0.7546771E-02  0.9819510E-01
        -11   -1    0    0    0    0  0.00000000000E+00  0.00000000000E+00  0.50000000000E+03  0.50000000000E+03  0.00000000000E+00 0.  1.
         11   -1    0    0    0    0 -0.00000000000E+00 -0.00000000000E+00 -0.50000000000E+03  0.50000000000E+03  0.00000000000E+00 0. -1.
         23    2    1    2    0    0  0.57245554093E+01  0.22815127102E+02 -0.29866358986E+03  0.31290892057E+03  0.90325810862E+02 0.  0.
        -11    1    1    2    0    0 -0.26154317140E+03 -0.53929873979E+01 -0.37528470473E+02  0.26427693981E+03  0.00000000000E+00 0. -1.
         11    1    1    2    0    0  0.25581861599E+03 -0.17422139704E+02  0.33619206033E+03  0.42281413962E+03  0.00000000000E+00 0.  1.
        -15    1    3    3    0    0 -0.40759041444E+02  0.22971038679E+02 -0.14934486811E+03  0.15651202969E+03  0.17770000000E+01 0. -1.
         15    1    3    3    0    0  0.46483596853E+02 -0.15591157759E+00 -0.14931872174E+03  0.15639689088E+03  0.17770000000E+01 0.  1.
</event>
<event>
 7    1  0.3234965E-006  0.3424970E+03  0.7546771E-02  0.9843450E-01
        -11   -1    0    0    0    0  0.00000000000E+00  0.00000000000E+00  0.50000000000E+03  0.50000000000E+03  0.00000000000E+00 0.  1.
         11   -1    0    0    0    0 -0.00000000000E+00 -0.00000000000E+00 -0.50000000000E+03  0.50000000000E+03  0.00000000000E+00 0.  1.
         23    2    1    2    0    0 -0.50924641575E+02 -0.11654975152E+03 -0.41757615680E+03  0.44534829674E+03  0.88250184049E+02 0.  0.
        -11    1    1    2    0    0  0.63573362984E+02 -0.10476230642E+03  0.24422734077E+03  0.27324660530E+03  0.00000000000E+00 0.  1.
         11    1    1    2    0    0 -0.12648721410E+02  0.22131205793E+03  0.17334881603E+03  0.28140509796E+03  0.00000000000E+00 0.  1.
        -15    1    3    3    0    0 -0.37933165954E+02 -0.12133764989E+03 -0.41041919211E+03  0.42966128676E+03  0.17770000000E+01 0.  1.
         15    1    3    3    0    0 -0.12991475621E+02  0.47878983678E+01 -0.71569646891E+01  0.15687009981E+02  0.17770000000E+01 0. -1.
</event>
<event>
 7    1  0.3234965E-006  0.5391817E+03  0.7546771E-02  0.9316168E-01
        -11   -1    0    0    0    0  0.00000000000E+00  0.00000000000E+00  0.50000000000E+03  0.50000000000E+03  0.00000000000E+00 0. -1.
         11   -1    0    0    0    0 -0.00000000000E+00 -0.00000000000E+00 -0.50000000000E+03  0.50000000000E+03  0.00000000000E+00 0.  1.
         23    2    1    2    0    0 -0.18690878452E+02  0.21295585446E+03  0.24148906839E+03  0.33548227018E+03  0.92367952058E+02 0.  0.
        -11    1    1    2    0    0  0.19596005221E+02 -0.60709874794E+02  0.19345218142E+03  0.20369938344E+03  0.00000000000E+00 0. -1.
         11    1    1    2    0    0 -0.90512676902E+00 -0.15224597967E+03 -0.43494124981E+03  0.46081834638E+03  0.00000000000E+00 0.  1.
        -15    1    3    3    0    0 -0.45545295550E+02  0.81807547102E+02  0.13556352741E+03  0.16476491254E+03  0.17770000000E+01 0. -1.
         15    1    3    3    0    0  0.26854417098E+02  0.13114830736E+03  0.10592554097E+03  0.17071735764E+03  0.17770000000E+01 0.  1.
</event>
<event>
 7    1  0.3234965E-006  0.5318201E+03  0.7546771E-02  0.9331296E-01
        -11   -1    0    0    0    0  0.00000000000E+00  0.00000000000E+00  0.50000000000E+03  0.50000000000E+03  0.00000000000E+00 0. -1.
         11   -1    0    0    0    0 -0.00000000000E+00 -0.00000000000E+00 -0.50000000000E+03  0.50000000000E+03  0.00000000000E+00 0.  1.
         23    2    1    2    0    0 -0.12879365135E+02 -0.32687507903E+02 -0.13271416230E+03  0.16391790776E+03  0.89563834153E+02 0.  0.
        -11    1    1    2    0    0  0.31507629128E+03  0.67972526699E+02  0.33955715838E+03  0.46817987731E+03  0.00000000000E+00 0. -1.
         11    1    1    2    0    0 -0.30219692615E+03 -0.35285018796E+02 -0.20684299607E+03  0.36790221493E+03  0.00000000000E+00 0.  1.
        -15    1    3    3    0    0 -0.32943429797E+02 -0.29518685234E+02 -0.13621594642E+03  0.14322906176E+03  0.17770000000E+01 0.  1.
         15    1    3    3    0    0  0.20064064662E+02 -0.31688226695E+01  0.35017841119E+01  0.20688846000E+02  0.17770000000E+01 0. -1.
</event>
<event>
 7    1  0.3234965E-006  0.5300074E+03  0.7546771E-02  0.9335061E-01
        -11   -1    0    0    0    0  0.00000000000E+00  0.00000000000E+00  0.50000000000E+03  0.50000000000E+03  0.00000000000E+00 0. -1.
         11   -1    0    0    0    0 -0.00000000000E+00 -0.00000000000E+00 -0.50000000000E+03  0.50000000000E+03  0.00000000000E+00 0. -1.
         23    2    1    2    0    0 -0.12274902900E+03 -0.87598843083E+02 -0.43597882798E+03  0.46999255347E+03  0.89858669281E+02 0.  0.
        -11    1    1    2    0    0  0.37770132034E+02 -0.83964674620E+02  0.23519529949E+03  0.25257370877E+03  0.00000000000E+00 0. -1.
         11    1    1    2    0    0  0.84978896969E+02  0.17156351770E+03  0.20078352849E+03  0.27743373776E+03  0.00000000000E+00 0. -1.
        -15    1    3    3    0    0 -0.28539433169E+02 -0.34472802389E+01 -0.19518908171E+02  0.34792649968E+02  0.17770000000E+01 0.  1.
         15    1    3    3    0    0 -0.94209595834E+02 -0.84151562844E+02 -0.41645991981E+03  0.43519990350E+03  0.17770000000E+01 0. -1.
</event>
<event>
 7    1  0.3234965E-006  0.5229162E+03  0.7546771E-02  0.9349944E-01
        -11   -1    0    0    0    0  0.00000000000E+00  0.00000000000E+00  0.50000000000E+03  0.50000000000E+03  0.00000000000E+00 0.  1.
         11   -1    0    0    0    0 -0.00000000000E+00 -0.00000000000E+00 -0.50000000000E+03  0.50000000000E+03  0.00000000000E+00 0.  1.
         23    2    1    2    0    0  0.23505820887E+02 -0.20472150977E+02  0.13137448134E+03  0.16326777027E+03  0.91790401901E+02 0.  0.
        -11    1    1    2    0    0 -0.54147550782E+02  0.12328287661E+03  0.33349113011E+03  0.35964838214E+03  0.00000000000E+00 0.  1.
         11    1    1    2    0    0  0.30641729895E+02 -0.10281072563E+03 -0.46486561145E+03  0.47708384758E+03  0.00000000000E+00 0.  1.
        -15    1    3    3    0    0 -0.40325133718E+01 -0.47535915596E+02  0.10804254979E+03  0.11811974742E+03  0.17770000000E+01 0. -1.
         15    1    3    3    0    0  0.27538334259E+02  0.27063764619E+02  0.23331931554E+02  0.45148022860E+02  0.17770000000E+01 0.  1.
</event>
<event>
 7    1  0.3234965E-006  0.4697514E+03  0.7546771E-02  0.9470159E-01
        -11   -1    0    0    0    0  0.00000000000E+00  0.00000000000E+00  0.50000000000E+03  0.50000000000E+03  0.00000000000E+00 0.  1.
         11   -1    0    0    0    0 -0.00000000000E+00 -0.00000000000E+00 -0.50000000000E+03  0.50000000000E+03  0.00000000000E+00 0. -1.
         23    2    1    2    0    0 -0.55844660107E+02  0.18512932501E+02 -0.43872831222E+03  0.45189968299E+03  0.90936443814E+02 0.  0.
        -11    1    1    2    0    0  0.11376368596E+03 -0.38324752587E+02  0.46590713739E+03  0.48112412491E+03  0.00000000000E+00 0.  1.
         11    1    1    2    0    0 -0.57919025850E+02  0.19811820086E+02 -0.27178825171E+02  0.66976192100E+02  0.00000000000E+00 0. -1.
        -15    1    3    3    0    0 -0.31533153935E+02 -0.34873239433E+02 -0.14769234290E+03  0.15500538219E+03  0.17770000000E+01 0.  1.
         15    1    3    3    0    0 -0.24311506173E+02  0.53386171934E+02 -0.29103596931E+03  0.29689430080E+03  0.17770000000E+01 0. -1.
</event>
<event>
 7    1  0.3234965E-006  0.5191829E+03  0.7546771E-02  0.9357881E-01
        -11   -1    0    0    0    0  0.00000000000E+00  0.00000000000E+00  0.50000000000E+03  0.50000000000E+03  0.00000000000E+00 0.  1.
         11   -1    0    0    0    0 -0.00000000000E+00 -0.00000000000E+00 -0.50000000000E+03  0.50000000000E+03  0.00000000000E+00 0.  1.
         23    2    1    2    0    0 -0.17780115134E+03 -0.20357344492E+01  0.43757352866E+03  0.48081710301E+03  0.89983887071E+02 0.  0.
        -11    1    1    2    0    0 -0.10419686604E+02 -0.75107537054E+02 -0.11054148271E+03  0.13404898877E+03  0.00000000000E+00 0.  1.
         11    1    1    2    0    0  0.18822083795E+03  0.77143271503E+02 -0.32703204595E+03  0.38513390821E+03  0.00000000000E+00 0.  1.
        -15    1    3    3    0    0 -0.79663207543E+02 -0.42150091395E+02  0.24375650527E+03  0.25989083945E+03  0.17770000000E+01 0. -1.
         15    1    3    3    0    0 -0.98137943800E+02  0.40114356946E+02  0.19381702339E+03  0.22092626357E+03  0.17770000000E+01 0.  1.
</event>
<event>
 7    1  0.3234965E-006  0.5149589E+03  0.7546771E-02  0.9366946E-01
        -11   -1    0    0    0    0  0.00000000000E+00  0.00000000000E+00  0.50000000000E+03  0.50000000000E+03  0.00000000000E+00 0.  1.
         11   -1    0    0    0    0 -0.00000000000E+00 -0.00000000000E+00 -0.50000000000E+03  0.50000000000E+03  0.00000000000E+00 0. -1.
         23    2    1    2    0    0 -0.93431212993E+02 -0.14373969941E+03 -0.32224103307E+03  0.37459820641E+03  0.84226124820E+02 0.  0.
        -11    1    1    2    0    0  0.43055206172E+02  0.21144718288E+03  0.43439752370E+03  0.48504110190E+03  0.00000000000E+00 0.  1.
         11    1    1    2    0    0  0.50376006821E+02 -0.67707483478E+02 -0.11215649063E+03  0.14036069170E+03  0.00000000000E+00 0. -1.
        -15    1    3    3    0    0 -0.10575365698E+03 -0.11515054138E+03 -0.23793134940E+03  0.28470681042E+03  0.17770000000E+01 0. -1.
         15    1    3    3    0    0  0.12322443985E+02 -0.28589158028E+02 -0.84309683674E+02  0.89891395988E+02  0.17770000000E+01 0.  1.
</event>
<event>
 7    1  0.3234965E-006  0.4470787E+03  0.7546771E-02  0.9526693E-01
        -11   -1    0    0    0    0  0.00000000000E+00  0.00000000000E+00  0.50000000000E+03  0.50000000000E+03  0.00000000000E+00 0.  1.
         11   -1    0    0    0    0 -0.00000000000E+00 -0.00000000000E+00 -0.50000000000E+03  0.50000000000E+03  0.00000000000E+00 0. -1.
         23    2    1    2    0    0 -0.10137199202E+02  0.46316008343E+02  0.22527906397E+02  0.10430311080E+03  0.90131553408E+02 0.  0.
        -11    1    1    2    0    0 -0.40168688905E+02 -0.21479539132E+03  0.39011934907E+03  0.44715063482E+03  0.00000000000E+00 0.  1.
         11    1    1    2    0    0  0.50305888107E+02  0.16847938298E+03 -0.41264725547E+03  0.44854625438E+03  0.00000000000E+00 0. -1.
        -15    1    3    3    0    0 -0.56236444066E+01  0.15736359467E+02  0.56141519670E+02  0.58602784452E+02  0.17770000000E+01 0.  1.
         15    1    3    3    0    0 -0.45135547957E+01  0.30579648876E+02 -0.33613613272E+02  0.45700326350E+02  0.17770000000E+01 0. -1.
</event>
<event>
 7    1  0.3234965E-006  0.4204940E+03  0.7546771E-02  0.9597713E-01
        -11   -1    0    0    0    0  0.00000000000E+00  0.00000000000E+00  0.50000000000E+03  0.50000000000E+03  0.00000000000E+00 0. -1.
         11   -1    0    0    0    0 -0.00000000000E+00 -0.00000000000E+00 -0.50000000000E+03  0.50000000000E+03  0.00000000000E+00 0.  1.
         23    2    1    2    0    0 -0.50300021250E+02  0.53901337920E+02 -0.39845994546E+03  0.41535459074E+03  0.91179282436E+02 0.  0.
        -11    1    1    2    0    0 -0.27019767756E+02  0.78062949503E+02  0.42190104421E+03  0.42991206431E+03  0.00000000000E+00 0. -1.
         11    1    1    2    0    0  0.77319789005E+02 -0.13196428742E+03 -0.23441098753E+02  0.15473334494E+03  0.00000000000E+00 0.  1.
        -15    1    3    3    0    0 -0.28733181331E+02 -0.21551912457E+02 -0.17072715526E+03  0.17447349344E+03  0.17770000000E+01 0. -1.
         15    1    3    3    0    0 -0.21566839918E+02  0.75453250377E+02 -0.22773279020E+03  0.24088109730E+03  0.17770000000E+01 0.  1.
</event>
<event>
 7    1  0.3234965E-006  0.5232373E+03  0.7546771E-02  0.9349265E-01
        -11   -1    0    0    0    0  0.00000000000E+00  0.00000000000E+00  0.50000000000E+03  0.50000000000E+03  0.00000000000E+00 0.  1.
         11   -1    0    0    0    0 -0.00000000000E+00 -0.00000000000E+00 -0.50000000000E+03  0.50000000000E+03  0.00000000000E+00 0.  1.
         23    2    1    2    0    0  0.17382661924E+03  0.10151763860E+02  0.35105581101E+03  0.40200964256E+03  0.89737497158E+02 0.  0.
        -11    1    1    2    0    0 -0.41739685002E+02  0.47582640072E+02  0.10339163160E+03  0.12122763062E+03  0.00000000000E+00 0.  1.
         11    1    1    2    0    0 -0.13208693424E+03 -0.57734403932E+02 -0.45444744261E+03  0.47676272683E+03  0.00000000000E+00 0.  1.
        -15    1    3    3    0    0  0.14790998525E+03  0.13854659915E+02  0.20250334723E+03  0.25115747790E+03  0.17770000000E+01 0.  1.
         15    1    3    3    0    0  0.25916633998E+02 -0.37028960547E+01  0.14855246378E+03  0.15085216466E+03  0.17770000000E+01 0. -1.
</event>
<event>
 7    1  0.3234965E-006  0.4274278E+03  0.7546771E-02  0.9578661E-01
        -11   -1    0    0    0    0  0.00000000000E+00  0.00000000000E+00  0.50000000000E+03  0.50000000000E+03  0.00000000000E+00 0. -1.
         11   -1    0    0    0    0 -0.00000000000E+00 -0.00000000000E+00 -0.50000000000E+03  0.50000000000E+03  0.00000000000E+00 0. -1.
         23    2    1    2    0    0 -0.18900539292E+03 -0.16342682322E+03 -0.37302378080E+03  0.45792364905E+03  0.90088635353E+02 0.  0.
        -11    1    1    2    0    0  0.22859453169E+03  0.21577396145E+03  0.24623030497E+03  0.39930342529E+03  0.00000000000E+00 0. -1.
         11    1    1    2    0    0 -0.39589138776E+02 -0.52347138228E+02  0.12679347583E+03  0.14277292566E+03  0.00000000000E+00 0. -1.
        -15    1    3    3    0    0 -0.13352618897E+03 -0.11365769703E+03 -0.18137243671E+03  0.25228244839E+03  0.17770000000E+01 0.  1.
         15    1    3    3    0    0 -0.55479203948E+02 -0.49769126185E+02 -0.19165134408E+03  0.20564120066E+03  0.17770000000E+01 0. -1.
</event>
<event>
 7    1  0.3234965E-006  0.4811137E+03  0.7546771E-02  0.9443090E-01
        -11   -1    0    0    0    0  0.00000000000E+00  0.00000000000E+00  0.50000000000E+03  0.50000000000E+03  0.00000000000E+00 0.  1.
         11   -1    0    0    0    0 -0.00000000000E+00 -0.00000000000E+00 -0.50000000000E+03  0.50000000000E+03  0.00000000000E+00 0. -1.
         23    2    1    2    0    0  0.36924860233E+02  0.11575838586E+03  0.44241014050E+03  0.46684742605E+03  0.86350087383E+02 0.  0.
        -11    1    1    2    0    0  0.12008976331E+02 -0.24628628524E+02  0.35122206198E+02  0.44546091004E+02  0.00000000000E+00 0.  1.
         11    1    1    2    0    0 -0.48933836564E+02 -0.91129757331E+02 -0.47753234670E+03  0.48860648295E+03  0.00000000000E+00 0. -1.
        -15    1    3    3    0    0 -0.25031417862E+02  0.23880040641E+02  0.67088840029E+02  0.75504293961E+02  0.17770000000E+01 0. -1.
         15    1    3    3    0    0  0.61956278095E+02  0.91878345215E+02  0.37532130047E+03  0.39134313209E+03  0.17770000000E+01 0.  1.
</event>
<event>
 7    1  0.3234965E-006  0.4377247E+03  0.7546771E-02  0.9551067E-01
        -11   -1    0    0    0    0  0.00000000000E+00  0.00000000000E+00  0.50000000000E+03  0.50000000000E+03  0.00000000000E+00 0.  1.
         11   -1    0    0    0    0 -0.00000000000E+00 -0.00000000000E+00 -0.50000000000E+03  0.50000000000E+03  0.00000000000E+00 0. -1.
         23    2    1    2    0    0 -0.12329621439E+01 -0.18388547360E+03 -0.35041250127E+03  0.40616336707E+03  0.91456941268E+02 0.  0.
        -11    1    1    2    0    0 -0.63563563801E+02 -0.10730735003E+03 -0.11006368434E+02  0.12520516826E+03  0.00000000000E+00 0. -1.
         11    1    1    2    0    0  0.64796525945E+02  0.29119282362E+03  0.36141886970E+03  0.46863146467E+03  0.00000000000E+00 0.  1.
        -15    1    3    3    0    0  0.29855352773E+02 -0.14469845194E+03 -0.30352894876E+03  0.33758252998E+03  0.17770000000E+01 0. -1.
         15    1    3    3    0    0 -0.31088314916E+02 -0.39187021654E+02 -0.46883552504E+02  0.68580837082E+02  0.17770000000E+01 0.  1.
</event>
<event>
 7    1  0.3234965E-006  0.5230659E+03  0.7546771E-02  0.9349627E-01
        -11   -1    0    0    0    0  0.00000000000E+00  0.00000000000E+00  0.50000000000E+03  0.50000000000E+03  0.00000000000E+00 0.  1.
         11   -1    0    0    0    0 -0.00000000000E+00 -0.00000000000E+00 -0.50000000000E+03  0.50000000000E+03  0.00000000000E+00 0. -1.
         23    2    1    2    0    0 -0.18827893539E+02 -0.32107001107E+02  0.59814336459E+02  0.11374894526E+03  0.89306878827E+02 0.  0.
        -11    1    1    2    0    0 -0.15308468606E+03 -0.71674551195E+02  0.37278435455E+03  0.40931691559E+03  0.00000000000E+00 0.  1.
         11    1    1    2    0    0  0.17191257960E+03  0.10378155230E+03 -0.43259869101E+03  0.47693413915E+03  0.00000000000E+00 0. -1.
        -15    1    3    3    0    0  0.14761666004E+01 -0.47876569846E+02  0.70992652140E+02  0.85658971480E+02  0.17770000000E+01 0. -1.
         15    1    3    3    0    0 -0.20304060139E+02  0.15769568739E+02 -0.11178315681E+02  0.28089973777E+02  0.17770000000E+01 0.  1.
</event>
<event>
 7    1  0.3234965E-006  0.5286691E+03  0.7546771E-02  0.9337851E-01
        -11   -1    0    0    0    0  0.00000000000E+00  0.00000000000E+00  0.50000000000E+03  0.50000000000E+03  0.00000000000E+00 0.  1.
         11   -1    0    0    0    0 -0.00000000000E+00 -0.00000000000E+00 -0.50000000000E+03  0.50000000000E+03  0.00000000000E+00 0.  1.
         23    2    1    2    0    0 -0.30855552862E+00 -0.31165934351E+02 -0.35764438384E+03  0.37070952787E+03  0.92437211593E+02 0.  0.
        -11    1    1    2    0    0 -0.11728846640E+03  0.84526007742E+02  0.44861071603E+03  0.47133088682E+03  0.00000000000E+00 0.  1.
         11    1    1    2    0    0  0.11759702193E+03 -0.53360073391E+02 -0.90966332190E+02  0.15795958531E+03  0.00000000000E+00 0.  1.
        -15    1    3    3    0    0  0.21733549344E+02  0.21248842301E+02 -0.55944910882E+02  0.63693416056E+02  0.17770000000E+01 0. -1.
         15    1    3    3    0    0 -0.22042104872E+02 -0.52414776652E+02 -0.30169947296E+03  0.30701611181E+03  0.17770000000E+01 0.  1.
</event>
<event>
 7    1  0.3234965E-006  0.5231887E+03  0.7546771E-02  0.9349368E-01
        -11   -1    0    0    0    0  0.00000000000E+00  0.00000000000E+00  0.50000000000E+03  0.50000000000E+03  0.00000000000E+00 0.  1.
         11   -1    0    0    0    0 -0.00000000000E+00 -0.00000000000E+00 -0.50000000000E+03  0.50000000000E+03  0.00000000000E+00 0. -1.
         23    2    1    2    0    0  0.18310735702E+02  0.96609972361E+02 -0.14632132604E+03  0.19829923781E+03  0.90795855968E+02 0.  0.
        -11    1    1    2    0    0  0.15220034852E+03 -0.24456926646E+03  0.37996038897E+03  0.47681125131E+03  0.00000000000E+00 0.  1.
         11    1    1    2    0    0 -0.17051108423E+03  0.14795929410E+03 -0.23363906293E+03  0.32488951088E+03  0.00000000000E+00 0. -1.
        -15    1    3    3    0    0  0.29725267312E+02  0.11121164009E+03 -0.12336215188E+03  0.16873944012E+03  0.17770000000E+01 0. -1.
         15    1    3    3    0    0 -0.11414531610E+02 -0.14601667726E+02 -0.22959174162E+02  0.29559797690E+02  0.17770000000E+01 0.  1.
</event>
<event>
 7    1  0.3234965E-006  0.3445104E+03  0.7546771E-02  0.9836251E-01
        -11   -1    0    0    0    0  0.00000000000E+00  0.00000000000E+00  0.50000000000E+03  0.50000000000E+03  0.00000000000E+00 0. -1.
         11   -1    0    0    0    0 -0.00000000000E+00 -0.00000000000E+00 -0.50000000000E+03  0.50000000000E+03  0.00000000000E+00 0.  1.
         23    2    1    2    0    0 -0.26330990036E+03 -0.66745476406E+02  0.14703406056E+03  0.31912797099E+03  0.80228328252E+02 0.  0.
        -11    1    1    2    0    0  0.11113346601E+03  0.67605528328E+02  0.23557847050E+03  0.26910661547E+03  0.00000000000E+00 0. -1.
         11    1    1    2    0    0  0.15217643435E+03 -0.86005192194E+00 -0.38261253106E+03  0.41176541354E+03  0.00000000000E+00 0.  1.
        -15    1    3    3    0    0 -0.24299731586E+03 -0.80297035385E+02  0.14595683933E+03  0.29462156419E+03  0.17770000000E+01 0.  1.
         15    1    3    3    0    0 -0.20312584492E+02  0.13551558979E+02  0.10772212307E+01  0.24506406797E+02  0.17770000000E+01 0. -1.
</event>
<event>
 7    1  0.3234965E-006  0.3676836E+03  0.7546771E-02  0.9757021E-01
        -11   -1    0    0    0    0  0.00000000000E+00  0.00000000000E+00  0.50000000000E+03  0.50000000000E+03  0.00000000000E+00 0.  1.
         11   -1    0    0    0    0 -0.00000000000E+00 -0.00000000000E+00 -0.50000000000E+03  0.50000000000E+03  0.00000000000E+00 0. -1.
         23    2    1    2    0    0  0.18219326314E+03  0.13535241055E+03  0.19603179781E+03  0.31295185718E+03  0.89418896114E+02 0.  0.
        -11    1    1    2    0    0 -0.98539453774E+02  0.26857051169E+02  0.21461052312E+03  0.23767415043E+03  0.00000000000E+00 0.  1.
         11    1    1    2    0    0 -0.83653809367E+02 -0.16220946172E+03 -0.41064232094E+03  0.44937399239E+03  0.00000000000E+00 0. -1.
        -15    1    3    3    0    0  0.18044745185E+03  0.95792637975E+02  0.16350968044E+03  0.26167935665E+03  0.17770000000E+01 0. -1.
         15    1    3    3    0    0  0.17458112922E+01  0.39559772577E+02  0.32522117370E+02  0.51272500530E+02  0.17770000000E+01 0.  1.
</event>
<event>
 7    1  0.3234965E-006  0.3502502E+03  0.7546771E-02  0.9816017E-01
        -11   -1    0    0    0    0  0.00000000000E+00  0.00000000000E+00  0.50000000000E+03  0.50000000000E+03  0.00000000000E+00 0.  1.
         11   -1    0    0    0    0 -0.00000000000E+00 -0.00000000000E+00 -0.50000000000E+03  0.50000000000E+03  0.00000000000E+00 0.  1.
         23    2    1    2    0    0  0.13823952329E+03 -0.55763754434E+02 -0.27054942541E+03  0.32185577636E+03  0.90412317082E+02 0.  0.
        -11    1    1    2    0    0  0.23057394107E+02 -0.10582796397E+03  0.40087554074E+03  0.41524980499E+03  0.00000000000E+00 0.  1.
         11    1    1    2    0    0 -0.16129691740E+03  0.16159171840E+03 -0.13032611533E+03  0.26289441865E+03  0.00000000000E+00 0.  1.
        -15    1    3    3    0    0  0.27166450773E+02  0.22718719307E+02 -0.82273656098E+02  0.89589443973E+02  0.17770000000E+01 0. -1.
         15    1    3    3    0    0  0.11107307252E+03 -0.78482473741E+02 -0.18827576931E+03  0.23226633239E+03  0.17770000000E+01 0.  1.
</event>
<event>
 7    1  0.3234965E-006  0.3337592E+03  0.7546771E-02  0.9875315E-01
        -11   -1    0    0    0    0  0.00000000000E+00  0.00000000000E+00  0.50000000000E+03  0.50000000000E+03  0.00000000000E+00 0.  1.
         11   -1    0    0    0    0 -0.00000000000E+00 -0.00000000000E+00 -0.50000000000E+03  0.50000000000E+03  0.00000000000E+00 0. -1.
         23    2    1    2    0    0  0.30591501363E+02  0.11671896783E+03 -0.23795041958E+03  0.28113945487E+03  0.88655702017E+02 0.  0.
        -11    1    1    2    0    0  0.33457345330E+02  0.10705975308E+03  0.41278203079E+03  0.42775014860E+03  0.00000000000E+00 0.  1.
         11    1    1    2    0    0 -0.64048846693E+02 -0.22377872090E+03 -0.17483161121E+03  0.29111039653E+03  0.00000000000E+00 0. -1.
        -15    1    3    3    0    0  0.12107380780E+02 -0.11673664699E+02 -0.12504057121E+02  0.21032648201E+02  0.17770000000E+01 0.  1.
         15    1    3    3    0    0  0.18484120584E+02  0.12839263253E+03 -0.22544636246E+03  0.26010680667E+03  0.17770000000E+01 0. -1.
</event>
<event>
 7    1  0.3234965E-006  0.4094118E+03  0.7546771E-02  0.9628994E-01
        -11   -1    0    0    0    0  0.00000000000E+00  0.00000000000E+00  0.50000000000E+03  0.50000000000E+03  0.00000000000E+00 0. -1.
         11   -1    0    0    0    0 -0.00000000000E+00 -0.00000000000E+00 -0.50000000000E+03  0.50000000000E+03  0.00000000000E+00 0.  1.
         23    2    1    2    0    0 -0.87514225318E+02  0.11013450099E+03 -0.60779083999E+01  0.16915868370E+03  0.93751647231E+02 0.  0.
        -11    1    1    2    0    0  0.11628819664E+02 -0.80943563311E+02  0.41037830377E+03  0.41844646264E+03  0.00000000000E+00 0. -1.
         11    1    1    2    0    0  0.75885405654E+02 -0.29190937679E+02 -0.40430039537E+03  0.41239485367E+03  0.00000000000E+00 0.  1.
        -15    1    3    3    0    0 -0.24701802571E+02  0.29824021557E+02  0.41364279977E+02  0.56690499196E+02  0.17770000000E+01 0. -1.
         15    1    3    3    0    0 -0.62812422747E+02  0.80310479433E+02 -0.47442188377E+02  0.11246818450E+03  0.17770000000E+01 0.  1.
</event>
<event>
 7    1  0.3234965E-006  0.5266252E+03  0.7546771E-02  0.9342129E-01
        -11   -1    0    0    0    0  0.00000000000E+00  0.00000000000E+00  0.50000000000E+03  0.50000000000E+03  0.00000000000E+00 0.  1.
         11   -1    0    0    0    0 -0.00000000000E+00 -0.00000000000E+00 -0.50000000000E+03  0.50000000000E+03  0.00000000000E+00 0. -1.
         23    2    1    2    0    0  0.18366726994E+02 -0.10109578343E+03 -0.38990320300E+03  0.41370357993E+03  0.92565923806E+02 0.  0.
        -11    1    1    2    0    0 -0.83826909684E+02  0.46024287817E+02  0.46361465805E+03  0.47337483775E+03  0.00000000000E+00 0.  1.
         11    1    1    2    0    0  0.65460182689E+02  0.55071495611E+02 -0.73711455055E+02  0.11292158232E+03  0.00000000000E+00 0. -1.
        -15    1    3    3    0    0  0.11996085779E+02  0.14121689978E+02 -0.26270728442E+02  0.32196849282E+02  0.17770000000E+01 0.  1.
         15    1    3    3    0    0  0.63706412153E+01 -0.11521747341E+03 -0.36363247456E+03  0.38150673065E+03  0.17770000000E+01 0. -1.
</event>
<event>
 7    1  0.3234965E-006  0.5211337E+03  0.7546771E-02  0.9353725E-01
        -11   -1    0    0    0    0  0.00000000000E+00  0.00000000000E+00  0.50000000000E+03  0.50000000000E+03  0.00000000000E+00 0.  1.
         11   -1    0    0    0    0 -0.00000000000E+00 -0.00000000000E+00 -0.50000000000E+03  0.50000000000E+03  0.00000000000E+00 0. -1.
         23    2    1    2    0    0  0.12578018155E+03  0.17777449937E+02 -0.27265931080E+03  0.31485791004E+03  0.93036078751E+02 0.  0.
        -11    1    1    2    0    0 -0.75480208598E+02 -0.47491368783E+02  0.47048932301E+03  0.47886626011E+03  0.00000000000E+00 0.  1.
         11    1    1    2    0    0 -0.50299972952E+02  0.29713918846E+02 -0.19783001221E+03  0.20627582986E+03  0.00000000000E+00 0. -1.
        -15    1    3    3    0    0  0.30677931260E+02  0.54782832222E+01 -0.64164593595E+01  0.31866529983E+02  0.17770000000E+01 0.  1.
         15    1    3    3    0    0  0.95102250291E+02  0.12299166715E+02 -0.26624285144E+03  0.28299138006E+03  0.17770000000E+01 0. -1.
</event>
<event>
 7    1  0.3234965E-006  0.3654166E+03  0.7546771E-02  0.9764492E-01
        -11   -1    0    0    0    0  0.00000000000E+00  0.00000000000E+00  0.50000000000E+03  0.50000000000E+03  0.00000000000E+00 0. -1.
         11   -1    0    0    0    0 -0.00000000000E+00 -0.00000000000E+00 -0.50000000000E+03  0.50000000000E+03  0.00000000000E+00 0.  1.
         23    2    1    2    0    0  0.10069523620E+03 -0.16379144227E+03  0.10523629971E+03  0.23700647094E+03  0.90167740002E+02 0.  0.
        -11    1    1    2    0    0  0.48562848036E+02  0.18934862272E+02  0.30160060958E+03  0.30607157157E+03  0.00000000000E+00 0. -1.
         11    1    1    2    0    0 -0.14925808424E+03  0.14485657999E+03 -0.40683690930E+03  0.45692195750E+03  0.00000000000E+00 0.  1.
        -15    1    3    3    0    0  0.61824678106E+02 -0.22522219074E+02  0.31663531545E+02  0.73042988259E+02  0.17770000000E+01 0.  1.
         15    1    3    3    0    0  0.38870558094E+02 -0.14126922319E+03  0.73572768166E+02  0.16396348268E+03  0.17770000000E+01 0. -1.
</event>
<event>
 7    1  0.3234965E-006  0.4821474E+03  0.7546771E-02  0.9440667E-01
        -11   -1    0    0    0    0  0.00000000000E+00  0.00000000000E+00  0.50000000000E+03  0.50000000000E+03  0.00000000000E+00 0.  1.
         11   -1    0    0    0    0 -0.00000000000E+00 -0.00000000000E+00 -0.50000000000E+03  0.50000000000E+03  0.00000000000E+00 0. -1.
         23    2    1    2    0    0  0.12299036897E+02  0.98406415754E+02  0.44464700315E+03  0.46491898989E+03  0.92755704860E+02 0.  0.
        -11    1    1    2    0    0  0.16410227904E+02 -0.12965338244E+02  0.38384157676E+02  0.43712002198E+02  0.00000000000E+00 0.  1.
         11    1    1    2    0    0 -0.28709264801E+02 -0.85441077510E+02 -0.48303116082E+03  0.49136900791E+03  0.00000000000E+00 0. -1.
        -15    1    3    3    0    0  0.35875988350E+01  0.11570881036E+03  0.39422560703E+03  0.41087514725E+03  0.17770000000E+01 0.  1.
         15    1    3    3    0    0  0.87114380621E+01 -0.17302394604E+02  0.50421396118E+02  0.54043842643E+02  0.17770000000E+01 0. -1.
</event>
<event>
 7    1  0.3234965E-006  0.5291787E+03  0.7546771E-02  0.9336787E-01
        -11   -1    0    0    0    0  0.00000000000E+00  0.00000000000E+00  0.50000000000E+03  0.50000000000E+03  0.00000000000E+00 0.  1.
         11   -1    0    0    0    0 -0.00000000000E+00 -0.00000000000E+00 -0.50000000000E+03  0.50000000000E+03  0.00000000000E+00 0. -1.
         23    2    1    2    0    0 -0.88663513509E+02  0.56677681242E+02  0.35442965347E+03  0.38082376692E+03  0.91284084131E+02 0.  0.
        -11    1    1    2    0    0 -0.42265840567E+01 -0.10513286432E+03  0.10458688251E+03  0.14835497688E+03  0.00000000000E+00 0.  1.
         11    1    1    2    0    0  0.92890097566E+02  0.48455183080E+02 -0.45901653597E+03  0.47082125620E+03  0.00000000000E+00 0. -1.
        -15    1    3    3    0    0 -0.29581551918E+02  0.55127645817E+02  0.27364781610E+03  0.28071410818E+03  0.17770000000E+01 0.  1.
         15    1    3    3    0    0 -0.59081961591E+02  0.15500354252E+01  0.80781837368E+02  0.10010965874E+03  0.17770000000E+01 0. -1.
</event>
<event>
 7    1  0.3234965E-006  0.5425225E+03  0.7546771E-02  0.9309387E-01
        -11   -1    0    0    0    0  0.00000000000E+00  0.00000000000E+00  0.50000000000E+03  0.50000000000E+03  0.00000000000E+00 0. -1.
         11   -1    0    0    0    0 -0.00000000000E+00 -0.00000000000E+00 -0.50000000000E+03  0.50000000000E+03  0.00000000000E+00 0.  1.
         23    2    1    2    0    0  0.17284990262E+02 -0.11956163612E+02 -0.16228239716E+03  0.19839024150E+03  0.11216679882E+03 0.  0.
        -11    1    1    2    0    0 -0.11779951405E+03  0.29627874259E+03  0.32806687144E+03  0.45747753054E+03  0.00000000000E+00 0. -1.
         11    1    1    2    0    0  0.10051452379E+03 -0.28432257897E+03 -0.16578447427E+03  0.34413222795E+03  0.00000000000E+00 0.  1.
        -15    1    3    3    0    0 -0.47379581461E+02  0.16216347976E+01 -0.58091406551E+02  0.75001491204E+02  0.17770000000E+01 0. -1.
         15    1    3    3    0    0  0.64664571723E+02 -0.13577798409E+02 -0.10419099061E+03  0.12338875030E+03  0.17770000000E+01 0.  1.
</event>
<event>
 7    1  0.3234965E-006  0.5286820E+03  0.7546771E-02  0.9337824E-01
        -11   -1    0    0    0    0  0.00000000000E+00  0.00000000000E+00  0.50000000000E+03  0.50000000000E+03  0.00000000000E+00 0. -1.
         11   -1    0    0    0    0 -0.00000000000E+00 -0.00000000000E+00 -0.50000000000E+03  0.50000000000E+03  0.00000000000E+00 0.  1.
         23    2    1    2    0    0 -0.33120381405E+02  0.51033357175E+02 -0.13432670140E+03  0.17182986593E+03  0.88207011665E+02 0.  0.
        -11    1    1    2    0    0  0.28019865481E+03  0.33627427591E+02  0.37748984255E+03  0.47131801501E+03  0.00000000000E+00 0. -1.
         11    1    1    2    0    0 -0.24707827340E+03 -0.84660784766E+02 -0.24316314115E+03  0.35685211906E+03  0.00000000000E+00 0.  1.
        -15    1    3    3    0    0 -0.23770429009E+02 -0.20312583517E+02 -0.21457992795E+02  0.37963634286E+02  0.17770000000E+01 0.  1.
         15    1    3    3    0    0 -0.93499523962E+01  0.71345940692E+02 -0.11286870860E+03  0.13386623164E+03  0.17770000000E+01 0. -1.
</event>
<event>
 7    1  0.3234965E-006  0.5102271E+03  0.7546771E-02  0.9377212E-01
        -11   -1    0    0    0    0  0.00000000000E+00  0.00000000000E+00  0.50000000000E+03  0.50000000000E+03  0.00000000000E+00 0. -1.
         11   -1    0    0    0    0 -0.00000000000E+00 -0.00000000000E+00 -0.50000000000E+03  0.50000000000E+03  0.00000000000E+00 0. -1.
         23    2    1    2    0    0 -0.87116136348E+02  0.54749173963E+02  0.32237513606E+03  0.34965392575E+03  0.88008216552E+02 0.  0.
        -11    1    1    2    0    0 -0.13909905888E+02 -0.33610824603E+02  0.15639873719E+03  0.16057315469E+03  0.00000000000E+00 0. -1.
         11    1    1    2    0    0  0.10102604224E+03 -0.21138349359E+02 -0.47877387325E+03  0.48977291956E+03  0.00000000000E+00 0. -1.
        -15    1    3    3    0    0  0.10510520474E+02  0.32416038289E+02  0.63723718784E+02  0.72285134319E+02  0.17770000000E+01 0.  1.
         15    1    3    3    0    0 -0.97626656822E+02  0.22333135674E+02  0.25865141728E+03  0.27736879143E+03  0.17770000000E+01 0. -1.
</event>
<event>
 7    1  0.3234965E-006  0.4905045E+03  0.7546771E-02  0.9421311E-01
        -11   -1    0    0    0    0  0.00000000000E+00  0.00000000000E+00  0.50000000000E+03  0.50000000000E+03  0.00000000000E+00 0.  1.
         11   -1    0    0    0    0 -0.00000000000E+00 -0.00000000000E+00 -0.50000000000E+03  0.50000000000E+03  0.00000000000E+00 0. -1.
         23    2    1    2    0    0  0.23406342402E+01  0.12125804182E+03  0.45381239812E+03  0.47868522242E+03  0.92113290046E+02 0.  0.
        -11    1    1    2    0    0 -0.49460902585E+01  0.17732059526E+02  0.20204859102E+02  0.27333607066E+02  0.00000000000E+00 0.  1.
         11    1    1    2    0    0  0.26054560183E+01 -0.13899010135E+03 -0.47401725722E+03  0.49398117051E+03  0.00000000000E+00 0. -1.
        -15    1    3    3    0    0  0.33960731959E+02  0.37699690680E+02  0.26468221036E+03  0.26950775166E+03  0.17770000000E+01 0.  1.
         15    1    3    3    0    0 -0.31620097719E+02  0.83558351141E+02  0.18913018776E+03  0.20917747077E+03  0.17770000000E+01 0. -1.
</event>
<event>
 7    1  0.3234965E-006  0.5127824E+03  0.7546771E-02  0.9371654E-01
        -11   -1    0    0    0    0  0.00000000000E+00  0.00000000000E+00  0.50000000000E+03  0.50000000000E+03  0.00000000000E+00 0.  1.
         11   -1    0    0    0    0 -0.00000000000E+00 -0.00000000000E+00 -0.50000000000E+03  0.50000000000E+03  0.00000000000E+00 0. -1.
         23    2    1    2    0    0 -0.24062370842E+02  0.33046783807E+02 -0.35406548891E+03  0.36812762539E+03  0.92111294255E+02 0.  0.
        -11    1    1    2    0    0  0.12130260707E+02 -0.11357338198E+03  0.47364010903E+03  0.48721761996E+03  0.00000000000E+00 0.  1.
         11    1    1    2    0    0  0.11932110135E+02  0.80526598173E+02 -0.11957462012E+03  0.14465475465E+03  0.00000000000E+00 0. -1.
        -15    1    3    3    0    0  0.13124350249E+02  0.54820898208E+02 -0.17143036027E+03  0.18046912645E+03  0.17770000000E+01 0. -1.
         15    1    3    3    0    0 -0.37186721091E+02 -0.21774114401E+02 -0.18263512864E+03  0.18765849894E+03  0.17770000000E+01 0.  1.
</event>
<event>
 7    1  0.3234965E-006  0.3713437E+03  0.7546771E-02  0.9745079E-01
        -11   -1    0    0    0    0  0.00000000000E+00  0.00000000000E+00  0.50000000000E+03  0.50000000000E+03  0.00000000000E+00 0.  1.
         11   -1    0    0    0    0 -0.00000000000E+00 -0.00000000000E+00 -0.50000000000E+03  0.50000000000E+03  0.00000000000E+00 0. -1.
         23    2    1    2    0    0 -0.82617840631E+02  0.13271684021E+03 -0.34882262510E+03  0.39109732206E+03  0.82706857459E+02 0.  0.
        -11    1    1    2    0    0 -0.58250902717E+02  0.49243332414E+02  0.37003129320E+03  0.37781110545E+03  0.00000000000E+00 0.  1.
         11    1    1    2    0    0  0.14086874335E+03 -0.18196017262E+03 -0.21208668097E+02  0.23109157249E+03  0.00000000000E+00 0. -1.
        -15    1    3    3    0    0 -0.62288787319E+02  0.11897127082E+03 -0.20426951735E+03  0.24446523220E+03  0.17770000000E+01 0. -1.
         15    1    3    3    0    0 -0.20329053311E+02  0.13745569391E+02 -0.14455310776E+03  0.14663208986E+03  0.17770000000E+01 0.  1.
</event>
<event>
 7    1  0.3234965E-006  0.4432871E+03  0.7546771E-02  0.9536496E-01
        -11   -1    0    0    0    0  0.00000000000E+00  0.00000000000E+00  0.50000000000E+03  0.50000000000E+03  0.00000000000E+00 0.  1.
         11   -1    0    0    0    0 -0.00000000000E+00 -0.00000000000E+00 -0.50000000000E+03  0.50000000000E+03  0.00000000000E+00 0.  1.
         23    2    1    2    0    0 -0.35512968626E+02  0.24673165932E+03 -0.38912614453E+03  0.47189080932E+03  0.95520138759E+02 0.  0.
        -11    1    1    2    0    0 -0.45611787101E+02  0.35901631832E+02  0.10063028382E+03  0.11617149527E+03  0.00000000000E+00 0.  1.
         11    1    1    2    0    0  0.81124755727E+02 -0.28263329115E+03  0.28849586071E+03  0.41193769541E+03  0.00000000000E+00 0.  1.
        -15    1    3    3    0    0  0.12656599523E+02  0.13801688191E+03 -0.27036102144E+03  0.30382081700E+03  0.17770000000E+01 0.  1.
         15    1    3    3    0    0 -0.48169568149E+02  0.10871477741E+03 -0.11876512309E+03  0.16806999231E+03  0.17770000000E+01 0. -1.
</event>
<event>
 6    1  0.3234965E-006  0.5558672E+03  0.7546771E-02  0.9282808E-01
        -11   -1    0    0    0    0  0.00000000000E+00  0.00000000000E+00  0.50000000000E+03  0.50000000000E+03  0.00000000000E+00 0.  1.
         11   -1    0    0    0    0 -0.00000000000E+00 -0.00000000000E+00 -0.50000000000E+03  0.50000000000E+03  0.00000000000E+00 0. -1.
        -11    1    1    2    0    0  0.76116237857E+02  0.39297547423E+02  0.39695527380E+03  0.40609293062E+03  0.00000000000E+00 0.  1.
         11    1    1    2    0    0 -0.10858506542E+03 -0.79876060414E+01 -0.43058034033E+03  0.44413280419E+03  0.00000000000E+00 0. -1.
        -15    1    1    2    0    0  0.80128823674E+02 -0.16330578878E+02  0.51530685232E+02  0.96674119801E+02  0.17770000000E+01 0.  1.
         15    1    1    2    0    0 -0.47659996113E+02 -0.14979362503E+02 -0.17905618703E+02  0.53100145392E+02  0.17770000000E+01 0. -1.
</event>
<event>
 7    1  0.3234965E-006  0.5261618E+03  0.7546771E-02  0.9343101E-01
        -11   -1    0    0    0    0  0.00000000000E+00  0.00000000000E+00  0.50000000000E+03  0.50000000000E+03  0.00000000000E+00 0. -1.
         11   -1    0    0    0    0 -0.00000000000E+00 -0.00000000000E+00 -0.50000000000E+03  0.50000000000E+03  0.00000000000E+00 0.  1.
         23    2    1    2    0    0 -0.33138125364E+02  0.92235700558E+02 -0.31887326241E+03  0.34622419522E+03  0.92657844039E+02 0.  0.
        -11    1    1    2    0    0 -0.81860907969E+02 -0.93452431521E+02  0.45726146376E+03  0.47383817011E+03  0.00000000000E+00 0. -1.
         11    1    1    2    0    0  0.11499903333E+03  0.12167309628E+01 -0.13838820134E+03  0.17993763468E+03  0.00000000000E+00 0.  1.
        -15    1    3    3    0    0 -0.14840937891E+02  0.59449055268E+02 -0.29587443540E+03  0.30215771190E+03  0.17770000000E+01 0.  1.
         15    1    3    3    0    0 -0.18297187474E+02  0.32786645290E+02 -0.22998827014E+02  0.44066483316E+02  0.17770000000E+01 0. -1.
</event>
<event>
 7    1  0.3234965E-006  0.5302596E+03  0.7546771E-02  0.9334536E-01
        -11   -1    0    0    0    0  0.00000000000E+00  0.00000000000E+00  0.50000000000E+03  0.50000000000E+03  0.00000000000E+00 0.  1.
         11   -1    0    0    0    0 -0.00000000000E+00 -0.00000000000E+00 -0.50000000000E+03  0.50000000000E+03  0.00000000000E+00 0.  1.
         23    2    1    2    0    0 -0.18743529370E+03  0.21872750143E+03  0.40628120915E+02  0.30507091472E+03  0.91890748139E+02 0.  0.
        -11    1    1    2    0    0  0.41230061961E+03 -0.22315788628E+03 -0.29407178587E+02  0.46974038073E+03  0.00000000000E+00 0.  1.
         11    1    1    2    0    0 -0.22486532592E+03  0.44303848512E+01 -0.11220942328E+02  0.22518870455E+03  0.00000000000E+00 0.  1.
        -15    1    3    3    0    0 -0.10941869798E+02 -0.83427127328E+01 -0.29604680672E+01  0.14186171809E+02  0.17770000000E+01 0. -1.
         15    1    3    3    0    0 -0.17649342390E+03  0.22707021416E+03  0.43588588982E+02  0.29088474291E+03  0.17770000000E+01 0.  1.
</event>
<event>
 7    1  0.3234965E-006  0.5334250E+03  0.7546771E-02  0.9327976E-01
        -11   -1    0    0    0    0  0.00000000000E+00  0.00000000000E+00  0.50000000000E+03  0.50000000000E+03  0.00000000000E+00 0.  1.
         11   -1    0    0    0    0 -0.00000000000E+00 -0.00000000000E+00 -0.50000000000E+03  0.50000000000E+03  0.00000000000E+00 0.  1.
         23    2    1    2    0    0 -0.75024651168E+02  0.80926319821E+02 -0.13474747204E+03  0.19738028479E+03  0.92867260545E+02 0.  0.
        -11    1    1    2    0    0 -0.10378309620E+02 -0.78820378183E+02  0.45975198745E+03  0.46657502214E+03  0.00000000000E+00 0.  1.
         11    1    1    2    0    0  0.85402960787E+02 -0.21059416377E+01 -0.32500451541E+03  0.33604469306E+03  0.00000000000E+00 0.  1.
        -15    1    3    3    0    0 -0.58435238814E+02 -0.11263444783E+01 -0.39517581198E+02  0.70574377361E+02  0.17770000000E+01 0. -1.
         15    1    3    3    0    0 -0.16589412354E+02  0.82052664299E+02 -0.95229890841E+02  0.12680590743E+03  0.17770000000E+01 0.  1.
</event>
<event>
 7    1  0.3234965E-006  0.3734007E+03  0.7546771E-02  0.9738432E-01
        -11   -1    0    0    0    0  0.00000000000E+00  0.00000000000E+00  0.50000000000E+03  0.50000000000E+03  0.00000000000E+00 0.  1.
         11   -1    0    0    0    0 -0.00000000000E+00 -0.00000000000E+00 -0.50000000000E+03  0.50000000000E+03  0.00000000000E+00 0.  1.
         23    2    1    2    0    0 -0.16965100788E+02  0.18010357000E+03 -0.26377485868E+03  0.33280982974E+03  0.91978780859E+02 0.  0.
        -11    1    1    2    0    0 -0.10448186569E+03  0.19246996169E+03  0.69189588673E+02  0.22967007988E+03  0.00000000000E+00 0.  1.
         11    1    1    2    0    0  0.12144696647E+03 -0.37257353169E+03  0.19458527000E+03  0.43752009038E+03  0.00000000000E+00 0.  1.
        -15    1    3    3    0    0  0.37264477045E+02  0.54689517543E+02 -0.90801027952E+02  0.11237245652E+03  0.17770000000E+01 0.  1.
         15    1    3    3    0    0 -0.54229577833E+02  0.12541405246E+03 -0.17297383073E+03  0.22043737322E+03  0.17770000000E+01 0. -1.
</event>
<event>
 7    1  0.3234965E-006  0.3969998E+03  0.7546771E-02  0.9665307E-01
        -11   -1    0    0    0    0  0.00000000000E+00  0.00000000000E+00  0.50000000000E+03  0.50000000000E+03  0.00000000000E+00 0.  1.
         11   -1    0    0    0    0 -0.00000000000E+00 -0.00000000000E+00 -0.50000000000E+03  0.50000000000E+03  0.00000000000E+00 0. -1.
         23    2    1    2    0    0 -0.17046686955E+02 -0.15246284290E+03 -0.33882630925E+03  0.38326451912E+03  0.92481975386E+02 0.  0.
        -11    1    1    2    0    0 -0.13784166144E+03  0.26235813086E+03  0.30229985464E+03  0.42334066019E+03  0.00000000000E+00 0.  1.
         11    1    1    2    0    0  0.15488834839E+03 -0.10989528796E+03  0.36526454611E+02  0.19339482069E+03  0.00000000000E+00 0. -1.
        -15    1    3    3    0    0 -0.72720299825E+01 -0.14068624362E+03 -0.33977725768E+03  0.36782773703E+03  0.17770000000E+01 0. -1.
         15    1    3    3    0    0 -0.97746569728E+01 -0.11776599273E+02  0.95094842115E+00  0.15436782089E+02  0.17770000000E+01 0.  1.
</event>
<event>
 7    1  0.3234965E-006  0.3981351E+03  0.7546771E-02  0.9661927E-01
        -11   -1    0    0    0    0  0.00000000000E+00  0.00000000000E+00  0.50000000000E+03  0.50000000000E+03  0.00000000000E+00 0.  1.
         11   -1    0    0    0    0 -0.00000000000E+00 -0.00000000000E+00 -0.50000000000E+03  0.50000000000E+03  0.00000000000E+00 0. -1.
         23    2    1    2    0    0 -0.20825272780E+02  0.57904389543E+02 -0.15133841968E+03  0.18714322094E+03  0.91283391467E+02 0.  0.
        -11    1    1    2    0    0  0.32013094517E+03  0.15093132640E+03  0.25175647707E+03  0.43433329494E+03  0.00000000000E+00 0.  1.
         11    1    1    2    0    0 -0.29930567239E+03 -0.20883571595E+03 -0.10041805739E+03  0.37852348412E+03  0.00000000000E+00 0. -1.
        -15    1    3    3    0    0 -0.41388825584E+02  0.56240963870E+02 -0.15106669677E+03  0.16643432789E+03  0.17770000000E+01 0. -1.
         15    1    3    3    0    0  0.20563552804E+02  0.16634256735E+01 -0.27172291375E+00  0.20708893047E+02  0.17770000000E+01 0.  1.
</event>
<event>
 7    1  0.3234965E-006  0.5211540E+03  0.7546771E-02  0.9353682E-01
        -11   -1    0    0    0    0  0.00000000000E+00  0.00000000000E+00  0.50000000000E+03  0.50000000000E+03  0.00000000000E+00 0. -1.
         11   -1    0    0    0    0 -0.00000000000E+00 -0.00000000000E+00 -0.50000000000E+03  0.50000000000E+03  0.00000000000E+00 0.  1.
         23    2    1    2    0    0  0.46669123767E+02  0.88175569362E+01 -0.25375836957E+03  0.27506938415E+03  0.94942611857E+02 0.  0.
        -11    1    1    2    0    0  0.23863363047E+02 -0.11513408254E+03  0.46418552639E+03  0.47884602950E+03  0.00000000000E+00 0. -1.
         11    1    1    2    0    0 -0.70532486814E+02  0.10631652560E+03 -0.21042715682E+03  0.24608458635E+03  0.00000000000E+00 0.  1.
        -15    1    3    3    0    0 -0.19345222123E+02  0.57503859262E+01 -0.10169554692E+02  0.22668968413E+02  0.17770000000E+01 0. -1.
         15    1    3    3    0    0  0.66014345890E+02  0.30671710100E+01 -0.24358881488E+03  0.25240041573E+03  0.17770000000E+01 0.  1.
</event>
<event>
 7    1  0.3234965E-006  0.4325455E+03  0.7546771E-02  0.9564844E-01
        -11   -1    0    0    0    0  0.00000000000E+00  0.00000000000E+00  0.50000000000E+03  0.50000000000E+03  0.00000000000E+00 0.  1.
         11   -1    0    0    0    0 -0.00000000000E+00 -0.00000000000E+00 -0.50000000000E+03  0.50000000000E+03  0.00000000000E+00 0. -1.
         23    2    1    2    0    0  0.48933283977E+02  0.43940870145E+02 -0.65911553730E+02  0.12991257174E+03  0.90596230775E+02 0.  0.
        -11    1    1    2    0    0  0.19247128313E+03 -0.25528918417E+03  0.32633517036E+03  0.45685052894E+03  0.00000000000E+00 0.  1.
         11    1    1    2    0    0 -0.24140456710E+03  0.21134831402E+03 -0.26042361663E+03  0.41323689932E+03  0.00000000000E+00 0. -1.
        -15    1    3    3    0    0 -0.14172275524E+02  0.28206362803E+02 -0.55709235825E+02  0.64055670954E+02  0.17770000000E+01 0.  1.
         15    1    3    3    0    0  0.63105559501E+02  0.15734507341E+02 -0.10202317905E+02  0.65856900784E+02  0.17770000000E+01 0. -1.
</event>
<event>
 7    1  0.3234965E-006  0.5378792E+03  0.7546771E-02  0.9318826E-01
        -11   -1    0    0    0    0  0.00000000000E+00  0.00000000000E+00  0.50000000000E+03  0.50000000000E+03  0.00000000000E+00 0. -1.
         11   -1    0    0    0    0 -0.00000000000E+00 -0.00000000000E+00 -0.50000000000E+03  0.50000000000E+03  0.00000000000E+00 0.  1.
         23    2    1    2    0    0  0.67628032395E+02 -0.14481338246E+03 -0.16522675607E+03  0.24743061547E+03  0.91529022968E+02 0.  0.
        -11    1    1    2    0    0 -0.19506561958E+03  0.65288529785E+02  0.41381447675E+03  0.46212077343E+03  0.00000000000E+00 0. -1.
         11    1    1    2    0    0  0.12743758719E+03  0.79524852673E+02 -0.24858772068E+03  0.29044861110E+03  0.00000000000E+00 0.  1.
        -15    1    3    3    0    0  0.39172595873E+02 -0.80389891640E+02 -0.15108363001E+03  0.17557462212E+03  0.17770000000E+01 0.  1.
         15    1    3    3    0    0  0.28455436522E+02 -0.64423490819E+02 -0.14143126060E+02  0.71855993353E+02  0.17770000000E+01 0. -1.
</event>
<event>
 7    1  0.3234965E-006  0.4532571E+03  0.7546771E-02  0.9510939E-01
        -11   -1    0    0    0    0  0.00000000000E+00  0.00000000000E+00  0.50000000000E+03  0.50000000000E+03  0.00000000000E+00 0. -1.
         11   -1    0    0    0    0 -0.00000000000E+00 -0.00000000000E+00 -0.50000000000E+03  0.50000000000E+03  0.00000000000E+00 0.  1.
         23    2    1    2    0    0  0.12007142744E+03  0.37502524794E+02 -0.44357451098E+03  0.47003925131E+03  0.91405491795E+02 0.  0.
        -11    1    1    2    0    0 -0.11152415675E+03  0.55079827201E+02  0.41417197622E+03  0.43244635597E+03  0.00000000000E+00 0. -1.
         11    1    1    2    0    0 -0.85472706946E+01 -0.92582351995E+02  0.29402534752E+02  0.97514392718E+02  0.00000000000E+00 0.  1.
        -15    1    3    3    0    0  0.61764304064E+02  0.42221033050E+02 -0.36192567416E+03  0.36958192087E+03  0.17770000000E+01 0.  1.
         15    1    3    3    0    0  0.58307123379E+02 -0.47185082561E+01 -0.81648836818E+02  0.10045733044E+03  0.17770000000E+01 0. -1.
</event>
<event>
 7    1  0.3234965E-006  0.4867808E+03  0.7546771E-02  0.9429884E-01
        -11   -1    0    0    0    0  0.00000000000E+00  0.00000000000E+00  0.50000000000E+03  0.50000000000E+03  0.00000000000E+00 0. -1.
         11   -1    0    0    0    0 -0.00000000000E+00 -0.00000000000E+00 -0.50000000000E+03  0.50000000000E+03  0.00000000000E+00 0. -1.
         23    2    1    2    0    0  0.17086238715E+02  0.52704436877E+02 -0.47170359972E+03  0.48389417834E+03  0.92626090367E+02 0.  0.
        -11    1    1    2    0    0 -0.43209780791E+02 -0.75487463178E+02  0.47347486743E+03  0.48139785245E+03  0.00000000000E+00 0. -1.
         11    1    1    2    0    0  0.26123542076E+02  0.22783026301E+02 -0.17712677061E+01  0.34707969219E+02  0.00000000000E+00 0. -1.
        -15    1    3    3    0    0  0.14503095668E+02 -0.25586524414E+02 -0.11924379689E+03  0.12283017072E+03  0.17770000000E+01 0.  1.
         15    1    3    3    0    0  0.25831430467E+01  0.78290961291E+02 -0.35245980284E+03  0.36106400761E+03  0.17770000000E+01 0. -1.
</event>
<event>
 7    1  0.3234965E-006  0.5362523E+03  0.7546771E-02  0.9322157E-01
        -11   -1    0    0    0    0  0.00000000000E+00  0.00000000000E+00  0.50000000000E+03  0.50000000000E+03  0.00000000000E+00 0. -1.
         11   -1    0    0    0    0 -0.00000000000E+00 -0.00000000000E+00 -0.50000000000E+03  0.50000000000E+03  0.00000000000E+00 0.  1.
         23    2    1    2    0    0  0.40500999562E+01  0.18589411413E+03  0.24493992849E+03  0.32650803867E+03  0.10972194754E+03 0.  0.
        -11    1    1    2    0    0  0.80393646896E+00 -0.59329844178E+02  0.20117648471E+03  0.20974426029E+03  0.00000000000E+00 0. -1.
         11    1    1    2    0    0 -0.48540364252E+01 -0.12656426995E+03 -0.44611641320E+03  0.46374770104E+03  0.00000000000E+00 0.  1.
        -15    1    3    3    0    0 -0.28675314502E+02  0.61430817224E+02  0.26180359887E+02  0.72695171362E+02  0.17770000000E+01 0.  1.
         15    1    3    3    0    0  0.32725414458E+02  0.12446329691E+03  0.21875956860E+03  0.25381286731E+03  0.17770000000E+01 0. -1.
</event>
<event>
 7    1  0.3234965E-006  0.5145262E+03  0.7546771E-02  0.9367880E-01
        -11   -1    0    0    0    0  0.00000000000E+00  0.00000000000E+00  0.50000000000E+03  0.50000000000E+03  0.00000000000E+00 0.  1.
         11   -1    0    0    0    0 -0.00000000000E+00 -0.00000000000E+00 -0.50000000000E+03  0.50000000000E+03  0.00000000000E+00 0. -1.
         23    2    1    2    0    0 -0.13624473472E+03  0.34981990890E+02  0.11938427936E+03  0.20585129672E+03  0.91300508095E+02 0.  0.
        -11    1    1    2    0    0 -0.13870096607E+03  0.68515757646E+02  0.26711011215E+03  0.30867487596E+03  0.00000000000E+00 0.  1.
         11    1    1    2    0    0  0.27494570080E+03 -0.10349774854E+03 -0.38649439151E+03  0.48547382731E+03  0.00000000000E+00 0. -1.
        -15    1    3    3    0    0 -0.38789082553E+02  0.52398998411E+02  0.27529061357E+02  0.70790217601E+02  0.17770000000E+01 0. -1.
         15    1    3    3    0    0 -0.97455652172E+02 -0.17417007520E+02  0.91855218000E+02  0.13506107912E+03  0.17770000000E+01 0.  1.
</event>
<event>
 7    1  0.3234965E-006  0.5148756E+03  0.7546771E-02  0.9367126E-01
        -11   -1    0    0    0    0  0.00000000000E+00  0.00000000000E+00  0.50000000000E+03  0.50000000000E+03  0.00000000000E+00 0.  1.
         11   -1    0    0    0    0 -0.00000000000E+00 -0.00000000000E+00 -0.50000000000E+03  0.50000000000E+03  0.00000000000E+00 0. -1.
         23    2    1    2    0    0 -0.23306919360E+03 -0.34957631658E+02 -0.41383245994E+03  0.48512440989E+03  0.92439727149E+02 0.  0.
        -11    1    1    2    0    0 -0.11421530211E+02  0.55263205778E+02  0.11609494013E+03  0.12908333893E+03  0.00000000000E+00 0.  1.
         11    1    1    2    0    0  0.24449072381E+03 -0.20305574120E+02  0.29773751981E+03  0.38579225118E+03  0.00000000000E+00 0. -1.
        -15    1    3    3    0    0 -0.15607116053E+02  0.41458776082E+01 -0.28346103834E+00  0.16248336893E+02  0.17770000000E+01 0.  1.
         15    1    3    3    0    0 -0.21746207755E+03 -0.39103509266E+02 -0.41354899890E+03  0.46887607300E+03  0.17770000000E+01 0. -1.
</event>
<event>
 7    1  0.3234965E-006  0.5345512E+03  0.7546771E-02  0.9325654E-01
        -11   -1    0    0    0    0  0.00000000000E+00  0.00000000000E+00  0.50000000000E+03  0.50000000000E+03  0.00000000000E+00 0.  1.
         11   -1    0    0    0    0 -0.00000000000E+00 -0.00000000000E+00 -0.50000000000E+03  0.50000000000E+03  0.00000000000E+00 0. -1.
         23    2    1    2    0    0  0.10281306195E+03  0.39525699042E+02 -0.26661063533E+03  0.30220582149E+03  0.90079526417E+02 0.  0.
        -11    1    1    2    0    0 -0.77615233463E+02  0.10504089474E+03  0.44674926655E+03  0.46544883843E+03  0.00000000000E+00 0.  1.
         11    1    1    2    0    0 -0.25197828491E+02 -0.14456659378E+03 -0.18013863122E+03  0.23234534008E+03  0.00000000000E+00 0. -1.
        -15    1    3    3    0    0 -0.11130763722E+02  0.46016049639E+01 -0.24752125417E+01  0.12423891315E+02  0.17770000000E+01 0.  1.
         15    1    3    3    0    0  0.11394382568E+03  0.34924094078E+02 -0.26413542278E+03  0.28978193017E+03  0.17770000000E+01 0. -1.
</event>
<event>
 7    1  0.3234965E-006  0.5155832E+03  0.7546771E-02  0.9365601E-01
        -11   -1    0    0    0    0  0.00000000000E+00  0.00000000000E+00  0.50000000000E+03  0.50000000000E+03  0.00000000000E+00 0.  1.
         11   -1    0    0    0    0 -0.00000000000E+00 -0.00000000000E+00 -0.50000000000E+03  0.50000000000E+03  0.00000000000E+00 0.  1.
         23    2    1    2    0    0  0.31255963171E+03  0.11382103681E+03 -0.33996055269E+03  0.48441678796E+03  0.91856928321E+02 0.  0.
        -11    1    1    2    0    0 -0.15542922805E+02  0.34446405451E+02  0.97302918945E+02  0.10438388445E+03  0.00000000000E+00 0.  1.
         11    1    1    2    0    0 -0.29701670890E+03 -0.14826744226E+03  0.24265763374E+03  0.41119932759E+03  0.00000000000E+00 0.  1.
        -15    1    3    3    0    0  0.19800784952E+03  0.26304737659E+02 -0.17763583994E+03  0.26731385496E+03  0.17770000000E+01 0. -1.
         15    1    3    3    0    0  0.11455178219E+03  0.87516299146E+02 -0.16232471274E+03  0.21710293300E+03  0.17770000000E+01 0.  1.
</event>
<event>
 7    1  0.3234965E-006  0.4655867E+03  0.7546771E-02  0.9480286E-01
        -11   -1    0    0    0    0  0.00000000000E+00  0.00000000000E+00  0.50000000000E+03  0.50000000000E+03  0.00000000000E+00 0.  1.
         11   -1    0    0    0    0 -0.00000000000E+00 -0.00000000000E+00 -0.50000000000E+03  0.50000000000E+03  0.00000000000E+00 0. -1.
         23    2    1    2    0    0 -0.94296501698E+02 -0.15620983266E+03 -0.40730295306E+03  0.45522525822E+03  0.89671612575E+02 0.  0.
        -11    1    1    2    0    0  0.91943546420E+02  0.95924928321E+02  0.45107462682E+03  0.47023773409E+03  0.00000000000E+00 0.  1.
         11    1    1    2    0    0  0.23529552778E+01  0.60284904341E+02 -0.43771673766E+02  0.74537007683E+02  0.00000000000E+00 0. -1.
        -15    1    3    3    0    0 -0.38736189864E+02 -0.13674888693E+03 -0.25515114960E+03  0.29207193866E+03  0.17770000000E+01 0.  1.
         15    1    3    3    0    0 -0.55560311834E+02 -0.19460945733E+02 -0.15215180346E+03  0.16315331956E+03  0.17770000000E+01 0. -1.
</event>
<event>
 7    1  0.3234965E-006  0.5199109E+03  0.7546771E-02  0.9356327E-01
        -11   -1    0    0    0    0  0.00000000000E+00  0.00000000000E+00  0.50000000000E+03  0.50000000000E+03  0.00000000000E+00 0.  1.
         11   -1    0    0    0    0 -0.00000000000E+00 -0.00000000000E+00 -0.50000000000E+03  0.50000000000E+03  0.00000000000E+00 0. -1.
         23    2    1    2    0    0 -0.12080102616E+03 -0.48056594414E+02 -0.32833163018E+03  0.36494471514E+03  0.92090507355E+02 0.  0.
        -11    1    1    2    0    0  0.65951189272E+02  0.46506951944E+02  0.47325790720E+03  0.48008905702E+03  0.00000000000E+00 0.  1.
         11    1    1    2    0    0  0.54849836885E+02  0.15496424702E+01 -0.14492627703E+03  0.15496622784E+03  0.00000000000E+00 0. -1.
        -15    1    3    3    0    0 -0.13307499574E+03 -0.56216746546E+02 -0.29724579372E+03  0.33049583461E+03  0.17770000000E+01 0. -1.
         15    1    3    3    0    0  0.12273969583E+02  0.81601521324E+01 -0.31085836458E+02  0.34448880525E+02  0.17770000000E+01 0.  1.
</event>
<event>
 7    1  0.3234965E-006  0.3834927E+03  0.7546771E-02  0.9706473E-01
        -11   -1    0    0    0    0  0.00000000000E+00  0.00000000000E+00  0.50000000000E+03  0.50000000000E+03  0.00000000000E+00 0. -1.
         11   -1    0    0    0    0 -0.00000000000E+00 -0.00000000000E+00 -0.50000000000E+03  0.50000000000E+03  0.00000000000E+00 0. -1.
         23    2    1    2    0    0  0.12567673792E+03  0.27095663985E+02 -0.35026082945E+03  0.38415623512E+03  0.91457896738E+02 0.  0.
        -11    1    1    2    0    0 -0.26420494775E+03  0.11946261588E+03  0.27779106028E+03  0.40155129707E+03  0.00000000000E+00 0. -1.
         11    1    1    2    0    0  0.13852820983E+03 -0.14655827986E+03  0.72469769172E+02  0.21429246780E+03  0.00000000000E+00 0. -1.
        -15    1    3    3    0    0  0.12546206444E+03  0.49717754453E+02 -0.29444520554E+03  0.32390387697E+03  0.17770000000E+01 0. -1.
         15    1    3    3    0    0  0.21467348559E+00 -0.22622090467E+02 -0.55815623911E+02  0.60252358157E+02  0.17770000000E+01 0.  1.
</event>
<event>
 7    1  0.3234965E-006  0.5223133E+03  0.7546771E-02  0.9351221E-01
        -11   -1    0    0    0    0  0.00000000000E+00  0.00000000000E+00  0.50000000000E+03  0.50000000000E+03  0.00000000000E+00 0.  1.
         11   -1    0    0    0    0 -0.00000000000E+00 -0.00000000000E+00 -0.50000000000E+03  0.50000000000E+03  0.00000000000E+00 0. -1.
         23    2    1    2    0    0 -0.19043467275E+00 -0.30283076730E+02 -0.21097460949E+03  0.23074220725E+03  0.88400109495E+02 0.  0.
        -11    1    1    2    0    0  0.64400989030E+02 -0.10378191091E+03  0.46180777765E+03  0.47768671315E+03  0.00000000000E+00 0.  1.
         11    1    1    2    0    0 -0.64210554357E+02  0.13406498764E+03 -0.25083316817E+03  0.29157107959E+03  0.00000000000E+00 0. -1.
        -15    1    3    3    0    0  0.15861913297E+02  0.88784906070E+01 -0.30144015242E+01  0.18511408225E+02  0.17770000000E+01 0.  1.
         15    1    3    3    0    0 -0.16052347970E+02 -0.39161567337E+02 -0.20796020796E+03  0.21223079903E+03  0.17770000000E+01 0. -1.
</event>
<event>
 7    1  0.3234965E-006  0.5072083E+03  0.7546771E-02  0.9383824E-01
        -11   -1    0    0    0    0  0.00000000000E+00  0.00000000000E+00  0.50000000000E+03  0.50000000000E+03  0.00000000000E+00 0.  1.
         11   -1    0    0    0    0 -0.00000000000E+00 -0.00000000000E+00 -0.50000000000E+03  0.50000000000E+03  0.00000000000E+00 0. -1.
         23    2    1    2    0    0 -0.12891842204E+03  0.11136608165E+03  0.35685010640E+03  0.40549044095E+03  0.89767118606E+02 0.  0.
        -11    1    1    2    0    0 -0.29644999627E+02  0.58603361607E+02  0.77674578870E+02  0.10171784601E+03  0.00000000000E+00 0.  1.
         11    1    1    2    0    0  0.15856342167E+03 -0.16996944325E+03 -0.43452468527E+03  0.49279171304E+03  0.00000000000E+00 0. -1.
        -15    1    3    3    0    0 -0.13556215811E+03  0.85917301301E+02  0.26392789526E+03  0.30890123503E+03  0.17770000000E+01 0.  1.
         15    1    3    3    0    0  0.66437360650E+01  0.25448780344E+02  0.92922211133E+02  0.96589205923E+02  0.17770000000E+01 0. -1.
</event>
<event>
 7    1  0.3234965E-006  0.5197099E+03  0.7546771E-02  0.9356756E-01
        -11   -1    0    0    0    0  0.00000000000E+00  0.00000000000E+00  0.50000000000E+03  0.50000000000E+03  0.00000000000E+00 0. -1.
         11   -1    0    0    0    0 -0.00000000000E+00 -0.00000000000E+00 -0.50000000000E+03  0.50000000000E+03  0.00000000000E+00 0. -1.
         23    2    1    2    0    0  0.63881958562E+02 -0.13128645027E+02 -0.41111598603E+03  0.42632838918E+03  0.92120982930E+02 0.  0.
        -11    1    1    2    0    0 -0.31472556841E+02  0.74693873021E+02  0.47340135720E+03  0.48029005976E+03  0.00000000000E+00 0. -1.
         11    1    1    2    0    0 -0.32409401722E+02 -0.61565227994E+02 -0.62285371170E+02  0.93381551067E+02  0.00000000000E+00 0. -1.
        -15    1    3    3    0    0  0.17023639020E+02 -0.42108350296E+02 -0.93485830766E+02  0.10395035225E+03  0.17770000000E+01 0.  1.
         15    1    3    3    0    0  0.46858319542E+02  0.28979705269E+02 -0.31763015527E+03  0.32237803692E+03  0.17770000000E+01 0. -1.
</event>
<event>
 7    1  0.3234965E-006  0.4154018E+03  0.7546771E-02  0.9611957E-01
        -11   -1    0    0    0    0  0.00000000000E+00  0.00000000000E+00  0.50000000000E+03  0.50000000000E+03  0.00000000000E+00 0. -1.
         11   -1    0    0    0    0 -0.00000000000E+00 -0.00000000000E+00 -0.50000000000E+03  0.50000000000E+03  0.00000000000E+00 0.  1.
         23    2    1    2    0    0 -0.29746826382E+03  0.27873569124E+03  0.45555800851E+01  0.42641214355E+03  0.12500243721E+03 0.  0.
        -11    1    1    2    0    0  0.14853698877E+02 -0.46045056622E+02  0.16369351721E+03  0.17069372333E+03  0.00000000000E+00 0. -1.
         11    1    1    2    0    0  0.28261456495E+03 -0.23269063462E+03 -0.16824909729E+03  0.40289413311E+03  0.00000000000E+00 0.  1.
        -15    1    3    3    0    0 -0.17056589627E+03  0.21323578509E+03  0.47734629768E+02  0.27720746314E+03  0.17770000000E+01 0. -1.
         15    1    3    3    0    0 -0.12690236756E+03  0.65499906148E+02 -0.43179049683E+02  0.14920468042E+03  0.17770000000E+01 0. -1.
</event>
<event>
 7    1  0.3234965E-006  0.4329248E+03  0.7546771E-02  0.9563828E-01
        -11   -1    0    0    0    0  0.00000000000E+00  0.00000000000E+00  0.50000000000E+03  0.50000000000E+03  0.00000000000E+00 0. -1.
         11   -1    0    0    0    0 -0.00000000000E+00 -0.00000000000E+00 -0.50000000000E+03  0.50000000000E+03  0.00000000000E+00 0.  1.
         23    2    1    2    0    0 -0.19432380237E+02  0.12898861167E+03 -0.37080185259E+03  0.40338562053E+03  0.90610516060E+02 0.  0.
        -11    1    1    2    0    0 -0.92140066356E+02 -0.18887435426E+03  0.41279104934E+03  0.46320596277E+03  0.00000000000E+00 0. -1.
         11    1    1    2    0    0  0.11157244659E+03  0.59885742592E+02 -0.41989196752E+02  0.13340841671E+03  0.00000000000E+00 0.  1.
        -15    1    3    3    0    0 -0.28407766396E+01  0.30279965300E+02 -0.15365615423E+02  0.34120465660E+02  0.17770000000E+01 0. -1.
         15    1    3    3    0    0 -0.16591603598E+02  0.98708646371E+02 -0.35543623717E+03  0.36926515487E+03  0.17770000000E+01 0.  1.
</event>
<event>
 7    1  0.3234965E-006  0.4437394E+03  0.7546771E-02  0.9535321E-01
        -11   -1    0    0    0    0  0.00000000000E+00  0.00000000000E+00  0.50000000000E+03  0.50000000000E+03  0.00000000000E+00 0.  1.
         11   -1    0    0    0    0 -0.00000000000E+00 -0.00000000000E+00 -0.50000000000E+03  0.50000000000E+03  0.00000000000E+00 0. -1.
         23    2    1    2    0    0  0.35444691307E+02  0.39475090295E+02 -0.43525373438E+03  0.44790351089E+03  0.91417355486E+02 0.  0.
        -11    1    1    2    0    0  0.44794380094E+02 -0.11954605550E+03  0.41846309538E+03  0.43750332349E+03  0.00000000000E+00 0.  1.
         11    1    1    2    0    0 -0.80239071400E+02  0.80070965201E+02  0.16790638998E+02  0.11459316561E+03  0.00000000000E+00 0. -1.
        -15    1    3    3    0    0  0.64424525769E+02  0.33900613591E+02 -0.35464348110E+03  0.36204271508E+03  0.17770000000E+01 0. -1.
         15    1    3    3    0    0 -0.28979834463E+02  0.55744767039E+01 -0.80610253277E+02  0.85860795817E+02  0.17770000000E+01 0.  1.
</event>
<event>
 7    1  0.3234965E-006  0.4231503E+03  0.7546771E-02  0.9590368E-01
        -11   -1    0    0    0    0  0.00000000000E+00  0.00000000000E+00  0.50000000000E+03  0.50000000000E+03  0.00000000000E+00 0. -1.
         11   -1    0    0    0    0 -0.00000000000E+00 -0.00000000000E+00 -0.50000000000E+03  0.50000000000E+03  0.00000000000E+00 0.  1.
         23    2    1    2    0    0 -0.38385849485E+01  0.19330266921E+02 -0.11612247382E+03  0.14554249705E+03  0.85497342466E+02 0.  0.
        -11    1    1    2    0    0 -0.29087653070E+03  0.10685110786E+03  0.34258893903E+03  0.46194533931E+03  0.00000000000E+00 0. -1.
         11    1    1    2    0    0  0.29471511565E+03 -0.12618137478E+03 -0.22646646521E+03  0.39251216363E+03  0.00000000000E+00 0.  1.
        -15    1    3    3    0    0  0.30574481878E+02  0.23696411854E+02 -0.10002558716E+03  0.10725947367E+03  0.17770000000E+01 0.  1.
         15    1    3    3    0    0 -0.34413066826E+02 -0.43661449331E+01 -0.16096886660E+02  0.38283023380E+02  0.17770000000E+01 0. -1.
</event>
<event>
 7    1  0.3234965E-006  0.4694436E+03  0.7546771E-02  0.9470904E-01
        -11   -1    0    0    0    0  0.00000000000E+00  0.00000000000E+00  0.50000000000E+03  0.50000000000E+03  0.00000000000E+00 0. -1.
         11   -1    0    0    0    0 -0.00000000000E+00 -0.00000000000E+00 -0.50000000000E+03  0.50000000000E+03  0.00000000000E+00 0.  1.
         23    2    1    2    0    0  0.44802969999E+02 -0.16504695696E+02 -0.46186491040E+03  0.47311908300E+03  0.90789647775E+02 0.  0.
        -11    1    1    2    0    0 -0.43994542637E+02  0.82915328890E+02  0.44966112182E+03  0.45935345435E+03  0.00000000000E+00 0. -1.
         11    1    1    2    0    0 -0.80842736153E+00 -0.66410633194E+02  0.12203788579E+02  0.67527462648E+02  0.00000000000E+00 0.  1.
        -15    1    3    3    0    0  0.46888453532E+02 -0.47771654035E+02 -0.37078311836E+03  0.37678101942E+03  0.17770000000E+01 0.  1.
         15    1    3    3    0    0 -0.20854835331E+01  0.31266958339E+02 -0.91081792038E+02  0.96338063585E+02  0.17770000000E+01 0. -1.
</event>
<event>
 7    1  0.3234965E-006  0.5254739E+03  0.7546771E-02  0.9344547E-01
        -11   -1    0    0    0    0  0.00000000000E+00  0.00000000000E+00  0.50000000000E+03  0.50000000000E+03  0.00000000000E+00 0. -1.
         11   -1    0    0    0    0 -0.00000000000E+00 -0.00000000000E+00 -0.50000000000E+03  0.50000000000E+03  0.00000000000E+00 0. -1.
         23    2    1    2    0    0 -0.43494262633E+02  0.67294387390E+02 -0.31208650171E+03  0.33492741869E+03  0.91422676537E+02 0.  0.
        -11    1    1    2    0    0  0.12357742886E+03  0.26414848313E+02  0.45739035555E+03  0.47452614521E+03  0.00000000000E+00 0. -1.
         11    1    1    2    0    0 -0.80083166229E+02 -0.93709235703E+02 -0.14530385385E+03  0.19054643610E+03  0.00000000000E+00 0. -1.
        -15    1    3    3    0    0  0.16159369243E+01  0.54332866883E+02 -0.71687109062E+02  0.89982615046E+02  0.17770000000E+01 0.  1.
         15    1    3    3    0    0 -0.45110199557E+02  0.12961520506E+02 -0.24039939264E+03  0.24494480364E+03  0.17770000000E+01 0. -1.
</event>
<event>
 7    1  0.3234965E-006  0.5280033E+03  0.7546771E-02  0.9339242E-01
        -11   -1    0    0    0    0  0.00000000000E+00  0.00000000000E+00  0.50000000000E+03  0.50000000000E+03  0.00000000000E+00 0.  1.
         11   -1    0    0    0    0 -0.00000000000E+00 -0.00000000000E+00 -0.50000000000E+03  0.50000000000E+03  0.00000000000E+00 0. -1.
         23    2    1    2    0    0  0.10122694873E+02  0.15306970049E+03 -0.43722022199E+03  0.47199667475E+03  0.89925170540E+02 0.  0.
        -11    1    1    2    0    0  0.12072063176E+03 -0.64155269766E+02  0.17999551893E+03  0.22602600825E+03  0.00000000000E+00 0.  1.
         11    1    1    2    0    0 -0.13084332663E+03 -0.88914430727E+02  0.25722470306E+03  0.30197731700E+03  0.00000000000E+00 0. -1.
        -15    1    3    3    0    0 -0.88596777522E+01 -0.63744936845E+01 -0.77944713394E+01  0.13529211805E+02  0.17770000000E+01 0.  1.
         15    1    3    3    0    0  0.18982372626E+02  0.15944419418E+03 -0.42942575066E+03  0.45846746295E+03  0.17770000000E+01 0. -1.
</event>
<event>
 7    1  0.3234965E-006  0.5082442E+03  0.7546771E-02  0.9381549E-01
        -11   -1    0    0    0    0  0.00000000000E+00  0.00000000000E+00  0.50000000000E+03  0.50000000000E+03  0.00000000000E+00 0.  1.
         11   -1    0    0    0    0 -0.00000000000E+00 -0.00000000000E+00 -0.50000000000E+03  0.50000000000E+03  0.00000000000E+00 0. -1.
         23    2    1    2    0    0 -0.56576574256E+02 -0.16090920520E+02 -0.33256478722E+03  0.34990785778E+03  0.91522372998E+02 0.  0.
        -11    1    1    2    0    0  0.66056815261E+02  0.64550883175E+02  0.48300462989E+03  0.49175582544E+03  0.00000000000E+00 0.  1.
         11    1    1    2    0    0 -0.94802410047E+01 -0.48459962655E+02 -0.15043984267E+03  0.15833631678E+03  0.00000000000E+00 0. -1.
        -15    1    3    3    0    0  0.28081967125E+01  0.19680422883E+02 -0.15290294717E+02  0.25142709782E+02  0.17770000000E+01 0.  1.
         15    1    3    3    0    0 -0.59384770969E+02 -0.35771343403E+02 -0.31727449250E+03  0.32476514799E+03  0.17770000000E+01 0. -1.
</event>
<event>
 7    1  0.3234965E-006  0.4245722E+03  0.7546771E-02  0.9586460E-01
        -11   -1    0    0    0    0  0.00000000000E+00  0.00000000000E+00  0.50000000000E+03  0.50000000000E+03  0.00000000000E+00 0. -1.
         11   -1    0    0    0    0 -0.00000000000E+00 -0.00000000000E+00 -0.50000000000E+03  0.50000000000E+03  0.00000000000E+00 0.  1.
         23    2    1    2    0    0  0.32377430934E+02  0.93740174794E+01 -0.10570008735E+03  0.14363866712E+03  0.91232603750E+02 0.  0.
        -11    1    1    2    0    0  0.22997764679E+03  0.61152338595E+02  0.39396241782E+03  0.46025613868E+03  0.00000000000E+00 0. -1.
         11    1    1    2    0    0 -0.26235507773E+03 -0.70526356075E+02 -0.28826233047E+03  0.39610519420E+03  0.00000000000E+00 0.  1.
        -15    1    3    3    0    0 -0.17268514126E+02  0.26924090891E+02 -0.77543433567E+02  0.83900238789E+02  0.17770000000E+01 0.  1.
         15    1    3    3    0    0  0.49645945060E+02 -0.17550073411E+02 -0.28156653785E+02  0.59738428328E+02  0.17770000000E+01 0. -1.
</event>
<event>
 7    1  0.3234965E-006  0.5167113E+03  0.7546771E-02  0.9363174E-01
        -11   -1    0    0    0    0  0.00000000000E+00  0.00000000000E+00  0.50000000000E+03  0.50000000000E+03  0.00000000000E+00 0. -1.
         11   -1    0    0    0    0 -0.00000000000E+00 -0.00000000000E+00 -0.50000000000E+03  0.50000000000E+03  0.00000000000E+00 0.  1.
         23    2    1    2    0    0  0.10848619535E+03  0.86016664816E+02 -0.32347089298E+03  0.36375505803E+03  0.92283272730E+02 0.  0.
        -11    1    1    2    0    0 -0.23243168351E+03 -0.12023893783E+03  0.40630786259E+03  0.48328870137E+03  0.00000000000E+00 0. -1.
         11    1    1    2    0    0  0.12394548815E+03  0.34222273018E+02 -0.82836969608E+02  0.15295624060E+03  0.00000000000E+00 0.  1.
        -15    1    3    3    0    0  0.13712147258E+02  0.34384190501E+02 -0.18239370534E+03  0.18612070550E+03  0.17770000000E+01 0.  1.
         15    1    3    3    0    0  0.94774048097E+02  0.51632474315E+02 -0.14107718765E+03  0.17763435253E+03  0.17770000000E+01 0. -1.
</event>
<event>
 7    1  0.3234965E-006  0.4978267E+03  0.7546771E-02  0.9404686E-01
        -11   -1    0    0    0    0  0.00000000000E+00  0.00000000000E+00  0.50000000000E+03  0.50000000000E+03  0.00000000000E+00 0. -1.
         11   -1    0    0    0    0 -0.00000000000E+00 -0.00000000000E+00 -0.50000000000E+03  0.50000000000E+03  0.00000000000E+00 0. -1.
         23    2    1    2    0    0  0.26346536186E+03  0.84926618383E+02  0.40301998549E+03  0.49829609442E+03  0.96163202903E+02 0.  0.
        -11    1    1    2    0    0 -0.75119725832E+01 -0.98295011578E+01  0.57170608668E+01  0.13628411868E+02  0.00000000000E+00 0. -1.
         11    1    1    2    0    0 -0.25595338928E+03 -0.75097117225E+02 -0.40873704636E+03  0.48807549372E+03  0.00000000000E+00 0. -1.
        -15    1    3    3    0    0  0.21331470341E+03  0.10544382395E+03  0.34241959075E+03  0.41698428814E+03  0.17770000000E+01 0. -1.
         15    1    3    3    0    0  0.50150658456E+02 -0.20517205565E+02  0.60600394747E+02  0.81311806278E+02  0.17770000000E+01 0.  1.
</event>
<event>
 7    1  0.3234965E-006  0.5158066E+03  0.7546771E-02  0.9365120E-01
        -11   -1    0    0    0    0  0.00000000000E+00  0.00000000000E+00  0.50000000000E+03  0.50000000000E+03  0.00000000000E+00 0. -1.
         11   -1    0    0    0    0 -0.00000000000E+00 -0.00000000000E+00 -0.50000000000E+03  0.50000000000E+03  0.00000000000E+00 0.  1.
         23    2    1    2    0    0 -0.16282220292E+02 -0.25319322225E+02 -0.31687349869E+03  0.33054288329E+03  0.89126902467E+02 0.  0.
        -11    1    1    2    0    0  0.89820625409E+02 -0.39289501133E+02  0.47416440736E+03  0.48419344776E+03  0.00000000000E+00 0. -1.
         11    1    1    2    0    0 -0.73538405118E+02  0.64608823359E+02 -0.15729090867E+03  0.18526366895E+03  0.00000000000E+00 0.  1.
        -15    1    3    3    0    0  0.33473407578E+02  0.30157248353E+01 -0.79032124762E+02  0.85899930643E+02  0.17770000000E+01 0.  1.
         15    1    3    3    0    0 -0.49755627869E+02 -0.28335047061E+02 -0.23784137393E+03  0.24464295264E+03  0.17770000000E+01 0. -1.
</event>
<event>
 7    1  0.3234965E-006  0.4690841E+03  0.7546771E-02  0.9471774E-01
        -11   -1    0    0    0    0  0.00000000000E+00  0.00000000000E+00  0.50000000000E+03  0.50000000000E+03  0.00000000000E+00 0.  1.
         11   -1    0    0    0    0 -0.00000000000E+00 -0.00000000000E+00 -0.50000000000E+03  0.50000000000E+03  0.00000000000E+00 0. -1.
         23    2    1    2    0    0 -0.69973187210E+02 -0.18455054799E+03  0.39967500479E+03  0.45638096435E+03  0.97919985048E+02 0.  0.
        -11    1    1    2    0    0  0.38212753430E+02  0.32480365200E+02  0.48204513190E+02  0.69561941751E+02  0.00000000000E+00 0.  1.
         11    1    1    2    0    0  0.31760433779E+02  0.15207018279E+03 -0.44787951798E+03  0.47405709390E+03  0.00000000000E+00 0. -1.
        -15    1    3    3    0    0 -0.67672996944E+02 -0.12403827202E+03  0.18191286759E+03  0.23034881498E+03  0.17770000000E+01 0.  1.
         15    1    3    3    0    0 -0.23001902656E+01 -0.60512275978E+02  0.21776213721E+03  0.22603214937E+03  0.17770000000E+01 0. -1.
</event>
<event>
 7    1  0.3234965E-006  0.5168542E+03  0.7546771E-02  0.9362867E-01
        -11   -1    0    0    0    0  0.00000000000E+00  0.00000000000E+00  0.50000000000E+03  0.50000000000E+03  0.00000000000E+00 0.  1.
         11   -1    0    0    0    0 -0.00000000000E+00 -0.00000000000E+00 -0.50000000000E+03  0.50000000000E+03  0.00000000000E+00 0.  1.
         23    2    1    2    0    0  0.15522651175E+03 -0.59449193370E+02  0.34963934444E+03  0.39852209001E+03  0.94565895055E+02 0.  0.
        -11    1    1    2    0    0 -0.34097418008E+02 -0.10331589780E+02  0.11284114462E+03  0.11833215785E+03  0.00000000000E+00 0.  1.
         11    1    1    2    0    0 -0.12112909374E+03  0.69780783150E+02 -0.46248048906E+03  0.48314575214E+03  0.00000000000E+00 0.  1.
        -15    1    3    3    0    0  0.90385254960E+02  0.12618321244E+01  0.24558385934E+03  0.26169768098E+03  0.17770000000E+01 0.  1.
         15    1    3    3    0    0  0.64841256788E+02 -0.60711025495E+02  0.10405548510E+03  0.13682440903E+03  0.17770000000E+01 0. -1.
</event>
<event>
 7    1  0.3234965E-006  0.5333013E+03  0.7546771E-02  0.9328231E-01
        -11   -1    0    0    0    0  0.00000000000E+00  0.00000000000E+00  0.50000000000E+03  0.50000000000E+03  0.00000000000E+00 0. -1.
         11   -1    0    0    0    0 -0.00000000000E+00 -0.00000000000E+00 -0.50000000000E+03  0.50000000000E+03  0.00000000000E+00 0.  1.
         23    2    1    2    0    0 -0.10649817109E+03  0.45330987302E+02 -0.15536311463E+03  0.21261928470E+03  0.87592830652E+02 0.  0.
        -11    1    1    2    0    0  0.42164365470E+03 -0.62030454509E+01  0.19996454824E+03  0.46669869281E+03  0.00000000000E+00 0. -1.
         11    1    1    2    0    0 -0.31514548360E+03 -0.39127941851E+02 -0.44601433616E+02  0.32068202249E+03  0.00000000000E+00 0.  1.
        -15    1    3    3    0    0 -0.77514096778E+02  0.67652979354E+02 -0.13785085203E+03  0.17202144038E+03  0.17770000000E+01 0.  1.
         15    1    3    3    0    0 -0.28984074316E+02 -0.22321992052E+02 -0.17512262599E+02  0.40597844320E+02  0.17770000000E+01 0. -1.
</event>
<event>
 7    1  0.3234965E-006  0.5187620E+03  0.7546771E-02  0.9358780E-01
        -11   -1    0    0    0    0  0.00000000000E+00  0.00000000000E+00  0.50000000000E+03  0.50000000000E+03  0.00000000000E+00 0.  1.
         11   -1    0    0    0    0 -0.00000000000E+00 -0.00000000000E+00 -0.50000000000E+03  0.50000000000E+03  0.00000000000E+00 0. -1.
         23    2    1    2    0    0  0.37394816618E+02  0.39087887429E+02  0.16568461282E+03  0.20395455855E+03  0.10592372620E+03 0.  0.
        -11    1    1    2    0    0 -0.49781388557E+02  0.72518902053E+02  0.30226895956E+03  0.31480740416E+03  0.00000000000E+00 0.  1.
         11    1    1    2    0    0  0.12386571939E+02 -0.11160678948E+03 -0.46795357239E+03  0.48123803729E+03  0.00000000000E+00 0. -1.
        -15    1    3    3    0    0  0.46916451232E+02  0.61101828762E+02  0.66150803169E+02  0.10155625713E+03  0.17770000000E+01 0.  1.
         15    1    3    3    0    0 -0.95216346135E+01 -0.22013941333E+02  0.99533809656E+02  0.10239830141E+03  0.17770000000E+01 0. -1.
</event>
<event>
 7    1  0.3234965E-006  0.5194994E+03  0.7546771E-02  0.9357205E-01
        -11   -1    0    0    0    0  0.00000000000E+00  0.00000000000E+00  0.50000000000E+03  0.50000000000E+03  0.00000000000E+00 0.  1.
         11   -1    0    0    0    0 -0.00000000000E+00 -0.00000000000E+00 -0.50000000000E+03  0.50000000000E+03  0.00000000000E+00 0.  1.
         23    2    1    2    0    0  0.65872249017E+01  0.87040947219E+01 -0.91065802754E+02  0.12858200627E+03  0.90117695867E+02 0.  0.
        -11    1    1    2    0    0 -0.67296937557E+02 -0.13079333959E+03  0.45743307803E+03  0.48050056854E+03  0.00000000000E+00 0.  1.
         11    1    1    2    0    0  0.60709712656E+02  0.12208924487E+03 -0.36636727528E+03  0.39091742519E+03  0.00000000000E+00 0.  1.
        -15    1    3    3    0    0 -0.27050165801E+02  0.25675138213E+02 -0.81536609578E+02  0.89678875007E+02  0.17770000000E+01 0.  1.
         15    1    3    3    0    0  0.33637390703E+02 -0.16971043491E+02 -0.95291931761E+01  0.38903131263E+02  0.17770000000E+01 0. -1.
</event>
<event>
 7    1  0.3234965E-006  0.5267313E+03  0.7546771E-02  0.9341906E-01
        -11   -1    0    0    0    0  0.00000000000E+00  0.00000000000E+00  0.50000000000E+03  0.50000000000E+03  0.00000000000E+00 0.  1.
         11   -1    0    0    0    0 -0.00000000000E+00 -0.00000000000E+00 -0.50000000000E+03  0.50000000000E+03  0.00000000000E+00 0.  1.
         23    2    1    2    0    0  0.11462900292E+02  0.35855867257E+02 -0.84096827309E+02  0.13037234261E+03  0.92236815066E+02 0.  0.
        -11    1    1    2    0    0  0.87392563456E+02  0.11599159740E+02  0.46498527123E+03  0.47326874301E+03  0.00000000000E+00 0.  1.
         11    1    1    2    0    0 -0.98855463747E+02 -0.47455026997E+02 -0.38088844392E+03  0.39635891438E+03  0.00000000000E+00 0.  1.
        -15    1    3    3    0    0  0.41283721070E+02  0.39365526355E+02 -0.21615380932E+02  0.61027638922E+02  0.17770000000E+01 0. -1.
         15    1    3    3    0    0 -0.29820820778E+02 -0.35096590977E+01 -0.62481446376E+02  0.69344703685E+02  0.17770000000E+01 0.  1.
</event>
<event>
 7    1  0.3234965E-006  0.4274339E+03  0.7546771E-02  0.9578644E-01
        -11   -1    0    0    0    0  0.00000000000E+00  0.00000000000E+00  0.50000000000E+03  0.50000000000E+03  0.00000000000E+00 0. -1.
         11   -1    0    0    0    0 -0.00000000000E+00 -0.00000000000E+00 -0.50000000000E+03  0.50000000000E+03  0.00000000000E+00 0. -1.
         23    2    1    2    0    0  0.23173853631E+00 -0.99532391209E+02  0.32250208503E+02  0.13875334521E+03  0.91135417134E+02 0.  0.
        -11    1    1    2    0    0 -0.62400828434E+02  0.24988183805E+02  0.40643251434E+03  0.41195346998E+03  0.00000000000E+00 0. -1.
         11    1    1    2    0    0  0.62169089898E+02  0.74544207404E+02 -0.43868272284E+03  0.44929318481E+03  0.00000000000E+00 0. -1.
        -15    1    3    3    0    0 -0.16492408029E+02 -0.77015270000E+02 -0.18333377270E+02  0.80886474685E+02  0.17770000000E+01 0.  1.
         15    1    3    3    0    0  0.16724146566E+02 -0.22517121209E+02  0.50583585773E+02  0.57866870527E+02  0.17770000000E+01 0. -1.
</event>
<event>
 7    1  0.3234965E-006  0.5196874E+03  0.7546771E-02  0.9356804E-01
        -11   -1    0    0    0    0  0.00000000000E+00  0.00000000000E+00  0.50000000000E+03  0.50000000000E+03  0.00000000000E+00 0.  1.
         11   -1    0    0    0    0 -0.00000000000E+00 -0.00000000000E+00 -0.50000000000E+03  0.50000000000E+03  0.00000000000E+00 0. -1.
         23    2    1    2    0    0  0.32624621409E+02 -0.13286616609E+02 -0.84839427148E+02  0.12941179335E+03  0.91152530164E+02 0.  0.
        -11    1    1    2    0    0 -0.24244426614E+03  0.32714344792E+02  0.41334101059E+03  0.48031264982E+03  0.00000000000E+00 0.  1.
         11    1    1    2    0    0  0.20981964473E+03 -0.19427728183E+02 -0.32850158344E+03  0.39027555683E+03  0.00000000000E+00 0. -1.
        -15    1    3    3    0    0 -0.48083094663E+01  0.35568801538E+02 -0.27193337631E+02  0.45065450439E+02  0.17770000000E+01 0.  1.
         15    1    3    3    0    0  0.37432930875E+02 -0.48855418147E+02 -0.57646089517E+02  0.84346342907E+02  0.17770000000E+01 0. -1.
</event>
<event>
 7    1  0.3234965E-006  0.5060535E+03  0.7546771E-02  0.9386366E-01
        -11   -1    0    0    0    0  0.00000000000E+00  0.00000000000E+00  0.50000000000E+03  0.50000000000E+03  0.00000000000E+00 0.  1.
         11   -1    0    0    0    0 -0.00000000000E+00 -0.00000000000E+00 -0.50000000000E+03  0.50000000000E+03  0.00000000000E+00 0. -1.
         23    2    1    2    0    0  0.41947437267E+02  0.76600887732E+02  0.33467210559E+03  0.35786342267E+03  0.91834239439E+02 0.  0.
        -11    1    1    2    0    0  0.15852556976E+02  0.39565660365E+02  0.14192798278E+03  0.14819007166E+03  0.00000000000E+00 0.  1.
         11    1    1    2    0    0 -0.57799994243E+02 -0.11616654810E+03 -0.47660008837E+03  0.49394650567E+03  0.00000000000E+00 0. -1.
        -15    1    3    3    0    0  0.48071910450E+02  0.16611481861E+01  0.92395273822E+02  0.10418115156E+03  0.17770000000E+01 0.  1.
         15    1    3    3    0    0 -0.61244731827E+01  0.74939739546E+02  0.24227683176E+03  0.25368227111E+03  0.17770000000E+01 0. -1.
</event>
<event>
 7    1  0.3234965E-006  0.5259984E+03  0.7546771E-02  0.9343445E-01
        -11   -1    0    0    0    0  0.00000000000E+00  0.00000000000E+00  0.50000000000E+03  0.50000000000E+03  0.00000000000E+00 0.  1.
         11   -1    0    0    0    0 -0.00000000000E+00 -0.00000000000E+00 -0.50000000000E+03  0.50000000000E+03  0.00000000000E+00 0. -1.
         23    2    1    2    0    0 -0.11433400723E+02 -0.42495672960E+02 -0.29340620366E+03  0.31106988497E+03  0.93491540326E+02 0.  0.
        -11    1    1    2    0    0 -0.12085761239E+03  0.38037424907E+01  0.45831918809E+03  0.47400159188E+03  0.00000000000E+00 0.  1.
         11    1    1    2    0    0  0.13229101312E+03  0.38691930469E+02 -0.16491298443E+03  0.21492852316E+03  0.00000000000E+00 0. -1.
        -15    1    3    3    0    0  0.41151398641E+02 -0.23260113888E+02 -0.13258207715E+03  0.14076801987E+03  0.17770000000E+01 0. -1.
         15    1    3    3    0    0 -0.52584799364E+02 -0.19235559072E+02 -0.16082412651E+03  0.17030186510E+03  0.17770000000E+01 0.  1.
</event>
<event>
 7    1  0.3234965E-006  0.4507934E+03  0.7546771E-02  0.9517189E-01
        -11   -1    0    0    0    0  0.00000000000E+00  0.00000000000E+00  0.50000000000E+03  0.50000000000E+03  0.00000000000E+00 0. -1.
         11   -1    0    0    0    0 -0.00000000000E+00 -0.00000000000E+00 -0.50000000000E+03  0.50000000000E+03  0.00000000000E+00 0. -1.
         23    2    1    2    0    0 -0.16445206863E+03 -0.48880610978E+02 -0.39033855717E+03  0.43535537686E+03  0.87956341079E+02 0.  0.
        -11    1    1    2    0    0  0.12932944905E+03  0.13820418276E+03  0.42287173721E+03  0.46330012805E+03  0.00000000000E+00 0. -1.
         11    1    1    2    0    0  0.35122619582E+02 -0.89323571784E+02 -0.32533180034E+02  0.10134449509E+03  0.00000000000E+00 0. -1.
        -15    1    3    3    0    0 -0.10373743909E+03  0.14355813873E+02 -0.19894836623E+03  0.22483584193E+03  0.17770000000E+01 0. -1.
         15    1    3    3    0    0 -0.60714629536E+02 -0.63236424851E+02 -0.19139019094E+03  0.21051953493E+03  0.17770000000E+01 0.  1.
</event>
<event>
 7    1  0.3234965E-006  0.5338021E+03  0.7546771E-02  0.9327198E-01
        -11   -1    0    0    0    0  0.00000000000E+00  0.00000000000E+00  0.50000000000E+03  0.50000000000E+03  0.00000000000E+00 0.  1.
         11   -1    0    0    0    0 -0.00000000000E+00 -0.00000000000E+00 -0.50000000000E+03  0.50000000000E+03  0.00000000000E+00 0. -1.
         23    2    1    2    0    0 -0.62759125469E+02  0.55486903592E+02 -0.34591281465E+03  0.36761392262E+03  0.92015305595E+02 0.  0.
        -11    1    1    2    0    0 -0.60015406169E+02 -0.70810599606E+02  0.45686375196E+03  0.46619789559E+03  0.00000000000E+00 0.  1.
         11    1    1    2    0    0  0.12277453164E+03  0.15323696015E+02 -0.11095093730E+03  0.16618818179E+03  0.00000000000E+00 0. -1.
        -15    1    3    3    0    0 -0.51442797736E+02 -0.89649988853E+01 -0.96309541726E+02  0.10956923930E+03  0.17770000000E+01 0.  1.
         15    1    3    3    0    0 -0.11316327734E+02  0.64451902477E+02 -0.24960327293E+03  0.25804468332E+03  0.17770000000E+01 0. -1.
</event>
<event>
 7    1  0.3234965E-006  0.3848056E+03  0.7546771E-02  0.9702392E-01
        -11   -1    0    0    0    0  0.00000000000E+00  0.00000000000E+00  0.50000000000E+03  0.50000000000E+03  0.00000000000E+00 0.  1.
         11   -1    0    0    0    0 -0.00000000000E+00 -0.00000000000E+00 -0.50000000000E+03  0.50000000000E+03  0.00000000000E+00 0. -1.
         23    2    1    2    0    0 -0.13632299741E+03 -0.12455339782E+03  0.25833259852E+02  0.20812483647E+03  0.92472059080E+02 0.  0.
        -11    1    1    2    0    0  0.52968300328E+02 -0.89720747640E+02  0.34232106231E+03  0.35782560430E+03  0.00000000000E+00 0.  1.
         11    1    1    2    0    0  0.83354697082E+02  0.21427414546E+03 -0.36815432216E+03  0.43404955922E+03  0.00000000000E+00 0. -1.
        -15    1    3    3    0    0 -0.12487863359E+03 -0.57085771670E+02  0.89021585710E+01  0.13760764735E+03  0.17770000000E+01 0.  1.
         15    1    3    3    0    0 -0.11444363822E+02 -0.67467626149E+02  0.16931101281E+02  0.70517189117E+02  0.17770000000E+01 0. -1.
</event>
<event>
 7    1  0.3234965E-006  0.5253024E+03  0.7546771E-02  0.9344908E-01
        -11   -1    0    0    0    0  0.00000000000E+00  0.00000000000E+00  0.50000000000E+03  0.50000000000E+03  0.00000000000E+00 0.  1.
         11   -1    0    0    0    0 -0.00000000000E+00 -0.00000000000E+00 -0.50000000000E+03  0.50000000000E+03  0.00000000000E+00 0.  1.
         23    2    1    2    0    0  0.12762654342E+02 -0.34925620863E+02 -0.16780865563E+03  0.19453938819E+03  0.91121590812E+02 0.  0.
        -11    1    1    2    0    0 -0.34291227692E+01 -0.12231775862E+03  0.45865498800E+03  0.47469757843E+03  0.00000000000E+00 0.  1.
         11    1    1    2    0    0 -0.93335315724E+01  0.15724337948E+03 -0.29084633236E+03  0.33076303338E+03  0.00000000000E+00 0.  1.
        -15    1    3    3    0    0  0.94978238964E+01 -0.58656819562E+02 -0.61438565672E+02  0.85490854602E+02  0.17770000000E+01 0.  1.
         15    1    3    3    0    0  0.32648304452E+01  0.23731198698E+02 -0.10637008996E+03  0.10904853359E+03  0.17770000000E+01 0. -1.
</event>
<event>
 7    1  0.3234965E-006  0.4465212E+03  0.7546771E-02  0.9528128E-01
        -11   -1    0    0    0    0  0.00000000000E+00  0.00000000000E+00  0.50000000000E+03  0.50000000000E+03  0.00000000000E+00 0. -1.
         11   -1    0    0    0    0 -0.00000000000E+00 -0.00000000000E+00 -0.50000000000E+03  0.50000000000E+03  0.00000000000E+00 0.  1.
         23    2    1    2    0    0 -0.26507863093E+03  0.43189065089E+02 -0.34698695983E+03  0.44815789768E+03  0.91178808097E+02 0.  0.
        -11    1    1    2    0    0  0.30095854369E+03  0.56534620018E+02  0.31907657129E+03  0.44224661291E+03  0.00000000000E+00 0. -1.
         11    1    1    2    0    0 -0.35879912758E+02 -0.99723685106E+02  0.27910388538E+02  0.10959548941E+03  0.00000000000E+00 0.  1.
        -15    1    3    3    0    0 -0.35515494454E+02 -0.21508243255E+02 -0.29068738015E+02  0.50715915973E+02  0.17770000000E+01 0. -1.
         15    1    3    3    0    0 -0.22956313648E+03  0.64697308343E+02 -0.31791822181E+03  0.39744198171E+03  0.17770000000E+01 0.  1.
</event>
<event>
 7    1  0.3234965E-006  0.4778008E+03  0.7546771E-02  0.9450900E-01
        -11   -1    0    0    0    0  0.00000000000E+00  0.00000000000E+00  0.50000000000E+03  0.50000000000E+03  0.00000000000E+00 0.  1.
         11   -1    0    0    0    0 -0.00000000000E+00 -0.00000000000E+00 -0.50000000000E+03  0.50000000000E+03  0.00000000000E+00 0. -1.
         23    2    1    2    0    0 -0.11061060633E+03  0.20866993441E+03  0.39657260368E+03  0.47016296764E+03  0.89473674280E+02 0.  0.
        -11    1    1    2    0    0 -0.61551968317E+01 -0.37555303956E+02  0.34630051054E+02  0.51454132382E+02  0.00000000000E+00 0.  1.
         11    1    1    2    0    0  0.11676580316E+03 -0.17111463045E+03 -0.43120265474E+03  0.47838289998E+03  0.00000000000E+00 0. -1.
        -15    1    3    3    0    0 -0.39818329585E+02  0.14204883685E+03  0.29334789787E+03  0.32835882558E+03  0.17770000000E+01 0.  1.
         15    1    3    3    0    0 -0.70792276741E+02  0.66621097561E+02  0.10322470581E+03  0.14180414206E+03  0.17770000000E+01 0. -1.
</event>
<event>
 7    1  0.3234965E-006  0.5131705E+03  0.7546771E-02  0.9370813E-01
        -11   -1    0    0    0    0  0.00000000000E+00  0.00000000000E+00  0.50000000000E+03  0.50000000000E+03  0.00000000000E+00 0. -1.
         11   -1    0    0    0    0 -0.00000000000E+00 -0.00000000000E+00 -0.50000000000E+03  0.50000000000E+03  0.00000000000E+00 0.  1.
         23    2    1    2    0    0 -0.28740836619E+02 -0.21239219530E+01  0.16606262380E+03  0.19265863691E+03  0.93327426940E+02 0.  0.
        -11    1    1    2    0    0 -0.92831640200E+02  0.46151494149E+02  0.30328232765E+03  0.32051184705E+03  0.00000000000E+00 0. -1.
         11    1    1    2    0    0  0.12157247682E+03 -0.44027572196E+02 -0.46934495145E+03  0.48682951604E+03  0.00000000000E+00 0.  1.
        -15    1    3    3    0    0 -0.16394694813E+01 -0.37185960386E+02  0.13077987709E+03  0.13598535763E+03  0.17770000000E+01 0. -1.
         15    1    3    3    0    0 -0.27101367138E+02  0.35062038433E+02  0.35282746713E+02  0.56673279281E+02  0.17770000000E+01 0.  1.
</event>
<event>
 7    1  0.3234965E-006  0.5117858E+03  0.7546771E-02  0.9373817E-01
        -11   -1    0    0    0    0  0.00000000000E+00  0.00000000000E+00  0.50000000000E+03  0.50000000000E+03  0.00000000000E+00 0.  1.
         11   -1    0    0    0    0 -0.00000000000E+00 -0.00000000000E+00 -0.50000000000E+03  0.50000000000E+03  0.00000000000E+00 0. -1.
         23    2    1    2    0    0  0.49180457227E+02 -0.66348173779E+02 -0.30603726041E+03  0.33917586677E+03  0.12066758598E+03 0.  0.
        -11    1    1    2    0    0 -0.50547407225E+02  0.11193277307E+03  0.47251359867E+03  0.48821418147E+03  0.00000000000E+00 0.  1.
         11    1    1    2    0    0  0.13669499980E+01 -0.45584599290E+02 -0.16647633826E+03  0.17260995175E+03  0.00000000000E+00 0. -1.
        -15    1    3    3    0    0  0.14949066416E+02 -0.36509763586E+01  0.77741149861E+01  0.17332016845E+02  0.17770000000E+01 0.  1.
         15    1    3    3    0    0  0.34231390810E+02 -0.62697197420E+02 -0.31381137540E+03  0.32184384993E+03  0.17770000000E+01 0. -1.
</event>
<event>
 7    1  0.3234965E-006  0.5217654E+03  0.7546771E-02  0.9352383E-01
        -11   -1    0    0    0    0  0.00000000000E+00  0.00000000000E+00  0.50000000000E+03  0.50000000000E+03  0.00000000000E+00 0.  1.
         11   -1    0    0    0    0 -0.00000000000E+00 -0.00000000000E+00 -0.50000000000E+03  0.50000000000E+03  0.00000000000E+00 0. -1.
         23    2    1    2    0    0  0.69607645031E+02  0.11237236316E+03  0.27770748802E+03  0.32193423737E+03  0.95117990084E+02 0.  0.
        -11    1    1    2    0    0 -0.89404001496E+02  0.51546294948E+02  0.17112105881E+03  0.19983121071E+03  0.00000000000E+00 0.  1.
         11    1    1    2    0    0  0.19796356465E+02 -0.16391865811E+03 -0.44882854683E+03  0.47823455192E+03  0.00000000000E+00 0. -1.
        -15    1    3    3    0    0  0.88295717346E+02  0.11377214641E+03  0.24549144592E+03  0.28462157815E+03  0.17770000000E+01 0.  1.
         15    1    3    3    0    0 -0.18688072315E+02 -0.13997832557E+01  0.32216042104E+02  0.37312659217E+02  0.17770000000E+01 0. -1.
</event>
<event>
 7    1  0.3234965E-006  0.5066491E+03  0.7546771E-02  0.9385053E-01
        -11   -1    0    0    0    0  0.00000000000E+00  0.00000000000E+00  0.50000000000E+03  0.50000000000E+03  0.00000000000E+00 0.  1.
         11   -1    0    0    0    0 -0.00000000000E+00 -0.00000000000E+00 -0.50000000000E+03  0.50000000000E+03  0.00000000000E+00 0.  1.
         23    2    1    2    0    0  0.73050417171E+02  0.77424338466E+02  0.31334495422E+03  0.34207617915E+03  0.86603466275E+02 0.  0.
        -11    1    1    2    0    0  0.46398722685E+02  0.76115699301E+01  0.15771328963E+03  0.16457296008E+03  0.00000000000E+00 0.  1.
         11    1    1    2    0    0 -0.11944913986E+03 -0.85035908396E+02 -0.47105824385E+03  0.49335086077E+03  0.00000000000E+00 0.  1.
        -15    1    3    3    0    0  0.24031744084E+02 -0.17520446658E+02  0.81881020760E+02  0.87132944772E+02  0.17770000000E+01 0. -1.
         15    1    3    3    0    0  0.49018673087E+02  0.94944785124E+02  0.23146393346E+03  0.25494323437E+03  0.17770000000E+01 0.  1.
</event>
<event>
 7    1  0.3234965E-006  0.3212374E+03  0.7546771E-02  0.9922854E-01
        -11   -1    0    0    0    0  0.00000000000E+00  0.00000000000E+00  0.50000000000E+03  0.50000000000E+03  0.00000000000E+00 0. -1.
         11   -1    0    0    0    0 -0.00000000000E+00 -0.00000000000E+00 -0.50000000000E+03  0.50000000000E+03  0.00000000000E+00 0.  1.
         23    2    1    2    0    0 -0.24721551715E+03  0.23164078886E+02 -0.13606466350E+03  0.29790340041E+03  0.92632374723E+02 0.  0.
        -11    1    1    2    0    0 -0.27211423228E+02 -0.10137105032E+03  0.33708435841E+03  0.35304732839E+03  0.00000000000E+00 0. -1.
         11    1    1    2    0    0  0.27442694038E+03  0.78206971430E+02 -0.20101969491E+03  0.34904927121E+03  0.00000000000E+00 0.  1.
        -15    1    3    3    0    0 -0.15523607372E+03 -0.24714499619E+02 -0.55977549988E+02  0.16687027569E+03  0.17770000000E+01 0.  1.
         15    1    3    3    0    0 -0.91979443434E+02  0.47878578505E+02 -0.80087113514E+02  0.13103312472E+03  0.17770000000E+01 0. -1.
</event>
<event>
 7    1  0.3234965E-006  0.5174639E+03  0.7546771E-02  0.9361559E-01
        -11   -1    0    0    0    0  0.00000000000E+00  0.00000000000E+00  0.50000000000E+03  0.50000000000E+03  0.00000000000E+00 0.  1.
         11   -1    0    0    0    0 -0.00000000000E+00 -0.00000000000E+00 -0.50000000000E+03  0.50000000000E+03  0.00000000000E+00 0. -1.
         23    2    1    2    0    0 -0.10713457340E+03  0.66476256939E+02 -0.33939544050E+03  0.37315170982E+03  0.90310707848E+02 0.  0.
        -11    1    1    2    0    0  0.21829182819E+03 -0.42452821117E+02  0.42823769804E+03  0.48253610259E+03  0.00000000000E+00 0.  1.
         11    1    1    2    0    0 -0.11115725480E+03 -0.24023435822E+02 -0.88842257539E+02  0.14431218759E+03  0.00000000000E+00 0. -1.
        -15    1    3    3    0    0 -0.15022425156E+02 -0.14037364862E+02 -0.12162508399E+03  0.12336344538E+03  0.17770000000E+01 0.  1.
         15    1    3    3    0    0 -0.92112148241E+02  0.80513621801E+02 -0.21777035651E+03  0.24978826444E+03  0.17770000000E+01 0. -1.
</event>
<event>
 7    1  0.3234965E-006  0.5188050E+03  0.7546771E-02  0.9358688E-01
        -11   -1    0    0    0    0  0.00000000000E+00  0.00000000000E+00  0.50000000000E+03  0.50000000000E+03  0.00000000000E+00 0.  1.
         11   -1    0    0    0    0 -0.00000000000E+00 -0.00000000000E+00 -0.50000000000E+03  0.50000000000E+03  0.00000000000E+00 0. -1.
         23    2    1    2    0    0 -0.57853354763E+02 -0.18389421116E+02 -0.17937727337E+03  0.21014930547E+03  0.91111705733E+02 0.  0.
        -11    1    1    2    0    0 -0.30034468051E+01  0.10118542065E+03  0.47042647835E+03  0.48119495174E+03  0.00000000000E+00 0.  1.
         11    1    1    2    0    0  0.60856801568E+02 -0.82795999538E+02 -0.29104920499E+03  0.30865574279E+03  0.00000000000E+00 0. -1.
        -15    1    3    3    0    0 -0.65833968291E+02 -0.38257757866E+01 -0.18168320733E+03  0.19328914479E+03  0.17770000000E+01 0. -1.
         15    1    3    3    0    0  0.79806135282E+01 -0.14563645330E+02  0.23059339589E+01  0.16860160675E+02  0.17770000000E+01 0.  1.
</event>
<event>
 6    1  0.3234965E-006  0.3558112E+03  0.7546771E-02  0.9796805E-01
        -11   -1    0    0    0    0  0.00000000000E+00  0.00000000000E+00  0.50000000000E+03  0.50000000000E+03  0.00000000000E+00 0.  1.
         11   -1    0    0    0    0 -0.00000000000E+00 -0.00000000000E+00 -0.50000000000E+03  0.50000000000E+03  0.00000000000E+00 0.  1.
        -11    1    1    2    0    0 -0.30567602094E+02 -0.64168368282E+02  0.41218639023E+03  0.41826974320E+03  0.00000000000E+00 0.  1.
         11    1    1    2    0    0 -0.29195912904E+02  0.15944638773E+03 -0.27110479269E+03  0.31586921425E+03  0.00000000000E+00 0.  1.
        -15    1    1    2    0    0  0.96610656780E+02 -0.13518486605E+03 -0.12855469148E+03  0.21009053630E+03  0.17770000000E+01 0.  1.
         15    1    1    2    0    0 -0.36847141781E+02  0.39906846606E+02 -0.12526906058E+02  0.55770506254E+02  0.17770000000E+01 0. -1.
</event>
<event>
 7    1  0.3234965E-006  0.4313615E+03  0.7546771E-02  0.9568022E-01
        -11   -1    0    0    0    0  0.00000000000E+00  0.00000000000E+00  0.50000000000E+03  0.50000000000E+03  0.00000000000E+00 0. -1.
         11   -1    0    0    0    0 -0.00000000000E+00 -0.00000000000E+00 -0.50000000000E+03  0.50000000000E+03  0.00000000000E+00 0. -1.
         23    2    1    2    0    0 -0.12807155777E+03 -0.18505153103E+02 -0.38339887174E+03  0.41438413840E+03  0.89301482106E+02 0.  0.
        -11    1    1    2    0    0  0.22485792018E+03  0.11326082782E+03  0.37266559392E+03  0.44974297580E+03  0.00000000000E+00 0. -1.
         11    1    1    2    0    0 -0.96786362415E+02 -0.94755674722E+02  0.10733277820E+02  0.13587288579E+03  0.00000000000E+00 0. -1.
        -15    1    3    3    0    0 -0.55286087098E+02 -0.21170649758E+00 -0.28658832792E+03  0.29187775468E+03  0.17770000000E+01 0. -1.
         15    1    3    3    0    0 -0.72785470670E+02 -0.18293446605E+02 -0.96810543819E+02  0.12250638372E+03  0.17770000000E+01 0.  1.
</event>
<event>
 7    1  0.3234965E-006  0.5274728E+03  0.7546771E-02  0.9340352E-01
        -11   -1    0    0    0    0  0.00000000000E+00  0.00000000000E+00  0.50000000000E+03  0.50000000000E+03  0.00000000000E+00 0.  1.
         11   -1    0    0    0    0 -0.00000000000E+00 -0.00000000000E+00 -0.50000000000E+03  0.50000000000E+03  0.00000000000E+00 0.  1.
         23    2    1    2    0    0 -0.11127255934E+01  0.47329692761E+02 -0.16777475208E+03  0.19894473644E+03  0.95860850956E+02 0.  0.
        -11    1    1    2    0    0  0.12157516151E+03  0.65243875679E+02  0.45193436252E+03  0.47252719629E+03  0.00000000000E+00 0.  1.
         11    1    1    2    0    0 -0.12046243591E+03 -0.11257356844E+03 -0.28415961044E+03  0.32852806727E+03  0.00000000000E+00 0.  1.
        -15    1    3    3    0    0  0.34413794963E+02  0.17500238911E+02 -0.18943808259E+02  0.43041761652E+02  0.17770000000E+01 0. -1.
         15    1    3    3    0    0 -0.35526520557E+02  0.29829453850E+02 -0.14883094382E+03  0.15590297479E+03  0.17770000000E+01 0.  1.
</event>
<event>
 7    1  0.3234965E-006  0.5094653E+03  0.7546771E-02  0.9378876E-01
        -11   -1    0    0    0    0  0.00000000000E+00  0.00000000000E+00  0.50000000000E+03  0.50000000000E+03  0.00000000000E+00 0. -1.
         11   -1    0    0    0    0 -0.00000000000E+00 -0.00000000000E+00 -0.50000000000E+03  0.50000000000E+03  0.00000000000E+00 0. -1.
         23    2    1    2    0    0  0.40376965370E+02 -0.53002980113E+02 -0.21323029126E+03  0.24022589109E+03  0.88327268747E+02 0.  0.
        -11    1    1    2    0    0 -0.11553395905E+03  0.74581210388E+02  0.47086501698E+03  0.49053472543E+03  0.00000000000E+00 0. -1.
         11    1    1    2    0    0  0.75156993680E+02 -0.21578230275E+02 -0.25763472572E+03  0.26923938348E+03  0.00000000000E+00 0. -1.
        -15    1    3    3    0    0  0.45280296369E+02 -0.21125004132E+02 -0.40054195240E+02  0.64062994967E+02  0.17770000000E+01 0.  1.
         15    1    3    3    0    0 -0.49033309993E+01 -0.31877975980E+02 -0.17317609602E+03  0.17616289612E+03  0.17770000000E+01 0. -1.
</event>
<event>
 7    1  0.3234965E-006  0.3791667E+03  0.7546771E-02  0.9720042E-01
        -11   -1    0    0    0    0  0.00000000000E+00  0.00000000000E+00  0.50000000000E+03  0.50000000000E+03  0.00000000000E+00 0. -1.
         11   -1    0    0    0    0 -0.00000000000E+00 -0.00000000000E+00 -0.50000000000E+03  0.50000000000E+03  0.00000000000E+00 0. -1.
         23    2    1    2    0    0 -0.17661368395E+03 -0.70891771348E+02 -0.42540318303E+02  0.21699474057E+03  0.95178790434E+02 0.  0.
        -11    1    1    2    0    0  0.71865117998E+01  0.86222164639E+02  0.38821364963E+03  0.39773828756E+03  0.00000000000E+00 0. -1.
         11    1    1    2    0    0  0.16942717215E+03 -0.15330393291E+02 -0.34567333133E+03  0.38526697187E+03  0.00000000000E+00 0. -1.
        -15    1    3    3    0    0 -0.81421517977E+01  0.17213996371E+02  0.72543102741E+01  0.20454805145E+02  0.17770000000E+01 0.  1.
         15    1    3    3    0    0 -0.16847153216E+03 -0.88105767719E+02 -0.49794628577E+02  0.19653993542E+03  0.17770000000E+01 0. -1.
</event>
<event>
 7    1  0.3234965E-006  0.5169101E+03  0.7546771E-02  0.9362747E-01
        -11   -1    0    0    0    0  0.00000000000E+00  0.00000000000E+00  0.50000000000E+03  0.50000000000E+03  0.00000000000E+00 0. -1.
         11   -1    0    0    0    0 -0.00000000000E+00 -0.00000000000E+00 -0.50000000000E+03  0.50000000000E+03  0.00000000000E+00 0. -1.
         23    2    1    2    0    0  0.55623033598E+02  0.42090918326E+02 -0.26620726359E+03  0.28917679190E+03  0.88833228665E+02 0.  0.
        -11    1    1    2    0    0 -0.12738530332E+03  0.45581810489E+02  0.46375760517E+03  0.48308988118E+03  0.00000000000E+00 0. -1.
         11    1    1    2    0    0  0.71762269719E+02 -0.87672728815E+02 -0.19755034158E+03  0.22773332692E+03  0.00000000000E+00 0. -1.
        -15    1    3    3    0    0  0.32248631035E+02  0.39257388379E+02 -0.25977715524E+03  0.26470444813E+03  0.17770000000E+01 0. -1.
         15    1    3    3    0    0  0.23374402562E+02  0.28335299465E+01 -0.64301083422E+01  0.24472343766E+02  0.17770000000E+01 0.  1.
</event>
<event>
 7    1  0.3234965E-006  0.5076350E+03  0.7546771E-02  0.9382886E-01
        -11   -1    0    0    0    0  0.00000000000E+00  0.00000000000E+00  0.50000000000E+03  0.50000000000E+03  0.00000000000E+00 0.  1.
         11   -1    0    0    0    0 -0.00000000000E+00 -0.00000000000E+00 -0.50000000000E+03  0.50000000000E+03  0.00000000000E+00 0. -1.
         23    2    1    2    0    0 -0.10805603316E+03 -0.44567846171E+02  0.29603211891E+03  0.33045380491E+03  0.88894896040E+02 0.  0.
        -11    1    1    2    0    0 -0.36099310145E+02  0.75567475554E+01  0.17330006839E+03  0.17718120196E+03  0.00000000000E+00 0.  1.
         11    1    1    2    0    0  0.14415534330E+03  0.37011098616E+02 -0.46933218729E+03  0.49236499312E+03  0.00000000000E+00 0. -1.
        -15    1    3    3    0    0 -0.18924827945E+02 -0.47511208132E+02  0.15826224102E+03  0.16632966865E+03  0.17770000000E+01 0.  1.
         15    1    3    3    0    0 -0.89131205213E+02  0.29433619612E+01  0.13776987789E+03  0.16412413626E+03  0.17770000000E+01 0. -1.
</event>
<event>
 7    1  0.3234965E-006  0.4129858E+03  0.7546771E-02  0.9618791E-01
        -11   -1    0    0    0    0  0.00000000000E+00  0.00000000000E+00  0.50000000000E+03  0.50000000000E+03  0.00000000000E+00 0. -1.
         11   -1    0    0    0    0 -0.00000000000E+00 -0.00000000000E+00 -0.50000000000E+03  0.50000000000E+03  0.00000000000E+00 0. -1.
         23    2    1    2    0    0  0.55832353591E+02 -0.52639975458E+02 -0.11250107501E+03  0.16287772378E+03  0.89355706602E+02 0.  0.
        -11    1    1    2    0    0  0.13785374015E+03 -0.17073981882E+02  0.43382222117E+03  0.45551826979E+03  0.00000000000E+00 0. -1.
         11    1    1    2    0    0 -0.19368609374E+03  0.69713957340E+02 -0.32132114615E+03  0.38160400643E+03  0.00000000000E+00 0. -1.
        -15    1    3    3    0    0  0.41987358653E+02 -0.38990045475E+02 -0.95801200865E+01  0.58121410536E+02  0.17770000000E+01 0. -1.
         15    1    3    3    0    0  0.13844994938E+02 -0.13649929983E+02 -0.10292095493E+03  0.10475631325E+03  0.17770000000E+01 0.  1.
</event>
<event>
 7    1  0.3234965E-006  0.5241294E+03  0.7546771E-02  0.9347380E-01
        -11   -1    0    0    0    0  0.00000000000E+00  0.00000000000E+00  0.50000000000E+03  0.50000000000E+03  0.00000000000E+00 0. -1.
         11   -1    0    0    0    0 -0.00000000000E+00 -0.00000000000E+00 -0.50000000000E+03  0.50000000000E+03  0.00000000000E+00 0. -1.
         23    2    1    2    0    0 -0.35641461385E+02 -0.10143310848E+03 -0.37345719695E+03  0.39912757989E+03  0.90959099647E+02 0.  0.
        -11    1    1    2    0    0 -0.55398866535E+02  0.12256102131E+03  0.45646754314E+03  0.47587062979E+03  0.00000000000E+00 0. -1.
         11    1    1    2    0    0  0.91040327920E+02 -0.21127912835E+02 -0.83010346192E+02  0.12500179032E+03  0.00000000000E+00 0. -1.
        -15    1    3    3    0    0  0.28416384186E+02 -0.34532113632E+02 -0.83609017406E+02  0.94834504705E+02  0.17770000000E+01 0.  1.
         15    1    3    3    0    0 -0.64057845570E+02 -0.66900994847E+02 -0.28984817954E+03  0.30429307518E+03  0.17770000000E+01 0. -1.
</event>
<event>
 7    1  0.3234965E-006  0.5392544E+03  0.7546771E-02  0.9316020E-01
        -11   -1    0    0    0    0  0.00000000000E+00  0.00000000000E+00  0.50000000000E+03  0.50000000000E+03  0.00000000000E+00 0. -1.
         11   -1    0    0    0    0 -0.00000000000E+00 -0.00000000000E+00 -0.50000000000E+03  0.50000000000E+03  0.00000000000E+00 0.  1.
         23    2    1    2    0    0  0.30322042669E+01 -0.12669078145E+03  0.39084787252E+02  0.16066331339E+03  0.90693612281E+02 0.  0.
        -11    1    1    2    0    0  0.25935436093E+03 -0.11989668228E+03  0.24837730376E+03  0.37859105111E+03  0.00000000000E+00 0. -1.
         11    1    1    2    0    0 -0.26238656520E+03  0.24658746373E+03 -0.28746209102E+03  0.46074563550E+03  0.00000000000E+00 0.  1.
        -15    1    3    3    0    0  0.29795043835E+02 -0.27716842981E+02 -0.16588820755E+02  0.43980844978E+02  0.17770000000E+01 0.  1.
         15    1    3    3    0    0 -0.26762839568E+02 -0.98973938465E+02  0.55673608007E+02  0.11668246841E+03  0.17770000000E+01 0. -1.
</event>
<event>
 7    1  0.3234965E-006  0.5108679E+03  0.7546771E-02  0.9375815E-01
        -11   -1    0    0    0    0  0.00000000000E+00  0.00000000000E+00  0.50000000000E+03  0.50000000000E+03  0.00000000000E+00 0. -1.
         11   -1    0    0    0    0 -0.00000000000E+00 -0.00000000000E+00 -0.50000000000E+03  0.50000000000E+03  0.00000000000E+00 0.  1.
         23    2    1    2    0    0  0.10475305752E+03  0.15807547333E+02 -0.32231024147E+03  0.35380999740E+03  0.10037201249E+03 0.  0.
        -11    1    1    2    0    0 -0.15668011222E+03  0.33312678582E+02  0.46215999876E+03  0.48913214633E+03  0.00000000000E+00 0. -1.
         11    1    1    2    0    0  0.51927054695E+02 -0.49120225915E+02 -0.13984975729E+03  0.15705785627E+03  0.00000000000E+00 0.  1.
        -15    1    3    3    0    0  0.36807217996E+02 -0.25378714806E+02 -0.38324147903E+02  0.58913058852E+02  0.17770000000E+01 0. -1.
         15    1    3    3    0    0  0.67945839526E+02  0.41186262139E+02 -0.28398609356E+03  0.29489693855E+03  0.17770000000E+01 0.  1.
</event>
<event>
 7    1  0.3234965E-006  0.5225250E+03  0.7546771E-02  0.9350773E-01
        -11   -1    0    0    0    0  0.00000000000E+00  0.00000000000E+00  0.50000000000E+03  0.50000000000E+03  0.00000000000E+00 0. -1.
         11   -1    0    0    0    0 -0.00000000000E+00 -0.00000000000E+00 -0.50000000000E+03  0.50000000000E+03  0.00000000000E+00 0.  1.
         23    2    1    2    0    0  0.89370739100E+01 -0.22347305609E+02 -0.32443564351E+03  0.33751634217E+03  0.89886156294E+02 0.  0.
        -11    1    1    2    0    0 -0.13853724109E+03  0.41899385971E+02  0.45501018211E+03  0.47747501666E+03  0.00000000000E+00 0. -1.
         11    1    1    2    0    0  0.12960016718E+03 -0.19552080362E+02 -0.13057453860E+03  0.18500864117E+03  0.00000000000E+00 0.  1.
        -15    1    3    3    0    0  0.36682847060E+02 -0.38130405930E+02 -0.26283469522E+03  0.26811339740E+03  0.17770000000E+01 0.  1.
         15    1    3    3    0    0 -0.27745773150E+02  0.15783100321E+02 -0.61600948293E+02  0.69402944772E+02  0.17770000000E+01 0. -1.
</event>
<event>
 7    1  0.3234965E-006  0.3923116E+03  0.7546771E-02  0.9679394E-01
        -11   -1    0    0    0    0  0.00000000000E+00  0.00000000000E+00  0.50000000000E+03  0.50000000000E+03  0.00000000000E+00 0.  1.
         11   -1    0    0    0    0 -0.00000000000E+00 -0.00000000000E+00 -0.50000000000E+03  0.50000000000E+03  0.00000000000E+00 0.  1.
         23    2    1    2    0    0  0.18833222790E+03 -0.90686190147E+01 -0.28420075912E+03  0.35496083139E+03  0.98365910861E+02 0.  0.
        -11    1    1    2    0    0 -0.74915640715E+02 -0.70821865081E+02  0.43094192217E+03  0.44310160244E+03  0.00000000000E+00 0.  1.
         11    1    1    2    0    0 -0.11341658719E+03  0.79890484095E+02 -0.14674116305E+03  0.20193756617E+03  0.00000000000E+00 0.  1.
        -15    1    3    3    0    0  0.19890518404E+02 -0.61768776140E+01  0.38533603260E+01  0.21255414704E+02  0.17770000000E+01 0. -1.
         15    1    3    3    0    0  0.16844170950E+03 -0.28917414007E+01 -0.28805411945E+03  0.33370541669E+03  0.17770000000E+01 0.  1.
</event>
<event>
 7    1  0.3234965E-006  0.4026239E+03  0.7546771E-02  0.9648680E-01
        -11   -1    0    0    0    0  0.00000000000E+00  0.00000000000E+00  0.50000000000E+03  0.50000000000E+03  0.00000000000E+00 0. -1.
         11   -1    0    0    0    0 -0.00000000000E+00 -0.00000000000E+00 -0.50000000000E+03  0.50000000000E+03  0.00000000000E+00 0. -1.
         23    2    1    2    0    0 -0.18461359929E+02 -0.28393547049E+02 -0.34367375276E+03  0.35435259317E+03  0.79417231294E+02 0.  0.
        -11    1    1    2    0    0  0.17122956519E+03 -0.19899304828E+02  0.43027454828E+03  0.46352101702E+03  0.00000000000E+00 0. -1.
         11    1    1    2    0    0 -0.15276820526E+03  0.48292851876E+02 -0.86600795523E+02  0.18212638981E+03  0.00000000000E+00 0. -1.
        -15    1    3    3    0    0 -0.18024413969E+02 -0.55166431515E+02 -0.26298015851E+03  0.26931382468E+03  0.17770000000E+01 0. -1.
         15    1    3    3    0    0 -0.43694596046E+00  0.26772884466E+02 -0.80693594247E+02  0.85038768488E+02  0.17770000000E+01 0.  1.
</event>
<event>
 7    1  0.3234965E-006  0.5267192E+03  0.7546771E-02  0.9341931E-01
        -11   -1    0    0    0    0  0.00000000000E+00  0.00000000000E+00  0.50000000000E+03  0.50000000000E+03  0.00000000000E+00 0. -1.
         11   -1    0    0    0    0 -0.00000000000E+00 -0.00000000000E+00 -0.50000000000E+03  0.50000000000E+03  0.00000000000E+00 0.  1.
         23    2    1    2    0    0  0.81441870674E+02  0.23158061152E+02 -0.29749706190E+03  0.32257793696E+03  0.91558448435E+02 0.  0.
        -11    1    1    2    0    0 -0.42526833345E+02 -0.16089661843E+03  0.44305584088E+03  0.47328081676E+03  0.00000000000E+00 0. -1.
         11    1    1    2    0    0 -0.38915037329E+02  0.13773855728E+03 -0.14555877898E+03  0.20414124627E+03  0.00000000000E+00 0.  1.
        -15    1    3    3    0    0  0.76208512390E+02 -0.33058216195E+01 -0.28038756004E+03  0.29058390762E+03  0.17770000000E+01 0.  1.
         15    1    3    3    0    0  0.52333582839E+01  0.26463882772E+02 -0.17109501864E+02  0.31994029338E+02  0.17770000000E+01 0. -1.
</event>
<event>
 7    1  0.3234965E-006  0.4473319E+03  0.7546771E-02  0.9526042E-01
        -11   -1    0    0    0    0  0.00000000000E+00  0.00000000000E+00  0.50000000000E+03  0.50000000000E+03  0.00000000000E+00 0.  1.
         11   -1    0    0    0    0 -0.00000000000E+00 -0.00000000000E+00 -0.50000000000E+03  0.50000000000E+03  0.00000000000E+00 0. -1.
         23    2    1    2    0    0 -0.70068182025E+02 -0.84079502040E+02 -0.43062899856E+03  0.45326343347E+03  0.89596277405E+02 0.  0.
        -11    1    1    2    0    0 -0.37530571161E+02  0.90941672318E+02  0.42771074997E+03  0.43887972974E+03  0.00000000000E+00 0.  1.
         11    1    1    2    0    0  0.10759875319E+03 -0.68621702776E+01  0.29182485857E+01  0.10785683679E+03  0.00000000000E+00 0. -1.
        -15    1    3    3    0    0  0.19547346065E+02 -0.22397383775E+02 -0.59860158567E+02  0.66859089515E+02  0.17770000000E+01 0.  1.
         15    1    3    3    0    0 -0.89615528090E+02 -0.61682118265E+02 -0.37076883999E+03  0.38640434395E+03  0.17770000000E+01 0. -1.
</event>
<event>
 7    1  0.3234965E-006  0.3609839E+03  0.7546771E-02  0.9779270E-01
        -11   -1    0    0    0    0  0.00000000000E+00  0.00000000000E+00  0.50000000000E+03  0.50000000000E+03  0.00000000000E+00 0.  1.
         11   -1    0    0    0    0 -0.00000000000E+00 -0.00000000000E+00 -0.50000000000E+03  0.50000000000E+03  0.00000000000E+00 0. -1.
         23    2    1    2    0    0  0.15773815351E+03 -0.15771660586E+03  0.32524931529E+02  0.24365931694E+03  0.92499398523E+02 0.  0.
        -11    1    1    2    0    0  0.85607746583E+02  0.17895323416E+03  0.29024346005E+03  0.35155968539E+03  0.00000000000E+00 0.  1.
         11    1    1    2    0    0 -0.24334590009E+03 -0.21236628295E+02 -0.32276839158E+03  0.40478099767E+03  0.00000000000E+00 0. -1.
        -15    1    3    3    0    0  0.10431728556E+03 -0.46017009564E+02 -0.53843688441E+01  0.11415695508E+03  0.17770000000E+01 0.  1.
         15    1    3    3    0    0  0.53420867944E+02 -0.11169959630E+03  0.37909300373E+02  0.12950236186E+03  0.17770000000E+01 0. -1.
</event>
<event>
 7    1  0.3234965E-006  0.5092186E+03  0.7546771E-02  0.9379416E-01
        -11   -1    0    0    0    0  0.00000000000E+00  0.00000000000E+00  0.50000000000E+03  0.50000000000E+03  0.00000000000E+00 0. -1.
         11   -1    0    0    0    0 -0.00000000000E+00 -0.00000000000E+00 -0.50000000000E+03  0.50000000000E+03  0.00000000000E+00 0. -1.
         23    2    1    2    0    0  0.21015920919E+02  0.71720986398E+02 -0.25413995251E+03  0.28009122130E+03  0.90985756961E+02 0.  0.
        -11    1    1    2    0    0  0.16259541872E+01 -0.16479527128E+03  0.46228379062E+03  0.49078144650E+03  0.00000000000E+00 0. -1.
         11    1    1    2    0    0 -0.22641875106E+02  0.93074284884E+02 -0.20814383811E+03  0.22912733219E+03  0.00000000000E+00 0. -1.
        -15    1    3    3    0    0  0.50789749395E+02  0.30644341481E+02 -0.86247484215E+02  0.10469221829E+03  0.17770000000E+01 0.  1.
         15    1    3    3    0    0 -0.29773828477E+02  0.41076644918E+02 -0.16789246829E+03  0.17539900301E+03  0.17770000000E+01 0. -1.
</event>
<event>
 7    1  0.3234965E-006  0.5166067E+03  0.7546771E-02  0.9363399E-01
        -11   -1    0    0    0    0  0.00000000000E+00  0.00000000000E+00  0.50000000000E+03  0.50000000000E+03  0.00000000000E+00 0. -1.
         11   -1    0    0    0    0 -0.00000000000E+00 -0.00000000000E+00 -0.50000000000E+03  0.50000000000E+03  0.00000000000E+00 0.  1.
         23    2    1    2    0    0 -0.73144532529E+02  0.74588612637E+02 -0.16819818206E+03  0.21952961561E+03  0.94810547451E+02 0.  0.
        -11    1    1    2    0    0  0.57297234326E+02 -0.16488751263E+03  0.45077516058E+03  0.48339332875E+03  0.00000000000E+00 0. -1.
         11    1    1    2    0    0  0.15847298203E+02  0.90298899992E+02 -0.28257697852E+03  0.29707705564E+03  0.00000000000E+00 0.  1.
        -15    1    3    3    0    0 -0.70230304084E+02  0.35401504429E+02 -0.16148179223E+03  0.17962485652E+03  0.17770000000E+01 0.  1.
         15    1    3    3    0    0 -0.29142284449E+01  0.39187108207E+02 -0.67163898310E+01  0.39904759095E+02  0.17770000000E+01 0. -1.
</event>
<event>
 7    1  0.3234965E-006  0.3396801E+03  0.7546771E-02  0.9853610E-01
        -11   -1    0    0    0    0  0.00000000000E+00  0.00000000000E+00  0.50000000000E+03  0.50000000000E+03  0.00000000000E+00 0. -1.
         11   -1    0    0    0    0 -0.00000000000E+00 -0.00000000000E+00 -0.50000000000E+03  0.50000000000E+03  0.00000000000E+00 0. -1.
         23    2    1    2    0    0  0.19767915061E+02 -0.16917896616E+02 -0.25823717500E+03  0.27274919675E+03  0.83837342998E+02 0.  0.
        -11    1    1    2    0    0 -0.38165132556E+02 -0.25114604937E+03  0.35942618778E+03  0.44013418399E+03  0.00000000000E+00 0. -1.
         11    1    1    2    0    0  0.18397217495E+02  0.26806394599E+03 -0.10118901277E+03  0.28711661926E+03  0.00000000000E+00 0. -1.
        -15    1    3    3    0    0  0.44909612011E+02  0.68498477459E+01 -0.19898398051E+03  0.20411167505E+03  0.17770000000E+01 0. -1.
         15    1    3    3    0    0 -0.25141696949E+02 -0.23767744362E+02 -0.59253194498E+02  0.68637521697E+02  0.17770000000E+01 0.  1.
</event>
<event>
 7    1  0.3234965E-006  0.4577467E+03  0.7546771E-02  0.9499658E-01
        -11   -1    0    0    0    0  0.00000000000E+00  0.00000000000E+00  0.50000000000E+03  0.50000000000E+03  0.00000000000E+00 0. -1.
         11   -1    0    0    0    0 -0.00000000000E+00 -0.00000000000E+00 -0.50000000000E+03  0.50000000000E+03  0.00000000000E+00 0.  1.
         23    2    1    2    0    0 -0.40827549972E+02 -0.31780830519E+02  0.41264507716E+03  0.42578473923E+03  0.91322365437E+02 0.  0.
        -11    1    1    2    0    0 -0.61441146416E+02 -0.30425179610E+02  0.57245156395E+02  0.89318049452E+02  0.00000000000E+00 0. -1.
         11    1    1    2    0    0  0.10226869639E+03  0.62206010129E+02 -0.46989023355E+03  0.48489721132E+03  0.00000000000E+00 0.  1.
        -15    1    3    3    0    0 -0.66317221102E+02 -0.82509067447E+01  0.21645755401E+03  0.22654598141E+03  0.17770000000E+01 0.  1.
         15    1    3    3    0    0  0.25489671129E+02 -0.23529923774E+02  0.19618752315E+03  0.19923875782E+03  0.17770000000E+01 0. -1.
</event>
<event>
 7    1  0.3234965E-006  0.4198801E+03  0.7546771E-02  0.9599419E-01
        -11   -1    0    0    0    0  0.00000000000E+00  0.00000000000E+00  0.50000000000E+03  0.50000000000E+03  0.00000000000E+00 0. -1.
         11   -1    0    0    0    0 -0.00000000000E+00 -0.00000000000E+00 -0.50000000000E+03  0.50000000000E+03  0.00000000000E+00 0. -1.
         23    2    1    2    0    0  0.45481839763E+02  0.44452881420E+02  0.10300436586E+03  0.15155924814E+03  0.91190185310E+02 0.  0.
        -11    1    1    2    0    0  0.25005764933E+03  0.29562280057E+03 -0.90921470359E+02  0.39772903084E+03  0.00000000000E+00 0. -1.
         11    1    1    2    0    0 -0.29553948909E+03 -0.34007568199E+03 -0.12082895501E+02  0.45071172101E+03  0.00000000000E+00 0. -1.
        -15    1    3    3    0    0 -0.14456437413E+02  0.43080980224E+02  0.21340215778E+02  0.50234669086E+02  0.17770000000E+01 0. -1.
         15    1    3    3    0    0  0.59938277176E+02  0.13719011963E+01  0.81664150081E+02  0.10132457906E+03  0.17770000000E+01 0.  1.
</event>
<event>
 7    1  0.3234965E-006  0.3822973E+03  0.7546771E-02  0.9710203E-01
        -11   -1    0    0    0    0  0.00000000000E+00  0.00000000000E+00  0.50000000000E+03  0.50000000000E+03  0.00000000000E+00 0. -1.
         11   -1    0    0    0    0 -0.00000000000E+00 -0.00000000000E+00 -0.50000000000E+03  0.50000000000E+03  0.00000000000E+00 0. -1.
         23    2    1    2    0    0  0.48598362753E+02 -0.43613556746E+01 -0.37075401296E+03  0.38519480169E+03  0.92388715984E+02 0.  0.
        -11    1    1    2    0    0 -0.96086854327E+02  0.21027092352E+03  0.32459502806E+03  0.39850781309E+03  0.00000000000E+00 0. -1.
         11    1    1    2    0    0  0.47488491574E+02 -0.20590956785E+03  0.46158984903E+02  0.21629738522E+03  0.00000000000E+00 0. -1.
        -15    1    3    3    0    0  0.11940502746E+02  0.40613586254E+02 -0.10605427559E+03  0.11420466757E+03  0.17770000000E+01 0.  1.
         15    1    3    3    0    0  0.36657860007E+02 -0.44974941928E+02 -0.26469973737E+03  0.27099013412E+03  0.17770000000E+01 0. -1.
</event>
<event>
 7    1  0.3234965E-006  0.5169648E+03  0.7546771E-02  0.9362630E-01
        -11   -1    0    0    0    0  0.00000000000E+00  0.00000000000E+00  0.50000000000E+03  0.50000000000E+03  0.00000000000E+00 0. -1.
         11   -1    0    0    0    0 -0.00000000000E+00 -0.00000000000E+00 -0.50000000000E+03  0.50000000000E+03  0.00000000000E+00 0. -1.
         23    2    1    2    0    0  0.41900413306E+02 -0.55322452338E+02  0.28891347564E+03  0.31075172946E+03  0.90991332489E+02 0.  0.
        -11    1    1    2    0    0 -0.19116272129E+02 -0.13554489451E+03  0.15422705701E+03  0.20621308252E+03  0.00000000000E+00 0. -1.
         11    1    1    2    0    0 -0.22784141177E+02  0.19086734685E+03 -0.44314053266E+03  0.48303518802E+03  0.00000000000E+00 0. -1.
        -15    1    3    3    0    0  0.70829211912E+02 -0.35824514185E+02  0.19421629622E+03  0.20981730272E+03  0.17770000000E+01 0.  1.
         15    1    3    3    0    0 -0.28928798606E+02 -0.19497938154E+02  0.94697179426E+02  0.10093442674E+03  0.17770000000E+01 0. -1.
</event>
<event>
 7    1  0.3234965E-006  0.4875617E+03  0.7546771E-02  0.9428080E-01
        -11   -1    0    0    0    0  0.00000000000E+00  0.00000000000E+00  0.50000000000E+03  0.50000000000E+03  0.00000000000E+00 0. -1.
         11   -1    0    0    0    0 -0.00000000000E+00 -0.00000000000E+00 -0.50000000000E+03  0.50000000000E+03  0.00000000000E+00 0.  1.
         23    2    1    2    0    0 -0.23395503597E+02  0.57212809884E+02 -0.48072293885E+03  0.49322474979E+03  0.91408176143E+02 0.  0.
        -11    1    1    2    0    0  0.49598017281E+02 -0.70621030237E+02  0.46589002282E+03  0.47381516079E+03  0.00000000000E+00 0. -1.
         11    1    1    2    0    0 -0.26202513684E+02  0.13408220353E+02  0.14832916034E+02  0.32960089419E+02  0.00000000000E+00 0.  1.
        -15    1    3    3    0    0 -0.52479935082E+02  0.61510109887E+02 -0.35611484109E+03  0.36518293358E+03  0.17770000000E+01 0.  1.
         15    1    3    3    0    0  0.29084431484E+02 -0.42973000031E+01 -0.12460809777E+03  0.12804181622E+03  0.17770000000E+01 0. -1.
</event>
<event>
 7    1  0.3234965E-006  0.3623071E+03  0.7546771E-02  0.9774835E-01
        -11   -1    0    0    0    0  0.00000000000E+00  0.00000000000E+00  0.50000000000E+03  0.50000000000E+03  0.00000000000E+00 0. -1.
         11   -1    0    0    0    0 -0.00000000000E+00 -0.00000000000E+00 -0.50000000000E+03  0.50000000000E+03  0.00000000000E+00 0. -1.
         23    2    1    2    0    0 -0.87019109874E+02  0.15304820719E+03 -0.37710627184E+03  0.42554344155E+03  0.88780635170E+02 0.  0.
        -11    1    1    2    0    0 -0.10965970794E+03 -0.22822158973E+02  0.30939521917E+03  0.32904635560E+03  0.00000000000E+00 0. -1.
         11    1    1    2    0    0  0.19667881781E+03 -0.13022604822E+03  0.67711052666E+02  0.24541020285E+03  0.00000000000E+00 0. -1.
        -15    1    3    3    0    0 -0.30911928254E+02  0.99935008092E+02 -0.13135736310E+03  0.16792994885E+03  0.17770000000E+01 0.  1.
         15    1    3    3    0    0 -0.56107181619E+02  0.53113199098E+02 -0.24574890874E+03  0.25761349271E+03  0.17770000000E+01 0. -1.
</event>
<event>
 7    1  0.3234965E-006  0.3554552E+03  0.7546771E-02  0.9798024E-01
        -11   -1    0    0    0    0  0.00000000000E+00  0.00000000000E+00  0.50000000000E+03  0.50000000000E+03  0.00000000000E+00 0.  1.
         11   -1    0    0    0    0 -0.00000000000E+00 -0.00000000000E+00 -0.50000000000E+03  0.50000000000E+03  0.00000000000E+00 0.  1.
         23    2    1    2    0    0 -0.93390710712E+02 -0.11911623642E+03 -0.34998092667E+03  0.39201914098E+03  0.91004698979E+02 0.  0.
        -11    1    1    2    0    0 -0.91428614719E+02 -0.56925077143E+02  0.33546047243E+03  0.35232567968E+03  0.00000000000E+00 0.  1.
         11    1    1    2    0    0  0.18481932543E+03  0.17604131356E+03  0.14520454245E+02  0.25565517934E+03  0.00000000000E+00 0.  1.
        -15    1    3    3    0    0 -0.25961824914E+02 -0.93555423581E+02 -0.14322029529E+03  0.17303711841E+03  0.17770000000E+01 0.  1.
         15    1    3    3    0    0 -0.67428885798E+02 -0.25560812836E+02 -0.20676063138E+03  0.21898202258E+03  0.17770000000E+01 0. -1.
</event>
<event>
 7    1  0.3234965E-006  0.3413653E+03  0.7546771E-02  0.9847519E-01
        -11   -1    0    0    0    0  0.00000000000E+00  0.00000000000E+00  0.50000000000E+03  0.50000000000E+03  0.00000000000E+00 0. -1.
         11   -1    0    0    0    0 -0.00000000000E+00 -0.00000000000E+00 -0.50000000000E+03  0.50000000000E+03  0.00000000000E+00 0.  1.
         23    2    1    2    0    0  0.50545131787E+02 -0.24320165200E+03 -0.54992379541E+02  0.27140753272E+03  0.94530593589E+02 0.  0.
        -11    1    1    2    0    0  0.22849723786E+03  0.15535466154E+03  0.25356439599E+03  0.37502128137E+03  0.00000000000E+00 0. -1.
         11    1    1    2    0    0 -0.27904236964E+03  0.87846990464E+02 -0.19857201645E+03  0.35357118591E+03  0.00000000000E+00 0.  1.
        -15    1    3    3    0    0  0.68898534712E+02 -0.18018009845E+03 -0.12756552223E+02  0.19333329594E+03  0.17770000000E+01 0. -1.
         15    1    3    3    0    0 -0.18353402926E+02 -0.63021553551E+02 -0.42235827318E+02  0.78074236783E+02  0.17770000000E+01 0.  1.
</event>
<event>
 7    1  0.3234965E-006  0.3938695E+03  0.7546771E-02  0.9674690E-01
        -11   -1    0    0    0    0  0.00000000000E+00  0.00000000000E+00  0.50000000000E+03  0.50000000000E+03  0.00000000000E+00 0. -1.
         11   -1    0    0    0    0 -0.00000000000E+00 -0.00000000000E+00 -0.50000000000E+03  0.50000000000E+03  0.00000000000E+00 0.  1.
         23    2    1    2    0    0  0.53240480508E+02  0.88442444708E+02 -0.13460042806E+03  0.19420428402E+03  0.94559049831E+02 0.  0.
        -11    1    1    2    0    0  0.20713875541E+03  0.15466828414E+02  0.38009818301E+03  0.43315160799E+03  0.00000000000E+00 0. -1.
         11    1    1    2    0    0 -0.26037923592E+03 -0.10390927312E+03 -0.24549775495E+03  0.37264410799E+03  0.00000000000E+00 0.  1.
        -15    1    3    3    0    0  0.29682108966E+02 -0.94978369837E+01 -0.63918999210E+02  0.71133906747E+02  0.17770000000E+01 0. -1.
         15    1    3    3    0    0  0.23558371542E+02  0.97940281692E+02 -0.70681428852E+02  0.12307037727E+03  0.17770000000E+01 0.  1.
</event>
<event>
 7    1  0.3234965E-006  0.5301509E+03  0.7546771E-02  0.9334762E-01
        -11   -1    0    0    0    0  0.00000000000E+00  0.00000000000E+00  0.50000000000E+03  0.50000000000E+03  0.00000000000E+00 0.  1.
         11   -1    0    0    0    0 -0.00000000000E+00 -0.00000000000E+00 -0.50000000000E+03  0.50000000000E+03  0.00000000000E+00 0. -1.
         23    2    1    2    0    0  0.13216801736E+02 -0.98489477561E+01 -0.40865588982E+02  0.10112063321E+03  0.91014836585E+02 0.  0.
        -11    1    1    2    0    0  0.28656554888E+02  0.90069475445E+02  0.46024396547E+03  0.46984914206E+03  0.00000000000E+00 0.  1.
         11    1    1    2    0    0 -0.41873356623E+02 -0.80220527689E+02 -0.41937837649E+03  0.42903022472E+03  0.00000000000E+00 0. -1.
        -15    1    3    3    0    0  0.43612411719E+02  0.50480187068E+01  0.48533217851E+01  0.44206757517E+02  0.17770000000E+01 0.  1.
         15    1    3    3    0    0 -0.30395609983E+02 -0.14896966463E+02 -0.45718910767E+02  0.56913875696E+02  0.17770000000E+01 0. -1.
</event>
<event>
 7    1  0.3234965E-006  0.5333922E+03  0.7546771E-02  0.9328044E-01
        -11   -1    0    0    0    0  0.00000000000E+00  0.00000000000E+00  0.50000000000E+03  0.50000000000E+03  0.00000000000E+00 0. -1.
         11   -1    0    0    0    0 -0.00000000000E+00 -0.00000000000E+00 -0.50000000000E+03  0.50000000000E+03  0.00000000000E+00 0.  1.
         23    2    1    2    0    0  0.10471099390E+03 -0.92716226091E+02 -0.16761789944E+03  0.23683012292E+03  0.91826227654E+02 0.  0.
        -11    1    1    2    0    0 -0.80126578403E+02  0.38196189763E+02  0.45808690522E+03  0.46660779056E+03  0.00000000000E+00 0. -1.
         11    1    1    2    0    0 -0.24584415493E+02  0.54520036328E+02 -0.29046900578E+03  0.29656208652E+03  0.00000000000E+00 0.  1.
        -15    1    3    3    0    0 -0.72947744216E+01 -0.21634457896E+02 -0.65569588960E+02  0.69453525667E+02  0.17770000000E+01 0. -1.
         15    1    3    3    0    0  0.11200576832E+03 -0.71081768195E+02 -0.10204831048E+03  0.16737659725E+03  0.17770000000E+01 0.  1.
</event>
<event>
 7    1  0.3234965E-006  0.3746208E+03  0.7546771E-02  0.9734511E-01
        -11   -1    0    0    0    0  0.00000000000E+00  0.00000000000E+00  0.50000000000E+03  0.50000000000E+03  0.00000000000E+00 0.  1.
         11   -1    0    0    0    0 -0.00000000000E+00 -0.00000000000E+00 -0.50000000000E+03  0.50000000000E+03  0.00000000000E+00 0. -1.
         23    2    1    2    0    0 -0.95703130721E+02 -0.18571944145E+03  0.15850225393E+02  0.22201222934E+03  0.73398911206E+02 0.  0.
        -11    1    1    2    0    0 -0.16713105043E+02  0.10362536425E+03  0.36115812929E+03  0.37610203183E+03  0.00000000000E+00 0.  1.
         11    1    1    2    0    0  0.11241623576E+03  0.82094077208E+02 -0.37700835468E+03  0.40188573883E+03  0.00000000000E+00 0. -1.
        -15    1    3    3    0    0 -0.65021145281E+02 -0.12624765412E+03  0.45028175309E+02  0.14898628731E+03  0.17770000000E+01 0.  1.
         15    1    3    3    0    0 -0.30681985440E+02 -0.59471787334E+02 -0.29177949916E+02  0.73025942031E+02  0.17770000000E+01 0. -1.
</event>
<event>
 7    1  0.3234965E-006  0.5188433E+03  0.7546771E-02  0.9358606E-01
        -11   -1    0    0    0    0  0.00000000000E+00  0.00000000000E+00  0.50000000000E+03  0.50000000000E+03  0.00000000000E+00 0. -1.
         11   -1    0    0    0    0 -0.00000000000E+00 -0.00000000000E+00 -0.50000000000E+03  0.50000000000E+03  0.00000000000E+00 0. -1.
         23    2    1    2    0    0 -0.56195023524E+02  0.34444045988E+02 -0.34079328005E+03  0.35850788619E+03  0.89685961880E+02 0.  0.
        -11    1    1    2    0    0 -0.10927988436E+02 -0.10097066322E+03  0.47031611383E+03  0.48115667167E+03  0.00000000000E+00 0. -1.
         11    1    1    2    0    0  0.67123011960E+02  0.66526617233E+02 -0.12952283378E+03  0.16033544214E+03  0.00000000000E+00 0. -1.
        -15    1    3    3    0    0 -0.77842345267E+02  0.10191172788E+02 -0.23045172805E+03  0.24346344162E+03  0.17770000000E+01 0. -1.
         15    1    3    3    0    0  0.21647321742E+02  0.24252873199E+02 -0.11034155200E+03  0.11504444456E+03  0.17770000000E+01 0.  1.
</event>
<event>
 7    1  0.3234965E-006  0.5388431E+03  0.7546771E-02  0.9316858E-01
        -11   -1    0    0    0    0  0.00000000000E+00  0.00000000000E+00  0.50000000000E+03  0.50000000000E+03  0.00000000000E+00 0. -1.
         11   -1    0    0    0    0 -0.00000000000E+00 -0.00000000000E+00 -0.50000000000E+03  0.50000000000E+03  0.00000000000E+00 0.  1.
         23    2    1    2    0    0  0.16577207298E+03  0.13415787212E+03  0.20973676117E+03  0.31367559704E+03  0.94467753020E+02 0.  0.
        -11    1    1    2    0    0  0.93346162639E+02 -0.11269398151E+03  0.17113429708E+03  0.22516746476E+03  0.00000000000E+00 0. -1.
         11    1    1    2    0    0 -0.25911823562E+03 -0.21463890605E+02 -0.38087105826E+03  0.46115693820E+03  0.00000000000E+00 0.  1.
        -15    1    3    3    0    0  0.98639409947E+02  0.47685864169E+02  0.15876028870E+03  0.19290324474E+03  0.17770000000E+01 0. -1.
         15    1    3    3    0    0  0.67132663032E+02  0.86472007950E+02  0.50976472476E+02  0.12077235230E+03  0.17770000000E+01 0.  1.
</event>
<event>
 7    1  0.3234965E-006  0.4554784E+03  0.7546771E-02  0.9505340E-01
        -11   -1    0    0    0    0  0.00000000000E+00  0.00000000000E+00  0.50000000000E+03  0.50000000000E+03  0.00000000000E+00 0.  1.
         11   -1    0    0    0    0 -0.00000000000E+00 -0.00000000000E+00 -0.50000000000E+03  0.50000000000E+03  0.00000000000E+00 0. -1.
         23    2    1    2    0    0  0.63979221482E+02 -0.21841648461E+03 -0.36282422881E+03  0.43935846004E+03  0.97955775080E+02 0.  0.
        -11    1    1    2    0    0  0.13170731300E+02  0.20784994143E+03  0.41677042034E+03  0.46591055965E+03  0.00000000000E+00 0.  1.
         11    1    1    2    0    0 -0.77149952782E+02  0.10566543182E+02 -0.53946191537E+02  0.94730980310E+02  0.00000000000E+00 0. -1.
        -15    1    3    3    0    0  0.54479633645E+02 -0.14190265656E+03 -0.15242222966E+03  0.21526748070E+03  0.17770000000E+01 0.  1.
         15    1    3    3    0    0  0.94995878367E+01 -0.76513828052E+02 -0.21040199915E+03  0.22409097935E+03  0.17770000000E+01 0. -1.
</event>
<event>
 7    1  0.3234965E-006  0.5258314E+03  0.7546771E-02  0.9343795E-01
        -11   -1    0    0    0    0  0.00000000000E+00  0.00000000000E+00  0.50000000000E+03  0.50000000000E+03  0.00000000000E+00 0.  1.
         11   -1    0    0    0    0 -0.00000000000E+00 -0.00000000000E+00 -0.50000000000E+03  0.50000000000E+03  0.00000000000E+00 0.  1.
         23    2    1    2    0    0  0.69642681643E+02 -0.11615894017E+02 -0.30968610088E+03  0.33041230322E+03  0.91004268786E+02 0.  0.
        -11    1    1    2    0    0 -0.21652898957E+03 -0.58640392121E+02  0.41774673672E+03  0.47416857229E+03  0.00000000000E+00 0.  1.
         11    1    1    2    0    0  0.14688630793E+03  0.70256286138E+02 -0.10806063584E+03  0.19541912449E+03  0.00000000000E+00 0.  1.
        -15    1    3    3    0    0  0.14594856879E+02 -0.17113822797E+02 -0.83858123019E+01  0.24070154860E+02  0.17770000000E+01 0.  1.
         15    1    3    3    0    0  0.55047824764E+02  0.54979287797E+01 -0.30130028858E+03  0.30634214836E+03  0.17770000000E+01 0. -1.
</event>
<event>
 7    1  0.3234965E-006  0.3458762E+03  0.7546771E-02  0.9831398E-01
        -11   -1    0    0    0    0  0.00000000000E+00  0.00000000000E+00  0.50000000000E+03  0.50000000000E+03  0.00000000000E+00 0. -1.
         11   -1    0    0    0    0 -0.00000000000E+00 -0.00000000000E+00 -0.50000000000E+03  0.50000000000E+03  0.00000000000E+00 0.  1.
         23    2    1    2    0    0 -0.84655499318E+02  0.60351023940E+02 -0.25577137318E+03  0.29061568355E+03  0.90717586691E+02 0.  0.
        -11    1    1    2    0    0 -0.12895576178E+03 -0.14684196587E+03  0.39459971475E+03  0.44034201062E+03  0.00000000000E+00 0. -1.
         11    1    1    2    0    0  0.21361126109E+03  0.86490941928E+02 -0.13882834157E+03  0.26904230583E+03  0.00000000000E+00 0.  1.
        -15    1    3    3    0    0 -0.15494173690E+02  0.66021015059E+02 -0.14131466858E+03  0.15675406576E+03  0.17770000000E+01 0.  1.
         15    1    3    3    0    0 -0.69161325627E+02 -0.56699911187E+01 -0.11445670460E+03  0.13386161780E+03  0.17770000000E+01 0. -1.
</event>
<event>
 7    1  0.3234965E-006  0.5183582E+03  0.7546771E-02  0.9359644E-01
        -11   -1    0    0    0    0  0.00000000000E+00  0.00000000000E+00  0.50000000000E+03  0.50000000000E+03  0.00000000000E+00 0. -1.
         11   -1    0    0    0    0 -0.00000000000E+00 -0.00000000000E+00 -0.50000000000E+03  0.50000000000E+03  0.00000000000E+00 0.  1.
         23    2    1    2    0    0 -0.58836143662E+02 -0.40531944265E+02 -0.34052588538E+03  0.35971107382E+03  0.91266903696E+02 0.  0.
        -11    1    1    2    0    0  0.13558861537E+03 -0.27931271523E+02  0.46131809915E+03  0.48164179340E+03  0.00000000000E+00 0. -1.
         11    1    1    2    0    0 -0.76752471713E+02  0.68463215788E+02 -0.12079221377E+03  0.15864713278E+03  0.00000000000E+00 0.  1.
        -15    1    3    3    0    0 -0.76273793134E+01 -0.60397685193E+02 -0.17389513031E+03  0.18425181509E+03  0.17770000000E+01 0. -1.
         15    1    3    3    0    0 -0.51208764348E+02  0.19865740928E+02 -0.16663075507E+03  0.17545925873E+03  0.17770000000E+01 0.  1.
</event>
<event>
 7    1  0.3234965E-006  0.5114660E+03  0.7546771E-02  0.9374513E-01
        -11   -1    0    0    0    0  0.00000000000E+00  0.00000000000E+00  0.50000000000E+03  0.50000000000E+03  0.00000000000E+00 0. -1.
         11   -1    0    0    0    0 -0.00000000000E+00 -0.00000000000E+00 -0.50000000000E+03  0.50000000000E+03  0.00000000000E+00 0.  1.
         23    2    1    2    0    0 -0.29634344879E+02 -0.39499829562E+01 -0.21389669611E+03  0.23369378517E+03  0.89259127591E+02 0.  0.
        -11    1    1    2    0    0  0.14563202964E+03  0.10439045338E+02  0.46620572809E+03  0.48853397285E+03  0.00000000000E+00 0. -1.
         11    1    1    2    0    0 -0.11599768476E+03 -0.64890623816E+01 -0.25230903198E+03  0.27777224199E+03  0.00000000000E+00 0.  1.
        -15    1    3    3    0    0 -0.28234394016E+02 -0.23324155416E+02 -0.21077434837E+03  0.21393966648E+03  0.17770000000E+01 0.  1.
         15    1    3    3    0    0 -0.13999508630E+01  0.19374172459E+02 -0.31223477362E+01  0.19754118692E+02  0.17770000000E+01 0. -1.
</event>
<event>
 7    1  0.3234965E-006  0.3130065E+03  0.7546771E-02  0.9955389E-01
        -11   -1    0    0    0    0  0.00000000000E+00  0.00000000000E+00  0.50000000000E+03  0.50000000000E+03  0.00000000000E+00 0.  1.
         11   -1    0    0    0    0 -0.00000000000E+00 -0.00000000000E+00 -0.50000000000E+03  0.50000000000E+03  0.00000000000E+00 0. -1.
         23    2    1    2    0    0  0.30863752685E+02 -0.13020983796E+03 -0.28384996687E+03  0.32715902027E+03  0.92493500990E+02 0.  0.
        -11    1    1    2    0    0  0.14723415130E+02 -0.17779465726E+03  0.31284033078E+03  0.36013440777E+03  0.00000000000E+00 0.  1.
         11    1    1    2    0    0 -0.45587167816E+02  0.30800449522E+03 -0.28990363912E+02  0.31270657195E+03  0.00000000000E+00 0. -1.
        -15    1    3    3    0    0  0.56544297732E+02 -0.12166138677E+03 -0.25051940813E+03  0.28418635121E+03  0.17770000000E+01 0. -1.
         15    1    3    3    0    0 -0.25680545046E+02 -0.85484511921E+01 -0.33330558735E+02  0.42972669061E+02  0.17770000000E+01 0.  1.
</event>
<event>
 7    1  0.3234965E-006  0.4087247E+03  0.7546771E-02  0.9630968E-01
        -11   -1    0    0    0    0  0.00000000000E+00  0.00000000000E+00  0.50000000000E+03  0.50000000000E+03  0.00000000000E+00 0.  1.
         11   -1    0    0    0    0 -0.00000000000E+00 -0.00000000000E+00 -0.50000000000E+03  0.50000000000E+03  0.00000000000E+00 0. -1.
         23    2    1    2    0    0 -0.84435411673E+02 -0.15670640310E+03 -0.30871246828E+03  0.36780054307E+03  0.91036343811E+02 0.  0.
        -11    1    1    2    0    0  0.19979068090E+03  0.69780385627E+02  0.40614251390E+03  0.45797091609E+03  0.00000000000E+00 0.  1.
         11    1    1    2    0    0 -0.11535526922E+03  0.86926017478E+02 -0.97430045617E+02  0.17422854083E+03  0.00000000000E+00 0. -1.
        -15    1    3    3    0    0 -0.91380515238E+02 -0.75890611206E+02 -0.18235192496E+03  0.21763539624E+03  0.17770000000E+01 0. -1.
         15    1    3    3    0    0  0.69451035646E+01 -0.80815791899E+02 -0.12636054332E+03  0.15016514683E+03  0.17770000000E+01 0.  1.
</event>
<event>
 7    1  0.3234965E-006  0.3199772E+03  0.7546771E-02  0.9927767E-01
        -11   -1    0    0    0    0  0.00000000000E+00  0.00000000000E+00  0.50000000000E+03  0.50000000000E+03  0.00000000000E+00 0.  1.
         11   -1    0    0    0    0 -0.00000000000E+00 -0.00000000000E+00 -0.50000000000E+03  0.50000000000E+03  0.00000000000E+00 0.  1.
         23    2    1    2    0    0 -0.42481032248E+02 -0.13004468311E+03 -0.29927413251E+03  0.34143430620E+03  0.91083046502E+02 0.  0.
        -11    1    1    2    0    0  0.23832863276E+03 -0.95537616892E+02  0.24507851618E+03  0.35495274689E+03  0.00000000000E+00 0.  1.
         11    1    1    2    0    0 -0.19584760051E+03  0.22558230000E+03  0.54195616326E+02  0.30361294690E+03  0.00000000000E+00 0.  1.
        -15    1    3    3    0    0 -0.49442668650E+02 -0.13972271765E+03 -0.24937572693E+03  0.29010071738E+03  0.17770000000E+01 0.  1.
         15    1    3    3    0    0  0.69616364020E+01  0.96780345415E+01 -0.49898405577E+02  0.51333588830E+02  0.17770000000E+01 0. -1.
</event>
<event>
 7    1  0.3234965E-006  0.5316540E+03  0.7546771E-02  0.9331640E-01
        -11   -1    0    0    0    0  0.00000000000E+00  0.00000000000E+00  0.50000000000E+03  0.50000000000E+03  0.00000000000E+00 0.  1.
         11   -1    0    0    0    0 -0.00000000000E+00 -0.00000000000E+00 -0.50000000000E+03  0.50000000000E+03  0.00000000000E+00 0.  1.
         23    2    1    2    0    0  0.43155728702E+02 -0.54564637856E+02 -0.21570326743E+03  0.24296280093E+03  0.87540313195E+02 0.  0.
        -11    1    1    2    0    0  0.10427482127E+02 -0.90702117944E+02  0.45936083754E+03  0.46834601060E+03  0.00000000000E+00 0.  1.
         11    1    1    2    0    0 -0.53583210829E+02  0.14526675580E+03 -0.24365757011E+03  0.28869118846E+03  0.00000000000E+00 0.  1.
        -15    1    3    3    0    0  0.24941938314E+02  0.72968709494E+01 -0.14471481386E+03  0.14704040156E+03  0.17770000000E+01 0.  1.
         15    1    3    3    0    0  0.18213790388E+02 -0.61861508805E+02 -0.70988453568E+02  0.95922399370E+02  0.17770000000E+01 0. -1.
</event>
<event>
 7    1  0.3234965E-006  0.4653675E+03  0.7546771E-02  0.9480822E-01
        -11   -1    0    0    0    0  0.00000000000E+00  0.00000000000E+00  0.50000000000E+03  0.50000000000E+03  0.00000000000E+00 0.  1.
         11   -1    0    0    0    0 -0.00000000000E+00 -0.00000000000E+00 -0.50000000000E+03  0.50000000000E+03  0.00000000000E+00 0. -1.
         23    2    1    2    0    0  0.16843173745E+02 -0.59431305419E+02 -0.42525663593E+03  0.43959163408E+03  0.92638144373E+02 0.  0.
        -11    1    1    2    0    0 -0.56717556327E+02  0.10542298363E+03  0.46990805895E+03  0.48491697283E+03  0.00000000000E+00 0.  1.
         11    1    1    2    0    0  0.39874382582E+02 -0.45991678216E+02 -0.44651423025E+02  0.75491393083E+02  0.00000000000E+00 0. -1.
        -15    1    3    3    0    0 -0.12211612148E+02  0.21514970984E+02 -0.11400301762E+03  0.11666988987E+03  0.17770000000E+01 0.  1.
         15    1    3    3    0    0  0.29054785894E+02 -0.80946276403E+02 -0.31125361831E+03  0.32292174421E+03  0.17770000000E+01 0. -1.
</event>
<event>
 7    1  0.3234965E-006  0.5137398E+03  0.7546771E-02  0.9369580E-01
        -11   -1    0    0    0    0  0.00000000000E+00  0.00000000000E+00  0.50000000000E+03  0.50000000000E+03  0.00000000000E+00 0.  1.
         11   -1    0    0    0    0 -0.00000000000E+00 -0.00000000000E+00 -0.50000000000E+03  0.50000000000E+03  0.00000000000E+00 0. -1.
         23    2    1    2    0    0  0.13618183777E+02  0.92306533278E+01 -0.36286723790E+03  0.37485135170E+03  0.92575610392E+02 0.  0.
        -11    1    1    2    0    0 -0.85949648495E+02  0.17998794222E+02  0.47826530160E+03  0.48626021571E+03  0.00000000000E+00 0.  1.
         11    1    1    2    0    0  0.72331464718E+02 -0.27229447550E+02 -0.11539806370E+03  0.13888843259E+03  0.00000000000E+00 0. -1.
        -15    1    3    3    0    0  0.80734623507E+01  0.50236660867E+02 -0.16416316514E+03  0.17187671573E+03  0.17770000000E+01 0.  1.
         15    1    3    3    0    0  0.55447214259E+01 -0.41006007539E+02 -0.19870407276E+03  0.20297463597E+03  0.17770000000E+01 0. -1.
</event>
<event>
 7    1  0.3234965E-006  0.5318904E+03  0.7546771E-02  0.9331150E-01
        -11   -1    0    0    0    0  0.00000000000E+00  0.00000000000E+00  0.50000000000E+03  0.50000000000E+03  0.00000000000E+00 0. -1.
         11   -1    0    0    0    0 -0.00000000000E+00 -0.00000000000E+00 -0.50000000000E+03  0.50000000000E+03  0.00000000000E+00 0.  1.
         23    2    1    2    0    0  0.19790232603E+02  0.19385042300E+02 -0.34973009518E+03  0.36253761945E+03  0.91405431299E+02 0.  0.
        -11    1    1    2    0    0 -0.63875892067E+02 -0.15838542117E+03  0.43584461976E+03  0.46810960661E+03  0.00000000000E+00 0. -1.
         11    1    1    2    0    0  0.44085659464E+02  0.13900037887E+03 -0.86114524580E+02  0.16935277394E+03  0.00000000000E+00 0.  1.
        -15    1    3    3    0    0  0.46039492399E+00  0.51627847041E+02 -0.26249846831E+03  0.26753364302E+03  0.17770000000E+01 0.  1.
         15    1    3    3    0    0  0.19329837679E+02 -0.32242804741E+02 -0.87231626870E+02  0.95003976431E+02  0.17770000000E+01 0. -1.
</event>
<event>
 6    1  0.3234965E-006  0.5245047E+03  0.7546771E-02  0.9346588E-01
        -11   -1    0    0    0    0  0.00000000000E+00  0.00000000000E+00  0.50000000000E+03  0.50000000000E+03  0.00000000000E+00 0. -1.
         11   -1    0    0    0    0 -0.00000000000E+00 -0.00000000000E+00 -0.50000000000E+03  0.50000000000E+03  0.00000000000E+00 0.  1.
        -11    1    1    2    0    0  0.77601837356E+02 -0.21571150330E+02  0.83649366572E+02  0.11612310802E+03  0.00000000000E+00 0. -1.
         11    1    1    2    0    0 -0.15355479961E+03  0.18696404955E+03 -0.40934231697E+03  0.47549528365E+03  0.00000000000E+00 0.  1.
        -15    1    1    2    0    0 -0.45071282098E+02 -0.53410383263E+01  0.52714241961E+02  0.69583735131E+02  0.17770000000E+01 0. -1.
         15    1    1    2    0    0  0.12102424435E+03 -0.16005186089E+03  0.27297870844E+03  0.33879787320E+03  0.17770000000E+01 0.  1.
</event>
<event>
 7    1  0.3234965E-006  0.5105341E+03  0.7546771E-02  0.9376542E-01
        -11   -1    0    0    0    0  0.00000000000E+00  0.00000000000E+00  0.50000000000E+03  0.50000000000E+03  0.00000000000E+00 0.  1.
         11   -1    0    0    0    0 -0.00000000000E+00 -0.00000000000E+00 -0.50000000000E+03  0.50000000000E+03  0.00000000000E+00 0. -1.
         23    2    1    2    0    0 -0.14797116001E+02 -0.36337585574E+02  0.20126902409E+03  0.22505538220E+03  0.92743356821E+02 0.  0.
        -11    1    1    2    0    0 -0.42498325333E+02 -0.80401427407E+02  0.27060602869E+03  0.28547875568E+03  0.00000000000E+00 0.  1.
         11    1    1    2    0    0  0.57295441334E+02  0.11673901298E+03 -0.47187505277E+03  0.48946586212E+03  0.00000000000E+00 0. -1.
        -15    1    3    3    0    0 -0.53644389370E+02 -0.18638604382E+02  0.97713637949E+02  0.11303199040E+03  0.17770000000E+01 0.  1.
         15    1    3    3    0    0  0.38847273368E+02 -0.17698981192E+02  0.10355538614E+03  0.11202339180E+03  0.17770000000E+01 0. -1.
</event>
<event>
 7    1  0.3234965E-006  0.5207687E+03  0.7546771E-02  0.9354501E-01
        -11   -1    0    0    0    0  0.00000000000E+00  0.00000000000E+00  0.50000000000E+03  0.50000000000E+03  0.00000000000E+00 0.  1.
         11   -1    0    0    0    0 -0.00000000000E+00 -0.00000000000E+00 -0.50000000000E+03  0.50000000000E+03  0.00000000000E+00 0.  1.
         23    2    1    2    0    0 -0.69786607826E+02  0.91225449562E+01  0.34800542379E+03  0.36656671149E+03  0.91159133023E+02 0.  0.
        -11    1    1    2    0    0 -0.12212480242E+03  0.29445053725E+02  0.89424748654E+02  0.15420202407E+03  0.00000000000E+00 0.  1.
         11    1    1    2    0    0  0.19191141025E+03 -0.38567598682E+02 -0.43743017244E+03  0.47923126443E+03  0.00000000000E+00 0.  1.
        -15    1    3    3    0    0 -0.42401752324E+02 -0.28325680246E+02  0.82282878998E+02  0.96818813599E+02  0.17770000000E+01 0. -1.
         15    1    3    3    0    0 -0.27384855502E+02  0.37448225202E+02  0.26572254479E+03  0.26974789790E+03  0.17770000000E+01 0.  1.
</event>
<event>
 7    1  0.3234965E-006  0.4002267E+03  0.7546771E-02  0.9655731E-01
        -11   -1    0    0    0    0  0.00000000000E+00  0.00000000000E+00  0.50000000000E+03  0.50000000000E+03  0.00000000000E+00 0.  1.
         11   -1    0    0    0    0 -0.00000000000E+00 -0.00000000000E+00 -0.50000000000E+03  0.50000000000E+03  0.00000000000E+00 0. -1.
         23    2    1    2    0    0 -0.13008492970E+03  0.32014939920E+02 -0.32108910925E+03  0.35977318173E+03  0.91605026625E+02 0.  0.
        -11    1    1    2    0    0  0.14764682128E+03  0.13519116643E+03  0.40540826118E+03  0.45214167420E+03  0.00000000000E+00 0.  1.
         11    1    1    2    0    0 -0.17561891583E+02 -0.16720610635E+03 -0.84319151937E+02  0.18808514407E+03  0.00000000000E+00 0. -1.
        -15    1    3    3    0    0 -0.63353365623E+02  0.11595553734E+01 -0.55702586798E+02  0.84385599538E+02  0.17770000000E+01 0.  1.
         15    1    3    3    0    0 -0.66731564075E+02  0.30855384547E+02 -0.26538652245E+03  0.27538758219E+03  0.17770000000E+01 0. -1.
</event>
<event>
 7    1  0.3234965E-006  0.5179632E+03  0.7546771E-02  0.9360489E-01
        -11   -1    0    0    0    0  0.00000000000E+00  0.00000000000E+00  0.50000000000E+03  0.50000000000E+03  0.00000000000E+00 0. -1.
         11   -1    0    0    0    0 -0.00000000000E+00 -0.00000000000E+00 -0.50000000000E+03  0.50000000000E+03  0.00000000000E+00 0.  1.
         23    2    1    2    0    0 -0.16453026118E+01  0.26622555038E+02  0.36709529956E+03  0.37910705783E+03  0.90839060336E+02 0.  0.
        -11    1    1    2    0    0  0.79734448509E+02  0.49171551746E+02  0.10249686751E+03  0.13885615446E+03  0.00000000000E+00 0. -1.
         11    1    1    2    0    0 -0.78089145897E+02 -0.75794106784E+02 -0.46959216707E+03  0.48203678771E+03  0.00000000000E+00 0.  1.
        -15    1    3    3    0    0 -0.34388773017E+02 -0.16892206491E+02  0.11630634742E+03  0.12246737741E+03  0.17770000000E+01 0.  1.
         15    1    3    3    0    0  0.32743470405E+02  0.43514761529E+02  0.25078895213E+03  0.25663968042E+03  0.17770000000E+01 0. -1.
</event>
<event>
 7    1  0.3234965E-006  0.5337717E+03  0.7546771E-02  0.9327260E-01
        -11   -1    0    0    0    0  0.00000000000E+00  0.00000000000E+00  0.50000000000E+03  0.50000000000E+03  0.00000000000E+00 0. -1.
         11   -1    0    0    0    0 -0.00000000000E+00 -0.00000000000E+00 -0.50000000000E+03  0.50000000000E+03  0.00000000000E+00 0.  1.
         23    2    1    2    0    0  0.37493298896E+02  0.10813609164E+03  0.10366611532E+03  0.18040296767E+03  0.93270603627E+02 0.  0.
        -11    1    1    2    0    0  0.14722680723E+03 -0.39257069470E+02  0.31883004634E+03  0.35336871497E+03  0.00000000000E+00 0. -1.
         11    1    1    2    0    0 -0.18472010612E+03 -0.68879022167E+02 -0.42249616166E+03  0.46622831737E+03  0.00000000000E+00 0.  1.
        -15    1    3    3    0    0  0.34924723785E+02  0.23737721372E+02  0.83477394024E+02  0.93567348950E+02  0.17770000000E+01 0. -1.
         15    1    3    3    0    0  0.25685751114E+01  0.84398370265E+02  0.20188721296E+02  0.86835618718E+02  0.17770000000E+01 0.  1.
</event>
<event>
 7    1  0.3234965E-006  0.4655300E+03  0.7546771E-02  0.9480424E-01
        -11   -1    0    0    0    0  0.00000000000E+00  0.00000000000E+00  0.50000000000E+03  0.50000000000E+03  0.00000000000E+00 0.  1.
         11   -1    0    0    0    0 -0.00000000000E+00 -0.00000000000E+00 -0.50000000000E+03  0.50000000000E+03  0.00000000000E+00 0.  1.
         23    2    1    2    0    0  0.40801467329E+02  0.14221575191E+03  0.39909230004E+03  0.43450367006E+03  0.87342403923E+02 0.  0.
        -11    1    1    2    0    0 -0.16344492989E+02 -0.56606692773E+01  0.72183114677E+02  0.74226596798E+02  0.00000000000E+00 0.  1.
         11    1    1    2    0    0 -0.24456974339E+02 -0.13655508263E+03 -0.47127541471E+03  0.49126973314E+03  0.00000000000E+00 0.  1.
        -15    1    3    3    0    0  0.64606864936E+02  0.84469276638E+02  0.28847748144E+03  0.30745978716E+03  0.17770000000E+01 0. -1.
         15    1    3    3    0    0 -0.23805397607E+02  0.57746475273E+02  0.11061481860E+03  0.12704388291E+03  0.17770000000E+01 0.  1.
</event>
<event>
 7    1  0.3234965E-006  0.5353400E+03  0.7546771E-02  0.9324030E-01
        -11   -1    0    0    0    0  0.00000000000E+00  0.00000000000E+00  0.50000000000E+03  0.50000000000E+03  0.00000000000E+00 0. -1.
         11   -1    0    0    0    0 -0.00000000000E+00 -0.00000000000E+00 -0.50000000000E+03  0.50000000000E+03  0.00000000000E+00 0.  1.
         23    2    1    2    0    0 -0.51141495858E+01  0.16941087331E+03  0.19893325778E+03  0.27708653471E+03  0.92066867785E+02 0.  0.
        -11    1    1    2    0    0  0.91930512215E+02 -0.38231662314E+02  0.23828965405E+03  0.25825343813E+03  0.00000000000E+00 0. -1.
         11    1    1    2    0    0 -0.86816362629E+02 -0.13117921100E+03 -0.43722291182E+03  0.46466002716E+03  0.00000000000E+00 0.  1.
        -15    1    3    3    0    0 -0.34845719069E+02  0.12396263807E+03  0.17605744923E+03  0.21812918863E+03  0.17770000000E+01 0. -1.
         15    1    3    3    0    0  0.29731569483E+02  0.45448235241E+02  0.22875808546E+02  0.58957346074E+02  0.17770000000E+01 0.  1.
</event>
<event>
 7    1  0.3234965E-006  0.5266367E+03  0.7546771E-02  0.9342104E-01
        -11   -1    0    0    0    0  0.00000000000E+00  0.00000000000E+00  0.50000000000E+03  0.50000000000E+03  0.00000000000E+00 0.  1.
         11   -1    0    0    0    0 -0.00000000000E+00 -0.00000000000E+00 -0.50000000000E+03  0.50000000000E+03  0.00000000000E+00 0. -1.
         23    2    1    2    0    0 -0.27655589663E+03 -0.12297233592E+03  0.22325959352E+03  0.38722435759E+03  0.92154748386E+02 0.  0.
        -11    1    1    2    0    0 -0.17109533602E+02  0.27678911538E+02  0.13556155610E+03  0.13941231573E+03  0.00000000000E+00 0.  1.
         11    1    1    2    0    0  0.29366543023E+03  0.95293424377E+02 -0.35882114961E+03  0.47336332669E+03  0.00000000000E+00 0. -1.
        -15    1    3    3    0    0 -0.15768298269E+03 -0.32625287932E+02  0.78090083109E+02  0.17896801740E+03  0.17770000000E+01 0. -1.
         15    1    3    3    0    0 -0.11887291394E+03 -0.90347047984E+02  0.14516951041E+03  0.20825634019E+03  0.17770000000E+01 0.  1.
</event>
<event>
 7    1  0.3234965E-006  0.5254131E+03  0.7546771E-02  0.9344675E-01
        -11   -1    0    0    0    0  0.00000000000E+00  0.00000000000E+00  0.50000000000E+03  0.50000000000E+03  0.00000000000E+00 0.  1.
         11   -1    0    0    0    0 -0.00000000000E+00 -0.00000000000E+00 -0.50000000000E+03  0.50000000000E+03  0.00000000000E+00 0. -1.
         23    2    1    2    0    0  0.58824041502E+02 -0.24030677597E+02 -0.15545008186E+03  0.19133270002E+03  0.91682783671E+02 0.  0.
        -11    1    1    2    0    0 -0.57564948513E+02 -0.12611029520E+03  0.45388900703E+03  0.47458693677E+03  0.00000000000E+00 0.  1.
         11    1    1    2    0    0 -0.12590929891E+01  0.15014097279E+03 -0.29843892517E+03  0.33408036321E+03  0.00000000000E+00 0. -1.
        -15    1    3    3    0    0  0.12545078271E+02 -0.14773126682E+02  0.81142856872E+01  0.21086100209E+02  0.17770000000E+01 0.  1.
         15    1    3    3    0    0  0.46278963231E+02 -0.92575509157E+01 -0.16356436755E+03  0.17024659981E+03  0.17770000000E+01 0. -1.
</event>
<event>
 7    1  0.3795269E-006  0.4129591E+03  0.7546771E-02  0.9618867E-01
        -11   -1    0    0    0    0  0.00000000000E+00  0.00000000000E+00  0.50000000000E+03  0.50000000000E+03  0.00000000000E+00 0. -1.
         11   -1    0    0    0    0 -0.00000000000E+00 -0.00000000000E+00 -0.50000000000E+03  0.50000000000E+03  0.00000000000E+00 0.  1.
         23    2    1    2    0    0  0.91358116483E+02  0.84776523002E+02  0.16639075918E+02  0.16456523349E+03  0.10616728746E+03 0.  0.
        -11    1    1    2    0    0  0.36876552069E+01 -0.10116860090E+03  0.39751238933E+03  0.41020090721E+03  0.00000000000E+00 0. -1.
         11    1    1    2    0    0 -0.95045771690E+02  0.16392077900E+02 -0.41415146524E+03  0.42523385930E+03  0.00000000000E+00 0.  1.
        -15    1    3    3    0    0 -0.90498501556E+01  0.51705412191E+02  0.25655224908E+02  0.58452525453E+02  0.17770000000E+01 0. -1.
         15    1    3    3    0    0  0.10040796664E+03  0.33071110810E+02 -0.90161489905E+01  0.10611270803E+03  0.17770000000E+01 0.  1.
</event>
<event>
 7    1  0.3234965E-006  0.3411277E+03  0.7546771E-02  0.9848376E-01
        -11   -1    0    0    0    0  0.00000000000E+00  0.00000000000E+00  0.50000000000E+03  0.50000000000E+03  0.00000000000E+00 0. -1.
         11   -1    0    0    0    0 -0.00000000000E+00 -0.00000000000E+00 -0.50000000000E+03  0.50000000000E+03  0.00000000000E+00 0. -1.
         23    2    1    2    0    0 -0.17449828806E+03 -0.50825059206E+02 -0.23097984807E+03  0.30778349941E+03  0.91357282793E+02 0.  0.
        -11    1    1    2    0    0 -0.30125144405E+02  0.14769882277E+03  0.38829606696E+03  0.41652887318E+03  0.00000000000E+00 0. -1.
         11    1    1    2    0    0  0.20462343246E+03 -0.96873763566E+02 -0.15731621889E+03  0.27568762741E+03  0.00000000000E+00 0. -1.
        -15    1    3    3    0    0 -0.18122234213E+03 -0.39277359408E+02 -0.22815492030E+03  0.29401032913E+03  0.17770000000E+01 0.  1.
         15    1    3    3    0    0  0.67240540706E+01 -0.11547699798E+02 -0.28249277665E+01  0.13773170283E+02  0.17770000000E+01 0. -1.
</event>
<event>
 7    1  0.3234965E-006  0.5153755E+03  0.7546771E-02  0.9366048E-01
        -11   -1    0    0    0    0  0.00000000000E+00  0.00000000000E+00  0.50000000000E+03  0.50000000000E+03  0.00000000000E+00 0.  1.
         11   -1    0    0    0    0 -0.00000000000E+00 -0.00000000000E+00 -0.50000000000E+03  0.50000000000E+03  0.00000000000E+00 0.  1.
         23    2    1    2    0    0  0.21546832030E+02  0.25251388834E+02  0.21870687831E+03  0.23956828890E+03  0.91969385230E+02 0.  0.
        -11    1    1    2    0    0  0.76223087087E+02 -0.79599038590E+02  0.25283130151E+03  0.27580723880E+03  0.00000000000E+00 0.  1.
         11    1    1    2    0    0 -0.97769919117E+02  0.54347649756E+02 -0.47153817982E+03  0.48462447230E+03  0.00000000000E+00 0.  1.
        -15    1    3    3    0    0 -0.29358800138E+02  0.21153167849E+02  0.14774171812E+03  0.15211892932E+03  0.17770000000E+01 0.  1.
         15    1    3    3    0    0  0.50905632168E+02  0.40982209850E+01  0.70965160190E+02  0.87449359583E+02  0.17770000000E+01 0. -1.
</event>
<event>
 7    1  0.3234965E-006  0.3811347E+03  0.7546771E-02  0.9713845E-01
        -11   -1    0    0    0    0  0.00000000000E+00  0.00000000000E+00  0.50000000000E+03  0.50000000000E+03  0.00000000000E+00 0.  1.
         11   -1    0    0    0    0 -0.00000000000E+00 -0.00000000000E+00 -0.50000000000E+03  0.50000000000E+03  0.00000000000E+00 0. -1.
         23    2    1    2    0    0 -0.10843153967E+03 -0.66270641851E+02 -0.35490292574E+03  0.38755660772E+03  0.89971332765E+02 0.  0.
        -11    1    1    2    0    0  0.13235645315E+03 -0.14956096506E+03  0.34057963372E+03  0.39481793255E+03  0.00000000000E+00 0.  1.
         11    1    1    2    0    0 -0.23924913481E+02  0.21583160691E+03  0.14323292026E+02  0.21762545973E+03  0.00000000000E+00 0. -1.
        -15    1    3    3    0    0 -0.34599646348E+02 -0.43510469181E+02 -0.56396439894E+02  0.79208665041E+02  0.17770000000E+01 0.  1.
         15    1    3    3    0    0 -0.73831893324E+02 -0.22760172670E+02 -0.29850648585E+03  0.30834794268E+03  0.17770000000E+01 0. -1.
</event>
<event>
 7    1  0.3234965E-006  0.4614808E+03  0.7546771E-02  0.9490380E-01
        -11   -1    0    0    0    0  0.00000000000E+00  0.00000000000E+00  0.50000000000E+03  0.50000000000E+03  0.00000000000E+00 0.  1.
         11   -1    0    0    0    0 -0.00000000000E+00 -0.00000000000E+00 -0.50000000000E+03  0.50000000000E+03  0.00000000000E+00 0. -1.
         23    2    1    2    0    0  0.79032090363E+02 -0.78547167164E+02 -0.42627044203E+03  0.45128927737E+03  0.97671865664E+02 0.  0.
        -11    1    1    2    0    0 -0.18105528004E+01  0.77946568877E+02  0.45846296042E+03  0.46504540830E+03  0.00000000000E+00 0.  1.
         11    1    1    2    0    0 -0.77221537562E+02  0.60059828749E+00 -0.32192518393E+02  0.83665314332E+02  0.00000000000E+00 0. -1.
        -15    1    3    3    0    0  0.32953260654E+02  0.18546503082E+02 -0.76142873867E+02  0.85034023391E+02  0.17770000000E+01 0.  1.
         15    1    3    3    0    0  0.46078829709E+02 -0.97093670246E+02 -0.35012756816E+03  0.36625525398E+03  0.17770000000E+01 0. -1.
</event>
<event>
 7    1  0.3234965E-006  0.3940534E+03  0.7546771E-02  0.9674136E-01
        -11   -1    0    0    0    0  0.00000000000E+00  0.00000000000E+00  0.50000000000E+03  0.50000000000E+03  0.00000000000E+00 0.  1.
         11   -1    0    0    0    0 -0.00000000000E+00 -0.00000000000E+00 -0.50000000000E+03  0.50000000000E+03  0.00000000000E+00 0.  1.
         23    2    1    2    0    0 -0.32413541421E+02  0.36166511073E+02 -0.36315973260E+03  0.37710874668E+03  0.89260076442E+02 0.  0.
        -11    1    1    2    0    0 -0.11835911430E+03 -0.16316097188E+03  0.37464421881E+03  0.42542763588E+03  0.00000000000E+00 0.  1.
         11    1    1    2    0    0  0.15077265572E+03  0.12699446080E+03 -0.11484486209E+02  0.19746361744E+03  0.00000000000E+00 0.  1.
        -15    1    3    3    0    0 -0.43272246267E+02  0.54796692181E+02 -0.33139308626E+03  0.33867344171E+03  0.17770000000E+01 0.  1.
         15    1    3    3    0    0  0.10858704845E+02 -0.18630181108E+02 -0.31766646347E+02  0.38435304970E+02  0.17770000000E+01 0. -1.
</event>
<event>
 7    1  0.3234965E-006  0.5172761E+03  0.7546771E-02  0.9361962E-01
        -11   -1    0    0    0    0  0.00000000000E+00  0.00000000000E+00  0.50000000000E+03  0.50000000000E+03  0.00000000000E+00 0.  1.
         11   -1    0    0    0    0 -0.00000000000E+00 -0.00000000000E+00 -0.50000000000E+03  0.50000000000E+03  0.00000000000E+00 0.  1.
         23    2    1    2    0    0 -0.13001401370E+03 -0.30611735770E+03 -0.33897219089E+03  0.48272393766E+03  0.86653178559E+02 0.  0.
        -11    1    1    2    0    0  0.49650540249E+01  0.29274546027E+02  0.16409634334E+03  0.16676108870E+03  0.00000000000E+00 0.  1.
         11    1    1    2    0    0  0.12504895968E+03  0.27684281167E+03  0.17487584754E+03  0.35051497364E+03  0.00000000000E+00 0.  1.
        -15    1    3    3    0    0 -0.11325258333E+03 -0.16652371762E+03 -0.17582123597E+03  0.26734352603E+03  0.17770000000E+01 0. -1.
         15    1    3    3    0    0 -0.16761430378E+02 -0.13959364007E+03 -0.16315095491E+03  0.21538041163E+03  0.17770000000E+01 0.  1.
</event>
<event>
 7    1  0.3234965E-006  0.4609204E+03  0.7546771E-02  0.9491767E-01
        -11   -1    0    0    0    0  0.00000000000E+00  0.00000000000E+00  0.50000000000E+03  0.50000000000E+03  0.00000000000E+00 0.  1.
         11   -1    0    0    0    0 -0.00000000000E+00 -0.00000000000E+00 -0.50000000000E+03  0.50000000000E+03  0.00000000000E+00 0.  1.
         23    2    1    2    0    0  0.77371118485E+02 -0.10444492943E+03  0.40394445789E+03  0.43396115638E+03  0.90863231965E+02 0.  0.
        -11    1    1    2    0    0 -0.47076597929E+02 -0.41111256555E+02  0.55222388358E+02  0.83401760557E+02  0.00000000000E+00 0.  1.
         11    1    1    2    0    0 -0.30294520555E+02  0.14555618599E+03 -0.45916684625E+03  0.48263708307E+03  0.00000000000E+00 0.  1.
        -15    1    3    3    0    0  0.66680567402E+01 -0.66521105649E+02  0.10547079989E+03  0.12488702028E+03  0.17770000000E+01 0. -1.
         15    1    3    3    0    0  0.70703061744E+02 -0.37923823782E+02  0.29847365800E+03  0.30907413609E+03  0.17770000000E+01 0.  1.
</event>
<event>
 7    1  0.3234965E-006  0.4451731E+03  0.7546771E-02  0.9531607E-01
        -11   -1    0    0    0    0  0.00000000000E+00  0.00000000000E+00  0.50000000000E+03  0.50000000000E+03  0.00000000000E+00 0. -1.
         11   -1    0    0    0    0 -0.00000000000E+00 -0.00000000000E+00 -0.50000000000E+03  0.50000000000E+03  0.00000000000E+00 0.  1.
         23    2    1    2    0    0  0.24226333962E+02  0.41263276518E+02 -0.41188009784E+03  0.42357557678E+03  0.86495554808E+02 0.  0.
        -11    1    1    2    0    0  0.77023786557E+02 -0.55583125442E+02  0.45546621112E+03  0.46526510400E+03  0.00000000000E+00 0. -1.
         11    1    1    2    0    0 -0.10125012052E+03  0.14319848924E+02 -0.43586113285E+02  0.11115931922E+03  0.00000000000E+00 0.  1.
        -15    1    3    3    0    0  0.48872859867E+02  0.51647644699E+02 -0.32315098192E+03  0.33088631050E+03  0.17770000000E+01 0.  1.
         15    1    3    3    0    0 -0.24646525905E+02 -0.10384368181E+02 -0.88729115918E+02  0.92689266273E+02  0.17770000000E+01 0. -1.
</event>
<event>
 7    1  0.3234965E-006  0.5166923E+03  0.7546771E-02  0.9363215E-01
        -11   -1    0    0    0    0  0.00000000000E+00  0.00000000000E+00  0.50000000000E+03  0.50000000000E+03  0.00000000000E+00 0. -1.
         11   -1    0    0    0    0 -0.00000000000E+00 -0.00000000000E+00 -0.50000000000E+03  0.50000000000E+03  0.00000000000E+00 0. -1.
         23    2    1    2    0    0 -0.37066591552E+02  0.79487935463E+02 -0.18360273324E+03  0.22284698378E+03  0.90876567016E+02 0.  0.
        -11    1    1    2    0    0  0.10799937604E+03 -0.55787301984E+02  0.46777153825E+03  0.48330766628E+03  0.00000000000E+00 0. -1.
         11    1    1    2    0    0 -0.70932784488E+02 -0.23700633479E+02 -0.28416880501E+03  0.29384534994E+03  0.00000000000E+00 0. -1.
        -15    1    3    3    0    0 -0.28556393884E+02  0.51869393910E+02 -0.29740235567E+02  0.66283791358E+02  0.17770000000E+01 0.  1.
         15    1    3    3    0    0 -0.85101976683E+01  0.27618541553E+02 -0.15386249767E+03  0.15656319242E+03  0.17770000000E+01 0. -1.
</event>
<event>
 7    1  0.3234965E-006  0.5109353E+03  0.7546771E-02  0.9375668E-01
        -11   -1    0    0    0    0  0.00000000000E+00  0.00000000000E+00  0.50000000000E+03  0.50000000000E+03  0.00000000000E+00 0.  1.
         11   -1    0    0    0    0 -0.00000000000E+00 -0.00000000000E+00 -0.50000000000E+03  0.50000000000E+03  0.00000000000E+00 0. -1.
         23    2    1    2    0    0 -0.73410539718E+02 -0.12041775602E+02 -0.16895622633E+03  0.20553045386E+03  0.90346274675E+02 0.  0.
        -11    1    1    2    0    0  0.15801374381E+03  0.34986138690E+02  0.46151045683E+03  0.48906469398E+03  0.00000000000E+00 0.  1.
         11    1    1    2    0    0 -0.84603204088E+02 -0.22944363087E+02 -0.29255423050E+03  0.30540485216E+03  0.00000000000E+00 0. -1.
        -15    1    3    3    0    0 -0.50693679976E+02 -0.50385151329E+02 -0.91129371486E+02  0.11582846257E+03  0.17770000000E+01 0. -1.
         15    1    3    3    0    0 -0.22716859742E+02  0.38343375726E+02 -0.77826854841E+02  0.89701991294E+02  0.17770000000E+01 0.  1.
</event>
<event>
 7    1  0.3234965E-006  0.5224955E+03  0.7546771E-02  0.9350835E-01
        -11   -1    0    0    0    0  0.00000000000E+00  0.00000000000E+00  0.50000000000E+03  0.50000000000E+03  0.00000000000E+00 0. -1.
         11   -1    0    0    0    0 -0.00000000000E+00 -0.00000000000E+00 -0.50000000000E+03  0.50000000000E+03  0.00000000000E+00 0. -1.
         23    2    1    2    0    0  0.99459236817E+02  0.63894190905E+02 -0.30922077654E+03  0.34347683828E+03  0.91565508638E+02 0.  0.
        -11    1    1    2    0    0 -0.18080196657E+03  0.25605037665E+02  0.44120918878E+03  0.47750446839E+03  0.00000000000E+00 0. -1.
         11    1    1    2    0    0  0.81342729749E+02 -0.89499228569E+02 -0.13198841224E+03  0.17901869334E+03  0.00000000000E+00 0. -1.
        -15    1    3    3    0    0  0.52032737746E+02  0.19547294958E+02 -0.45436991311E+02  0.71813511583E+02  0.17770000000E+01 0.  1.
         15    1    3    3    0    0  0.47426499072E+02  0.44346895947E+02 -0.26378378522E+03  0.27166332669E+03  0.17770000000E+01 0. -1.
</event>
<event>
 7    1  0.3234965E-006  0.4367126E+03  0.7546771E-02  0.9553743E-01
        -11   -1    0    0    0    0  0.00000000000E+00  0.00000000000E+00  0.50000000000E+03  0.50000000000E+03  0.00000000000E+00 0.  1.
         11   -1    0    0    0    0 -0.00000000000E+00 -0.00000000000E+00 -0.50000000000E+03  0.50000000000E+03  0.00000000000E+00 0. -1.
         23    2    1    2    0    0 -0.12195876412E+03 -0.16719493733E+03 -0.38346737940E+03  0.44159865222E+03  0.71652294907E+02 0.  0.
        -11    1    1    2    0    0  0.56186296795E+02  0.71055492681E+02  0.42514206527E+03  0.43468558597E+03  0.00000000000E+00 0.  1.
         11    1    1    2    0    0  0.65772467328E+02  0.96139444651E+02 -0.41674685875E+02  0.12371576180E+03  0.00000000000E+00 0. -1.
        -15    1    3    3    0    0 -0.96636311195E+02 -0.14719592686E+03 -0.26034208748E+03  0.31430300312E+03  0.17770000000E+01 0. -1.
         15    1    3    3    0    0 -0.25322452928E+02 -0.19999010472E+02 -0.12312529192E+03  0.12729564911E+03  0.17770000000E+01 0.  1.
</event>
<event>
 7    1  0.3234965E-006  0.5136909E+03  0.7546771E-02  0.9369686E-01
        -11   -1    0    0    0    0  0.00000000000E+00  0.00000000000E+00  0.50000000000E+03  0.50000000000E+03  0.00000000000E+00 0. -1.
         11   -1    0    0    0    0 -0.00000000000E+00 -0.00000000000E+00 -0.50000000000E+03  0.50000000000E+03  0.00000000000E+00 0. -1.
         23    2    1    2    0    0 -0.39717953885E+02 -0.37473525001E+02 -0.30562382521E+03  0.32343394817E+03  0.90674226549E+02 0.  0.
        -11    1    1    2    0    0  0.11098496748E+03 -0.17817120249E+02  0.47313997709E+03  0.48630911024E+03  0.00000000000E+00 0. -1.
         11    1    1    2    0    0 -0.71267013592E+02  0.55290645251E+02 -0.16751615188E+03  0.19025694158E+03  0.00000000000E+00 0. -1.
        -15    1    3    3    0    0 -0.44900766293E-01  0.26727290996E+02 -0.47893717093E+02  0.54875458687E+02  0.17770000000E+01 0. -1.
         15    1    3    3    0    0 -0.39673053118E+02 -0.64200815997E+02 -0.25773010811E+03  0.26855848949E+03  0.17770000000E+01 0.  1.
</event>
<event>
 7    1  0.3234965E-006  0.5336036E+03  0.7546771E-02  0.9327607E-01
        -11   -1    0    0    0    0  0.00000000000E+00  0.00000000000E+00  0.50000000000E+03  0.50000000000E+03  0.00000000000E+00 0.  1.
         11   -1    0    0    0    0 -0.00000000000E+00 -0.00000000000E+00 -0.50000000000E+03  0.50000000000E+03  0.00000000000E+00 0. -1.
         23    2    1    2    0    0  0.74956140181E+02  0.26486130830E+02  0.37255970465E+02  0.12639558147E+03  0.90927980313E+02 0.  0.
        -11    1    1    2    0    0  0.82994521687E+02  0.37449344751E+02  0.39689774719E+03  0.40720801291E+03  0.00000000000E+00 0.  1.
         11    1    1    2    0    0 -0.15795066187E+03 -0.63935475582E+02 -0.43415371765E+03  0.46639640562E+03  0.00000000000E+00 0. -1.
        -15    1    3    3    0    0  0.20207287696E+02 -0.13839324546E+02  0.51359980588E+02  0.56928610688E+02  0.17770000000E+01 0.  1.
         15    1    3    3    0    0  0.54748852485E+02  0.40325455376E+02 -0.14104010123E+02  0.69466970786E+02  0.17770000000E+01 0. -1.
</event>
<event>
 7    1  0.3234965E-006  0.4090380E+03  0.7546771E-02  0.9630067E-01
        -11   -1    0    0    0    0  0.00000000000E+00  0.00000000000E+00  0.50000000000E+03  0.50000000000E+03  0.00000000000E+00 0.  1.
         11   -1    0    0    0    0 -0.00000000000E+00 -0.00000000000E+00 -0.50000000000E+03  0.50000000000E+03  0.00000000000E+00 0. -1.
         23    2    1    2    0    0 -0.93858451430E+02  0.10831394134E+03  0.12170153938E+02  0.16937513293E+03  0.89434357016E+02 0.  0.
        -11    1    1    2    0    0 -0.15345693072E+02 -0.28625690927E+03  0.32542817344E+03  0.43368422206E+03  0.00000000000E+00 0.  1.
         11    1    1    2    0    0  0.10920414450E+03  0.17794296793E+03 -0.33759832737E+03  0.39694064501E+03  0.00000000000E+00 0. -1.
        -15    1    3    3    0    0 -0.93891893888E+01  0.49886118768E+02 -0.29252906846E+02  0.58614605783E+02  0.17770000000E+01 0.  1.
         15    1    3    3    0    0 -0.84469262041E+02  0.58427822571E+02  0.41423060784E+02  0.11076052715E+03  0.17770000000E+01 0. -1.
</event>
<event>
 7    1  0.3234965E-006  0.4305127E+03  0.7546771E-02  0.9570308E-01
        -11   -1    0    0    0    0  0.00000000000E+00  0.00000000000E+00  0.50000000000E+03  0.50000000000E+03  0.00000000000E+00 0. -1.
         11   -1    0    0    0    0 -0.00000000000E+00 -0.00000000000E+00 -0.50000000000E+03  0.50000000000E+03  0.00000000000E+00 0. -1.
         23    2    1    2    0    0  0.24442306444E+02 -0.16044854556E+02 -0.41268903413E+03  0.42592104879E+03  0.10120097435E+03 0.  0.
        -11    1    1    2    0    0  0.10527356055E+03  0.67616790083E+02  0.41604035853E+03  0.43444692745E+03  0.00000000000E+00 0. -1.
         11    1    1    2    0    0 -0.12971586699E+03 -0.51571935527E+02 -0.33513243972E+01  0.13963202376E+03  0.00000000000E+00 0. -1.
        -15    1    3    3    0    0 -0.15651895745E+02  0.31461118366E+02 -0.78920895995E+02  0.86408618568E+02  0.17770000000E+01 0.  1.
         15    1    3    3    0    0  0.40094202189E+02 -0.47505972922E+02 -0.33376813814E+03  0.33951243022E+03  0.17770000000E+01 0. -1.
</event>
<event>
 7    1  0.3234965E-006  0.3651796E+03  0.7546771E-02  0.9765277E-01
        -11   -1    0    0    0    0  0.00000000000E+00  0.00000000000E+00  0.50000000000E+03  0.50000000000E+03  0.00000000000E+00 0. -1.
         11   -1    0    0    0    0 -0.00000000000E+00 -0.00000000000E+00 -0.50000000000E+03  0.50000000000E+03  0.00000000000E+00 0.  1.
         23    2    1    2    0    0  0.78644733105E+02  0.11515549248E+03 -0.25685010739E+03  0.30586193222E+03  0.90187373948E+02 0.  0.
        -11    1    1    2    0    0 -0.30666461243E+03 -0.73680529642E+02  0.32468811000E+03  0.45265259719E+03  0.00000000000E+00 0. -1.
         11    1    1    2    0    0  0.22801987932E+03 -0.41474962834E+02 -0.67838002614E+02  0.24148547059E+03  0.00000000000E+00 0.  1.
        -15    1    3    3    0    0 -0.16781600741E+01  0.51211570655E+02 -0.37037916656E+02  0.63248764331E+02  0.17770000000E+01 0.  1.
         15    1    3    3    0    0  0.80322893179E+02  0.63943921821E+02 -0.21981219073E+03  0.24261316788E+03  0.17770000000E+01 0. -1.
</event>
<event>
 7    1  0.3234965E-006  0.5200311E+03  0.7546771E-02  0.9356071E-01
        -11   -1    0    0    0    0  0.00000000000E+00  0.00000000000E+00  0.50000000000E+03  0.50000000000E+03  0.00000000000E+00 0. -1.
         11   -1    0    0    0    0 -0.00000000000E+00 -0.00000000000E+00 -0.50000000000E+03  0.50000000000E+03  0.00000000000E+00 0.  1.
         23    2    1    2    0    0  0.15630411355E+03  0.40401113049E+02 -0.37425114204E+03  0.41781336164E+03  0.91874163929E+02 0.  0.
        -11    1    1    2    0    0 -0.14801946795E+03  0.20231562325E+02  0.45612612960E+03  0.47996887932E+03  0.00000000000E+00 0. -1.
         11    1    1    2    0    0 -0.82846456002E+01 -0.60632675375E+02 -0.81874987563E+02  0.10221775905E+03  0.00000000000E+00 0.  1.
        -15    1    3    3    0    0  0.13417193082E+03  0.67196026491E+02 -0.31866911797E+03  0.35223653625E+03  0.17770000000E+01 0.  1.
         15    1    3    3    0    0  0.22132182732E+02 -0.26794913442E+02 -0.55582024071E+02  0.65576825385E+02  0.17770000000E+01 0. -1.
</event>
<event>
 7    1  0.3234965E-006  0.3331742E+03  0.7546771E-02  0.9877486E-01
        -11   -1    0    0    0    0  0.00000000000E+00  0.00000000000E+00  0.50000000000E+03  0.50000000000E+03  0.00000000000E+00 0.  1.
         11   -1    0    0    0    0 -0.00000000000E+00 -0.00000000000E+00 -0.50000000000E+03  0.50000000000E+03  0.00000000000E+00 0. -1.
         23    2    1    2    0    0 -0.19487781026E+03 -0.74415643223E+01 -0.17955272266E+03  0.28285838082E+03  0.98675962497E+02 0.  0.
        -11    1    1    2    0    0 -0.54908427590E+00 -0.82135915453E+02  0.40051804187E+03  0.40885365593E+03  0.00000000000E+00 0.  1.
         11    1    1    2    0    0  0.19542689454E+03  0.89577479775E+02 -0.22096531921E+03  0.30828796325E+03  0.00000000000E+00 0. -1.
        -15    1    3    3    0    0 -0.16069559401E+03 -0.16285596726E+02 -0.18660920003E+03  0.24680852064E+03  0.17770000000E+01 0. -1.
         15    1    3    3    0    0 -0.34182216253E+02  0.88440324042E+01  0.70564773749E+01  0.36049860181E+02  0.17770000000E+01 0.  1.
</event>
<event>
 7    1  0.3234965E-006  0.5275015E+03  0.7546771E-02  0.9340292E-01
        -11   -1    0    0    0    0  0.00000000000E+00  0.00000000000E+00  0.50000000000E+03  0.50000000000E+03  0.00000000000E+00 0. -1.
         11   -1    0    0    0    0 -0.00000000000E+00 -0.00000000000E+00 -0.50000000000E+03  0.50000000000E+03  0.00000000000E+00 0. -1.
         23    2    1    2    0    0 -0.26154227617E+02  0.14798212939E+03  0.24424263939E+03  0.30232410901E+03  0.95721709933E+02 0.  0.
        -11    1    1    2    0    0  0.79624154078E+02 -0.25803076638E+02  0.20904320685E+03  0.22517741229E+03  0.00000000000E+00 0. -1.
         11    1    1    2    0    0 -0.53469926461E+02 -0.12217905276E+03 -0.45328584624E+03  0.47249847869E+03  0.00000000000E+00 0. -1.
        -15    1    3    3    0    0 -0.33866594629E+02  0.73197549248E+02  0.19858843488E+03  0.21434866840E+03  0.17770000000E+01 0. -1.
         15    1    3    3    0    0  0.77123670122E+01  0.74784580147E+02  0.45654204508E+02  0.87975440612E+02  0.17770000000E+01 0.  1.
</event>
<event>
 7    1  0.3234965E-006  0.5156417E+03  0.7546771E-02  0.9365475E-01
        -11   -1    0    0    0    0  0.00000000000E+00  0.00000000000E+00  0.50000000000E+03  0.50000000000E+03  0.00000000000E+00 0.  1.
         11   -1    0    0    0    0 -0.00000000000E+00 -0.00000000000E+00 -0.50000000000E+03  0.50000000000E+03  0.00000000000E+00 0. -1.
         23    2    1    2    0    0 -0.10013126412E+03  0.15468774869E+03 -0.18720104028E+03  0.27811589816E+03  0.91376439394E+02 0.  0.
        -11    1    1    2    0    0  0.25056541282E+03 -0.19255282753E+03  0.36707405459E+03  0.48435831679E+03  0.00000000000E+00 0.  1.
         11    1    1    2    0    0 -0.15043414870E+03  0.37865078834E+02 -0.17987301430E+03  0.23752578505E+03  0.00000000000E+00 0. -1.
        -15    1    3    3    0    0 -0.49030879730E+02  0.51481148454E+02 -0.17871951561E+02  0.73327349569E+02  0.17770000000E+01 0.  1.
         15    1    3    3    0    0 -0.51100384393E+02  0.10320660024E+03 -0.16932908872E+03  0.20478854859E+03  0.17770000000E+01 0. -1.
</event>
<event>
 7    1  0.3234965E-006  0.4540195E+03  0.7546771E-02  0.9509014E-01
        -11   -1    0    0    0    0  0.00000000000E+00  0.00000000000E+00  0.50000000000E+03  0.50000000000E+03  0.00000000000E+00 0. -1.
         11   -1    0    0    0    0 -0.00000000000E+00 -0.00000000000E+00 -0.50000000000E+03  0.50000000000E+03  0.00000000000E+00 0. -1.
         23    2    1    2    0    0  0.15779789285E+02 -0.65419090846E+02 -0.39392772608E+03  0.41847126740E+03  0.12413899092E+03 0.  0.
        -11    1    1    2    0    0 -0.91419825068E+02  0.70584363342E+02  0.46407966179E+03  0.47823599744E+03  0.00000000000E+00 0. -1.
         11    1    1    2    0    0  0.75640035783E+02 -0.51652724959E+01 -0.70151935706E+02  0.10329273516E+03  0.00000000000E+00 0. -1.
        -15    1    3    3    0    0  0.47627025992E+02  0.18734671426E+02 -0.14277746916E+03  0.15168350255E+03  0.17770000000E+01 0.  1.
         15    1    3    3    0    0 -0.31847236707E+02 -0.84153762272E+02 -0.25115025693E+03  0.26678776485E+03  0.17770000000E+01 0. -1.
</event>
<event>
 6    1  0.3234965E-006  0.4750760E+03  0.7546771E-02  0.9457374E-01
        -11   -1    0    0    0    0  0.00000000000E+00  0.00000000000E+00  0.50000000000E+03  0.50000000000E+03  0.00000000000E+00 0.  1.
         11   -1    0    0    0    0 -0.00000000000E+00 -0.00000000000E+00 -0.50000000000E+03  0.50000000000E+03  0.00000000000E+00 0. -1.
        -11    1    1    2    0    0 -0.44960851594E+02  0.11047714077E+02  0.75817892929E+02  0.88836271030E+02  0.00000000000E+00 0.  1.
         11    1    1    2    0    0 -0.81604117959E+02 -0.19849390632E+03 -0.40926820069E+03  0.46212500799E+03  0.00000000000E+00 0. -1.
        -15    1    1    2    0    0 -0.23356838008E+02  0.12986208623E+03  0.20303064619E+03  0.24214521334E+03  0.17770000000E+01 0.  1.
         15    1    1    2    0    0  0.14992180756E+03  0.57584106009E+02  0.13041966157E+03  0.20689350763E+03  0.17770000000E+01 0. -1.
</event>
<event>
 7    1  0.3234965E-006  0.4894573E+03  0.7546771E-02  0.9423714E-01
        -11   -1    0    0    0    0  0.00000000000E+00  0.00000000000E+00  0.50000000000E+03  0.50000000000E+03  0.00000000000E+00 0.  1.
         11   -1    0    0    0    0 -0.00000000000E+00 -0.00000000000E+00 -0.50000000000E+03  0.50000000000E+03  0.00000000000E+00 0. -1.
         23    2    1    2    0    0 -0.14488654061E+03  0.73623543773E+02  0.43901073542E+03  0.47729482512E+03  0.93098810019E+02 0.  0.
        -11    1    1    2    0    0  0.54965880460E+00  0.17846680778E+02  0.23571163526E+02  0.29570354911E+02  0.00000000000E+00 0.  1.
         11    1    1    2    0    0  0.14433688181E+03 -0.91470224551E+02 -0.46258189895E+03  0.49313481997E+03  0.00000000000E+00 0. -1.
        -15    1    3    3    0    0 -0.12587838257E+03  0.48122692659E+02  0.41785982882E+03  0.43905712045E+03  0.17770000000E+01 0.  1.
         15    1    3    3    0    0 -0.19008158040E+02  0.25500851113E+02  0.21150906599E+02  0.38237704672E+02  0.17770000000E+01 0. -1.
</event>
<event>
 7    1  0.3234965E-006  0.4415030E+03  0.7546771E-02  0.9541144E-01
        -11   -1    0    0    0    0  0.00000000000E+00  0.00000000000E+00  0.50000000000E+03  0.50000000000E+03  0.00000000000E+00 0. -1.
         11   -1    0    0    0    0 -0.00000000000E+00 -0.00000000000E+00 -0.50000000000E+03  0.50000000000E+03  0.00000000000E+00 0.  1.
         23    2    1    2    0    0 -0.40239630205E+02  0.23206961550E+02  0.60984260394E+01  0.11575200356E+03  0.10584679789E+03 0.  0.
        -11    1    1    2    0    0  0.14734046878E+03  0.93640788311E+02  0.40641809316E+03  0.44232734193E+03  0.00000000000E+00 0. -1.
         11    1    1    2    0    0 -0.10710083858E+03 -0.11684774986E+03 -0.41251651920E+03  0.44192065451E+03  0.00000000000E+00 0.  1.
        -15    1    3    3    0    0  0.72526131016E+01  0.16060717594E+02  0.48517675838E+02  0.51649488325E+02  0.17770000000E+01 0. -1.
         15    1    3    3    0    0 -0.47492243306E+02  0.71462439559E+01 -0.42419249799E+02  0.64102515235E+02  0.17770000000E+01 0.  1.
</event>
<event>
 7    1  0.3234965E-006  0.5398908E+03  0.7546771E-02  0.9314724E-01
        -11   -1    0    0    0    0  0.00000000000E+00  0.00000000000E+00  0.50000000000E+03  0.50000000000E+03  0.00000000000E+00 0. -1.
         11   -1    0    0    0    0 -0.00000000000E+00 -0.00000000000E+00 -0.50000000000E+03  0.50000000000E+03  0.00000000000E+00 0. -1.
         23    2    1    2    0    0  0.50466047218E+02  0.39873255882E+02 -0.28700068146E+03  0.30822922815E+03  0.92190929422E+02 0.  0.
        -11    1    1    2    0    0  0.59429725909E+02  0.84945728600E+02  0.44827757371E+03  0.46010917424E+03  0.00000000000E+00 0. -1.
         11    1    1    2    0    0 -0.10989577313E+03 -0.12481898448E+03 -0.16127689224E+03  0.23166159762E+03  0.00000000000E+00 0. -1.
        -15    1    3    3    0    0  0.40176427332E+02  0.59983438051E+02 -0.27108317667E+03  0.28053770612E+03  0.17770000000E+01 0.  1.
         15    1    3    3    0    0  0.10289619886E+02 -0.20110182169E+02 -0.15917504793E+02  0.27691522026E+02  0.17770000000E+01 0. -1.
</event>
<event>
 7    1  0.3234965E-006  0.5205083E+03  0.7546771E-02  0.9355055E-01
        -11   -1    0    0    0    0  0.00000000000E+00  0.00000000000E+00  0.50000000000E+03  0.50000000000E+03  0.00000000000E+00 0. -1.
         11   -1    0    0    0    0 -0.00000000000E+00 -0.00000000000E+00 -0.50000000000E+03  0.50000000000E+03  0.00000000000E+00 0. -1.
         23    2    1    2    0    0  0.67124905550E+02 -0.63268753283E+02 -0.20691953415E+03  0.24783815976E+03  0.10049563043E+03 0.  0.
        -11    1    1    2    0    0 -0.81641719367E+02  0.31348394443E+01  0.47247969339E+03  0.47949166648E+03  0.00000000000E+00 0. -1.
         11    1    1    2    0    0  0.14516813817E+02  0.60133913838E+02 -0.26556015924E+03  0.27267017375E+03  0.00000000000E+00 0. -1.
        -15    1    3    3    0    0 -0.22519778779E+02 -0.33611021956E+02 -0.46299815813E+02  0.61511559129E+02  0.17770000000E+01 0. -1.
         15    1    3    3    0    0  0.89644684329E+02 -0.29657731327E+02 -0.16061971834E+03  0.18632660064E+03  0.17770000000E+01 0.  1.
</event>
<event>
 7    1  0.3234965E-006  0.3387685E+03  0.7546771E-02  0.9856921E-01
        -11   -1    0    0    0    0  0.00000000000E+00  0.00000000000E+00  0.50000000000E+03  0.50000000000E+03  0.00000000000E+00 0.  1.
         11   -1    0    0    0    0 -0.00000000000E+00 -0.00000000000E+00 -0.50000000000E+03  0.50000000000E+03  0.00000000000E+00 0.  1.
         23    2    1    2    0    0 -0.14150761811E+03  0.12647863670E+03 -0.17709123330E+03  0.27443882531E+03  0.89073634705E+02 0.  0.
        -11    1    1    2    0    0 -0.11740463568E+03 -0.15940311062E+03  0.35724016538E+03  0.40842837306E+03  0.00000000000E+00 0.  1.
         11    1    1    2    0    0  0.25891225379E+03  0.32924473921E+02 -0.18014893208E+03  0.31713280164E+03  0.00000000000E+00 0.  1.
        -15    1    3    3    0    0 -0.27644156192E+02  0.18020202889E+02 -0.87306685530E+02  0.93351712094E+02  0.17770000000E+01 0.  1.
         15    1    3    3    0    0 -0.11386346191E+03  0.10845843381E+03 -0.89784547774E+02  0.18108711322E+03  0.17770000000E+01 0. -1.
</event>
<event>
 7    1  0.3234965E-006  0.5123692E+03  0.7546771E-02  0.9372550E-01
        -11   -1    0    0    0    0  0.00000000000E+00  0.00000000000E+00  0.50000000000E+03  0.50000000000E+03  0.00000000000E+00 0. -1.
         11   -1    0    0    0    0 -0.00000000000E+00 -0.00000000000E+00 -0.50000000000E+03  0.50000000000E+03  0.00000000000E+00 0.  1.
         23    2    1    2    0    0 -0.91035050195E+01  0.12056425994E+03 -0.33819043645E+03  0.37082282226E+03  0.92293984771E+02 0.  0.
        -11    1    1    2    0    0 -0.53192595924E+01 -0.22509048469E+03  0.43253881079E+03  0.48763084773E+03  0.00000000000E+00 0. -1.
         11    1    1    2    0    0  0.14422764612E+02  0.10452622475E+03 -0.94348374339E+02  0.14154633001E+03  0.00000000000E+00 0.  1.
        -15    1    3    3    0    0  0.29951655544E+02  0.66845492645E+02 -0.10282541808E+03  0.12626023083E+03  0.17770000000E+01 0. -1.
         15    1    3    3    0    0 -0.39055160564E+02  0.53718767296E+02 -0.23536501837E+03  0.24456259143E+03  0.17770000000E+01 0.  1.
</event>
<event>
 7    1  0.3234965E-006  0.3192278E+03  0.7546771E-02  0.9930700E-01
        -11   -1    0    0    0    0  0.00000000000E+00  0.00000000000E+00  0.50000000000E+03  0.50000000000E+03  0.00000000000E+00 0.  1.
         11   -1    0    0    0    0 -0.00000000000E+00 -0.00000000000E+00 -0.50000000000E+03  0.50000000000E+03  0.00000000000E+00 0. -1.
         23    2    1    2    0    0  0.25020470964E+03 -0.20498409597E+01 -0.16690569409E+03  0.31096829905E+03  0.78975779334E+02 0.  0.
        -11    1    1    2    0    0 -0.80216114257E+02 -0.19049722651E+03  0.32665479676E+03  0.38655811276E+03  0.00000000000E+00 0.  1.
         11    1    1    2    0    0 -0.16998859538E+03  0.19254706747E+03 -0.15974910267E+03  0.30247358819E+03  0.00000000000E+00 0. -1.
        -15    1    3    3    0    0  0.20310128848E+03  0.25844981078E+02 -0.11184168559E+03  0.23330198626E+03  0.17770000000E+01 0. -1.
         15    1    3    3    0    0  0.47103421163E+02 -0.27894822038E+02 -0.55064008497E+02  0.77666312791E+02  0.17770000000E+01 0.  1.
</event>
<event>
 7    1  0.3234965E-006  0.3297089E+03  0.7546771E-02  0.9890443E-01
        -11   -1    0    0    0    0  0.00000000000E+00  0.00000000000E+00  0.50000000000E+03  0.50000000000E+03  0.00000000000E+00 0.  1.
         11   -1    0    0    0    0 -0.00000000000E+00 -0.00000000000E+00 -0.50000000000E+03  0.50000000000E+03  0.00000000000E+00 0. -1.
         23    2    1    2    0    0  0.80790486229E+02 -0.24420278631E+03  0.50475643685E+02  0.29039318591E+03  0.12497323039E+03 0.  0.
        -11    1    1    2    0    0 -0.13279162591E+03  0.10417371422E+03  0.29127351230E+03  0.33663932868E+03  0.00000000000E+00 0.  1.
         11    1    1    2    0    0  0.52001139682E+02  0.14002907208E+03 -0.34174915598E+03  0.37296748541E+03  0.00000000000E+00 0. -1.
        -15    1    3    3    0    0  0.10219574753E+02 -0.18302542092E+03 -0.18387728669E+01  0.18332834812E+03  0.17770000000E+01 0. -1.
         15    1    3    3    0    0  0.70570911476E+02 -0.61177365384E+02  0.52314416552E+02  0.10706483779E+03  0.17770000000E+01 0. -1.
</event>
<event>
 7    1  0.3234965E-006  0.3763102E+03  0.7546771E-02  0.9729109E-01
        -11   -1    0    0    0    0  0.00000000000E+00  0.00000000000E+00  0.50000000000E+03  0.50000000000E+03  0.00000000000E+00 0.  1.
         11   -1    0    0    0    0 -0.00000000000E+00 -0.00000000000E+00 -0.50000000000E+03  0.50000000000E+03  0.00000000000E+00 0. -1.
         23    2    1    2    0    0 -0.41030431855E+02  0.57428193076E+02 -0.35198223979E+03  0.37179654529E+03  0.96745440532E+02 0.  0.
        -11    1    1    2    0    0 -0.40911734078E+02  0.15269365937E+03  0.36959542651E+03  0.40198246590E+03  0.00000000000E+00 0.  1.
         11    1    1    2    0    0  0.81942165933E+02 -0.21012185244E+03 -0.17613186721E+02  0.22622098881E+03  0.00000000000E+00 0. -1.
        -15    1    3    3    0    0 -0.45720070418E+01 -0.24324165717E+02 -0.13165959251E+03  0.13397751422E+03  0.17770000000E+01 0.  1.
         15    1    3    3    0    0 -0.36458424813E+02  0.81752358793E+02 -0.22032264728E+03  0.23781903107E+03  0.17770000000E+01 0. -1.
</event>
<event>
 7    1  0.3234965E-006  0.4404742E+03  0.7546771E-02  0.9543836E-01
        -11   -1    0    0    0    0  0.00000000000E+00  0.00000000000E+00  0.50000000000E+03  0.50000000000E+03  0.00000000000E+00 0. -1.
         11   -1    0    0    0    0 -0.00000000000E+00 -0.00000000000E+00 -0.50000000000E+03  0.50000000000E+03  0.00000000000E+00 0.  1.
         23    2    1    2    0    0 -0.92786119867E+02  0.86529596943E+02 -0.41860986545E+03  0.44649728721E+03  0.89604535855E+02 0.  0.
        -11    1    1    2    0    0  0.20336318519E+03 -0.90117494350E+02  0.37204221056E+03  0.43346643966E+03  0.00000000000E+00 0. -1.
         11    1    1    2    0    0 -0.11057706533E+03  0.35878974069E+01  0.46567654894E+02  0.12003627313E+03  0.00000000000E+00 0.  1.
        -15    1    3    3    0    0 -0.94980978622E+02  0.54303983043E+02 -0.38328365473E+03  0.39859732386E+03  0.17770000000E+01 0.  1.
         15    1    3    3    0    0  0.21948587547E+01  0.32225613900E+02 -0.35326210718E+02  0.47899963350E+02  0.17770000000E+01 0. -1.
</event>
<event>
 7    1  0.3234965E-006  0.3754819E+03  0.7546771E-02  0.9731754E-01
        -11   -1    0    0    0    0  0.00000000000E+00  0.00000000000E+00  0.50000000000E+03  0.50000000000E+03  0.00000000000E+00 0. -1.
         11   -1    0    0    0    0 -0.00000000000E+00 -0.00000000000E+00 -0.50000000000E+03  0.50000000000E+03  0.00000000000E+00 0.  1.
         23    2    1    2    0    0  0.17604870175E+02  0.96780308900E+02 -0.34254790158E+03  0.36540735745E+03  0.80666674396E+02 0.  0.
        -11    1    1    2    0    0 -0.20687152934E+03 -0.20496608434E+03  0.28863434536E+03  0.41002037840E+03  0.00000000000E+00 0. -1.
         11    1    1    2    0    0  0.18926665917E+03  0.10818577544E+03  0.53913556213E+02  0.22457226415E+03  0.00000000000E+00 0.  1.
        -15    1    3    3    0    0 -0.62691619575E+01  0.96573708841E+02 -0.31155510619E+03  0.32624457934E+03  0.17770000000E+01 0.  1.
         15    1    3    3    0    0  0.23874032132E+02  0.20660005923E+00 -0.30992795391E+02  0.39162778106E+02  0.17770000000E+01 0. -1.
</event>
<event>
 7    1  0.3234965E-006  0.5083210E+03  0.7546771E-02  0.9381381E-01
        -11   -1    0    0    0    0  0.00000000000E+00  0.00000000000E+00  0.50000000000E+03  0.50000000000E+03  0.00000000000E+00 0.  1.
         11   -1    0    0    0    0 -0.00000000000E+00 -0.00000000000E+00 -0.50000000000E+03  0.50000000000E+03  0.00000000000E+00 0. -1.
         23    2    1    2    0    0 -0.92482302865E+02 -0.14837364277E+03 -0.45092783424E+03  0.49167903114E+03  0.88569993510E+02 0.  0.
        -11    1    1    2    0    0 -0.17583930210E+02  0.63451959344E+02  0.28180302430E+03  0.28939296856E+03  0.00000000000E+00 0.  1.
         11    1    1    2    0    0  0.11006623307E+03  0.84921683427E+02  0.16912480994E+03  0.21892800030E+03  0.00000000000E+00 0. -1.
        -15    1    3    3    0    0 -0.10908474659E+03 -0.11692468532E+03 -0.38121844370E+03  0.41340237484E+03  0.17770000000E+01 0. -1.
         15    1    3    3    0    0  0.16602443722E+02 -0.31448957449E+02 -0.69709390539E+02  0.78276656294E+02  0.17770000000E+01 0.  1.
</event>
<event>
 7    1  0.3234965E-006  0.5273511E+03  0.7546771E-02  0.9340607E-01
        -11   -1    0    0    0    0  0.00000000000E+00  0.00000000000E+00  0.50000000000E+03  0.50000000000E+03  0.00000000000E+00 0.  1.
         11   -1    0    0    0    0 -0.00000000000E+00 -0.00000000000E+00 -0.50000000000E+03  0.50000000000E+03  0.00000000000E+00 0. -1.
         23    2    1    2    0    0 -0.68535228486E+02 -0.50912630016E+00 -0.29939337294E+03  0.32037078474E+03  0.91124701376E+02 0.  0.
        -11    1    1    2    0    0 -0.31364192379E+01  0.11021399840E+03  0.45960850059E+03  0.47264885103E+03  0.00000000000E+00 0.  1.
         11    1    1    2    0    0  0.71671647724E+02 -0.10970487210E+03 -0.16021512765E+03  0.20698036423E+03  0.00000000000E+00 0. -1.
        -15    1    3    3    0    0 -0.48186629942E+01 -0.33069835881E+02 -0.16232881325E+03  0.16574267675E+03  0.17770000000E+01 0.  1.
         15    1    3    3    0    0 -0.63716565492E+02  0.32560709581E+02 -0.13706455969E+03  0.15462810799E+03  0.17770000000E+01 0. -1.
</event>
<event>
 7    1  0.3234965E-006  0.3843898E+03  0.7546771E-02  0.9703683E-01
        -11   -1    0    0    0    0  0.00000000000E+00  0.00000000000E+00  0.50000000000E+03  0.50000000000E+03  0.00000000000E+00 0. -1.
         11   -1    0    0    0    0 -0.00000000000E+00 -0.00000000000E+00 -0.50000000000E+03  0.50000000000E+03  0.00000000000E+00 0.  1.
         23    2    1    2    0    0  0.81105782306E+02 -0.46020973524E+02 -0.36508599129E+03  0.38770612258E+03  0.91280767541E+02 0.  0.
        -11    1    1    2    0    0  0.58350691990E+02 -0.11428330696E+03  0.37823894433E+03  0.39941228889E+03  0.00000000000E+00 0. -1.
         11    1    1    2    0    0 -0.13945647430E+03  0.16030428048E+03 -0.13152953044E+02  0.21288158854E+03  0.00000000000E+00 0.  1.
        -15    1    3    3    0    0 -0.19192682920E+02 -0.79828537094E+01 -0.91240943496E+02  0.93595686493E+02  0.17770000000E+01 0. -1.
         15    1    3    3    0    0  0.10029846523E+03 -0.38038119814E+02 -0.27384504779E+03  0.29411043608E+03  0.17770000000E+01 0.  1.
</event>
<event>
 7    1  0.3234965E-006  0.4732613E+03  0.7546771E-02  0.9461711E-01
        -11   -1    0    0    0    0  0.00000000000E+00  0.00000000000E+00  0.50000000000E+03  0.50000000000E+03  0.00000000000E+00 0.  1.
         11   -1    0    0    0    0 -0.00000000000E+00 -0.00000000000E+00 -0.50000000000E+03  0.50000000000E+03  0.00000000000E+00 0.  1.
         23    2    1    2    0    0  0.13674883717E+03  0.31980442743E+02  0.41538103521E+03  0.44780996297E+03  0.90936050816E+02 0.  0.
        -11    1    1    2    0    0  0.21320043422E+01  0.29953187385E+02  0.52355314496E+02  0.60355760561E+02  0.00000000000E+00 0.  1.
         11    1    1    2    0    0 -0.13888084151E+03 -0.61933630128E+02 -0.46773634970E+03  0.49183427647E+03  0.00000000000E+00 0.  1.
        -15    1    3    3    0    0  0.71568332560E+02 -0.12387999654E+02  0.29558317134E+03  0.30438143450E+03  0.17770000000E+01 0.  1.
         15    1    3    3    0    0  0.65180504611E+02  0.44368442397E+02  0.11979786387E+03  0.14342852847E+03  0.17770000000E+01 0. -1.
</event>
<event>
 7    1  0.3234965E-006  0.5287225E+03  0.7546771E-02  0.9337739E-01
        -11   -1    0    0    0    0  0.00000000000E+00  0.00000000000E+00  0.50000000000E+03  0.50000000000E+03  0.00000000000E+00 0.  1.
         11   -1    0    0    0    0 -0.00000000000E+00 -0.00000000000E+00 -0.50000000000E+03  0.50000000000E+03  0.00000000000E+00 0. -1.
         23    2    1    2    0    0  0.11442533793E+03 -0.14273436648E+03  0.25285495020E+03  0.32582009369E+03  0.93578043772E+02 0.  0.
        -11    1    1    2    0    0  0.27833374888E+02  0.66001805172E+02  0.18983798423E+03  0.20290242803E+03  0.00000000000E+00 0.  1.
         11    1    1    2    0    0 -0.14225871282E+03  0.76732561307E+02 -0.44269293443E+03  0.47127747828E+03  0.00000000000E+00 0. -1.
        -15    1    3    3    0    0  0.28416641158E+02 -0.39676681043E+01  0.92930876682E+02  0.97275657052E+02  0.17770000000E+01 0. -1.
         15    1    3    3    0    0  0.86008696773E+02 -0.13876669837E+03  0.15992407352E+03  0.22854443664E+03  0.17770000000E+01 0.  1.
</event>
<event>
 7    1  0.3234965E-006  0.5110727E+03  0.7546771E-02  0.9375369E-01
        -11   -1    0    0    0    0  0.00000000000E+00  0.00000000000E+00  0.50000000000E+03  0.50000000000E+03  0.00000000000E+00 0.  1.
         11   -1    0    0    0    0 -0.00000000000E+00 -0.00000000000E+00 -0.50000000000E+03  0.50000000000E+03  0.00000000000E+00 0. -1.
         23    2    1    2    0    0  0.40053819868E+01  0.10926145025E+02 -0.17684551953E+03  0.19695080986E+03  0.85906111502E+02 0.  0.
        -11    1    1    2    0    0 -0.68660151393E+02 -0.58594597430E+02  0.48052302797E+03  0.48892731939E+03  0.00000000000E+00 0.  1.
         11    1    1    2    0    0  0.64654769406E+02  0.47668452406E+02 -0.30367750843E+03  0.31412187076E+03  0.00000000000E+00 0. -1.
        -15    1    3    3    0    0 -0.23456149470E+02  0.59124013032E+01 -0.76123293658E+01  0.25421501224E+02  0.17770000000E+01 0. -1.
         15    1    3    3    0    0  0.27461531456E+02  0.50137437215E+01 -0.16923319017E+03  0.17152930863E+03  0.17770000000E+01 0.  1.
</event>
<event>
 7    1  0.3234965E-006  0.5181734E+03  0.7546771E-02  0.9360039E-01
        -11   -1    0    0    0    0  0.00000000000E+00  0.00000000000E+00  0.50000000000E+03  0.50000000000E+03  0.00000000000E+00 0.  1.
         11   -1    0    0    0    0 -0.00000000000E+00 -0.00000000000E+00 -0.50000000000E+03  0.50000000000E+03  0.00000000000E+00 0. -1.
         23    2    1    2    0    0  0.30590768209E+02  0.19228221215E+03  0.21863560337E+03  0.30610924440E+03  0.89404128739E+02 0.  0.
        -11    1    1    2    0    0  0.32285902481E+02  0.21698324195E+02  0.20846589019E+03  0.21206419816E+03  0.00000000000E+00 0.  1.
         11    1    1    2    0    0 -0.62876670690E+02 -0.21398053634E+03 -0.42710149356E+03  0.48182655744E+03  0.00000000000E+00 0. -1.
        -15    1    3    3    0    0  0.59263757677E+02  0.88234303644E+02  0.10880541937E+03  0.15211595027E+03  0.17770000000E+01 0.  1.
         15    1    3    3    0    0 -0.28672989467E+02  0.10404790850E+03  0.10983018400E+03  0.15399329413E+03  0.17770000000E+01 0. -1.
</event>
<event>
 7    1  0.3234965E-006  0.5338918E+03  0.7546771E-02  0.9327013E-01
        -11   -1    0    0    0    0  0.00000000000E+00  0.00000000000E+00  0.50000000000E+03  0.50000000000E+03  0.00000000000E+00 0.  1.
         11   -1    0    0    0    0 -0.00000000000E+00 -0.00000000000E+00 -0.50000000000E+03  0.50000000000E+03  0.00000000000E+00 0. -1.
         23    2    1    2    0    0 -0.23316362792E+02 -0.70918247510E+02 -0.36798512623E+03  0.38808808003E+03  0.98113475812E+02 0.  0.
        -11    1    1    2    0    0  0.77652241303E+02 -0.29515835477E+02  0.45864563090E+03  0.46610821691E+03  0.00000000000E+00 0.  1.
         11    1    1    2    0    0 -0.54335878511E+02  0.10043408299E+03 -0.90660504674E+02  0.14580370306E+03  0.00000000000E+00 0. -1.
        -15    1    3    3    0    0  0.36038638924E+02 -0.89043855402E+01 -0.12306364852E+03  0.12855306645E+03  0.17770000000E+01 0.  1.
         15    1    3    3    0    0 -0.59355001716E+02 -0.62013861969E+02 -0.24492147770E+03  0.25953501358E+03  0.17770000000E+01 0. -1.
</event>
<event>
 7    1  0.3234965E-006  0.5240509E+03  0.7546771E-02  0.9347546E-01
        -11   -1    0    0    0    0  0.00000000000E+00  0.00000000000E+00  0.50000000000E+03  0.50000000000E+03  0.00000000000E+00 0.  1.
         11   -1    0    0    0    0 -0.00000000000E+00 -0.00000000000E+00 -0.50000000000E+03  0.50000000000E+03  0.00000000000E+00 0. -1.
         23    2    1    2    0    0 -0.19642602164E+02  0.95000649000E+02  0.27873007354E+03  0.30987481945E+03  0.94451017477E+02 0.  0.
        -11    1    1    2    0    0  0.78468660892E+02  0.15998295324E+03  0.11882550684E+03  0.21417604241E+03  0.00000000000E+00 0.  1.
         11    1    1    2    0    0 -0.58826058728E+02 -0.25498360224E+03 -0.39755558039E+03  0.47594913813E+03  0.00000000000E+00 0. -1.
        -15    1    3    3    0    0  0.32012835323E+02  0.71702402181E+02  0.15447211414E+03  0.17329410804E+03  0.17770000000E+01 0.  1.
         15    1    3    3    0    0 -0.51655437488E+02  0.23298246820E+02  0.12425795940E+03  0.13658071141E+03  0.17770000000E+01 0. -1.
</event>
<event>
 7    1  0.3234965E-006  0.4824262E+03  0.7546771E-02  0.9440014E-01
        -11   -1    0    0    0    0  0.00000000000E+00  0.00000000000E+00  0.50000000000E+03  0.50000000000E+03  0.00000000000E+00 0. -1.
         11   -1    0    0    0    0 -0.00000000000E+00 -0.00000000000E+00 -0.50000000000E+03  0.50000000000E+03  0.00000000000E+00 0. -1.
         23    2    1    2    0    0  0.47571363611E+02 -0.11668123636E+02 -0.46105814136E+03  0.47305265216E+03  0.93835080074E+02 0.  0.
        -11    1    1    2    0    0 -0.80303065742E+02  0.36209279724E+02  0.47547898149E+03  0.48357001163E+03  0.00000000000E+00 0. -1.
         11    1    1    2    0    0  0.32731702131E+02 -0.24541156088E+02 -0.14420840129E+02  0.43377336208E+02  0.00000000000E+00 0. -1.
        -15    1    3    3    0    0 -0.25594914272E+02  0.46894657938E+01 -0.66520101842E+02  0.71450489180E+02  0.17770000000E+01 0.  1.
         15    1    3    3    0    0  0.73166277883E+02 -0.16357589430E+02 -0.39453803952E+03  0.40160216298E+03  0.17770000000E+01 0. -1.
</event>
<event>
 7    1  0.3234965E-006  0.5074153E+03  0.7546771E-02  0.9383369E-01
        -11   -1    0    0    0    0  0.00000000000E+00  0.00000000000E+00  0.50000000000E+03  0.50000000000E+03  0.00000000000E+00 0.  1.
         11   -1    0    0    0    0 -0.00000000000E+00 -0.00000000000E+00 -0.50000000000E+03  0.50000000000E+03  0.00000000000E+00 0. -1.
         23    2    1    2    0    0 -0.36697931882E+02  0.17294227165E+03  0.32441065273E+03  0.38202766087E+03  0.97196165216E+02 0.  0.
        -11    1    1    2    0    0 -0.50813914982E+01  0.80918193193E+02  0.95647719666E+02  0.12538764216E+03  0.00000000000E+00 0.  1.
         11    1    1    2    0    0  0.41779323380E+02 -0.25386046484E+03 -0.42005837240E+03  0.49258469697E+03  0.00000000000E+00 0. -1.
        -15    1    3    3    0    0  0.13864148028E+02  0.11124622788E+03  0.24510020896E+03  0.26952774992E+03  0.17770000000E+01 0.  1.
         15    1    3    3    0    0 -0.50562079910E+02  0.61696043771E+02  0.79310443777E+02  0.11249991095E+03  0.17770000000E+01 0. -1.
</event>
<event>
 7    1  0.3234965E-006  0.5142822E+03  0.7546771E-02  0.9368407E-01
        -11   -1    0    0    0    0  0.00000000000E+00  0.00000000000E+00  0.50000000000E+03  0.50000000000E+03  0.00000000000E+00 0.  1.
         11   -1    0    0    0    0 -0.00000000000E+00 -0.00000000000E+00 -0.50000000000E+03  0.50000000000E+03  0.00000000000E+00 0.  1.
         23    2    1    2    0    0  0.43199795319E+02  0.23095226590E+02  0.18052494644E+03  0.21482567502E+03  0.10564659271E+03 0.  0.
        -11    1    1    2    0    0  0.10252467805E+03  0.39974550244E+02  0.27850484086E+03  0.29945654219E+03  0.00000000000E+00 0.  1.
         11    1    1    2    0    0 -0.14572447337E+03 -0.63069776835E+02 -0.45902978730E+03  0.48571778279E+03  0.00000000000E+00 0.  1.
        -15    1    3    3    0    0  0.73787399140E+02  0.69677128737E+01  0.82759199095E+02  0.11110972981E+03  0.17770000000E+01 0. -1.
         15    1    3    3    0    0 -0.30587603821E+02  0.16127513716E+02  0.97765747349E+02  0.10371594521E+03  0.17770000000E+01 0.  1.
</event>
<event>
 7    1  0.3234965E-006  0.5343482E+03  0.7546771E-02  0.9326072E-01
        -11   -1    0    0    0    0  0.00000000000E+00  0.00000000000E+00  0.50000000000E+03  0.50000000000E+03  0.00000000000E+00 0.  1.
         11   -1    0    0    0    0 -0.00000000000E+00 -0.00000000000E+00 -0.50000000000E+03  0.50000000000E+03  0.00000000000E+00 0. -1.
         23    2    1    2    0    0 -0.71149049915E+02  0.73243858177E+02 -0.95186795971E+02  0.16584736037E+03  0.89543122297E+02 0.  0.
        -11    1    1    2    0    0  0.81656645214E+02 -0.11324987167E+02  0.45829632080E+03  0.46565178052E+03  0.00000000000E+00 0.  1.
         11    1    1    2    0    0 -0.10507595299E+02 -0.61918871010E+02 -0.36310952483E+03  0.36850085911E+03  0.00000000000E+00 0. -1.
        -15    1    3    3    0    0 -0.19771328859E+02  0.60179852078E+02 -0.93282208755E+02  0.11277077742E+03  0.17770000000E+01 0. -1.
         15    1    3    3    0    0 -0.51377721055E+02  0.13064006099E+02 -0.19045872154E+01  0.53076582950E+02  0.17770000000E+01 0.  1.
</event>
<event>
 7    1  0.3234965E-006  0.3649538E+03  0.7546771E-02  0.9766025E-01
        -11   -1    0    0    0    0  0.00000000000E+00  0.00000000000E+00  0.50000000000E+03  0.50000000000E+03  0.00000000000E+00 0. -1.
         11   -1    0    0    0    0 -0.00000000000E+00 -0.00000000000E+00 -0.50000000000E+03  0.50000000000E+03  0.00000000000E+00 0.  1.
         23    2    1    2    0    0 -0.18926748954E+02 -0.34907542112E+03  0.40560184804E+02  0.36374336743E+03  0.91936050078E+02 0.  0.
        -11    1    1    2    0    0  0.40214779844E+02  0.63467880442E+02  0.23018666086E+03  0.24213900801E+03  0.00000000000E+00 0. -1.
         11    1    1    2    0    0 -0.21288030890E+02  0.28560754068E+03 -0.27074684566E+03  0.39411762456E+03  0.00000000000E+00 0.  1.
        -15    1    3    3    0    0 -0.51086504847E+02 -0.14152048500E+03  0.38389578335E+01  0.15051835096E+03  0.17770000000E+01 0. -1.
         15    1    3    3    0    0  0.32159755893E+02 -0.20755493612E+03  0.36721226971E+02  0.21322501647E+03  0.17770000000E+01 0.  1.
</event>
<event>
 7    1  0.3234965E-006  0.4144214E+03  0.7546771E-02  0.9614724E-01
        -11   -1    0    0    0    0  0.00000000000E+00  0.00000000000E+00  0.50000000000E+03  0.50000000000E+03  0.00000000000E+00 0.  1.
         11   -1    0    0    0    0 -0.00000000000E+00 -0.00000000000E+00 -0.50000000000E+03  0.50000000000E+03  0.00000000000E+00 0. -1.
         23    2    1    2    0    0  0.68602630315E+02 -0.19876243443E+03 -0.32429462742E+03  0.39847164247E+03  0.96952659849E+02 0.  0.
        -11    1    1    2    0    0 -0.99244932604E+02  0.65906328563E+02  0.41894260842E+03  0.43555264888E+03  0.00000000000E+00 0.  1.
         11    1    1    2    0    0  0.30642302289E+02  0.13285610587E+03 -0.94647981002E+02  0.16597570866E+03  0.00000000000E+00 0. -1.
        -15    1    3    3    0    0  0.41421048650E+02 -0.34507709810E+02 -0.33831992496E+02  0.63672967206E+02  0.17770000000E+01 0.  1.
         15    1    3    3    0    0  0.27181581665E+02 -0.16425472462E+03 -0.29046263492E+03  0.33479867526E+03  0.17770000000E+01 0. -1.
</event>
<event>
 7    1  0.3234965E-006  0.3329162E+03  0.7546771E-02  0.9878445E-01
        -11   -1    0    0    0    0  0.00000000000E+00  0.00000000000E+00  0.50000000000E+03  0.50000000000E+03  0.00000000000E+00 0. -1.
         11   -1    0    0    0    0 -0.00000000000E+00 -0.00000000000E+00 -0.50000000000E+03  0.50000000000E+03  0.00000000000E+00 0.  1.
         23    2    1    2    0    0  0.25727952755E+02 -0.98639388896E+02 -0.25896497026E+03  0.29244000487E+03  0.89814497882E+02 0.  0.
        -11    1    1    2    0    0  0.77179433285E+02 -0.13333000779E+03  0.39188997258E+03  0.42108349114E+03  0.00000000000E+00 0. -1.
         11    1    1    2    0    0 -0.10290738604E+03  0.23196939668E+03 -0.13292500232E+03  0.28647650400E+03  0.00000000000E+00 0.  1.
        -15    1    3    3    0    0  0.37779366339E+02 -0.10857494686E+03 -0.24775477562E+03  0.27313254324E+03  0.17770000000E+01 0.  1.
         15    1    3    3    0    0 -0.12051413585E+02  0.99355579657E+01 -0.11210194641E+02  0.19307461624E+02  0.17770000000E+01 0. -1.
</event>
<event>
 7    1  0.3234965E-006  0.5114656E+03  0.7546771E-02  0.9374514E-01
        -11   -1    0    0    0    0  0.00000000000E+00  0.00000000000E+00  0.50000000000E+03  0.50000000000E+03  0.00000000000E+00 0. -1.
         11   -1    0    0    0    0 -0.00000000000E+00 -0.00000000000E+00 -0.50000000000E+03  0.50000000000E+03  0.00000000000E+00 0. -1.
         23    2    1    2    0    0  0.50945835959E+02 -0.16113160774E+01 -0.30496295122E+03  0.32239407402E+03  0.91309708142E+02 0.  0.
        -11    1    1    2    0    0 -0.10571145971E+03  0.72680282489E+02  0.47139000664E+03  0.48853441489E+03  0.00000000000E+00 0. -1.
         11    1    1    2    0    0  0.54765623750E+02 -0.71068966412E+02 -0.16642705542E+03  0.18907151109E+03  0.00000000000E+00 0. -1.
        -15    1    3    3    0    0 -0.21807134011E+02 -0.19669460863E+02 -0.94436916092E+02  0.98913738350E+02  0.17770000000E+01 0.  1.
         15    1    3    3    0    0  0.72752969970E+02  0.18058144785E+02 -0.21052603513E+03  0.22348033567E+03  0.17770000000E+01 0. -1.
</event>
<event>
 7    1  0.3234965E-006  0.5112679E+03  0.7546771E-02  0.9374944E-01
        -11   -1    0    0    0    0  0.00000000000E+00  0.00000000000E+00  0.50000000000E+03  0.50000000000E+03  0.00000000000E+00 0. -1.
         11   -1    0    0    0    0 -0.00000000000E+00 -0.00000000000E+00 -0.50000000000E+03  0.50000000000E+03  0.00000000000E+00 0.  1.
         23    2    1    2    0    0 -0.74108536492E+02  0.95989440254E+02 -0.34249266855E+03  0.37467397669E+03  0.91505808405E+02 0.  0.
        -11    1    1    2    0    0  0.44311634900E+02 -0.10351245301E+03  0.47558457739E+03  0.48873207299E+03  0.00000000000E+00 0. -1.
         11    1    1    2    0    0  0.29796901593E+02  0.75230127563E+01 -0.13309190884E+03  0.13659395032E+03  0.00000000000E+00 0.  1.
        -15    1    3    3    0    0 -0.13957744362E+02  0.83460998021E+02 -0.14564138725E+03  0.16844918589E+03  0.17770000000E+01 0. -1.
         15    1    3    3    0    0 -0.60150792131E+02  0.12528442233E+02 -0.19685128130E+03  0.20622479080E+03  0.17770000000E+01 0.  1.
</event>
<event>
 7    1  0.3234965E-006  0.3734693E+03  0.7546771E-02  0.9738211E-01
        -11   -1    0    0    0    0  0.00000000000E+00  0.00000000000E+00  0.50000000000E+03  0.50000000000E+03  0.00000000000E+00 0.  1.
         11   -1    0    0    0    0 -0.00000000000E+00 -0.00000000000E+00 -0.50000000000E+03  0.50000000000E+03  0.00000000000E+00 0.  1.
         23    2    1    2    0    0  0.56049612561E+02  0.14130456832E+03  0.14162026011E+03  0.22470517352E+03  0.85601266566E+02 0.  0.
        -11    1    1    2    0    0  0.65691879917E+02 -0.91709560065E+02  0.29683960535E+03  0.31755285828E+03  0.00000000000E+00 0.  1.
         11    1    1    2    0    0 -0.12174149248E+03 -0.49595008259E+02 -0.43845986546E+03  0.45774196820E+03  0.00000000000E+00 0.  1.
        -15    1    3    3    0    0  0.10821540439E+02  0.96891892063E+02  0.41021488815E+02  0.10578782897E+03  0.17770000000E+01 0.  1.
         15    1    3    3    0    0  0.45228072122E+02  0.44412676261E+02  0.10059877129E+03  0.11891734455E+03  0.17770000000E+01 0. -1.
</event>
<event>
 7    1  0.3234965E-006  0.5154431E+03  0.7546771E-02  0.9365903E-01
        -11   -1    0    0    0    0  0.00000000000E+00  0.00000000000E+00  0.50000000000E+03  0.50000000000E+03  0.00000000000E+00 0.  1.
         11   -1    0    0    0    0 -0.00000000000E+00 -0.00000000000E+00 -0.50000000000E+03  0.50000000000E+03  0.00000000000E+00 0. -1.
         23    2    1    2    0    0 -0.34533237478E+01 -0.85094099667E+02  0.20485476569E+03  0.23953582374E+03  0.90327208464E+02 0.  0.
        -11    1    1    2    0    0  0.11355136219E+03 -0.13097346532E+03  0.21465521532E+03  0.27590727054E+03  0.00000000000E+00 0.  1.
         11    1    1    2    0    0 -0.11009803844E+03  0.21606756499E+03 -0.41950998101E+03  0.48455690571E+03  0.00000000000E+00 0. -1.
        -15    1    3    3    0    0  0.36469759763E+02 -0.12572409152E+02  0.90090474498E+02  0.98018162467E+02  0.17770000000E+01 0.  1.
         15    1    3    3    0    0 -0.39923083511E+02 -0.72521690516E+02  0.11476429119E+03  0.14151766128E+03  0.17770000000E+01 0. -1.
</event>
<event>
 7    1  0.3234965E-006  0.5340242E+03  0.7546771E-02  0.9326739E-01
        -11   -1    0    0    0    0  0.00000000000E+00  0.00000000000E+00  0.50000000000E+03  0.50000000000E+03  0.00000000000E+00 0.  1.
         11   -1    0    0    0    0 -0.00000000000E+00 -0.00000000000E+00 -0.50000000000E+03  0.50000000000E+03  0.00000000000E+00 0. -1.
         23    2    1    2    0    0 -0.13523019567E+02  0.80106510885E+01  0.31522365475E+02  0.97589955479E+02  0.91011522876E+02 0.  0.
        -11    1    1    2    0    0  0.70363853247E+02  0.19598475427E+03  0.38355408488E+03  0.43643422388E+03  0.00000000000E+00 0.  1.
         11    1    1    2    0    0 -0.56840833679E+02 -0.20399540536E+03 -0.41507645035E+03  0.46597582064E+03  0.00000000000E+00 0. -1.
        -15    1    3    3    0    0 -0.66111356903E+01  0.29959046045E+02 -0.22999293720E+02  0.38384590602E+02  0.17770000000E+01 0. -1.
         15    1    3    3    0    0 -0.69118838772E+01 -0.21948394956E+02  0.54521659195E+02  0.59205364877E+02  0.17770000000E+01 0.  1.
</event>
<event>
 7    1  0.3234965E-006  0.5083551E+03  0.7546771E-02  0.9381306E-01
        -11   -1    0    0    0    0  0.00000000000E+00  0.00000000000E+00  0.50000000000E+03  0.50000000000E+03  0.00000000000E+00 0. -1.
         11   -1    0    0    0    0 -0.00000000000E+00 -0.00000000000E+00 -0.50000000000E+03  0.50000000000E+03  0.00000000000E+00 0.  1.
         23    2    1    2    0    0  0.57592947958E+02  0.79081415759E+02  0.30110369409E+03  0.32953308244E+03  0.91421003377E+02 0.  0.
        -11    1    1    2    0    0  0.84890874172E+01  0.82038879281E+02  0.15866592996E+03  0.17882203345E+03  0.00000000000E+00 0. -1.
         11    1    1    2    0    0 -0.66082035375E+02 -0.16112029504E+03 -0.45976962404E+03  0.49164488411E+03  0.00000000000E+00 0.  1.
        -15    1    3    3    0    0  0.51072329940E+02  0.22045811524E+02  0.60655153071E+02  0.82320143430E+02  0.17770000000E+01 0.  1.
         15    1    3    3    0    0  0.65206180187E+01  0.57035604235E+02  0.24044854102E+03  0.24721293901E+03  0.17770000000E+01 0. -1.
</event>
<event>
 7    1  0.3234965E-006  0.3920672E+03  0.7546771E-02  0.9680135E-01
        -11   -1    0    0    0    0  0.00000000000E+00  0.00000000000E+00  0.50000000000E+03  0.50000000000E+03  0.00000000000E+00 0. -1.
         11   -1    0    0    0    0 -0.00000000000E+00 -0.00000000000E+00 -0.50000000000E+03  0.50000000000E+03  0.00000000000E+00 0. -1.
         23    2    1    2    0    0  0.43775926523E+02  0.15729961003E+03 -0.33896158505E+03  0.38707302401E+03  0.90945427176E+02 0.  0.
        -11    1    1    2    0    0 -0.60556765261E+02  0.31206285768E+02  0.40636121721E+03  0.41203202903E+03  0.00000000000E+00 0. -1.
         11    1    1    2    0    0  0.16780838737E+02 -0.18850589580E+03 -0.67399632164E+02  0.20089494696E+03  0.00000000000E+00 0. -1.
        -15    1    3    3    0    0  0.22870875528E+02  0.15972206239E+03 -0.32129507652E+03  0.35953845147E+03  0.17770000000E+01 0. -1.
         15    1    3    3    0    0  0.20905050995E+02 -0.24224523617E+01 -0.17666508524E+02  0.27534572541E+02  0.17770000000E+01 0.  1.
</event>
<event>
 7    1  0.3234965E-006  0.5348747E+03  0.7546771E-02  0.9324987E-01
        -11   -1    0    0    0    0  0.00000000000E+00  0.00000000000E+00  0.50000000000E+03  0.50000000000E+03  0.00000000000E+00 0.  1.
         11   -1    0    0    0    0 -0.00000000000E+00 -0.00000000000E+00 -0.50000000000E+03  0.50000000000E+03  0.00000000000E+00 0.  1.
         23    2    1    2    0    0 -0.94044512956E+02 -0.13070565230E+03 -0.29923100737E+03  0.35154101930E+03  0.90075271429E+02 0.  0.
        -11    1    1    2    0    0  0.14303946591E+03  0.26373046537E+02  0.44179829967E+03  0.46512532073E+03  0.00000000000E+00 0.  1.
         11    1    1    2    0    0 -0.48994952958E+02  0.10433260576E+03 -0.14256729230E+03  0.18333365996E+03  0.00000000000E+00 0.  1.
        -15    1    3    3    0    0 -0.76612805051E+02 -0.32732696981E+02 -0.15993228365E+03  0.18033980268E+03  0.17770000000E+01 0.  1.
         15    1    3    3    0    0 -0.17431707905E+02 -0.97972955316E+02 -0.13929872372E+03  0.17120121662E+03  0.17770000000E+01 0. -1.
</event>
<event>
 7    1  0.3234965E-006  0.5472306E+03  0.7546771E-02  0.9299918E-01
        -11   -1    0    0    0    0  0.00000000000E+00  0.00000000000E+00  0.50000000000E+03  0.50000000000E+03  0.00000000000E+00 0.  1.
         11   -1    0    0    0    0 -0.00000000000E+00 -0.00000000000E+00 -0.50000000000E+03  0.50000000000E+03  0.00000000000E+00 0.  1.
         23    2    1    2    0    0  0.33699813905E+02  0.58283691154E+02 -0.19433295819E+02  0.13876392978E+03  0.11977106958E+03 0.  0.
        -11    1    1    2    0    0  0.17276099666E+03  0.26979525077E+03  0.25339535382E+03  0.40846669955E+03  0.00000000000E+00 0.  1.
         11    1    1    2    0    0 -0.20646081057E+03 -0.32807894192E+03 -0.23396205800E+03  0.45276937067E+03  0.00000000000E+00 0.  1.
        -15    1    3    3    0    0 -0.26839823178E+01  0.73165501334E+02  0.26859934894E+02  0.78006462412E+02  0.17770000000E+01 0. -1.
         15    1    3    3    0    0  0.36383796222E+02 -0.14881810180E+02 -0.46293230713E+02  0.60757467365E+02  0.17770000000E+01 0.  1.
</event>
<event>
 7    1  0.3234965E-006  0.4040077E+03  0.7546771E-02  0.9644633E-01
        -11   -1    0    0    0    0  0.00000000000E+00  0.00000000000E+00  0.50000000000E+03  0.50000000000E+03  0.00000000000E+00 0. -1.
         11   -1    0    0    0    0 -0.00000000000E+00 -0.00000000000E+00 -0.50000000000E+03  0.50000000000E+03  0.00000000000E+00 0. -1.
         23    2    1    2    0    0  0.12944574049E+03  0.40707511666E+02 -0.70791245959E+02  0.17761716359E+03  0.90128547417E+02 0.  0.
        -11    1    1    2    0    0 -0.55459673840E+02 -0.56582546048E+02  0.43919695390E+03  0.44628614616E+03  0.00000000000E+00 0. -1.
         11    1    1    2    0    0 -0.73986066655E+02  0.15875034382E+02 -0.36840570794E+03  0.37609669025E+03  0.00000000000E+00 0. -1.
        -15    1    3    3    0    0  0.67655418638E+02  0.31209326449E+02  0.10271603461E+02  0.75232581340E+02  0.17770000000E+01 0. -1.
         15    1    3    3    0    0  0.61790321857E+02  0.94981852170E+01 -0.81062849420E+02  0.10238458225E+03  0.17770000000E+01 0.  1.
</event>
<event>
 7    1  0.3234965E-006  0.5114071E+03  0.7546771E-02  0.9374641E-01
        -11   -1    0    0    0    0  0.00000000000E+00  0.00000000000E+00  0.50000000000E+03  0.50000000000E+03  0.00000000000E+00 0. -1.
         11   -1    0    0    0    0 -0.00000000000E+00 -0.00000000000E+00 -0.50000000000E+03  0.50000000000E+03  0.00000000000E+00 0. -1.
         23    2    1    2    0    0 -0.26801889073E+02  0.82134689466E+01 -0.47903853053E+03  0.48859288881E+03  0.91974425456E+02 0.  0.
        -11    1    1    2    0    0 -0.39887387708E+02  0.44850350883E+02  0.36020947181E+03  0.36517587715E+03  0.00000000000E+00 0. -1.
         11    1    1    2    0    0  0.66689276781E+02 -0.53063819829E+02  0.11882905872E+03  0.14623123404E+03  0.00000000000E+00 0. -1.
        -15    1    3    3    0    0  0.32598355075E+02  0.15725076201E+02 -0.17637336175E+03  0.18005735542E+03  0.17770000000E+01 0.  1.
         15    1    3    3    0    0 -0.59400244148E+02 -0.75116072543E+01 -0.30266516877E+03  0.30853553339E+03  0.17770000000E+01 0. -1.
</event>
<event>
 7    1  0.3234965E-006  0.3657459E+03  0.7546771E-02  0.9763403E-01
        -11   -1    0    0    0    0  0.00000000000E+00  0.00000000000E+00  0.50000000000E+03  0.50000000000E+03  0.00000000000E+00 0. -1.
         11   -1    0    0    0    0 -0.00000000000E+00 -0.00000000000E+00 -0.50000000000E+03  0.50000000000E+03  0.00000000000E+00 0.  1.
         23    2    1    2    0    0  0.65320647226E+02  0.79225155702E+02 -0.19283561980E+03  0.23658060905E+03  0.90782135160E+02 0.  0.
        -11    1    1    2    0    0  0.19071492843E+03 -0.24228365853E+03  0.31075573471E+03  0.43777012434E+03  0.00000000000E+00 0. -1.
         11    1    1    2    0    0 -0.25603557565E+03  0.16305850282E+03 -0.11792011491E+03  0.32564926661E+03  0.00000000000E+00 0.  1.
        -15    1    3    3    0    0 -0.74177292384E+01  0.52382136404E+02 -0.11552356907E+03  0.12707385121E+03  0.17770000000E+01 0.  1.
         15    1    3    3    0    0  0.72738376464E+02  0.26843019298E+02 -0.77312050731E+02  0.10950675784E+03  0.17770000000E+01 0. -1.
</event>
<event>
 7    1  0.3234965E-006  0.5161836E+03  0.7546771E-02  0.9364308E-01
        -11   -1    0    0    0    0  0.00000000000E+00  0.00000000000E+00  0.50000000000E+03  0.50000000000E+03  0.00000000000E+00 0. -1.
         11   -1    0    0    0    0 -0.00000000000E+00 -0.00000000000E+00 -0.50000000000E+03  0.50000000000E+03  0.00000000000E+00 0. -1.
         23    2    1    2    0    0  0.22384888135E+01 -0.10455890462E+03  0.24599320092E+03  0.28218465227E+03  0.90432006026E+02 0.  0.
        -11    1    1    2    0    0 -0.86827541245E+02 -0.15171012000E+03  0.15556521775E+03  0.23399897308E+03  0.00000000000E+00 0. -1.
         11    1    1    2    0    0  0.84589052431E+02  0.25626902463E+03 -0.40155841866E+03  0.48381637464E+03  0.00000000000E+00 0. -1.
        -15    1    3    3    0    0 -0.40779854180E+02 -0.29048628453E+02  0.10868010498E+03  0.11967181067E+03  0.17770000000E+01 0. -1.
         15    1    3    3    0    0  0.43018342993E+02 -0.75510276171E+02  0.13731309594E+03  0.16251284160E+03  0.17770000000E+01 0.  1.
</event>
<event>
 7    1  0.3234965E-006  0.5160241E+03  0.7546771E-02  0.9364651E-01
        -11   -1    0    0    0    0  0.00000000000E+00  0.00000000000E+00  0.50000000000E+03  0.50000000000E+03  0.00000000000E+00 0.  1.
         11   -1    0    0    0    0 -0.00000000000E+00 -0.00000000000E+00 -0.50000000000E+03  0.50000000000E+03  0.00000000000E+00 0. -1.
         23    2    1    2    0    0 -0.16648051579E+03  0.43188581862E+02 -0.35653560357E+03  0.40621177681E+03  0.91155665032E+02 0.  0.
        -11    1    1    2    0    0  0.13847708639E+03 -0.76302972614E+02  0.45742167533E+03  0.48397586319E+03  0.00000000000E+00 0.  1.
         11    1    1    2    0    0  0.28003429392E+02  0.33114390752E+02 -0.10088607177E+03  0.10981236000E+03  0.00000000000E+00 0. -1.
        -15    1    3    3    0    0 -0.54524018170E+02  0.43909817606E+02 -0.72013589216E+02  0.10044926779E+03  0.17770000000E+01 0.  1.
         15    1    3    3    0    0 -0.11195649762E+03 -0.72123574436E+00 -0.28452201435E+03  0.30576250901E+03  0.17770000000E+01 0. -1.
</event>
<event>
 6    1  0.3234965E-006  0.5365622E+03  0.7546771E-02  0.9321522E-01
        -11   -1    0    0    0    0  0.00000000000E+00  0.00000000000E+00  0.50000000000E+03  0.50000000000E+03  0.00000000000E+00 0.  1.
         11   -1    0    0    0    0 -0.00000000000E+00 -0.00000000000E+00 -0.50000000000E+03  0.50000000000E+03  0.00000000000E+00 0.  1.
        -11    1    1    2    0    0  0.35732145585E+02 -0.87179366234E+02  0.45375938658E+03  0.46343781572E+03  0.00000000000E+00 0.  1.
         11    1    1    2    0    0 -0.26323753588E+02 -0.32343056600E+01 -0.10857967933E+03  0.11177185469E+03  0.00000000000E+00 0.  1.
        -15    1    1    2    0    0  0.49747923390E+02  0.62873263338E+02 -0.35025303532E+03  0.35931636423E+03  0.17770000000E+01 0.  1.
         15    1    1    2    0    0 -0.59156315387E+02  0.27540408556E+02  0.50733280687E+01  0.65473965362E+02  0.17770000000E+01 0. -1.
</event>
<event>
 7    1  0.4032399E-006  0.5236093E+03  0.7546771E-02  0.9348478E-01
        -11   -1    0    0    0    0  0.00000000000E+00  0.00000000000E+00  0.50000000000E+03  0.50000000000E+03  0.00000000000E+00 0. -1.
         11   -1    0    0    0    0 -0.00000000000E+00 -0.00000000000E+00 -0.50000000000E+03  0.50000000000E+03  0.00000000000E+00 0. -1.
         23    2    1    2    0    0 -0.88133995183E+02 -0.80794969440E+02  0.25633790292E+03  0.30903472892E+03  0.12449062219E+03 0.  0.
        -11    1    1    2    0    0 -0.17236491041E+01  0.43845625190E+02  0.21004009567E+03  0.21457458284E+03  0.00000000000E+00 0. -1.
         11    1    1    2    0    0  0.89857644287E+02  0.36949344250E+02 -0.46637799858E+03  0.47639068824E+03  0.00000000000E+00 0. -1.
        -15    1    3    3    0    0 -0.50893020806E+02 -0.10874114235E+03  0.14449464892E+03  0.18787388563E+03  0.17770000000E+01 0. -1.
         15    1    3    3    0    0 -0.37240974378E+02  0.27946172913E+02  0.11184325400E+03  0.12116084329E+03  0.17770000000E+01 0.  1.
</event>
<event>
 7    1  0.3234965E-006  0.4212202E+03  0.7546771E-02  0.9595699E-01
        -11   -1    0    0    0    0  0.00000000000E+00  0.00000000000E+00  0.50000000000E+03  0.50000000000E+03  0.00000000000E+00 0.  1.
         11   -1    0    0    0    0 -0.00000000000E+00 -0.00000000000E+00 -0.50000000000E+03  0.50000000000E+03  0.00000000000E+00 0. -1.
         23    2    1    2    0    0  0.65846375013E+02  0.78063590800E+02  0.38254198552E+02  0.15053018665E+03  0.10376070584E+03 0.  0.
        -11    1    1    2    0    0 -0.84403633013E+02  0.21709083875E+02  0.39499421937E+03  0.40449436451E+03  0.00000000000E+00 0.  1.
         11    1    1    2    0    0  0.18557258000E+02 -0.99772674675E+02 -0.43324841792E+03  0.44497544883E+03  0.00000000000E+00 0. -1.
        -15    1    3    3    0    0 -0.60563643684E+01  0.23815052529E+02  0.53741241184E+02  0.59119497709E+02  0.17770000000E+01 0.  1.
         15    1    3    3    0    0  0.71902739382E+02  0.54248538271E+02 -0.15487042632E+02  0.91410688946E+02  0.17770000000E+01 0. -1.
</event>
<event>
 7    1  0.3234965E-006  0.5153065E+03  0.7546771E-02  0.9366197E-01
        -11   -1    0    0    0    0  0.00000000000E+00  0.00000000000E+00  0.50000000000E+03  0.50000000000E+03  0.00000000000E+00 0.  1.
         11   -1    0    0    0    0 -0.00000000000E+00 -0.00000000000E+00 -0.50000000000E+03  0.50000000000E+03  0.00000000000E+00 0.  1.
         23    2    1    2    0    0 -0.18509985713E+02 -0.15073273467E+03 -0.30742182259E+03  0.35598847772E+03  0.95690346389E+02 0.  0.
        -11    1    1    2    0    0 -0.54719796330E+02  0.18466486298E+03  0.44478355466E+03  0.48469348894E+03  0.00000000000E+00 0.  1.
         11    1    1    2    0    0  0.73229782044E+02 -0.33932128306E+02 -0.13736173207E+03  0.15931803333E+03  0.00000000000E+00 0.  1.
        -15    1    3    3    0    0 -0.55077839857E+02 -0.10094110820E+03 -0.22791632838E+03  0.25528745805E+03  0.17770000000E+01 0. -1.
         15    1    3    3    0    0  0.36567854144E+02 -0.49791626477E+02 -0.79505494216E+02  0.10070101967E+03  0.17770000000E+01 0.  1.
</event>
<event>
 7    1  0.3234965E-006  0.5295990E+03  0.7546771E-02  0.9335911E-01
        -11   -1    0    0    0    0  0.00000000000E+00  0.00000000000E+00  0.50000000000E+03  0.50000000000E+03  0.00000000000E+00 0. -1.
         11   -1    0    0    0    0 -0.00000000000E+00 -0.00000000000E+00 -0.50000000000E+03  0.50000000000E+03  0.00000000000E+00 0. -1.
         23    2    1    2    0    0 -0.48192900145E+02 -0.23452914856E+02 -0.21010602734E+03  0.23489611411E+03  0.90327442434E+02 0.  0.
        -11    1    1    2    0    0 -0.11517999386E+03  0.25447486333E+02  0.45537139686E+03  0.47040101469E+03  0.00000000000E+00 0. -1.
         11    1    1    2    0    0  0.16337289400E+03 -0.19945714773E+01 -0.24526536952E+03  0.29470287120E+03  0.00000000000E+00 0. -1.
        -15    1    3    3    0    0  0.12830593786E+02  0.17681329189E+02 -0.10050993363E+03  0.10287204687E+03  0.17770000000E+01 0. -1.
         15    1    3    3    0    0 -0.61023493931E+02 -0.41134244045E+02 -0.10959609371E+03  0.13202406724E+03  0.17770000000E+01 0.  1.
</event>
<event>
 7    1  0.3234965E-006  0.5299994E+03  0.7546771E-02  0.9335077E-01
        -11   -1    0    0    0    0  0.00000000000E+00  0.00000000000E+00  0.50000000000E+03  0.50000000000E+03  0.00000000000E+00 0.  1.
         11   -1    0    0    0    0 -0.00000000000E+00 -0.00000000000E+00 -0.50000000000E+03  0.50000000000E+03  0.00000000000E+00 0.  1.
         23    2    1    2    0    0 -0.38023394644E+02  0.41374605681E+02  0.17120829928E+03  0.20125206211E+03  0.89624071689E+02 0.  0.
        -11    1    1    2    0    0  0.18483510913E+03  0.18594247318E+02  0.27122880916E+03  0.32874736579E+03  0.00000000000E+00 0.  1.
         11    1    1    2    0    0 -0.14681171448E+03 -0.59968852999E+02 -0.44243710844E+03  0.47000057209E+03  0.00000000000E+00 0.  1.
        -15    1    3    3    0    0 -0.54094063907E+02  0.60100896582E+02  0.13570375641E+03  0.15797769701E+03  0.17770000000E+01 0.  1.
         15    1    3    3    0    0  0.16070669262E+02 -0.18726290901E+02  0.35504542871E+02  0.43274365101E+02  0.17770000000E+01 0. -1.
</event>
<event>
 7    1  0.3234965E-006  0.5115883E+03  0.7546771E-02  0.9374247E-01
        -11   -1    0    0    0    0  0.00000000000E+00  0.00000000000E+00  0.50000000000E+03  0.50000000000E+03  0.00000000000E+00 0. -1.
         11   -1    0    0    0    0 -0.00000000000E+00 -0.00000000000E+00 -0.50000000000E+03  0.50000000000E+03  0.00000000000E+00 0.  1.
         23    2    1    2    0    0 -0.21342803797E+02 -0.17847570670E+03  0.25755777131E+03  0.32846063776E+03  0.96131638066E+02 0.  0.
        -11    1    1    2    0    0  0.51105300919E+02 -0.73653015105E+02  0.15968473588E+03  0.18312764207E+03  0.00000000000E+00 0. -1.
         11    1    1    2    0    0 -0.29762497121E+02  0.25212872181E+03 -0.41724250719E+03  0.48841172017E+03  0.00000000000E+00 0.  1.
        -15    1    3    3    0    0 -0.34067695977E+02 -0.10384902400E+03  0.21599650646E+03  0.24208030946E+03  0.17770000000E+01 0.  1.
         15    1    3    3    0    0  0.12724892180E+02 -0.74626682700E+02  0.41561264844E+02  0.86380328294E+02  0.17770000000E+01 0. -1.
</event>
<event>
 7    1  0.3234965E-006  0.4067207E+03  0.7546771E-02  0.9636749E-01
        -11   -1    0    0    0    0  0.00000000000E+00  0.00000000000E+00  0.50000000000E+03  0.50000000000E+03  0.00000000000E+00 0. -1.
         11   -1    0    0    0    0 -0.00000000000E+00 -0.00000000000E+00 -0.50000000000E+03  0.50000000000E+03  0.00000000000E+00 0.  1.
         23    2    1    2    0    0 -0.11571679869E+03  0.79643025451E+02  0.43163663423E+02  0.17339051454E+03  0.92020539499E+02 0.  0.
        -11    1    1    2    0    0  0.61021871855E+02  0.30251723485E+03  0.20241107694E+03  0.36906718940E+03  0.00000000000E+00 0. -1.
         11    1    1    2    0    0  0.54694926837E+02 -0.38216026030E+03 -0.24557474036E+03  0.45754229606E+03  0.00000000000E+00 0.  1.
        -15    1    3    3    0    0 -0.15988687648E+02 -0.92733678621E+01  0.34876158718E+02  0.39511234607E+02  0.17770000000E+01 0.  1.
         15    1    3    3    0    0 -0.99728111043E+02  0.88916393313E+02  0.82875047051E+01  0.13387927993E+03  0.17770000000E+01 0. -1.
</event>
<event>
 7    1  0.3234965E-006  0.3613943E+03  0.7546771E-02  0.9777892E-01
        -11   -1    0    0    0    0  0.00000000000E+00  0.00000000000E+00  0.50000000000E+03  0.50000000000E+03  0.00000000000E+00 0. -1.
         11   -1    0    0    0    0 -0.00000000000E+00 -0.00000000000E+00 -0.50000000000E+03  0.50000000000E+03  0.00000000000E+00 0.  1.
         23    2    1    2    0    0  0.30537264464E+02  0.15540783679E+03 -0.16154547888E+03  0.24263320076E+03  0.87691550949E+02 0.  0.
        -11    1    1    2    0    0 -0.97117798074E+02 -0.83329454440E+01  0.43174417537E+03  0.44261081962E+03  0.00000000000E+00 0. -1.
         11    1    1    2    0    0  0.66580533610E+02 -0.14707489135E+03 -0.27019869649E+03  0.31475597962E+03  0.00000000000E+00 0.  1.
        -15    1    3    3    0    0  0.14281902329E+02  0.61690528433E+02 -0.12608905045E+03  0.14110740734E+03  0.17770000000E+01 0.  1.
         15    1    3    3    0    0  0.16255362135E+02  0.93717308360E+02 -0.35456428424E+02  0.10152579342E+03  0.17770000000E+01 0. -1.
</event>
<event>
 7    1  0.3234965E-006  0.4405392E+03  0.7546771E-02  0.9543665E-01
        -11   -1    0    0    0    0  0.00000000000E+00  0.00000000000E+00  0.50000000000E+03  0.50000000000E+03  0.00000000000E+00 0.  1.
         11   -1    0    0    0    0 -0.00000000000E+00 -0.00000000000E+00 -0.50000000000E+03  0.50000000000E+03  0.00000000000E+00 0. -1.
         23    2    1    2    0    0  0.16406305083E+03 -0.92967561165E+02 -0.37315016146E+03  0.42792836487E+03  0.91224943886E+02 0.  0.
        -11    1    1    2    0    0 -0.82234865813E+02  0.38819207485E+02  0.44260847112E+03  0.45185369616E+03  0.00000000000E+00 0.  1.
         11    1    1    2    0    0 -0.81828185016E+02  0.54148353680E+02 -0.69458309661E+02  0.12021793897E+03  0.00000000000E+00 0. -1.
        -15    1    3    3    0    0  0.77745294827E+01 -0.44312504464E+02 -0.66270943071E+02  0.80118892810E+02  0.17770000000E+01 0.  1.
         15    1    3    3    0    0  0.15628852135E+03 -0.48655056701E+02 -0.30687921839E+03  0.34780947206E+03  0.17770000000E+01 0. -1.
</event>
<event>
 7    1  0.3234965E-006  0.3820584E+03  0.7546771E-02  0.9710950E-01
        -11   -1    0    0    0    0  0.00000000000E+00  0.00000000000E+00  0.50000000000E+03  0.50000000000E+03  0.00000000000E+00 0.  1.
         11   -1    0    0    0    0 -0.00000000000E+00 -0.00000000000E+00 -0.50000000000E+03  0.50000000000E+03  0.00000000000E+00 0. -1.
         23    2    1    2    0    0  0.24800314904E+02 -0.33294571558E+03 -0.15689975715E+03  0.38607871614E+03  0.11389177371E+03 0.  0.
        -11    1    1    2    0    0  0.33777637778E+01  0.20489581393E+03  0.33503452523E+03  0.39273634534E+03  0.00000000000E+00 0.  1.
         11    1    1    2    0    0 -0.28178078682E+02  0.12804990165E+03 -0.17813476808E+03  0.22118493852E+03  0.00000000000E+00 0. -1.
        -15    1    3    3    0    0 -0.17717921523E+02 -0.38609759298E+02  0.11853703460E+02  0.44139622460E+02  0.17770000000E+01 0.  1.
         15    1    3    3    0    0  0.42518236427E+02 -0.29433595628E+03 -0.16875346061E+03  0.34193909368E+03  0.17770000000E+01 0. -1.
</event>
<event>
 7    1  0.3234965E-006  0.5236709E+03  0.7546771E-02  0.9348348E-01
        -11   -1    0    0    0    0  0.00000000000E+00  0.00000000000E+00  0.50000000000E+03  0.50000000000E+03  0.00000000000E+00 0.  1.
         11   -1    0    0    0    0 -0.00000000000E+00 -0.00000000000E+00 -0.50000000000E+03  0.50000000000E+03  0.00000000000E+00 0. -1.
         23    2    1    2    0    0  0.44378339202E+02 -0.21480679422E+02  0.11275993379E+03  0.15129677170E+03  0.88005987745E+02 0.  0.
        -11    1    1    2    0    0  0.28656427211E+03  0.75169609925E+02  0.22559470181E+03  0.37237416907E+03  0.00000000000E+00 0.  1.
         11    1    1    2    0    0 -0.33094261131E+03 -0.53688930502E+02 -0.33835463559E+03  0.47632905923E+03  0.00000000000E+00 0. -1.
        -15    1    3    3    0    0  0.16912066848E+02  0.10024094304E+02 -0.96235671486E+01  0.21960674974E+02  0.17770000000E+01 0. -1.
         15    1    3    3    0    0  0.27466272354E+02 -0.31504773726E+02  0.12238350094E+03  0.12933609672E+03  0.17770000000E+01 0.  1.
</event>
<event>
 7    1  0.3234965E-006  0.3477398E+03  0.7546771E-02  0.9824815E-01
        -11   -1    0    0    0    0  0.00000000000E+00  0.00000000000E+00  0.50000000000E+03  0.50000000000E+03  0.00000000000E+00 0.  1.
         11   -1    0    0    0    0 -0.00000000000E+00 -0.00000000000E+00 -0.50000000000E+03  0.50000000000E+03  0.00000000000E+00 0. -1.
         23    2    1    2    0    0 -0.10916303017E+03 -0.12155413830E+03 -0.24674622570E+03  0.31272014152E+03  0.10108516863E+03 0.  0.
        -11    1    1    2    0    0  0.12779546658E+03 -0.10859041040E+03  0.38375189245E+03  0.41879478682E+03  0.00000000000E+00 0.  1.
         11    1    1    2    0    0 -0.18632436411E+02  0.23014454870E+03 -0.13700566675E+03  0.26848507166E+03  0.00000000000E+00 0. -1.
        -15    1    3    3    0    0 -0.68087534875E+02 -0.93447195017E+02 -0.85095097622E+02  0.14357097210E+03  0.17770000000E+01 0.  1.
         15    1    3    3    0    0 -0.41075495298E+02 -0.28106943280E+02 -0.16165112808E+03  0.16914916941E+03  0.17770000000E+01 0. -1.
</event>
<event>
 7    1  0.3234965E-006  0.5339246E+03  0.7546771E-02  0.9326945E-01
        -11   -1    0    0    0    0  0.00000000000E+00  0.00000000000E+00  0.50000000000E+03  0.50000000000E+03  0.00000000000E+00 0. -1.
         11   -1    0    0    0    0 -0.00000000000E+00 -0.00000000000E+00 -0.50000000000E+03  0.50000000000E+03  0.00000000000E+00 0. -1.
         23    2    1    2    0    0  0.32009769991E+02 -0.43101496311E+02 -0.25555966911E+03  0.28347139632E+03  0.11028564591E+03 0.  0.
        -11    1    1    2    0    0  0.12942031525E+03  0.31061346100E+02  0.44666745980E+03  0.46607536393E+03  0.00000000000E+00 0. -1.
         11    1    1    2    0    0 -0.16143008524E+03  0.12040150211E+02 -0.19110779069E+03  0.25045323975E+03  0.00000000000E+00 0. -1.
        -15    1    3    3    0    0  0.73354920595E+02 -0.29584054138E+02 -0.16642455751E+03  0.18427276442E+03  0.17770000000E+01 0.  1.
         15    1    3    3    0    0 -0.41345150604E+02 -0.13517442173E+02 -0.89135111600E+02  0.99198631897E+02  0.17770000000E+01 0. -1.
</event>
<event>
 7    1  0.3234965E-006  0.5108766E+03  0.7546771E-02  0.9375796E-01
        -11   -1    0    0    0    0  0.00000000000E+00  0.00000000000E+00  0.50000000000E+03  0.50000000000E+03  0.00000000000E+00 0. -1.
         11   -1    0    0    0    0 -0.00000000000E+00 -0.00000000000E+00 -0.50000000000E+03  0.50000000000E+03  0.00000000000E+00 0.  1.
         23    2    1    2    0    0  0.36021258511E+02  0.24861543605E+02  0.18876074924E+03  0.21399874537E+03  0.90825190056E+02 0.  0.
        -11    1    1    2    0    0  0.77043869971E+02 -0.43592667673E+01  0.28667345505E+03  0.29687780473E+03  0.00000000000E+00 0. -1.
         11    1    1    2    0    0 -0.11306512848E+03 -0.20502276838E+02 -0.47543420430E+03  0.48912344991E+03  0.00000000000E+00 0.  1.
        -15    1    3    3    0    0  0.17388293443E+02 -0.20516110243E+01 -0.43473617782E+01  0.18127855364E+02  0.17770000000E+01 0.  1.
         15    1    3    3    0    0  0.18632965067E+02  0.26913154629E+02  0.19310811102E+03  0.19587089000E+03  0.17770000000E+01 0. -1.
</event>
<event>
 7    1  0.3234965E-006  0.5311770E+03  0.7546771E-02  0.9332630E-01
        -11   -1    0    0    0    0  0.00000000000E+00  0.00000000000E+00  0.50000000000E+03  0.50000000000E+03  0.00000000000E+00 0.  1.
         11   -1    0    0    0    0 -0.00000000000E+00 -0.00000000000E+00 -0.50000000000E+03  0.50000000000E+03  0.00000000000E+00 0. -1.
         23    2    1    2    0    0  0.11434714533E+03 -0.11264170180E+02 -0.22256639951E+03  0.26638451050E+03  0.90679402656E+02 0.  0.
        -11    1    1    2    0    0 -0.12733437396E+03  0.20615866403E+03  0.40134714079E+03  0.46882295695E+03  0.00000000000E+00 0.  1.
         11    1    1    2    0    0  0.12987228625E+02 -0.19489449385E+03 -0.17878074128E+03  0.26479253255E+03  0.00000000000E+00 0. -1.
        -15    1    3    3    0    0  0.37986736349E+01  0.23991305298E+02 -0.15067497763E+02  0.28639131780E+02  0.17770000000E+01 0.  1.
         15    1    3    3    0    0  0.11054847170E+03 -0.35255475478E+02 -0.20749890175E+03  0.23774537872E+03  0.17770000000E+01 0. -1.
</event>
<event>
 6    1  0.3234965E-006  0.2546337E+03  0.7546771E-02  0.1022205E+00
        -11   -1    0    0    0    0  0.00000000000E+00  0.00000000000E+00  0.50000000000E+03  0.50000000000E+03  0.00000000000E+00 0.  1.
         11   -1    0    0    0    0 -0.00000000000E+00 -0.00000000000E+00 -0.50000000000E+03  0.50000000000E+03  0.00000000000E+00 0. -1.
        -11    1    1    2    0    0 -0.41684344998E+02  0.50375928665E+02  0.19079684140E+03  0.20168974564E+03  0.00000000000E+00 0.  1.
         11    1    1    2    0    0  0.22068049620E+03  0.21468826464E+01 -0.12041673976E+03  0.25140541307E+03  0.00000000000E+00 0. -1.
        -15    1    1    2    0    0 -0.15306575574E+03  0.20380892318E+03  0.54399503074E+02  0.26063320282E+03  0.17770000000E+01 0.  1.
         15    1    1    2    0    0 -0.25930395461E+02 -0.25633173449E+03 -0.12477960471E+03  0.28627163848E+03  0.17770000000E+01 0. -1.
</event>
<event>
 7    1  0.3234965E-006  0.4150264E+03  0.7546771E-02  0.9613016E-01
        -11   -1    0    0    0    0  0.00000000000E+00  0.00000000000E+00  0.50000000000E+03  0.50000000000E+03  0.00000000000E+00 0. -1.
         11   -1    0    0    0    0 -0.00000000000E+00 -0.00000000000E+00 -0.50000000000E+03  0.50000000000E+03  0.00000000000E+00 0.  1.
         23    2    1    2    0    0 -0.97942420927E+02  0.22107582157E+02  0.85897718653E+02  0.15949563056E+03  0.89325108963E+02 0.  0.
        -11    1    1    2    0    0  0.33520721528E+03 -0.73751226066E+02  0.25100612397E+03  0.42521429279E+03  0.00000000000E+00 0. -1.
         11    1    1    2    0    0 -0.23726479435E+03  0.51643643910E+02 -0.33690384262E+03  0.41529007665E+03  0.00000000000E+00 0.  1.
        -15    1    3    3    0    0 -0.58192203264E+02  0.55837349683E+02  0.40117873121E+02  0.90092972052E+02  0.17770000000E+01 0. -1.
         15    1    3    3    0    0 -0.39750217663E+02 -0.33729767527E+02  0.45779845531E+02  0.69402658505E+02  0.17770000000E+01 0.  1.
</event>
<event>
 7    1  0.1155273E-005  0.4644824E+03  0.7546771E-02  0.9482990E-01
        -11   -1    0    0    0    0  0.00000000000E+00  0.00000000000E+00  0.50000000000E+03  0.50000000000E+03  0.00000000000E+00 0. -1.
         11   -1    0    0    0    0 -0.00000000000E+00 -0.00000000000E+00 -0.50000000000E+03  0.50000000000E+03  0.00000000000E+00 0. -1.
         23    2    1    2    0    0  0.79231879816E+02  0.45710860033E+02  0.40650448046E+03  0.42913303198E+03  0.10267469503E+03 0.  0.
        -11    1    1    2    0    0 -0.12395922825E+02  0.65363658905E+01  0.77869339736E+02  0.79120269544E+02  0.00000000000E+00 0. -1.
         11    1    1    2    0    0 -0.66835956991E+02 -0.52247225924E+02 -0.48437382020E+03  0.49174669847E+03  0.00000000000E+00 0. -1.
        -15    1    3    3    0    0  0.93491778957E+02  0.51954922220E+01  0.25526553035E+03  0.27190320812E+03  0.17770000000E+01 0.  1.
         15    1    3    3    0    0 -0.14259899141E+02  0.40515367811E+02  0.15123895011E+03  0.15722982386E+03  0.17770000000E+01 0. -1.
</event>
<event>
 7    1  0.3234965E-006  0.3821274E+03  0.7546771E-02  0.9710734E-01
        -11   -1    0    0    0    0  0.00000000000E+00  0.00000000000E+00  0.50000000000E+03  0.50000000000E+03  0.00000000000E+00 0.  1.
         11   -1    0    0    0    0 -0.00000000000E+00 -0.00000000000E+00 -0.50000000000E+03  0.50000000000E+03  0.00000000000E+00 0. -1.
         23    2    1    2    0    0  0.51619095073E+02 -0.25452900317E+03  0.17257421659E+03  0.32687699187E+03  0.98067135962E+02 0.  0.
        -11    1    1    2    0    0 -0.36943805505E+02  0.14170645278E+02  0.21402947311E+03  0.21765630548E+03  0.00000000000E+00 0.  1.
         11    1    1    2    0    0 -0.14675289568E+02  0.24035835789E+03 -0.38660368970E+03  0.45546670265E+03  0.00000000000E+00 0. -1.
        -15    1    3    3    0    0 -0.13799264426E+01 -0.45739262077E+02  0.80482872764E+02  0.92599324132E+02  0.17770000000E+01 0.  1.
         15    1    3    3    0    0  0.52999021516E+02 -0.20878974109E+03  0.92091343823E+02  0.23427766774E+03  0.17770000000E+01 0. -1.
</event>
<event>
 7    1  0.3234965E-006  0.5018888E+03  0.7546771E-02  0.9395593E-01
        -11   -1    0    0    0    0  0.00000000000E+00  0.00000000000E+00  0.50000000000E+03  0.50000000000E+03  0.00000000000E+00 0. -1.
         11   -1    0    0    0    0 -0.00000000000E+00 -0.00000000000E+00 -0.50000000000E+03  0.50000000000E+03  0.00000000000E+00 0. -1.
         23    2    1    2    0    0  0.14548865339E+03  0.17332831231E+03 -0.44027991281E+03  0.50188875114E+03  0.82681707671E+02 0.  0.
        -11    1    1    2    0    0  0.45375467232E+01 -0.10371127845E+02  0.17993287540E+02  0.21258128317E+02  0.00000000000E+00 0. -1.
         11    1    1    2    0    0 -0.15002620011E+03 -0.16295718446E+03  0.42228662527E+03  0.47685312054E+03  0.00000000000E+00 0. -1.
        -15    1    3    3    0    0  0.14675052017E+03  0.14960261192E+03 -0.34490591694E+03  0.40358382764E+03  0.17770000000E+01 0. -1.
         15    1    3    3    0    0 -0.12618667820E+01  0.23725700387E+02 -0.95373995876E+02  0.98304923504E+02  0.17770000000E+01 0.  1.
</event>
<event>
 6    1  0.3234965E-006  0.3893498E+03  0.7546771E-02  0.9688403E-01
        -11   -1    0    0    0    0  0.00000000000E+00  0.00000000000E+00  0.50000000000E+03  0.50000000000E+03  0.00000000000E+00 0. -1.
         11   -1    0    0    0    0 -0.00000000000E+00 -0.00000000000E+00 -0.50000000000E+03  0.50000000000E+03  0.00000000000E+00 0.  1.
        -11    1    1    2    0    0  0.12603230380E+03 -0.83288075757E+02  0.38253025597E+03  0.41127903168E+03  0.00000000000E+00 0. -1.
         11    1    1    2    0    0  0.22457406927E+02  0.45764321240E+02  0.14344825462E+02  0.52957362491E+02  0.00000000000E+00 0.  1.
        -15    1    1    2    0    0 -0.17380451002E+03 -0.92819618451E+02 -0.33637661407E+03  0.38984083098E+03  0.17770000000E+01 0.  1.
         15    1    1    2    0    0  0.25314799291E+02  0.13034337297E+03 -0.60498467358E+02  0.14592277486E+03  0.17770000000E+01 0. -1.
</event>
<event>
 7    1  0.3234965E-006  0.4216981E+03  0.7546771E-02  0.9594377E-01
        -11   -1    0    0    0    0  0.00000000000E+00  0.00000000000E+00  0.50000000000E+03  0.50000000000E+03  0.00000000000E+00 0.  1.
         11   -1    0    0    0    0 -0.00000000000E+00 -0.00000000000E+00 -0.50000000000E+03  0.50000000000E+03  0.00000000000E+00 0. -1.
         23    2    1    2    0    0 -0.99570633665E+02  0.34275758809E+02  0.54923726284E+02  0.14828229372E+03  0.88779976300E+02 0.  0.
        -11    1    1    2    0    0  0.92077490231E+02  0.49301302872E+02  0.38753976651E+03  0.40136760370E+03  0.00000000000E+00 0.  1.
         11    1    1    2    0    0  0.74931434345E+01 -0.83577061682E+02 -0.44246349279E+03  0.45035010258E+03  0.00000000000E+00 0. -1.
        -15    1    3    3    0    0  0.37601502755E+01  0.29700548867E+02 -0.22718152765E+01  0.30076239903E+02  0.17770000000E+01 0.  1.
         15    1    3    3    0    0 -0.10333078394E+03  0.45752099425E+01  0.57195541560E+02  0.11820605382E+03  0.17770000000E+01 0. -1.
</event>
<event>
 7    1  0.3234965E-006  0.3452243E+03  0.7546771E-02  0.9833712E-01
        -11   -1    0    0    0    0  0.00000000000E+00  0.00000000000E+00  0.50000000000E+03  0.50000000000E+03  0.00000000000E+00 0.  1.
         11   -1    0    0    0    0 -0.00000000000E+00 -0.00000000000E+00 -0.50000000000E+03  0.50000000000E+03  0.00000000000E+00 0.  1.
         23    2    1    2    0    0  0.80494756861E+02 -0.70925519519E+02 -0.28230195808E+03  0.31533845180E+03  0.90741988354E+02 0.  0.
        -11    1    1    2    0    0 -0.11503349586E+03  0.22165899755E+03 -0.10250153801E+03  0.26994810919E+03  0.00000000000E+00 0.  1.
         11    1    1    2    0    0  0.34538738999E+02 -0.15073347803E+03  0.38480349608E+03  0.41471343900E+03  0.00000000000E+00 0.  1.
        -15    1    3    3    0    0  0.10942465437E+02 -0.68319710557E+02 -0.16502372739E+03  0.17895057623E+03  0.17770000000E+01 0. -1.
         15    1    3    3    0    0  0.69552291424E+02 -0.26058089617E+01 -0.11727823068E+03  0.13638787558E+03  0.17770000000E+01 0.  1.
</event>
<event>
 7    1  0.3234965E-006  0.5086076E+03  0.7546771E-02  0.9380753E-01
        -11   -1    0    0    0    0  0.00000000000E+00  0.00000000000E+00  0.50000000000E+03  0.50000000000E+03  0.00000000000E+00 0. -1.
         11   -1    0    0    0    0 -0.00000000000E+00 -0.00000000000E+00 -0.50000000000E+03  0.50000000000E+03  0.00000000000E+00 0. -1.
         23    2    1    2    0    0  0.16144433757E+03 -0.15169983818E+03 -0.42899810493E+03  0.49139235005E+03  0.91378075152E+02 0.  0.
        -11    1    1    2    0    0 -0.88246809339E+01  0.10637531457E+03  0.23154913991E+03  0.25496781510E+03  0.00000000000E+00 0. -1.
         11    1    1    2    0    0 -0.15261965664E+03  0.45324523615E+02  0.19744896502E+03  0.25363983485E+03  0.00000000000E+00 0. -1.
        -15    1    3    3    0    0  0.17696884320E+02 -0.72999124945E+02 -0.11893394831E+03  0.14067868974E+03  0.17770000000E+01 0.  1.
         15    1    3    3    0    0  0.14374745325E+03 -0.78700713237E+02 -0.31006415662E+03  0.35071366031E+03  0.17770000000E+01 0. -1.
</event>
<event>
 7    1  0.3234965E-006  0.5265065E+03  0.7546771E-02  0.9342378E-01
        -11   -1    0    0    0    0  0.00000000000E+00  0.00000000000E+00  0.50000000000E+03  0.50000000000E+03  0.00000000000E+00 0.  1.
         11   -1    0    0    0    0 -0.00000000000E+00 -0.00000000000E+00 -0.50000000000E+03  0.50000000000E+03  0.00000000000E+00 0. -1.
         23    2    1    2    0    0  0.12631249322E+03 -0.60172193894E+01 -0.19083994505E+03  0.24489114057E+03  0.86952476839E+02 0.  0.
        -11    1    1    2    0    0 -0.74200340231E+02  0.22369520100E+02  0.46710815573E+03  0.47349352168E+03  0.00000000000E+00 0.  1.
         11    1    1    2    0    0 -0.52112152992E+02 -0.16352300711E+02 -0.27626821067E+03  0.28161533775E+03  0.00000000000E+00 0. -1.
        -15    1    3    3    0    0  0.75210988211E+02  0.13012231215E+02 -0.17023366440E+03  0.18657081533E+03  0.17770000000E+01 0. -1.
         15    1    3    3    0    0  0.51101505012E+02 -0.19029450604E+02 -0.20606280654E+02  0.58320325240E+02  0.17770000000E+01 0.  1.
</event>
<event>
 6    1  0.3234965E-006  0.3472100E+03  0.7546771E-02  0.9826682E-01
        -11   -1    0    0    0    0  0.00000000000E+00  0.00000000000E+00  0.50000000000E+03  0.50000000000E+03  0.00000000000E+00 0. -1.
         11   -1    0    0    0    0 -0.00000000000E+00 -0.00000000000E+00 -0.50000000000E+03  0.50000000000E+03  0.00000000000E+00 0.  1.
        -11    1    1    2    0    0 -0.76829611368E+02 -0.16614157105E+00  0.30397125558E+03  0.31353044669E+03  0.00000000000E+00 0. -1.
         11    1    1    2    0    0 -0.60683540929E+02 -0.97136566244E+02 -0.38966671272E+03  0.40615040520E+03  0.00000000000E+00 0.  1.
        -15    1    1    2    0    0  0.10856450856E+03  0.10890538336E+03  0.14622370292E+03  0.21220547606E+03  0.17770000000E+01 0. -1.
         15    1    1    2    0    0  0.28948643741E+02 -0.11602675549E+02 -0.60528245775E+02  0.68113672049E+02  0.17770000000E+01 0.  1.
</event>
<event>
 7    1  0.3234965E-006  0.5398703E+03  0.7546771E-02  0.9314766E-01
        -11   -1    0    0    0    0  0.00000000000E+00  0.00000000000E+00  0.50000000000E+03  0.50000000000E+03  0.00000000000E+00 0.  1.
         11   -1    0    0    0    0 -0.00000000000E+00 -0.00000000000E+00 -0.50000000000E+03  0.50000000000E+03  0.00000000000E+00 0. -1.
         23    2    1    2    0    0  0.98792843061E+02 -0.20518801810E+02  0.13830877881E+03  0.19477687054E+03  0.92885219141E+02 0.  0.
        -11    1    1    2    0    0 -0.12961848220E+03 -0.80319424710E+02  0.30957600984E+03  0.34509341747E+03  0.00000000000E+00 0.  1.
         11    1    1    2    0    0  0.30825639135E+02  0.10083822652E+03 -0.44788478865E+03  0.46012971199E+03  0.00000000000E+00 0. -1.
        -15    1    3    3    0    0  0.17076784953E+02  0.19971127537E+00  0.10120986255E+03  0.10265598120E+03  0.17770000000E+01 0.  1.
         15    1    3    3    0    0  0.81716058108E+02 -0.20718513085E+02  0.37098916257E+02  0.92120889344E+02  0.17770000000E+01 0. -1.
</event>
<event>
 7    1  0.3234965E-006  0.3486531E+03  0.7546771E-02  0.9821605E-01
        -11   -1    0    0    0    0  0.00000000000E+00  0.00000000000E+00  0.50000000000E+03  0.50000000000E+03  0.00000000000E+00 0. -1.
         11   -1    0    0    0    0 -0.00000000000E+00 -0.00000000000E+00 -0.50000000000E+03  0.50000000000E+03  0.00000000000E+00 0. -1.
         23    2    1    2    0    0 -0.22151267173E+03 -0.57839661766E+00 -0.10103804417E+03  0.26141152327E+03  0.95179303684E+02 0.  0.
        -11    1    1    2    0    0  0.14895769513E+03  0.65265876381E+02  0.39596211751E+03  0.42805844001E+03  0.00000000000E+00 0. -1.
         11    1    1    2    0    0  0.72554976602E+02 -0.64687479764E+02 -0.29492407335E+03  0.31053003672E+03  0.00000000000E+00 0. -1.
        -15    1    3    3    0    0 -0.48387726227E+02 -0.39299357889E+02 -0.14525947672E+02  0.64031027359E+02  0.17770000000E+01 0. -1.
         15    1    3    3    0    0 -0.17312494550E+03  0.38720961271E+02 -0.86512096495E+02  0.19738049591E+03  0.17770000000E+01 0.  1.
</event>
<event>
 7    1  0.3234965E-006  0.3795065E+03  0.7546771E-02  0.9718969E-01
        -11   -1    0    0    0    0  0.00000000000E+00  0.00000000000E+00  0.50000000000E+03  0.50000000000E+03  0.00000000000E+00 0. -1.
         11   -1    0    0    0    0 -0.00000000000E+00 -0.00000000000E+00 -0.50000000000E+03  0.50000000000E+03  0.00000000000E+00 0.  1.
         23    2    1    2    0    0 -0.13676586491E+03 -0.16447481482E+02 -0.13649602894E+03  0.21660517445E+03  0.96494633179E+02 0.  0.
        -11    1    1    2    0    0  0.75851180794E+02 -0.17227357040E+03  0.40674711445E+03  0.44819058424E+03  0.00000000000E+00 0. -1.
         11    1    1    2    0    0  0.60914684120E+02  0.18872105188E+03 -0.27025108552E+03  0.33520424130E+03  0.00000000000E+00 0.  1.
        -15    1    3    3    0    0 -0.35815009554E+02 -0.10486538967E+02  0.99165445658E+01  0.38654598613E+02  0.17770000000E+01 0. -1.
         15    1    3    3    0    0 -0.10095085536E+03 -0.59609425146E+01 -0.14641257350E+03  0.17795057584E+03  0.17770000000E+01 0.  1.
</event>
<event>
 7    1  0.3234965E-006  0.5108067E+03  0.7546771E-02  0.9375948E-01
        -11   -1    0    0    0    0  0.00000000000E+00  0.00000000000E+00  0.50000000000E+03  0.50000000000E+03  0.00000000000E+00 0.  1.
         11   -1    0    0    0    0 -0.00000000000E+00 -0.00000000000E+00 -0.50000000000E+03  0.50000000000E+03  0.00000000000E+00 0. -1.
         23    2    1    2    0    0  0.42452656103E+02 -0.10909877016E+02 -0.24423732118E+03  0.26326006643E+03  0.87935999984E+02 0.  0.
        -11    1    1    2    0    0 -0.83015344662E+02 -0.57519753124E+02  0.47865441383E+03  0.48919333329E+03  0.00000000000E+00 0.  1.
         11    1    1    2    0    0  0.40562688559E+02  0.68429630140E+02 -0.23441709265E+03  0.24754660028E+03  0.00000000000E+00 0. -1.
        -15    1    3    3    0    0 -0.10249771374E+02 -0.10179090167E+02 -0.12414243108E+01  0.14607208945E+02  0.17770000000E+01 0.  1.
         15    1    3    3    0    0  0.52702427477E+02 -0.73078684916E+00 -0.24299589687E+03  0.24865285749E+03  0.17770000000E+01 0. -1.
</event>
<event>
 7    1  0.3234965E-006  0.5173504E+03  0.7546771E-02  0.9361802E-01
        -11   -1    0    0    0    0  0.00000000000E+00  0.00000000000E+00  0.50000000000E+03  0.50000000000E+03  0.00000000000E+00 0.  1.
         11   -1    0    0    0    0 -0.00000000000E+00 -0.00000000000E+00 -0.50000000000E+03  0.50000000000E+03  0.00000000000E+00 0.  1.
         23    2    1    2    0    0 -0.15315488014E+02 -0.73723686946E+02  0.24447875970E+03  0.27155182144E+03  0.91108625240E+02 0.  0.
        -11    1    1    2    0    0  0.11606605364E+03 -0.60601529145E+02  0.20802176247E+03  0.24579855127E+03  0.00000000000E+00 0.  1.
         11    1    1    2    0    0 -0.10075056562E+03  0.13432521609E+03 -0.45250052218E+03  0.48264962729E+03  0.00000000000E+00 0.  1.
        -15    1    3    3    0    0 -0.14084225486E+01  0.20947216220E+02  0.29689333602E+02  0.36405820690E+02  0.17770000000E+01 0. -1.
         15    1    3    3    0    0 -0.13907065465E+02 -0.94670903165E+02  0.21478942610E+03  0.23514600075E+03  0.17770000000E+01 0.  1.
</event>
<event>
 7    1  0.3234965E-006  0.5122168E+03  0.7546771E-02  0.9372881E-01
        -11   -1    0    0    0    0  0.00000000000E+00  0.00000000000E+00  0.50000000000E+03  0.50000000000E+03  0.00000000000E+00 0. -1.
         11   -1    0    0    0    0 -0.00000000000E+00 -0.00000000000E+00 -0.50000000000E+03  0.50000000000E+03  0.00000000000E+00 0.  1.
         23    2    1    2    0    0  0.14906983925E+02 -0.26890255048E+02 -0.20538424165E+03  0.22627286295E+03  0.89841069692E+02 0.  0.
        -11    1    1    2    0    0 -0.10224467053E+03  0.65403284501E+01  0.47690214418E+03  0.48778315231E+03  0.00000000000E+00 0. -1.
         11    1    1    2    0    0  0.87337686600E+02  0.20349926598E+02 -0.27151790254E+03  0.28594398474E+03  0.00000000000E+00 0.  1.
        -15    1    3    3    0    0  0.22345290470E+02  0.24692087357E+02 -0.36133618522E+02  0.49171203979E+02  0.17770000000E+01 0.  1.
         15    1    3    3    0    0 -0.74383065449E+01 -0.51582342406E+02 -0.16925062313E+03  0.17710165897E+03  0.17770000000E+01 0. -1.
</event>
<event>
 7    1  0.3234965E-006  0.5103867E+03  0.7546771E-02  0.9376864E-01
        -11   -1    0    0    0    0  0.00000000000E+00  0.00000000000E+00  0.50000000000E+03  0.50000000000E+03  0.00000000000E+00 0. -1.
         11   -1    0    0    0    0 -0.00000000000E+00 -0.00000000000E+00 -0.50000000000E+03  0.50000000000E+03  0.00000000000E+00 0. -1.
         23    2    1    2    0    0  0.48101350642E+02 -0.77327190880E+02  0.22149124134E+03  0.25659492426E+03  0.92137672998E+02 0.  0.
        -11    1    1    2    0    0  0.34436955904E+02 -0.24516879144E+02  0.25024642086E+03  0.25379175016E+03  0.00000000000E+00 0. -1.
         11    1    1    2    0    0 -0.82538306546E+02  0.10184407002E+03 -0.47173766220E+03  0.48961332558E+03  0.00000000000E+00 0. -1.
        -15    1    3    3    0    0 -0.22749439503E+02  0.48670966070E+00  0.55957547549E+02  0.60433258565E+02  0.17770000000E+01 0. -1.
         15    1    3    3    0    0  0.70850790145E+02 -0.77813900540E+02  0.16553369379E+03  0.19616166570E+03  0.17770000000E+01 0.  1.
</event>
<event>
 7    1  0.3234965E-006  0.4623367E+03  0.7546771E-02  0.9488267E-01
        -11   -1    0    0    0    0  0.00000000000E+00  0.00000000000E+00  0.50000000000E+03  0.50000000000E+03  0.00000000000E+00 0.  1.
         11   -1    0    0    0    0 -0.00000000000E+00 -0.00000000000E+00 -0.50000000000E+03  0.50000000000E+03  0.00000000000E+00 0.  1.
         23    2    1    2    0    0 -0.10875692060E+02 -0.42325264464E+03 -0.18726374442E+03  0.47148508372E+03  0.89271453048E+02 0.  0.
        -11    1    1    2    0    0  0.17658832665E+02 -0.11120253869E+02  0.77744694865E+02  0.80496782525E+02  0.00000000000E+00 0.  1.
         11    1    1    2    0    0 -0.67831406051E+01  0.43437289851E+03  0.10951904956E+03  0.44801813375E+03  0.00000000000E+00 0.  1.
        -15    1    3    3    0    0  0.20291556600E+02 -0.37283515184E+03 -0.16047698636E+03  0.40641581982E+03  0.17770000000E+01 0.  1.
         15    1    3    3    0    0 -0.31167248660E+02 -0.50417492794E+02 -0.26786758066E+02  0.65069263906E+02  0.17770000000E+01 0. -1.
</event>
<event>
 6    1  0.3234965E-006  0.5037188E+03  0.7546771E-02  0.9391527E-01
        -11   -1    0    0    0    0  0.00000000000E+00  0.00000000000E+00  0.50000000000E+03  0.50000000000E+03  0.00000000000E+00 0. -1.
         11   -1    0    0    0    0 -0.00000000000E+00 -0.00000000000E+00 -0.50000000000E+03  0.50000000000E+03  0.00000000000E+00 0. -1.
        -11    1    1    2    0    0 -0.40804512790E+02  0.54599272842E+02  0.37265653580E+03  0.37883899289E+03  0.00000000000E+00 0. -1.
         11    1    1    2    0    0  0.48140668598E+02  0.81719824322E+02  0.69260473177E+02  0.11744218495E+03  0.00000000000E+00 0. -1.
        -15    1    1    2    0    0 -0.51345644904E+02  0.12736924068E+02 -0.24544684901E+02  0.58345554854E+02  0.17770000000E+01 0.  1.
         15    1    1    2    0    0  0.44009489096E+02 -0.14905602123E+03 -0.41737232408E+03  0.44537326731E+03  0.17770000000E+01 0. -1.
</event>
<event>
 7    1  0.3234965E-006  0.4848823E+03  0.7546771E-02  0.9434287E-01
        -11   -1    0    0    0    0  0.00000000000E+00  0.00000000000E+00  0.50000000000E+03  0.50000000000E+03  0.00000000000E+00 0.  1.
         11   -1    0    0    0    0 -0.00000000000E+00 -0.00000000000E+00 -0.50000000000E+03  0.50000000000E+03  0.00000000000E+00 0. -1.
         23    2    1    2    0    0  0.12327076367E+03  0.10280521754E+03 -0.44222474303E+03  0.47932820835E+03  0.91805305096E+02 0.  0.
        -11    1    1    2    0    0 -0.90830891426E+02 -0.10293948670E+03  0.46248110759E+03  0.48242674432E+03  0.00000000000E+00 0.  1.
         11    1    1    2    0    0 -0.32439872248E+02  0.13426916447E+00 -0.20256364559E+02  0.38245047324E+02  0.00000000000E+00 0. -1.
        -15    1    3    3    0    0  0.32149633791E+02  0.50351528013E+02 -0.27777956570E+03  0.28413644641E+03  0.17770000000E+01 0.  1.
         15    1    3    3    0    0  0.91121129882E+02  0.52453689523E+02 -0.16444517733E+03  0.19519176195E+03  0.17770000000E+01 0. -1.
</event>
<event>
 6    1  0.3234965E-006  0.3809758E+03  0.7546771E-02  0.9714344E-01
        -11   -1    0    0    0    0  0.00000000000E+00  0.00000000000E+00  0.50000000000E+03  0.50000000000E+03  0.00000000000E+00 0.  1.
         11   -1    0    0    0    0 -0.00000000000E+00 -0.00000000000E+00 -0.50000000000E+03  0.50000000000E+03  0.00000000000E+00 0. -1.
        -11    1    1    2    0    0  0.59792582618E+02 -0.49883528885E+02  0.35366573763E+03  0.36213667774E+03  0.00000000000E+00 0.  1.
         11    1    1    2    0    0 -0.13978325290E+03  0.76647021377E+02 -0.37196526592E+03  0.40468788310E+03  0.00000000000E+00 0. -1.
        -15    1    1    2    0    0  0.15352198978E+02  0.40461262780E+02  0.10012738602E+03  0.10909378974E+03  0.17770000000E+01 0. -1.
         15    1    1    2    0    0  0.64638471305E+02 -0.67224755273E+02 -0.81827857734E+02  0.12408164943E+03  0.17770000000E+01 0.  1.
</event>
<event>
 7    1  0.3234965E-006  0.5246264E+03  0.7546771E-02  0.9346332E-01
        -11   -1    0    0    0    0  0.00000000000E+00  0.00000000000E+00  0.50000000000E+03  0.50000000000E+03  0.00000000000E+00 0.  1.
         11   -1    0    0    0    0 -0.00000000000E+00 -0.00000000000E+00 -0.50000000000E+03  0.50000000000E+03  0.00000000000E+00 0. -1.
         23    2    1    2    0    0  0.12774040800E+03 -0.32584908340E+02 -0.37804371636E+03  0.41094026494E+03  0.92603789245E+02 0.  0.
        -11    1    1    2    0    0 -0.10572590096E+03 -0.41264613958E+02  0.46162685252E+03  0.47537362723E+03  0.00000000000E+00 0.  1.
         11    1    1    2    0    0 -0.22014507045E+02  0.73849522298E+02 -0.83583136160E+02  0.11368610783E+03  0.00000000000E+00 0. -1.
        -15    1    3    3    0    0  0.97328305985E+01  0.82169065534E+01 -0.57834533430E-01  0.12861050447E+02  0.17770000000E+01 0.  1.
         15    1    3    3    0    0  0.11800757741E+03 -0.40801814893E+02 -0.37798588182E+03  0.39807921449E+03  0.17770000000E+01 0. -1.
</event>
<event>
 7    1  0.3234965E-006  0.3998053E+03  0.7546771E-02  0.9656976E-01
        -11   -1    0    0    0    0  0.00000000000E+00  0.00000000000E+00  0.50000000000E+03  0.50000000000E+03  0.00000000000E+00 0.  1.
         11   -1    0    0    0    0 -0.00000000000E+00 -0.00000000000E+00 -0.50000000000E+03  0.50000000000E+03  0.00000000000E+00 0. -1.
         23    2    1    2    0    0 -0.48547486967E+02  0.74715629870E+02 -0.34816392002E+03  0.37091275095E+03  0.91754399209E+02 0.  0.
        -11    1    1    2    0    0  0.70537194319E+01  0.89778796033E+02  0.43099197224E+03  0.44029997424E+03  0.00000000000E+00 0.  1.
         11    1    1    2    0    0  0.41493767535E+02 -0.16449442590E+03 -0.82828052220E+02  0.18878727481E+03  0.00000000000E+00 0. -1.
        -15    1    3    3    0    0  0.14894140421E+02 -0.99610014920E+01 -0.24611540994E+02  0.30494961038E+02  0.17770000000E+01 0.  1.
         15    1    3    3    0    0 -0.63441627388E+02  0.84676631362E+02 -0.32355237903E+03  0.34041778991E+03  0.17770000000E+01 0. -1.
</event>
<event>
 7    1  0.3234965E-006  0.5240329E+03  0.7546771E-02  0.9347584E-01
        -11   -1    0    0    0    0  0.00000000000E+00  0.00000000000E+00  0.50000000000E+03  0.50000000000E+03  0.00000000000E+00 0. -1.
         11   -1    0    0    0    0 -0.00000000000E+00 -0.00000000000E+00 -0.50000000000E+03  0.50000000000E+03  0.00000000000E+00 0.  1.
         23    2    1    2    0    0 -0.84687080239E+02  0.17271882737E+02 -0.12730232326E+03  0.17887840358E+03  0.91221610757E+02 0.  0.
        -11    1    1    2    0    0  0.10090652663E+03 -0.19805991511E+03  0.42087386715E+03  0.47596708830E+03  0.00000000000E+00 0. -1.
         11    1    1    2    0    0 -0.16219446395E+02  0.18078803237E+03 -0.29357154389E+03  0.34515450812E+03  0.00000000000E+00 0.  1.
        -15    1    3    3    0    0 -0.41316643883E+02 -0.23524231325E+02 -0.10499109963E+03  0.11526813632E+03  0.17770000000E+01 0.  1.
         15    1    3    3    0    0 -0.43370436356E+02  0.40796114062E+02 -0.22311223631E+02  0.63610267262E+02  0.17770000000E+01 0. -1.
</event>
<event>
 7    1  0.3234965E-006  0.5292417E+03  0.7546771E-02  0.9336656E-01
        -11   -1    0    0    0    0  0.00000000000E+00  0.00000000000E+00  0.50000000000E+03  0.50000000000E+03  0.00000000000E+00 0. -1.
         11   -1    0    0    0    0 -0.00000000000E+00 -0.00000000000E+00 -0.50000000000E+03  0.50000000000E+03  0.00000000000E+00 0.  1.
         23    2    1    2    0    0  0.29264405513E+02  0.98735966942E+02 -0.28633671171E+03  0.31829287339E+03  0.93361898987E+02 0.  0.
        -11    1    1    2    0    0 -0.97431465704E+02 -0.12800617202E+01  0.46056360721E+03  0.47075828761E+03  0.00000000000E+00 0. -1.
         11    1    1    2    0    0  0.68167060191E+02 -0.97455905221E+02 -0.17422689550E+03  0.21094883900E+03  0.00000000000E+00 0.  1.
        -15    1    3    3    0    0 -0.15905299118E+02  0.73123491730E+02 -0.10039778493E+03  0.12523137199E+03  0.17770000000E+01 0.  1.
         15    1    3    3    0    0  0.45169704632E+02  0.25612475212E+02 -0.18593892678E+03  0.19306150140E+03  0.17770000000E+01 0. -1.
</event>
<event>
 7    1  0.3234965E-006  0.5176569E+03  0.7546771E-02  0.9361145E-01
        -11   -1    0    0    0    0  0.00000000000E+00  0.00000000000E+00  0.50000000000E+03  0.50000000000E+03  0.00000000000E+00 0. -1.
         11   -1    0    0    0    0 -0.00000000000E+00 -0.00000000000E+00 -0.50000000000E+03  0.50000000000E+03  0.00000000000E+00 0.  1.
         23    2    1    2    0    0 -0.14004452506E+03 -0.10286257394E+03 -0.37625861072E+03  0.42396893810E+03  0.89364087954E+02 0.  0.
        -11    1    1    2    0    0  0.15552953138E+03  0.52272445748E+02  0.45357801119E+03  0.48234308946E+03  0.00000000000E+00 0. -1.
         11    1    1    2    0    0 -0.15485006323E+02  0.50590128190E+02 -0.77319400465E+02  0.93687972437E+02  0.00000000000E+00 0.  1.
        -15    1    3    3    0    0 -0.10268015495E+03 -0.84829692289E+02 -0.35085435817E+03  0.37528819498E+03  0.17770000000E+01 0.  1.
         15    1    3    3    0    0 -0.37364370112E+02 -0.18032881648E+02 -0.25404252556E+02  0.48680743127E+02  0.17770000000E+01 0. -1.
</event>
<event>
 7    1  0.3234965E-006  0.5098983E+03  0.7546771E-02  0.9377930E-01
        -11   -1    0    0    0    0  0.00000000000E+00  0.00000000000E+00  0.50000000000E+03  0.50000000000E+03  0.00000000000E+00 0. -1.
         11   -1    0    0    0    0 -0.00000000000E+00 -0.00000000000E+00 -0.50000000000E+03  0.50000000000E+03  0.00000000000E+00 0. -1.
         23    2    1    2    0    0  0.11034214875E+02  0.24466881941E+03  0.28734870087E+03  0.38836289513E+03  0.90949861637E+02 0.  0.
        -11    1    1    2    0    0  0.55337152494E+02  0.68264635543E+02  0.83955946782E+02  0.12153543480E+03  0.00000000000E+00 0. -1.
         11    1    1    2    0    0 -0.66371367368E+02 -0.31293345495E+03 -0.37130464765E+03  0.49010167007E+03  0.00000000000E+00 0. -1.
        -15    1    3    3    0    0  0.19268037990E+02  0.66413579475E+02  0.14293975768E+03  0.15879846624E+03  0.17770000000E+01 0.  1.
         15    1    3    3    0    0 -0.82338231149E+01  0.17825523993E+03  0.14440894319E+03  0.22956442889E+03  0.17770000000E+01 0. -1.
</event>
<event>
 7    1  0.3234965E-006  0.5167054E+03  0.7546771E-02  0.9363187E-01
        -11   -1    0    0    0    0  0.00000000000E+00  0.00000000000E+00  0.50000000000E+03  0.50000000000E+03  0.00000000000E+00 0.  1.
         11   -1    0    0    0    0 -0.00000000000E+00 -0.00000000000E+00 -0.50000000000E+03  0.50000000000E+03  0.00000000000E+00 0. -1.
         23    2    1    2    0    0  0.93236355913E+02 -0.11696240516E+03 -0.46562378851E+02  0.17988607601E+03  0.88417888097E+02 0.  0.
        -11    1    1    2    0    0 -0.16147775567E+03  0.41457444054E+03  0.18875032480E+03  0.48329464868E+03  0.00000000000E+00 0.  1.
         11    1    1    2    0    0  0.68241399757E+02 -0.29761203539E+03 -0.14218794595E+03  0.33681927531E+03  0.00000000000E+00 0. -1.
        -15    1    3    3    0    0  0.79392552707E+02 -0.72220101338E+02 -0.69325973204E+02  0.12778172308E+03  0.17770000000E+01 0. -1.
         15    1    3    3    0    0  0.13843803206E+02 -0.44742303818E+02  0.22763594353E+02  0.52104352937E+02  0.17770000000E+01 0.  1.
</event>
<event>
 7    1  0.3234965E-006  0.5115285E+03  0.7546771E-02  0.9374377E-01
        -11   -1    0    0    0    0  0.00000000000E+00  0.00000000000E+00  0.50000000000E+03  0.50000000000E+03  0.00000000000E+00 0.  1.
         11   -1    0    0    0    0 -0.00000000000E+00 -0.00000000000E+00 -0.50000000000E+03  0.50000000000E+03  0.00000000000E+00 0. -1.
         23    2    1    2    0    0 -0.88990580882E+02  0.10681230699E+02 -0.31911321717E+03  0.34349521357E+03  0.90123827029E+02 0.  0.
        -11    1    1    2    0    0  0.91935673781E+02  0.44995430724E+02  0.47762705516E+03  0.48847145333E+03  0.00000000000E+00 0.  1.
         11    1    1    2    0    0 -0.29450928997E+01 -0.55676661423E+02 -0.15851383798E+03  0.16803333310E+03  0.00000000000E+00 0. -1.
        -15    1    3    3    0    0 -0.60989118280E+02 -0.36471197188E+02 -0.20260973842E+03  0.21471768582E+03  0.17770000000E+01 0.  1.
         15    1    3    3    0    0 -0.28001462602E+02  0.47152427886E+02 -0.11650347876E+03  0.12877752776E+03  0.17770000000E+01 0. -1.
</event>
<event>
 7    1  0.3234965E-006  0.5180040E+03  0.7546771E-02  0.9360402E-01
        -11   -1    0    0    0    0  0.00000000000E+00  0.00000000000E+00  0.50000000000E+03  0.50000000000E+03  0.00000000000E+00 0.  1.
         11   -1    0    0    0    0 -0.00000000000E+00 -0.00000000000E+00 -0.50000000000E+03  0.50000000000E+03  0.00000000000E+00 0.  1.
         23    2    1    2    0    0 -0.80546132110E+01  0.77171041904E+01 -0.23529113989E+03  0.25029646057E+03  0.84628406426E+02 0.  0.
        -11    1    1    2    0    0  0.10957084347E+03 -0.12892981140E+03  0.45132188221E+03  0.48199596198E+03  0.00000000000E+00 0.  1.
         11    1    1    2    0    0 -0.10151623026E+03  0.12121270721E+03 -0.21603074232E+03  0.26770757744E+03  0.00000000000E+00 0.  1.
        -15    1    3    3    0    0 -0.37474973527E+01  0.44319904446E+02 -0.90182448597E+02  0.10057002252E+03  0.17770000000E+01 0.  1.
         15    1    3    3    0    0 -0.43071158584E+01 -0.36602800255E+02 -0.14510869129E+03  0.14972643805E+03  0.17770000000E+01 0. -1.
</event>
<event>
 7    1  0.3234965E-006  0.3994581E+03  0.7546771E-02  0.9658003E-01
        -11   -1    0    0    0    0  0.00000000000E+00  0.00000000000E+00  0.50000000000E+03  0.50000000000E+03  0.00000000000E+00 0.  1.
         11   -1    0    0    0    0 -0.00000000000E+00 -0.00000000000E+00 -0.50000000000E+03  0.50000000000E+03  0.00000000000E+00 0. -1.
         23    2    1    2    0    0 -0.67134611395E+01  0.52597785087E+01 -0.16011675209E+03  0.18515205731E+03  0.92580636182E+02 0.  0.
        -11    1    1    2    0    0 -0.29321456309E+03 -0.10874511106E+03  0.33025638499E+03  0.45482915366E+03  0.00000000000E+00 0.  1.
         11    1    1    2    0    0  0.29992802423E+03  0.10348533255E+03 -0.17013963290E+03  0.36001878903E+03  0.00000000000E+00 0. -1.
        -15    1    3    3    0    0 -0.37541517494E+02 -0.24569075426E+02 -0.51318736910E+02  0.68189262278E+02  0.17770000000E+01 0.  1.
         15    1    3    3    0    0  0.30828056354E+02  0.29828853934E+02 -0.10879801518E+03  0.11696279503E+03  0.17770000000E+01 0. -1.
</event>
<event>
 7    1  0.3234965E-006  0.5178077E+03  0.7546771E-02  0.9360822E-01
        -11   -1    0    0    0    0  0.00000000000E+00  0.00000000000E+00  0.50000000000E+03  0.50000000000E+03  0.00000000000E+00 0.  1.
         11   -1    0    0    0    0 -0.00000000000E+00 -0.00000000000E+00 -0.50000000000E+03  0.50000000000E+03  0.00000000000E+00 0. -1.
         23    2    1    2    0    0  0.29572013200E+02  0.21231179166E+02  0.12702725894E+03  0.16121021679E+03  0.92344694218E+02 0.  0.
        -11    1    1    2    0    0  0.10642480027E+03 -0.70556871511E+02  0.33295234964E+03  0.35659750050E+03  0.00000000000E+00 0.  1.
         11    1    1    2    0    0 -0.13599681347E+03  0.49325692344E+02 -0.45997960858E+03  0.48219228271E+03  0.00000000000E+00 0. -1.
        -15    1    3    3    0    0  0.51761595115E+02  0.35088584112E+02  0.50761842296E+02  0.80562980494E+02  0.17770000000E+01 0.  1.
         15    1    3    3    0    0 -0.22189581915E+02 -0.13857404945E+02  0.76265416643E+02  0.80647236296E+02  0.17770000000E+01 0. -1.
</event>
<event>
 7    1  0.3234965E-006  0.5304274E+03  0.7546771E-02  0.9334187E-01
        -11   -1    0    0    0    0  0.00000000000E+00  0.00000000000E+00  0.50000000000E+03  0.50000000000E+03  0.00000000000E+00 0. -1.
         11   -1    0    0    0    0 -0.00000000000E+00 -0.00000000000E+00 -0.50000000000E+03  0.50000000000E+03  0.00000000000E+00 0.  1.
         23    2    1    2    0    0 -0.50564963706E+02 -0.10143087702E+03 -0.16911816860E+03  0.22353101253E+03  0.92304497422E+02 0.  0.
        -11    1    1    2    0    0 -0.50792302656E+02  0.87855426576E+02  0.45847573381E+03  0.46957260619E+03  0.00000000000E+00 0. -1.
         11    1    1    2    0    0  0.10135726636E+03  0.13575450439E+02 -0.28935756521E+03  0.30689638128E+03  0.00000000000E+00 0.  1.
        -15    1    3    3    0    0  0.12253892748E+02 -0.37085744239E+01 -0.68878156416E+02  0.70080450712E+02  0.17770000000E+01 0.  1.
         15    1    3    3    0    0 -0.62818856454E+02 -0.97722302591E+02 -0.10024001219E+03  0.15345056182E+03  0.17770000000E+01 0. -1.
</event>
<event>
 7    1  0.3234965E-006  0.5368303E+03  0.7546771E-02  0.9320972E-01
        -11   -1    0    0    0    0  0.00000000000E+00  0.00000000000E+00  0.50000000000E+03  0.50000000000E+03  0.00000000000E+00 0.  1.
         11   -1    0    0    0    0 -0.00000000000E+00 -0.00000000000E+00 -0.50000000000E+03  0.50000000000E+03  0.00000000000E+00 0.  1.
         23    2    1    2    0    0  0.10638371180E+03  0.13407392143E+03 -0.24166443620E+03  0.31019693515E+03  0.92342451301E+02 0.  0.
        -11    1    1    2    0    0 -0.36151900217E+02 -0.90775770944E+02  0.45274603811E+03  0.46316970486E+03  0.00000000000E+00 0.  1.
         11    1    1    2    0    0 -0.70231811580E+02 -0.43298150485E+02 -0.21108160191E+03  0.22663335998E+03  0.00000000000E+00 0.  1.
        -15    1    3    3    0    0  0.11673524397E+03  0.14009186282E+03 -0.22594949643E+03  0.29036043098E+03  0.17770000000E+01 0. -1.
         15    1    3    3    0    0 -0.10351532172E+02 -0.60179413912E+01 -0.15714939768E+02  0.19836504173E+02  0.17770000000E+01 0.  1.
</event>
<event>
 7    1  0.3234965E-006  0.4593071E+03  0.7546771E-02  0.9495770E-01
        -11   -1    0    0    0    0  0.00000000000E+00  0.00000000000E+00  0.50000000000E+03  0.50000000000E+03  0.00000000000E+00 0.  1.
         11   -1    0    0    0    0 -0.00000000000E+00 -0.00000000000E+00 -0.50000000000E+03  0.50000000000E+03  0.00000000000E+00 0. -1.
         23    2    1    2    0    0 -0.18346925359E+03  0.12691504813E+02 -0.41500309281E+03  0.46327475982E+03  0.92595327860E+02 0.  0.
        -11    1    1    2    0    0  0.14384559550E+03  0.64135258918E+02  0.42157409025E+03  0.45003288807E+03  0.00000000000E+00 0.  1.
         11    1    1    2    0    0  0.39623658089E+02 -0.76826763730E+02 -0.65709974357E+01  0.86692352102E+02  0.00000000000E+00 0. -1.
        -15    1    3    3    0    0 -0.52533728858E+02 -0.20694131881E+02 -0.21206223817E+03  0.21945749098E+03  0.17770000000E+01 0.  1.
         15    1    3    3    0    0 -0.13093552473E+03  0.33385636694E+02 -0.20294085464E+03  0.24381726884E+03  0.17770000000E+01 0. -1.
</event>
<event>
 7    1  0.3234965E-006  0.3863678E+03  0.7546771E-02  0.9697560E-01
        -11   -1    0    0    0    0  0.00000000000E+00  0.00000000000E+00  0.50000000000E+03  0.50000000000E+03  0.00000000000E+00 0.  1.
         11   -1    0    0    0    0 -0.00000000000E+00 -0.00000000000E+00 -0.50000000000E+03  0.50000000000E+03  0.00000000000E+00 0. -1.
         23    2    1    2    0    0 -0.27195203344E+02 -0.67878248710E+02 -0.18024460550E+03  0.20315910795E+03  0.58638465171E+02 0.  0.
        -11    1    1    2    0    0 -0.33822597437E+03 -0.39245978194E+02  0.23274317364E+03  0.41243962154E+03  0.00000000000E+00 0.  1.
         11    1    1    2    0    0  0.36542117772E+03  0.10712422690E+03 -0.52498568141E+02  0.38440127051E+03  0.00000000000E+00 0. -1.
        -15    1    3    3    0    0 -0.40231022258E+02 -0.64603977235E+02 -0.16966771975E+03  0.18596371119E+03  0.17770000000E+01 0. -1.
         15    1    3    3    0    0  0.13035818913E+02 -0.32742714750E+01 -0.10576885753E+02  0.17195396758E+02  0.17770000000E+01 0.  1.
</event>
<event>
 7    1  0.3234965E-006  0.5068185E+03  0.7546771E-02  0.9384681E-01
        -11   -1    0    0    0    0  0.00000000000E+00  0.00000000000E+00  0.50000000000E+03  0.50000000000E+03  0.00000000000E+00 0.  1.
         11   -1    0    0    0    0 -0.00000000000E+00 -0.00000000000E+00 -0.50000000000E+03  0.50000000000E+03  0.00000000000E+00 0. -1.
         23    2    1    2    0    0  0.81699982931E+02 -0.38352144734E+00  0.35446599282E+03  0.37519024091E+03  0.91905073353E+02 0.  0.
        -11    1    1    2    0    0  0.56101303785E+02 -0.84554915791E+00  0.11907105122E+03  0.13162821308E+03  0.00000000000E+00 0.  1.
         11    1    1    2    0    0 -0.13780128672E+03  0.12290706052E+01 -0.47353704405E+03  0.49318154601E+03  0.00000000000E+00 0. -1.
        -15    1    3    3    0    0  0.64348128688E+02  0.63495403641E+01  0.35005324933E+03  0.35597954074E+03  0.17770000000E+01 0.  1.
         15    1    3    3    0    0  0.17351854243E+02 -0.67330618114E+01  0.44127434918E+01  0.19210700173E+02  0.17770000000E+01 0. -1.
</event>
<event>
 7    1  0.3234965E-006  0.5081064E+03  0.7546771E-02  0.9381852E-01
        -11   -1    0    0    0    0  0.00000000000E+00  0.00000000000E+00  0.50000000000E+03  0.50000000000E+03  0.00000000000E+00 0.  1.
         11   -1    0    0    0    0 -0.00000000000E+00 -0.00000000000E+00 -0.50000000000E+03  0.50000000000E+03  0.00000000000E+00 0. -1.
         23    2    1    2    0    0  0.16970131885E+02 -0.46414139776E+02  0.39876031707E+03  0.41197347395E+03  0.90940062809E+02 0.  0.
        -11    1    1    2    0    0  0.15953698040E+02 -0.44991444486E+02  0.83443327236E+02  0.96132925776E+02  0.00000000000E+00 0.  1.
         11    1    1    2    0    0 -0.32923829925E+02  0.91405584262E+02 -0.48220364430E+03  0.49189360027E+03  0.00000000000E+00 0. -1.
        -15    1    3    3    0    0  0.47949980024E+02 -0.90035768831E+00  0.20434463895E+03  0.20990450311E+03  0.17770000000E+01 0.  1.
         15    1    3    3    0    0 -0.30979848139E+02 -0.45513782088E+02  0.19441567812E+03  0.20206897084E+03  0.17770000000E+01 0. -1.
</event>
<event>
 7    1  0.3234965E-006  0.5338686E+03  0.7546771E-02  0.9327060E-01
        -11   -1    0    0    0    0  0.00000000000E+00  0.00000000000E+00  0.50000000000E+03  0.50000000000E+03  0.00000000000E+00 0.  1.
         11   -1    0    0    0    0 -0.00000000000E+00 -0.00000000000E+00 -0.50000000000E+03  0.50000000000E+03  0.00000000000E+00 0. -1.
         23    2    1    2    0    0  0.31224281906E+02  0.10500584065E+03 -0.15556689486E+03  0.21255056907E+03  0.94739132804E+02 0.  0.
        -11    1    1    2    0    0 -0.14788081183E+03 -0.16974091453E+02  0.44172578775E+03  0.46613144697E+03  0.00000000000E+00 0.  1.
         11    1    1    2    0    0  0.11665652993E+03 -0.88031749194E+02 -0.28615889289E+03  0.32131798397E+03  0.00000000000E+00 0. -1.
        -15    1    3    3    0    0  0.44897927716E+01  0.61686413053E+02 -0.15899811422E+02  0.63885315423E+02  0.17770000000E+01 0.  1.
         15    1    3    3    0    0  0.26734489134E+02  0.43319427594E+02 -0.13966708344E+03  0.14866525365E+03  0.17770000000E+01 0. -1.
</event>
<event>
 7    1  0.3234965E-006  0.3673951E+03  0.7546771E-02  0.9757968E-01
        -11   -1    0    0    0    0  0.00000000000E+00  0.00000000000E+00  0.50000000000E+03  0.50000000000E+03  0.00000000000E+00 0.  1.
         11   -1    0    0    0    0 -0.00000000000E+00 -0.00000000000E+00 -0.50000000000E+03  0.50000000000E+03  0.00000000000E+00 0. -1.
         23    2    1    2    0    0 -0.23287255230E+02  0.72172690216E+02 -0.20222881598E+03  0.23412519203E+03  0.90371002321E+02 0.  0.
        -11    1    1    2    0    0  0.11385566783E+03  0.15472714607E+03  0.40508454071E+03  0.44832698776E+03  0.00000000000E+00 0.  1.
         11    1    1    2    0    0 -0.90568412596E+02 -0.22689983628E+03 -0.20285572473E+03  0.31754782021E+03  0.00000000000E+00 0. -1.
        -15    1    3    3    0    0  0.26507751356E+02  0.16044332764E+02 -0.19680550366E+02  0.36750010714E+02  0.17770000000E+01 0. -1.
         15    1    3    3    0    0 -0.49795006586E+02  0.56128357452E+02 -0.18254826562E+03  0.19737518132E+03  0.17770000000E+01 0.  1.
</event>
<event>
 7    1  0.3234965E-006  0.5076971E+03  0.7546771E-02  0.9382750E-01
        -11   -1    0    0    0    0  0.00000000000E+00  0.00000000000E+00  0.50000000000E+03  0.50000000000E+03  0.00000000000E+00 0.  1.
         11   -1    0    0    0    0 -0.00000000000E+00 -0.00000000000E+00 -0.50000000000E+03  0.50000000000E+03  0.00000000000E+00 0.  1.
         23    2    1    2    0    0 -0.23031073131E+00  0.39763012698E+02 -0.48214113479E+03  0.49230289464E+03  0.91219054988E+02 0.  0.
        -11    1    1    2    0    0 -0.48879238820E+02 -0.55871703927E+02  0.42164212781E+03  0.42812721384E+03  0.00000000000E+00 0.  1.
         11    1    1    2    0    0  0.49109549552E+02  0.16108691229E+02  0.60499006987E+02  0.79569891521E+02  0.00000000000E+00 0.  1.
        -15    1    3    3    0    0  0.40881068350E+02  0.25226840142E+00 -0.16002104656E+03  0.16517027111E+03  0.17770000000E+01 0.  1.
         15    1    3    3    0    0 -0.41111379081E+02  0.39510744297E+02 -0.32212008823E+03  0.32713262353E+03  0.17770000000E+01 0. -1.
</event>
<event>
 7    1  0.3234965E-006  0.5092006E+03  0.7546771E-02  0.9379455E-01
        -11   -1    0    0    0    0  0.00000000000E+00  0.00000000000E+00  0.50000000000E+03  0.50000000000E+03  0.00000000000E+00 0. -1.
         11   -1    0    0    0    0 -0.00000000000E+00 -0.00000000000E+00 -0.50000000000E+03  0.50000000000E+03  0.00000000000E+00 0.  1.
         23    2    1    2    0    0 -0.29937885158E+02 -0.34378567609E+02  0.24128197748E+03  0.26132677750E+03  0.89423314103E+02 0.  0.
        -11    1    1    2    0    0 -0.48659037182E+02  0.12914581662E+02  0.24270754333E+03  0.24787383869E+03  0.00000000000E+00 0. -1.
         11    1    1    2    0    0  0.78596922340E+02  0.21463985947E+02 -0.48398952081E+03  0.49079938381E+03  0.00000000000E+00 0.  1.
        -15    1    3    3    0    0  0.82149040787E+01  0.17186481150E+02  0.10570620119E+02  0.21857619313E+02  0.17770000000E+01 0.  1.
         15    1    3    3    0    0 -0.38152789237E+02 -0.51565048759E+02  0.23071135736E+03  0.23946915819E+03  0.17770000000E+01 0. -1.
</event>
<event>
 7    1  0.3234965E-006  0.4090358E+03  0.7546771E-02  0.9630073E-01
        -11   -1    0    0    0    0  0.00000000000E+00  0.00000000000E+00  0.50000000000E+03  0.50000000000E+03  0.00000000000E+00 0. -1.
         11   -1    0    0    0    0 -0.00000000000E+00 -0.00000000000E+00 -0.50000000000E+03  0.50000000000E+03  0.00000000000E+00 0.  1.
         23    2    1    2    0    0  0.38207309346E+02 -0.33913579228E+02 -0.40927537891E+03  0.42293338576E+03  0.93575550573E+02 0.  0.
        -11    1    1    2    0    0 -0.15145745295E+03 -0.89843533363E+02  0.36234591283E+03  0.40287191648E+03  0.00000000000E+00 0. -1.
         11    1    1    2    0    0  0.11325014361E+03  0.12375711259E+03  0.46929466076E+02  0.17419469777E+03  0.00000000000E+00 0.  1.
        -15    1    3    3    0    0  0.44213508345E+02  0.22019883213E+02 -0.21901633018E+03  0.22452398578E+03  0.17770000000E+01 0. -1.
         15    1    3    3    0    0 -0.60061989994E+01 -0.55933462441E+02 -0.19025904872E+03  0.19840939997E+03  0.17770000000E+01 0.  1.
</event>
<event>
 7    1  0.3234965E-006  0.5118611E+03  0.7546771E-02  0.9373654E-01
        -11   -1    0    0    0    0  0.00000000000E+00  0.00000000000E+00  0.50000000000E+03  0.50000000000E+03  0.00000000000E+00 0.  1.
         11   -1    0    0    0    0 -0.00000000000E+00 -0.00000000000E+00 -0.50000000000E+03  0.50000000000E+03  0.00000000000E+00 0.  1.
         23    2    1    2    0    0  0.74960412663E+02  0.30058239781E+01 -0.33768699722E+03  0.35743889225E+03  0.90010861327E+02 0.  0.
        -11    1    1    2    0    0 -0.62535044286E+02 -0.61024345768E+02  0.48025513846E+03  0.48813891522E+03  0.00000000000E+00 0.  1.
         11    1    1    2    0    0 -0.12425368377E+02  0.58018521790E+02 -0.14256814124E+03  0.15442219253E+03  0.00000000000E+00 0.  1.
        -15    1    3    3    0    0 -0.11367836173E+01 -0.22551956171E+02 -0.21548574031E+02  0.31263105666E+02  0.17770000000E+01 0. -1.
         15    1    3    3    0    0  0.76097196281E+02  0.25557780149E+02 -0.31613842319E+03  0.32617578658E+03  0.17770000000E+01 0.  1.
</event>
<event>
 7    1  0.3234965E-006  0.4189350E+03  0.7546771E-02  0.9602051E-01
        -11   -1    0    0    0    0  0.00000000000E+00  0.00000000000E+00  0.50000000000E+03  0.50000000000E+03  0.00000000000E+00 0. -1.
         11   -1    0    0    0    0 -0.00000000000E+00 -0.00000000000E+00 -0.50000000000E+03  0.50000000000E+03  0.00000000000E+00 0.  1.
         23    2    1    2    0    0  0.54997948682E+02 -0.36946752664E+01 -0.81984259316E+02  0.15632581079E+03  0.12115244677E+03 0.  0.
        -11    1    1    2    0    0  0.33310802237E+03 -0.16098029790E+03  0.17909705994E+03  0.41103694209E+03  0.00000000000E+00 0. -1.
         11    1    1    2    0    0 -0.38810597105E+03  0.16467497317E+03 -0.97112800626E+02  0.43263724712E+03  0.00000000000E+00 0.  1.
        -15    1    3    3    0    0  0.93028218794E+02 -0.18406405648E+01 -0.45613640971E+02  0.10364072279E+03  0.17770000000E+01 0. -1.
         15    1    3    3    0    0 -0.38030270111E+02 -0.18540347016E+01 -0.36370618345E+02  0.52685087997E+02  0.17770000000E+01 0.  1.
</event>
<event>
 7    1  0.3234965E-006  0.4069398E+03  0.7546771E-02  0.9636115E-01
        -11   -1    0    0    0    0  0.00000000000E+00  0.00000000000E+00  0.50000000000E+03  0.50000000000E+03  0.00000000000E+00 0.  1.
         11   -1    0    0    0    0 -0.00000000000E+00 -0.00000000000E+00 -0.50000000000E+03  0.50000000000E+03  0.00000000000E+00 0. -1.
         23    2    1    2    0    0 -0.11226706887E+03 -0.84634811856E+02 -0.43481524225E+02  0.17292223231E+03  0.90799280533E+02 0.  0.
        -11    1    1    2    0    0  0.12407688127E+02 -0.12523695265E+03  0.39001706668E+03  0.40981893238E+03  0.00000000000E+00 0.  1.
         11    1    1    2    0    0  0.99859380747E+02  0.20987176451E+03 -0.34653554246E+03  0.41725883531E+03  0.00000000000E+00 0. -1.
        -15    1    3    3    0    0 -0.13548439054E+02 -0.99106101253E+01 -0.46076979989E+02  0.49071643622E+02  0.17770000000E+01 0.  1.
         15    1    3    3    0    0 -0.98718629820E+02 -0.74724201731E+02  0.25954557639E+01  0.12385058868E+03  0.17770000000E+01 0. -1.
</event>
<event>
 7    1  0.3234965E-006  0.5064615E+03  0.7546771E-02  0.9385467E-01
        -11   -1    0    0    0    0  0.00000000000E+00  0.00000000000E+00  0.50000000000E+03  0.50000000000E+03  0.00000000000E+00 0. -1.
         11   -1    0    0    0    0 -0.00000000000E+00 -0.00000000000E+00 -0.50000000000E+03  0.50000000000E+03  0.00000000000E+00 0.  1.
         23    2    1    2    0    0  0.16183421631E+03 -0.22128588067E+02  0.35140156344E+03  0.39810568274E+03  0.91241919453E+02 0.  0.
        -11    1    1    2    0    0  0.34856325274E+02 -0.29326871314E+02  0.98315531704E+02  0.10835576850E+03  0.00000000000E+00 0. -1.
         11    1    1    2    0    0 -0.19669054158E+03  0.51455459381E+02 -0.44971709514E+03  0.49353854876E+03  0.00000000000E+00 0.  1.
        -15    1    3    3    0    0  0.10669075707E+03  0.24244871531E+02  0.25708575533E+03  0.27940467921E+03  0.17770000000E+01 0. -1.
         15    1    3    3    0    0  0.55143459236E+02 -0.46373459598E+02  0.94315808103E+02  0.11870100353E+03  0.17770000000E+01 0.  1.
</event>
<event>
 7    1  0.3234965E-006  0.5273530E+03  0.7546771E-02  0.9340603E-01
        -11   -1    0    0    0    0  0.00000000000E+00  0.00000000000E+00  0.50000000000E+03  0.50000000000E+03  0.00000000000E+00 0. -1.
         11   -1    0    0    0    0 -0.00000000000E+00 -0.00000000000E+00 -0.50000000000E+03  0.50000000000E+03  0.00000000000E+00 0. -1.
         23    2    1    2    0    0  0.37597750059E+02 -0.25540452901E+03 -0.38776287057E+03  0.47264698882E+03  0.79937900880E+02 0.  0.
        -11    1    1    2    0    0 -0.34239167173E+02 -0.64448374144E+01  0.20517527239E+03  0.20811234682E+03  0.00000000000E+00 0. -1.
         11    1    1    2    0    0 -0.33585828860E+01  0.26184936642E+03  0.18258759817E+03  0.31924066436E+03  0.00000000000E+00 0. -1.
        -15    1    3    3    0    0  0.20744427202E+02 -0.23709330544E+03 -0.37615654344E+03  0.44512972226E+03  0.17770000000E+01 0. -1.
         15    1    3    3    0    0  0.16853322857E+02 -0.18311223569E+02 -0.11606327132E+02  0.27517266551E+02  0.17770000000E+01 0.  1.
</event>
<event>
 7    1  0.3234965E-006  0.4734312E+03  0.7546771E-02  0.9461304E-01
        -11   -1    0    0    0    0  0.00000000000E+00  0.00000000000E+00  0.50000000000E+03  0.50000000000E+03  0.00000000000E+00 0.  1.
         11   -1    0    0    0    0 -0.00000000000E+00 -0.00000000000E+00 -0.50000000000E+03  0.50000000000E+03  0.00000000000E+00 0. -1.
         23    2    1    2    0    0 -0.27091540895E+03  0.30623341257E+03  0.17857824256E+03  0.45528735385E+03  0.90677031732E+02 0.  0.
        -11    1    1    2    0    0 -0.69780525162E+00  0.18922522471E+02  0.56919604429E+02  0.59986583143E+02  0.00000000000E+00 0. -1.
         11    1    1    2    0    0  0.27161321420E+03 -0.32515593504E+03 -0.23549784699E+03  0.48472606300E+03  0.00000000000E+00 0.  1.
        -15    1    3    3    0    0 -0.73588596930E+00  0.36335321434E+02  0.22130326713E+02  0.42587629675E+02  0.17770000000E+01 0.  1.
         15    1    3    3    0    0 -0.27017952298E+03  0.26989809113E+03  0.15644791585E+03  0.41269972418E+03  0.17770000000E+01 0. -1.
</event>
<event>
 7    1  0.3234965E-006  0.4944492E+03  0.7546771E-02  0.9412316E-01
        -11   -1    0    0    0    0  0.00000000000E+00  0.00000000000E+00  0.50000000000E+03  0.50000000000E+03  0.00000000000E+00 0.  1.
         11   -1    0    0    0    0 -0.00000000000E+00 -0.00000000000E+00 -0.50000000000E+03  0.50000000000E+03  0.00000000000E+00 0. -1.
         23    2    1    2    0    0  0.96699284122E+02 -0.59766821247E+02  0.46655838895E+03  0.48823382535E+03  0.88162993660E+02 0.  0.
        -11    1    1    2    0    0 -0.97810184607E+01  0.44584885656E+01  0.15477383884E+02  0.18843987219E+02  0.00000000000E+00 0.  1.
         11    1    1    2    0    0 -0.86918265661E+02  0.55308332682E+02 -0.48203577283E+03  0.49292218743E+03  0.00000000000E+00 0. -1.
        -15    1    3    3    0    0 -0.16542471941E+02 -0.69252133033E+01  0.78724665897E+02  0.80761022200E+02  0.17770000000E+01 0. -1.
         15    1    3    3    0    0  0.11324175606E+03 -0.52841607944E+02  0.38783372305E+03  0.40747280315E+03  0.17770000000E+01 0.  1.
</event>
<event>
 7    1  0.3234965E-006  0.3698948E+03  0.7546771E-02  0.9749789E-01
        -11   -1    0    0    0    0  0.00000000000E+00  0.00000000000E+00  0.50000000000E+03  0.50000000000E+03  0.00000000000E+00 0. -1.
         11   -1    0    0    0    0 -0.00000000000E+00 -0.00000000000E+00 -0.50000000000E+03  0.50000000000E+03  0.00000000000E+00 0.  1.
         23    2    1    2    0    0  0.26021939742E+02  0.34666638855E+03 -0.58797958042E+02  0.36377231473E+03  0.89545356080E+02 0.  0.
        -11    1    1    2    0    0  0.88324363961E+02  0.44727214676E+01  0.21711379366E+03  0.23443463461E+03  0.00000000000E+00 0. -1.
         11    1    1    2    0    0 -0.11434630370E+03 -0.35113911002E+03 -0.15831583562E+03  0.40179305066E+03  0.00000000000E+00 0.  1.
        -15    1    3    3    0    0 -0.20420801922E+02  0.18297860831E+03 -0.11901329617E+01  0.18412700616E+03  0.17770000000E+01 0.  1.
         15    1    3    3    0    0  0.46442741664E+02  0.16368778024E+03 -0.57607825080E+02  0.17964530857E+03  0.17770000000E+01 0. -1.
</event>
<event>
 7    1  0.3234965E-006  0.5143506E+03  0.7546771E-02  0.9368259E-01
        -11   -1    0    0    0    0  0.00000000000E+00  0.00000000000E+00  0.50000000000E+03  0.50000000000E+03  0.00000000000E+00 0. -1.
         11   -1    0    0    0    0 -0.00000000000E+00 -0.00000000000E+00 -0.50000000000E+03  0.50000000000E+03  0.00000000000E+00 0.  1.
         23    2    1    2    0    0 -0.40549340626E+02 -0.29058407775E+02 -0.30710827881E+03  0.32428643467E+03  0.91419673570E+02 0.  0.
        -11    1    1    2    0    0  0.75732908869E+02 -0.47858880564E+02  0.47731475066E+03  0.48564937674E+03  0.00000000000E+00 0. -1.
         11    1    1    2    0    0 -0.35183568243E+02  0.76917288339E+02 -0.17020647185E+03  0.19006418858E+03  0.00000000000E+00 0.  1.
        -15    1    3    3    0    0  0.54124388002E+01  0.15248977517E+02 -0.74573370319E+01  0.17905178404E+02  0.17770000000E+01 0. -1.
         15    1    3    3    0    0 -0.45961779426E+02 -0.44307385292E+02 -0.29965094177E+03  0.30638125627E+03  0.17770000000E+01 0.  1.
</event>
<event>
 7    1  0.3234965E-006  0.4219688E+03  0.7546771E-02  0.9593628E-01
        -11   -1    0    0    0    0  0.00000000000E+00  0.00000000000E+00  0.50000000000E+03  0.50000000000E+03  0.00000000000E+00 0. -1.
         11   -1    0    0    0    0 -0.00000000000E+00 -0.00000000000E+00 -0.50000000000E+03  0.50000000000E+03  0.00000000000E+00 0. -1.
         23    2    1    2    0    0 -0.11907968929E+02 -0.95541360418E+02 -0.34317556611E+02  0.14989510804E+03  0.10963985338E+03 0.  0.
        -11    1    1    2    0    0  0.89526309480E+02  0.53609695369E+02  0.43114299523E+03  0.44359130048E+03  0.00000000000E+00 0. -1.
         11    1    1    2    0    0 -0.77618340551E+02  0.41931665050E+02 -0.39682543862E+03  0.40651359148E+03  0.00000000000E+00 0. -1.
        -15    1    3    3    0    0  0.34039720858E+02 -0.28658385135E+02  0.23394881262E+02  0.50303914688E+02  0.17770000000E+01 0.  1.
         15    1    3    3    0    0 -0.45947689787E+02 -0.66882975283E+02 -0.57712437873E+02  0.99591193354E+02  0.17770000000E+01 0. -1.
</event>
<event>
 7    1  0.3234965E-006  0.4548526E+03  0.7546771E-02  0.9506914E-01
        -11   -1    0    0    0    0  0.00000000000E+00  0.00000000000E+00  0.50000000000E+03  0.50000000000E+03  0.00000000000E+00 0. -1.
         11   -1    0    0    0    0 -0.00000000000E+00 -0.00000000000E+00 -0.50000000000E+03  0.50000000000E+03  0.00000000000E+00 0. -1.
         23    2    1    2    0    0  0.37807181851E+03  0.24738280735E+03 -0.11652128766E+03  0.47516315295E+03  0.89812349500E+02 0.  0.
        -11    1    1    2    0    0 -0.61604523267E+01 -0.32368944822E+02  0.88382252491E+02  0.94324558399E+02  0.00000000000E+00 0. -1.
         11    1    1    2    0    0 -0.37191136618E+03 -0.21501386253E+03  0.28139035167E+02  0.43051228865E+03  0.00000000000E+00 0. -1.
        -15    1    3    3    0    0  0.36247647769E+03  0.20883455119E+03 -0.98306656926E+02  0.42973064026E+03  0.17770000000E+01 0. -1.
         15    1    3    3    0    0  0.15595340819E+02  0.38548256158E+02 -0.18214630733E+02  0.45432512696E+02  0.17770000000E+01 0.  1.
</event>
<event>
 7    1  0.3234965E-006  0.5218629E+03  0.7546771E-02  0.9352176E-01
        -11   -1    0    0    0    0  0.00000000000E+00  0.00000000000E+00  0.50000000000E+03  0.50000000000E+03  0.00000000000E+00 0. -1.
         11   -1    0    0    0    0 -0.00000000000E+00 -0.00000000000E+00 -0.50000000000E+03  0.50000000000E+03  0.00000000000E+00 0.  1.
         23    2    1    2    0    0 -0.67916689978E+01 -0.30501795110E+02 -0.39282359073E+03  0.40470607349E+03  0.92196237501E+02 0.  0.
        -11    1    1    2    0    0  0.79009828801E+02 -0.18129385250E+02  0.47121531949E+03  0.47813711943E+03  0.00000000000E+00 0. -1.
         11    1    1    2    0    0 -0.72218159804E+02  0.48631180360E+02 -0.78391728754E+02  0.11715680708E+03  0.00000000000E+00 0.  1.
        -15    1    3    3    0    0 -0.44943468653E+02  0.46861702659E+01 -0.19564479304E+03  0.20080318309E+03  0.17770000000E+01 0.  1.
         15    1    3    3    0    0  0.38151799656E+02 -0.35187965376E+02 -0.19717879769E+03  0.20390289040E+03  0.17770000000E+01 0. -1.
</event>
<event>
 7    1  0.3234965E-006  0.5160622E+03  0.7546771E-02  0.9364570E-01
        -11   -1    0    0    0    0  0.00000000000E+00  0.00000000000E+00  0.50000000000E+03  0.50000000000E+03  0.00000000000E+00 0. -1.
         11   -1    0    0    0    0 -0.00000000000E+00 -0.00000000000E+00 -0.50000000000E+03  0.50000000000E+03  0.00000000000E+00 0. -1.
         23    2    1    2    0    0 -0.23567776465E+03  0.22880665471E+03 -0.34412478230E+03  0.48393784391E+03  0.88755151836E+02 0.  0.
        -11    1    1    2    0    0  0.30821836221E+02  0.29108065805E+02  0.91905745854E+02  0.10121230757E+03  0.00000000000E+00 0. -1.
         11    1    1    2    0    0  0.20485592843E+03 -0.25791472052E+03  0.25221903645E+03  0.41484984852E+03  0.00000000000E+00 0. -1.
        -15    1    3    3    0    0 -0.21157282941E+03  0.21377559444E+03 -0.26869028462E+03  0.40331215417E+03  0.17770000000E+01 0.  1.
         15    1    3    3    0    0 -0.24104935247E+02  0.15031060272E+02 -0.75434497683E+02  0.80625689739E+02  0.17770000000E+01 0. -1.
</event>
<event>
 7    1  0.3234965E-006  0.3960547E+03  0.7546771E-02  0.9668130E-01
        -11   -1    0    0    0    0  0.00000000000E+00  0.00000000000E+00  0.50000000000E+03  0.50000000000E+03  0.00000000000E+00 0.  1.
         11   -1    0    0    0    0 -0.00000000000E+00 -0.00000000000E+00 -0.50000000000E+03  0.50000000000E+03  0.00000000000E+00 0.  1.
         23    2    1    2    0    0  0.30534493104E+03  0.11100828374E+03 -0.21690573976E+03  0.40128899121E+03  0.91795362348E+02 0.  0.
        -11    1    1    2    0    0  0.91940950192E+02 -0.68717323931E+02  0.15734846622E+03  0.19476588190E+03  0.00000000000E+00 0.  1.
         11    1    1    2    0    0 -0.39728588124E+03 -0.42290959805E+02  0.59557273544E+02  0.40394512690E+03  0.00000000000E+00 0.  1.
        -15    1    3    3    0    0  0.15519738578E+03  0.51349861185E+02 -0.54825708711E+02  0.17242984910E+03  0.17770000000E+01 0.  1.
         15    1    3    3    0    0  0.15014754527E+03  0.59658422552E+02 -0.16208003105E+03  0.22885914211E+03  0.17770000000E+01 0. -1.
</event>
<event>
 7    1  0.3234965E-006  0.4289092E+03  0.7546771E-02  0.9574640E-01
        -11   -1    0    0    0    0  0.00000000000E+00  0.00000000000E+00  0.50000000000E+03  0.50000000000E+03  0.00000000000E+00 0.  1.
         11   -1    0    0    0    0 -0.00000000000E+00 -0.00000000000E+00 -0.50000000000E+03  0.50000000000E+03  0.00000000000E+00 0. -1.
         23    2    1    2    0    0  0.81798479569E+02 -0.37681562464E+02 -0.48208199902E+02  0.13612078483E+03  0.89966361029E+02 0.  0.
        -11    1    1    2    0    0 -0.22605841534E+03 -0.29439624232E+03  0.25178030400E+03  0.44851407572E+03  0.00000000000E+00 0.  1.
         11    1    1    2    0    0  0.14425993577E+03  0.33207780479E+03 -0.20357210409E+03  0.41536513944E+03  0.00000000000E+00 0. -1.
        -15    1    3    3    0    0  0.66927804485E+02 -0.40062803011E+02 -0.73137067287E+02  0.10694179510E+03  0.17770000000E+01 0. -1.
         15    1    3    3    0    0  0.14870675084E+02  0.23812405472E+01  0.24928867385E+02  0.29178989738E+02  0.17770000000E+01 0.  1.
</event>
<event>
 7    1  0.3234965E-006  0.3677371E+03  0.7546771E-02  0.9756845E-01
        -11   -1    0    0    0    0  0.00000000000E+00  0.00000000000E+00  0.50000000000E+03  0.50000000000E+03  0.00000000000E+00 0. -1.
         11   -1    0    0    0    0 -0.00000000000E+00 -0.00000000000E+00 -0.50000000000E+03  0.50000000000E+03  0.00000000000E+00 0.  1.
         23    2    1    2    0    0 -0.20614229209E+03  0.35985898253E+02 -0.57600139196E+02  0.23316911751E+03  0.85208167807E+02 0.  0.
        -11    1    1    2    0    0  0.13672913538E+02  0.65218971717E+02  0.37566866884E+03  0.38153297575E+03  0.00000000000E+00 0. -1.
         11    1    1    2    0    0  0.19246937856E+03 -0.10120486997E+03 -0.31806852965E+03  0.38529790674E+03  0.00000000000E+00 0.  1.
        -15    1    3    3    0    0  0.40622395259E+00 -0.12337873744E+02 -0.94291065139E+01  0.15635022388E+02  0.17770000000E+01 0.  1.
         15    1    3    3    0    0 -0.20654851605E+03  0.48323771996E+02 -0.48171032682E+02  0.21753409512E+03  0.17770000000E+01 0. -1.
</event>
<event>
 7    1  0.3234965E-006  0.3619740E+03  0.7546771E-02  0.9775950E-01
        -11   -1    0    0    0    0  0.00000000000E+00  0.00000000000E+00  0.50000000000E+03  0.50000000000E+03  0.00000000000E+00 0.  1.
         11   -1    0    0    0    0 -0.00000000000E+00 -0.00000000000E+00 -0.50000000000E+03  0.50000000000E+03  0.00000000000E+00 0.  1.
         23    2    1    2    0    0  0.57871573401E+02 -0.25825531302E+03 -0.26914827241E+03  0.38857031376E+03  0.92201792211E+02 0.  0.
        -11    1    1    2    0    0  0.74896644101E+02 -0.78277258284E+02  0.22144149447E+03  0.24652215303E+03  0.00000000000E+00 0.  1.
         11    1    1    2    0    0 -0.13276821750E+03  0.33653257130E+03  0.47706777937E+02  0.36490753320E+03  0.00000000000E+00 0.  1.
        -15    1    3    3    0    0  0.71696533719E+02 -0.24982247847E+03 -0.23358032957E+03  0.34944898309E+03  0.17770000000E+01 0.  1.
         15    1    3    3    0    0 -0.13824960319E+02 -0.84328345507E+01 -0.35567942842E+02  0.39121330670E+02  0.17770000000E+01 0. -1.
</event>
<event>
 7    1  0.3234965E-006  0.4167612E+03  0.7546771E-02  0.9608133E-01
        -11   -1    0    0    0    0  0.00000000000E+00  0.00000000000E+00  0.50000000000E+03  0.50000000000E+03  0.00000000000E+00 0.  1.
         11   -1    0    0    0    0 -0.00000000000E+00 -0.00000000000E+00 -0.50000000000E+03  0.50000000000E+03  0.00000000000E+00 0. -1.
         23    2    1    2    0    0 -0.95739891927E+01  0.59413376320E+02 -0.43649597853E+03  0.44985883961E+03  0.90678695105E+02 0.  0.
        -11    1    1    2    0    0 -0.46640956713E+02  0.79594025599E+02  0.37815845201E+03  0.38924851006E+03  0.00000000000E+00 0.  1.
         11    1    1    2    0    0  0.56214945905E+02 -0.13900740192E+03  0.58337526521E+02  0.16089265034E+03  0.00000000000E+00 0. -1.
        -15    1    3    3    0    0  0.18632850442E+02 -0.14942749252E+02 -0.52425904999E+02  0.57637679644E+02  0.17770000000E+01 0.  1.
         15    1    3    3    0    0 -0.28206839635E+02  0.74356125572E+02 -0.38407007353E+03  0.39222115996E+03  0.17770000000E+01 0. -1.
</event>
<event>
 7    1  0.3234965E-006  0.5336161E+03  0.7546771E-02  0.9327581E-01
        -11   -1    0    0    0    0  0.00000000000E+00  0.00000000000E+00  0.50000000000E+03  0.50000000000E+03  0.00000000000E+00 0. -1.
         11   -1    0    0    0    0 -0.00000000000E+00 -0.00000000000E+00 -0.50000000000E+03  0.50000000000E+03  0.00000000000E+00 0.  1.
         23    2    1    2    0    0  0.83170809648E+02 -0.68502531564E+02 -0.30552657275E+03  0.33595529099E+03  0.88935316259E+02 0.  0.
        -11    1    1    2    0    0  0.42612611287E+02  0.79253640219E+02  0.45762102946E+03  0.46638394133E+03  0.00000000000E+00 0. -1.
         11    1    1    2    0    0 -0.12578342093E+03 -0.10751108654E+02 -0.15209445671E+03  0.19766076768E+03  0.00000000000E+00 0.  1.
        -15    1    3    3    0    0  0.48267516343E+02 -0.76498045778E+02 -0.27280966671E+03  0.28741951242E+03  0.17770000000E+01 0.  1.
         15    1    3    3    0    0  0.34903293305E+02  0.79955142133E+01 -0.32716906038E+02  0.48535778564E+02  0.17770000000E+01 0. -1.
</event>
<event>
 7    1  0.3234965E-006  0.5075360E+03  0.7546771E-02  0.9383103E-01
        -11   -1    0    0    0    0  0.00000000000E+00  0.00000000000E+00  0.50000000000E+03  0.50000000000E+03  0.00000000000E+00 0. -1.
         11   -1    0    0    0    0 -0.00000000000E+00 -0.00000000000E+00 -0.50000000000E+03  0.50000000000E+03  0.00000000000E+00 0.  1.
         23    2    1    2    0    0  0.56956292326E+02 -0.32092194230E+02  0.27053676195E+03  0.29246379578E+03  0.89838767292E+02 0.  0.
        -11    1    1    2    0    0  0.29451486864E+02 -0.47076867113E+02  0.20777979045E+03  0.21507222698E+03  0.00000000000E+00 0. -1.
         11    1    1    2    0    0 -0.86407779190E+02  0.79169061343E+02 -0.47831655241E+03  0.49246397724E+03  0.00000000000E+00 0.  1.
        -15    1    3    3    0    0  0.18348748391E+02 -0.54113518680E+02  0.90743079558E+02  0.10724930624E+03  0.17770000000E+01 0.  1.
         15    1    3    3    0    0  0.38607543935E+02  0.22021324450E+02  0.17979368239E+03  0.18521448954E+03  0.17770000000E+01 0. -1.
</event>
<event>
 7    1  0.3234965E-006  0.5293646E+03  0.7546771E-02  0.9336400E-01
        -11   -1    0    0    0    0  0.00000000000E+00  0.00000000000E+00  0.50000000000E+03  0.50000000000E+03  0.00000000000E+00 0. -1.
         11   -1    0    0    0    0 -0.00000000000E+00 -0.00000000000E+00 -0.50000000000E+03  0.50000000000E+03  0.00000000000E+00 0.  1.
         23    2    1    2    0    0 -0.13655148966E+03 -0.20375615958E+03  0.31968451399E+02  0.26477603233E+03  0.94453605111E+02 0.  0.
        -11    1    1    2    0    0  0.38297619969E+03  0.27103182227E+03  0.36995098678E+02  0.47063537429E+03  0.00000000000E+00 0.  1.
         11    1    1    2    0    0 -0.24642471003E+03 -0.67275662692E+02 -0.68963550077E+02  0.26458859337E+03  0.00000000000E+00 0. -1.
        -15    1    3    3    0    0 -0.10033260425E+03 -0.15595384469E+03 -0.18504049883E+02  0.18637003713E+03  0.17770000000E+01 0.  1.
         15    1    3    3    0    0 -0.36218885407E+02 -0.47802314892E+02  0.50472501281E+02  0.78405995203E+02  0.17770000000E+01 0. -1.
</event>
<event>
 7    1  0.3234965E-006  0.4055829E+03  0.7546771E-02  0.9640047E-01
        -11   -1    0    0    0    0  0.00000000000E+00  0.00000000000E+00  0.50000000000E+03  0.50000000000E+03  0.00000000000E+00 0. -1.
         11   -1    0    0    0    0 -0.00000000000E+00 -0.00000000000E+00 -0.50000000000E+03  0.50000000000E+03  0.00000000000E+00 0.  1.
         23    2    1    2    0    0  0.12909760761E+03 -0.46798095626E+02 -0.45280407837E+02  0.17604824284E+03  0.10043114271E+03 0.  0.
        -11    1    1    2    0    0  0.55711016088E+02  0.60110024170E+02  0.40826570777E+03  0.41641063923E+03  0.00000000000E+00 0. -1.
         11    1    1    2    0    0 -0.18480862370E+03 -0.13311928545E+02 -0.36298529994E+03  0.40754111793E+03  0.00000000000E+00 0.  1.
        -15    1    3    3    0    0  0.13843954622E+03 -0.30143606518E+02 -0.18191011253E+02  0.14285732600E+03  0.17770000000E+01 0. -1.
         15    1    3    3    0    0 -0.93419386072E+01 -0.16654489107E+02 -0.27089396584E+02  0.33190916839E+02  0.17770000000E+01 0.  1.
</event>
<event>
 7    1  0.3234965E-006  0.4178571E+03  0.7546771E-02  0.9605062E-01
        -11   -1    0    0    0    0  0.00000000000E+00  0.00000000000E+00  0.50000000000E+03  0.50000000000E+03  0.00000000000E+00 0. -1.
         11   -1    0    0    0    0 -0.00000000000E+00 -0.00000000000E+00 -0.50000000000E+03  0.50000000000E+03  0.00000000000E+00 0.  1.
         23    2    1    2    0    0  0.15304650471E+03 -0.19568203492E+03 -0.38412623231E+03  0.46648704368E+03  0.91337331787E+02 0.  0.
        -11    1    1    2    0    0 -0.57753173764E+02  0.69903855216E+02  0.36318012989E+03  0.37432844508E+03  0.00000000000E+00 0. -1.
         11    1    1    2    0    0 -0.95293330942E+02  0.12577817970E+03  0.20946102426E+02  0.15918451124E+03  0.00000000000E+00 0.  1.
        -15    1    3    3    0    0  0.10308285850E+03 -0.82516820318E+02 -0.13792273609E+03  0.19094748024E+03  0.17770000000E+01 0.  1.
         15    1    3    3    0    0  0.49963646208E+02 -0.11316521460E+03 -0.24620349622E+03  0.27553956344E+03  0.17770000000E+01 0. -1.
</event>
<event>
 7    1  0.3234965E-006  0.3433535E+03  0.7546771E-02  0.9840381E-01
        -11   -1    0    0    0    0  0.00000000000E+00  0.00000000000E+00  0.50000000000E+03  0.50000000000E+03  0.00000000000E+00 0.  1.
         11   -1    0    0    0    0 -0.00000000000E+00 -0.00000000000E+00 -0.50000000000E+03  0.50000000000E+03  0.00000000000E+00 0. -1.
         23    2    1    2    0    0 -0.14971776688E+02  0.86767258150E+02 -0.23659231334E+03  0.26836124837E+03  0.91044635815E+02 0.  0.
        -11    1    1    2    0    0  0.13208552343E+03  0.19124636970E+03  0.34076634721E+03  0.41248450009E+03  0.00000000000E+00 0.  1.
         11    1    1    2    0    0 -0.11711374674E+03 -0.27801362785E+03 -0.10417403387E+03  0.31915425154E+03  0.00000000000E+00 0. -1.
        -15    1    3    3    0    0  0.10014852700E+02  0.93852737216E+02 -0.14405040067E+03  0.17222749264E+03  0.17770000000E+01 0. -1.
         15    1    3    3    0    0 -0.24986629389E+02 -0.70854790663E+01 -0.92541912667E+02  0.96133755730E+02  0.17770000000E+01 0.  1.
</event>
<event>
 7    1  0.3234965E-006  0.5173906E+03  0.7546771E-02  0.9361716E-01
        -11   -1    0    0    0    0  0.00000000000E+00  0.00000000000E+00  0.50000000000E+03  0.50000000000E+03  0.00000000000E+00 0.  1.
         11   -1    0    0    0    0 -0.00000000000E+00 -0.00000000000E+00 -0.50000000000E+03  0.50000000000E+03  0.00000000000E+00 0. -1.
         23    2    1    2    0    0 -0.39659001008E+01 -0.23275310685E+01 -0.32302405776E+03  0.33582678025E+03  0.91727524102E+02 0.  0.
        -11    1    1    2    0    0  0.10381498070E+03 -0.34950718291E+02  0.47001355055E+03  0.48260940793E+03  0.00000000000E+00 0.  1.
         11    1    1    2    0    0 -0.99849080598E+02  0.37278249359E+02 -0.14698949279E+03  0.18156381182E+03  0.00000000000E+00 0. -1.
        -15    1    3    3    0    0  0.11076914007E+02 -0.40361011651E+02 -0.23555907609E+03  0.23925497976E+03  0.17770000000E+01 0.  1.
         15    1    3    3    0    0 -0.15042814108E+02  0.38033480583E+02 -0.87464981670E+02  0.96571800486E+02  0.17770000000E+01 0. -1.
</event>
<event>
 7    1  0.3234965E-006  0.3793383E+03  0.7546771E-02  0.9719500E-01
        -11   -1    0    0    0    0  0.00000000000E+00  0.00000000000E+00  0.50000000000E+03  0.50000000000E+03  0.00000000000E+00 0. -1.
         11   -1    0    0    0    0 -0.00000000000E+00 -0.00000000000E+00 -0.50000000000E+03  0.50000000000E+03  0.00000000000E+00 0. -1.
         23    2    1    2    0    0 -0.14776445055E+02  0.94636132587E+02 -0.30154137823E+03  0.32883667461E+03  0.89621508945E+02 0.  0.
        -11    1    1    2    0    0  0.38113624167E+02  0.72278467602E+02  0.44340253880E+03  0.45086875767E+03  0.00000000000E+00 0. -1.
         11    1    1    2    0    0 -0.23337179112E+02 -0.16691460019E+03 -0.14186116057E+03  0.22029456771E+03  0.00000000000E+00 0. -1.
        -15    1    3    3    0    0 -0.41392428515E+02  0.10262234399E+02 -0.97880700153E+02  0.10678218852E+03  0.17770000000E+01 0.  1.
         15    1    3    3    0    0  0.26615983459E+02  0.84373898188E+02 -0.20366067808E+03  0.22205448610E+03  0.17770000000E+01 0. -1.
</event>
<event>
 7    1  0.3234965E-006  0.4565008E+03  0.7546771E-02  0.9502775E-01
        -11   -1    0    0    0    0  0.00000000000E+00  0.00000000000E+00  0.50000000000E+03  0.50000000000E+03  0.00000000000E+00 0. -1.
         11   -1    0    0    0    0 -0.00000000000E+00 -0.00000000000E+00 -0.50000000000E+03  0.50000000000E+03  0.00000000000E+00 0.  1.
         23    2    1    2    0    0  0.10914799152E+03  0.36031050911E+02  0.38955379907E+03  0.41716747054E+03  0.95210374581E+02 0.  0.
        -11    1    1    2    0    0 -0.11409536555E+02 -0.13688250063E+02  0.90593412912E+02  0.92329367902E+02  0.00000000000E+00 0. -1.
         11    1    1    2    0    0 -0.97738454963E+02 -0.22342800848E+02 -0.48014721198E+03  0.49050316156E+03  0.00000000000E+00 0.  1.
        -15    1    3    3    0    0  0.43555969101E+02 -0.28977751395E+02  0.94944047159E+02  0.10841753705E+03  0.17770000000E+01 0.  1.
         15    1    3    3    0    0  0.65592022417E+02  0.65008802306E+02  0.29460975191E+03  0.30874993349E+03  0.17770000000E+01 0. -1.
</event>
<event>
 7    1  0.3234965E-006  0.3484828E+03  0.7546771E-02  0.9822203E-01
        -11   -1    0    0    0    0  0.00000000000E+00  0.00000000000E+00  0.50000000000E+03  0.50000000000E+03  0.00000000000E+00 0.  1.
         11   -1    0    0    0    0 -0.00000000000E+00 -0.00000000000E+00 -0.50000000000E+03  0.50000000000E+03  0.00000000000E+00 0. -1.
         23    2    1    2    0    0 -0.86114070465E+02  0.30193776554E+02 -0.22613651051E+03  0.26160575200E+03  0.94723549428E+02 0.  0.
        -11    1    1    2    0    0 -0.73529250974E+02  0.77608085470E+02  0.43869552166E+03  0.45153441331E+03  0.00000000000E+00 0.  1.
         11    1    1    2    0    0  0.15964332144E+03 -0.10780186202E+03 -0.21255901115E+03  0.28685983469E+03  0.00000000000E+00 0. -1.
        -15    1    3    3    0    0 -0.10024558861E+03  0.17103932284E+02 -0.21811599811E+03  0.24066463989E+03  0.17770000000E+01 0. -1.
         15    1    3    3    0    0  0.14131518141E+02  0.13089844269E+02 -0.80205124063E+01  0.20941112106E+02  0.17770000000E+01 0.  1.
</event>
<event>
 6    1  0.3234965E-006  0.5258663E+03  0.7546771E-02  0.9343722E-01
        -11   -1    0    0    0    0  0.00000000000E+00  0.00000000000E+00  0.50000000000E+03  0.50000000000E+03  0.00000000000E+00 0. -1.
         11   -1    0    0    0    0 -0.00000000000E+00 -0.00000000000E+00 -0.50000000000E+03  0.50000000000E+03  0.00000000000E+00 0. -1.
        -11    1    1    2    0    0 -0.10628615140E+03 -0.68128524525E+02  0.45701697819E+03  0.47413369442E+03  0.00000000000E+00 0. -1.
         11    1    1    2    0    0  0.34883837879E+02 -0.42914034343E+02 -0.18240972365E+03  0.19060903381E+03  0.00000000000E+00 0. -1.
        -15    1    1    2    0    0  0.77219794742E+01  0.52827939274E+02 -0.67525280171E+01  0.53843982937E+02  0.17770000000E+01 0.  1.
         15    1    1    2    0    0  0.63680334045E+02  0.58214619594E+02 -0.26785472652E+03  0.28141328883E+03  0.17770000000E+01 0. -1.
</event>
<event>
 7    1  0.3234965E-006  0.5353781E+03  0.7546771E-02  0.9323952E-01
        -11   -1    0    0    0    0  0.00000000000E+00  0.00000000000E+00  0.50000000000E+03  0.50000000000E+03  0.00000000000E+00 0.  1.
         11   -1    0    0    0    0 -0.00000000000E+00 -0.00000000000E+00 -0.50000000000E+03  0.50000000000E+03  0.00000000000E+00 0. -1.
         23    2    1    2    0    0 -0.17922558514E+02 -0.33518812226E+02 -0.15249217332E+03  0.18151073337E+03  0.90816047751E+02 0.  0.
        -11    1    1    2    0    0  0.27827416164E+03 -0.80622229552E+02  0.36323136125E+03  0.46462186209E+03  0.00000000000E+00 0.  1.
         11    1    1    2    0    0 -0.26035160313E+03  0.11414104178E+03 -0.21073918792E+03  0.35386740454E+03  0.00000000000E+00 0. -1.
        -15    1    3    3    0    0 -0.39438504233E+02 -0.44318654988E+02 -0.14428225008E+03  0.15601302578E+03  0.17770000000E+01 0. -1.
         15    1    3    3    0    0  0.21515945719E+02  0.10799842762E+02 -0.82099232392E+01  0.25497707592E+02  0.17770000000E+01 0.  1.
</event>
<event>
 7    1  0.3234965E-006  0.3845594E+03  0.7546771E-02  0.9703156E-01
        -11   -1    0    0    0    0  0.00000000000E+00  0.00000000000E+00  0.50000000000E+03  0.50000000000E+03  0.00000000000E+00 0. -1.
         11   -1    0    0    0    0 -0.00000000000E+00 -0.00000000000E+00 -0.50000000000E+03  0.50000000000E+03  0.00000000000E+00 0.  1.
         23    2    1    2    0    0 -0.73506147373E+02  0.60667662851E+02 -0.16131875210E+03  0.20838705451E+03  0.91201456631E+02 0.  0.
        -11    1    1    2    0    0 -0.12928061997E+03  0.28469628960E+01  0.43001820750E+03  0.44904035752E+03  0.00000000000E+00 0. -1.
         11    1    1    2    0    0  0.20278676734E+03 -0.63514625747E+02 -0.26869945540E+03  0.34257258797E+03  0.00000000000E+00 0.  1.
        -15    1    3    3    0    0 -0.26324959996E+01  0.41429698641E+02 -0.11316284545E+03  0.12055014427E+03  0.17770000000E+01 0.  1.
         15    1    3    3    0    0 -0.70873651374E+02  0.19237964209E+02 -0.48155906647E+02  0.87836910237E+02  0.17770000000E+01 0. -1.
</event>
<event>
 7    1  0.3234965E-006  0.3649381E+03  0.7546771E-02  0.9766077E-01
        -11   -1    0    0    0    0  0.00000000000E+00  0.00000000000E+00  0.50000000000E+03  0.50000000000E+03  0.00000000000E+00 0.  1.
         11   -1    0    0    0    0 -0.00000000000E+00 -0.00000000000E+00 -0.50000000000E+03  0.50000000000E+03  0.00000000000E+00 0. -1.
         23    2    1    2    0    0 -0.20414306684E+02 -0.13904807722E+03  0.16558798249E+03  0.23849507112E+03  0.98536324805E+02 0.  0.
        -11    1    1    2    0    0  0.15585277641E+03  0.77599857069E+02  0.25874289844E+03  0.31186489579E+03  0.00000000000E+00 0.  1.
         11    1    1    2    0    0 -0.13543846972E+03  0.61448220155E+02 -0.42433088094E+03  0.44964003309E+03  0.00000000000E+00 0. -1.
        -15    1    3    3    0    0  0.29300345039E+02 -0.28893492558E+02  0.81308626327E+02  0.91146006911E+02  0.17770000000E+01 0.  1.
         15    1    3    3    0    0 -0.49714651723E+02 -0.11015458467E+03  0.84279356166E+02  0.14734906421E+03  0.17770000000E+01 0. -1.
</event>
<event>
 7    1  0.3234965E-006  0.3507695E+03  0.7546771E-02  0.9814207E-01
        -11   -1    0    0    0    0  0.00000000000E+00  0.00000000000E+00  0.50000000000E+03  0.50000000000E+03  0.00000000000E+00 0. -1.
         11   -1    0    0    0    0 -0.00000000000E+00 -0.00000000000E+00 -0.50000000000E+03  0.50000000000E+03  0.00000000000E+00 0.  1.
         23    2    1    2    0    0 -0.39448599299E+02 -0.97130170345E+02 -0.32662346617E+03  0.35553527206E+03  0.93445058999E+02 0.  0.
        -11    1    1    2    0    0  0.30371270049E+02 -0.16494089636E+03  0.34291483850E+03  0.38173092592E+03  0.00000000000E+00 0. -1.
         11    1    1    2    0    0  0.90773292501E+01  0.26207106670E+03 -0.16291372335E+02  0.26273380202E+03  0.00000000000E+00 0.  1.
        -15    1    3    3    0    0 -0.18595684033E+02 -0.11126613550E+03 -0.28879423297E+03  0.31005034929E+03  0.17770000000E+01 0.  1.
         15    1    3    3    0    0 -0.20852915267E+02  0.14135965150E+02 -0.37829233204E+02  0.45484922772E+02  0.17770000000E+01 0. -1.
</event>
<event>
 7    1  0.3234965E-006  0.5166291E+03  0.7546771E-02  0.9363351E-01
        -11   -1    0    0    0    0  0.00000000000E+00  0.00000000000E+00  0.50000000000E+03  0.50000000000E+03  0.00000000000E+00 0.  1.
         11   -1    0    0    0    0 -0.00000000000E+00 -0.00000000000E+00 -0.50000000000E+03  0.50000000000E+03  0.00000000000E+00 0. -1.
         23    2    1    2    0    0 -0.57394077757E+02 -0.19462543816E+01 -0.30840518489E+03  0.32732710887E+03  0.93442014472E+02 0.  0.
        -11    1    1    2    0    0  0.18823382173E+03  0.41411833650E+01  0.44519471642E+03  0.48337093062E+03  0.00000000000E+00 0.  1.
         11    1    1    2    0    0 -0.13083974397E+03 -0.21949289833E+01 -0.13678953153E+03  0.18930196051E+03  0.00000000000E+00 0. -1.
        -15    1    3    3    0    0 -0.67165687488E+02 -0.34140102936E+02 -0.19636665289E+03  0.21033258497E+03  0.17770000000E+01 0. -1.
         15    1    3    3    0    0  0.97716097314E+01  0.32193848554E+02 -0.11203853200E+03  0.11699452390E+03  0.17770000000E+01 0.  1.
</event>
<event>
 7    1  0.3234965E-006  0.5157082E+03  0.7546771E-02  0.9365332E-01
        -11   -1    0    0    0    0  0.00000000000E+00  0.00000000000E+00  0.50000000000E+03  0.50000000000E+03  0.00000000000E+00 0.  1.
         11   -1    0    0    0    0 -0.00000000000E+00 -0.00000000000E+00 -0.50000000000E+03  0.50000000000E+03  0.00000000000E+00 0. -1.
         23    2    1    2    0    0 -0.56159630293E+02 -0.59207036436E+02  0.10930054047E+03  0.16681767538E+03  0.96032033380E+02 0.  0.
        -11    1    1    2    0    0 -0.14768689401E+03 -0.19211178897E+03  0.25101043020E+03  0.34889051892E+03  0.00000000000E+00 0.  1.
         11    1    1    2    0    0  0.20384652431E+03  0.25131882541E+03 -0.36031097067E+03  0.48429180569E+03  0.00000000000E+00 0. -1.
        -15    1    3    3    0    0  0.23291991908E+02 -0.22385899340E+02  0.54860292989E+02  0.63690304224E+02  0.17770000000E+01 0. -1.
         15    1    3    3    0    0 -0.79451622201E+02 -0.36821137096E+02  0.54440247481E+02  0.10312737116E+03  0.17770000000E+01 0.  1.
</event>
<event>
 7    1  0.3234965E-006  0.5180424E+03  0.7546771E-02  0.9360319E-01
        -11   -1    0    0    0    0  0.00000000000E+00  0.00000000000E+00  0.50000000000E+03  0.50000000000E+03  0.00000000000E+00 0.  1.
         11   -1    0    0    0    0 -0.00000000000E+00 -0.00000000000E+00 -0.50000000000E+03  0.50000000000E+03  0.00000000000E+00 0.  1.
         23    2    1    2    0    0  0.10158139728E+02  0.37427557526E+02  0.23263439037E+03  0.25263667033E+03  0.90567752270E+02 0.  0.
        -11    1    1    2    0    0 -0.96253020723E+02 -0.54469089351E+02  0.24126474093E+03  0.26540572885E+03  0.00000000000E+00 0.  1.
         11    1    1    2    0    0  0.86094880995E+02  0.17041531825E+02 -0.47389913129E+03  0.48195760081E+03  0.00000000000E+00 0.  1.
        -15    1    3    3    0    0 -0.30424357237E+02  0.55595202441E+01  0.16317829947E+03  0.16609294063E+03  0.17770000000E+01 0.  1.
         15    1    3    3    0    0  0.40582496966E+02  0.31868037282E+02  0.69456090892E+02  0.86543729705E+02  0.17770000000E+01 0. -1.
</event>
<event>
 7    1  0.3234965E-006  0.5114540E+03  0.7546771E-02  0.9374539E-01
        -11   -1    0    0    0    0  0.00000000000E+00  0.00000000000E+00  0.50000000000E+03  0.50000000000E+03  0.00000000000E+00 0. -1.
         11   -1    0    0    0    0 -0.00000000000E+00 -0.00000000000E+00 -0.50000000000E+03  0.50000000000E+03  0.00000000000E+00 0.  1.
         23    2    1    2    0    0 -0.19984653775E+02 -0.55896549840E+01 -0.18713195049E+03  0.20921538727E+03  0.91225439145E+02 0.  0.
        -11    1    1    2    0    0  0.71387755713E+02 -0.37333647274E+02  0.48185806440E+03  0.48854601330E+03  0.00000000000E+00 0. -1.
         11    1    1    2    0    0 -0.51403101938E+02  0.42923302258E+02 -0.29472611391E+03  0.30223859943E+03  0.00000000000E+00 0.  1.
        -15    1    3    3    0    0 -0.11119225724E+02  0.36960685870E+02 -0.13930813096E+03  0.14456708671E+03  0.17770000000E+01 0. -1.
         15    1    3    3    0    0 -0.88654280511E+01 -0.42550340854E+02 -0.47823819531E+02  0.64648300557E+02  0.17770000000E+01 0.  1.
</event>
<event>
 7    1  0.3234965E-006  0.5140485E+03  0.7546771E-02  0.9368912E-01
        -11   -1    0    0    0    0  0.00000000000E+00  0.00000000000E+00  0.50000000000E+03  0.50000000000E+03  0.00000000000E+00 0. -1.
         11   -1    0    0    0    0 -0.00000000000E+00 -0.00000000000E+00 -0.50000000000E+03  0.50000000000E+03  0.00000000000E+00 0. -1.
         23    2    1    2    0    0 -0.63577236688E+02 -0.24397186466E+02 -0.47270212628E+03  0.48595151480E+03  0.89801374268E+02 0.  0.
        -11    1    1    2    0    0 -0.27527626520E+02  0.57327272304E+02  0.35938026363E+03  0.36496350537E+03  0.00000000000E+00 0. -1.
         11    1    1    2    0    0  0.91104863208E+02 -0.32930085838E+02  0.11332186265E+03  0.14908497982E+03  0.00000000000E+00 0. -1.
        -15    1    3    3    0    0  0.21140787422E+02 -0.13790542077E+02 -0.15111126890E+03  0.15321516003E+03  0.17770000000E+01 0.  1.
         15    1    3    3    0    0 -0.84718024110E+02 -0.10606644389E+02 -0.32159085738E+03  0.33273635478E+03  0.17770000000E+01 0. -1.
</event>
<event>
 7    1  0.3234965E-006  0.3238141E+03  0.7546771E-02  0.9912883E-01
        -11   -1    0    0    0    0  0.00000000000E+00  0.00000000000E+00  0.50000000000E+03  0.50000000000E+03  0.00000000000E+00 0.  1.
         11   -1    0    0    0    0 -0.00000000000E+00 -0.00000000000E+00 -0.50000000000E+03  0.50000000000E+03  0.00000000000E+00 0.  1.
         23    2    1    2    0    0 -0.14460258773E+03  0.11596983642E+03 -0.24680522726E+03  0.32240528166E+03  0.93131273499E+02 0.  0.
        -11    1    1    2    0    0 -0.93978758988E+02  0.19165330733E+02  0.36618623903E+03  0.37853887343E+03  0.00000000000E+00 0.  1.
         11    1    1    2    0    0  0.23858134672E+03 -0.13513516715E+03 -0.11938101177E+03  0.29905584491E+03  0.00000000000E+00 0.  1.
        -15    1    3    3    0    0 -0.57130981450E+02  0.10051740050E+02 -0.12891871715E+03  0.14137955963E+03  0.17770000000E+01 0.  1.
         15    1    3    3    0    0 -0.87471606283E+02  0.10591809637E+03 -0.11788651011E+03  0.18102572204E+03  0.17770000000E+01 0. -1.
</event>
<event>
 7    1  0.3234965E-006  0.5384575E+03  0.7546771E-02  0.9317645E-01
        -11   -1    0    0    0    0  0.00000000000E+00  0.00000000000E+00  0.50000000000E+03  0.50000000000E+03  0.00000000000E+00 0. -1.
         11   -1    0    0    0    0 -0.00000000000E+00 -0.00000000000E+00 -0.50000000000E+03  0.50000000000E+03  0.00000000000E+00 0.  1.
         23    2    1    2    0    0  0.98806928799E+02 -0.44097851013E+02 -0.10084125375E+03  0.17462570027E+03  0.92831821552E+02 0.  0.
        -11    1    1    2    0    0 -0.49786510555E+01  0.19807456105E+03  0.41684912913E+03  0.46154253884E+03  0.00000000000E+00 0. -1.
         11    1    1    2    0    0 -0.93828277743E+02 -0.15397671004E+03 -0.31600787537E+03  0.36383176090E+03  0.00000000000E+00 0.  1.
        -15    1    3    3    0    0  0.11436502308E+03 -0.35040706012E+02 -0.10096024933E+03  0.15653542492E+03  0.17770000000E+01 0. -1.
         15    1    3    3    0    0 -0.15558094279E+02 -0.90571450004E+01  0.11899557679E+00  0.18090275346E+02  0.17770000000E+01 0.  1.
</event>
<event>
 7    1  0.3234965E-006  0.3225507E+03  0.7546771E-02  0.9917760E-01
        -11   -1    0    0    0    0  0.00000000000E+00  0.00000000000E+00  0.50000000000E+03  0.50000000000E+03  0.00000000000E+00 0. -1.
         11   -1    0    0    0    0 -0.00000000000E+00 -0.00000000000E+00 -0.50000000000E+03  0.50000000000E+03  0.00000000000E+00 0.  1.
         23    2    1    2    0    0 -0.21337750762E+03  0.26127794181E+03  0.74979970094E+02  0.35748987014E+03  0.91547188372E+02 0.  0.
        -11    1    1    2    0    0 -0.17851082812E+02 -0.24243893043E+03  0.17646373582E+03  0.30039098888E+03  0.00000000000E+00 0. -1.
         11    1    1    2    0    0  0.23122859043E+03 -0.18839011387E+02 -0.25144370591E+03  0.34211914098E+03  0.00000000000E+00 0.  1.
        -15    1    3    3    0    0 -0.73078349319E+01  0.11406348413E+02  0.26740720075E+02  0.30028870686E+02  0.17770000000E+01 0. -1.
         15    1    3    3    0    0 -0.20606967269E+03  0.24987159340E+03  0.48239250019E+02  0.32746099945E+03  0.17770000000E+01 0.  1.
</event>
<event>
 7    1  0.3234965E-006  0.5202845E+03  0.7546771E-02  0.9355531E-01
        -11   -1    0    0    0    0  0.00000000000E+00  0.00000000000E+00  0.50000000000E+03  0.50000000000E+03  0.00000000000E+00 0. -1.
         11   -1    0    0    0    0 -0.00000000000E+00 -0.00000000000E+00 -0.50000000000E+03  0.50000000000E+03  0.00000000000E+00 0.  1.
         23    2    1    2    0    0  0.16503473520E+02  0.56780216549E+02 -0.21378814623E+03  0.24429876268E+03  0.10237263475E+03 0.  0.
        -11    1    1    2    0    0 -0.17559205786E+03 -0.98681759279E+02  0.43538061490E+03  0.47971547841E+03  0.00000000000E+00 0. -1.
         11    1    1    2    0    0  0.15908858434E+03  0.41901542729E+02 -0.22159246867E+03  0.27598575891E+03  0.00000000000E+00 0.  1.
        -15    1    3    3    0    0 -0.16292389587E+02 -0.18540806523E+02 -0.14372167658E+02  0.28616785235E+02  0.17770000000E+01 0. -1.
         15    1    3    3    0    0  0.32795863107E+02  0.75321023072E+02 -0.19941597857E+03  0.21568197744E+03  0.17770000000E+01 0.  1.
</event>
<event>
 7    1  0.3234965E-006  0.5121228E+03  0.7546771E-02  0.9373085E-01
        -11   -1    0    0    0    0  0.00000000000E+00  0.00000000000E+00  0.50000000000E+03  0.50000000000E+03  0.00000000000E+00 0.  1.
         11   -1    0    0    0    0 -0.00000000000E+00 -0.00000000000E+00 -0.50000000000E+03  0.50000000000E+03  0.00000000000E+00 0.  1.
         23    2    1    2    0    0 -0.11814585914E+02 -0.14359516953E+02 -0.22169557966E+03  0.24051076778E+03  0.91382269664E+02 0.  0.
        -11    1    1    2    0    0  0.10473878142E+03 -0.20244047317E+00  0.47650170193E+03  0.48787716206E+03  0.00000000000E+00 0.  1.
         11    1    1    2    0    0 -0.92924195503E+02  0.14561957426E+02 -0.25480612226E+03  0.27161207016E+03  0.00000000000E+00 0.  1.
        -15    1    3    3    0    0 -0.37359552608E+02 -0.36740122333E+02 -0.17538838709E+03  0.18305686771E+03  0.17770000000E+01 0.  1.
         15    1    3    3    0    0  0.25544966694E+02  0.22380605380E+02 -0.46307192578E+02  0.57453900077E+02  0.17770000000E+01 0. -1.
</event>
<event>
 7    1  0.3234965E-006  0.5191474E+03  0.7546771E-02  0.9357957E-01
        -11   -1    0    0    0    0  0.00000000000E+00  0.00000000000E+00  0.50000000000E+03  0.50000000000E+03  0.00000000000E+00 0. -1.
         11   -1    0    0    0    0 -0.00000000000E+00 -0.00000000000E+00 -0.50000000000E+03  0.50000000000E+03  0.00000000000E+00 0.  1.
         23    2    1    2    0    0  0.21569607129E+02 -0.45016214424E+01 -0.12023398283E+03  0.15208474283E+03  0.90487821428E+02 0.  0.
        -11    1    1    2    0    0 -0.76291960817E+02  0.16989016247E+03  0.44332390257E+03  0.48085258986E+03  0.00000000000E+00 0. -1.
         11    1    1    2    0    0  0.54722353688E+02 -0.16538854102E+03 -0.32308991974E+03  0.36706266731E+03  0.00000000000E+00 0.  1.
        -15    1    3    3    0    0  0.49656764248E+01 -0.43565910627E+02 -0.32507404068E+02  0.54612595245E+02  0.17770000000E+01 0. -1.
         15    1    3    3    0    0  0.16603930704E+02  0.39064289184E+02 -0.87726578766E+02  0.97472147587E+02  0.17770000000E+01 0.  1.
</event>
<event>
 7    1  0.3234965E-006  0.4197885E+03  0.7546771E-02  0.9599674E-01
        -11   -1    0    0    0    0  0.00000000000E+00  0.00000000000E+00  0.50000000000E+03  0.50000000000E+03  0.00000000000E+00 0.  1.
         11   -1    0    0    0    0 -0.00000000000E+00 -0.00000000000E+00 -0.50000000000E+03  0.50000000000E+03  0.00000000000E+00 0. -1.
         23    2    1    2    0    0  0.73546412262E+02  0.22662996474E+02  0.94431403437E+02  0.15163127619E+03  0.90288802171E+02 0.  0.
        -11    1    1    2    0    0 -0.84565158537E+02 -0.26487320903E+03  0.28494972992E+03  0.39812740609E+03  0.00000000000E+00 0.  1.
         11    1    1    2    0    0  0.11018746275E+02  0.24221021255E+03 -0.37938113336E+03  0.45024131772E+03  0.00000000000E+00 0. -1.
        -15    1    3    3    0    0  0.61600414990E+02 -0.93880515556E+01  0.99087606485E+02  0.11706518751E+03  0.17770000000E+01 0.  1.
         15    1    3    3    0    0  0.11945997272E+02  0.32051048029E+02 -0.46562030479E+01  0.34566088677E+02  0.17770000000E+01 0. -1.
</event>
<event>
 7    1  0.3234965E-006  0.5089185E+03  0.7546771E-02  0.9380072E-01
        -11   -1    0    0    0    0  0.00000000000E+00  0.00000000000E+00  0.50000000000E+03  0.50000000000E+03  0.00000000000E+00 0.  1.
         11   -1    0    0    0    0 -0.00000000000E+00 -0.00000000000E+00 -0.50000000000E+03  0.50000000000E+03  0.00000000000E+00 0. -1.
         23    2    1    2    0    0 -0.87253581411E+02 -0.79830869114E+01  0.23357992982E+03  0.26559100025E+03  0.91115743166E+02 0.  0.
        -11    1    1    2    0    0 -0.46123386261E+02 -0.49869406842E+01  0.23886409783E+03  0.24332754379E+03  0.00000000000E+00 0.  1.
         11    1    1    2    0    0  0.13337696767E+03  0.12970027596E+02 -0.47244402765E+03  0.49108145596E+03  0.00000000000E+00 0. -1.
        -15    1    3    3    0    0 -0.71154589709E+02 -0.39587642120E+02  0.10911928629E+03  0.13616289295E+03  0.17770000000E+01 0.  1.
         15    1    3    3    0    0 -0.16098991702E+02  0.31604555209E+02  0.12446064353E+03  0.12942810731E+03  0.17770000000E+01 0. -1.
</event>
<event>
 7    1  0.3234965E-006  0.4689001E+03  0.7546771E-02  0.9472220E-01
        -11   -1    0    0    0    0  0.00000000000E+00  0.00000000000E+00  0.50000000000E+03  0.50000000000E+03  0.00000000000E+00 0.  1.
         11   -1    0    0    0    0 -0.00000000000E+00 -0.00000000000E+00 -0.50000000000E+03  0.50000000000E+03  0.00000000000E+00 0.  1.
         23    2    1    2    0    0 -0.51973189372E+02 -0.21594889949E+02 -0.42390103304E+03  0.43808050838E+03  0.95157208491E+02 0.  0.
        -11    1    1    2    0    0  0.73528249030E+02  0.46951237467E+02  0.48476421569E+03  0.49255168959E+03  0.00000000000E+00 0.  1.
         11    1    1    2    0    0 -0.21555059658E+02 -0.25356347518E+02 -0.60863182651E+02  0.69367802032E+02  0.00000000000E+00 0.  1.
        -15    1    3    3    0    0 -0.34894277511E+02  0.31066995597E+02 -0.28019604112E+03  0.28406997027E+03  0.17770000000E+01 0.  1.
         15    1    3    3    0    0 -0.17078911861E+02 -0.52661885546E+02 -0.14370499191E+03  0.15401053811E+03  0.17770000000E+01 0. -1.
</event>
<event>
 7    1  0.3234965E-006  0.5218479E+03  0.7546771E-02  0.9352208E-01
        -11   -1    0    0    0    0  0.00000000000E+00  0.00000000000E+00  0.50000000000E+03  0.50000000000E+03  0.00000000000E+00 0.  1.
         11   -1    0    0    0    0 -0.00000000000E+00 -0.00000000000E+00 -0.50000000000E+03  0.50000000000E+03  0.00000000000E+00 0. -1.
         23    2    1    2    0    0 -0.54159508630E+01 -0.30921583840E+02 -0.11330431023E+03  0.14681521182E+03  0.87928168610E+02 0.  0.
        -11    1    1    2    0    0  0.11734276536E+03  0.28440994838E+03  0.36602063468E+03  0.47815211840E+03  0.00000000000E+00 0.  1.
         11    1    1    2    0    0 -0.11192681450E+03 -0.25348836454E+03 -0.25271632445E+03  0.37503266978E+03  0.00000000000E+00 0. -1.
        -15    1    3    3    0    0 -0.44320004001E+02 -0.27772992359E+02 -0.49722545353E+02  0.72187887520E+02  0.17770000000E+01 0.  1.
         15    1    3    3    0    0  0.38904053138E+02 -0.31485914813E+01 -0.63581764873E+02  0.74627324300E+02  0.17770000000E+01 0. -1.
</event>
<event>
 7    1  0.3234965E-006  0.5279594E+03  0.7546771E-02  0.9339334E-01
        -11   -1    0    0    0    0  0.00000000000E+00  0.00000000000E+00  0.50000000000E+03  0.50000000000E+03  0.00000000000E+00 0.  1.
         11   -1    0    0    0    0 -0.00000000000E+00 -0.00000000000E+00 -0.50000000000E+03  0.50000000000E+03  0.00000000000E+00 0. -1.
         23    2    1    2    0    0  0.10673619999E+03 -0.13136024538E+02 -0.33331188069E+03  0.35814894602E+03  0.74891162341E+02 0.  0.
        -11    1    1    2    0    0 -0.20129743905E+03  0.13446071973E+03  0.40524306636E+03  0.47204055647E+03  0.00000000000E+00 0.  1.
         11    1    1    2    0    0  0.94561239055E+02 -0.12132469519E+03 -0.71931185669E+02  0.16981049752E+03  0.00000000000E+00 0. -1.
        -15    1    3    3    0    0  0.19003635408E+02 -0.72485882073E+01 -0.93396787104E+01  0.22451447996E+02  0.17770000000E+01 0. -1.
         15    1    3    3    0    0  0.87732564587E+02 -0.58874363304E+01 -0.32397220198E+03  0.33569749802E+03  0.17770000000E+01 0.  1.
</event>
<event>
 7    1  0.3234965E-006  0.3656148E+03  0.7546771E-02  0.9763837E-01
        -11   -1    0    0    0    0  0.00000000000E+00  0.00000000000E+00  0.50000000000E+03  0.50000000000E+03  0.00000000000E+00 0.  1.
         11   -1    0    0    0    0 -0.00000000000E+00 -0.00000000000E+00 -0.50000000000E+03  0.50000000000E+03  0.00000000000E+00 0. -1.
         23    2    1    2    0    0  0.10220302023E+03 -0.10848823710E+03 -0.26354864878E+03  0.31632407711E+03  0.91585351177E+02 0.  0.
        -11    1    1    2    0    0 -0.31431489622E+03  0.21620891044E+03  0.22433608934E+03  0.44256844433E+03  0.00000000000E+00 0.  1.
         11    1    1    2    0    0  0.21211187599E+03 -0.10772067334E+03  0.39212559435E+02  0.24110747856E+03  0.00000000000E+00 0. -1.
        -15    1    3    3    0    0  0.85315542365E+02 -0.11874577506E+03 -0.25653189886E+03  0.29528134672E+03  0.17770000000E+01 0. -1.
         15    1    3    3    0    0  0.16887477865E+02  0.10257537952E+02 -0.70167499206E+01  0.21042730382E+02  0.17770000000E+01 0.  1.
</event>
<event>
 7    1  0.3234965E-006  0.5340322E+03  0.7546771E-02  0.9326723E-01
        -11   -1    0    0    0    0  0.00000000000E+00  0.00000000000E+00  0.50000000000E+03  0.50000000000E+03  0.00000000000E+00 0. -1.
         11   -1    0    0    0    0 -0.00000000000E+00 -0.00000000000E+00 -0.50000000000E+03  0.50000000000E+03  0.00000000000E+00 0. -1.
         23    2    1    2    0    0 -0.42976712807E+02 -0.34111398622E+02  0.25609352851E+03  0.27718207174E+03  0.90749215931E+02 0.  0.
        -11    1    1    2    0    0 -0.16717391247E+03 -0.15972526306E+03  0.11186030596E+03  0.25685016005E+03  0.00000000000E+00 0. -1.
         11    1    1    2    0    0  0.21015062528E+03  0.19383666168E+03 -0.36795383446E+03  0.46596776821E+03  0.00000000000E+00 0. -1.
        -15    1    3    3    0    0 -0.58820191354E+02 -0.30363599114E+01  0.90838552327E+02  0.10827665820E+03  0.17770000000E+01 0.  1.
         15    1    3    3    0    0  0.15843478547E+02 -0.31075038710E+02  0.16525497618E+03  0.16890541354E+03  0.17770000000E+01 0. -1.
</event>
<event>
 7    1  0.3234965E-006  0.5386914E+03  0.7546771E-02  0.9317168E-01
        -11   -1    0    0    0    0  0.00000000000E+00  0.00000000000E+00  0.50000000000E+03  0.50000000000E+03  0.00000000000E+00 0. -1.
         11   -1    0    0    0    0 -0.00000000000E+00 -0.00000000000E+00 -0.50000000000E+03  0.50000000000E+03  0.00000000000E+00 0. -1.
         23    2    1    2    0    0 -0.13474806877E+02 -0.46253902376E+02 -0.10270162784E+03  0.14495946964E+03  0.90247601482E+02 0.  0.
        -11    1    1    2    0    0 -0.11106141682E+03 -0.14472316806E+03  0.42370527884E+03  0.46130857026E+03  0.00000000000E+00 0. -1.
         11    1    1    2    0    0  0.12453622370E+03  0.19097707043E+03 -0.32100365100E+03  0.39373196010E+03  0.00000000000E+00 0. -1.
        -15    1    3    3    0    0  0.18721431251E+02  0.94475967849E+01 -0.69343767743E+02  0.72466991982E+02  0.17770000000E+01 0. -1.
         15    1    3    3    0    0 -0.32196238129E+02 -0.55701499160E+02 -0.33357860096E+02  0.72492477662E+02  0.17770000000E+01 0.  1.
</event>
<event>
 7    1  0.3234965E-006  0.4019297E+03  0.7546771E-02  0.9650716E-01
        -11   -1    0    0    0    0  0.00000000000E+00  0.00000000000E+00  0.50000000000E+03  0.50000000000E+03  0.00000000000E+00 0. -1.
         11   -1    0    0    0    0 -0.00000000000E+00 -0.00000000000E+00 -0.50000000000E+03  0.50000000000E+03  0.00000000000E+00 0. -1.
         23    2    1    2    0    0 -0.61523248701E+02 -0.98375467064E+02 -0.44400546959E+03  0.46618082976E+03  0.81980890215E+02 0.  0.
        -11    1    1    2    0    0 -0.72069505805E+02  0.24668012386E+02  0.34177154866E+03  0.35015755879E+03  0.00000000000E+00 0. -1.
         11    1    1    2    0    0  0.13359275451E+03  0.73707454679E+02  0.10223392093E+03  0.18366161145E+03  0.00000000000E+00 0. -1.
        -15    1    3    3    0    0 -0.60620197074E+02 -0.26414686688E+02 -0.15871815546E+03  0.17195102375E+03  0.17770000000E+01 0. -1.
         15    1    3    3    0    0 -0.90305162656E+00 -0.71960780377E+02 -0.28528731413E+03  0.29422980602E+03  0.17770000000E+01 0.  1.
</event>
<event>
 7    1  0.3234965E-006  0.4468461E+03  0.7546771E-02  0.9527291E-01
        -11   -1    0    0    0    0  0.00000000000E+00  0.00000000000E+00  0.50000000000E+03  0.50000000000E+03  0.00000000000E+00 0.  1.
         11   -1    0    0    0    0 -0.00000000000E+00 -0.00000000000E+00 -0.50000000000E+03  0.50000000000E+03  0.00000000000E+00 0. -1.
         23    2    1    2    0    0  0.45083299951E+02 -0.32777521453E+01  0.11632771781E+02  0.10508974226E+03  0.94155642180E+02 0.  0.
        -11    1    1    2    0    0 -0.10675420130E+03 -0.61381509004E+02  0.42847705912E+03  0.44582142090E+03  0.00000000000E+00 0.  1.
         11    1    1    2    0    0  0.61670901345E+02  0.64659261149E+02 -0.44010983090E+03  0.44908883685E+03  0.00000000000E+00 0. -1.
        -15    1    3    3    0    0  0.25887874931E+02 -0.48653745951E+02  0.64499194869E+01  0.55516918627E+02  0.17770000000E+01 0.  1.
         15    1    3    3    0    0  0.19195425020E+02  0.45375993806E+02  0.51828522938E+01  0.49572823628E+02  0.17770000000E+01 0. -1.
</event>
<event>
 7    1  0.3234965E-006  0.5228761E+03  0.7546771E-02  0.9350029E-01
        -11   -1    0    0    0    0  0.00000000000E+00  0.00000000000E+00  0.50000000000E+03  0.50000000000E+03  0.00000000000E+00 0. -1.
         11   -1    0    0    0    0 -0.00000000000E+00 -0.00000000000E+00 -0.50000000000E+03  0.50000000000E+03  0.00000000000E+00 0. -1.
         23    2    1    2    0    0 -0.69294162446E+02  0.36760051827E+01 -0.25318740302E+03  0.27765063436E+03  0.90392586800E+02 0.  0.
        -11    1    1    2    0    0  0.11073924795E+01  0.93072443374E+02  0.46795669903E+03  0.47712386044E+03  0.00000000000E+00 0. -1.
         11    1    1    2    0    0  0.68186769966E+02 -0.96748448557E+02 -0.21476929600E+03  0.24522550520E+03  0.00000000000E+00 0. -1.
        -15    1    3    3    0    0  0.21753996134E+02  0.12773619628E+00 -0.64800719916E+02  0.68377947431E+02  0.17770000000E+01 0. -1.
         15    1    3    3    0    0 -0.91048158580E+02  0.35482689864E+01 -0.18838668311E+03  0.20927268693E+03  0.17770000000E+01 0.  1.
</event>
<event>
 7    1  0.3234965E-006  0.3410701E+03  0.7546771E-02  0.9848583E-01
        -11   -1    0    0    0    0  0.00000000000E+00  0.00000000000E+00  0.50000000000E+03  0.50000000000E+03  0.00000000000E+00 0. -1.
         11   -1    0    0    0    0 -0.00000000000E+00 -0.00000000000E+00 -0.50000000000E+03  0.50000000000E+03  0.00000000000E+00 0.  1.
         23    2    1    2    0    0 -0.45834047972E+02  0.21993269877E+03 -0.12274553690E+03  0.27140342180E+03  0.90123241157E+02 0.  0.
        -11    1    1    2    0    0 -0.10999202371E+03 -0.26685990399E+03  0.34710153510E+03  0.45143319473E+03  0.00000000000E+00 0. -1.
         11    1    1    2    0    0  0.15582607168E+03  0.46927205217E+02 -0.22435599820E+03  0.27716338347E+03  0.00000000000E+00 0.  1.
        -15    1    3    3    0    0 -0.19591086667E+02  0.18889189886E+03 -0.64929093657E+02  0.20070601651E+03  0.17770000000E+01 0.  1.
         15    1    3    3    0    0 -0.26242961304E+02  0.31040799910E+02 -0.57816443241E+02  0.70697405292E+02  0.17770000000E+01 0. -1.
</event>
<event>
 6    1  0.3234965E-006  0.4560537E+03  0.7546771E-02  0.9503896E-01
        -11   -1    0    0    0    0  0.00000000000E+00  0.00000000000E+00  0.50000000000E+03  0.50000000000E+03  0.00000000000E+00 0. -1.
         11   -1    0    0    0    0 -0.00000000000E+00 -0.00000000000E+00 -0.50000000000E+03  0.50000000000E+03  0.00000000000E+00 0. -1.
        -11    1    1    2    0    0 -0.77354739473E+02 -0.72948926485E+02  0.44209525287E+03  0.45470156609E+03  0.00000000000E+00 0. -1.
         11    1    1    2    0    0  0.73161591082E+02 -0.58476748302E+02 -0.39205511024E+02  0.10153433211E+03  0.00000000000E+00 0. -1.
        -15    1    1    2    0    0  0.26429240773E+02  0.56611716501E+02 -0.43888457165E+02  0.76372413962E+02  0.17770000000E+01 0. -1.
         15    1    1    2    0    0 -0.22236092382E+02  0.74813958286E+02 -0.35900128468E+03  0.36739168784E+03  0.17770000000E+01 0.  1.
</event>
<event>
 7    1  0.3234965E-006  0.5109153E+03  0.7546771E-02  0.9375712E-01
        -11   -1    0    0    0    0  0.00000000000E+00  0.00000000000E+00  0.50000000000E+03  0.50000000000E+03  0.00000000000E+00 0. -1.
         11   -1    0    0    0    0 -0.00000000000E+00 -0.00000000000E+00 -0.50000000000E+03  0.50000000000E+03  0.00000000000E+00 0. -1.
         23    2    1    2    0    0 -0.79141939554E+02 -0.90695294620E+01 -0.36237375339E+03  0.38401907399E+03  0.99046499593E+02 0.  0.
        -11    1    1    2    0    0  0.75045221891E+02  0.56577798167E+02  0.47996980805E+03  0.48908470556E+03  0.00000000000E+00 0. -1.
         11    1    1    2    0    0  0.40967176628E+01 -0.47508268705E+02 -0.11759605466E+03  0.12689622044E+03  0.00000000000E+00 0. -1.
        -15    1    3    3    0    0 -0.18089532382E+02 -0.18596811098E+02 -0.12730636322E+02  0.28953400405E+02  0.17770000000E+01 0.  1.
         15    1    3    3    0    0 -0.61052407172E+02  0.95272816363E+01 -0.34964311707E+03  0.35506567359E+03  0.17770000000E+01 0. -1.
</event>
<event>
 7    1  0.3234965E-006  0.4160352E+03  0.7546771E-02  0.9610173E-01
        -11   -1    0    0    0    0  0.00000000000E+00  0.00000000000E+00  0.50000000000E+03  0.50000000000E+03  0.00000000000E+00 0.  1.
         11   -1    0    0    0    0 -0.00000000000E+00 -0.00000000000E+00 -0.50000000000E+03  0.50000000000E+03  0.00000000000E+00 0. -1.
         23    2    1    2    0    0 -0.33596427704E+02 -0.91223130413E+02 -0.86302466730E+02  0.15783635727E+03  0.89519944338E+02 0.  0.
        -11    1    1    2    0    0  0.14129765776E+03 -0.18599026195E+02  0.43676617771E+03  0.45942969631E+03  0.00000000000E+00 0.  1.
         11    1    1    2    0    0 -0.10770123005E+03  0.10982215661E+03 -0.35046371097E+03  0.38273394643E+03  0.00000000000E+00 0. -1.
        -15    1    3    3    0    0  0.99832254195E+01 -0.62287860832E+01  0.14632383385E+02  0.18860724757E+02  0.17770000000E+01 0. -1.
         15    1    3    3    0    0 -0.43579653123E+02 -0.84994344330E+02 -0.10093485012E+03  0.13897563251E+03  0.17770000000E+01 0.  1.
</event>
<event>
 7    1  0.3234965E-006  0.3739317E+03  0.7546771E-02  0.9736724E-01
        -11   -1    0    0    0    0  0.00000000000E+00  0.00000000000E+00  0.50000000000E+03  0.50000000000E+03  0.00000000000E+00 0. -1.
         11   -1    0    0    0    0 -0.00000000000E+00 -0.00000000000E+00 -0.50000000000E+03  0.50000000000E+03  0.00000000000E+00 0. -1.
         23    2    1    2    0    0 -0.13040862591E+03 -0.80223142148E+02 -0.30907178264E+03  0.35656500001E+03  0.90393971928E+02 0.  0.
        -11    1    1    2    0    0 -0.13436549581E+02 -0.66468521788E+02  0.40927235187E+03  0.41485233910E+03  0.00000000000E+00 0. -1.
         11    1    1    2    0    0  0.14384517550E+03  0.14669166394E+03 -0.10020056923E+03  0.22858266088E+03  0.00000000000E+00 0. -1.
        -15    1    3    3    0    0 -0.10225527545E+03 -0.69698047058E+02 -0.14904589153E+03  0.19373124331E+03  0.17770000000E+01 0. -1.
         15    1    3    3    0    0 -0.28153350460E+02 -0.10525095090E+02 -0.16002589111E+03  0.16283375670E+03  0.17770000000E+01 0.  1.
</event>
<event>
 7    1  0.3234965E-006  0.3946065E+03  0.7546771E-02  0.9672472E-01
        -11   -1    0    0    0    0  0.00000000000E+00  0.00000000000E+00  0.50000000000E+03  0.50000000000E+03  0.00000000000E+00 0. -1.
         11   -1    0    0    0    0 -0.00000000000E+00 -0.00000000000E+00 -0.50000000000E+03  0.50000000000E+03  0.00000000000E+00 0.  1.
         23    2    1    2    0    0 -0.43792555569E+01 -0.69075809949E+02 -0.32515505778E+03  0.34464602354E+03  0.90908880443E+02 0.  0.
        -11    1    1    2    0    0  0.14768970119E+03 -0.10966764523E+02  0.43388329160E+03  0.45846180702E+03  0.00000000000E+00 0. -1.
         11    1    1    2    0    0 -0.14331044563E+03  0.80042574472E+02 -0.10872823382E+03  0.19689216944E+03  0.00000000000E+00 0.  1.
        -15    1    3    3    0    0  0.83123618995E+01 -0.72118573095E+02 -0.32328708383E+03  0.33134254216E+03  0.17770000000E+01 0.  1.
         15    1    3    3    0    0 -0.12691617456E+02  0.30427631469E+01 -0.18679739541E+01  0.13303481383E+02  0.17770000000E+01 0. -1.
</event>
<event>
 7    1  0.3234965E-006  0.3964263E+03  0.7546771E-02  0.9667019E-01
        -11   -1    0    0    0    0  0.00000000000E+00  0.00000000000E+00  0.50000000000E+03  0.50000000000E+03  0.00000000000E+00 0. -1.
         11   -1    0    0    0    0 -0.00000000000E+00 -0.00000000000E+00 -0.50000000000E+03  0.50000000000E+03  0.00000000000E+00 0.  1.
         23    2    1    2    0    0  0.50069996612E+02 -0.14717233773E+03  0.63305253363E+02  0.18957441319E+03  0.88114706381E+02 0.  0.
        -11    1    1    2    0    0 -0.35560866851E+02  0.60808512337E+02  0.36577665568E+03  0.37249807015E+03  0.00000000000E+00 0. -1.
         11    1    1    2    0    0 -0.14509129761E+02  0.86363825392E+02 -0.42908190904E+03  0.43792751666E+03  0.00000000000E+00 0.  1.
        -15    1    3    3    0    0  0.53497814985E+02 -0.10739047923E+03  0.82117161149E+02  0.14539985255E+03  0.17770000000E+01 0. -1.
         15    1    3    3    0    0 -0.34278183733E+01 -0.39781858494E+02 -0.18811907787E+02  0.44174560639E+02  0.17770000000E+01 0.  1.
</event>
<event>
 7    1  0.3234965E-006  0.5131723E+03  0.7546771E-02  0.9370809E-01
        -11   -1    0    0    0    0  0.00000000000E+00  0.00000000000E+00  0.50000000000E+03  0.50000000000E+03  0.00000000000E+00 0.  1.
         11   -1    0    0    0    0 -0.00000000000E+00 -0.00000000000E+00 -0.50000000000E+03  0.50000000000E+03  0.00000000000E+00 0.  1.
         23    2    1    2    0    0 -0.34340707949E+02  0.69417473763E+02 -0.33937439066E+03  0.35955737734E+03  0.90046991499E+02 0.  0.
        -11    1    1    2    0    0 -0.23151234070E+01 -0.15520029217E+03  0.46142031251E+03  0.48682768541E+03  0.00000000000E+00 0.  1.
         11    1    1    2    0    0  0.36655831356E+02  0.85782818408E+02 -0.12204592185E+03  0.15361493725E+03  0.00000000000E+00 0.  1.
        -15    1    3    3    0    0 -0.48565449245E+02  0.28836973911E+01 -0.17510393213E+03  0.18174560062E+03  0.17770000000E+01 0.  1.
         15    1    3    3    0    0  0.14224741296E+02  0.66533776372E+02 -0.16427045853E+03  0.17781177672E+03  0.17770000000E+01 0. -1.
</event>
<event>
 7    1  0.3234965E-006  0.5102695E+03  0.7546771E-02  0.9377120E-01
        -11   -1    0    0    0    0  0.00000000000E+00  0.00000000000E+00  0.50000000000E+03  0.50000000000E+03  0.00000000000E+00 0.  1.
         11   -1    0    0    0    0 -0.00000000000E+00 -0.00000000000E+00 -0.50000000000E+03  0.50000000000E+03  0.00000000000E+00 0. -1.
         23    2    1    2    0    0  0.85970354124E+02  0.22530778124E+02  0.31162986251E+03  0.33655659732E+03  0.90877028125E+02 0.  0.
        -11    1    1    2    0    0  0.17634113883E+02 -0.46615223257E+02  0.16640986632E+03  0.17371293740E+03  0.00000000000E+00 0.  1.
         11    1    1    2    0    0 -0.10360446801E+03  0.24084445133E+02 -0.47803972883E+03  0.48973046528E+03  0.00000000000E+00 0. -1.
        -15    1    3    3    0    0  0.11716817459E+01 -0.21178480084E+02  0.18209002729E+02  0.28011182877E+02  0.17770000000E+01 0. -1.
         15    1    3    3    0    0  0.84798672378E+02  0.43709258209E+02  0.29342085978E+03  0.30854541444E+03  0.17770000000E+01 0.  1.
</event>
<event>
 7    1  0.3234965E-006  0.3650635E+03  0.7546771E-02  0.9765661E-01
        -11   -1    0    0    0    0  0.00000000000E+00  0.00000000000E+00  0.50000000000E+03  0.50000000000E+03  0.00000000000E+00 0.  1.
         11   -1    0    0    0    0 -0.00000000000E+00 -0.00000000000E+00 -0.50000000000E+03  0.50000000000E+03  0.00000000000E+00 0. -1.
         23    2    1    2    0    0 -0.20188398731E+03  0.83651645757E+02 -0.20536374440E+03  0.31378867940E+03  0.92381413889E+02 0.  0.
        -11    1    1    2    0    0  0.14094256499E+03  0.76037772558E+01  0.42112447866E+03  0.44414913101E+03  0.00000000000E+00 0.  1.
         11    1    1    2    0    0  0.60941422328E+02 -0.91255423012E+02 -0.21576073426E+03  0.24206218960E+03  0.00000000000E+00 0. -1.
        -15    1    3    3    0    0 -0.20672507318E+03  0.63665882056E+02 -0.18281035951E+03  0.28321614659E+03  0.17770000000E+01 0.  1.
         15    1    3    3    0    0  0.48410858636E+01  0.19985763701E+02 -0.22553384886E+02  0.30572532801E+02  0.17770000000E+01 0. -1.
</event>
<event>
 6    1  0.3234965E-006  0.3354466E+03  0.7546771E-02  0.9869081E-01
        -11   -1    0    0    0    0  0.00000000000E+00  0.00000000000E+00  0.50000000000E+03  0.50000000000E+03  0.00000000000E+00 0.  1.
         11   -1    0    0    0    0 -0.00000000000E+00 -0.00000000000E+00 -0.50000000000E+03  0.50000000000E+03  0.00000000000E+00 0.  1.
        -11    1    1    2    0    0 -0.14007906720E+03  0.31432300732E+01  0.34236263908E+03  0.36992458907E+03  0.00000000000E+00 0.  1.
         11    1    1    2    0    0 -0.61535731618E+02  0.96575548827E+02 -0.31810130048E+03  0.33808567001E+03  0.00000000000E+00 0.  1.
        -15    1    1    2    0    0  0.19297458690E+03 -0.31089051348E+02 -0.71578150457E+02  0.20816414114E+03  0.17770000000E+01 0.  1.
         15    1    1    2    0    0  0.86402119184E+01 -0.68629727553E+02  0.47316811860E+02  0.83825599786E+02  0.17770000000E+01 0. -1.
</event>
<event>
 7    1  0.3234965E-006  0.5372535E+03  0.7546771E-02  0.9320106E-01
        -11   -1    0    0    0    0  0.00000000000E+00  0.00000000000E+00  0.50000000000E+03  0.50000000000E+03  0.00000000000E+00 0. -1.
         11   -1    0    0    0    0 -0.00000000000E+00 -0.00000000000E+00 -0.50000000000E+03  0.50000000000E+03  0.00000000000E+00 0. -1.
         23    2    1    2    0    0 -0.68690635798E+02  0.26788374113E+01 -0.21413570237E+03  0.24309342316E+03  0.92275314889E+02 0.  0.
        -11    1    1    2    0    0  0.52154335181E+02 -0.23296793780E+03  0.39640915667E+03  0.46274653344E+03  0.00000000000E+00 0. -1.
         11    1    1    2    0    0  0.16536300617E+02  0.23028910038E+03 -0.18227345429E+03  0.29416004340E+03  0.00000000000E+00 0. -1.
        -15    1    3    3    0    0 -0.97874598277E+01  0.42553172554E+02 -0.74384463587E+02  0.86271507558E+02  0.17770000000E+01 0.  1.
         15    1    3    3    0    0 -0.58903175970E+02 -0.39874335143E+02 -0.13975123879E+03  0.15682191560E+03  0.17770000000E+01 0. -1.
</event>
<event>
 7    1  0.3234965E-006  0.5228085E+03  0.7546771E-02  0.9350172E-01
        -11   -1    0    0    0    0  0.00000000000E+00  0.00000000000E+00  0.50000000000E+03  0.50000000000E+03  0.00000000000E+00 0.  1.
         11   -1    0    0    0    0 -0.00000000000E+00 -0.00000000000E+00 -0.50000000000E+03  0.50000000000E+03  0.00000000000E+00 0. -1.
         23    2    1    2    0    0 -0.13529616166E+03 -0.20056811483E+02 -0.30614083104E+03  0.34676892401E+03  0.88425964415E+02 0.  0.
        -11    1    1    2    0    0  0.94961061128E+02 -0.42360226775E+02  0.46572500545E+03  0.47719154713E+03  0.00000000000E+00 0.  1.
         11    1    1    2    0    0  0.40335100531E+02  0.62417038258E+02 -0.15958417441E+03  0.17603952886E+03  0.00000000000E+00 0. -1.
        -15    1    3    3    0    0 -0.56139732588E+02 -0.52198146937E+02 -0.16135012447E+03  0.17864304216E+03  0.17770000000E+01 0. -1.
         15    1    3    3    0    0 -0.79156429071E+02  0.32141335454E+02 -0.14479070658E+03  0.16812588185E+03  0.17770000000E+01 0.  1.
</event>
<event>
 7    1  0.3234965E-006  0.4545438E+03  0.7546771E-02  0.9507692E-01
        -11   -1    0    0    0    0  0.00000000000E+00  0.00000000000E+00  0.50000000000E+03  0.50000000000E+03  0.00000000000E+00 0.  1.
         11   -1    0    0    0    0 -0.00000000000E+00 -0.00000000000E+00 -0.50000000000E+03  0.50000000000E+03  0.00000000000E+00 0. -1.
         23    2    1    2    0    0 -0.55237501040E+02  0.70300114074E+02 -0.41142150321E+03  0.43060044085E+03  0.90309461290E+02 0.  0.
        -11    1    1    2    0    0  0.12273312967E+03 -0.22136499927E+02  0.45773751919E+03  0.47442289387E+03  0.00000000000E+00 0.  1.
         11    1    1    2    0    0 -0.67495628633E+02 -0.48163614147E+02 -0.46316015986E+02  0.94976665287E+02  0.00000000000E+00 0. -1.
        -15    1    3    3    0    0 -0.77494577511E+02  0.35845998796E+02 -0.29706324166E+03  0.30909557171E+03  0.17770000000E+01 0.  1.
         15    1    3    3    0    0  0.22257076471E+02  0.34454115278E+02 -0.11435826154E+03  0.12150486914E+03  0.17770000000E+01 0. -1.
</event>
<event>
 7    1  0.3234965E-006  0.5173080E+03  0.7546771E-02  0.9361893E-01
        -11   -1    0    0    0    0  0.00000000000E+00  0.00000000000E+00  0.50000000000E+03  0.50000000000E+03  0.00000000000E+00 0.  1.
         11   -1    0    0    0    0 -0.00000000000E+00 -0.00000000000E+00 -0.50000000000E+03  0.50000000000E+03  0.00000000000E+00 0.  1.
         23    2    1    2    0    0 -0.26786703832E+02  0.45760746975E+01 -0.22520856978E+03  0.24676337018E+03  0.97132862605E+02 0.  0.
        -11    1    1    2    0    0 -0.23878135902E+02  0.89701061017E+02  0.47368250410E+03  0.48269199332E+03  0.00000000000E+00 0.  1.
         11    1    1    2    0    0  0.50664839734E+02 -0.94277135715E+02 -0.24847393432E+03  0.27054463650E+03  0.00000000000E+00 0.  1.
        -15    1    3    3    0    0 -0.28773993885E+02 -0.41125837014E+02 -0.15512441106E+03  0.16305219357E+03  0.17770000000E+01 0.  1.
         15    1    3    3    0    0  0.19872900527E+01  0.45701911712E+02 -0.70084158727E+02  0.83711176610E+02  0.17770000000E+01 0. -1.
</event>
<event>
 7    1  0.3234965E-006  0.4632985E+03  0.7546771E-02  0.9485898E-01
        -11   -1    0    0    0    0  0.00000000000E+00  0.00000000000E+00  0.50000000000E+03  0.50000000000E+03  0.00000000000E+00 0.  1.
         11   -1    0    0    0    0 -0.00000000000E+00 -0.00000000000E+00 -0.50000000000E+03  0.50000000000E+03  0.00000000000E+00 0. -1.
         23    2    1    2    0    0 -0.12667822996E+02  0.10727625742E+03 -0.40793850493E+03  0.43140289272E+03  0.89587738530E+02 0.  0.
        -11    1    1    2    0    0  0.53634442655E+02 -0.14151173531E+03  0.46585976161E+03  0.48982399100E+03  0.00000000000E+00 0.  1.
         11    1    1    2    0    0 -0.40966619659E+02  0.34235477887E+02 -0.57921256680E+02  0.78773116275E+02  0.00000000000E+00 0. -1.
        -15    1    3    3    0    0  0.35284968654E+02  0.38980274438E+02 -0.10902216262E+03  0.12105156124E+03  0.17770000000E+01 0.  1.
         15    1    3    3    0    0 -0.47952791650E+02  0.68295982987E+02 -0.29891634232E+03  0.31035133148E+03  0.17770000000E+01 0. -1.
</event>
<event>
 7    1  0.3234965E-006  0.4721355E+03  0.7546771E-02  0.9464412E-01
        -11   -1    0    0    0    0  0.00000000000E+00  0.00000000000E+00  0.50000000000E+03  0.50000000000E+03  0.00000000000E+00 0. -1.
         11   -1    0    0    0    0 -0.00000000000E+00 -0.00000000000E+00 -0.50000000000E+03  0.50000000000E+03  0.00000000000E+00 0.  1.
         23    2    1    2    0    0  0.44024460503E+02  0.19771580178E+03  0.38800108354E+03  0.44769251409E+03  0.94095987948E+02 0.  0.
        -11    1    1    2    0    0 -0.20842211762E+02 -0.14001010359E+01  0.59515545927E+02  0.63075021054E+02  0.00000000000E+00 0. -1.
         11    1    1    2    0    0 -0.23182248741E+02 -0.19631570074E+03 -0.44751662947E+03  0.48923246485E+03  0.00000000000E+00 0.  1.
        -15    1    3    3    0    0  0.39668214028E+02  0.18783706529E+02  0.87910718491E+02  0.98274345532E+02  0.17770000000E+01 0. -1.
         15    1    3    3    0    0  0.43562464754E+01  0.17893209525E+03  0.30009036505E+03  0.34941816856E+03  0.17770000000E+01 0.  1.
</event>
<event>
 7    1  0.3234965E-006  0.5238840E+03  0.7546771E-02  0.9347898E-01
        -11   -1    0    0    0    0  0.00000000000E+00  0.00000000000E+00  0.50000000000E+03  0.50000000000E+03  0.00000000000E+00 0.  1.
         11   -1    0    0    0    0 -0.00000000000E+00 -0.00000000000E+00 -0.50000000000E+03  0.50000000000E+03  0.00000000000E+00 0. -1.
         23    2    1    2    0    0  0.13373466416E+03 -0.51479824236E+02  0.19699811569E+03  0.25953262135E+03  0.89519781378E+02 0.  0.
        -11    1    1    2    0    0  0.21206606232E+02  0.75056250402E+02  0.25258366037E+03  0.26435140695E+03  0.00000000000E+00 0.  1.
         11    1    1    2    0    0 -0.15494127039E+03 -0.23576426165E+02 -0.44958177606E+03  0.47611597170E+03  0.00000000000E+00 0. -1.
        -15    1    3    3    0    0  0.74194786612E+02 -0.21226425188E+02  0.17141345096E+03  0.18799243704E+03  0.17770000000E+01 0. -1.
         15    1    3    3    0    0  0.59539877551E+02 -0.30253399049E+02  0.25584664734E+02  0.71540184311E+02  0.17770000000E+01 0.  1.
</event>
<event>
 7    1  0.3234965E-006  0.4158296E+03  0.7546771E-02  0.9610752E-01
        -11   -1    0    0    0    0  0.00000000000E+00  0.00000000000E+00  0.50000000000E+03  0.50000000000E+03  0.00000000000E+00 0. -1.
         11   -1    0    0    0    0 -0.00000000000E+00 -0.00000000000E+00 -0.50000000000E+03  0.50000000000E+03  0.00000000000E+00 0. -1.
         23    2    1    2    0    0 -0.19214958035E+02 -0.74550025220E+02 -0.41415908302E+03  0.43106011744E+03  0.91422961702E+02 0.  0.
        -11    1    1    2    0    0  0.42733493350E+01 -0.86435283963E+02  0.39703640475E+03  0.40635849508E+03  0.00000000000E+00 0. -1.
         11    1    1    2    0    0  0.14941608700E+02  0.16098530918E+03  0.17122678270E+02  0.16258138748E+03  0.00000000000E+00 0. -1.
        -15    1    3    3    0    0 -0.24274973167E+02  0.11421694336E+02 -0.49134874211E+02  0.56010026036E+02  0.17770000000E+01 0.  1.
         15    1    3    3    0    0  0.50600151320E+01 -0.85971719556E+02 -0.36502420881E+03  0.37505009140E+03  0.17770000000E+01 0. -1.
</event>
<event>
 7    1  0.3234965E-006  0.5138316E+03  0.7546771E-02  0.9369382E-01
        -11   -1    0    0    0    0  0.00000000000E+00  0.00000000000E+00  0.50000000000E+03  0.50000000000E+03  0.00000000000E+00 0.  1.
         11   -1    0    0    0    0 -0.00000000000E+00 -0.00000000000E+00 -0.50000000000E+03  0.50000000000E+03  0.00000000000E+00 0. -1.
         23    2    1    2    0    0  0.83312663178E+02 -0.45551297668E+02 -0.34799053379E+03  0.38147676307E+03  0.12414180841E+03 0.  0.
        -11    1    1    2    0    0 -0.10238585192E+03  0.13827814021E+02  0.47506385761E+03  0.48616842753E+03  0.00000000000E+00 0.  1.
         11    1    1    2    0    0  0.19073188742E+02  0.31723483647E+02 -0.12707332382E+03  0.13235480940E+03  0.00000000000E+00 0. -1.
        -15    1    3    3    0    0  0.10256226332E+03 -0.12841367273E+02 -0.31370317720E+03  0.33029798619E+03  0.17770000000E+01 0.  1.
         15    1    3    3    0    0 -0.19249600143E+02 -0.32709930395E+02 -0.34287356590E+02  0.51178776881E+02  0.17770000000E+01 0. -1.
</event>
<event>
 7    1  0.3234965E-006  0.5071103E+03  0.7546771E-02  0.9384039E-01
        -11   -1    0    0    0    0  0.00000000000E+00  0.00000000000E+00  0.50000000000E+03  0.50000000000E+03  0.00000000000E+00 0. -1.
         11   -1    0    0    0    0 -0.00000000000E+00 -0.00000000000E+00 -0.50000000000E+03  0.50000000000E+03  0.00000000000E+00 0.  1.
         23    2    1    2    0    0  0.13472382964E+03  0.79699812188E+02  0.26733305529E+03  0.32318993583E+03  0.92098869907E+02 0.  0.
        -11    1    1    2    0    0  0.92549082823E+02  0.60800183672E+02  0.14684928528E+03  0.18392038400E+03  0.00000000000E+00 0. -1.
         11    1    1    2    0    0 -0.22727291246E+03 -0.14049999586E+03 -0.41418234057E+03  0.49288968016E+03  0.00000000000E+00 0.  1.
        -15    1    3    3    0    0  0.20681193307E+02  0.62539855826E+02  0.87268126015E+02  0.10935185810E+03  0.17770000000E+01 0.  1.
         15    1    3    3    0    0  0.11404263633E+03  0.17159956362E+02  0.18006492927E+03  0.21383807773E+03  0.17770000000E+01 0. -1.
</event>
<event>
 7    1  0.3234965E-006  0.5312222E+03  0.7546771E-02  0.9332536E-01
        -11   -1    0    0    0    0  0.00000000000E+00  0.00000000000E+00  0.50000000000E+03  0.50000000000E+03  0.00000000000E+00 0. -1.
         11   -1    0    0    0    0 -0.00000000000E+00 -0.00000000000E+00 -0.50000000000E+03  0.50000000000E+03  0.00000000000E+00 0.  1.
         23    2    1    2    0    0 -0.31873216628E+02  0.81590875071E+01 -0.37238807439E+03  0.38520444725E+03  0.92882267320E+02 0.  0.
        -11    1    1    2    0    0  0.16123005899E+03 -0.73383063513E+01  0.44011777854E+03  0.46877781694E+03  0.00000000000E+00 0. -1.
         11    1    1    2    0    0 -0.12935684237E+03 -0.82078115579E+00 -0.67729704153E+02  0.14601773582E+03  0.00000000000E+00 0.  1.
        -15    1    3    3    0    0  0.28551796376E+02  0.21920685863E+02 -0.11870874044E+03  0.12405903567E+03  0.17770000000E+01 0. -1.
         15    1    3    3    0    0 -0.60425013003E+02 -0.13761598356E+02 -0.25367933395E+03  0.26114541157E+03  0.17770000000E+01 0.  1.
</event>
<event>
 7    1  0.3234965E-006  0.5206428E+03  0.7546771E-02  0.9354769E-01
        -11   -1    0    0    0    0  0.00000000000E+00  0.00000000000E+00  0.50000000000E+03  0.50000000000E+03  0.00000000000E+00 0.  1.
         11   -1    0    0    0    0 -0.00000000000E+00 -0.00000000000E+00 -0.50000000000E+03  0.50000000000E+03  0.00000000000E+00 0.  1.
         23    2    1    2    0    0  0.98793514890E+01  0.13355928758E+02 -0.35336937589E+03  0.36463578626E+03  0.88393203274E+02 0.  0.
        -11    1    1    2    0    0 -0.10980530184E+03 -0.63202282234E+02  0.46231119125E+03  0.47935724710E+03  0.00000000000E+00 0.  1.
         11    1    1    2    0    0  0.99925950353E+02  0.49846353476E+02 -0.10894181535E+03  0.15600696664E+03  0.00000000000E+00 0.  1.
        -15    1    3    3    0    0  0.37328613360E+02  0.37615227336E+02 -0.19559036981E+03  0.20265014481E+03  0.17770000000E+01 0.  1.
         15    1    3    3    0    0 -0.27449261871E+02 -0.24259298578E+02 -0.15777900608E+03  0.16198564145E+03  0.17770000000E+01 0. -1.
</event>
<event>
 7    1  0.3234965E-006  0.5057778E+03  0.7546771E-02  0.9386973E-01
        -11   -1    0    0    0    0  0.00000000000E+00  0.00000000000E+00  0.50000000000E+03  0.50000000000E+03  0.00000000000E+00 0.  1.
         11   -1    0    0    0    0 -0.00000000000E+00 -0.00000000000E+00 -0.50000000000E+03  0.50000000000E+03  0.00000000000E+00 0. -1.
         23    2    1    2    0    0  0.53286580466E+02 -0.99868048798E+02 -0.47300545041E+03  0.49422221167E+03  0.87797218416E+02 0.  0.
        -11    1    1    2    0    0 -0.72781578446E+02  0.48522039544E+02  0.42150773811E+03  0.43048846648E+03  0.00000000000E+00 0.  1.
         11    1    1    2    0    0  0.19494997980E+02  0.51346009254E+02  0.51497712300E+02  0.75289321850E+02  0.00000000000E+00 0. -1.
        -15    1    3    3    0    0  0.26886715961E+02  0.80633238280E+01 -0.15055836068E+03  0.15316295370E+03  0.17770000000E+01 0.  1.
         15    1    3    3    0    0  0.26399864505E+02 -0.10793137263E+03 -0.32244708973E+03  0.34105925797E+03  0.17770000000E+01 0. -1.
</event>
<event>
 7    1  0.3234965E-006  0.5165293E+03  0.7546771E-02  0.9363565E-01
        -11   -1    0    0    0    0  0.00000000000E+00  0.00000000000E+00  0.50000000000E+03  0.50000000000E+03  0.00000000000E+00 0. -1.
         11   -1    0    0    0    0 -0.00000000000E+00 -0.00000000000E+00 -0.50000000000E+03  0.50000000000E+03  0.00000000000E+00 0.  1.
         23    2    1    2    0    0 -0.59351360740E+02 -0.11331065256E+03  0.29352094309E+03  0.33520402284E+03  0.99223509755E+02 0.  0.
        -11    1    1    2    0    0  0.32921330577E+02  0.99576973752E+01  0.17803341362E+03  0.18132530466E+03  0.00000000000E+00 0. -1.
         11    1    1    2    0    0  0.26430030163E+02  0.10335295519E+03 -0.47155435671E+03  0.48347067251E+03  0.00000000000E+00 0.  1.
        -15    1    3    3    0    0 -0.40168250599E+02 -0.10133816869E+03  0.29287887502E+03  0.31251256927E+03  0.17770000000E+01 0. -1.
         15    1    3    3    0    0 -0.19183110142E+02 -0.11972483872E+02  0.64206807435E+00  0.22691453571E+02  0.17770000000E+01 0.  1.
</event>
<event>
 7    1  0.3234965E-006  0.5261989E+03  0.7546771E-02  0.9343023E-01
        -11   -1    0    0    0    0  0.00000000000E+00  0.00000000000E+00  0.50000000000E+03  0.50000000000E+03  0.00000000000E+00 0. -1.
         11   -1    0    0    0    0 -0.00000000000E+00 -0.00000000000E+00 -0.50000000000E+03  0.50000000000E+03  0.00000000000E+00 0. -1.
         23    2    1    2    0    0 -0.64608862673E+02 -0.12289635166E+03 -0.28551970961E+03  0.34133257753E+03  0.12533397592E+03 0.  0.
        -11    1    1    2    0    0  0.15295000116E+03  0.78035080650E+02  0.44159294937E+03  0.47380112874E+03  0.00000000000E+00 0. -1.
         11    1    1    2    0    0 -0.88341138485E+02  0.44861271014E+02 -0.15607323976E+03  0.18486629372E+03  0.00000000000E+00 0. -1.
        -15    1    3    3    0    0 -0.81281671736E+02 -0.21325257120E+02 -0.13224700392E+03  0.15669685551E+03  0.17770000000E+01 0. -1.
         15    1    3    3    0    0  0.16672809062E+02 -0.10157109454E+03 -0.15327270569E+03  0.18463572203E+03  0.17770000000E+01 0. -1.
</event>
<event>
 7    1  0.3234965E-006  0.3053711E+03  0.7546771E-02  0.9986547E-01
        -11   -1    0    0    0    0  0.00000000000E+00  0.00000000000E+00  0.50000000000E+03  0.50000000000E+03  0.00000000000E+00 0.  1.
         11   -1    0    0    0    0 -0.00000000000E+00 -0.00000000000E+00 -0.50000000000E+03  0.50000000000E+03  0.00000000000E+00 0. -1.
         23    2    1    2    0    0 -0.22178613144E+03  0.25146887421E+03 -0.61673813129E+02  0.35242008066E+03  0.89278055699E+02 0.  0.
        -11    1    1    2    0    0  0.14797323511E+03 -0.25096913753E+02  0.28438126241E+03  0.32155658258E+03  0.00000000000E+00 0.  1.
         11    1    1    2    0    0  0.73812896330E+02 -0.22637196046E+03 -0.22270744929E+03  0.32602333676E+03  0.00000000000E+00 0. -1.
        -15    1    3    3    0    0 -0.21439366812E+03  0.20698908892E+03 -0.35156169235E+02  0.30008039228E+03  0.17770000000E+01 0. -1.
         15    1    3    3    0    0 -0.73924633145E+01  0.44479785285E+02 -0.26517643894E+02  0.52339688379E+02  0.17770000000E+01 0.  1.
</event>
<event>
 7    1  0.3234965E-006  0.4303593E+03  0.7546771E-02  0.9570721E-01
        -11   -1    0    0    0    0  0.00000000000E+00  0.00000000000E+00  0.50000000000E+03  0.50000000000E+03  0.00000000000E+00 0. -1.
         11   -1    0    0    0    0 -0.00000000000E+00 -0.00000000000E+00 -0.50000000000E+03  0.50000000000E+03  0.00000000000E+00 0.  1.
         23    2    1    2    0    0 -0.10288391756E+03  0.37891756581E+03  0.15602116227E+03  0.43231004927E+03  0.91573759610E+02 0.  0.
        -11    1    1    2    0    0 -0.63646424357E+00 -0.66937900618E+02  0.12069517664E+03  0.13801598926E+03  0.00000000000E+00 0. -1.
         11    1    1    2    0    0  0.10352038181E+03 -0.31197966520E+03 -0.27671633891E+03  0.42967396147E+03  0.00000000000E+00 0.  1.
        -15    1    3    3    0    0 -0.54550296430E+02  0.67291400620E+02  0.20311645085E+02  0.88992067585E+02  0.17770000000E+01 0.  1.
         15    1    3    3    0    0 -0.48333621133E+02  0.31162616519E+03  0.13570951719E+03  0.34331798169E+03  0.17770000000E+01 0. -1.
</event>
<event>
 7    1  0.3234965E-006  0.4111802E+03  0.7546771E-02  0.9623932E-01
        -11   -1    0    0    0    0  0.00000000000E+00  0.00000000000E+00  0.50000000000E+03  0.50000000000E+03  0.00000000000E+00 0. -1.
         11   -1    0    0    0    0 -0.00000000000E+00 -0.00000000000E+00 -0.50000000000E+03  0.50000000000E+03  0.00000000000E+00 0.  1.
         23    2    1    2    0    0 -0.15579995881E+02 -0.54245741277E+02 -0.35645721406E+03  0.37197263970E+03  0.90091966987E+02 0.  0.
        -11    1    1    2    0    0 -0.74320338168E+02 -0.57065832515E+02  0.44831158781E+03  0.45799923763E+03  0.00000000000E+00 0. -1.
         11    1    1    2    0    0  0.89900334049E+02  0.11131157379E+03 -0.91854373746E+02  0.17002812267E+03  0.00000000000E+00 0.  1.
        -15    1    3    3    0    0  0.28743708562E+02 -0.50557089711E+02 -0.24805206114E+03  0.25478462054E+03  0.17770000000E+01 0.  1.
         15    1    3    3    0    0 -0.44323704443E+02 -0.36886515654E+01 -0.10840515292E+03  0.11718801916E+03  0.17770000000E+01 0. -1.
</event>
<event>
 7    1  0.3234965E-006  0.5275602E+03  0.7546771E-02  0.9340169E-01
        -11   -1    0    0    0    0  0.00000000000E+00  0.00000000000E+00  0.50000000000E+03  0.50000000000E+03  0.00000000000E+00 0. -1.
         11   -1    0    0    0    0 -0.00000000000E+00 -0.00000000000E+00 -0.50000000000E+03  0.50000000000E+03  0.00000000000E+00 0.  1.
         23    2    1    2    0    0  0.53583685263E+02  0.99671922142E+02 -0.21519942267E+03  0.26067982536E+03  0.94007853098E+02 0.  0.
        -11    1    1    2    0    0  0.68334282537E+02 -0.12041704690E+03  0.45169629775E+03  0.47243982130E+03  0.00000000000E+00 0. -1.
         11    1    1    2    0    0 -0.12191796780E+03  0.20745124754E+02 -0.23649687508E+03  0.26688035334E+03  0.00000000000E+00 0.  1.
        -15    1    3    3    0    0  0.15988891472E+02 -0.32749425229E+01  0.28194800030E+01  0.16657643757E+02  0.17770000000E+01 0.  1.
         15    1    3    3    0    0  0.37594793791E+02  0.10294686466E+03 -0.21801890267E+03  0.24402218160E+03  0.17770000000E+01 0. -1.
</event>
<event>
 7    1  0.3234965E-006  0.3966458E+03  0.7546771E-02  0.9666364E-01
        -11   -1    0    0    0    0  0.00000000000E+00  0.00000000000E+00  0.50000000000E+03  0.50000000000E+03  0.00000000000E+00 0.  1.
         11   -1    0    0    0    0 -0.00000000000E+00 -0.00000000000E+00 -0.50000000000E+03  0.50000000000E+03  0.00000000000E+00 0. -1.
         23    2    1    2    0    0  0.18219824074E+02 -0.20618069121E+02 -0.35512443193E+03  0.36774323238E+03  0.91458493577E+02 0.  0.
        -11    1    1    2    0    0 -0.19232588772E+03  0.10172243493E+03  0.38070646612E+03  0.43849072305E+03  0.00000000000E+00 0.  1.
         11    1    1    2    0    0  0.17410606365E+03 -0.81104365814E+02 -0.25582034193E+02  0.19376604456E+03  0.00000000000E+00 0. -1.
        -15    1    3    3    0    0 -0.26019052767E+02 -0.38922278597E+02 -0.15266426056E+03  0.15969179397E+03  0.17770000000E+01 0.  1.
         15    1    3    3    0    0  0.44238876841E+02  0.18304209476E+02 -0.20246017136E+03  0.20805143841E+03  0.17770000000E+01 0. -1.
</event>
<event>
 7    1  0.3234965E-006  0.5118986E+03  0.7546771E-02  0.9373572E-01
        -11   -1    0    0    0    0  0.00000000000E+00  0.00000000000E+00  0.50000000000E+03  0.50000000000E+03  0.00000000000E+00 0.  1.
         11   -1    0    0    0    0 -0.00000000000E+00 -0.00000000000E+00 -0.50000000000E+03  0.50000000000E+03  0.00000000000E+00 0. -1.
         23    2    1    2    0    0 -0.68854319505E+02 -0.97778253823E+02  0.29975604824E+03  0.33561272869E+03  0.92090775716E+02 0.  0.
        -11    1    1    2    0    0  0.38971276843E+02 -0.57614921038E+02  0.16198296054E+03  0.17628590145E+03  0.00000000000E+00 0.  1.
         11    1    1    2    0    0  0.29883042662E+02  0.15539317486E+03 -0.46173900877E+03  0.48810136986E+03  0.00000000000E+00 0. -1.
        -15    1    3    3    0    0 -0.68924727433E+02 -0.18222486413E+02  0.13749224666E+03  0.15488690288E+03  0.17770000000E+01 0.  1.
         15    1    3    3    0    0  0.70407928642E-01 -0.79555767410E+02  0.16226380158E+03  0.18072582582E+03  0.17770000000E+01 0. -1.
</event>
<event>
 7    1  0.3234965E-006  0.5295812E+03  0.7546771E-02  0.9335948E-01
        -11   -1    0    0    0    0  0.00000000000E+00  0.00000000000E+00  0.50000000000E+03  0.50000000000E+03  0.00000000000E+00 0. -1.
         11   -1    0    0    0    0 -0.00000000000E+00 -0.00000000000E+00 -0.50000000000E+03  0.50000000000E+03  0.00000000000E+00 0.  1.
         23    2    1    2    0    0  0.38643813683E+02  0.26278012268E+02 -0.29634577174E+03  0.31293569819E+03  0.89017169759E+02 0.  0.
        -11    1    1    2    0    0  0.88970627533E+02 -0.11465324252E+03  0.44747369197E+03  0.47041879596E+03  0.00000000000E+00 0. -1.
         11    1    1    2    0    0 -0.12761444122E+03  0.88375230250E+02 -0.15112792024E+03  0.21664550585E+03  0.00000000000E+00 0.  1.
        -15    1    3    3    0    0 -0.14605268305E+02 -0.21211933511E+02 -0.47555958702E+02  0.54110876195E+02  0.17770000000E+01 0.  1.
         15    1    3    3    0    0  0.53249081988E+02  0.47489945780E+02 -0.24878981303E+03  0.25882482200E+03  0.17770000000E+01 0. -1.
</event>
<event>
 7    1  0.3234965E-006  0.5268144E+03  0.7546771E-02  0.9341732E-01
        -11   -1    0    0    0    0  0.00000000000E+00  0.00000000000E+00  0.50000000000E+03  0.50000000000E+03  0.00000000000E+00 0. -1.
         11   -1    0    0    0    0 -0.00000000000E+00 -0.00000000000E+00 -0.50000000000E+03  0.50000000000E+03  0.00000000000E+00 0. -1.
         23    2    1    2    0    0 -0.32916118282E+02  0.32382622424E+02 -0.12620030140E+03  0.16182510609E+03  0.90159546425E+02 0.  0.
        -11    1    1    2    0    0 -0.14334150881E+02  0.10425095824E+03  0.46133593280E+03  0.47318555881E+03  0.00000000000E+00 0. -1.
         11    1    1    2    0    0  0.47250269164E+02 -0.13663358066E+03 -0.33513563140E+03  0.36498933510E+03  0.00000000000E+00 0. -1.
        -15    1    3    3    0    0  0.22155525402E+02 -0.13364091744E+02 -0.55152162008E+02  0.60945754217E+02  0.17770000000E+01 0.  1.
         15    1    3    3    0    0 -0.55071643684E+02  0.45746714168E+02 -0.71048139390E+02  0.10087935188E+03  0.17770000000E+01 0. -1.
</event>
<event>
 7    1  0.3234965E-006  0.5125740E+03  0.7546771E-02  0.9372106E-01
        -11   -1    0    0    0    0  0.00000000000E+00  0.00000000000E+00  0.50000000000E+03  0.50000000000E+03  0.00000000000E+00 0.  1.
         11   -1    0    0    0    0 -0.00000000000E+00 -0.00000000000E+00 -0.50000000000E+03  0.50000000000E+03  0.00000000000E+00 0. -1.
         23    2    1    2    0    0  0.26479725409E+02 -0.95244597551E+02 -0.35014102965E+03  0.37487366470E+03  0.90326156901E+02 0.  0.
        -11    1    1    2    0    0  0.30159641601E+02  0.10332351988E+03  0.47539321045E+03  0.48742595159E+03  0.00000000000E+00 0.  1.
         11    1    1    2    0    0 -0.56639367010E+02 -0.80789223269E+01 -0.12525218080E+03  0.13770038372E+03  0.00000000000E+00 0. -1.
        -15    1    3    3    0    0 -0.17026748091E+02 -0.53879514153E+01 -0.10355030654E+02  0.20720148645E+02  0.17770000000E+01 0.  1.
         15    1    3    3    0    0  0.43506473500E+02 -0.89856646135E+02 -0.33978599899E+03  0.35415351605E+03  0.17770000000E+01 0. -1.
</event>
<event>
 7    1  0.3234965E-006  0.3553030E+03  0.7546771E-02  0.9798545E-01
        -11   -1    0    0    0    0  0.00000000000E+00  0.00000000000E+00  0.50000000000E+03  0.50000000000E+03  0.00000000000E+00 0.  1.
         11   -1    0    0    0    0 -0.00000000000E+00 -0.00000000000E+00 -0.50000000000E+03  0.50000000000E+03  0.00000000000E+00 0. -1.
         23    2    1    2    0    0  0.33931104675E+03 -0.90604753499E+02 -0.51991317276E+02  0.36851858253E+03  0.98801016167E+02 0.  0.
        -11    1    1    2    0    0 -0.23514098891E+02  0.57421608033E+02  0.24978790676E+03  0.25737939365E+03  0.00000000000E+00 0.  1.
         11    1    1    2    0    0 -0.31579694785E+03  0.33183145466E+02 -0.19779658948E+03  0.37410202382E+03  0.00000000000E+00 0. -1.
        -15    1    3    3    0    0  0.31866277972E+03 -0.79690170716E+02 -0.20295590713E+02  0.32910721539E+03  0.17770000000E+01 0.  1.
         15    1    3    3    0    0  0.20648267024E+02 -0.10914582782E+02 -0.31695726564E+02  0.39411367139E+02  0.17770000000E+01 0. -1.
</event>
<event>
 7    1  0.3234965E-006  0.5344366E+03  0.7546771E-02  0.9325889E-01
        -11   -1    0    0    0    0  0.00000000000E+00  0.00000000000E+00  0.50000000000E+03  0.50000000000E+03  0.00000000000E+00 0. -1.
         11   -1    0    0    0    0 -0.00000000000E+00 -0.00000000000E+00 -0.50000000000E+03  0.50000000000E+03  0.00000000000E+00 0.  1.
         23    2    1    2    0    0 -0.15609320148E+01  0.19347207936E+02 -0.66952997151E+02  0.11334698677E+03  0.89376085267E+02 0.  0.
        -11    1    1    2    0    0  0.25484617109E+03  0.13748072287E+03  0.36455689258E+03  0.46556336626E+03  0.00000000000E+00 0. -1.
         11    1    1    2    0    0 -0.25328523908E+03 -0.15682793080E+03 -0.29760389542E+03  0.42108964697E+03  0.00000000000E+00 0.  1.
        -15    1    3    3    0    0  0.17470491319E+02 -0.28519281092E+02 -0.68769377416E+01  0.34190897365E+02  0.17770000000E+01 0.  1.
         15    1    3    3    0    0 -0.19031423334E+02  0.47866489028E+02 -0.60076059409E+02  0.79156089401E+02  0.17770000000E+01 0. -1.
</event>
<event>
 7    1  0.3234965E-006  0.3681876E+03  0.7546771E-02  0.9755368E-01
        -11   -1    0    0    0    0  0.00000000000E+00  0.00000000000E+00  0.50000000000E+03  0.50000000000E+03  0.00000000000E+00 0. -1.
         11   -1    0    0    0    0 -0.00000000000E+00 -0.00000000000E+00 -0.50000000000E+03  0.50000000000E+03  0.00000000000E+00 0. -1.
         23    2    1    2    0    0 -0.73270393315E+02 -0.10936311683E+03 -0.29976462163E+03  0.34007589145E+03  0.91999683183E+02 0.  0.
        -11    1    1    2    0    0  0.40753179972E+02 -0.99046919815E+02  0.40871604646E+03  0.42251617796E+03  0.00000000000E+00 0. -1.
         11    1    1    2    0    0  0.32517213343E+02  0.20841003664E+03 -0.10895142483E+03  0.23740793060E+03  0.00000000000E+00 0. -1.
        -15    1    3    3    0    0  0.14668949559E+02  0.90228009216E+00 -0.60914170670E+02  0.62687208487E+02  0.17770000000E+01 0.  1.
         15    1    3    3    0    0 -0.87939342874E+02 -0.11026539692E+03 -0.23885045096E+03  0.27738868296E+03  0.17770000000E+01 0. -1.
</event>
<event>
 7    1  0.3789664E-006  0.5104615E+03  0.7546771E-02  0.9376701E-01
        -11   -1    0    0    0    0  0.00000000000E+00  0.00000000000E+00  0.50000000000E+03  0.50000000000E+03  0.00000000000E+00 0.  1.
         11   -1    0    0    0    0 -0.00000000000E+00 -0.00000000000E+00 -0.50000000000E+03  0.50000000000E+03  0.00000000000E+00 0.  1.
         23    2    1    2    0    0 -0.51714799826E+01 -0.21239768941E+02  0.34316871706E+03  0.35424572747E+03  0.85131633800E+02 0.  0.
        -11    1    1    2    0    0  0.36759478205E+02 -0.63389296521E+02  0.13796338162E+03  0.15621573806E+03  0.00000000000E+00 0.  1.
         11    1    1    2    0    0 -0.31587998223E+02  0.84629065462E+02 -0.48113209868E+03  0.48953853447E+03  0.00000000000E+00 0.  1.
        -15    1    3    3    0    0  0.35997841231E+02 -0.14028959876E+02  0.94921138501E+02  0.10249798316E+03  0.17770000000E+01 0. -1.
         15    1    3    3    0    0 -0.41169321214E+02 -0.72108090643E+01  0.24824757856E+03  0.25174774431E+03  0.17770000000E+01 0.  1.
</event>
<event>
 7    1  0.3234965E-006  0.4104701E+03  0.7546771E-02  0.9625961E-01
        -11   -1    0    0    0    0  0.00000000000E+00  0.00000000000E+00  0.50000000000E+03  0.50000000000E+03  0.00000000000E+00 0.  1.
         11   -1    0    0    0    0 -0.00000000000E+00 -0.00000000000E+00 -0.50000000000E+03  0.50000000000E+03  0.00000000000E+00 0. -1.
         23    2    1    2    0    0 -0.54835263671E+02  0.92321279403E+02 -0.81045139524E+02  0.16810988918E+03  0.10080920308E+03 0.  0.
        -11    1    1    2    0    0 -0.12827766410E+03 -0.60309615736E+02  0.42111448849E+03  0.44433075662E+03  0.00000000000E+00 0.  1.
         11    1    1    2    0    0  0.18311292777E+03 -0.32011663667E+02 -0.34006934897E+03  0.38755935421E+03  0.00000000000E+00 0. -1.
        -15    1    3    3    0    0 -0.10135724289E+02  0.10106602944E+03 -0.58978809702E+02  0.11746800814E+03  0.17770000000E+01 0.  1.
         15    1    3    3    0    0 -0.44699539382E+02 -0.87447500356E+01 -0.22066329822E+02  0.50641881037E+02  0.17770000000E+01 0. -1.
</event>
<event>
 7    1  0.3234965E-006  0.3668674E+03  0.7546771E-02  0.9759704E-01
        -11   -1    0    0    0    0  0.00000000000E+00  0.00000000000E+00  0.50000000000E+03  0.50000000000E+03  0.00000000000E+00 0.  1.
         11   -1    0    0    0    0 -0.00000000000E+00 -0.00000000000E+00 -0.50000000000E+03  0.50000000000E+03  0.00000000000E+00 0. -1.
         23    2    1    2    0    0  0.30860952034E+02  0.16529257561E+03 -0.30900280282E+03  0.35990271832E+03  0.75981580574E+02 0.  0.
        -11    1    1    2    0    0  0.93621113945E+02  0.18002258162E+02  0.39205066355E+03  0.40347579490E+03  0.00000000000E+00 0.  1.
         11    1    1    2    0    0 -0.12448206598E+03 -0.18329483377E+03 -0.83047860729E+02  0.23662148679E+03  0.00000000000E+00 0. -1.
        -15    1    3    3    0    0  0.35749380163E+02  0.15139938868E+03 -0.30796740761E+03  0.34503170137E+03  0.17770000000E+01 0. -1.
         15    1    3    3    0    0 -0.48884281291E+01  0.13893186935E+02 -0.10353952173E+01  0.14871016947E+02  0.17770000000E+01 0.  1.
</event>
<event>
 7    1  0.3234965E-006  0.5142132E+03  0.7546771E-02  0.9368556E-01
        -11   -1    0    0    0    0  0.00000000000E+00  0.00000000000E+00  0.50000000000E+03  0.50000000000E+03  0.00000000000E+00 0.  1.
         11   -1    0    0    0    0 -0.00000000000E+00 -0.00000000000E+00 -0.50000000000E+03  0.50000000000E+03  0.00000000000E+00 0.  1.
         23    2    1    2    0    0  0.57056370661E+02 -0.55266508398E+02  0.30332609893E+03  0.32951489217E+03  0.10130905926E+03 0.  0.
        -11    1    1    2    0    0  0.29299811092E+02  0.52249691836E+02  0.17471395675E+03  0.18469833759E+03  0.00000000000E+00 0.  1.
         11    1    1    2    0    0 -0.86356181754E+02  0.30168165623E+01 -0.47804005567E+03  0.48578677024E+03  0.00000000000E+00 0.  1.
        -15    1    3    3    0    0  0.58599100145E+02  0.11292731174E+02  0.17552484747E+03  0.18540094423E+03  0.17770000000E+01 0.  1.
         15    1    3    3    0    0 -0.15427294838E+01 -0.66559239572E+02  0.12780125146E+03  0.14411394794E+03  0.17770000000E+01 0. -1.
</event>
<event>
 7    1  0.3234965E-006  0.4150044E+03  0.7546771E-02  0.9613078E-01
        -11   -1    0    0    0    0  0.00000000000E+00  0.00000000000E+00  0.50000000000E+03  0.50000000000E+03  0.00000000000E+00 0. -1.
         11   -1    0    0    0    0 -0.00000000000E+00 -0.00000000000E+00 -0.50000000000E+03  0.50000000000E+03  0.00000000000E+00 0.  1.
         23    2    1    2    0    0 -0.11561080287E+03  0.12493544633E+03 -0.31955012363E+03  0.37307376251E+03  0.89983483307E+02 0.  0.
        -11    1    1    2    0    0  0.66394529539E+02 -0.48814963554E+02  0.45584880799E+03  0.46323781146E+03  0.00000000000E+00 0. -1.
         11    1    1    2    0    0  0.49216273334E+02 -0.76120482777E+02 -0.13629868436E+03  0.16368842603E+03  0.00000000000E+00 0.  1.
        -15    1    3    3    0    0 -0.11412059880E+03  0.13725028968E+03 -0.28463839321E+03  0.33598113891E+03  0.17770000000E+01 0.  1.
         15    1    3    3    0    0 -0.14902040756E+01 -0.12314843353E+02 -0.34911730422E+02  0.37092623594E+02  0.17770000000E+01 0. -1.
</event>
<event>
 7    1  0.3234965E-006  0.5290525E+03  0.7546771E-02  0.9337051E-01
        -11   -1    0    0    0    0  0.00000000000E+00  0.00000000000E+00  0.50000000000E+03  0.50000000000E+03  0.00000000000E+00 0.  1.
         11   -1    0    0    0    0 -0.00000000000E+00 -0.00000000000E+00 -0.50000000000E+03  0.50000000000E+03  0.00000000000E+00 0.  1.
         23    2    1    2    0    0  0.26516025710E+02 -0.73033995162E+02 -0.67334410868E+02  0.13568911939E+03  0.88546881169E+02 0.  0.
        -11    1    1    2    0    0  0.34626165316E+02  0.12717867273E+03  0.45212624293E+03  0.47094747655E+03  0.00000000000E+00 0.  1.
         11    1    1    2    0    0 -0.61142191026E+02 -0.54144677564E+02 -0.38479183206E+03  0.39336340406E+03  0.00000000000E+00 0.  1.
        -15    1    3    3    0    0  0.40041630008E+02 -0.74541705312E+02 -0.80403199088E+02  0.11673744094E+03  0.17770000000E+01 0. -1.
         15    1    3    3    0    0 -0.13525604298E+02  0.15077101493E+01  0.13068788220E+02  0.18951678450E+02  0.17770000000E+01 0.  1.
</event>
<event>
 7    1  0.3234965E-006  0.5297429E+03  0.7546771E-02  0.9335612E-01
        -11   -1    0    0    0    0  0.00000000000E+00  0.00000000000E+00  0.50000000000E+03  0.50000000000E+03  0.00000000000E+00 0. -1.
         11   -1    0    0    0    0 -0.00000000000E+00 -0.00000000000E+00 -0.50000000000E+03  0.50000000000E+03  0.00000000000E+00 0.  1.
         23    2    1    2    0    0  0.29658491527E+01  0.14102295332E+03  0.23469013479E+03  0.29466258290E+03  0.10885912350E+03 0.  0.
        -11    1    1    2    0    0 -0.92192586450E+02 -0.31743193569E+02  0.21390572732E+03  0.23508033418E+03  0.00000000000E+00 0. -1.
         11    1    1    2    0    0  0.89226737297E+02 -0.10927975975E+03 -0.44859586211E+03  0.47025708293E+03  0.00000000000E+00 0.  1.
        -15    1    3    3    0    0  0.37995548420E+02  0.18601077701E+02  0.10351296766E+03  0.11183807041E+03  0.17770000000E+01 0. -1.
         15    1    3    3    0    0 -0.35029699267E+02  0.12242187562E+03  0.13117716713E+03  0.18282451248E+03  0.17770000000E+01 0.  1.
</event>
<event>
 7    1  0.3234965E-006  0.5185393E+03  0.7546771E-02  0.9359256E-01
        -11   -1    0    0    0    0  0.00000000000E+00  0.00000000000E+00  0.50000000000E+03  0.50000000000E+03  0.00000000000E+00 0.  1.
         11   -1    0    0    0    0 -0.00000000000E+00 -0.00000000000E+00 -0.50000000000E+03  0.50000000000E+03  0.00000000000E+00 0. -1.
         23    2    1    2    0    0  0.10658231516E+01  0.72763779752E+02 -0.76573676885E+02  0.13878638855E+03  0.90013499163E+02 0.  0.
        -11    1    1    2    0    0  0.90207722972E+02 -0.37027760599E+03  0.29421322433E+03  0.48146065276E+03  0.00000000000E+00 0.  1.
         11    1    1    2    0    0 -0.91273546124E+02  0.29751382624E+03 -0.21763954745E+03  0.37975295870E+03  0.00000000000E+00 0. -1.
        -15    1    3    3    0    0  0.25370469933E+02  0.77008032855E+02 -0.79876889693E+02  0.11383045772E+03  0.17770000000E+01 0.  1.
         15    1    3    3    0    0 -0.24304646782E+02 -0.42442531025E+01  0.33032128083E+01  0.24955930827E+02  0.17770000000E+01 0. -1.
</event>
<event>
 7    1  0.3234965E-006  0.3573290E+03  0.7546771E-02  0.9791627E-01
        -11   -1    0    0    0    0  0.00000000000E+00  0.00000000000E+00  0.50000000000E+03  0.50000000000E+03  0.00000000000E+00 0.  1.
         11   -1    0    0    0    0 -0.00000000000E+00 -0.00000000000E+00 -0.50000000000E+03  0.50000000000E+03  0.00000000000E+00 0. -1.
         23    2    1    2    0    0 -0.13695821574E+03  0.73313109460E+01 -0.26272900112E+03  0.31049058424E+03  0.92555787990E+02 0.  0.
        -11    1    1    2    0    0  0.14185658405E+03  0.23387166836E+03  0.33982804305E+03  0.43623657177E+03  0.00000000000E+00 0.  1.
         11    1    1    2    0    0 -0.48983683057E+01 -0.24120297931E+03 -0.77099041931E+02  0.25327284400E+03  0.00000000000E+00 0. -1.
        -15    1    3    3    0    0 -0.36644562094E+01  0.24097688536E+02 -0.15007051545E+02  0.28679193803E+02  0.17770000000E+01 0.  1.
         15    1    3    3    0    0 -0.13329375953E+03 -0.16766377590E+02 -0.24772194958E+03  0.28181139043E+03  0.17770000000E+01 0. -1.
</event>
<event>
 7    1  0.3234965E-006  0.4296101E+03  0.7546771E-02  0.9572744E-01
        -11   -1    0    0    0    0  0.00000000000E+00  0.00000000000E+00  0.50000000000E+03  0.50000000000E+03  0.00000000000E+00 0.  1.
         11   -1    0    0    0    0 -0.00000000000E+00 -0.00000000000E+00 -0.50000000000E+03  0.50000000000E+03  0.00000000000E+00 0.  1.
         23    2    1    2    0    0  0.59605982500E+02  0.56270097679E+02 -0.41954575494E+03  0.43701152774E+03  0.90781263765E+02 0.  0.
        -11    1    1    2    0    0 -0.21893641730E+02  0.77636271136E+02  0.41608292869E+03  0.42382983105E+03  0.00000000000E+00 0.  1.
         11    1    1    2    0    0 -0.37712340770E+02 -0.13390636882E+03  0.34628262490E+01  0.13915864120E+03  0.00000000000E+00 0.  1.
        -15    1    3    3    0    0  0.70753227797E+01  0.58484306727E+02 -0.30920026975E+03  0.31476727731E+03  0.17770000000E+01 0.  1.
         15    1    3    3    0    0  0.52530659720E+02 -0.22142090474E+01 -0.11034548519E+03  0.12224425043E+03  0.17770000000E+01 0. -1.
</event>
<event>
 7    1  0.3234965E-006  0.5141654E+03  0.7546771E-02  0.9368660E-01
        -11   -1    0    0    0    0  0.00000000000E+00  0.00000000000E+00  0.50000000000E+03  0.50000000000E+03  0.00000000000E+00 0.  1.
         11   -1    0    0    0    0 -0.00000000000E+00 -0.00000000000E+00 -0.50000000000E+03  0.50000000000E+03  0.00000000000E+00 0.  1.
         23    2    1    2    0    0  0.18100928722E+02  0.29884739464E+02 -0.26722089572E+03  0.28426788539E+03  0.90446018592E+02 0.  0.
        -11    1    1    2    0    0 -0.11049358705E+03  0.15159515941E+02  0.47286006339E+03  0.48583462542E+03  0.00000000000E+00 0.  1.
         11    1    1    2    0    0  0.92392658328E+02 -0.45044255405E+02 -0.20563916767E+03  0.22989748919E+03  0.00000000000E+00 0.  1.
        -15    1    3    3    0    0  0.19744633929E+02 -0.26491619333E+02 -0.50907979511E+02  0.60716032238E+02  0.17770000000E+01 0.  1.
         15    1    3    3    0    0 -0.16437052069E+01  0.56376358796E+02 -0.21631291621E+03  0.22355185315E+03  0.17770000000E+01 0. -1.
</event>
<event>
 7    1  0.3234965E-006  0.5370282E+03  0.7546771E-02  0.9320567E-01
        -11   -1    0    0    0    0  0.00000000000E+00  0.00000000000E+00  0.50000000000E+03  0.50000000000E+03  0.00000000000E+00 0.  1.
         11   -1    0    0    0    0 -0.00000000000E+00 -0.00000000000E+00 -0.50000000000E+03  0.50000000000E+03  0.00000000000E+00 0. -1.
         23    2    1    2    0    0 -0.39540451800E+02 -0.31267657878E+02 -0.23265628488E+03  0.25405826984E+03  0.88744260778E+02 0.  0.
        -11    1    1    2    0    0  0.27319105556E+03 -0.49172178735E+02  0.37052880470E+03  0.46297176060E+03  0.00000000000E+00 0.  1.
         11    1    1    2    0    0 -0.23365060376E+03  0.80439836613E+02 -0.13787251982E+03  0.28296996956E+03  0.00000000000E+00 0. -1.
        -15    1    3    3    0    0  0.26243982675E+01  0.20661710723E+02 -0.13427500186E+02  0.24844501333E+02  0.17770000000E+01 0.  1.
         15    1    3    3    0    0 -0.42164850067E+02 -0.51929368601E+02 -0.21922878470E+03  0.22921376851E+03  0.17770000000E+01 0. -1.
</event>
<event>
 7    1  0.3234965E-006  0.5214233E+03  0.7546771E-02  0.9353109E-01
        -11   -1    0    0    0    0  0.00000000000E+00  0.00000000000E+00  0.50000000000E+03  0.50000000000E+03  0.00000000000E+00 0. -1.
         11   -1    0    0    0    0 -0.00000000000E+00 -0.00000000000E+00 -0.50000000000E+03  0.50000000000E+03  0.00000000000E+00 0. -1.
         23    2    1    2    0    0  0.65835956835E+01  0.42007061571E+02 -0.29861860232E+03  0.31499463338E+03  0.90777819170E+02 0.  0.
        -11    1    1    2    0    0 -0.54696361232E+02  0.59726351332E+02  0.47167434040E+03  0.47857665255E+03  0.00000000000E+00 0. -1.
         11    1    1    2    0    0  0.48112765549E+02 -0.10173341290E+03 -0.17305573808E+03  0.20642871407E+03  0.00000000000E+00 0. -1.
        -15    1    3    3    0    0  0.89287399561E+01 -0.27056734429E+02 -0.12280972244E+03  0.12608399950E+03  0.17770000000E+01 0.  1.
         15    1    3    3    0    0 -0.23451442726E+01  0.69063796000E+02 -0.17580887988E+03  0.18891063388E+03  0.17770000000E+01 0. -1.
</event>
<event>
 7    1  0.3234965E-006  0.5238307E+03  0.7546771E-02  0.9348011E-01
        -11   -1    0    0    0    0  0.00000000000E+00  0.00000000000E+00  0.50000000000E+03  0.50000000000E+03  0.00000000000E+00 0. -1.
         11   -1    0    0    0    0 -0.00000000000E+00 -0.00000000000E+00 -0.50000000000E+03  0.50000000000E+03  0.00000000000E+00 0.  1.
         23    2    1    2    0    0  0.61522282659E+02  0.33332489604E+02  0.16154092237E+03  0.19775974395E+03  0.90096618144E+02 0.  0.
        -11    1    1    2    0    0  0.12884208477E+03  0.24090761210E+03  0.17800428760E+03  0.32607098427E+03  0.00000000000E+00 0. -1.
         11    1    1    2    0    0 -0.19036436743E+03 -0.27424010171E+03 -0.33954520998E+03  0.47616927178E+03  0.00000000000E+00 0.  1.
        -15    1    3    3    0    0  0.64122657950E+02 -0.12718821923E+02  0.73711027819E+02  0.98539114289E+02  0.17770000000E+01 0.  1.
         15    1    3    3    0    0 -0.26003752903E+01  0.46051311526E+02  0.87829894552E+02  0.99220629664E+02  0.17770000000E+01 0. -1.
</event>
<event>
 7    1  0.3234965E-006  0.5319581E+03  0.7546771E-02  0.9331010E-01
        -11   -1    0    0    0    0  0.00000000000E+00  0.00000000000E+00  0.50000000000E+03  0.50000000000E+03  0.00000000000E+00 0.  1.
         11   -1    0    0    0    0 -0.00000000000E+00 -0.00000000000E+00 -0.50000000000E+03  0.50000000000E+03  0.00000000000E+00 0. -1.
         23    2    1    2    0    0 -0.78086457795E+01 -0.41957462781E+02 -0.24199478033E+03  0.26210092087E+03  0.91181222751E+02 0.  0.
        -11    1    1    2    0    0 -0.54838676996E+02  0.26333409438E+03  0.38302882936E+03  0.46804188902E+03  0.00000000000E+00 0.  1.
         11    1    1    2    0    0  0.62647322776E+02 -0.22137663160E+03 -0.14103404904E+03  0.26985719011E+03  0.00000000000E+00 0. -1.
        -15    1    3    3    0    0 -0.28039047797E+02 -0.57791430622E+02 -0.21661275047E+03  0.22594308808E+03  0.17770000000E+01 0. -1.
         15    1    3    3    0    0  0.20230402017E+02  0.15833967841E+02 -0.25382029851E+02  0.36157832785E+02  0.17770000000E+01 0.  1.
</event>
<event>
 7    1  0.3234965E-006  0.5234024E+03  0.7546771E-02  0.9348916E-01
        -11   -1    0    0    0    0  0.00000000000E+00  0.00000000000E+00  0.50000000000E+03  0.50000000000E+03  0.00000000000E+00 0.  1.
         11   -1    0    0    0    0 -0.00000000000E+00 -0.00000000000E+00 -0.50000000000E+03  0.50000000000E+03  0.00000000000E+00 0. -1.
         23    2    1    2    0    0 -0.70134875467E+02  0.40342078855E+02 -0.10990543847E+03  0.16202941337E+03  0.87338086239E+02 0.  0.
        -11    1    1    2    0    0  0.10550229596E+03  0.20800147357E+02  0.46430800922E+03  0.47659763743E+03  0.00000000000E+00 0.  1.
         11    1    1    2    0    0 -0.35367420498E+02 -0.61142226212E+02 -0.35440257075E+03  0.36137294920E+03  0.00000000000E+00 0. -1.
        -15    1    3    3    0    0 -0.34251239178E+02  0.64022589897E+02 -0.86833509634E+02  0.11320448545E+03  0.17770000000E+01 0. -1.
         15    1    3    3    0    0 -0.35883636289E+02 -0.23680511042E+02 -0.23071928834E+02  0.48824927913E+02  0.17770000000E+01 0.  1.
</event>
<event>
 7    1  0.3234965E-006  0.3913019E+03  0.7546771E-02  0.9682456E-01
        -11   -1    0    0    0    0  0.00000000000E+00  0.00000000000E+00  0.50000000000E+03  0.50000000000E+03  0.00000000000E+00 0.  1.
         11   -1    0    0    0    0 -0.00000000000E+00 -0.00000000000E+00 -0.50000000000E+03  0.50000000000E+03  0.00000000000E+00 0. -1.
         23    2    1    2    0    0  0.16070814698E+03 -0.56258226153E+02 -0.35669966983E+02  0.19829366086E+03  0.95162665352E+02 0.  0.
        -11    1    1    2    0    0 -0.16759777500E+03 -0.97159196668E+02  0.37897460348E+03  0.42561799042E+03  0.00000000000E+00 0.  1.
         11    1    1    2    0    0  0.68896280183E+01  0.15341742282E+03 -0.34330463650E+03  0.37608834872E+03  0.00000000000E+00 0. -1.
        -15    1    3    3    0    0  0.13082793719E+02  0.13851830550E+02  0.17998088243E+02  0.26270165787E+02  0.17770000000E+01 0.  1.
         15    1    3    3    0    0  0.14762535326E+03 -0.70110056703E+02 -0.53668055225E+02  0.17202349507E+03  0.17770000000E+01 0. -1.
</event>
<event>
 7    1  0.3234965E-006  0.3578966E+03  0.7546771E-02  0.9789698E-01
        -11   -1    0    0    0    0  0.00000000000E+00  0.00000000000E+00  0.50000000000E+03  0.50000000000E+03  0.00000000000E+00 0.  1.
         11   -1    0    0    0    0 -0.00000000000E+00 -0.00000000000E+00 -0.50000000000E+03  0.50000000000E+03  0.00000000000E+00 0.  1.
         23    2    1    2    0    0  0.12309026078E+03  0.39520942039E+02 -0.19123714869E+03  0.24790655216E+03  0.90404061891E+02 0.  0.
        -11    1    1    2    0    0  0.63914902488E+02 -0.10416834977E+03  0.42709179962E+03  0.44423368305E+03  0.00000000000E+00 0.  1.
         11    1    1    2    0    0 -0.18700516326E+03  0.64647407732E+02 -0.23585465093E+03  0.30785976479E+03  0.00000000000E+00 0.  1.
        -15    1    3    3    0    0 -0.27241677359E+01  0.26741764261E+02 -0.59348608340E+02  0.65176361410E+02  0.17770000000E+01 0. -1.
         15    1    3    3    0    0  0.12581442851E+03  0.12779177778E+02 -0.13188854035E+03  0.18273019075E+03  0.17770000000E+01 0.  1.
</event>
<event>
 6    1  0.3234965E-006  0.4179537E+03  0.7546771E-02  0.9604792E-01
        -11   -1    0    0    0    0  0.00000000000E+00  0.00000000000E+00  0.50000000000E+03  0.50000000000E+03  0.00000000000E+00 0.  1.
         11   -1    0    0    0    0 -0.00000000000E+00 -0.00000000000E+00 -0.50000000000E+03  0.50000000000E+03  0.00000000000E+00 0. -1.
        -11    1    1    2    0    0  0.53548513445E+02 -0.28510093087E+01  0.30645329987E+03  0.31110962144E+03  0.00000000000E+00 0.  1.
         11    1    1    2    0    0  0.16427676310E+03 -0.92176451161E+02  0.63861679229E+02  0.19890114911E+03  0.00000000000E+00 0. -1.
        -15    1    1    2    0    0 -0.95114505966E+02  0.26645805515E+02 -0.53715327455E+01  0.98938259990E+02  0.17770000000E+01 0.  1.
         15    1    1    2    0    0 -0.12271077058E+03  0.68381654954E+02 -0.36494344636E+03  0.39105096946E+03  0.17770000000E+01 0. -1.
</event>
<event>
 7    1  0.3234965E-006  0.3734073E+03  0.7546771E-02  0.9738411E-01
        -11   -1    0    0    0    0  0.00000000000E+00  0.00000000000E+00  0.50000000000E+03  0.50000000000E+03  0.00000000000E+00 0.  1.
         11   -1    0    0    0    0 -0.00000000000E+00 -0.00000000000E+00 -0.50000000000E+03  0.50000000000E+03  0.00000000000E+00 0. -1.
         23    2    1    2    0    0 -0.24253822754E+03 -0.23184586699E+03 -0.76159883999E+02  0.35601119521E+03  0.91467728328E+02 0.  0.
        -11    1    1    2    0    0 -0.28227279668E+02 -0.45261067834E+02  0.22328178972E+03  0.22956502608E+03  0.00000000000E+00 0.  1.
         11    1    1    2    0    0  0.27076550721E+03  0.27710693482E+03 -0.14712190572E+03  0.41442377871E+03  0.00000000000E+00 0. -1.
        -15    1    3    3    0    0 -0.17715164835E+03 -0.20706708301E+03 -0.34730921356E+02  0.27471599518E+03  0.17770000000E+01 0.  1.
         15    1    3    3    0    0 -0.65386579186E+02 -0.24778783980E+02 -0.41428962643E+02  0.81295200029E+02  0.17770000000E+01 0. -1.
</event>
<event>
 7    1  0.3234965E-006  0.5109559E+03  0.7546771E-02  0.9375623E-01
        -11   -1    0    0    0    0  0.00000000000E+00  0.00000000000E+00  0.50000000000E+03  0.50000000000E+03  0.00000000000E+00 0.  1.
         11   -1    0    0    0    0 -0.00000000000E+00 -0.00000000000E+00 -0.50000000000E+03  0.50000000000E+03  0.00000000000E+00 0. -1.
         23    2    1    2    0    0  0.32271989185E-01 -0.43092277250E+02 -0.32151177591E+03  0.33662792215E+03  0.89953268568E+02 0.  0.
        -11    1    1    2    0    0 -0.33287566308E+02  0.12548699202E+03  0.47149661146E+03  0.48904406944E+03  0.00000000000E+00 0.  1.
         11    1    1    2    0    0  0.33255294319E+02 -0.82394714770E+02 -0.14998483555E+03  0.17432800841E+03  0.00000000000E+00 0. -1.
        -15    1    3    3    0    0 -0.33197675257E+02 -0.52845564195E+02 -0.24120309966E+03  0.24915222719E+03  0.17770000000E+01 0. -1.
         15    1    3    3    0    0  0.33229947246E+02  0.97532869455E+01 -0.80308676242E+02  0.87475694961E+02  0.17770000000E+01 0.  1.
</event>
<event>
 7    1  0.3234965E-006  0.5175282E+03  0.7546771E-02  0.9361421E-01
        -11   -1    0    0    0    0  0.00000000000E+00  0.00000000000E+00  0.50000000000E+03  0.50000000000E+03  0.00000000000E+00 0. -1.
         11   -1    0    0    0    0 -0.00000000000E+00 -0.00000000000E+00 -0.50000000000E+03  0.50000000000E+03  0.00000000000E+00 0.  1.
         23    2    1    2    0    0  0.22783388887E+01  0.26984106181E+01 -0.35735276508E+03  0.36931598987E+03  0.93170968738E+02 0.  0.
        -11    1    1    2    0    0 -0.73894596227E+02  0.54957934869E+02  0.47360132569E+03  0.48247176255E+03  0.00000000000E+00 0. -1.
         11    1    1    2    0    0  0.71616257338E+02 -0.57656345487E+02 -0.11624856062E+03  0.14821224759E+03  0.00000000000E+00 0.  1.
        -15    1    3    3    0    0  0.35864708043E+02 -0.23985218877E+02 -0.24990497292E+03  0.25360840133E+03  0.17770000000E+01 0.  1.
         15    1    3    3    0    0 -0.33586369154E+02  0.26683629495E+02 -0.10744779216E+03  0.11570758854E+03  0.17770000000E+01 0. -1.
</event>
<event>
 7    1  0.3234965E-006  0.4637716E+03  0.7546771E-02  0.9484734E-01
        -11   -1    0    0    0    0  0.00000000000E+00  0.00000000000E+00  0.50000000000E+03  0.50000000000E+03  0.00000000000E+00 0.  1.
         11   -1    0    0    0    0 -0.00000000000E+00 -0.00000000000E+00 -0.50000000000E+03  0.50000000000E+03  0.00000000000E+00 0.  1.
         23    2    1    2    0    0  0.19120135866E+03 -0.16789730853E+03 -0.33353987600E+03  0.43188038562E+03  0.10258826852E+03 0.  0.
        -11    1    1    2    0    0 -0.18232722111E+03  0.21574691569E+03  0.39756625613E+03  0.48769752429E+03  0.00000000000E+00 0.  1.
         11    1    1    2    0    0 -0.88741375468E+01 -0.47849607156E+02 -0.64026380129E+02  0.80422090092E+02  0.00000000000E+00 0.  1.
        -15    1    3    3    0    0  0.54195897183E+01 -0.47282002654E+02 -0.30646813443E+02  0.56633423267E+02  0.17770000000E+01 0. -1.
         15    1    3    3    0    0  0.18578176894E+03 -0.12061530588E+03 -0.30289306256E+03  0.37524696235E+03  0.17770000000E+01 0.  1.
</event>
<event>
 7    1  0.3234965E-006  0.3951068E+03  0.7546771E-02  0.9670970E-01
        -11   -1    0    0    0    0  0.00000000000E+00  0.00000000000E+00  0.50000000000E+03  0.50000000000E+03  0.00000000000E+00 0. -1.
         11   -1    0    0    0    0 -0.00000000000E+00 -0.00000000000E+00 -0.50000000000E+03  0.50000000000E+03  0.00000000000E+00 0.  1.
         23    2    1    2    0    0 -0.10925803775E+03 -0.48562579781E+02  0.12133037416E+03  0.19163483661E+03  0.87790705322E+02 0.  0.
        -11    1    1    2    0    0 -0.14777420694E+03  0.29444791718E+03  0.14901776203E+03  0.36158413346E+03  0.00000000000E+00 0. -1.
         11    1    1    2    0    0  0.25703224469E+03 -0.24588533740E+03 -0.27034813619E+03  0.44678102993E+03  0.00000000000E+00 0.  1.
        -15    1    3    3    0    0 -0.33828007160E+02  0.15890667352E+02  0.34911472696E+01  0.37579159325E+02  0.17770000000E+01 0.  1.
         15    1    3    3    0    0 -0.75430030588E+02 -0.64453247132E+02  0.11783922689E+03  0.15405567729E+03  0.17770000000E+01 0. -1.
</event>
<event>
 7    1  0.3234965E-006  0.5127182E+03  0.7546771E-02  0.9371793E-01
        -11   -1    0    0    0    0  0.00000000000E+00  0.00000000000E+00  0.50000000000E+03  0.50000000000E+03  0.00000000000E+00 0. -1.
         11   -1    0    0    0    0 -0.00000000000E+00 -0.00000000000E+00 -0.50000000000E+03  0.50000000000E+03  0.00000000000E+00 0.  1.
         23    2    1    2    0    0  0.33043214855E+02 -0.22994586026E+02 -0.18708378457E+03  0.21462233119E+03  0.97168912536E+02 0.  0.
        -11    1    1    2    0    0 -0.98671912745E+02  0.11264011420E+03  0.46370209248E+03  0.48728182016E+03  0.00000000000E+00 0. -1.
         11    1    1    2    0    0  0.65628697890E+02 -0.89645528172E+02 -0.27661830791E+03  0.29809584864E+03  0.00000000000E+00 0.  1.
        -15    1    3    3    0    0  0.36078514257E+02  0.26380683029E+02 -0.42118820470E+02  0.61439013622E+02  0.17770000000E+01 0. -1.
         15    1    3    3    0    0 -0.30352994023E+01 -0.49375269054E+02 -0.14496496410E+03  0.15318331757E+03  0.17770000000E+01 0.  1.
</event>
<event>
 7    1  0.3234965E-006  0.3778989E+03  0.7546771E-02  0.9724055E-01
        -11   -1    0    0    0    0  0.00000000000E+00  0.00000000000E+00  0.50000000000E+03  0.50000000000E+03  0.00000000000E+00 0.  1.
         11   -1    0    0    0    0 -0.00000000000E+00 -0.00000000000E+00 -0.50000000000E+03  0.50000000000E+03  0.00000000000E+00 0. -1.
         23    2    1    2    0    0  0.13678566808E+03 -0.10652764482E+03 -0.97032730474E+02  0.21852440382E+03  0.90989593794E+02 0.  0.
        -11    1    1    2    0    0  0.82504754789E+02 -0.35035311051E+02  0.38355470156E+03  0.39388921878E+03  0.00000000000E+00 0.  1.
         11    1    1    2    0    0 -0.21929042286E+03  0.14156295587E+03 -0.28652197109E+03  0.38758637740E+03  0.00000000000E+00 0. -1.
        -15    1    3    3    0    0  0.65199315544E+01 -0.36801596994E+02  0.66638035997E+01  0.38005671369E+02  0.17770000000E+01 0. -1.
         15    1    3    3    0    0  0.13026573652E+03 -0.69726047821E+02 -0.10369653407E+03  0.18051873245E+03  0.17770000000E+01 0.  1.
</event>
<event>
 7    1  0.3234965E-006  0.5307665E+03  0.7546771E-02  0.9333482E-01
        -11   -1    0    0    0    0  0.00000000000E+00  0.00000000000E+00  0.50000000000E+03  0.50000000000E+03  0.00000000000E+00 0.  1.
         11   -1    0    0    0    0 -0.00000000000E+00 -0.00000000000E+00 -0.50000000000E+03  0.50000000000E+03  0.00000000000E+00 0. -1.
         23    2    1    2    0    0  0.10477521854E+01 -0.89412390014E+01 -0.36736959501E+02  0.95882917906E+02  0.88107242683E+02 0.  0.
        -11    1    1    2    0    0 -0.50115741854E+02 -0.78657907994E+02  0.45987106831E+03  0.46923347445E+03  0.00000000000E+00 0.  1.
         11    1    1    2    0    0  0.49067989669E+02  0.87599146996E+02 -0.42313410881E+03  0.43488360765E+03  0.00000000000E+00 0. -1.
        -15    1    3    3    0    0  0.36684392002E+02 -0.29165351071E+02 -0.25378115121E+02  0.53325123307E+02  0.17770000000E+01 0. -1.
         15    1    3    3    0    0 -0.35636639817E+02  0.20224112069E+02 -0.11358844380E+02  0.42557794598E+02  0.17770000000E+01 0.  1.
</event>
<event>
 7    1  0.3234965E-006  0.5054970E+03  0.7546771E-02  0.9387593E-01
        -11   -1    0    0    0    0  0.00000000000E+00  0.00000000000E+00  0.50000000000E+03  0.50000000000E+03  0.00000000000E+00 0. -1.
         11   -1    0    0    0    0 -0.00000000000E+00 -0.00000000000E+00 -0.50000000000E+03  0.50000000000E+03  0.00000000000E+00 0. -1.
         23    2    1    2    0    0  0.20374710206E+03  0.20275200181E+03 -0.39221407941E+03  0.49450304623E+03  0.89889503298E+02 0.  0.
        -11    1    1    2    0    0 -0.26646034084E+02 -0.46395912447E+02  0.18051465476E+03  0.18827674420E+03  0.00000000000E+00 0. -1.
         11    1    1    2    0    0 -0.17710106798E+03 -0.15635608937E+03  0.21169942466E+03  0.31722020957E+03  0.00000000000E+00 0. -1.
        -15    1    3    3    0    0  0.20909070492E+03  0.19167827548E+03 -0.35008164635E+03  0.45057718652E+03  0.17770000000E+01 0. -1.
         15    1    3    3    0    0 -0.53436028541E+01  0.11073726333E+02 -0.42132433061E+02  0.43925859707E+02  0.17770000000E+01 0.  1.
</event>
<event>
 7    1  0.3234965E-006  0.4264107E+03  0.7546771E-02  0.9581431E-01
        -11   -1    0    0    0    0  0.00000000000E+00  0.00000000000E+00  0.50000000000E+03  0.50000000000E+03  0.00000000000E+00 0.  1.
         11   -1    0    0    0    0 -0.00000000000E+00 -0.00000000000E+00 -0.50000000000E+03  0.50000000000E+03  0.00000000000E+00 0. -1.
         23    2    1    2    0    0  0.37797927961E+02 -0.21749376516E+02 -0.37575744914E+03  0.38906303514E+03  0.90965191130E+02 0.  0.
        -11    1    1    2    0    0 -0.48676705938E+02 -0.10024621369E+03  0.45275321788E+03  0.46626623442E+03  0.00000000000E+00 0.  1.
         11    1    1    2    0    0  0.10878777978E+02  0.12199559020E+03 -0.76995768746E+02  0.14467073043E+03  0.00000000000E+00 0. -1.
        -15    1    3    3    0    0  0.27911782803E+02 -0.57392960338E+02 -0.23687778299E+03  0.24533092206E+03  0.17770000000E+01 0.  1.
         15    1    3    3    0    0  0.98861451577E+01  0.35643583822E+02 -0.13887966615E+03  0.14373211308E+03  0.17770000000E+01 0. -1.
</event>
<event>
 7    1  0.3234965E-006  0.5234969E+03  0.7546771E-02  0.9348716E-01
        -11   -1    0    0    0    0  0.00000000000E+00  0.00000000000E+00  0.50000000000E+03  0.50000000000E+03  0.00000000000E+00 0.  1.
         11   -1    0    0    0    0 -0.00000000000E+00 -0.00000000000E+00 -0.50000000000E+03  0.50000000000E+03  0.00000000000E+00 0. -1.
         23    2    1    2    0    0 -0.50740078112E+02 -0.63846449595E+02  0.23346730590E+03  0.26345027516E+03  0.90819270550E+02 0.  0.
        -11    1    1    2    0    0  0.23923436593E+02 -0.20361156087E+03  0.15998195883E+03  0.26004658369E+03  0.00000000000E+00 0.  1.
         11    1    1    2    0    0  0.26816641519E+02  0.26745801046E+03 -0.39344926473E+03  0.47650314116E+03  0.00000000000E+00 0. -1.
        -15    1    3    3    0    0  0.24587989869E+02 -0.29934303724E+02  0.62311485005E+02  0.73392851680E+02  0.17770000000E+01 0. -1.
         15    1    3    3    0    0 -0.75328067981E+02 -0.33912145871E+02  0.17115582089E+03  0.19005742348E+03  0.17770000000E+01 0.  1.
</event>
<event>
 7    1  0.3239538E-006  0.5118001E+03  0.7546771E-02  0.9373786E-01
        -11   -1    0    0    0    0  0.00000000000E+00  0.00000000000E+00  0.50000000000E+03  0.50000000000E+03  0.00000000000E+00 0. -1.
         11   -1    0    0    0    0 -0.00000000000E+00 -0.00000000000E+00 -0.50000000000E+03  0.50000000000E+03  0.00000000000E+00 0. -1.
         23    2    1    2    0    0  0.59996019756E+02  0.22912596856E+02  0.26504214500E+03  0.28979199030E+03  0.98018108186E+02 0.  0.
        -11    1    1    2    0    0  0.49093455344E+02 -0.53334592323E+02  0.20984007651E+03  0.22200811653E+03  0.00000000000E+00 0. -1.
         11    1    1    2    0    0 -0.10908947510E+03  0.30421995468E+02 -0.47488222151E+03  0.48819989317E+03  0.00000000000E+00 0. -1.
        -15    1    3    3    0    0  0.63525761850E+02 -0.17801292862E+02  0.21638199991E+03  0.22622275761E+03  0.17770000000E+01 0. -1.
         15    1    3    3    0    0 -0.35297420938E+01  0.40713889718E+02  0.48660145089E+02  0.63569232686E+02  0.17770000000E+01 0.  1.
</event>
<event>
 7    1  0.3234965E-006  0.5390906E+03  0.7546771E-02  0.9316354E-01
        -11   -1    0    0    0    0  0.00000000000E+00  0.00000000000E+00  0.50000000000E+03  0.50000000000E+03  0.00000000000E+00 0. -1.
         11   -1    0    0    0    0 -0.00000000000E+00 -0.00000000000E+00 -0.50000000000E+03  0.50000000000E+03  0.00000000000E+00 0.  1.
         23    2    1    2    0    0 -0.32039512885E+02  0.79515364288E+02 -0.16178241976E+03  0.20420023608E+03  0.90415493858E+02 0.  0.
        -11    1    1    2    0    0 -0.27001703794E+02  0.72260187157E+02  0.45440824138E+03  0.46090940161E+03  0.00000000000E+00 0. -1.
         11    1    1    2    0    0  0.59041216678E+02 -0.15177555144E+03 -0.29262582163E+03  0.33489036231E+03  0.00000000000E+00 0.  1.
        -15    1    3    3    0    0  0.85424390884E+01 -0.86210737016E+01  0.33028812020E+01  0.12702870958E+02  0.17770000000E+01 0. -1.
         15    1    3    3    0    0 -0.40581951973E+02  0.88136437989E+02 -0.16508530096E+03  0.19149736512E+03  0.17770000000E+01 0.  1.
</event>
<event>
 7    1  0.3234965E-006  0.4023387E+03  0.7546771E-02  0.9649516E-01
        -11   -1    0    0    0    0  0.00000000000E+00  0.00000000000E+00  0.50000000000E+03  0.50000000000E+03  0.00000000000E+00 0. -1.
         11   -1    0    0    0    0 -0.00000000000E+00 -0.00000000000E+00 -0.50000000000E+03  0.50000000000E+03  0.00000000000E+00 0. -1.
         23    2    1    2    0    0 -0.11219676851E+03 -0.88556109995E+02  0.33834574601E+02  0.18202649966E+03  0.10751078393E+03 0.  0.
        -11    1    1    2    0    0 -0.23649462386E+03  0.11162028488E+03  0.25451025253E+03  0.36491679018E+03  0.00000000000E+00 0. -1.
         11    1    1    2    0    0  0.34869139237E+03 -0.23064174885E+02 -0.28834482713E+03  0.45305671015E+03  0.00000000000E+00 0. -1.
        -15    1    3    3    0    0  0.14685146114E+02 -0.21428532854E+02  0.28167441991E+02  0.38358806733E+02  0.17770000000E+01 0. -1.
         15    1    3    3    0    0 -0.12688191462E+03 -0.67127577142E+02  0.56671326103E+01  0.14366769293E+03  0.17770000000E+01 0.  1.
</event>
<event>
 7    1  0.3234965E-006  0.5124444E+03  0.7546771E-02  0.9372387E-01
        -11   -1    0    0    0    0  0.00000000000E+00  0.00000000000E+00  0.50000000000E+03  0.50000000000E+03  0.00000000000E+00 0.  1.
         11   -1    0    0    0    0 -0.00000000000E+00 -0.00000000000E+00 -0.50000000000E+03  0.50000000000E+03  0.00000000000E+00 0.  1.
         23    2    1    2    0    0 -0.46667662363E+02  0.19968666456E+01 -0.21439800626E+03  0.24084447787E+03  0.99285946889E+02 0.  0.
        -11    1    1    2    0    0  0.64792273359E+02  0.46837628950E+02  0.48095603455E+03  0.48755564743E+03  0.00000000000E+00 0.  1.
         11    1    1    2    0    0 -0.18124610996E+02 -0.48834495596E+02 -0.26655802830E+03  0.27159987469E+03  0.00000000000E+00 0.  1.
        -15    1    3    3    0    0 -0.67139732688E+02 -0.22541026826E+02 -0.10352929768E+03  0.12544845477E+03  0.17770000000E+01 0.  1.
         15    1    3    3    0    0  0.20472070325E+02  0.24537893472E+02 -0.11086870857E+03  0.11539602311E+03  0.17770000000E+01 0. -1.
</event>
<event>
 7    1  0.3234965E-006  0.5194487E+03  0.7546771E-02  0.9357313E-01
        -11   -1    0    0    0    0  0.00000000000E+00  0.00000000000E+00  0.50000000000E+03  0.50000000000E+03  0.00000000000E+00 0.  1.
         11   -1    0    0    0    0 -0.00000000000E+00 -0.00000000000E+00 -0.50000000000E+03  0.50000000000E+03  0.00000000000E+00 0.  1.
         23    2    1    2    0    0  0.83601417933E+02  0.20554338380E+03  0.33367483608E+03  0.41212451670E+03  0.96283131031E+02 0.  0.
        -11    1    1    2    0    0  0.63329394421E+01 -0.27536788654E+02  0.10353792832E+03  0.10732419789E+03  0.00000000000E+00 0.  1.
         11    1    1    2    0    0 -0.89934357375E+02 -0.17800659515E+03 -0.43721276441E+03  0.48055128541E+03  0.00000000000E+00 0.  1.
        -15    1    3    3    0    0  0.90906783874E+02  0.21262434331E+03  0.32324482813E+03  0.39744626224E+03  0.17770000000E+01 0.  1.
         15    1    3    3    0    0 -0.73053659417E+01 -0.70809595083E+01  0.10430007949E+02  0.14678254457E+02  0.17770000000E+01 0. -1.
</event>
<event>
 7    1  0.3234965E-006  0.4637530E+03  0.7546771E-02  0.9484780E-01
        -11   -1    0    0    0    0  0.00000000000E+00  0.00000000000E+00  0.50000000000E+03  0.50000000000E+03  0.00000000000E+00 0.  1.
         11   -1    0    0    0    0 -0.00000000000E+00 -0.00000000000E+00 -0.50000000000E+03  0.50000000000E+03  0.00000000000E+00 0.  1.
         23    2    1    2    0    0  0.43138556116E+02 -0.35863746991E+03  0.24108086400E+03  0.44436138871E+03  0.94102555440E+02 0.  0.
        -11    1    1    2    0    0 -0.49366428039E+01 -0.70040087405E+02 -0.35699227124E+02  0.78768135074E+02  0.00000000000E+00 0.  1.
         11    1    1    2    0    0 -0.38201913312E+02  0.42867755731E+03 -0.20538163687E+03  0.47687047622E+03  0.00000000000E+00 0.  1.
        -15    1    3    3    0    0  0.40531000969E+02 -0.15276085418E+03  0.56540383289E+02  0.16786486613E+03  0.17770000000E+01 0. -1.
         15    1    3    3    0    0  0.26075551471E+01 -0.20587661573E+03  0.18454048071E+03  0.27649652258E+03  0.17770000000E+01 0.  1.
</event>
<event>
 7    1  0.3234965E-006  0.4447665E+03  0.7546771E-02  0.9532658E-01
        -11   -1    0    0    0    0  0.00000000000E+00  0.00000000000E+00  0.50000000000E+03  0.50000000000E+03  0.00000000000E+00 0.  1.
         11   -1    0    0    0    0 -0.00000000000E+00 -0.00000000000E+00 -0.50000000000E+03  0.50000000000E+03  0.00000000000E+00 0. -1.
         23    2    1    2    0    0  0.84601555702E+01 -0.56530192146E+02  0.11103251305E+02  0.10856321588E+03  0.91626703511E+02 0.  0.
        -11    1    1    2    0    0  0.75430721304E+02  0.16625560696E+02  0.43192310501E+03  0.43877530882E+03  0.00000000000E+00 0.  1.
         11    1    1    2    0    0 -0.83890876874E+02  0.39904631450E+02 -0.44302635632E+03  0.45266147530E+03  0.00000000000E+00 0. -1.
        -15    1    3    3    0    0 -0.32856714486E+02 -0.55112357882E+02 -0.44864374065E+01  0.64344553209E+02  0.17770000000E+01 0. -1.
         15    1    3    3    0    0  0.41316870056E+02 -0.14178342638E+01  0.15589688712E+02  0.44218662670E+02  0.17770000000E+01 0.  1.
</event>
<event>
 7    1  0.3234965E-006  0.4082048E+03  0.7546771E-02  0.9632464E-01
        -11   -1    0    0    0    0  0.00000000000E+00  0.00000000000E+00  0.50000000000E+03  0.50000000000E+03  0.00000000000E+00 0. -1.
         11   -1    0    0    0    0 -0.00000000000E+00 -0.00000000000E+00 -0.50000000000E+03  0.50000000000E+03  0.00000000000E+00 0. -1.
         23    2    1    2    0    0  0.99491602379E+02  0.75137731051E+02 -0.33015567794E+03  0.36442870846E+03  0.90891442414E+02 0.  0.
        -11    1    1    2    0    0  0.18087166355E+02 -0.15269974003E+03  0.43409009299E+03  0.46051988559E+03  0.00000000000E+00 0. -1.
         11    1    1    2    0    0 -0.11757876873E+03  0.77562008976E+02 -0.10393441505E+03  0.17505140595E+03  0.00000000000E+00 0. -1.
        -15    1    3    3    0    0  0.80717198327E+02  0.76622271239E+02 -0.32677549377E+03  0.34521242679E+03  0.17770000000E+01 0. -1.
         15    1    3    3    0    0  0.18774404052E+02 -0.14845401881E+01 -0.33801841684E+01  0.19216281667E+02  0.17770000000E+01 0.  1.
</event>
<event>
 7    1  0.3234965E-006  0.5084636E+03  0.7546771E-02  0.9381068E-01
        -11   -1    0    0    0    0  0.00000000000E+00  0.00000000000E+00  0.50000000000E+03  0.50000000000E+03  0.00000000000E+00 0.  1.
         11   -1    0    0    0    0 -0.00000000000E+00 -0.00000000000E+00 -0.50000000000E+03  0.50000000000E+03  0.00000000000E+00 0. -1.
         23    2    1    2    0    0 -0.29599376854E+02  0.19777193705E+03 -0.43425595158E+03  0.49153639828E+03  0.11419254424E+03 0.  0.
        -11    1    1    2    0    0  0.95751893180E+01 -0.11744612654E+03  0.40316695227E+03  0.42003436561E+03  0.00000000000E+00 0.  1.
         11    1    1    2    0    0  0.20024187536E+02 -0.80325810506E+02  0.31088999310E+02  0.88429236105E+02  0.00000000000E+00 0. -1.
        -15    1    3    3    0    0  0.10169883600E+02 -0.11932075281E+02 -0.43653686651E+02  0.46417701798E+02  0.17770000000E+01 0.  1.
         15    1    3    3    0    0 -0.39769260454E+02  0.20970401233E+03 -0.39060226493E+03  0.44511869649E+03  0.17770000000E+01 0. -1.
</event>
<event>
 7    1  0.3234965E-006  0.4348980E+03  0.7546771E-02  0.9558561E-01
        -11   -1    0    0    0    0  0.00000000000E+00  0.00000000000E+00  0.50000000000E+03  0.50000000000E+03  0.00000000000E+00 0.  1.
         11   -1    0    0    0    0 -0.00000000000E+00 -0.00000000000E+00 -0.50000000000E+03  0.50000000000E+03  0.00000000000E+00 0.  1.
         23    2    1    2    0    0 -0.20726091729E+02  0.18156253795E+02 -0.41535614280E+03  0.42715119008E+03  0.95802888252E+02 0.  0.
        -11    1    1    2    0    0 -0.33691123945E+02 -0.13723150712E+03  0.41868339551E+03  0.44188614377E+03  0.00000000000E+00 0.  1.
         11    1    1    2    0    0  0.54417215674E+02  0.11907525332E+03 -0.33272527095E+01  0.13096266615E+03  0.00000000000E+00 0.  1.
        -15    1    3    3    0    0 -0.55726057313E+02 -0.55872260206E+01 -0.20150820933E+03  0.20915383504E+03  0.17770000000E+01 0. -1.
         15    1    3    3    0    0  0.34999965583E+02  0.23743479816E+02 -0.21384793347E+03  0.21799735504E+03  0.17770000000E+01 0.  1.
</event>
<event>
 7    1  0.3234965E-006  0.5332232E+03  0.7546771E-02  0.9328393E-01
        -11   -1    0    0    0    0  0.00000000000E+00  0.00000000000E+00  0.50000000000E+03  0.50000000000E+03  0.00000000000E+00 0. -1.
         11   -1    0    0    0    0 -0.00000000000E+00 -0.00000000000E+00 -0.50000000000E+03  0.50000000000E+03  0.00000000000E+00 0.  1.
         23    2    1    2    0    0  0.18397493735E+02 -0.10185102733E+02 -0.29581382146E+03  0.31161962032E+03  0.95701445697E+02 0.  0.
        -11    1    1    2    0    0 -0.29150390297E+02 -0.15977435980E+03  0.43761053402E+03  0.46677678904E+03  0.00000000000E+00 0. -1.
         11    1    1    2    0    0  0.10752896562E+02  0.16995946254E+03 -0.14179671256E+03  0.22160359064E+03  0.00000000000E+00 0.  1.
        -15    1    3    3    0    0 -0.37486076848E+02 -0.13778370813E+02 -0.93427773077E+02  0.10162163141E+03  0.17770000000E+01 0. -1.
         15    1    3    3    0    0  0.55883570583E+02  0.35932680800E+01 -0.20238604838E+03  0.20999798891E+03  0.17770000000E+01 0.  1.
</event>
<event>
 6    1  0.3234965E-006  0.4783401E+03  0.7546771E-02  0.9449624E-01
        -11   -1    0    0    0    0  0.00000000000E+00  0.00000000000E+00  0.50000000000E+03  0.50000000000E+03  0.00000000000E+00 0.  1.
         11   -1    0    0    0    0 -0.00000000000E+00 -0.00000000000E+00 -0.50000000000E+03  0.50000000000E+03  0.00000000000E+00 0. -1.
        -11    1    1    2    0    0 -0.30280515825E+02  0.88966775051E+02  0.40934530125E+03  0.41999472896E+03  0.00000000000E+00 0.  1.
         11    1    1    2    0    0  0.41355866817E+02 -0.54742805647E+02  0.45739662115E+02  0.82457256689E+02  0.00000000000E+00 0. -1.
        -15    1    1    2    0    0  0.80110297685E+02  0.28146234001E+02 -0.14108254043E+03  0.16467334704E+03  0.17770000000E+01 0.  1.
         15    1    1    2    0    0 -0.91185648676E+02 -0.62370203405E+02 -0.31400242293E+03  0.33287466731E+03  0.17770000000E+01 0. -1.
</event>
<event>
 7    1  0.3234965E-006  0.3839173E+03  0.7546771E-02  0.9705151E-01
        -11   -1    0    0    0    0  0.00000000000E+00  0.00000000000E+00  0.50000000000E+03  0.50000000000E+03  0.00000000000E+00 0.  1.
         11   -1    0    0    0    0 -0.00000000000E+00 -0.00000000000E+00 -0.50000000000E+03  0.50000000000E+03  0.00000000000E+00 0. -1.
         23    2    1    2    0    0  0.38807153201E+02  0.19349256705E+03 -0.36509807520E+03  0.42549165345E+03  0.93814572417E+02 0.  0.
        -11    1    1    2    0    0  0.14232698204E+03 -0.89143127233E+02  0.31890804885E+03  0.36042448664E+03  0.00000000000E+00 0.  1.
         11    1    1    2    0    0 -0.18113413524E+03 -0.10434943982E+03  0.46190026350E+02  0.21408385991E+03  0.00000000000E+00 0. -1.
        -15    1    3    3    0    0 -0.16059822257E+02  0.87685818127E+01 -0.87190925718E+01  0.20346651376E+02  0.17770000000E+01 0.  1.
         15    1    3    3    0    0  0.54866975458E+02  0.18472398524E+03 -0.35637898263E+03  0.40514500208E+03  0.17770000000E+01 0. -1.
</event>
<event>
 7    1  0.3234965E-006  0.5106211E+03  0.7546771E-02  0.9376353E-01
        -11   -1    0    0    0    0  0.00000000000E+00  0.00000000000E+00  0.50000000000E+03  0.50000000000E+03  0.00000000000E+00 0. -1.
         11   -1    0    0    0    0 -0.00000000000E+00 -0.00000000000E+00 -0.50000000000E+03  0.50000000000E+03  0.00000000000E+00 0. -1.
         23    2    1    2    0    0  0.21422805072E+03 -0.13209151236E+03 -0.41041439191E+03  0.48937893287E+03  0.87806272568E+02 0.  0.
        -11    1    1    2    0    0 -0.63518190309E+02 -0.36649208710E+02  0.66707398168E+02  0.99134262339E+02  0.00000000000E+00 0. -1.
         11    1    1    2    0    0 -0.15070986041E+03  0.16874072107E+03  0.34370699374E+03  0.41148680479E+03  0.00000000000E+00 0. -1.
        -15    1    3    3    0    0  0.15723097621E+03 -0.49237331989E+02 -0.27694764359E+03  0.32225618654E+03  0.17770000000E+01 0. -1.
         15    1    3    3    0    0  0.56997074502E+02 -0.82854180370E+02 -0.13346674831E+03  0.16712274633E+03  0.17770000000E+01 0.  1.
</event>
<event>
 7    1  0.3234965E-006  0.3294657E+03  0.7546771E-02  0.9891359E-01
        -11   -1    0    0    0    0  0.00000000000E+00  0.00000000000E+00  0.50000000000E+03  0.50000000000E+03  0.00000000000E+00 0. -1.
         11   -1    0    0    0    0 -0.00000000000E+00 -0.00000000000E+00 -0.50000000000E+03  0.50000000000E+03  0.00000000000E+00 0.  1.
         23    2    1    2    0    0  0.15921172691E+03 -0.15538520773E+03 -0.15646165298E+03  0.28714394943E+03  0.92078564706E+02 0.  0.
        -11    1    1    2    0    0  0.86496194819E+02 -0.97519681554E+02  0.30388991666E+03  0.33066714602E+03  0.00000000000E+00 0. -1.
         11    1    1    2    0    0 -0.24570792173E+03  0.25290488928E+03 -0.14742826369E+03  0.38218890454E+03  0.00000000000E+00 0.  1.
        -15    1    3    3    0    0  0.64011582079E+02 -0.46735177880E+02 -0.10959833085E+03  0.13526496718E+03  0.17770000000E+01 0. -1.
         15    1    3    3    0    0  0.95200144831E+02 -0.10865002985E+03 -0.46863322129E+02  0.15187898226E+03  0.17770000000E+01 0.  1.
</event>
<event>
 7    1  0.3234965E-006  0.4490814E+03  0.7546771E-02  0.9521557E-01
        -11   -1    0    0    0    0  0.00000000000E+00  0.00000000000E+00  0.50000000000E+03  0.50000000000E+03  0.00000000000E+00 0. -1.
         11   -1    0    0    0    0 -0.00000000000E+00 -0.00000000000E+00 -0.50000000000E+03  0.50000000000E+03  0.00000000000E+00 0.  1.
         23    2    1    2    0    0  0.23066526892E+03 -0.16655870407E+03 -0.33507201812E+03  0.44865627290E+03  0.89838330869E+02 0.  0.
        -11    1    1    2    0    0 -0.28477795639E+03  0.76852214589E+02  0.33530392991E+03  0.44657974959E+03  0.00000000000E+00 0. -1.
         11    1    1    2    0    0  0.54112687468E+02  0.89706489486E+02 -0.23191178533E+00  0.10476397751E+03  0.00000000000E+00 0.  1.
        -15    1    3    3    0    0  0.14933147193E+03 -0.14814034092E+03 -0.27321118003E+03  0.34480857839E+03  0.17770000000E+01 0.  1.
         15    1    3    3    0    0  0.81333796992E+02 -0.18418363158E+02 -0.61860838099E+02  0.10384769450E+03  0.17770000000E+01 0. -1.
</event>
<event>
 7    1  0.3234965E-006  0.5371542E+03  0.7546771E-02  0.9320309E-01
        -11   -1    0    0    0    0  0.00000000000E+00  0.00000000000E+00  0.50000000000E+03  0.50000000000E+03  0.00000000000E+00 0.  1.
         11   -1    0    0    0    0 -0.00000000000E+00 -0.00000000000E+00 -0.50000000000E+03  0.50000000000E+03  0.00000000000E+00 0. -1.
         23    2    1    2    0    0 -0.30694491132E+02  0.11910881656E+02  0.10236486613E+03  0.14680332339E+03  0.99943129099E+02 0.  0.
        -11    1    1    2    0    0  0.21310805312E+03  0.14624569455E+03  0.29252508069E+03  0.39035082722E+03  0.00000000000E+00 0.  1.
         11    1    1    2    0    0 -0.18241356199E+03 -0.15815657621E+03 -0.39488994682E+03  0.46284584939E+03  0.00000000000E+00 0. -1.
        -15    1    3    3    0    0 -0.21226812605E+02  0.54612501870E+02  0.74955170561E+02  0.95155337510E+02  0.17770000000E+01 0.  1.
         15    1    3    3    0    0 -0.94676785268E+01 -0.42701620214E+02  0.27409695564E+02  0.51647985880E+02  0.17770000000E+01 0. -1.
</event>
<event>
 7    1  0.3234965E-006  0.5354062E+03  0.7546771E-02  0.9323894E-01
        -11   -1    0    0    0    0  0.00000000000E+00  0.00000000000E+00  0.50000000000E+03  0.50000000000E+03  0.00000000000E+00 0. -1.
         11   -1    0    0    0    0 -0.00000000000E+00 -0.00000000000E+00 -0.50000000000E+03  0.50000000000E+03  0.00000000000E+00 0.  1.
         23    2    1    2    0    0 -0.58813886735E+00  0.87987167975E+01 -0.32048582120E+03  0.33311401291E+03  0.90421350788E+02 0.  0.
        -11    1    1    2    0    0 -0.99861643729E+02 -0.14650417420E+03  0.42943164867E+03  0.46459376000E+03  0.00000000000E+00 0. -1.
         11    1    1    2    0    0  0.10044978260E+03  0.13770545740E+03 -0.10894582747E+03  0.20229222710E+03  0.00000000000E+00 0.  1.
        -15    1    3    3    0    0 -0.39822286752E+02 -0.17323629188E+02 -0.14219068657E+03  0.14868514292E+03  0.17770000000E+01 0. -1.
         15    1    3    3    0    0  0.39234147885E+02  0.26122345986E+02 -0.17829513464E+03  0.18442886998E+03  0.17770000000E+01 0.  1.
</event>
<event>
 7    1  0.3234965E-006  0.3771061E+03  0.7546771E-02  0.9726574E-01
        -11   -1    0    0    0    0  0.00000000000E+00  0.00000000000E+00  0.50000000000E+03  0.50000000000E+03  0.00000000000E+00 0.  1.
         11   -1    0    0    0    0 -0.00000000000E+00 -0.00000000000E+00 -0.50000000000E+03  0.50000000000E+03  0.00000000000E+00 0. -1.
         23    2    1    2    0    0  0.74504397765E+02 -0.17497023916E+03  0.61684669434E+02  0.21973947089E+03  0.91186329818E+02 0.  0.
        -11    1    1    2    0    0  0.20017168784E+03  0.90713000172E+02  0.26561708456E+03  0.34474626702E+03  0.00000000000E+00 0.  1.
         11    1    1    2    0    0 -0.27467608561E+03  0.84257238984E+02 -0.32730175399E+03  0.43551426210E+03  0.00000000000E+00 0. -1.
        -15    1    3    3    0    0  0.55029603700E+02 -0.58907654367E+02 -0.11041748336E+02  0.81384562183E+02  0.17770000000E+01 0.  1.
         15    1    3    3    0    0  0.19474794065E+02 -0.11606258479E+03  0.72726417770E+02  0.13835490870E+03  0.17770000000E+01 0. -1.
</event>
<event>
 7    1  0.3234965E-006  0.5256518E+03  0.7546771E-02  0.9344173E-01
        -11   -1    0    0    0    0  0.00000000000E+00  0.00000000000E+00  0.50000000000E+03  0.50000000000E+03  0.00000000000E+00 0.  1.
         11   -1    0    0    0    0 -0.00000000000E+00 -0.00000000000E+00 -0.50000000000E+03  0.50000000000E+03  0.00000000000E+00 0. -1.
         23    2    1    2    0    0 -0.18575851148E+02  0.69181581121E+02 -0.20377582049E+03  0.23458883117E+03  0.91521479876E+02 0.  0.
        -11    1    1    2    0    0 -0.15549650796E+03 -0.16102647766E+03  0.41820754495E+03  0.47434822773E+03  0.00000000000E+00 0.  1.
         11    1    1    2    0    0  0.17407235911E+03  0.91844896541E+02 -0.21443172446E+03  0.29106294110E+03  0.00000000000E+00 0. -1.
        -15    1    3    3    0    0 -0.10039903979E+02  0.24946428331E+02 -0.11142439738E+01  0.26972638488E+02  0.17770000000E+01 0.  1.
         15    1    3    3    0    0 -0.85359471687E+01  0.44235152790E+02 -0.20266157652E+03  0.20761619268E+03  0.17770000000E+01 0. -1.
</event>
<event>
 6    1  0.3234965E-006  0.5428646E+03  0.7546771E-02  0.9308696E-01
        -11   -1    0    0    0    0  0.00000000000E+00  0.00000000000E+00  0.50000000000E+03  0.50000000000E+03  0.00000000000E+00 0. -1.
         11   -1    0    0    0    0 -0.00000000000E+00 -0.00000000000E+00 -0.50000000000E+03  0.50000000000E+03  0.00000000000E+00 0.  1.
        -11    1    1    2    0    0 -0.51705191888E+02 -0.93202280764E+01  0.24705704366E+03  0.25258162312E+03  0.00000000000E+00 0. -1.
         11    1    1    2    0    0 -0.34107026308E+02 -0.13103473504E+03 -0.43662271442E+03  0.45713541296E+03  0.00000000000E+00 0.  1.
        -15    1    1    2    0    0  0.98890893992E+02  0.64770889817E+02  0.17651839352E+03  0.21245370805E+03  0.17770000000E+01 0. -1.
         15    1    1    2    0    0 -0.13078675797E+02  0.75584073298E+02  0.13047277242E+02  0.77829255870E+02  0.17770000000E+01 0.  1.
</event>
<event>
 7    1  0.3333805E-006  0.4674883E+03  0.7546771E-02  0.9475648E-01
        -11   -1    0    0    0    0  0.00000000000E+00  0.00000000000E+00  0.50000000000E+03  0.50000000000E+03  0.00000000000E+00 0. -1.
         11   -1    0    0    0    0 -0.00000000000E+00 -0.00000000000E+00 -0.50000000000E+03  0.50000000000E+03  0.00000000000E+00 0.  1.
         23    2    1    2    0    0  0.49827252682E+02 -0.53725466889E+02  0.41855290516E+03  0.43467844484E+03  0.91594951204E+02 0.  0.
        -11    1    1    2    0    0  0.27161017815E+02 -0.72389351017E+01  0.65568871375E+02  0.71340030583E+02  0.00000000000E+00 0. -1.
         11    1    1    2    0    0 -0.76988270497E+02  0.60964401991E+02 -0.48412177654E+03  0.49398152458E+03  0.00000000000E+00 0.  1.
        -15    1    3    3    0    0  0.24524917448E+02  0.24650995285E+02  0.13274814713E+03  0.13723837451E+03  0.17770000000E+01 0.  1.
         15    1    3    3    0    0  0.25302335234E+02 -0.78376462174E+02  0.28580475804E+03  0.29744007033E+03  0.17770000000E+01 0. -1.
</event>
<event>
 7    1  0.3234965E-006  0.5280538E+03  0.7546771E-02  0.9339136E-01
        -11   -1    0    0    0    0  0.00000000000E+00  0.00000000000E+00  0.50000000000E+03  0.50000000000E+03  0.00000000000E+00 0. -1.
         11   -1    0    0    0    0 -0.00000000000E+00 -0.00000000000E+00 -0.50000000000E+03  0.50000000000E+03  0.00000000000E+00 0.  1.
         23    2    1    2    0    0 -0.35254334944E+02 -0.28893881643E+02  0.96852193825E+02  0.14237880207E+03  0.93881048686E+02 0.  0.
        -11    1    1    2    0    0  0.13912619050E+03 -0.67488614834E+02  0.35331914713E+03  0.38567503127E+03  0.00000000000E+00 0. -1.
         11    1    1    2    0    0 -0.10387185555E+03  0.96382496477E+02 -0.45017134096E+03  0.47194616666E+03  0.00000000000E+00 0.  1.
        -15    1    3    3    0    0 -0.50470277134E+02 -0.53718502659E+02  0.58079038864E+02  0.93857652252E+02  0.17770000000E+01 0. -1.
         15    1    3    3    0    0  0.15215942190E+02  0.24824621016E+02  0.38773154962E+02  0.48521149821E+02  0.17770000000E+01 0.  1.
</event>
<event>
 7    1  0.3234965E-006  0.3228766E+03  0.7546771E-02  0.9916499E-01
        -11   -1    0    0    0    0  0.00000000000E+00  0.00000000000E+00  0.50000000000E+03  0.50000000000E+03  0.00000000000E+00 0. -1.
         11   -1    0    0    0    0 -0.00000000000E+00 -0.00000000000E+00 -0.50000000000E+03  0.50000000000E+03  0.00000000000E+00 0. -1.
         23    2    1    2    0    0  0.18560226246E+03  0.16651492457E+03 -0.29465710848E+03  0.39653940310E+03  0.90803450933E+02 0.  0.
        -11    1    1    2    0    0  0.60803950411E+02  0.42925398789E+01  0.29744749420E+03  0.30362898098E+03  0.00000000000E+00 0. -1.
         11    1    1    2    0    0 -0.24640621287E+03 -0.17080746444E+03 -0.27903857226E+01  0.29983161592E+03  0.00000000000E+00 0. -1.
        -15    1    3    3    0    0  0.12220658177E+03  0.11002864805E+03 -0.25348656530E+03  0.30215782058E+03  0.17770000000E+01 0. -1.
         15    1    3    3    0    0  0.63395680692E+02  0.56486276514E+02 -0.41170543176E+02  0.94381582521E+02  0.17770000000E+01 0.  1.
</event>
<event>
 7    1  0.3234965E-006  0.5219705E+03  0.7546771E-02  0.9351948E-01
        -11   -1    0    0    0    0  0.00000000000E+00  0.00000000000E+00  0.50000000000E+03  0.50000000000E+03  0.00000000000E+00 0.  1.
         11   -1    0    0    0    0 -0.00000000000E+00 -0.00000000000E+00 -0.50000000000E+03  0.50000000000E+03  0.00000000000E+00 0. -1.
         23    2    1    2    0    0  0.11921947790E+02 -0.38229900059E+02  0.11938397173E+03  0.15464603114E+03  0.89773070253E+02 0.  0.
        -11    1    1    2    0    0 -0.13119934102E+03  0.13118396596E+02  0.34284382811E+03  0.36732444771E+03  0.00000000000E+00 0.  1.
         11    1    1    2    0    0  0.11927739323E+03  0.25111503463E+02 -0.46222779984E+03  0.47802952115E+03  0.00000000000E+00 0. -1.
        -15    1    3    3    0    0 -0.16312326911E+02 -0.31968871975E+02  0.45594363515E+01  0.36222188966E+02  0.17770000000E+01 0.  1.
         15    1    3    3    0    0  0.28234274701E+02 -0.62610280843E+01  0.11482453538E+03  0.11842384217E+03  0.17770000000E+01 0. -1.
</event>
<event>
 7    1  0.3234965E-006  0.4835428E+03  0.7546771E-02  0.9437406E-01
        -11   -1    0    0    0    0  0.00000000000E+00  0.00000000000E+00  0.50000000000E+03  0.50000000000E+03  0.00000000000E+00 0.  1.
         11   -1    0    0    0    0 -0.00000000000E+00 -0.00000000000E+00 -0.50000000000E+03  0.50000000000E+03  0.00000000000E+00 0. -1.
         23    2    1    2    0    0 -0.74333395971E+01 -0.81087165447E+02 -0.46444267323E+03  0.48249988615E+03  0.10231696086E+03 0.  0.
        -11    1    1    2    0    0 -0.30983587500E+02  0.10011978134E+03  0.46288219061E+03  0.47459864696E+03  0.00000000000E+00 0.  1.
         11    1    1    2    0    0  0.38416927097E+02 -0.19032615895E+02  0.15604826238E+01  0.42901466891E+02  0.00000000000E+00 0. -1.
        -15    1    3    3    0    0 -0.22873219794E+01  0.24294069742E+02 -0.68538864992E+02  0.72774771795E+02  0.17770000000E+01 0.  1.
         15    1    3    3    0    0 -0.51460176177E+01 -0.10538123519E+03 -0.39590380824E+03  0.40972511436E+03  0.17770000000E+01 0. -1.
</event>
<event>
 7    1  0.3234965E-006  0.5324431E+03  0.7546771E-02  0.9330006E-01
        -11   -1    0    0    0    0  0.00000000000E+00  0.00000000000E+00  0.50000000000E+03  0.50000000000E+03  0.00000000000E+00 0.  1.
         11   -1    0    0    0    0 -0.00000000000E+00 -0.00000000000E+00 -0.50000000000E+03  0.50000000000E+03  0.00000000000E+00 0. -1.
         23    2    1    2    0    0  0.44826095597E+02  0.10855470486E+02  0.37602304267E+02  0.10879665326E+03  0.91079956022E+02 0.  0.
        -11    1    1    2    0    0  0.67281021058E+02 -0.68025038237E+02  0.41270104654E+03  0.42364642739E+03  0.00000000000E+00 0.  1.
         11    1    1    2    0    0 -0.11210711666E+03  0.57169567751E+02 -0.45030335081E+03  0.46755691935E+03  0.00000000000E+00 0. -1.
        -15    1    3    3    0    0  0.30217145958E+02  0.41739340972E+02  0.50560881064E+02  0.72213633876E+02  0.17770000000E+01 0. -1.
         15    1    3    3    0    0  0.14608949639E+02 -0.30883870487E+02 -0.12958576797E+02  0.36583019386E+02  0.17770000000E+01 0.  1.
</event>
<event>
 7    1  0.3234965E-006  0.5104117E+03  0.7546771E-02  0.9376809E-01
        -11   -1    0    0    0    0  0.00000000000E+00  0.00000000000E+00  0.50000000000E+03  0.50000000000E+03  0.00000000000E+00 0.  1.
         11   -1    0    0    0    0 -0.00000000000E+00 -0.00000000000E+00 -0.50000000000E+03  0.50000000000E+03  0.00000000000E+00 0.  1.
         23    2    1    2    0    0 -0.66006309579E+02  0.39339314287E+01  0.18778498797E+03  0.21874100121E+03  0.90620721587E+02 0.  0.
        -11    1    1    2    0    0 -0.10155581311E+03 -0.34736094165E+02  0.27120399279E+03  0.29167067923E+03  0.00000000000E+00 0.  1.
         11    1    1    2    0    0  0.16756212269E+03  0.30802162736E+02 -0.45898898076E+03  0.48958831956E+03  0.00000000000E+00 0.  1.
        -15    1    3    3    0    0 -0.72087420488E+02 -0.27144395427E+02  0.10618753424E+03  0.13119590143E+03  0.17770000000E+01 0. -1.
         15    1    3    3    0    0  0.60811109097E+01  0.31078326855E+02  0.81597453734E+02  0.87545099776E+02  0.17770000000E+01 0.  1.
</event>
<event>
 7    1  0.3234965E-006  0.5009998E+03  0.7546771E-02  0.9397575E-01
        -11   -1    0    0    0    0  0.00000000000E+00  0.00000000000E+00  0.50000000000E+03  0.50000000000E+03  0.00000000000E+00 0. -1.
         11   -1    0    0    0    0 -0.00000000000E+00 -0.00000000000E+00 -0.50000000000E+03  0.50000000000E+03  0.00000000000E+00 0. -1.
         23    2    1    2    0    0  0.80995054602E+02  0.29234826114E+01 -0.48379789164E+03  0.49900015280E+03  0.91498671697E+02 0.  0.
        -11    1    1    2    0    0 -0.74978364162E+02 -0.41758567823E+02  0.38945912587E+03  0.39880313916E+03  0.00000000000E+00 0. -1.
         11    1    1    2    0    0 -0.60166904399E+01  0.38835085212E+02  0.94338765770E+02  0.10219670804E+03  0.00000000000E+00 0. -1.
        -15    1    3    3    0    0  0.17243054326E+02 -0.38752499277E+02 -0.11938348523E+03  0.12670695875E+03  0.17770000000E+01 0.  1.
         15    1    3    3    0    0  0.63752000276E+02  0.41675981888E+02 -0.36441440641E+03  0.37229319405E+03  0.17770000000E+01 0. -1.
</event>
<event>
 7    1  0.3234965E-006  0.4593793E+03  0.7546771E-02  0.9495590E-01
        -11   -1    0    0    0    0  0.00000000000E+00  0.00000000000E+00  0.50000000000E+03  0.50000000000E+03  0.00000000000E+00 0. -1.
         11   -1    0    0    0    0 -0.00000000000E+00 -0.00000000000E+00 -0.50000000000E+03  0.50000000000E+03  0.00000000000E+00 0. -1.
         23    2    1    2    0    0 -0.14900039076E+02 -0.74178713335E+02 -0.40436337815E+03  0.42127452904E+03  0.90763398743E+02 0.  0.
        -11    1    1    2    0    0 -0.11995345871E+02  0.10006877865E+03  0.48208265004E+03  0.49250515759E+03  0.00000000000E+00 0. -1.
         11    1    1    2    0    0  0.26895384947E+02 -0.25890065314E+02 -0.77719271896E+02  0.86220313369E+02  0.00000000000E+00 0. -1.
        -15    1    3    3    0    0  0.18864370323E+02 -0.58349831337E+00 -0.16770634568E+02  0.25310409929E+02  0.17770000000E+01 0.  1.
         15    1    3    3    0    0 -0.33764409398E+02 -0.73595215022E+02 -0.38759274358E+03  0.39596411911E+03  0.17770000000E+01 0. -1.
</event>
<event>
 7    1  0.3234965E-006  0.3346852E+03  0.7546771E-02  0.9871889E-01
        -11   -1    0    0    0    0  0.00000000000E+00  0.00000000000E+00  0.50000000000E+03  0.50000000000E+03  0.00000000000E+00 0. -1.
         11   -1    0    0    0    0 -0.00000000000E+00 -0.00000000000E+00 -0.50000000000E+03  0.50000000000E+03  0.00000000000E+00 0.  1.
         23    2    1    2    0    0  0.12182081320E+03  0.54665817260E+02 -0.22950511990E+03  0.27989035002E+03  0.88528785540E+02 0.  0.
        -11    1    1    2    0    0  0.59938299717E+02  0.44107748310E+02  0.42740084222E+03  0.43383127270E+03  0.00000000000E+00 0. -1.
         11    1    1    2    0    0 -0.18175911292E+03 -0.98773565569E+02 -0.19789572233E+03  0.28627837729E+03  0.00000000000E+00 0.  1.
        -15    1    3    3    0    0  0.58482236910E+01  0.32190265687E+02 -0.96898927022E+02  0.10228868321E+03  0.17770000000E+01 0. -1.
         15    1    3    3    0    0  0.11597258951E+03  0.22475551573E+02 -0.13260619287E+03  0.17760166681E+03  0.17770000000E+01 0.  1.
</event>
<event>
 7    1  0.3234965E-006  0.4774582E+03  0.7546771E-02  0.9451711E-01
        -11   -1    0    0    0    0  0.00000000000E+00  0.00000000000E+00  0.50000000000E+03  0.50000000000E+03  0.00000000000E+00 0.  1.
         11   -1    0    0    0    0 -0.00000000000E+00 -0.00000000000E+00 -0.50000000000E+03  0.50000000000E+03  0.00000000000E+00 0.  1.
         23    2    1    2    0    0  0.35320470156E+02 -0.16160486605E+03 -0.44606003400E+03  0.48710334687E+03  0.10457747490E+03 0.  0.
        -11    1    1    2    0    0 -0.41585567864E+00  0.11919852639E+03  0.44203597412E+03  0.45782558256E+03  0.00000000000E+00 0.  1.
         11    1    1    2    0    0 -0.34904614477E+02  0.42406339667E+02  0.40240598809E+01  0.55071070570E+02  0.00000000000E+00 0.  1.
        -15    1    3    3    0    0 -0.28211628994E+02 -0.45599426669E+02 -0.20752243075E+03  0.21434533052E+03  0.17770000000E+01 0. -1.
         15    1    3    3    0    0  0.63532099150E+02 -0.11600543939E+03 -0.23853760325E+03  0.27275801635E+03  0.17770000000E+01 0.  1.
</event>
<event>
 7    1  0.3234965E-006  0.4890458E+03  0.7546771E-02  0.9424660E-01
        -11   -1    0    0    0    0  0.00000000000E+00  0.00000000000E+00  0.50000000000E+03  0.50000000000E+03  0.00000000000E+00 0.  1.
         11   -1    0    0    0    0 -0.00000000000E+00 -0.00000000000E+00 -0.50000000000E+03  0.50000000000E+03  0.00000000000E+00 0. -1.
         23    2    1    2    0    0 -0.84784001482E+02 -0.39526031596E+02 -0.46948092397E+03  0.48763848160E+03  0.92888732836E+02 0.  0.
        -11    1    1    2    0    0  0.67943775231E+02  0.64536007930E+02  0.47282864428E+03  0.48202508209E+03  0.00000000000E+00 0.  1.
         11    1    1    2    0    0  0.16840226251E+02 -0.25009976334E+02 -0.33477203102E+01  0.30336436305E+02  0.00000000000E+00 0. -1.
        -15    1    3    3    0    0  0.17128997784E+02 -0.20629853540E+02 -0.71671213645E+02  0.76543543271E+02  0.17770000000E+01 0.  1.
         15    1    3    3    0    0 -0.10191299927E+03 -0.18896178056E+02 -0.39780971033E+03  0.41109493833E+03  0.17770000000E+01 0. -1.
</event>
<event>
 7    1  0.3234965E-006  0.4681935E+03  0.7546771E-02  0.9473934E-01
        -11   -1    0    0    0    0  0.00000000000E+00  0.00000000000E+00  0.50000000000E+03  0.50000000000E+03  0.00000000000E+00 0. -1.
         11   -1    0    0    0    0 -0.00000000000E+00 -0.00000000000E+00 -0.50000000000E+03  0.50000000000E+03  0.00000000000E+00 0.  1.
         23    2    1    2    0    0 -0.10707009679E+03  0.10841345132E+03  0.40021640985E+03  0.43923382738E+03  0.97650900405E+02 0.  0.
        -11    1    1    2    0    0  0.11635826860E+02 -0.91902069164E+01  0.69616843316E+02  0.71178348134E+02  0.00000000000E+00 0. -1.
         11    1    1    2    0    0  0.95434269931E+02 -0.99223244399E+02 -0.46983325316E+03  0.48958782449E+03  0.00000000000E+00 0.  1.
        -15    1    3    3    0    0 -0.31940639045E+02 -0.15843319958E+02  0.74365180548E+02  0.82489714612E+02  0.17770000000E+01 0. -1.
         15    1    3    3    0    0 -0.75129457745E+02  0.12425677127E+03  0.32585122930E+03  0.35674411277E+03  0.17770000000E+01 0.  1.
</event>
<event>
 7    1  0.3234965E-006  0.3890104E+03  0.7546771E-02  0.9689441E-01
        -11   -1    0    0    0    0  0.00000000000E+00  0.00000000000E+00  0.50000000000E+03  0.50000000000E+03  0.00000000000E+00 0.  1.
         11   -1    0    0    0    0 -0.00000000000E+00 -0.00000000000E+00 -0.50000000000E+03  0.50000000000E+03  0.00000000000E+00 0. -1.
         23    2    1    2    0    0 -0.30681116042E+02 -0.22436679735E+02 -0.31979736622E+03  0.33490450071E+03  0.91901760991E+02 0.  0.
        -11    1    1    2    0    0 -0.64427087398E+02 -0.11504238284E+03  0.43991177145E+03  0.45924717321E+03  0.00000000000E+00 0.  1.
         11    1    1    2    0    0  0.95108203440E+02  0.13747906258E+03 -0.12011440522E+03  0.20584832608E+03  0.00000000000E+00 0. -1.
        -15    1    3    3    0    0 -0.20682765941E+02 -0.55615299179E+02 -0.14472319414E+03  0.15642505861E+03  0.17770000000E+01 0.  1.
         15    1    3    3    0    0 -0.99983501017E+01  0.33178619444E+02 -0.17507417208E+03  0.17847944210E+03  0.17770000000E+01 0. -1.
</event>
<event>
 7    1  0.3234965E-006  0.5397821E+03  0.7546771E-02  0.9314945E-01
        -11   -1    0    0    0    0  0.00000000000E+00  0.00000000000E+00  0.50000000000E+03  0.50000000000E+03  0.00000000000E+00 0.  1.
         11   -1    0    0    0    0 -0.00000000000E+00 -0.00000000000E+00 -0.50000000000E+03  0.50000000000E+03  0.00000000000E+00 0. -1.
         23    2    1    2    0    0 -0.86989963127E+02  0.57701636770E+02 -0.19950809800E+03  0.24243404523E+03  0.89855731870E+02 0.  0.
        -11    1    1    2    0    0 -0.71434452790E+02 -0.56350741769E+02  0.45113434234E+03  0.46021786361E+03  0.00000000000E+00 0.  1.
         11    1    1    2    0    0  0.15842441592E+03 -0.13508950013E+01 -0.25162624434E+03  0.29734809116E+03  0.00000000000E+00 0. -1.
        -15    1    3    3    0    0 -0.99574545051E+02  0.65317945550E+02 -0.19170291885E+03  0.22568715262E+03  0.17770000000E+01 0. -1.
         15    1    3    3    0    0  0.12584581925E+02 -0.76163087799E+01 -0.78051791503E+01  0.16746892614E+02  0.17770000000E+01 0.  1.
</event>
<event>
 7    1  0.3234965E-006  0.5095391E+03  0.7546771E-02  0.9378715E-01
        -11   -1    0    0    0    0  0.00000000000E+00  0.00000000000E+00  0.50000000000E+03  0.50000000000E+03  0.00000000000E+00 0. -1.
         11   -1    0    0    0    0 -0.00000000000E+00 -0.00000000000E+00 -0.50000000000E+03  0.50000000000E+03  0.00000000000E+00 0.  1.
         23    2    1    2    0    0  0.63710332989E+02  0.10152105128E+02 -0.34896816040E+03  0.36651082888E+03  0.91593334589E+02 0.  0.
        -11    1    1    2    0    0 -0.91344343075E+02  0.39384957471E+02  0.48026755137E+03  0.49046089017E+03  0.00000000000E+00 0. -1.
         11    1    1    2    0    0  0.27634010086E+02 -0.49537062599E+02 -0.13129939097E+03  0.14302828095E+03  0.00000000000E+00 0.  1.
        -15    1    3    3    0    0  0.69079932145E+02  0.14979733765E+01 -0.34939247036E+03  0.35616363798E+03  0.17770000000E+01 0.  1.
         15    1    3    3    0    0 -0.53695991560E+01  0.86541317511E+01  0.42430995498E+00  0.10347190894E+02  0.17770000000E+01 0. -1.
</event>
<event>
 7    1  0.3234965E-006  0.5160734E+03  0.7546771E-02  0.9364546E-01
        -11   -1    0    0    0    0  0.00000000000E+00  0.00000000000E+00  0.50000000000E+03  0.50000000000E+03  0.00000000000E+00 0. -1.
         11   -1    0    0    0    0 -0.00000000000E+00 -0.00000000000E+00 -0.50000000000E+03  0.50000000000E+03  0.00000000000E+00 0.  1.
         23    2    1    2    0    0  0.39007465949E+02  0.43465233708E+02 -0.47164954649E+03  0.48392664449E+03  0.91218932230E+02 0.  0.
        -11    1    1    2    0    0 -0.85705578660E+01 -0.10724370891E+03  0.40459458356E+03  0.41865432592E+03  0.00000000000E+00 0. -1.
         11    1    1    2    0    0 -0.30436908083E+02  0.63778475207E+02  0.67054962930E+02  0.97419029594E+02  0.00000000000E+00 0.  1.
        -15    1    3    3    0    0  0.62628496934E+02  0.51578024109E+01 -0.29517830722E+03  0.30179847967E+03  0.17770000000E+01 0.  1.
         15    1    3    3    0    0 -0.23621030984E+02  0.38307431297E+02 -0.17647123928E+03  0.18212816481E+03  0.17770000000E+01 0. -1.
</event>
<event>
 7    1  0.3234965E-006  0.4206083E+03  0.7546771E-02  0.9597396E-01
        -11   -1    0    0    0    0  0.00000000000E+00  0.00000000000E+00  0.50000000000E+03  0.50000000000E+03  0.00000000000E+00 0. -1.
         11   -1    0    0    0    0 -0.00000000000E+00 -0.00000000000E+00 -0.50000000000E+03  0.50000000000E+03  0.00000000000E+00 0. -1.
         23    2    1    2    0    0  0.10574788254E+03  0.94560365532E+02 -0.37955827442E+03  0.41536939560E+03  0.91339880276E+02 0.  0.
        -11    1    1    2    0    0  0.43983121830E+02 -0.11494215954E+03  0.41207442754E+03  0.43005993638E+03  0.00000000000E+00 0. -1.
         11    1    1    2    0    0 -0.14973100437E+03  0.20381794011E+02 -0.32516153117E+02  0.15457066802E+03  0.00000000000E+00 0. -1.
        -15    1    3    3    0    0  0.10284770318E+03  0.34712242067E+02 -0.23434523706E+03  0.25827008666E+03  0.17770000000E+01 0. -1.
         15    1    3    3    0    0  0.29001793603E+01  0.59848123465E+02 -0.14521303736E+03  0.15709930895E+03  0.17770000000E+01 0.  1.
</event>
<event>
 6    1  0.3234965E-006  0.3059994E+03  0.7546771E-02  0.9983947E-01
        -11   -1    0    0    0    0  0.00000000000E+00  0.00000000000E+00  0.50000000000E+03  0.50000000000E+03  0.00000000000E+00 0.  1.
         11   -1    0    0    0    0 -0.00000000000E+00 -0.00000000000E+00 -0.50000000000E+03  0.50000000000E+03  0.00000000000E+00 0.  1.
        -11    1    1    2    0    0  0.11375369468E+03  0.16017849845E+03  0.32809702783E+03  0.38241955244E+03  0.00000000000E+00 0.  1.
         11    1    1    2    0    0  0.11049931040E+03  0.25452032986E+02 -0.15822500119E+03  0.19466138442E+03  0.00000000000E+00 0.  1.
        -15    1    1    2    0    0 -0.16232624650E+03 -0.63411163843E+02  0.33717213974E+02  0.17751280025E+03  0.17770000000E+01 0. -1.
         15    1    1    2    0    0 -0.61926758575E+02 -0.12221936759E+03 -0.20358924061E+03  0.24540626289E+03  0.17770000000E+01 0.  1.
</event>
<event>
 7    1  0.3234965E-006  0.3376066E+03  0.7546771E-02  0.9861157E-01
        -11   -1    0    0    0    0  0.00000000000E+00  0.00000000000E+00  0.50000000000E+03  0.50000000000E+03  0.00000000000E+00 0.  1.
         11   -1    0    0    0    0 -0.00000000000E+00 -0.00000000000E+00 -0.50000000000E+03  0.50000000000E+03  0.00000000000E+00 0.  1.
         23    2    1    2    0    0  0.73243370975E+02 -0.17556391366E+01 -0.38068608257E+03  0.39800119888E+03  0.90085443820E+02 0.  0.
        -11    1    1    2    0    0  0.11680467852E+03  0.16250660472E+03  0.25195425426E+03  0.32176493865E+03  0.00000000000E+00 0.  1.
         11    1    1    2    0    0 -0.19004804950E+03 -0.16075096559E+03  0.12873182831E+03  0.28023386247E+03  0.00000000000E+00 0.  1.
        -15    1    3    3    0    0  0.27649598094E+02  0.32337833889E+02 -0.68470556421E+02  0.80632565387E+02  0.17770000000E+01 0.  1.
         15    1    3    3    0    0  0.45593772880E+02 -0.34093473025E+02 -0.31221552615E+03  0.31736863349E+03  0.17770000000E+01 0. -1.
</event>
<event>
 7    1  0.3234965E-006  0.5406302E+03  0.7546771E-02  0.9313221E-01
        -11   -1    0    0    0    0  0.00000000000E+00  0.00000000000E+00  0.50000000000E+03  0.50000000000E+03  0.00000000000E+00 0.  1.
         11   -1    0    0    0    0 -0.00000000000E+00 -0.00000000000E+00 -0.50000000000E+03  0.50000000000E+03  0.00000000000E+00 0. -1.
         23    2    1    2    0    0 -0.15419646914E+03  0.33611388922E+02 -0.20933182825E+03  0.27734144827E+03  0.90510706817E+02 0.  0.
        -11    1    1    2    0    0  0.77130175356E+02  0.35319449458E+02  0.45146878438E+03  0.45936977559E+03  0.00000000000E+00 0.  1.
         11    1    1    2    0    0  0.77066293783E+02 -0.68930838380E+02 -0.24213695613E+03  0.26328877614E+03  0.00000000000E+00 0. -1.
        -15    1    3    3    0    0 -0.81399183650E+02  0.40957429773E+02 -0.17320893197E+03  0.19572386159E+03  0.17770000000E+01 0. -1.
         15    1    3    3    0    0 -0.72797285489E+02 -0.73460408516E+01 -0.36122896285E+02  0.81617586682E+02  0.17770000000E+01 0.  1.
</event>
<event>
 7    1  0.3234965E-006  0.5202896E+03  0.7546771E-02  0.9355521E-01
        -11   -1    0    0    0    0  0.00000000000E+00  0.00000000000E+00  0.50000000000E+03  0.50000000000E+03  0.00000000000E+00 0.  1.
         11   -1    0    0    0    0 -0.00000000000E+00 -0.00000000000E+00 -0.50000000000E+03  0.50000000000E+03  0.00000000000E+00 0. -1.
         23    2    1    2    0    0  0.66452612123E+00  0.30278613549E+02  0.10457390596E+03  0.14869390950E+03  0.10127655643E+03 0.  0.
        -11    1    1    2    0    0 -0.18518549344E+02  0.59105258559E+02  0.36639727773E+03  0.37159565846E+03  0.00000000000E+00 0.  1.
         11    1    1    2    0    0  0.17854023223E+02 -0.89383872107E+02 -0.47097118369E+03  0.47971043204E+03  0.00000000000E+00 0. -1.
        -15    1    3    3    0    0 -0.48322217691E+02  0.23933416424E+02  0.69973730248E+02  0.88359073095E+02  0.17770000000E+01 0.  1.
         15    1    3    3    0    0  0.48986743813E+02  0.63451971242E+01  0.34600175716E+02  0.60334836409E+02  0.17770000000E+01 0. -1.
</event>
<event>
 7    1  0.3234965E-006  0.3829740E+03  0.7546771E-02  0.9708090E-01
        -11   -1    0    0    0    0  0.00000000000E+00  0.00000000000E+00  0.50000000000E+03  0.50000000000E+03  0.00000000000E+00 0. -1.
         11   -1    0    0    0    0 -0.00000000000E+00 -0.00000000000E+00 -0.50000000000E+03  0.50000000000E+03  0.00000000000E+00 0. -1.
         23    2    1    2    0    0 -0.20292321105E+02 -0.81671944143E+02 -0.31906058230E+03  0.34198016240E+03  0.89825895705E+02 0.  0.
        -11    1    1    2    0    0 -0.15240643411E+03 -0.12261291179E+01  0.41620372022E+03  0.44323217536E+03  0.00000000000E+00 0. -1.
         11    1    1    2    0    0  0.17269875522E+03  0.82898073261E+02 -0.97143137917E+02  0.21478766224E+03  0.00000000000E+00 0. -1.
        -15    1    3    3    0    0  0.32852733157E-01  0.19233337910E+02 -0.37356004763E+02  0.42054145899E+02  0.17770000000E+01 0.  1.
         15    1    3    3    0    0 -0.20325173838E+02 -0.10090528205E+03 -0.28170457754E+03  0.29992601650E+03  0.17770000000E+01 0. -1.
</event>
<event>
 7    1  0.3234965E-006  0.4200315E+03  0.7546771E-02  0.9598998E-01
        -11   -1    0    0    0    0  0.00000000000E+00  0.00000000000E+00  0.50000000000E+03  0.50000000000E+03  0.00000000000E+00 0. -1.
         11   -1    0    0    0    0 -0.00000000000E+00 -0.00000000000E+00 -0.50000000000E+03  0.50000000000E+03  0.00000000000E+00 0.  1.
         23    2    1    2    0    0  0.65215136232E+02  0.95384815432E+02 -0.36268896629E+03  0.39234854474E+03  0.95093728935E+02 0.  0.
        -11    1    1    2    0    0 -0.11447915876E+03  0.33884270059E+02  0.43532780003E+03  0.45140216551E+03  0.00000000000E+00 0. -1.
         11    1    1    2    0    0  0.49264022527E+02 -0.12926908549E+03 -0.72638833748E+02  0.15624928975E+03  0.00000000000E+00 0.  1.
        -15    1    3    3    0    0 -0.93593984927E-01 -0.18049432804E+02 -0.33649662603E+02  0.38226277698E+02  0.17770000000E+01 0. -1.
         15    1    3    3    0    0  0.65308730217E+02  0.11343424824E+03 -0.32903930368E+03  0.35412226704E+03  0.17770000000E+01 0.  1.
</event>
<event>
 7    1  0.3234965E-006  0.5173846E+03  0.7546771E-02  0.9361729E-01
        -11   -1    0    0    0    0  0.00000000000E+00  0.00000000000E+00  0.50000000000E+03  0.50000000000E+03  0.00000000000E+00 0. -1.
         11   -1    0    0    0    0 -0.00000000000E+00 -0.00000000000E+00 -0.50000000000E+03  0.50000000000E+03  0.00000000000E+00 0.  1.
         23    2    1    2    0    0 -0.12340464208E+02  0.71235651347E+02  0.76757166544E+02  0.13822897366E+03  0.89379983574E+02 0.  0.
        -11    1    1    2    0    0 -0.46910868268E+02  0.18924282216E+03  0.32518540177E+03  0.37915566833E+03  0.00000000000E+00 0. -1.
         11    1    1    2    0    0  0.59251332475E+02 -0.26047847351E+03 -0.40194256832E+03  0.48261535801E+03  0.00000000000E+00 0.  1.
        -15    1    3    3    0    0 -0.32352861251E+02 -0.59760808818E+01  0.35412691211E+02  0.48369800513E+02  0.17770000000E+01 0.  1.
         15    1    3    3    0    0  0.20012397044E+02  0.77211732228E+02  0.41344475333E+02  0.89859173147E+02  0.17770000000E+01 0. -1.
</event>
<event>
 7    1  0.3234965E-006  0.5084257E+03  0.7546771E-02  0.9381151E-01
        -11   -1    0    0    0    0  0.00000000000E+00  0.00000000000E+00  0.50000000000E+03  0.50000000000E+03  0.00000000000E+00 0.  1.
         11   -1    0    0    0    0 -0.00000000000E+00 -0.00000000000E+00 -0.50000000000E+03  0.50000000000E+03  0.00000000000E+00 0.  1.
         23    2    1    2    0    0  0.95890471865E+02 -0.44764533464E+02  0.25187157780E+03  0.28861720101E+03  0.93068528323E+02 0.  0.
        -11    1    1    2    0    0  0.96872453312E+02 -0.59225193614E+02  0.18821235107E+03  0.21980851863E+03  0.00000000000E+00 0.  1.
         11    1    1    2    0    0 -0.19276292518E+03  0.10398972708E+03 -0.44008392887E+03  0.49157428036E+03  0.00000000000E+00 0.  1.
        -15    1    3    3    0    0  0.34478779249E+02 -0.66411056448E+02  0.15114931224E+03  0.16866679269E+03  0.17770000000E+01 0.  1.
         15    1    3    3    0    0  0.61411692616E+02  0.21646522984E+02  0.10072226556E+03  0.11995040832E+03  0.17770000000E+01 0. -1.
</event>
<event>
 7    1  0.3234965E-006  0.5284284E+03  0.7546771E-02  0.9338354E-01
        -11   -1    0    0    0    0  0.00000000000E+00  0.00000000000E+00  0.50000000000E+03  0.50000000000E+03  0.00000000000E+00 0.  1.
         11   -1    0    0    0    0 -0.00000000000E+00 -0.00000000000E+00 -0.50000000000E+03  0.50000000000E+03  0.00000000000E+00 0. -1.
         23    2    1    2    0    0 -0.33667231106E+02 -0.64631825692E+02  0.91446464975E+02  0.14967289021E+03  0.93427847903E+02 0.  0.
        -11    1    1    2    0    0 -0.47358154925E+02  0.47334470421E+02  0.37278998560E+03  0.37875548880E+03  0.00000000000E+00 0.  1.
         11    1    1    2    0    0  0.81025386031E+02  0.17297355272E+02 -0.46423645058E+03  0.47157162099E+03  0.00000000000E+00 0. -1.
        -15    1    3    3    0    0  0.27939951648E+02 -0.22860740899E+01  0.37072171840E+02  0.46512048834E+02  0.17770000000E+01 0. -1.
         15    1    3    3    0    0 -0.61607182754E+02 -0.62345751603E+02  0.54374293135E+02  0.10316084137E+03  0.17770000000E+01 0.  1.
</event>
<event>
 7    1  0.3234965E-006  0.5287505E+03  0.7546771E-02  0.9337681E-01
        -11   -1    0    0    0    0  0.00000000000E+00  0.00000000000E+00  0.50000000000E+03  0.50000000000E+03  0.00000000000E+00 0.  1.
         11   -1    0    0    0    0 -0.00000000000E+00 -0.00000000000E+00 -0.50000000000E+03  0.50000000000E+03  0.00000000000E+00 0. -1.
         23    2    1    2    0    0 -0.10538509482E+03  0.82011295855E+02  0.18624390699E+03  0.24557059987E+03  0.88239762981E+02 0.  0.
        -11    1    1    2    0    0  0.59521847776E+02 -0.71814137569E+01  0.27676058601E+03  0.28317988106E+03  0.00000000000E+00 0.  1.
         11    1    1    2    0    0  0.45863247046E+02 -0.74829882098E+02 -0.46300449300E+03  0.47124951907E+03  0.00000000000E+00 0. -1.
        -15    1    3    3    0    0 -0.55440838127E+02  0.42659412464E+02  0.16379438002E+03  0.17811588548E+03  0.17770000000E+01 0.  1.
         15    1    3    3    0    0 -0.49944256695E+02  0.39351883390E+02  0.22449526964E+02  0.67454714387E+02  0.17770000000E+01 0. -1.
</event>
<event>
 7    1  0.3234965E-006  0.5242967E+03  0.7546771E-02  0.9347027E-01
        -11   -1    0    0    0    0  0.00000000000E+00  0.00000000000E+00  0.50000000000E+03  0.50000000000E+03  0.00000000000E+00 0.  1.
         11   -1    0    0    0    0 -0.00000000000E+00 -0.00000000000E+00 -0.50000000000E+03  0.50000000000E+03  0.00000000000E+00 0. -1.
         23    2    1    2    0    0  0.64841398048E+02  0.20997061798E+03  0.29386819190E+03  0.37819077183E+03  0.91529658444E+02 0.  0.
        -11    1    1    2    0    0 -0.79459183426E+02  0.23518945378E+02  0.12033298440E+03  0.14610588543E+03  0.00000000000E+00 0.  1.
         11    1    1    2    0    0  0.14617785378E+02 -0.23348956336E+03 -0.41420117629E+03  0.47570334274E+03  0.00000000000E+00 0. -1.
        -15    1    3    3    0    0  0.81863057560E+02  0.11381821817E+03  0.18038667488E+03  0.22847025449E+03  0.17770000000E+01 0.  1.
         15    1    3    3    0    0 -0.17021659512E+02  0.96152399812E+02  0.11348151702E+03  0.14972051735E+03  0.17770000000E+01 0. -1.
</event>
<event>
 7    1  0.3234965E-006  0.5167573E+03  0.7546771E-02  0.9363075E-01
        -11   -1    0    0    0    0  0.00000000000E+00  0.00000000000E+00  0.50000000000E+03  0.50000000000E+03  0.00000000000E+00 0.  1.
         11   -1    0    0    0    0 -0.00000000000E+00 -0.00000000000E+00 -0.50000000000E+03  0.50000000000E+03  0.00000000000E+00 0. -1.
         23    2    1    2    0    0 -0.22280436375E+02  0.10975342934E+03 -0.27252415078E+03  0.30924734682E+03  0.93926969800E+02 0.  0.
        -11    1    1    2    0    0  0.10225918810E+03 -0.92256975054E+02  0.46320101867E+03  0.48324266647E+03  0.00000000000E+00 0.  1.
         11    1    1    2    0    0 -0.79978751725E+02 -0.17496454289E+02 -0.19067686789E+03  0.20750998672E+03  0.00000000000E+00 0. -1.
        -15    1    3    3    0    0  0.14182681378E-01  0.43149110174E+02 -0.21248632641E+03  0.21683044655E+03  0.17770000000E+01 0. -1.
         15    1    3    3    0    0 -0.22294619056E+02  0.66604319169E+02 -0.60037824371E+02  0.92416900268E+02  0.17770000000E+01 0.  1.
</event>
<event>
 7    1  0.3234965E-006  0.4340955E+03  0.7546771E-02  0.9560700E-01
        -11   -1    0    0    0    0  0.00000000000E+00  0.00000000000E+00  0.50000000000E+03  0.50000000000E+03  0.00000000000E+00 0.  1.
         11   -1    0    0    0    0 -0.00000000000E+00 -0.00000000000E+00 -0.50000000000E+03  0.50000000000E+03  0.00000000000E+00 0. -1.
         23    2    1    2    0    0 -0.54352803434E+01  0.35799740960E+02 -0.40277433722E+03  0.41440490976E+03  0.90515737790E+02 0.  0.
        -11    1    1    2    0    0  0.54357614662E+02  0.78925631678E+02  0.44400984206E+03  0.45423424074E+03  0.00000000000E+00 0.  1.
         11    1    1    2    0    0 -0.48922334318E+02 -0.11472537264E+03 -0.41235504846E+02  0.13136084950E+03  0.00000000000E+00 0. -1.
        -15    1    3    3    0    0 -0.42274228496E+02 -0.43700296752E+01 -0.15764752392E+03  0.16328535477E+03  0.17770000000E+01 0.  1.
         15    1    3    3    0    0  0.36838948153E+02  0.40169770635E+02 -0.24512681330E+03  0.25111955500E+03  0.17770000000E+01 0. -1.
</event>
<event>
 7    1  0.3234965E-006  0.3757072E+03  0.7546771E-02  0.9731033E-01
        -11   -1    0    0    0    0  0.00000000000E+00  0.00000000000E+00  0.50000000000E+03  0.50000000000E+03  0.00000000000E+00 0.  1.
         11   -1    0    0    0    0 -0.00000000000E+00 -0.00000000000E+00 -0.50000000000E+03  0.50000000000E+03  0.00000000000E+00 0. -1.
         23    2    1    2    0    0 -0.31747828433E+02  0.30694048932E+03  0.14791861704E+03  0.35483892615E+03  0.93863505429E+02 0.  0.
        -11    1    1    2    0    0  0.44430280804E+02 -0.83558105284E+02  0.20585859576E+03  0.22656956605E+03  0.00000000000E+00 0.  1.
         11    1    1    2    0    0 -0.12682452372E+02 -0.22338238404E+03 -0.35377721281E+03  0.41859150779E+03  0.00000000000E+00 0. -1.
        -15    1    3    3    0    0 -0.37155249420E+02  0.46034433046E+02  0.44832881742E+02  0.74248411428E+02  0.17770000000E+01 0.  1.
         15    1    3    3    0    0  0.54074209868E+01  0.26090605627E+03  0.10308573530E+03  0.28059051473E+03  0.17770000000E+01 0. -1.
</event>
<event>
 7    1  0.3234965E-006  0.3988005E+03  0.7546771E-02  0.9659952E-01
        -11   -1    0    0    0    0  0.00000000000E+00  0.00000000000E+00  0.50000000000E+03  0.50000000000E+03  0.00000000000E+00 0.  1.
         11   -1    0    0    0    0 -0.00000000000E+00 -0.00000000000E+00 -0.50000000000E+03  0.50000000000E+03  0.00000000000E+00 0. -1.
         23    2    1    2    0    0 -0.60258388028E+02 -0.54563688033E+02 -0.34465496818E+03  0.36619521478E+03  0.93293187625E+02 0.  0.
        -11    1    1    2    0    0 -0.10939200840E+03  0.30525992894E+02  0.42832241293E+03  0.44312361387E+03  0.00000000000E+00 0.  1.
         11    1    1    2    0    0  0.16965039643E+03  0.24037695139E+02 -0.83667444752E+02  0.19068117135E+03  0.00000000000E+00 0. -1.
        -15    1    3    3    0    0  0.63012866827E+01 -0.44712960427E+02 -0.21935422938E+03  0.22396069012E+03  0.17770000000E+01 0. -1.
         15    1    3    3    0    0 -0.66559674711E+02 -0.98507276061E+01 -0.12530073880E+03  0.14223452466E+03  0.17770000000E+01 0.  1.
</event>
<event>
 7    1  0.3234965E-006  0.4005679E+03  0.7546771E-02  0.9654724E-01
        -11   -1    0    0    0    0  0.00000000000E+00  0.00000000000E+00  0.50000000000E+03  0.50000000000E+03  0.00000000000E+00 0.  1.
         11   -1    0    0    0    0 -0.00000000000E+00 -0.00000000000E+00 -0.50000000000E+03  0.50000000000E+03  0.00000000000E+00 0.  1.
         23    2    1    2    0    0 -0.11464341239E+02 -0.86940423335E+02  0.13277783445E+03  0.18321440150E+03  0.90815721479E+02 0.  0.
        -11    1    1    2    0    0 -0.94461178399E+02  0.18642315550E+03  0.29696863272E+03  0.36313479033E+03  0.00000000000E+00 0.  1.
         11    1    1    2    0    0  0.10592551964E+03 -0.99482732164E+02 -0.42974646716E+03  0.45365080817E+03  0.00000000000E+00 0.  1.
        -15    1    3    3    0    0 -0.22191157170E+02 -0.10209618284E+03  0.12520959446E+03  0.16308488060E+03  0.17770000000E+01 0.  1.
         15    1    3    3    0    0  0.10726815932E+02  0.15155759505E+02  0.75682399871E+01  0.20129520901E+02  0.17770000000E+01 0. -1.
</event>
<event>
 7    1  0.3234965E-006  0.3532129E+03  0.7546771E-02  0.9805734E-01
        -11   -1    0    0    0    0  0.00000000000E+00  0.00000000000E+00  0.50000000000E+03  0.50000000000E+03  0.00000000000E+00 0. -1.
         11   -1    0    0    0    0 -0.00000000000E+00 -0.00000000000E+00 -0.50000000000E+03  0.50000000000E+03  0.00000000000E+00 0. -1.
         23    2    1    2    0    0  0.11327301136E+02 -0.18595727452E+03 -0.37122699838E+03  0.42550752288E+03  0.92405367848E+02 0.  0.
        -11    1    1    2    0    0  0.43185177753E+02 -0.59009050590E+02  0.30680309237E+03  0.31539683752E+03  0.00000000000E+00 0. -1.
         11    1    1    2    0    0 -0.54512478888E+02  0.24496632511E+03  0.64423906009E+02  0.25909563960E+03  0.00000000000E+00 0. -1.
        -15    1    3    3    0    0  0.26913927449E+02 -0.60305490796E+02 -0.58975242515E+02  0.88557036251E+02  0.17770000000E+01 0.  1.
         15    1    3    3    0    0 -0.15586626313E+02 -0.12565178372E+03 -0.31225175586E+03  0.33695048663E+03  0.17770000000E+01 0. -1.
</event>
<event>
 7    1  0.3234965E-006  0.5167192E+03  0.7546771E-02  0.9363157E-01
        -11   -1    0    0    0    0  0.00000000000E+00  0.00000000000E+00  0.50000000000E+03  0.50000000000E+03  0.00000000000E+00 0. -1.
         11   -1    0    0    0    0 -0.00000000000E+00 -0.00000000000E+00 -0.50000000000E+03  0.50000000000E+03  0.00000000000E+00 0. -1.
         23    2    1    2    0    0  0.59219905468E+02 -0.81345799327E+02 -0.31872677202E+03  0.34643471461E+03  0.91137917517E+02 0.  0.
        -11    1    1    2    0    0 -0.10365894119E+03  0.20846353407E+02  0.47157244559E+03  0.48328078586E+03  0.00000000000E+00 0. -1.
         11    1    1    2    0    0  0.44439035726E+02  0.60499445921E+02 -0.15284567357E+03  0.17028449953E+03  0.00000000000E+00 0. -1.
        -15    1    3    3    0    0 -0.22099713740E+02 -0.41975351412E+01 -0.38653895348E+02  0.44758217159E+02  0.17770000000E+01 0.  1.
         15    1    3    3    0    0  0.81319619208E+02 -0.77148264186E+02 -0.28007287667E+03  0.30167649745E+03  0.17770000000E+01 0. -1.
</event>
<event>
 7    1  0.3234965E-006  0.3773353E+03  0.7546771E-02  0.9725845E-01
        -11   -1    0    0    0    0  0.00000000000E+00  0.00000000000E+00  0.50000000000E+03  0.50000000000E+03  0.00000000000E+00 0.  1.
         11   -1    0    0    0    0 -0.00000000000E+00 -0.00000000000E+00 -0.50000000000E+03  0.50000000000E+03  0.00000000000E+00 0.  1.
         23    2    1    2    0    0  0.19314552792E+03  0.49218231018E+02  0.41970067610E+01  0.21944058596E+03  0.91700200005E+02 0.  0.
        -11    1    1    2    0    0 -0.68947469854E+02  0.42036326747E+02  0.36850501532E+03  0.37724892669E+03  0.00000000000E+00 0.  1.
         11    1    1    2    0    0 -0.12419805807E+03 -0.91254557765E+02 -0.37270202209E+03  0.40331048735E+03  0.00000000000E+00 0.  1.
        -15    1    3    3    0    0  0.14231513759E+03  0.45371478983E+02  0.42890076736E+02  0.15541842202E+03  0.17770000000E+01 0.  1.
         15    1    3    3    0    0  0.50830390332E+02  0.38467520350E+01 -0.38693069975E+02  0.64022163940E+02  0.17770000000E+01 0. -1.
</event>
<event>
 7    1  0.3670556E-006  0.5114910E+03  0.7546771E-02  0.9374458E-01
        -11   -1    0    0    0    0  0.00000000000E+00  0.00000000000E+00  0.50000000000E+03  0.50000000000E+03  0.00000000000E+00 0.  1.
         11   -1    0    0    0    0 -0.00000000000E+00 -0.00000000000E+00 -0.50000000000E+03  0.50000000000E+03  0.00000000000E+00 0. -1.
         23    2    1    2    0    0 -0.38997142944E+02  0.26700599444E+02  0.21787495881E+03  0.24205169245E+03  0.94264653882E+02 0.  0.
        -11    1    1    2    0    0  0.15178965475E+02  0.58870506282E+02  0.26249081572E+03  0.26943935466E+03  0.00000000000E+00 0.  1.
         11    1    1    2    0    0  0.23818177469E+02 -0.85571105727E+02 -0.48036577453E+03  0.48850895289E+03  0.00000000000E+00 0. -1.
        -15    1    3    3    0    0 -0.64575662915E+02  0.23319634172E+02  0.99611829859E+02  0.12099378478E+03  0.17770000000E+01 0. -1.
         15    1    3    3    0    0  0.25578519971E+02  0.33809652723E+01  0.11826312895E+03  0.12105790767E+03  0.17770000000E+01 0.  1.
</event>
<event>
 7    1  0.3234965E-006  0.4038798E+03  0.7546771E-02  0.9645006E-01
        -11   -1    0    0    0    0  0.00000000000E+00  0.00000000000E+00  0.50000000000E+03  0.50000000000E+03  0.00000000000E+00 0. -1.
         11   -1    0    0    0    0 -0.00000000000E+00 -0.00000000000E+00 -0.50000000000E+03  0.50000000000E+03  0.00000000000E+00 0. -1.
         23    2    1    2    0    0  0.33229551296E+02  0.61030641094E+02 -0.43722243329E+03  0.45211239345E+03  0.91723595148E+02 0.  0.
        -11    1    1    2    0    0  0.35578055623E+02  0.85597015201E+02  0.35371174458E+03  0.36565645804E+03  0.00000000000E+00 0. -1.
         11    1    1    2    0    0 -0.68807606919E+02 -0.14662765629E+03  0.83510688711E+02  0.18223114852E+03  0.00000000000E+00 0. -1.
        -15    1    3    3    0    0  0.30986657775E+02 -0.17708156073E+02 -0.15767591199E+03  0.16167437243E+03  0.17770000000E+01 0.  1.
         15    1    3    3    0    0  0.22428935213E+01  0.78738797166E+02 -0.27954652130E+03  0.29043802101E+03  0.17770000000E+01 0. -1.
</event>
<event>
 7    1  0.3234965E-006  0.5243299E+03  0.7546771E-02  0.9346957E-01
        -11   -1    0    0    0    0  0.00000000000E+00  0.00000000000E+00  0.50000000000E+03  0.50000000000E+03  0.00000000000E+00 0. -1.
         11   -1    0    0    0    0 -0.00000000000E+00 -0.00000000000E+00 -0.50000000000E+03  0.50000000000E+03  0.00000000000E+00 0.  1.
         23    2    1    2    0    0 -0.17209561549E+02 -0.92279294092E+02 -0.18418515300E+03  0.22673315535E+03  0.93124196764E+02 0.  0.
        -11    1    1    2    0    0 -0.12750209630E+03  0.11715145394E+03  0.44303591605E+03  0.47567012796E+03  0.00000000000E+00 0. -1.
         11    1    1    2    0    0  0.14471165785E+03 -0.24872159845E+02 -0.25885076305E+03  0.29759671669E+03  0.00000000000E+00 0.  1.
        -15    1    3    3    0    0  0.18730358785E+02 -0.37762517257E+01  0.60949610562E-01  0.19189785334E+02  0.17770000000E+01 0. -1.
         15    1    3    3    0    0 -0.35939920334E+02 -0.88503042366E+02 -0.18424610261E+03  0.20754337001E+03  0.17770000000E+01 0.  1.
</event>
<event>
 7    1  0.3234965E-006  0.5069462E+03  0.7546771E-02  0.9384400E-01
        -11   -1    0    0    0    0  0.00000000000E+00  0.00000000000E+00  0.50000000000E+03  0.50000000000E+03  0.00000000000E+00 0. -1.
         11   -1    0    0    0    0 -0.00000000000E+00 -0.00000000000E+00 -0.50000000000E+03  0.50000000000E+03  0.00000000000E+00 0.  1.
         23    2    1    2    0    0  0.39663761714E+02 -0.39120730098E+02 -0.32127294289E+03  0.33891272948E+03  0.92422339579E+02 0.  0.
        -11    1    1    2    0    0 -0.80208723213E+02  0.48285563727E+02  0.48408376996E+03  0.49305378133E+03  0.00000000000E+00 0. -1.
         11    1    1    2    0    0  0.40544961499E+02 -0.91648336288E+01 -0.16281082707E+03  0.16803348919E+03  0.00000000000E+00 0.  1.
        -15    1    3    3    0    0  0.18273725075E+02 -0.68628065233E+02 -0.22543529485E+03  0.23636406296E+03  0.17770000000E+01 0.  1.
         15    1    3    3    0    0  0.21390036639E+02  0.29507335135E+02 -0.95837648040E+02  0.10254866652E+03  0.17770000000E+01 0. -1.
</event>
<event>
 7    1  0.3234965E-006  0.5233102E+03  0.7546771E-02  0.9349111E-01
        -11   -1    0    0    0    0  0.00000000000E+00  0.00000000000E+00  0.50000000000E+03  0.50000000000E+03  0.00000000000E+00 0. -1.
         11   -1    0    0    0    0 -0.00000000000E+00 -0.00000000000E+00 -0.50000000000E+03  0.50000000000E+03  0.00000000000E+00 0.  1.
         23    2    1    2    0    0  0.72768661295E+01 -0.32579263360E+02 -0.37239357831E+03  0.38167185919E+03  0.76694652680E+02 0.  0.
        -11    1    1    2    0    0 -0.11052890410E+03 -0.37004808784E-01  0.46369870489E+03  0.47668976171E+03  0.00000000000E+00 0. -1.
         11    1    1    2    0    0  0.10325203797E+03  0.32616268169E+02 -0.91305126577E+02  0.14163837910E+03  0.00000000000E+00 0.  1.
        -15    1    3    3    0    0  0.41074735649E+02 -0.26733527846E+02 -0.20404980333E+03  0.20986018057E+03  0.17770000000E+01 0.  1.
         15    1    3    3    0    0 -0.33797869520E+02 -0.58457355134E+01 -0.16834377498E+03  0.17181167862E+03  0.17770000000E+01 0. -1.
</event>
<event>
 7    1  0.3234965E-006  0.5308241E+03  0.7546771E-02  0.9333363E-01
        -11   -1    0    0    0    0  0.00000000000E+00  0.00000000000E+00  0.50000000000E+03  0.50000000000E+03  0.00000000000E+00 0.  1.
         11   -1    0    0    0    0 -0.00000000000E+00 -0.00000000000E+00 -0.50000000000E+03  0.50000000000E+03  0.00000000000E+00 0.  1.
         23    2    1    2    0    0  0.39441863459E+02  0.46247052044E+02  0.19670071495E+03  0.21687089717E+03  0.68171580298E+02 0.  0.
        -11    1    1    2    0    0  0.43382935239E+02  0.28440665315E+03  0.12568760530E+03  0.31395317733E+03  0.00000000000E+00 0.  1.
         11    1    1    2    0    0 -0.82824798698E+02 -0.33065370520E+03 -0.32238832025E+03  0.46917592551E+03  0.00000000000E+00 0.  1.
        -15    1    3    3    0    0  0.36470190327E+02 -0.76644528429E+01  0.81014850927E+02  0.89192950504E+02  0.17770000000E+01 0.  1.
         15    1    3    3    0    0  0.29716731319E+01  0.53911504887E+02  0.11568586402E+03  0.12767794666E+03  0.17770000000E+01 0. -1.
</event>
<event>
 6    1  0.3234965E-006  0.3760786E+03  0.7546771E-02  0.9729847E-01
        -11   -1    0    0    0    0  0.00000000000E+00  0.00000000000E+00  0.50000000000E+03  0.50000000000E+03  0.00000000000E+00 0.  1.
         11   -1    0    0    0    0 -0.00000000000E+00 -0.00000000000E+00 -0.50000000000E+03  0.50000000000E+03  0.00000000000E+00 0. -1.
        -11    1    1    2    0    0 -0.11977411683E+03 -0.72058607127E+01  0.31587214782E+03  0.33789492044E+03  0.00000000000E+00 0.  1.
         11    1    1    2    0    0  0.10146484343E+03 -0.22175675027E+03 -0.14310198380E+03  0.28275315827E+03  0.00000000000E+00 0. -1.
        -15    1    1    2    0    0  0.56540058656E+02  0.24782487141E+02  0.46496898733E+02  0.77305040085E+02  0.17770000000E+01 0.  1.
         15    1    1    2    0    0 -0.38230785253E+02  0.20418012384E+03 -0.21926706275E+03  0.30204688121E+03  0.17770000000E+01 0. -1.
</event>
<event>
 7    1  0.3234965E-006  0.4425286E+03  0.7546771E-02  0.9538469E-01
        -11   -1    0    0    0    0  0.00000000000E+00  0.00000000000E+00  0.50000000000E+03  0.50000000000E+03  0.00000000000E+00 0. -1.
         11   -1    0    0    0    0 -0.00000000000E+00 -0.00000000000E+00 -0.50000000000E+03  0.50000000000E+03  0.00000000000E+00 0.  1.
         23    2    1    2    0    0  0.57858103691E+02 -0.21876418509E+02 -0.19454893180E+02  0.11257065219E+03  0.92019133964E+02 0.  0.
        -11    1    1    2    0    0  0.27249662433E+01  0.10221375023E+03  0.44168993753E+03  0.45337079427E+03  0.00000000000E+00 0. -1.
         11    1    1    2    0    0 -0.60583069934E+02 -0.80337331722E+02 -0.42223504435E+03  0.43405855355E+03  0.00000000000E+00 0.  1.
        -15    1    3    3    0    0 -0.21758623048E+02 -0.22242356359E+02 -0.36360359539E+01  0.31377357758E+02  0.17770000000E+01 0. -1.
         15    1    3    3    0    0  0.79616726740E+02  0.36593785018E+00 -0.15818857226E+02  0.81193294429E+02  0.17770000000E+01 0.  1.
</event>
<event>
 7    1  0.3234965E-006  0.4520580E+03  0.7546771E-02  0.9513976E-01
        -11   -1    0    0    0    0  0.00000000000E+00  0.00000000000E+00  0.50000000000E+03  0.50000000000E+03  0.00000000000E+00 0.  1.
         11   -1    0    0    0    0 -0.00000000000E+00 -0.00000000000E+00 -0.50000000000E+03  0.50000000000E+03  0.00000000000E+00 0. -1.
         23    2    1    2    0    0  0.77707747697E+02 -0.33349938820E+01 -0.41003367896E+03  0.42693996424E+03  0.90002771902E+02 0.  0.
        -11    1    1    2    0    0 -0.85386615725E+02 -0.83208124476E+02  0.45838004542E+03  0.47363143072E+03  0.00000000000E+00 0.  1.
         11    1    1    2    0    0  0.76788680280E+01  0.86543118358E+02 -0.48346366469E+02  0.99428605040E+02  0.00000000000E+00 0. -1.
        -15    1    3    3    0    0  0.29922806674E+01 -0.36848321760E+02 -0.13247970170E+03  0.13755283222E+03  0.17770000000E+01 0.  1.
         15    1    3    3    0    0  0.74715467029E+02  0.33513327878E+02 -0.27755397725E+03  0.28938713202E+03  0.17770000000E+01 0. -1.
</event>
<event>
 7    1  0.3234965E-006  0.5153369E+03  0.7546771E-02  0.9366131E-01
        -11   -1    0    0    0    0  0.00000000000E+00  0.00000000000E+00  0.50000000000E+03  0.50000000000E+03  0.00000000000E+00 0. -1.
         11   -1    0    0    0    0 -0.00000000000E+00 -0.00000000000E+00 -0.50000000000E+03  0.50000000000E+03  0.00000000000E+00 0.  1.
         23    2    1    2    0    0  0.40077778530E+02 -0.96464685202E+02  0.15544690058E+03  0.20897621006E+03  0.92712748037E+02 0.  0.
        -11    1    1    2    0    0 -0.53011477330E+02 -0.17381675149E+03  0.24664632233E+03  0.30636071574E+03  0.00000000000E+00 0. -1.
         11    1    1    2    0    0  0.12933698800E+02  0.27028143670E+03 -0.40209322291E+03  0.48466307420E+03  0.00000000000E+00 0.  1.
        -15    1    3    3    0    0 -0.89623598004E+01 -0.43296364919E+02  0.12100843301E+03  0.12884524709E+03  0.17770000000E+01 0.  1.
         15    1    3    3    0    0  0.49040138330E+02 -0.53168320282E+02  0.34438467564E+02  0.80130962969E+02  0.17770000000E+01 0. -1.
</event>
<event>
 7    1  0.3234965E-006  0.5200194E+03  0.7546771E-02  0.9356096E-01
        -11   -1    0    0    0    0  0.00000000000E+00  0.00000000000E+00  0.50000000000E+03  0.50000000000E+03  0.00000000000E+00 0. -1.
         11   -1    0    0    0    0 -0.00000000000E+00 -0.00000000000E+00 -0.50000000000E+03  0.50000000000E+03  0.00000000000E+00 0.  1.
         23    2    1    2    0    0  0.12583245657E+03  0.59176439482E+01  0.17966573470E+03  0.23828513210E+03  0.92904264256E+02 0.  0.
        -11    1    1    2    0    0  0.97463821213E+01  0.45038922487E+02  0.27794014656E+03  0.28173431025E+03  0.00000000000E+00 0. -1.
         11    1    1    2    0    0 -0.13557883869E+03 -0.50956566436E+02 -0.45760588126E+03  0.47998055765E+03  0.00000000000E+00 0.  1.
        -15    1    3    3    0    0  0.12594332380E+03  0.29251438512E+02  0.16838502053E+03  0.21230647737E+03  0.17770000000E+01 0. -1.
         15    1    3    3    0    0 -0.11086723183E+00 -0.23333794564E+02  0.11280714172E+02  0.25978654729E+02  0.17770000000E+01 0.  1.
</event>
<event>
 7    1  0.3234965E-006  0.5177941E+03  0.7546771E-02  0.9360851E-01
        -11   -1    0    0    0    0  0.00000000000E+00  0.00000000000E+00  0.50000000000E+03  0.50000000000E+03  0.00000000000E+00 0.  1.
         11   -1    0    0    0    0 -0.00000000000E+00 -0.00000000000E+00 -0.50000000000E+03  0.50000000000E+03  0.00000000000E+00 0. -1.
         23    2    1    2    0    0 -0.19647097481E+01 -0.16516809353E+01 -0.35310416695E+03  0.36493121801E+03  0.92117604318E+02 0.  0.
        -11    1    1    2    0    0 -0.92526253094E+02  0.49182751190E+01  0.47322010206E+03  0.48220593312E+03  0.00000000000E+00 0.  1.
         11    1    1    2    0    0  0.94490962842E+02 -0.32665941837E+01 -0.12011593511E+03  0.15286284887E+03  0.00000000000E+00 0. -1.
        -15    1    3    3    0    0 -0.24914248661E+02 -0.40139916032E+02 -0.18589154533E+03  0.19180916819E+03  0.17770000000E+01 0.  1.
         15    1    3    3    0    0  0.22949538913E+02  0.38488235097E+02 -0.16721262162E+03  0.17312204982E+03  0.17770000000E+01 0. -1.
</event>
<event>
 7    1  0.3234965E-006  0.3265077E+03  0.7546771E-02  0.9902567E-01
        -11   -1    0    0    0    0  0.00000000000E+00  0.00000000000E+00  0.50000000000E+03  0.50000000000E+03  0.00000000000E+00 0.  1.
         11   -1    0    0    0    0 -0.00000000000E+00 -0.00000000000E+00 -0.50000000000E+03  0.50000000000E+03  0.00000000000E+00 0. -1.
         23    2    1    2    0    0 -0.22146909647E+03  0.93046117066E+02 -0.31193872497E+03  0.40582944804E+03  0.98415609404E+02 0.  0.
        -11    1    1    2    0    0 -0.68657876162E+02 -0.31815217739E+02  0.28677062535E+03  0.29658641844E+03  0.00000000000E+00 0.  1.
         11    1    1    2    0    0  0.29012697263E+03 -0.61230899327E+02  0.25168099613E+02  0.29758413351E+03  0.00000000000E+00 0. -1.
        -15    1    3    3    0    0 -0.10068535730E+03 -0.91861429538E+01 -0.12999281238E+03  0.16469127298E+03  0.17770000000E+01 0.  1.
         15    1    3    3    0    0 -0.12078373917E+03  0.10223226002E+03 -0.18194591259E+03  0.24113817506E+03  0.17770000000E+01 0. -1.
</event>
<event>
 7    1  0.3234965E-006  0.3732346E+03  0.7546771E-02  0.9738967E-01
        -11   -1    0    0    0    0  0.00000000000E+00  0.00000000000E+00  0.50000000000E+03  0.50000000000E+03  0.00000000000E+00 0.  1.
         11   -1    0    0    0    0 -0.00000000000E+00 -0.00000000000E+00 -0.50000000000E+03  0.50000000000E+03  0.00000000000E+00 0.  1.
         23    2    1    2    0    0  0.14634665675E+03 -0.11058731111E+02 -0.14521536542E+03  0.22550441665E+03  0.90692337597E+02 0.  0.
        -11    1    1    2    0    0 -0.35552872645E+02  0.16965855918E+03  0.41082375734E+03  0.44589706553E+03  0.00000000000E+00 0.  1.
         11    1    1    2    0    0 -0.11079378410E+03 -0.15859982806E+03 -0.26560839191E+03  0.32859851782E+03  0.00000000000E+00 0.  1.
        -15    1    3    3    0    0  0.42947031606E+02  0.34706351833E+02 -0.72123390749E+02  0.90851084768E+02  0.17770000000E+01 0. -1.
         15    1    3    3    0    0  0.10339962514E+03 -0.45765082944E+02 -0.73091974675E+02  0.13465333188E+03  0.17770000000E+01 0.  1.
</event>
<event>
 7    1  0.3234965E-006  0.5403869E+03  0.7546771E-02  0.9313716E-01
        -11   -1    0    0    0    0  0.00000000000E+00  0.00000000000E+00  0.50000000000E+03  0.50000000000E+03  0.00000000000E+00 0. -1.
         11   -1    0    0    0    0 -0.00000000000E+00 -0.00000000000E+00 -0.50000000000E+03  0.50000000000E+03  0.00000000000E+00 0.  1.
         23    2    1    2    0    0 -0.70938163958E+00 -0.24146754566E+03  0.19349665378E+03  0.33066025627E+03  0.11656831140E+03 0.  0.
        -11    1    1    2    0    0 -0.36516192183E+02  0.16966723615E+02  0.20582507480E+03  0.20972663974E+03  0.00000000000E+00 0. -1.
         11    1    1    2    0    0  0.37225573822E+02  0.22450082205E+03 -0.39932172858E+03  0.45961310399E+03  0.00000000000E+00 0.  1.
        -15    1    3    3    0    0  0.10584656032E+02 -0.15791880292E+03  0.18856105551E+03  0.24618857131E+03  0.17770000000E+01 0. -1.
         15    1    3    3    0    0 -0.11294037672E+02 -0.83548742744E+02  0.49355982690E+01  0.84471684962E+02  0.17770000000E+01 0.  1.
</event>
<event>
 7    1  0.3234965E-006  0.5129784E+03  0.7546771E-02  0.9371229E-01
        -11   -1    0    0    0    0  0.00000000000E+00  0.00000000000E+00  0.50000000000E+03  0.50000000000E+03  0.00000000000E+00 0. -1.
         11   -1    0    0    0    0 -0.00000000000E+00 -0.00000000000E+00 -0.50000000000E+03  0.50000000000E+03  0.00000000000E+00 0.  1.
         23    2    1    2    0    0 -0.20787973421E+02 -0.17717250642E+02 -0.31522330447E+03  0.32925660284E+03  0.91094116293E+02 0.  0.
        -11    1    1    2    0    0 -0.19132382855E+02  0.94152147522E+02  0.47745086852E+03  0.48702156709E+03  0.00000000000E+00 0. -1.
         11    1    1    2    0    0  0.39920356276E+02 -0.76434896880E+02 -0.16222756405E+03  0.18372183007E+03  0.00000000000E+00 0.  1.
        -15    1    3    3    0    0  0.30213456076E+02 -0.22462242466E+02 -0.78908469091E+02  0.87447752904E+02  0.17770000000E+01 0. -1.
         15    1    3    3    0    0 -0.51001429497E+02  0.47449918241E+01 -0.23631483538E+03  0.24180884994E+03  0.17770000000E+01 0.  1.
</event>
<event>
 7    1  0.3234965E-006  0.3404641E+03  0.7546771E-02  0.9850772E-01
        -11   -1    0    0    0    0  0.00000000000E+00  0.00000000000E+00  0.50000000000E+03  0.50000000000E+03  0.00000000000E+00 0.  1.
         11   -1    0    0    0    0 -0.00000000000E+00 -0.00000000000E+00 -0.50000000000E+03  0.50000000000E+03  0.00000000000E+00 0. -1.
         23    2    1    2    0    0 -0.20217581034E+02 -0.62513026702E+02 -0.26325770081E+03  0.28587821566E+03  0.90028373648E+02 0.  0.
        -11    1    1    2    0    0 -0.16414346059E+03  0.26325757297E+03  0.30886759673E+03  0.43777484817E+03  0.00000000000E+00 0.  1.
         11    1    1    2    0    0  0.18436104162E+03 -0.20074454627E+03 -0.45609895925E+02  0.27634693617E+03  0.00000000000E+00 0. -1.
        -15    1    3    3    0    0  0.21109114471E+02 -0.29519079428E+02 -0.20061958962E+03  0.20388317300E+03  0.17770000000E+01 0. -1.
         15    1    3    3    0    0 -0.41326695504E+02 -0.32993947274E+02 -0.62638111187E+02  0.81995042656E+02  0.17770000000E+01 0.  1.
</event>
<event>
 7    1  0.3234965E-006  0.5077335E+03  0.7546771E-02  0.9382670E-01
        -11   -1    0    0    0    0  0.00000000000E+00  0.00000000000E+00  0.50000000000E+03  0.50000000000E+03  0.00000000000E+00 0. -1.
         11   -1    0    0    0    0 -0.00000000000E+00 -0.00000000000E+00 -0.50000000000E+03  0.50000000000E+03  0.00000000000E+00 0.  1.
         23    2    1    2    0    0  0.73211911991E+02 -0.54764960994E+02  0.29900343764E+03  0.32567872284E+03  0.91128424651E+02 0.  0.
        -11    1    1    2    0    0  0.53777310628E+01 -0.32612837868E+02  0.17902910241E+03  0.18205476290E+03  0.00000000000E+00 0. -1.
         11    1    1    2    0    0 -0.78589643053E+02  0.87377798863E+02 -0.47803254004E+03  0.49226651427E+03  0.00000000000E+00 0.  1.
        -15    1    3    3    0    0 -0.21229806353E+02 -0.12670758061E+02  0.74179527218E+02  0.78211334056E+02  0.17770000000E+01 0.  1.
         15    1    3    3    0    0  0.94441718343E+02 -0.42094202933E+02  0.22482391042E+03  0.24746738878E+03  0.17770000000E+01 0. -1.
</event>
<event>
 7    1  0.3234965E-006  0.5243528E+03  0.7546771E-02  0.9346909E-01
        -11   -1    0    0    0    0  0.00000000000E+00  0.00000000000E+00  0.50000000000E+03  0.50000000000E+03  0.00000000000E+00 0. -1.
         11   -1    0    0    0    0 -0.00000000000E+00 -0.00000000000E+00 -0.50000000000E+03  0.50000000000E+03  0.00000000000E+00 0.  1.
         23    2    1    2    0    0  0.32266472826E+02 -0.20990859781E+02 -0.25535036091E+03  0.27394906270E+03  0.91446928205E+02 0.  0.
        -11    1    1    2    0    0 -0.12670384608E+03 -0.11370643190E+03  0.44413656301E+03  0.47564724731E+03  0.00000000000E+00 0. -1.
         11    1    1    2    0    0  0.94437373258E+02  0.13469729168E+03 -0.18878620211E+03  0.25040368999E+03  0.00000000000E+00 0.  1.
        -15    1    3    3    0    0  0.23158145296E+02  0.27863438364E+02 -0.18034198005E+03  0.18395395725E+03  0.17770000000E+01 0.  1.
         15    1    3    3    0    0  0.91083275302E+01 -0.48854298145E+02 -0.75008380856E+02  0.89995105452E+02  0.17770000000E+01 0. -1.
</event>
<event>
 7    1  0.3234965E-006  0.5035256E+03  0.7546771E-02  0.9391955E-01
        -11   -1    0    0    0    0  0.00000000000E+00  0.00000000000E+00  0.50000000000E+03  0.50000000000E+03  0.00000000000E+00 0.  1.
         11   -1    0    0    0    0 -0.00000000000E+00 -0.00000000000E+00 -0.50000000000E+03  0.50000000000E+03  0.00000000000E+00 0.  1.
         23    2    1    2    0    0 -0.47550940687E+02 -0.47835769516E+02 -0.48371922113E+03  0.49647437305E+03  0.89180521377E+02 0.  0.
        -11    1    1    2    0    0  0.44932128030E+02 -0.27550200677E+02  0.30530279812E+03  0.30981883129E+03  0.00000000000E+00 0.  1.
         11    1    1    2    0    0  0.26188126567E+01  0.75385970193E+02  0.17841642302E+03  0.19370679566E+03  0.00000000000E+00 0.  1.
        -15    1    3    3    0    0  0.67984188994E+01 -0.56206363772E+02 -0.25830234743E+03  0.26444022812E+03  0.17770000000E+01 0.  1.
         15    1    3    3    0    0 -0.54349359586E+02  0.83705942562E+01 -0.22541687370E+03  0.23203414493E+03  0.17770000000E+01 0. -1.
</event>
<event>
 7    1  0.3234965E-006  0.3488981E+03  0.7546771E-02  0.9820746E-01
        -11   -1    0    0    0    0  0.00000000000E+00  0.00000000000E+00  0.50000000000E+03  0.50000000000E+03  0.00000000000E+00 0. -1.
         11   -1    0    0    0    0 -0.00000000000E+00 -0.00000000000E+00 -0.50000000000E+03  0.50000000000E+03  0.00000000000E+00 0. -1.
         23    2    1    2    0    0  0.72314217319E+01  0.99840226991E+02 -0.24389556375E+03  0.27871796321E+03  0.90433912953E+02 0.  0.
        -11    1    1    2    0    0  0.18942416666E+03 -0.45868396746E+02  0.41279531162E+03  0.45649249067E+03  0.00000000000E+00 0. -1.
         11    1    1    2    0    0 -0.19665558839E+03 -0.53971830245E+02 -0.16889974788E+03  0.26478954613E+03  0.00000000000E+00 0. -1.
        -15    1    3    3    0    0 -0.21764304267E+02  0.25690934656E+02 -0.16024066954E+02  0.37331454759E+02  0.17770000000E+01 0.  1.
         15    1    3    3    0    0  0.28995725999E+02  0.74149292335E+02 -0.22787149679E+03  0.24138650845E+03  0.17770000000E+01 0. -1.
</event>
<event>
 7    1  0.3234965E-006  0.5111291E+03  0.7546771E-02  0.9375246E-01
        -11   -1    0    0    0    0  0.00000000000E+00  0.00000000000E+00  0.50000000000E+03  0.50000000000E+03  0.00000000000E+00 0. -1.
         11   -1    0    0    0    0 -0.00000000000E+00 -0.00000000000E+00 -0.50000000000E+03  0.50000000000E+03  0.00000000000E+00 0.  1.
         23    2    1    2    0    0 -0.34351483530E+02  0.12749248677E+02 -0.40070609553E+03  0.41324561050E+03  0.94148775043E+02 0.  0.
        -11    1    1    2    0    0  0.69840476444E+02 -0.56978975786E+02  0.48048980929E+03  0.48887089570E+03  0.00000000000E+00 0. -1.
         11    1    1    2    0    0 -0.35488992914E+02  0.44229727109E+02 -0.79783713756E+02  0.97883493802E+02  0.00000000000E+00 0.  1.
        -15    1    3    3    0    0 -0.54963441787E+02  0.27510119905E+02 -0.36031584513E+03  0.36552490012E+03  0.17770000000E+01 0.  1.
         15    1    3    3    0    0  0.20611958256E+02 -0.14760871229E+02 -0.40390250400E+02  0.47720710378E+02  0.17770000000E+01 0. -1.
</event>
<event>
 7    1  0.3234965E-006  0.5310988E+03  0.7546771E-02  0.9332792E-01
        -11   -1    0    0    0    0  0.00000000000E+00  0.00000000000E+00  0.50000000000E+03  0.50000000000E+03  0.00000000000E+00 0. -1.
         11   -1    0    0    0    0 -0.00000000000E+00 -0.00000000000E+00 -0.50000000000E+03  0.50000000000E+03  0.00000000000E+00 0. -1.
         23    2    1    2    0    0  0.87852188778E+02 -0.89372012909E+02 -0.28912485737E+03  0.32815913454E+03  0.91596237217E+02 0.  0.
        -11    1    1    2    0    0 -0.14051670039E+03 -0.27421600696E+02  0.44651034469E+03  0.46890124246E+03  0.00000000000E+00 0. -1.
         11    1    1    2    0    0  0.52664511608E+02  0.11679361361E+03 -0.15738548732E+03  0.20293962299E+03  0.00000000000E+00 0. -1.
        -15    1    3    3    0    0  0.15197370898E+02 -0.80932378040E+01  0.18681056807E+01  0.17410000810E+02  0.17770000000E+01 0.  1.
         15    1    3    3    0    0  0.72654817880E+02 -0.81278775105E+02 -0.29099296305E+03  0.31074913373E+03  0.17770000000E+01 0. -1.
</event>
<event>
 7    1  0.3234965E-006  0.3736205E+03  0.7546771E-02  0.9737724E-01
        -11   -1    0    0    0    0  0.00000000000E+00  0.00000000000E+00  0.50000000000E+03  0.50000000000E+03  0.00000000000E+00 0.  1.
         11   -1    0    0    0    0 -0.00000000000E+00 -0.00000000000E+00 -0.50000000000E+03  0.50000000000E+03  0.00000000000E+00 0. -1.
         23    2    1    2    0    0 -0.64659235453E+02 -0.53047555449E+02 -0.35918055550E+03  0.37924053319E+03  0.88418610557E+02 0.  0.
        -11    1    1    2    0    0  0.10659679085E+03 -0.17061875037E+03  0.33651921855E+03  0.39206991501E+03  0.00000000000E+00 0.  1.
         11    1    1    2    0    0 -0.41937555401E+02  0.22366630582E+03  0.22661336950E+02  0.22868955180E+03  0.00000000000E+00 0. -1.
        -15    1    3    3    0    0 -0.77069496720E+02 -0.60893390414E+02 -0.34513591979E+03  0.35884491522E+03  0.17770000000E+01 0. -1.
         15    1    3    3    0    0  0.12410261267E+02  0.78458349645E+01 -0.14044635714E+02  0.20395617970E+02  0.17770000000E+01 0.  1.
</event>
<event>
 7    1  0.3234965E-006  0.5151250E+03  0.7546771E-02  0.9366588E-01
        -11   -1    0    0    0    0  0.00000000000E+00  0.00000000000E+00  0.50000000000E+03  0.50000000000E+03  0.00000000000E+00 0.  1.
         11   -1    0    0    0    0 -0.00000000000E+00 -0.00000000000E+00 -0.50000000000E+03  0.50000000000E+03  0.00000000000E+00 0. -1.
         23    2    1    2    0    0 -0.29096873787E+02 -0.21481519297E+02 -0.23134321188E+03  0.25162094931E+03  0.92115887425E+02 0.  0.
        -11    1    1    2    0    0  0.13931918652E+03 -0.39736054446E+02  0.46272562372E+03  0.48487502782E+03  0.00000000000E+00 0.  1.
         11    1    1    2    0    0 -0.11022231273E+03  0.61217573743E+02 -0.23138241184E+03  0.26350402287E+03  0.00000000000E+00 0. -1.
        -15    1    3    3    0    0 -0.15928788582E+02 -0.56917834384E+02 -0.11556917440E+03  0.12981817276E+03  0.17770000000E+01 0. -1.
         15    1    3    3    0    0 -0.13168085206E+02  0.35436315087E+02 -0.11577403747E+03  0.12180277656E+03  0.17770000000E+01 0.  1.
</event>
<event>
 7    1  0.3234965E-006  0.4169508E+03  0.7546771E-02  0.9607601E-01
        -11   -1    0    0    0    0  0.00000000000E+00  0.00000000000E+00  0.50000000000E+03  0.50000000000E+03  0.00000000000E+00 0.  1.
         11   -1    0    0    0    0 -0.00000000000E+00 -0.00000000000E+00 -0.50000000000E+03  0.50000000000E+03  0.00000000000E+00 0. -1.
         23    2    1    2    0    0 -0.39401798035E+02 -0.10408834111E+03 -0.56167286454E+02  0.15683135164E+03  0.95154738957E+02 0.  0.
        -11    1    1    2    0    0 -0.39545260010E+02  0.72178438205E+02  0.44121110704E+03  0.44882156310E+03  0.00000000000E+00 0.  1.
         11    1    1    2    0    0  0.78947058045E+02  0.31909902907E+02 -0.38504382059E+03  0.39434708526E+03  0.00000000000E+00 0. -1.
        -15    1    3    3    0    0 -0.33352656169E+02 -0.25629042073E+02  0.20610972178E+02  0.46874485322E+02  0.17770000000E+01 0.  1.
         15    1    3    3    0    0 -0.60491418663E+01 -0.78459299039E+02 -0.76778258632E+02  0.10995686632E+03  0.17770000000E+01 0. -1.
</event>
<event>
 7    1  0.3234965E-006  0.4639842E+03  0.7546771E-02  0.9484212E-01
        -11   -1    0    0    0    0  0.00000000000E+00  0.00000000000E+00  0.50000000000E+03  0.50000000000E+03  0.00000000000E+00 0. -1.
         11   -1    0    0    0    0 -0.00000000000E+00 -0.00000000000E+00 -0.50000000000E+03  0.50000000000E+03  0.00000000000E+00 0.  1.
         23    2    1    2    0    0  0.56354867894E+02 -0.26324256216E+02 -0.41470999851E+03  0.43032310289E+03  0.96564757660E+02 0.  0.
        -11    1    1    2    0    0 -0.82268239689E+02 -0.10662479560E+01  0.48391883502E+03  0.49086315714E+03  0.00000000000E+00 0. -1.
         11    1    1    2    0    0  0.25913371796E+02  0.27390504172E+02 -0.69208836512E+02  0.78813739969E+02  0.00000000000E+00 0.  1.
        -15    1    3    3    0    0 -0.26706112894E+02  0.25964478792E+01 -0.98347525049E+02  0.10195759618E+03  0.17770000000E+01 0. -1.
         15    1    3    3    0    0  0.83060980788E+02 -0.28920704095E+02 -0.31636247346E+03  0.32836550671E+03  0.17770000000E+01 0.  1.
</event>
<event>
 7    1  0.3234965E-006  0.3745148E+03  0.7546771E-02  0.9734851E-01
        -11   -1    0    0    0    0  0.00000000000E+00  0.00000000000E+00  0.50000000000E+03  0.50000000000E+03  0.00000000000E+00 0.  1.
         11   -1    0    0    0    0 -0.00000000000E+00 -0.00000000000E+00 -0.50000000000E+03  0.50000000000E+03  0.00000000000E+00 0.  1.
         23    2    1    2    0    0  0.15602656427E+03 -0.43154878213E+02 -0.41180569169E+03  0.45134979670E+03  0.89028529156E+02 0.  0.
        -11    1    1    2    0    0 -0.10111235828E+02 -0.95884318872E+02  0.30637624580E+03  0.32118910891E+03  0.00000000000E+00 0.  1.
         11    1    1    2    0    0 -0.14591532844E+03  0.13903919708E+03  0.10542944589E+03  0.22746109439E+03  0.00000000000E+00 0.  1.
        -15    1    3    3    0    0  0.12398228946E+03 -0.58472088770E+02 -0.24453806404E+03  0.28034374572E+03  0.17770000000E+01 0.  1.
         15    1    3    3    0    0  0.32044274803E+02  0.15317210558E+02 -0.16726762764E+03  0.17100605098E+03  0.17770000000E+01 0.  1.
</event>
<event>
 7    1  0.3234965E-006  0.5298897E+03  0.7546771E-02  0.9335306E-01
        -11   -1    0    0    0    0  0.00000000000E+00  0.00000000000E+00  0.50000000000E+03  0.50000000000E+03  0.00000000000E+00 0.  1.
         11   -1    0    0    0    0 -0.00000000000E+00 -0.00000000000E+00 -0.50000000000E+03  0.50000000000E+03  0.00000000000E+00 0. -1.
         23    2    1    2    0    0  0.72630727051E+02 -0.47654518823E+02 -0.17709776888E+03  0.21755188728E+03  0.91755262743E+02 0.  0.
        -11    1    1    2    0    0  0.56039540220E+02  0.16166029166E+03  0.43786889954E+03  0.47011025638E+03  0.00000000000E+00 0.  1.
         11    1    1    2    0    0 -0.12867026727E+03 -0.11400577284E+03 -0.26077113066E+03  0.31233785634E+03  0.00000000000E+00 0. -1.
        -15    1    3    3    0    0 -0.85985918937E+01  0.10351765531E+02  0.75694784884E+00  0.13595055396E+02  0.17770000000E+01 0. -1.
         15    1    3    3    0    0  0.81229318944E+02 -0.58006284354E+02 -0.17785471673E+03  0.20395683189E+03  0.17770000000E+01 0.  1.
</event>
<event>
 7    1  0.3234965E-006  0.5141878E+03  0.7546771E-02  0.9368611E-01
        -11   -1    0    0    0    0  0.00000000000E+00  0.00000000000E+00  0.50000000000E+03  0.50000000000E+03  0.00000000000E+00 0.  1.
         11   -1    0    0    0    0 -0.00000000000E+00 -0.00000000000E+00 -0.50000000000E+03  0.50000000000E+03  0.00000000000E+00 0. -1.
         23    2    1    2    0    0 -0.83209269164E+02 -0.14057894385E+02  0.21797702754E+03  0.25086011185E+03  0.91079110198E+02 0.  0.
        -11    1    1    2    0    0 -0.13310386425E+03 -0.10942718186E+03  0.19912437012E+03  0.26332766961E+03  0.00000000000E+00 0.  1.
         11    1    1    2    0    0  0.21631313341E+03  0.12348507625E+03 -0.41710139766E+03  0.48581221853E+03  0.00000000000E+00 0. -1.
        -15    1    3    3    0    0  0.22479030033E+00  0.21060419198E+02  0.87372879314E+01  0.22871154691E+02  0.17770000000E+01 0. -1.
         15    1    3    3    0    0 -0.83434059465E+02 -0.35118313583E+02  0.20923973961E+03  0.22798895716E+03  0.17770000000E+01 0.  1.
</event>
<event>
 7    1  0.3234965E-006  0.5272909E+03  0.7546771E-02  0.9340733E-01
        -11   -1    0    0    0    0  0.00000000000E+00  0.00000000000E+00  0.50000000000E+03  0.50000000000E+03  0.00000000000E+00 0.  1.
         11   -1    0    0    0    0 -0.00000000000E+00 -0.00000000000E+00 -0.50000000000E+03  0.50000000000E+03  0.00000000000E+00 0.  1.
         23    2    1    2    0    0 -0.55264802433E+02 -0.18521353328E+02 -0.31268300239E+03  0.33123685902E+03  0.92465982245E+02 0.  0.
        -11    1    1    2    0    0  0.33945606805E+02  0.16442787733E+03  0.44188809220E+03  0.47270912525E+03  0.00000000000E+00 0.  1.
         11    1    1    2    0    0  0.21319195628E+02 -0.14590652400E+03 -0.12920508981E+03  0.19605401572E+03  0.00000000000E+00 0.  1.
        -15    1    3    3    0    0 -0.68473125788E+02  0.16490521467E+02 -0.22800740872E+03  0.23864417532E+03  0.17770000000E+01 0.  1.
         15    1    3    3    0    0  0.13208323356E+02 -0.35011874795E+02 -0.84675593674E+02  0.92592683704E+02  0.17770000000E+01 0. -1.
</event>
<event>
 6    1  0.4853827E-006  0.3794032E+03  0.7546771E-02  0.9719295E-01
        -11   -1    0    0    0    0  0.00000000000E+00  0.00000000000E+00  0.50000000000E+03  0.50000000000E+03  0.00000000000E+00 0.  1.
         11   -1    0    0    0    0 -0.00000000000E+00 -0.00000000000E+00 -0.50000000000E+03  0.50000000000E+03  0.00000000000E+00 0. -1.
        -11    1    1    2    0    0 -0.72438030275E+02  0.84808751018E+02  0.39740246187E+03  0.41275720367E+03  0.00000000000E+00 0.  1.
         11    1    1    2    0    0 -0.73148258427E+02 -0.44879934685E+02 -0.35194253556E+03  0.36225464053E+03  0.00000000000E+00 0. -1.
        -15    1    1    2    0    0  0.30552540928E+02  0.35396560702E+02  0.41284514381E+02  0.62401467317E+02  0.17770000000E+01 0.  1.
         15    1    1    2    0    0  0.11503374777E+03 -0.75325377035E+02 -0.86744440689E+02  0.16258668848E+03  0.17770000000E+01 0. -1.
</event>
<event>
 7    1  0.3234965E-006  0.3539477E+03  0.7546771E-02  0.9803201E-01
        -11   -1    0    0    0    0  0.00000000000E+00  0.00000000000E+00  0.50000000000E+03  0.50000000000E+03  0.00000000000E+00 0.  1.
         11   -1    0    0    0    0 -0.00000000000E+00 -0.00000000000E+00 -0.50000000000E+03  0.50000000000E+03  0.00000000000E+00 0. -1.
         23    2    1    2    0    0 -0.41075137684E+02 -0.14935752433E+03 -0.33206529233E+03  0.37599637140E+03  0.84327195619E+02 0.  0.
        -11    1    1    2    0    0 -0.13665883811E+03 -0.35591889058E+02  0.33917434983E+03  0.36739850324E+03  0.00000000000E+00 0.  1.
         11    1    1    2    0    0  0.17773397580E+03  0.18494941339E+03 -0.71090574939E+01  0.25660512537E+03  0.00000000000E+00 0. -1.
        -15    1    3    3    0    0 -0.53009345843E+02 -0.12928756002E+03 -0.21368944337E+03  0.25532645742E+03  0.17770000000E+01 0. -1.
         15    1    3    3    0    0  0.11934208159E+02 -0.20069964309E+02 -0.11837584896E+03  0.12066991398E+03  0.17770000000E+01 0.  1.
</event>
<event>
 7    1  0.3234965E-006  0.5242136E+03  0.7546771E-02  0.9347202E-01
        -11   -1    0    0    0    0  0.00000000000E+00  0.00000000000E+00  0.50000000000E+03  0.50000000000E+03  0.00000000000E+00 0.  1.
         11   -1    0    0    0    0 -0.00000000000E+00 -0.00000000000E+00 -0.50000000000E+03  0.50000000000E+03  0.00000000000E+00 0. -1.
         23    2    1    2    0    0  0.57654344620E+01 -0.17358559509E+01 -0.64357018440E+02  0.11123840176E+03  0.90531225403E+02 0.  0.
        -11    1    1    2    0    0  0.38007849327E+02  0.80386360414E+02  0.46740358364E+03  0.47578637386E+03  0.00000000000E+00 0.  1.
         11    1    1    2    0    0 -0.43773283789E+02 -0.78650504463E+02 -0.40304656520E+03  0.41297522438E+03  0.00000000000E+00 0. -1.
        -15    1    3    3    0    0  0.66061270124E+01  0.44113116365E+02 -0.35424015412E+02  0.56987950888E+02  0.17770000000E+01 0.  1.
         15    1    3    3    0    0 -0.84069255047E+00 -0.45848972316E+02 -0.28933003028E+02  0.54250450870E+02  0.17770000000E+01 0. -1.
</event>
<event>
 7    1  0.3234965E-006  0.5224635E+03  0.7546771E-02  0.9350903E-01
        -11   -1    0    0    0    0  0.00000000000E+00  0.00000000000E+00  0.50000000000E+03  0.50000000000E+03  0.00000000000E+00 0.  1.
         11   -1    0    0    0    0 -0.00000000000E+00 -0.00000000000E+00 -0.50000000000E+03  0.50000000000E+03  0.00000000000E+00 0. -1.
         23    2    1    2    0    0 -0.69692221258E+02  0.29230232209E+02 -0.34630545749E+03  0.36598868064E+03  0.91152796410E+02 0.  0.
        -11    1    1    2    0    0  0.67801736494E+01 -0.10998493797E+03  0.46464871840E+03  0.47753647908E+03  0.00000000000E+00 0.  1.
         11    1    1    2    0    0  0.62912047608E+02  0.80754705761E+02 -0.11834326091E+03  0.15647484028E+03  0.00000000000E+00 0. -1.
        -15    1    3    3    0    0 -0.85931912907E+02  0.30351415308E+02 -0.33186626312E+03  0.34415676136E+03  0.17770000000E+01 0. -1.
         15    1    3    3    0    0  0.16239691649E+02 -0.11211830997E+01 -0.14439194374E+02  0.21831919283E+02  0.17770000000E+01 0.  1.
</event>
<event>
 7    1  0.3234965E-006  0.5246000E+03  0.7546771E-02  0.9346387E-01
        -11   -1    0    0    0    0  0.00000000000E+00  0.00000000000E+00  0.50000000000E+03  0.50000000000E+03  0.00000000000E+00 0. -1.
         11   -1    0    0    0    0 -0.00000000000E+00 -0.00000000000E+00 -0.50000000000E+03  0.50000000000E+03  0.00000000000E+00 0. -1.
         23    2    1    2    0    0 -0.14880891730E+03 -0.38452130500E+02 -0.20611965127E+03  0.27270920888E+03  0.90897424372E+02 0.  0.
        -11    1    1    2    0    0  0.25652220588E+03 -0.98673182469E+02  0.38789830687E+03  0.47539997425E+03  0.00000000000E+00 0. -1.
         11    1    1    2    0    0 -0.10771328859E+03  0.13712531297E+03 -0.18177865559E+03  0.25189081687E+03  0.00000000000E+00 0. -1.
        -15    1    3    3    0    0 -0.36210277932E+02  0.24025932151E+02 -0.87077535607E+02  0.97334909359E+02  0.17770000000E+01 0.  1.
         15    1    3    3    0    0 -0.11259863937E+03 -0.62478062651E+02 -0.11904211567E+03  0.17537429952E+03  0.17770000000E+01 0. -1.
</event>
<event>
 6    1  0.3234965E-006  0.3884724E+03  0.7546771E-02  0.9691088E-01
        -11   -1    0    0    0    0  0.00000000000E+00  0.00000000000E+00  0.50000000000E+03  0.50000000000E+03  0.00000000000E+00 0.  1.
         11   -1    0    0    0    0 -0.00000000000E+00 -0.00000000000E+00 -0.50000000000E+03  0.50000000000E+03  0.00000000000E+00 0.  1.
        -11    1    1    2    0    0 -0.43417800676E+02  0.13496169893E+03  0.42232922766E+03  0.44549045122E+03  0.00000000000E+00 0.  1.
         11    1    1    2    0    0 -0.23186027454E+02  0.75932546128E+02 -0.20003965803E+03  0.21521897736E+03  0.00000000000E+00 0.  1.
        -15    1    1    2    0    0  0.79977998127E+02 -0.59878195434E+02 -0.57184113527E+02  0.11513061731E+03  0.17770000000E+01 0. -1.
         15    1    1    2    0    0 -0.13374169997E+02 -0.15101604962E+03 -0.16510545609E+03  0.22415995411E+03  0.17770000000E+01 0.  1.
</event>
<event>
 7    1  0.3234965E-006  0.4816985E+03  0.7546771E-02  0.9441718E-01
        -11   -1    0    0    0    0  0.00000000000E+00  0.00000000000E+00  0.50000000000E+03  0.50000000000E+03  0.00000000000E+00 0.  1.
         11   -1    0    0    0    0 -0.00000000000E+00 -0.00000000000E+00 -0.50000000000E+03  0.50000000000E+03  0.00000000000E+00 0. -1.
         23    2    1    2    0    0  0.15914855451E+03  0.11729401867E+03  0.40505419356E+03  0.46066807076E+03  0.95184150346E+02 0.  0.
        -11    1    1    2    0    0  0.18343652262E+02 -0.78946454777E-01  0.41133357333E+02  0.45038304768E+02  0.00000000000E+00 0.  1.
         11    1    1    2    0    0 -0.17749220678E+03 -0.11721507222E+03 -0.44618755089E+03  0.49429362447E+03  0.00000000000E+00 0. -1.
        -15    1    3    3    0    0 -0.49637840312E+01 -0.90734953734E+01  0.94704441773E+01  0.14135576115E+02  0.17770000000E+01 0. -1.
         15    1    3    3    0    0  0.16411233855E+03  0.12636751405E+03  0.39558374938E+03  0.44653249465E+03  0.17770000000E+01 0.  1.
</event>
<event>
 7    1  0.3234965E-006  0.5286563E+03  0.7546771E-02  0.9337877E-01
        -11   -1    0    0    0    0  0.00000000000E+00  0.00000000000E+00  0.50000000000E+03  0.50000000000E+03  0.00000000000E+00 0.  1.
         11   -1    0    0    0    0 -0.00000000000E+00 -0.00000000000E+00 -0.50000000000E+03  0.50000000000E+03  0.00000000000E+00 0. -1.
         23    2    1    2    0    0 -0.20611726758E+02  0.49056839693E+02 -0.17389799692E+03  0.20443412594E+03  0.93388338221E+02 0.  0.
        -11    1    1    2    0    0  0.90588058974E+02  0.10495171373E+03  0.45049284615E+03  0.47134367831E+03  0.00000000000E+00 0.  1.
         11    1    1    2    0    0 -0.69976332216E+02 -0.15400855342E+03 -0.27659484924E+03  0.32422219576E+03  0.00000000000E+00 0. -1.
        -15    1    3    3    0    0 -0.48014824274E+02  0.44173873294E+02 -0.65353232009E+02  0.92363180407E+02  0.17770000000E+01 0. -1.
         15    1    3    3    0    0  0.27403097516E+02  0.48829663996E+01 -0.10854476491E+03  0.11207094553E+03  0.17770000000E+01 0.  1.
</event>
<event>
 7    1  0.3234965E-006  0.4026320E+03  0.7546771E-02  0.9648656E-01
        -11   -1    0    0    0    0  0.00000000000E+00  0.00000000000E+00  0.50000000000E+03  0.50000000000E+03  0.00000000000E+00 0.  1.
         11   -1    0    0    0    0 -0.00000000000E+00 -0.00000000000E+00 -0.50000000000E+03  0.50000000000E+03  0.00000000000E+00 0. -1.
         23    2    1    2    0    0 -0.11099217266E+02 -0.13486528028E+03  0.31877585925E+03  0.35704682240E+03  0.86905399700E+02 0.  0.
        -11    1    1    2    0    0 -0.16250589342E+03  0.41055387463E+00  0.84953745415E+02  0.18337249742E+03  0.00000000000E+00 0.  1.
         11    1    1    2    0    0  0.17360511069E+03  0.13445472640E+03 -0.40372960467E+03  0.45958068018E+03  0.00000000000E+00 0. -1.
        -15    1    3    3    0    0 -0.34726836229E+02 -0.13072693449E+03  0.25102444321E+03  0.28515243883E+03  0.17770000000E+01 0.  1.
         15    1    3    3    0    0  0.23627618963E+02 -0.41383457874E+01  0.67751416045E+02  0.71894383569E+02  0.17770000000E+01 0. -1.
</event>
<event>
 7    1  0.3234965E-006  0.4423683E+03  0.7546771E-02  0.9538887E-01
        -11   -1    0    0    0    0  0.00000000000E+00  0.00000000000E+00  0.50000000000E+03  0.50000000000E+03  0.00000000000E+00 0. -1.
         11   -1    0    0    0    0 -0.00000000000E+00 -0.00000000000E+00 -0.50000000000E+03  0.50000000000E+03  0.00000000000E+00 0.  1.
         23    2    1    2    0    0 -0.24450588638E+03  0.23898191625E+02 -0.39592712381E+03  0.47534616831E+03  0.94028933464E+02 0.  0.
        -11    1    1    2    0    0  0.13436592837E+03  0.15304615256E+02  0.38402490207E+03  0.40714071199E+03  0.00000000000E+00 0. -1.
         11    1    1    2    0    0  0.11013995801E+03 -0.39202806880E+02  0.11902221741E+02  0.11751311970E+03  0.00000000000E+00 0.  1.
        -15    1    3    3    0    0 -0.28744463135E+02  0.36631662348E+02 -0.61704216169E+02  0.77321994732E+02  0.17770000000E+01 0. -1.
         15    1    3    3    0    0 -0.21576142324E+03 -0.12733470724E+02 -0.33422290764E+03  0.39802417358E+03  0.17770000000E+01 0.  1.
</event>
<event>
 7    1  0.3234965E-006  0.5280075E+03  0.7546771E-02  0.9339233E-01
        -11   -1    0    0    0    0  0.00000000000E+00  0.00000000000E+00  0.50000000000E+03  0.50000000000E+03  0.00000000000E+00 0. -1.
         11   -1    0    0    0    0 -0.00000000000E+00 -0.00000000000E+00 -0.50000000000E+03  0.50000000000E+03  0.00000000000E+00 0. -1.
         23    2    1    2    0    0 -0.32381644321E+02 -0.25588190915E+02 -0.34023050096E+03  0.35413034644E+03  0.89152577544E+02 0.  0.
        -11    1    1    2    0    0  0.17443811048E+03  0.59799102620E+02  0.43447935595E+03  0.47199247643E+03  0.00000000000E+00 0. -1.
         11    1    1    2    0    0 -0.14205646616E+03 -0.34210911706E+02 -0.94248854984E+02  0.17387717712E+03  0.00000000000E+00 0. -1.
        -15    1    3    3    0    0 -0.48369642901E+02 -0.26358336242E+02 -0.33102187853E+03  0.33557864360E+03  0.17770000000E+01 0. -1.
         15    1    3    3    0    0  0.15987998580E+02  0.77014532696E+00 -0.92086224358E+01  0.18551702849E+02  0.17770000000E+01 0.  1.
</event>
<event>
 7    1  0.3234965E-006  0.5263104E+03  0.7546771E-02  0.9342789E-01
        -11   -1    0    0    0    0  0.00000000000E+00  0.00000000000E+00  0.50000000000E+03  0.50000000000E+03  0.00000000000E+00 0. -1.
         11   -1    0    0    0    0 -0.00000000000E+00 -0.00000000000E+00 -0.50000000000E+03  0.50000000000E+03  0.00000000000E+00 0. -1.
         23    2    1    2    0    0  0.40939720556E+02 -0.22498815274E+02 -0.21951178995E+03  0.24277535133E+03  0.92586110607E+02 0.  0.
        -11    1    1    2    0    0  0.98396931206E+02 -0.18754486971E+02  0.46297752428E+03  0.47368963979E+03  0.00000000000E+00 0. -1.
         11    1    1    2    0    0 -0.13933665176E+03  0.41253302245E+02 -0.24346573433E+03  0.28353500888E+03  0.00000000000E+00 0. -1.
        -15    1    3    3    0    0 -0.27459617301E+02 -0.10134804599E+02 -0.35377549082E+02  0.45950773167E+02  0.17770000000E+01 0.  1.
         15    1    3    3    0    0  0.68399337856E+02 -0.12364010675E+02 -0.18413424087E+03  0.19682457816E+03  0.17770000000E+01 0. -1.
</event>
<event>
 7    1  0.3234965E-006  0.4473656E+03  0.7546771E-02  0.9525955E-01
        -11   -1    0    0    0    0  0.00000000000E+00  0.00000000000E+00  0.50000000000E+03  0.50000000000E+03  0.00000000000E+00 0.  1.
         11   -1    0    0    0    0 -0.00000000000E+00 -0.00000000000E+00 -0.50000000000E+03  0.50000000000E+03  0.00000000000E+00 0. -1.
         23    2    1    2    0    0  0.76871128008E+01  0.73928314869E+02  0.16506885067E+02  0.10203519474E+03  0.67928022711E+02 0.  0.
        -11    1    1    2    0    0 -0.26514832928E+03 -0.18182243373E+02  0.35442924169E+03  0.44300600206E+03  0.00000000000E+00 0.  1.
         11    1    1    2    0    0  0.25746121648E+03 -0.55746071496E+02 -0.37093612675E+03  0.45495880320E+03  0.00000000000E+00 0. -1.
        -15    1    3    3    0    0 -0.27048072004E+02  0.13135062120E+02  0.98006487412E+01  0.31675518950E+02  0.17770000000E+01 0. -1.
         15    1    3    3    0    0  0.34735184805E+02  0.60793252749E+02  0.67062363253E+01  0.70359675794E+02  0.17770000000E+01 0.  1.
</event>
<event>
 7    1  0.3234965E-006  0.5164065E+03  0.7546771E-02  0.9363829E-01
        -11   -1    0    0    0    0  0.00000000000E+00  0.00000000000E+00  0.50000000000E+03  0.50000000000E+03  0.00000000000E+00 0. -1.
         11   -1    0    0    0    0 -0.00000000000E+00 -0.00000000000E+00 -0.50000000000E+03  0.50000000000E+03  0.00000000000E+00 0.  1.
         23    2    1    2    0    0  0.13490765078E+02  0.51371004233E+02 -0.19115036247E+03  0.21659784505E+03  0.86920564835E+02 0.  0.
        -11    1    1    2    0    0  0.10463822211E+03 -0.81439992777E+02  0.46506025520E+03  0.48359349760E+03  0.00000000000E+00 0. -1.
         11    1    1    2    0    0 -0.11812898718E+03  0.30068988545E+02 -0.27390989273E+03  0.29980865735E+03  0.00000000000E+00 0.  1.
        -15    1    3    3    0    0 -0.15469052204E+02  0.50128979852E+02 -0.17636307646E+03  0.18400896354E+03  0.17770000000E+01 0.  1.
         15    1    3    3    0    0  0.28959817281E+02  0.12420243805E+01 -0.14787286010E+02  0.32588881510E+02  0.17770000000E+01 0. -1.
</event>
<event>
 7    1  0.3234965E-006  0.5215399E+03  0.7546771E-02  0.9352862E-01
        -11   -1    0    0    0    0  0.00000000000E+00  0.00000000000E+00  0.50000000000E+03  0.50000000000E+03  0.00000000000E+00 0. -1.
         11   -1    0    0    0    0 -0.00000000000E+00 -0.00000000000E+00 -0.50000000000E+03  0.50000000000E+03  0.00000000000E+00 0. -1.
         23    2    1    2    0    0 -0.49261874154E+01 -0.59788413532E+02 -0.10138377193E+03  0.15147814730E+03  0.95226247345E+02 0.  0.
        -11    1    1    2    0    0  0.93807431932E+02  0.10035689680E+03  0.45831513291E+03  0.47846013635E+03  0.00000000000E+00 0. -1.
         11    1    1    2    0    0 -0.88881244517E+02 -0.40568483268E+02 -0.35693136098E+03  0.37006171636E+03  0.00000000000E+00 0. -1.
        -15    1    3    3    0    0 -0.39169000316E+02 -0.66570264093E+02 -0.64275873498E+02  0.10050052881E+03  0.17770000000E+01 0.  1.
         15    1    3    3    0    0  0.34242812900E+02  0.67818505609E+01 -0.37107898428E+02  0.50977618492E+02  0.17770000000E+01 0. -1.
</event>
<event>
 7    1  0.3234965E-006  0.4351757E+03  0.7546771E-02  0.9557822E-01
        -11   -1    0    0    0    0  0.00000000000E+00  0.00000000000E+00  0.50000000000E+03  0.50000000000E+03  0.00000000000E+00 0.  1.
         11   -1    0    0    0    0 -0.00000000000E+00 -0.00000000000E+00 -0.50000000000E+03  0.50000000000E+03  0.00000000000E+00 0.  1.
         23    2    1    2    0    0  0.32638023449E+03 -0.43311264806E+02 -0.32832846135E+03  0.47370849757E+03  0.90555171110E+02 0.  0.
        -11    1    1    2    0    0  0.63215442284E+01 -0.31503934991E+02  0.12543982728E+03  0.12948980697E+03  0.00000000000E+00 0.  1.
         11    1    1    2    0    0 -0.33270177872E+03  0.74815199797E+02  0.20288863408E+03  0.39680169546E+03  0.00000000000E+00 0.  1.
        -15    1    3    3    0    0  0.13285468580E+03 -0.56428958938E+02 -0.10883401971E+03  0.18078328606E+03  0.17770000000E+01 0. -1.
         15    1    3    3    0    0  0.19352554869E+03  0.13117694132E+02 -0.21949444165E+03  0.29292521151E+03  0.17770000000E+01 0.  1.
</event>
<event>
 7    1  0.3234965E-006  0.4778480E+03  0.7546771E-02  0.9450788E-01
        -11   -1    0    0    0    0  0.00000000000E+00  0.00000000000E+00  0.50000000000E+03  0.50000000000E+03  0.00000000000E+00 0.  1.
         11   -1    0    0    0    0 -0.00000000000E+00 -0.00000000000E+00 -0.50000000000E+03  0.50000000000E+03  0.00000000000E+00 0. -1.
         23    2    1    2    0    0  0.33663975054E+02  0.19511962800E+03  0.40220872264E+03  0.45754485711E+03  0.91490476332E+02 0.  0.
        -11    1    1    2    0    0  0.13335647054E+02 -0.85888953863E+01  0.49240383372E+02  0.51732233287E+02  0.00000000000E+00 0.  1.
         11    1    1    2    0    0 -0.46999622108E+02 -0.18653073261E+03 -0.45144910601E+03  0.49072290960E+03  0.00000000000E+00 0. -1.
        -15    1    3    3    0    0  0.59667411407E+02  0.15442730127E+03  0.26928949177E+03  0.31611387105E+03  0.17770000000E+01 0.  1.
         15    1    3    3    0    0 -0.26003436353E+02  0.40692326730E+02  0.13291923087E+03  0.14143098607E+03  0.17770000000E+01 0. -1.
</event>
<event>
 7    1  0.3234965E-006  0.3536281E+03  0.7546771E-02  0.9804302E-01
        -11   -1    0    0    0    0  0.00000000000E+00  0.00000000000E+00  0.50000000000E+03  0.50000000000E+03  0.00000000000E+00 0. -1.
         11   -1    0    0    0    0 -0.00000000000E+00 -0.00000000000E+00 -0.50000000000E+03  0.50000000000E+03  0.00000000000E+00 0.  1.
         23    2    1    2    0    0  0.19844910008E+03 -0.29502762941E+02 -0.22381079871E+03  0.31202991252E+03  0.83779080575E+02 0.  0.
        -11    1    1    2    0    0 -0.41288773305E+02  0.60294937453E+02  0.42476587765E+03  0.43100614044E+03  0.00000000000E+00 0. -1.
         11    1    1    2    0    0 -0.15716032678E+03 -0.30792174512E+02 -0.20095507894E+03  0.25696394704E+03  0.00000000000E+00 0.  1.
        -15    1    3    3    0    0  0.43205953954E+02 -0.27126985758E+02 -0.17807794987E+02  0.54063879852E+02  0.17770000000E+01 0. -1.
         15    1    3    3    0    0  0.15524314613E+03 -0.23757771826E+01 -0.20600300372E+03  0.25796603267E+03  0.17770000000E+01 0.  1.
</event>
<event>
 7    1  0.3234965E-006  0.3234704E+03  0.7546771E-02  0.9914207E-01
        -11   -1    0    0    0    0  0.00000000000E+00  0.00000000000E+00  0.50000000000E+03  0.50000000000E+03  0.00000000000E+00 0.  1.
         11   -1    0    0    0    0 -0.00000000000E+00 -0.00000000000E+00 -0.50000000000E+03  0.50000000000E+03  0.00000000000E+00 0.  1.
         23    2    1    2    0    0  0.15379511156E+03 -0.22092427708E+03 -0.79780428873E+02  0.29476397633E+03  0.89779799329E+02 0.  0.
        -11    1    1    2    0    0  0.30587959058E+02  0.48851077129E+02  0.33882779065E+03  0.34369510135E+03  0.00000000000E+00 0.  1.
         11    1    1    2    0    0 -0.18438307061E+03  0.17207319995E+03 -0.25904736178E+03  0.36154092232E+03  0.00000000000E+00 0.  1.
        -15    1    3    3    0    0  0.89599767301E+02 -0.16092332587E+03 -0.13506863794E+02  0.18468900402E+03  0.17770000000E+01 0.  1.
         15    1    3    3    0    0  0.64195344255E+02 -0.60000951212E+02 -0.66273565079E+02  0.11007497230E+03  0.17770000000E+01 0. -1.
</event>
<event>
 7    1  0.3234965E-006  0.5270415E+03  0.7546771E-02  0.9341256E-01
        -11   -1    0    0    0    0  0.00000000000E+00  0.00000000000E+00  0.50000000000E+03  0.50000000000E+03  0.00000000000E+00 0.  1.
         11   -1    0    0    0    0 -0.00000000000E+00 -0.00000000000E+00 -0.50000000000E+03  0.50000000000E+03  0.00000000000E+00 0. -1.
         23    2    1    2    0    0  0.85205410349E+02  0.40463297669E+02  0.14032695899E+03  0.19619150133E+03  0.99509845565E+02 0.  0.
        -11    1    1    2    0    0 -0.39832487878E+02  0.17222736819E+03  0.27966556560E+03  0.33084999928E+03  0.00000000000E+00 0.  1.
         11    1    1    2    0    0 -0.45372922471E+02 -0.21269066585E+03 -0.41999252459E+03  0.47295849939E+03  0.00000000000E+00 0. -1.
        -15    1    3    3    0    0  0.60246099115E+02  0.69627848822E+01  0.12832533842E+02  0.62015356853E+02  0.17770000000E+01 0.  1.
         15    1    3    3    0    0  0.24959311234E+02  0.33500512787E+02  0.12749442515E+03  0.13417614448E+03  0.17770000000E+01 0. -1.
</event>
<event>
 7    1  0.3234965E-006  0.5130571E+03  0.7546771E-02  0.9371058E-01
        -11   -1    0    0    0    0  0.00000000000E+00  0.00000000000E+00  0.50000000000E+03  0.50000000000E+03  0.00000000000E+00 0.  1.
         11   -1    0    0    0    0 -0.00000000000E+00 -0.00000000000E+00 -0.50000000000E+03  0.50000000000E+03  0.00000000000E+00 0. -1.
         23    2    1    2    0    0 -0.77413391799E+02  0.13619637206E+03  0.29745655668E+03  0.34877868645E+03  0.92864869671E+02 0.  0.
        -11    1    1    2    0    0 -0.10633497319E+03  0.31157750564E+02  0.12128262000E+03  0.16427844002E+03  0.00000000000E+00 0.  1.
         11    1    1    2    0    0  0.18374836498E+03 -0.16735412262E+03 -0.41873917668E+03  0.48694287353E+03  0.00000000000E+00 0. -1.
        -15    1    3    3    0    0  0.89638839872E+01  0.55949998981E+02  0.14747202274E+03  0.15799338221E+03  0.17770000000E+01 0.  1.
         15    1    3    3    0    0 -0.86377275786E+02  0.80246373077E+02  0.14998453394E+03  0.19078530424E+03  0.17770000000E+01 0. -1.
</event>
<event>
 7    1  0.3234965E-006  0.4121134E+03  0.7546771E-02  0.9621271E-01
        -11   -1    0    0    0    0  0.00000000000E+00  0.00000000000E+00  0.50000000000E+03  0.50000000000E+03  0.00000000000E+00 0. -1.
         11   -1    0    0    0    0 -0.00000000000E+00 -0.00000000000E+00 -0.50000000000E+03  0.50000000000E+03  0.00000000000E+00 0.  1.
         23    2    1    2    0    0  0.13135970380E+03 -0.42732883675E+02  0.21607364786E+00  0.16427790049E+03  0.88914063973E+02 0.  0.
        -11    1    1    2    0    0  0.11201802226E+03  0.28897598397E+02  0.37267649457E+03  0.39021901300E+03  0.00000000000E+00 0. -1.
         11    1    1    2    0    0 -0.24337772606E+03  0.13835285278E+02 -0.37289256821E+03  0.44550308651E+03  0.00000000000E+00 0.  1.
        -15    1    3    3    0    0  0.67057392729E+02  0.87952494512E+01  0.33372767701E+02  0.75438383371E+02  0.17770000000E+01 0.  1.
         15    1    3    3    0    0  0.64302311067E+02 -0.51528133126E+02 -0.33156694053E+02  0.88839517117E+02  0.17770000000E+01 0. -1.
</event>
<event>
 7    1  0.3234965E-006  0.5177670E+03  0.7546771E-02  0.9360909E-01
        -11   -1    0    0    0    0  0.00000000000E+00  0.00000000000E+00  0.50000000000E+03  0.50000000000E+03  0.00000000000E+00 0. -1.
         11   -1    0    0    0    0 -0.00000000000E+00 -0.00000000000E+00 -0.50000000000E+03  0.50000000000E+03  0.00000000000E+00 0.  1.
         23    2    1    2    0    0  0.60850331695E+02 -0.63432509473E+02  0.14076361670E+03  0.18910494020E+03  0.90663313947E+02 0.  0.
        -11    1    1    2    0    0 -0.32600178839E+02 -0.12693494102E+03  0.30140250034E+03  0.32866201199E+03  0.00000000000E+00 0. -1.
         11    1    1    2    0    0 -0.28250152856E+02  0.19036745050E+03 -0.44216611704E+03  0.48223304781E+03  0.00000000000E+00 0.  1.
        -15    1    3    3    0    0  0.44369202493E+02 -0.24909618375E+02  0.13798075375E+03  0.14707467951E+03  0.17770000000E+01 0. -1.
         15    1    3    3    0    0  0.16481129202E+02 -0.38522891097E+02  0.27828629430E+01  0.42030260687E+02  0.17770000000E+01 0.  1.
</event>
<event>
 7    1  0.3234965E-006  0.4487707E+03  0.7546771E-02  0.9522352E-01
        -11   -1    0    0    0    0  0.00000000000E+00  0.00000000000E+00  0.50000000000E+03  0.50000000000E+03  0.00000000000E+00 0. -1.
         11   -1    0    0    0    0 -0.00000000000E+00 -0.00000000000E+00 -0.50000000000E+03  0.50000000000E+03  0.00000000000E+00 0.  1.
         23    2    1    2    0    0  0.44528657449E+02 -0.25145213015E+01 -0.10754485648E+02  0.10128689252E+03  0.90300894147E+02 0.  0.
        -11    1    1    2    0    0  0.16808297759E+03 -0.18032710050E+03  0.36899980014E+03  0.44376863683E+03  0.00000000000E+00 0. -1.
         11    1    1    2    0    0 -0.21261163504E+03  0.18284162181E+03 -0.35824531449E+03  0.45494447065E+03  0.00000000000E+00 0.  1.
        -15    1    3    3    0    0  0.33113823523E+02  0.28242609472E+02 -0.38614308596E+02  0.58209903414E+02  0.17770000000E+01 0.  1.
         15    1    3    3    0    0  0.11414833926E+02 -0.30757130774E+02  0.27859822948E+02  0.43076989109E+02  0.17770000000E+01 0. -1.
</event>
<event>
 6    1  0.3234965E-006  0.4434678E+03  0.7546771E-02  0.9536026E-01
        -11   -1    0    0    0    0  0.00000000000E+00  0.00000000000E+00  0.50000000000E+03  0.50000000000E+03  0.00000000000E+00 0.  1.
         11   -1    0    0    0    0 -0.00000000000E+00 -0.00000000000E+00 -0.50000000000E+03  0.50000000000E+03  0.00000000000E+00 0.  1.
        -11    1    1    2    0    0  0.82948285738E+02  0.10452745966E+02  0.41032905139E+03  0.41875960696E+03  0.00000000000E+00 0.  1.
         11    1    1    2    0    0  0.71584714459E+02 -0.10375542820E+03 -0.19696767508E+02  0.12758339577E+03  0.00000000000E+00 0.  1.
        -15    1    1    2    0    0 -0.76032479854E+02  0.10419374252E+03 -0.13810665888E+03  0.18898116554E+03  0.17770000000E+01 0.  1.
         15    1    1    2    0    0 -0.78500520343E+02 -0.10891060285E+02 -0.25252562500E+03  0.26467583173E+03  0.17770000000E+01 0. -1.
</event>
<event>
 7    1  0.3234965E-006  0.4357397E+03  0.7546771E-02  0.9556323E-01
        -11   -1    0    0    0    0  0.00000000000E+00  0.00000000000E+00  0.50000000000E+03  0.50000000000E+03  0.00000000000E+00 0. -1.
         11   -1    0    0    0    0 -0.00000000000E+00 -0.00000000000E+00 -0.50000000000E+03  0.50000000000E+03  0.00000000000E+00 0.  1.
         23    2    1    2    0    0  0.91282306141E+02 -0.21464298072E+02 -0.38167420963E+03  0.40271786119E+03  0.87825383104E+02 0.  0.
        -11    1    1    2    0    0 -0.69990934367E+02 -0.79745233921E+02  0.45711424221E+03  0.46926694286E+03  0.00000000000E+00 0. -1.
         11    1    1    2    0    0 -0.21291371774E+02  0.10120953199E+03 -0.75440032585E+02  0.12801519595E+03  0.00000000000E+00 0.  1.
        -15    1    3    3    0    0 -0.10357018720E+02  0.98805215734E+01 -0.14532383459E+02  0.20475361812E+02  0.17770000000E+01 0. -1.
         15    1    3    3    0    0  0.10163932486E+03 -0.31344819645E+02 -0.36714182617E+03  0.38224249938E+03  0.17770000000E+01 0.  1.
</event>
<event>
 7    1  0.3234965E-006  0.5183281E+03  0.7546771E-02  0.9359708E-01
        -11   -1    0    0    0    0  0.00000000000E+00  0.00000000000E+00  0.50000000000E+03  0.50000000000E+03  0.00000000000E+00 0. -1.
         11   -1    0    0    0    0 -0.00000000000E+00 -0.00000000000E+00 -0.50000000000E+03  0.50000000000E+03  0.00000000000E+00 0.  1.
         23    2    1    2    0    0 -0.18853758140E+02 -0.32239364199E+02 -0.19750741471E+03  0.22100341238E+03  0.91861246538E+02 0.  0.
        -11    1    1    2    0    0 -0.92172850385E+02  0.12378663836E+02  0.47260848448E+03  0.48167192701E+03  0.00000000000E+00 0. -1.
         11    1    1    2    0    0  0.11102660852E+03  0.19860700363E+02 -0.27510106977E+03  0.29732466061E+03  0.00000000000E+00 0.  1.
        -15    1    3    3    0    0 -0.44563144070E+02 -0.46756210998E+02 -0.99583760803E+02  0.11871015214E+03  0.17770000000E+01 0. -1.
         15    1    3    3    0    0  0.25709385929E+02  0.14516846799E+02 -0.97923653911E+02  0.10229326024E+03  0.17770000000E+01 0.  1.
</event>
<event>
 7    1  0.3234965E-006  0.4239739E+03  0.7546771E-02  0.9588103E-01
        -11   -1    0    0    0    0  0.00000000000E+00  0.00000000000E+00  0.50000000000E+03  0.50000000000E+03  0.00000000000E+00 0.  1.
         11   -1    0    0    0    0 -0.00000000000E+00 -0.00000000000E+00 -0.50000000000E+03  0.50000000000E+03  0.00000000000E+00 0. -1.
         23    2    1    2    0    0 -0.39125815704E+02 -0.13038657188E+02 -0.40026823898E+03  0.41250852352E+03  0.90817304537E+02 0.  0.
        -11    1    1    2    0    0 -0.10705414440E+03  0.13813979013E+01  0.42543839574E+03  0.43870300508E+03  0.00000000000E+00 0.  1.
         11    1    1    2    0    0  0.14617996010E+03  0.11657259286E+02 -0.25170156760E+02  0.14878847140E+03  0.00000000000E+00 0. -1.
        -15    1    3    3    0    0 -0.66803766819E+02 -0.56288246052E+00 -0.22864281670E+03  0.23820947810E+03  0.17770000000E+01 0.  1.
         15    1    3    3    0    0  0.27677951115E+02 -0.12475774727E+02 -0.17162542228E+03  0.17429904542E+03  0.17770000000E+01 0. -1.
</event>
<event>
 7    1  0.3952041E-006  0.5091324E+03  0.7546771E-02  0.9379604E-01
        -11   -1    0    0    0    0  0.00000000000E+00  0.00000000000E+00  0.50000000000E+03  0.50000000000E+03  0.00000000000E+00 0.  1.
         11   -1    0    0    0    0 -0.00000000000E+00 -0.00000000000E+00 -0.50000000000E+03  0.50000000000E+03  0.00000000000E+00 0. -1.
         23    2    1    2    0    0  0.45748858085E+02 -0.27408819824E+02  0.28173156254E+03  0.30090062992E+03  0.91237680461E+02 0.  0.
        -11    1    1    2    0    0  0.72755086783E+02 -0.52912447053E+02  0.18779623026E+03  0.20823173102E+03  0.00000000000E+00 0.  1.
         11    1    1    2    0    0 -0.11850394487E+03  0.80321266877E+02 -0.46952779280E+03  0.49086763906E+03  0.00000000000E+00 0. -1.
        -15    1    3    3    0    0  0.35355622578E+02  0.27867005126E+02  0.16903483221E+03  0.17493576607E+03  0.17770000000E+01 0.  1.
         15    1    3    3    0    0  0.10393235508E+02 -0.55275824950E+02  0.11269673033E+03  0.12596486385E+03  0.17770000000E+01 0. -1.
</event>
<event>
 7    1  0.3234965E-006  0.4439132E+03  0.7546771E-02  0.9534870E-01
        -11   -1    0    0    0    0  0.00000000000E+00  0.00000000000E+00  0.50000000000E+03  0.50000000000E+03  0.00000000000E+00 0.  1.
         11   -1    0    0    0    0 -0.00000000000E+00 -0.00000000000E+00 -0.50000000000E+03  0.50000000000E+03  0.00000000000E+00 0. -1.
         23    2    1    2    0    0 -0.10476913793E+02 -0.10252612549E+03 -0.40306453184E+03  0.42577373529E+03  0.90558736201E+02 0.  0.
        -11    1    1    2    0    0  0.94195210000E+02  0.39734248094E+02  0.44859802581E+03  0.46009970312E+03  0.00000000000E+00 0.  1.
         11    1    1    2    0    0 -0.83718296207E+02  0.62791877400E+02 -0.45533493968E+02  0.11412656159E+03  0.00000000000E+00 0. -1.
        -15    1    3    3    0    0  0.67113821947E+01 -0.25297813052E+02 -0.16055879588E+02  0.30756641470E+02  0.17770000000E+01 0.  1.
         15    1    3    3    0    0 -0.17188295988E+02 -0.77228312443E+02 -0.38700865225E+03  0.39501709382E+03  0.17770000000E+01 0. -1.
</event>
<event>
 7    1  0.3234965E-006  0.5205526E+03  0.7546771E-02  0.9354961E-01
        -11   -1    0    0    0    0  0.00000000000E+00  0.00000000000E+00  0.50000000000E+03  0.50000000000E+03  0.00000000000E+00 0. -1.
         11   -1    0    0    0    0 -0.00000000000E+00 -0.00000000000E+00 -0.50000000000E+03  0.50000000000E+03  0.00000000000E+00 0.  1.
         23    2    1    2    0    0  0.19803426307E+02 -0.33824038109E+02 -0.25502217082E+03  0.27074272334E+03  0.82030929446E+02 0.  0.
        -11    1    1    2    0    0  0.53009991392E+02  0.18737454522E+03  0.43812162205E+03  0.47944742683E+03  0.00000000000E+00 0. -1.
         11    1    1    2    0    0 -0.72813417700E+02 -0.15355050711E+03 -0.18309945123E+03  0.24980984983E+03  0.00000000000E+00 0.  1.
        -15    1    3    3    0    0 -0.29528107485E+02 -0.28244903577E+02 -0.12681198620E+03  0.13324459194E+03  0.17770000000E+01 0.  1.
         15    1    3    3    0    0  0.49331533792E+02 -0.55791345312E+01 -0.12821018462E+03  0.13749813140E+03  0.17770000000E+01 0. -1.
</event>
<event>
 7    1  0.3234965E-006  0.5133550E+03  0.7546771E-02  0.9370413E-01
        -11   -1    0    0    0    0  0.00000000000E+00  0.00000000000E+00  0.50000000000E+03  0.50000000000E+03  0.00000000000E+00 0.  1.
         11   -1    0    0    0    0 -0.00000000000E+00 -0.00000000000E+00 -0.50000000000E+03  0.50000000000E+03  0.00000000000E+00 0.  1.
         23    2    1    2    0    0  0.39408639768E+02 -0.29201821558E+02 -0.32200359248E+03  0.33729692082E+03  0.87619130070E+02 0.  0.
        -11    1    1    2    0    0  0.15739621887E+00  0.10758772527E+03  0.47460318676E+03  0.48664497150E+03  0.00000000000E+00 0.  1.
         11    1    1    2    0    0 -0.39566035986E+02 -0.78385903708E+02 -0.15259959429E+03  0.17605810768E+03  0.00000000000E+00 0.  1.
        -15    1    3    3    0    0  0.51278939294E+02  0.14372042964E+02 -0.20653978781E+03  0.21330243063E+03  0.17770000000E+01 0.  1.
         15    1    3    3    0    0 -0.11870299527E+02 -0.43573864522E+02 -0.11546380467E+03  0.12399449019E+03  0.17770000000E+01 0. -1.
</event>
<event>
 6    1  0.3234965E-006  0.3675200E+03  0.7546771E-02  0.9757558E-01
        -11   -1    0    0    0    0  0.00000000000E+00  0.00000000000E+00  0.50000000000E+03  0.50000000000E+03  0.00000000000E+00 0. -1.
         11   -1    0    0    0    0 -0.00000000000E+00 -0.00000000000E+00 -0.50000000000E+03  0.50000000000E+03  0.00000000000E+00 0.  1.
        -11    1    1    2    0    0  0.27733657770E+03 -0.54039335496E+02  0.36249946088E+03  0.45961036351E+03  0.00000000000E+00 0. -1.
         11    1    1    2    0    0 -0.26002345890E+03  0.89305597578E+02 -0.14113793072E+03  0.30904304623E+03  0.00000000000E+00 0.  1.
        -15    1    1    2    0    0 -0.76031363463E+01  0.13738909861E+02 -0.76120558433E+02  0.77743568683E+02  0.17770000000E+01 0. -1.
         15    1    1    2    0    0 -0.97099824489E+01 -0.49005171943E+02 -0.14524097173E+03  0.15360302157E+03  0.17770000000E+01 0.  1.
</event>
<event>
 7    1  0.3234965E-006  0.5200080E+03  0.7546771E-02  0.9356121E-01
        -11   -1    0    0    0    0  0.00000000000E+00  0.00000000000E+00  0.50000000000E+03  0.50000000000E+03  0.00000000000E+00 0.  1.
         11   -1    0    0    0    0 -0.00000000000E+00 -0.00000000000E+00 -0.50000000000E+03  0.50000000000E+03  0.00000000000E+00 0.  1.
         23    2    1    2    0    0 -0.64754449920E+02 -0.60390368758E+02 -0.26596923343E+03  0.29522161526E+03  0.92606876417E+02 0.  0.
        -11    1    1    2    0    0 -0.14186440846E+02  0.15450391582E+03  0.45422414201E+03  0.47999196482E+03  0.00000000000E+00 0.  1.
         11    1    1    2    0    0  0.78940890766E+02 -0.94113547062E+02 -0.18825490858E+03  0.22478641992E+03  0.00000000000E+00 0.  1.
        -15    1    3    3    0    0 -0.76360112962E+02 -0.12068603115E+02 -0.14280669148E+03  0.16239897442E+03  0.17770000000E+01 0. -1.
         15    1    3    3    0    0  0.11605663042E+02 -0.48321765643E+02 -0.12316254195E+03  0.13282264084E+03  0.17770000000E+01 0.  1.
</event>
<event>
 7    1  0.3234965E-006  0.5286529E+03  0.7546771E-02  0.9337885E-01
        -11   -1    0    0    0    0  0.00000000000E+00  0.00000000000E+00  0.50000000000E+03  0.50000000000E+03  0.00000000000E+00 0.  1.
         11   -1    0    0    0    0 -0.00000000000E+00 -0.00000000000E+00 -0.50000000000E+03  0.50000000000E+03  0.00000000000E+00 0. -1.
         23    2    1    2    0    0 -0.12723218963E+03  0.24342779569E+03 -0.19899141862E+03  0.35106953357E+03  0.90593106404E+02 0.  0.
        -11    1    1    2    0    0 -0.14701759902E+03  0.96984024438E+02  0.22710506130E+02  0.17758333961E+03  0.00000000000E+00 0. -1.
         11    1    1    2    0    0  0.27424978865E+03 -0.34041182013E+03  0.17628091249E+03  0.47134712682E+03  0.00000000000E+00 0.  1.
        -15    1    3    3    0    0  0.12584847281E+02  0.15434125506E+02 -0.24945501563E+02  0.31969147446E+02  0.17770000000E+01 0.  1.
         15    1    3    3    0    0 -0.13981703691E+03  0.22799367018E+03 -0.17404591705E+03  0.31910038613E+03  0.17770000000E+01 0. -1.
</event>
<event>
 7    1  0.3234965E-006  0.5212384E+03  0.7546771E-02  0.9353502E-01
        -11   -1    0    0    0    0  0.00000000000E+00  0.00000000000E+00  0.50000000000E+03  0.50000000000E+03  0.00000000000E+00 0. -1.
         11   -1    0    0    0    0 -0.00000000000E+00 -0.00000000000E+00 -0.50000000000E+03  0.50000000000E+03  0.00000000000E+00 0. -1.
         23    2    1    2    0    0  0.35311441317E+02 -0.58427466199E+02 -0.22210097170E+03  0.24940931174E+03  0.90639375848E+02 0.  0.
        -11    1    1    2    0    0 -0.66172353519E+02 -0.43604427902E+02  0.47215729810E+03  0.47876156973E+03  0.00000000000E+00 0. -1.
         11    1    1    2    0    0  0.30860912202E+02  0.10203189410E+03 -0.25005632639E+03  0.27182911854E+03  0.00000000000E+00 0. -1.
        -15    1    3    3    0    0 -0.12154262096E+02 -0.52471438264E+02 -0.61232914128E+02  0.81569635417E+02  0.17770000000E+01 0.  1.
         15    1    3    3    0    0  0.47465703412E+02 -0.59560279354E+01 -0.16086805758E+03  0.16783967632E+03  0.17770000000E+01 0. -1.
</event>
<event>
 7    1  0.3234965E-006  0.3769940E+03  0.7546771E-02  0.9726930E-01
        -11   -1    0    0    0    0  0.00000000000E+00  0.00000000000E+00  0.50000000000E+03  0.50000000000E+03  0.00000000000E+00 0.  1.
         11   -1    0    0    0    0 -0.00000000000E+00 -0.00000000000E+00 -0.50000000000E+03  0.50000000000E+03  0.00000000000E+00 0.  1.
         23    2    1    2    0    0  0.98188291937E+02  0.66202326302E+02 -0.29075834694E+03  0.32658072826E+03  0.89949247214E+02 0.  0.
        -11    1    1    2    0    0  0.71266160982E+02 -0.11560751002E+03  0.42851199279E+03  0.44951806420E+03  0.00000000000E+00 0.  1.
         11    1    1    2    0    0 -0.16945445292E+03  0.49405183721E+02 -0.13775364585E+03  0.22390120754E+03  0.00000000000E+00 0.  1.
        -15    1    3    3    0    0  0.90231273391E+02  0.15313168256E+02 -0.14012731027E+03  0.16737681032E+03  0.17770000000E+01 0. -1.
         15    1    3    3    0    0  0.79570185460E+01  0.50889158047E+02 -0.15063103667E+03  0.15920391794E+03  0.17770000000E+01 0.  1.
</event>
<event>
 7    1  0.3234965E-006  0.4135149E+03  0.7546771E-02  0.9617290E-01
        -11   -1    0    0    0    0  0.00000000000E+00  0.00000000000E+00  0.50000000000E+03  0.50000000000E+03  0.00000000000E+00 0.  1.
         11   -1    0    0    0    0 -0.00000000000E+00 -0.00000000000E+00 -0.50000000000E+03  0.50000000000E+03  0.00000000000E+00 0. -1.
         23    2    1    2    0    0 -0.41380101625E+02  0.10634372616E+03 -0.68455401852E+02  0.16233318080E+03  0.92976441317E+02 0.  0.
        -11    1    1    2    0    0  0.21748193322E+03  0.14943492992E+03  0.33637593818E+03  0.42752539263E+03  0.00000000000E+00 0.  1.
         11    1    1    2    0    0 -0.17610183159E+03 -0.25577865609E+03 -0.26792053633E+03  0.41014142657E+03  0.00000000000E+00 0. -1.
        -15    1    3    3    0    0 -0.47748877219E+02  0.53057004908E+02  0.47354084753E+01  0.71558248077E+02  0.17770000000E+01 0.  1.
         15    1    3    3    0    0  0.63687755948E+01  0.53286721257E+02 -0.73190810327E+02  0.90774932720E+02  0.17770000000E+01 0. -1.
</event>
<event>
 7    1  0.3234965E-006  0.4429371E+03  0.7546771E-02  0.9537406E-01
        -11   -1    0    0    0    0  0.00000000000E+00  0.00000000000E+00  0.50000000000E+03  0.50000000000E+03  0.00000000000E+00 0. -1.
         11   -1    0    0    0    0 -0.00000000000E+00 -0.00000000000E+00 -0.50000000000E+03  0.50000000000E+03  0.00000000000E+00 0. -1.
         23    2    1    2    0    0  0.11984561110E+03  0.27499544180E+02 -0.40371703557E+03  0.43166279738E+03  0.90698017608E+02 0.  0.
        -11    1    1    2    0    0 -0.55453140788E+02  0.59515562739E+02  0.44508104970E+03  0.45245363722E+03  0.00000000000E+00 0. -1.
         11    1    1    2    0    0 -0.64392470309E+02 -0.87015106918E+02 -0.41364014130E+02  0.11588356540E+03  0.00000000000E+00 0. -1.
        -15    1    3    3    0    0  0.38226862882E+02  0.98543865219E+01 -0.32497258158E+02  0.51162794063E+02  0.17770000000E+01 0.  1.
         15    1    3    3    0    0  0.81618748216E+02  0.17645157658E+02 -0.37121977742E+03  0.38050000331E+03  0.17770000000E+01 0. -1.
</event>
<event>
 7    1  0.3234965E-006  0.4315756E+03  0.7546771E-02  0.9567447E-01
        -11   -1    0    0    0    0  0.00000000000E+00  0.00000000000E+00  0.50000000000E+03  0.50000000000E+03  0.00000000000E+00 0. -1.
         11   -1    0    0    0    0 -0.00000000000E+00 -0.00000000000E+00 -0.50000000000E+03  0.50000000000E+03  0.00000000000E+00 0.  1.
         23    2    1    2    0    0 -0.13332025344E+03  0.82254800689E+02 -0.36042280233E+03  0.40484953240E+03  0.97254332680E+02 0.  0.
        -11    1    1    2    0    0  0.44928091923E+02 -0.16444117874E+03  0.42525028891E+03  0.45814543861E+03  0.00000000000E+00 0. -1.
         11    1    1    2    0    0  0.88392161516E+02  0.82186378046E+02 -0.64827486571E+02  0.13700502899E+03  0.00000000000E+00 0.  1.
        -15    1    3    3    0    0  0.63454450061E+01  0.24910802624E+02 -0.20590321026E+02  0.32983811312E+02  0.17770000000E+01 0. -1.
         15    1    3    3    0    0 -0.13966569845E+03  0.57343998065E+02 -0.33983248131E+03  0.37186572108E+03  0.17770000000E+01 0.  1.
</event>
<event>
 7    1  0.3234965E-006  0.4741520E+03  0.7546771E-02  0.9459580E-01
        -11   -1    0    0    0    0  0.00000000000E+00  0.00000000000E+00  0.50000000000E+03  0.50000000000E+03  0.00000000000E+00 0. -1.
         11   -1    0    0    0    0 -0.00000000000E+00 -0.00000000000E+00 -0.50000000000E+03  0.50000000000E+03  0.00000000000E+00 0.  1.
         23    2    1    2    0    0 -0.26610809416E+03  0.50698677788E+02  0.35498387891E+03  0.45592390822E+03  0.92028159250E+02 0.  0.
        -11    1    1    2    0    0 -0.94994053871E+00 -0.31593476804E+02  0.49664602757E+02  0.58869541621E+02  0.00000000000E+00 0. -1.
         11    1    1    2    0    0  0.26705803470E+03 -0.19105200984E+02 -0.40464848166E+03  0.48520655016E+03  0.00000000000E+00 0.  1.
        -15    1    3    3    0    0 -0.14957251906E+02  0.29067030280E+02  0.55818777290E+02  0.64710936178E+02  0.17770000000E+01 0.  1.
         15    1    3    3    0    0 -0.25115084226E+03  0.21631647509E+02  0.29916510162E+03  0.39121297204E+03  0.17770000000E+01 0. -1.
</event>
<event>
 7    1  0.3234966E-006  0.4124333E+03  0.7546771E-02  0.9620361E-01
        -11   -1    0    0    0    0  0.00000000000E+00  0.00000000000E+00  0.50000000000E+03  0.50000000000E+03  0.00000000000E+00 0.  1.
         11   -1    0    0    0    0 -0.00000000000E+00 -0.00000000000E+00 -0.50000000000E+03  0.50000000000E+03  0.00000000000E+00 0. -1.
         23    2    1    2    0    0  0.66231913394E+02  0.11197248911E+03 -0.22509895767E+02  0.16463420677E+03  0.98352539171E+02 0.  0.
        -11    1    1    2    0    0 -0.68607636342E+02 -0.35824043157E+02  0.42181541418E+03  0.42885733463E+03  0.00000000000E+00 0.  1.
         11    1    1    2    0    0  0.23757229482E+01 -0.76148445952E+02 -0.39930551841E+03  0.40650845860E+03  0.00000000000E+00 0. -1.
        -15    1    3    3    0    0  0.77406658980E+02  0.87816151525E+02 -0.49114188726E+02  0.12695994875E+03  0.17770000000E+01 0. -1.
         15    1    3    3    0    0 -0.11174745586E+02  0.24156337584E+02  0.26604292959E+02  0.37674258019E+02  0.17770000000E+01 0.  1.
</event>
<event>
 7    1  0.3234965E-006  0.4757405E+03  0.7546771E-02  0.9455791E-01
        -11   -1    0    0    0    0  0.00000000000E+00  0.00000000000E+00  0.50000000000E+03  0.50000000000E+03  0.00000000000E+00 0.  1.
         11   -1    0    0    0    0 -0.00000000000E+00 -0.00000000000E+00 -0.50000000000E+03  0.50000000000E+03  0.00000000000E+00 0. -1.
         23    2    1    2    0    0 -0.60971152217E+02  0.16546709305E+03  0.40789338002E+03  0.45370441264E+03  0.91508711615E+02 0.  0.
        -11    1    1    2    0    0 -0.22520246725E+02 -0.10383813415E+02  0.49936535357E+02  0.55755202960E+02  0.00000000000E+00 0.  1.
         11    1    1    2    0    0  0.83491398942E+02 -0.15508327963E+03 -0.45782991537E+03  0.49054038440E+03  0.00000000000E+00 0. -1.
        -15    1    3    3    0    0  0.39037237824E+01  0.11843988910E+03  0.24130574049E+03  0.26883984919E+03  0.17770000000E+01 0.  1.
         15    1    3    3    0    0 -0.64874875999E+02  0.47027203946E+02  0.16658763953E+03  0.18486456345E+03  0.17770000000E+01 0. -1.
</event>
<event>
 7    1  0.3234965E-006  0.5283043E+03  0.7546771E-02  0.9338613E-01
        -11   -1    0    0    0    0  0.00000000000E+00  0.00000000000E+00  0.50000000000E+03  0.50000000000E+03  0.00000000000E+00 0.  1.
         11   -1    0    0    0    0 -0.00000000000E+00 -0.00000000000E+00 -0.50000000000E+03  0.50000000000E+03  0.00000000000E+00 0.  1.
         23    2    1    2    0    0 -0.59503769615E+02 -0.63112832211E+02 -0.34745088852E+03  0.36966954033E+03  0.91703440089E+02 0.  0.
        -11    1    1    2    0    0 -0.47982927235E+02  0.70925528414E+02  0.46385777056E+03  0.47169568918E+03  0.00000000000E+00 0.  1.
         11    1    1    2    0    0  0.10748669685E+03 -0.78126962029E+01 -0.11640688204E+03  0.15863477049E+03  0.00000000000E+00 0.  1.
        -15    1    3    3    0    0  0.47290860028E+01 -0.40653483549E+02 -0.50550059289E+02  0.65065629961E+02  0.17770000000E+01 0. -1.
         15    1    3    3    0    0 -0.64232855617E+02 -0.22459348661E+02 -0.29690082923E+03  0.30460391037E+03  0.17770000000E+01 0.  1.
</event>
<event>
 7    1  0.3234965E-006  0.5196231E+03  0.7546771E-02  0.9356941E-01
        -11   -1    0    0    0    0  0.00000000000E+00  0.00000000000E+00  0.50000000000E+03  0.50000000000E+03  0.00000000000E+00 0.  1.
         11   -1    0    0    0    0 -0.00000000000E+00 -0.00000000000E+00 -0.50000000000E+03  0.50000000000E+03  0.00000000000E+00 0. -1.
         23    2    1    2    0    0 -0.41610229310E+02 -0.45279801834E+02 -0.94060087799E+02  0.14542385144E+03  0.92299105157E+02 0.  0.
        -11    1    1    2    0    0  0.45470970484E+02  0.17566336293E+03  0.44478837501E+03  0.48037685704E+03  0.00000000000E+00 0.  1.
         11    1    1    2    0    0 -0.38607411738E+01 -0.13038356110E+03 -0.35072828721E+03  0.37419929152E+03  0.00000000000E+00 0. -1.
        -15    1    3    3    0    0  0.77005281632E+01 -0.39642501911E+02 -0.15815021945E+01  0.40453491443E+02  0.17770000000E+01 0.  1.
         15    1    3    3    0    0 -0.49310757473E+02 -0.56372999232E+01 -0.92478585604E+02  0.10497035999E+03  0.17770000000E+01 0. -1.
</event>
<event>
 7    1  0.3234965E-006  0.4105020E+03  0.7546771E-02  0.9625870E-01
        -11   -1    0    0    0    0  0.00000000000E+00  0.00000000000E+00  0.50000000000E+03  0.50000000000E+03  0.00000000000E+00 0. -1.
         11   -1    0    0    0    0 -0.00000000000E+00 -0.00000000000E+00 -0.50000000000E+03  0.50000000000E+03  0.00000000000E+00 0. -1.
         23    2    1    2    0    0  0.26883553121E+02  0.12749490355E+03 -0.36492832036E+03  0.39889266323E+03  0.94683694041E+02 0.  0.
        -11    1    1    2    0    0  0.97887499443E+02 -0.21289074015E+02  0.41724793016E+03  0.42910490843E+03  0.00000000000E+00 0. -1.
         11    1    1    2    0    0 -0.12477105256E+03 -0.10620582954E+03 -0.52319609802E+02  0.17200242834E+03  0.00000000000E+00 0. -1.
        -15    1    3    3    0    0  0.23370747267E+02 -0.70441132569E+01 -0.82106429701E+02  0.85676337963E+02  0.17770000000E+01 0.  1.
         15    1    3    3    0    0  0.35128058536E+01  0.13453901681E+03 -0.28282189066E+03  0.31321632526E+03  0.17770000000E+01 0. -1.
</event>
<event>
 7    1  0.3234965E-006  0.4528822E+03  0.7546771E-02  0.9511887E-01
        -11   -1    0    0    0    0  0.00000000000E+00  0.00000000000E+00  0.50000000000E+03  0.50000000000E+03  0.00000000000E+00 0.  1.
         11   -1    0    0    0    0 -0.00000000000E+00 -0.00000000000E+00 -0.50000000000E+03  0.50000000000E+03  0.00000000000E+00 0.  1.
         23    2    1    2    0    0 -0.12057268807E+03 -0.18211200420E+00 -0.44235644993E+03  0.46755402046E+03  0.91595452836E+02 0.  0.
        -11    1    1    2    0    0  0.67261617255E+02 -0.79646274626E+02  0.42151730917E+03  0.43421710715E+03  0.00000000000E+00 0.  1.
         11    1    1    2    0    0  0.53311070816E+02  0.79828386630E+02  0.20839140761E+02  0.98228872391E+02  0.00000000000E+00 0.  1.
        -15    1    3    3    0    0 -0.82553115763E+02  0.43450785754E+02 -0.28482261247E+03  0.29971664286E+03  0.17770000000E+01 0.  1.
         15    1    3    3    0    0 -0.38019572308E+02 -0.43632897759E+02 -0.15753383746E+03  0.16783737760E+03  0.17770000000E+01 0. -1.
</event>
<event>
 7    1  0.3234965E-006  0.3694855E+03  0.7546771E-02  0.9751123E-01
        -11   -1    0    0    0    0  0.00000000000E+00  0.00000000000E+00  0.50000000000E+03  0.50000000000E+03  0.00000000000E+00 0. -1.
         11   -1    0    0    0    0 -0.00000000000E+00 -0.00000000000E+00 -0.50000000000E+03  0.50000000000E+03  0.00000000000E+00 0. -1.
         23    2    1    2    0    0  0.55885269586E+02 -0.76040249153E+02 -0.28383800614E+03  0.30801537436E+03  0.73513089082E+02 0.  0.
        -11    1    1    2    0    0 -0.15491557240E+02 -0.78580811950E+02  0.45255943797E+03  0.45959218580E+03  0.00000000000E+00 0. -1.
         11    1    1    2    0    0 -0.40393712346E+02  0.15462106110E+03 -0.16872143184E+03  0.23239243984E+03  0.00000000000E+00 0. -1.
        -15    1    3    3    0    0  0.68168243351E+02 -0.81180865940E+02 -0.24644298571E+03  0.26828072113E+03  0.17770000000E+01 0. -1.
         15    1    3    3    0    0 -0.12282973764E+02  0.51406167870E+01 -0.37395020430E+02  0.39734653231E+02  0.17770000000E+01 0.  1.
</event>
<event>
 7    1  0.4069126E-006  0.5180824E+03  0.7546771E-02  0.9360234E-01
        -11   -1    0    0    0    0  0.00000000000E+00  0.00000000000E+00  0.50000000000E+03  0.50000000000E+03  0.00000000000E+00 0. -1.
         11   -1    0    0    0    0 -0.00000000000E+00 -0.00000000000E+00 -0.50000000000E+03  0.50000000000E+03  0.00000000000E+00 0. -1.
         23    2    1    2    0    0  0.14927824864E+02 -0.12337182615E+03  0.28412881081E+03  0.32908977266E+03  0.11012470158E+03 0.  0.
        -11    1    1    2    0    0  0.28321705824E+02  0.23606652751E+02  0.18536131018E+03  0.18899261463E+03  0.00000000000E+00 0. -1.
         11    1    1    2    0    0 -0.43249530688E+02  0.99765173398E+02 -0.46949012099E+03  0.48191761270E+03  0.00000000000E+00 0. -1.
        -15    1    3    3    0    0 -0.43257061311E+02 -0.85797895453E+02  0.15047995748E+03  0.17854923005E+03  0.17770000000E+01 0. -1.
         15    1    3    3    0    0  0.58184886175E+02 -0.37573930696E+02  0.13364885332E+03  0.15054054261E+03  0.17770000000E+01 0.  1.
</event>
<event>
 7    1  0.3234965E-006  0.5171774E+03  0.7546771E-02  0.9362173E-01
        -11   -1    0    0    0    0  0.00000000000E+00  0.00000000000E+00  0.50000000000E+03  0.50000000000E+03  0.00000000000E+00 0.  1.
         11   -1    0    0    0    0 -0.00000000000E+00 -0.00000000000E+00 -0.50000000000E+03  0.50000000000E+03  0.00000000000E+00 0. -1.
         23    2    1    2    0    0  0.71809414043E+02  0.70804394687E+02 -0.26146139534E+03  0.29481333506E+03  0.91558653460E+02 0.  0.
        -11    1    1    2    0    0 -0.85967919357E+02 -0.10395413922E+02  0.47499378117E+03  0.48282257605E+03  0.00000000000E+00 0.  1.
         11    1    1    2    0    0  0.14158505314E+02 -0.60408980765E+02 -0.21353238584E+03  0.22236408890E+03  0.00000000000E+00 0. -1.
        -15    1    3    3    0    0  0.15119080015E+02  0.43392439093E+02 -0.20540137199E+03  0.21048603682E+03  0.17770000000E+01 0. -1.
         15    1    3    3    0    0  0.56690334028E+02  0.27411955594E+02 -0.56060023350E+02  0.84327298241E+02  0.17770000000E+01 0.  1.
</event>
<event>
 7    1  0.3234965E-006  0.5251596E+03  0.7546771E-02  0.9345209E-01
        -11   -1    0    0    0    0  0.00000000000E+00  0.00000000000E+00  0.50000000000E+03  0.50000000000E+03  0.00000000000E+00 0.  1.
         11   -1    0    0    0    0 -0.00000000000E+00 -0.00000000000E+00 -0.50000000000E+03  0.50000000000E+03  0.00000000000E+00 0. -1.
         23    2    1    2    0    0  0.36452354109E+01 -0.30865326256E+02 -0.12605823337E+03  0.15609124297E+03  0.86647803358E+02 0.  0.
        -11    1    1    2    0    0 -0.93632957867E+01  0.33200636261E+03  0.33934868432E+03  0.47484042127E+03  0.00000000000E+00 0.  1.
         11    1    1    2    0    0  0.57180603758E+01 -0.30114103635E+03 -0.21329045096E+03  0.36906833576E+03  0.00000000000E+00 0. -1.
        -15    1    3    3    0    0  0.44603462731E+02 -0.19831444220E+02 -0.57438586322E+02  0.75399628614E+02  0.17770000000E+01 0. -1.
         15    1    3    3    0    0 -0.40958227321E+02 -0.11033882037E+02 -0.68619647047E+02  0.80691614359E+02  0.17770000000E+01 0.  1.
</event>
<event>
 7    1  0.3234965E-006  0.5082029E+03  0.7546771E-02  0.9381640E-01
        -11   -1    0    0    0    0  0.00000000000E+00  0.00000000000E+00  0.50000000000E+03  0.50000000000E+03  0.00000000000E+00 0.  1.
         11   -1    0    0    0    0 -0.00000000000E+00 -0.00000000000E+00 -0.50000000000E+03  0.50000000000E+03  0.00000000000E+00 0. -1.
         23    2    1    2    0    0  0.11900335053E+03 -0.81037168026E+02  0.32686035057E+03  0.36905855640E+03  0.92939277180E+02 0.  0.
        -11    1    1    2    0    0  0.59104032710E+02  0.80753502831E+01  0.12570863325E+03  0.13914437983E+03  0.00000000000E+00 0.  1.
         11    1    1    2    0    0 -0.17810738324E+03  0.72961817742E+02 -0.45256898382E+03  0.49179706376E+03  0.00000000000E+00 0. -1.
        -15    1    3    3    0    0  0.79600784868E+02 -0.63283633961E+02  0.11807380986E+03  0.15583865240E+03  0.17770000000E+01 0.  1.
         15    1    3    3    0    0  0.39402565665E+02 -0.17753534065E+02  0.20878654071E+03  0.21321990400E+03  0.17770000000E+01 0. -1.
</event>
<event>
 7    1  0.3234965E-006  0.5298793E+03  0.7546771E-02  0.9335328E-01
        -11   -1    0    0    0    0  0.00000000000E+00  0.00000000000E+00  0.50000000000E+03  0.50000000000E+03  0.00000000000E+00 0.  1.
         11   -1    0    0    0    0 -0.00000000000E+00 -0.00000000000E+00 -0.50000000000E+03  0.50000000000E+03  0.00000000000E+00 0.  1.
         23    2    1    2    0    0 -0.83569313733E+02  0.38291912668E+01 -0.19497328469E+03  0.23136746394E+03  0.92292083741E+02 0.  0.
        -11    1    1    2    0    0 -0.19863347811E+02 -0.93101007402E+02  0.46038151873E+03  0.47012072168E+03  0.00000000000E+00 0.  1.
         11    1    1    2    0    0  0.10343266154E+03  0.89271816135E+02 -0.26540823404E+03  0.29851181438E+03  0.00000000000E+00 0.  1.
        -15    1    3    3    0    0 -0.79426715439E+02 -0.32946474868E+02 -0.11884360341E+03  0.14670048783E+03  0.17770000000E+01 0. -1.
         15    1    3    3    0    0 -0.41425982935E+01  0.36775666135E+02 -0.76129681288E+02  0.84666976102E+02  0.17770000000E+01 0.  1.
</event>
<event>
 7    1  0.3234965E-006  0.5157526E+03  0.7546771E-02  0.9365236E-01
        -11   -1    0    0    0    0  0.00000000000E+00  0.00000000000E+00  0.50000000000E+03  0.50000000000E+03  0.00000000000E+00 0. -1.
         11   -1    0    0    0    0 -0.00000000000E+00 -0.00000000000E+00 -0.50000000000E+03  0.50000000000E+03  0.00000000000E+00 0.  1.
         23    2    1    2    0    0 -0.74024246990E+02 -0.16121305708E+02 -0.38217648371E+03  0.40015168766E+03  0.91230602303E+02 0.  0.
        -11    1    1    2    0    0  0.96120756653E+02 -0.53785300534E+02  0.47155428582E+03  0.48424735713E+03  0.00000000000E+00 0. -1.
         11    1    1    2    0    0 -0.22096509662E+02  0.69906606242E+02 -0.89377802109E+02  0.11560095521E+03  0.00000000000E+00 0.  1.
        -15    1    3    3    0    0 -0.17177757162E+01 -0.12057655448E+02 -0.12201000514E+01  0.12368677434E+02  0.17770000000E+01 0.  1.
         15    1    3    3    0    0 -0.72306471274E+02 -0.40636502601E+01 -0.38095638366E+03  0.38778301023E+03  0.17770000000E+01 0. -1.
</event>
<event>
 7    1  0.3234965E-006  0.5112637E+03  0.7546771E-02  0.9374953E-01
        -11   -1    0    0    0    0  0.00000000000E+00  0.00000000000E+00  0.50000000000E+03  0.50000000000E+03  0.00000000000E+00 0. -1.
         11   -1    0    0    0    0 -0.00000000000E+00 -0.00000000000E+00 -0.50000000000E+03  0.50000000000E+03  0.00000000000E+00 0. -1.
         23    2    1    2    0    0  0.96220756242E+02 -0.28701279487E+02  0.35979775090E+03  0.38541467698E+03  0.94909716581E+02 0.  0.
        -11    1    1    2    0    0  0.30766389096E+02  0.49112058879E+02  0.11171132171E+03  0.12584905412E+03  0.00000000000E+00 0. -1.
         11    1    1    2    0    0 -0.12698714534E+03 -0.20410779391E+02 -0.47150907260E+03  0.48873626891E+03  0.00000000000E+00 0. -1.
        -15    1    3    3    0    0  0.69703822733E+02  0.21607241136E+02  0.26483874655E+03  0.27471478879E+03  0.17770000000E+01 0.  1.
         15    1    3    3    0    0  0.26516933509E+02 -0.50308520624E+02  0.94959004343E+02  0.11069988819E+03  0.17770000000E+01 0. -1.
</event>
<event>
 7    1  0.3234965E-006  0.3831660E+03  0.7546771E-02  0.9707491E-01
        -11   -1    0    0    0    0  0.00000000000E+00  0.00000000000E+00  0.50000000000E+03  0.50000000000E+03  0.00000000000E+00 0. -1.
         11   -1    0    0    0    0 -0.00000000000E+00 -0.00000000000E+00 -0.50000000000E+03  0.50000000000E+03  0.00000000000E+00 0. -1.
         23    2    1    2    0    0  0.28262547212E+02 -0.16383307995E+03 -0.91031760454E+02  0.21057511631E+03  0.91733573658E+02 0.  0.
        -11    1    1    2    0    0  0.31887036524E+02 -0.14655975872E+03  0.34996930038E+03  0.38075590236E+03  0.00000000000E+00 0. -1.
         11    1    1    2    0    0 -0.60149583736E+02  0.31039283866E+03 -0.25893753993E+03  0.40866898133E+03  0.00000000000E+00 0. -1.
        -15    1    3    3    0    0  0.60718587171E+02 -0.90158532443E+02 -0.43690006379E+02  0.11716348487E+03  0.17770000000E+01 0. -1.
         15    1    3    3    0    0 -0.32456039959E+02 -0.73674547502E+02 -0.47341754075E+02  0.93411631435E+02  0.17770000000E+01 0.  1.
</event>
<event>
 7    1  0.3234965E-006  0.5362340E+03  0.7546771E-02  0.9322195E-01
        -11   -1    0    0    0    0  0.00000000000E+00  0.00000000000E+00  0.50000000000E+03  0.50000000000E+03  0.00000000000E+00 0. -1.
         11   -1    0    0    0    0 -0.00000000000E+00 -0.00000000000E+00 -0.50000000000E+03  0.50000000000E+03  0.00000000000E+00 0. -1.
         23    2    1    2    0    0  0.60084435835E+01 -0.37193388968E+02 -0.29970025972E+03  0.31560117522E+03  0.91457129588E+02 0.  0.
        -11    1    1    2    0    0 -0.18279177528E+03 -0.47036392955E+00  0.42622275863E+03  0.46376599091E+03  0.00000000000E+00 0. -1.
         11    1    1    2    0    0  0.17678333169E+03  0.37663752898E+02 -0.12652249891E+03  0.22063283386E+03  0.00000000000E+00 0. -1.
        -15    1    3    3    0    0  0.42364074404E+02  0.52477076732E+01 -0.14161753370E+03  0.14792206331E+03  0.17770000000E+01 0. -1.
         15    1    3    3    0    0 -0.36355630820E+02 -0.42441096642E+02 -0.15808272602E+03  0.16767911191E+03  0.17770000000E+01 0.  1.
</event>
<event>
 7    1  0.3234965E-006  0.5225529E+03  0.7546771E-02  0.9350713E-01
        -11   -1    0    0    0    0  0.00000000000E+00  0.00000000000E+00  0.50000000000E+03  0.50000000000E+03  0.00000000000E+00 0. -1.
         11   -1    0    0    0    0 -0.00000000000E+00 -0.00000000000E+00 -0.50000000000E+03  0.50000000000E+03  0.00000000000E+00 0. -1.
         23    2    1    2    0    0  0.42867645238E+02 -0.47786809326E+02 -0.26356560019E+03  0.28678304873E+03  0.93040191748E+02 0.  0.
        -11    1    1    2    0    0  0.74146409051E+02  0.10892468768E+03  0.45890457704E+03  0.47744705297E+03  0.00000000000E+00 0. -1.
         11    1    1    2    0    0 -0.11701405429E+03 -0.61137878351E+02 -0.19533897685E+03  0.23576989830E+03  0.00000000000E+00 0. -1.
        -15    1    3    3    0    0  0.58747885744E+02 -0.44896649460E+02 -0.25978767702E+03  0.27011075150E+03  0.17770000000E+01 0. -1.
         15    1    3    3    0    0 -0.15880240506E+02 -0.28901598656E+01 -0.37779231696E+01  0.16672297234E+02  0.17770000000E+01 0.  1.
</event>
<event>
 7    1  0.3234965E-006  0.3667088E+03  0.7546771E-02  0.9760226E-01
        -11   -1    0    0    0    0  0.00000000000E+00  0.00000000000E+00  0.50000000000E+03  0.50000000000E+03  0.00000000000E+00 0. -1.
         11   -1    0    0    0    0 -0.00000000000E+00 -0.00000000000E+00 -0.50000000000E+03  0.50000000000E+03  0.00000000000E+00 0.  1.
         23    2    1    2    0    0 -0.20218709512E+02  0.15920905955E+03 -0.27721955573E+03  0.33578848178E+03  0.10073182993E+03 0.  0.
        -11    1    1    2    0    0 -0.18402958483E+03 -0.74132016336E+02  0.37349075944E+03  0.42291582061E+03  0.00000000000E+00 0. -1.
         11    1    1    2    0    0  0.20424829434E+03 -0.85077043212E+02 -0.96271203710E+02  0.24129569761E+03  0.00000000000E+00 0.  1.
        -15    1    3    3    0    0 -0.16214560904E+02 -0.67065996420E+01 -0.76570061303E+01  0.19227010583E+02  0.17770000000E+01 0. -1.
         15    1    3    3    0    0 -0.40041486074E+01  0.16591565919E+03 -0.26956254960E+03  0.31656147119E+03  0.17770000000E+01 0.  1.
</event>
<event>
 7    1  0.3234965E-006  0.5073895E+03  0.7546771E-02  0.9383425E-01
        -11   -1    0    0    0    0  0.00000000000E+00  0.00000000000E+00  0.50000000000E+03  0.50000000000E+03  0.00000000000E+00 0. -1.
         11   -1    0    0    0    0 -0.00000000000E+00 -0.00000000000E+00 -0.50000000000E+03  0.50000000000E+03  0.00000000000E+00 0. -1.
         23    2    1    2    0    0 -0.12755088694E+02 -0.60444173416E+02 -0.30526768815E+03  0.32300490644E+03  0.85601505627E+02 0.  0.
        -11    1    1    2    0    0  0.31374521963E+02  0.13601778640E+03  0.47241919731E+03  0.49261049201E+03  0.00000000000E+00 0. -1.
         11    1    1    2    0    0 -0.18619433269E+02 -0.75573612989E+02 -0.16715150916E+03  0.18438460155E+03  0.00000000000E+00 0. -1.
        -15    1    3    3    0    0 -0.46596124585E+02 -0.24197357126E+02 -0.11601411111E+03  0.12735439775E+03  0.17770000000E+01 0. -1.
         15    1    3    3    0    0  0.33841035891E+02 -0.36246816290E+02 -0.18925357704E+03  0.19565050869E+03  0.17770000000E+01 0.  1.
</event>
<event>
 7    1  0.3234965E-006  0.4112034E+03  0.7546771E-02  0.9623865E-01
        -11   -1    0    0    0    0  0.00000000000E+00  0.00000000000E+00  0.50000000000E+03  0.50000000000E+03  0.00000000000E+00 0. -1.
         11   -1    0    0    0    0 -0.00000000000E+00 -0.00000000000E+00 -0.50000000000E+03  0.50000000000E+03  0.00000000000E+00 0.  1.
         23    2    1    2    0    0 -0.41034787873E+02  0.16474034217E+02 -0.36115957598E+03  0.37462684682E+03  0.89184008778E+02 0.  0.
        -11    1    1    2    0    0 -0.10624404387E+03 -0.45246730353E+02  0.44066862745E+03  0.45554791481E+03  0.00000000000E+00 0. -1.
         11    1    1    2    0    0  0.14727883174E+03  0.28772696136E+02 -0.79509051476E+02  0.16982523837E+03  0.00000000000E+00 0.  1.
        -15    1    3    3    0    0 -0.53981385414E+02  0.42069745332E+02 -0.28799370500E+03  0.29601923129E+03  0.17770000000E+01 0.  1.
         15    1    3    3    0    0  0.12946597541E+02 -0.25595711115E+02 -0.73165870973E+02  0.78607615532E+02  0.17770000000E+01 0. -1.
</event>
<event>
 7    1  0.3234965E-006  0.4284455E+03  0.7546771E-02  0.9575897E-01
        -11   -1    0    0    0    0  0.00000000000E+00  0.00000000000E+00  0.50000000000E+03  0.50000000000E+03  0.00000000000E+00 0.  1.
         11   -1    0    0    0    0 -0.00000000000E+00 -0.00000000000E+00 -0.50000000000E+03  0.50000000000E+03  0.00000000000E+00 0. -1.
         23    2    1    2    0    0  0.11610871544E+02 -0.97455199127E+02 -0.29028963551E+02  0.13701836398E+03  0.91098974568E+02 0.  0.
        -11    1    1    2    0    0  0.51800516741E+02 -0.82774485746E+02  0.41819568914E+03  0.42944445909E+03  0.00000000000E+00 0.  1.
         11    1    1    2    0    0 -0.63411388286E+02  0.18022968487E+03 -0.38916672559E+03  0.43353717693E+03  0.00000000000E+00 0. -1.
        -15    1    3    3    0    0  0.34201376904E+02 -0.15538610757E+01 -0.15234890623E+02  0.37515440657E+02  0.17770000000E+01 0.  1.
         15    1    3    3    0    0 -0.22590505360E+02 -0.95901338051E+02 -0.13794072929E+02  0.99502923321E+02  0.17770000000E+01 0. -1.
</event>
<event>
 7    1  0.3234965E-006  0.5125141E+03  0.7546771E-02  0.9372236E-01
        -11   -1    0    0    0    0  0.00000000000E+00  0.00000000000E+00  0.50000000000E+03  0.50000000000E+03  0.00000000000E+00 0. -1.
         11   -1    0    0    0    0 -0.00000000000E+00 -0.00000000000E+00 -0.50000000000E+03  0.50000000000E+03  0.00000000000E+00 0.  1.
         23    2    1    2    0    0  0.54731133135E+02  0.43038697986E+02 -0.24362527314E+03  0.26947358902E+03  0.91732845846E+02 0.  0.
        -11    1    1    2    0    0 -0.23440289725E+02 -0.12143716504E+03  0.47153588101E+03  0.48748591704E+03  0.00000000000E+00 0. -1.
         11    1    1    2    0    0 -0.31290843410E+02  0.78398467052E+02 -0.22791060786E+03  0.24304049394E+03  0.00000000000E+00 0.  1.
        -15    1    3    3    0    0 -0.20280963267E+02  0.30829177534E+02 -0.56619741400E+02  0.67607015196E+02  0.17770000000E+01 0.  1.
         15    1    3    3    0    0  0.75012096402E+02  0.12209520452E+02 -0.18700553174E+03  0.20186657383E+03  0.17770000000E+01 0. -1.
</event>
<event>
 6    1  0.3234965E-006  0.5250712E+03  0.7546771E-02  0.9345395E-01
        -11   -1    0    0    0    0  0.00000000000E+00  0.00000000000E+00  0.50000000000E+03  0.50000000000E+03  0.00000000000E+00 0. -1.
         11   -1    0    0    0    0 -0.00000000000E+00 -0.00000000000E+00 -0.50000000000E+03  0.50000000000E+03  0.00000000000E+00 0.  1.
        -11    1    1    2    0    0  0.10052338065E+03 -0.45152413211E+01  0.46414657955E+03  0.47492882074E+03  0.00000000000E+00 0. -1.
         11    1    1    2    0    0 -0.44667408762E+02  0.97261057125E+02 -0.32593662593E+03  0.34305914179E+03  0.00000000000E+00 0.  1.
        -15    1    1    2    0    0 -0.24390050137E+02 -0.28389712932E+02 -0.16870609548E+02  0.41092889185E+02  0.17770000000E+01 0. -1.
         15    1    1    2    0    0 -0.31465921754E+02 -0.64356102872E+02 -0.12133934406E+03  0.14091914829E+03  0.17770000000E+01 0.  1.
</event>
<event>
 7    1  0.3234965E-006  0.4067336E+03  0.7546771E-02  0.9636712E-01
        -11   -1    0    0    0    0  0.00000000000E+00  0.00000000000E+00  0.50000000000E+03  0.50000000000E+03  0.00000000000E+00 0. -1.
         11   -1    0    0    0    0 -0.00000000000E+00 -0.00000000000E+00 -0.50000000000E+03  0.50000000000E+03  0.00000000000E+00 0. -1.
         23    2    1    2    0    0 -0.38173889471E+02 -0.12947496157E+03 -0.57825771017E+02  0.17338423152E+03  0.92180585998E+02 0.  0.
        -11    1    1    2    0    0 -0.20350544719E+03  0.26739403633E+03  0.30546403170E+03  0.45411706901E+03  0.00000000000E+00 0. -1.
         11    1    1    2    0    0  0.24167933666E+03 -0.13791907476E+03 -0.24763826068E+03  0.37249869947E+03  0.00000000000E+00 0. -1.
        -15    1    3    3    0    0  0.25021760720E+01 -0.94013214370E+02  0.28196249362E+00  0.94063715604E+02  0.17770000000E+01 0.  1.
         15    1    3    3    0    0 -0.40676065543E+02 -0.35461747202E+02 -0.58107733511E+02  0.79320515918E+02  0.17770000000E+01 0. -1.
</event>
<event>
 7    1  0.3234965E-006  0.5072044E+03  0.7546771E-02  0.9383832E-01
        -11   -1    0    0    0    0  0.00000000000E+00  0.00000000000E+00  0.50000000000E+03  0.50000000000E+03  0.00000000000E+00 0.  1.
         11   -1    0    0    0    0 -0.00000000000E+00 -0.00000000000E+00 -0.50000000000E+03  0.50000000000E+03  0.00000000000E+00 0. -1.
         23    2    1    2    0    0  0.10169466651E+02  0.89756119394E+02 -0.31202848224E+03  0.33673878083E+03  0.88722340851E+02 0.  0.
        -11    1    1    2    0    0 -0.43542678783E+02 -0.11420608028E+03  0.47739763722E+03  0.49279559421E+03  0.00000000000E+00 0.  1.
         11    1    1    2    0    0  0.33373212132E+02  0.24449960891E+02 -0.16536915497E+03  0.17046562496E+03  0.00000000000E+00 0. -1.
        -15    1    3    3    0    0 -0.36147816184E+01  0.32624221496E+02 -0.19206152524E+02  0.38071518201E+02  0.17770000000E+01 0. -1.
         15    1    3    3    0    0  0.13784248270E+02  0.57131897898E+02 -0.29282232972E+03  0.29866726263E+03  0.17770000000E+01 0.  1.
</event>
<event>
 7    1  0.3234965E-006  0.4088425E+03  0.7546771E-02  0.9630629E-01
        -11   -1    0    0    0    0  0.00000000000E+00  0.00000000000E+00  0.50000000000E+03  0.50000000000E+03  0.00000000000E+00 0.  1.
         11   -1    0    0    0    0 -0.00000000000E+00 -0.00000000000E+00 -0.50000000000E+03  0.50000000000E+03  0.00000000000E+00 0.  1.
         23    2    1    2    0    0 -0.18494194479E+03 -0.16435844712E+03 -0.38494671494E+03  0.47093394732E+03  0.11125460583E+03 0.  0.
        -11    1    1    2    0    0  0.66784592228E+02  0.37954977449E+02  0.34236194079E+03  0.35087385280E+03  0.00000000000E+00 0.  1.
         11    1    1    2    0    0  0.11815735256E+03  0.12640346967E+03  0.42584774146E+02  0.17819219988E+03  0.00000000000E+00 0.  1.
        -15    1    3    3    0    0 -0.49776011809E+02  0.45787878787E+01 -0.41381409014E+02  0.64916834419E+02  0.17770000000E+01 0. -1.
         15    1    3    3    0    0 -0.13516593298E+03 -0.16893723499E+03 -0.34356530593E+03  0.40601711290E+03  0.17770000000E+01 0.  1.
</event>
<event>
 7    1  0.3234965E-006  0.5196160E+03  0.7546771E-02  0.9356956E-01
        -11   -1    0    0    0    0  0.00000000000E+00  0.00000000000E+00  0.50000000000E+03  0.50000000000E+03  0.00000000000E+00 0.  1.
         11   -1    0    0    0    0 -0.00000000000E+00 -0.00000000000E+00 -0.50000000000E+03  0.50000000000E+03  0.00000000000E+00 0.  1.
         23    2    1    2    0    0  0.10531294487E+03 -0.21777794010E+03  0.20124079575E+03  0.32770679539E+03  0.91519606211E+02 0.  0.
        -11    1    1    2    0    0  0.30588878018E+02 -0.30334179594E+02  0.18701150720E+03  0.19190921222E+03  0.00000000000E+00 0.  1.
         11    1    1    2    0    0 -0.13590182289E+03  0.24811211969E+03 -0.38825230295E+03  0.48038399239E+03  0.00000000000E+00 0.  1.
        -15    1    3    3    0    0  0.12111274464E+03 -0.18336833046E+03  0.16101745548E+03  0.27243718584E+03  0.17770000000E+01 0.  1.
         15    1    3    3    0    0 -0.15799799775E+02 -0.34409609634E+02  0.40223340264E+02  0.55269609544E+02  0.17770000000E+01 0. -1.
</event>
<event>
 7    1  0.3234965E-006  0.3445602E+03  0.7546771E-02  0.9836074E-01
        -11   -1    0    0    0    0  0.00000000000E+00  0.00000000000E+00  0.50000000000E+03  0.50000000000E+03  0.00000000000E+00 0. -1.
         11   -1    0    0    0    0 -0.00000000000E+00 -0.00000000000E+00 -0.50000000000E+03  0.50000000000E+03  0.00000000000E+00 0. -1.
         23    2    1    2    0    0 -0.23253182471E+02 -0.54825747333E+02 -0.25701888461E+03  0.27994203918E+03  0.93606971885E+02 0.  0.
        -11    1    1    2    0    0  0.18130476979E+03 -0.11914532883E+03  0.39271421400E+03  0.44865519368E+03  0.00000000000E+00 0. -1.
         11    1    1    2    0    0 -0.15805158732E+03  0.17397107616E+03 -0.13569532939E+03  0.27140276715E+03  0.00000000000E+00 0. -1.
        -15    1    3    3    0    0 -0.52047997778E+00  0.10385027889E+02  0.29479175334E+01  0.10952974502E+02  0.17770000000E+01 0.  1.
         15    1    3    3    0    0 -0.22732702493E+02 -0.65210775222E+02 -0.25996680214E+03  0.26898906467E+03  0.17770000000E+01 0. -1.
</event>
<event>
 7    1  0.3234965E-006  0.5303698E+03  0.7546771E-02  0.9334307E-01
        -11   -1    0    0    0    0  0.00000000000E+00  0.00000000000E+00  0.50000000000E+03  0.50000000000E+03  0.00000000000E+00 0. -1.
         11   -1    0    0    0    0 -0.00000000000E+00 -0.00000000000E+00 -0.50000000000E+03  0.50000000000E+03  0.00000000000E+00 0. -1.
         23    2    1    2    0    0 -0.35032617850E+01 -0.12867888145E+02 -0.45738768328E+02  0.10221238318E+03  0.90429425288E+02 0.  0.
        -11    1    1    2    0    0 -0.25022694373E+02 -0.92438020920E+02  0.45976255997E+03  0.46963021037E+03  0.00000000000E+00 0. -1.
         11    1    1    2    0    0  0.28525956158E+02  0.10530590907E+03 -0.41402379164E+03  0.42815740645E+03  0.00000000000E+00 0. -1.
        -15    1    3    3    0    0 -0.41962155524E+02 -0.23478251564E+02 -0.11175900617E+02  0.49397462246E+02  0.17770000000E+01 0.  1.
         15    1    3    3    0    0  0.38458893739E+02  0.10610363419E+02 -0.34562867711E+02  0.52814920931E+02  0.17770000000E+01 0. -1.
</event>
<event>
 7    1  0.3234965E-006  0.3222659E+03  0.7546771E-02  0.9918862E-01
        -11   -1    0    0    0    0  0.00000000000E+00  0.00000000000E+00  0.50000000000E+03  0.50000000000E+03  0.00000000000E+00 0. -1.
         11   -1    0    0    0    0 -0.00000000000E+00 -0.00000000000E+00 -0.50000000000E+03  0.50000000000E+03  0.00000000000E+00 0.  1.
         23    2    1    2    0    0  0.31803402769E+03  0.15939319509E+03  0.23675572006E+02  0.37194973681E+03  0.10599170059E+03 0.  0.
        -11    1    1    2    0    0 -0.17388864261E+03 -0.47343144787E+02  0.24442908912E+03  0.30368439703E+03  0.00000000000E+00 0. -1.
         11    1    1    2    0    0 -0.14414538508E+03 -0.11205005030E+03 -0.26810466113E+03  0.32436586616E+03  0.00000000000E+00 0.  1.
        -15    1    3    3    0    0  0.52855444674E+02  0.54134292643E+02  0.41077161298E+02  0.86108713734E+02  0.17770000000E+01 0. -1.
         15    1    3    3    0    0  0.26517858302E+03  0.10525890245E+03 -0.17401589292E+02  0.28584102308E+03  0.17770000000E+01 0.  1.
</event>
<event>
 7    1  0.3234965E-006  0.5243477E+03  0.7546771E-02  0.9346919E-01
        -11   -1    0    0    0    0  0.00000000000E+00  0.00000000000E+00  0.50000000000E+03  0.50000000000E+03  0.00000000000E+00 0.  1.
         11   -1    0    0    0    0 -0.00000000000E+00 -0.00000000000E+00 -0.50000000000E+03  0.50000000000E+03  0.00000000000E+00 0. -1.
         23    2    1    2    0    0 -0.48312731738E+02  0.25657613474E+02 -0.41258141027E+03  0.42602126278E+03  0.90984960625E+02 0.  0.
        -11    1    1    2    0    0  0.64807748058E+02 -0.11136100604E+03  0.45786870762E+03  0.47565225879E+03  0.00000000000E+00 0.  1.
         11    1    1    2    0    0 -0.16495016320E+02  0.85703392565E+02 -0.45287297342E+02  0.98326478433E+02  0.00000000000E+00 0. -1.
        -15    1    3    3    0    0  0.15936530009E+02 -0.83527162152E+01 -0.20848995028E+02  0.27596724073E+02  0.17770000000E+01 0. -1.
         15    1    3    3    0    0 -0.64249261747E+02  0.34010329689E+02 -0.39173241525E+03  0.39842453871E+03  0.17770000000E+01 0.  1.
</event>
<event>
 7    1  0.3234965E-006  0.5083288E+03  0.7546771E-02  0.9381364E-01
        -11   -1    0    0    0    0  0.00000000000E+00  0.00000000000E+00  0.50000000000E+03  0.50000000000E+03  0.00000000000E+00 0.  1.
         11   -1    0    0    0    0 -0.00000000000E+00 -0.00000000000E+00 -0.50000000000E+03  0.50000000000E+03  0.00000000000E+00 0. -1.
         23    2    1    2    0    0 -0.17306281490E+02 -0.11169832630E+03  0.36839768679E+03  0.39591093944E+03  0.90843782741E+02 0.  0.
        -11    1    1    2    0    0  0.35501743207E+02 -0.39331314381E+02  0.99148617091E+02  0.11241785593E+03  0.00000000000E+00 0.  1.
         11    1    1    2    0    0 -0.18195461717E+02  0.15102964068E+03 -0.46754630388E+03  0.49167120463E+03  0.00000000000E+00 0. -1.
        -15    1    3    3    0    0  0.12214653985E+02  0.12222475811E+02  0.37241289916E+02  0.41093285224E+02  0.17770000000E+01 0. -1.
         15    1    3    3    0    0 -0.29520935474E+02 -0.12392080211E+03  0.33115639687E+03  0.35481765422E+03  0.17770000000E+01 0.  1.
</event>
<event>
 7    1  0.3234965E-006  0.5333498E+03  0.7546771E-02  0.9328131E-01
        -11   -1    0    0    0    0  0.00000000000E+00  0.00000000000E+00  0.50000000000E+03  0.50000000000E+03  0.00000000000E+00 0.  1.
         11   -1    0    0    0    0 -0.00000000000E+00 -0.00000000000E+00 -0.50000000000E+03  0.50000000000E+03  0.00000000000E+00 0.  1.
         23    2    1    2    0    0 -0.93243234365E+02 -0.22441589471E+02 -0.34843950413E+03  0.37281930944E+03  0.91576327525E+02 0.  0.
        -11    1    1    2    0    0  0.58348766276E+02 -0.93939749832E+02  0.45335761048E+03  0.46665016673E+03  0.00000000000E+00 0.  1.
         11    1    1    2    0    0  0.34894468089E+02  0.11638133930E+03 -0.10491810635E+03  0.16053052383E+03  0.00000000000E+00 0.  1.
        -15    1    3    3    0    0 -0.15274869423E+02 -0.15750788103E+02 -0.78810856521E+01  0.23381150566E+02  0.17770000000E+01 0. -1.
         15    1    3    3    0    0 -0.77968364942E+02 -0.66908013682E+01 -0.34055841848E+03  0.34943815888E+03  0.17770000000E+01 0.  1.
</event>
<event>
 7    1  0.3234965E-006  0.5227864E+03  0.7546771E-02  0.9350219E-01
        -11   -1    0    0    0    0  0.00000000000E+00  0.00000000000E+00  0.50000000000E+03  0.50000000000E+03  0.00000000000E+00 0.  1.
         11   -1    0    0    0    0 -0.00000000000E+00 -0.00000000000E+00 -0.50000000000E+03  0.50000000000E+03  0.00000000000E+00 0. -1.
         23    2    1    2    0    0 -0.59828364394E+01 -0.53486141084E+02  0.67830268847E+02  0.12630927653E+03  0.91959373345E+02 0.  0.
        -11    1    1    2    0    0 -0.10401929270E+03 -0.11488560938E+03  0.36493209060E+03  0.39647717115E+03  0.00000000000E+00 0.  1.
         11    1    1    2    0    0  0.11000212914E+03  0.16837175046E+03 -0.43276235944E+03  0.47721355232E+03  0.00000000000E+00 0. -1.
        -15    1    3    3    0    0 -0.34680263790E+02  0.72058900382E+01  0.40418272271E+02  0.53772111826E+02  0.17770000000E+01 0. -1.
         15    1    3    3    0    0  0.28697427351E+02 -0.60692031122E+02  0.27411996576E+02  0.72537164706E+02  0.17770000000E+01 0.  1.
</event>
<event>
 7    1  0.3234965E-006  0.5038553E+03  0.7546771E-02  0.9391224E-01
        -11   -1    0    0    0    0  0.00000000000E+00  0.00000000000E+00  0.50000000000E+03  0.50000000000E+03  0.00000000000E+00 0.  1.
         11   -1    0    0    0    0 -0.00000000000E+00 -0.00000000000E+00 -0.50000000000E+03  0.50000000000E+03  0.00000000000E+00 0.  1.
         23    2    1    2    0    0 -0.10100323910E+03  0.87262587440E+02 -0.46928237233E+03  0.49614473430E+03  0.90095720826E+02 0.  0.
        -11    1    1    2    0    0 -0.10916448399E+02  0.22284655689E+02  0.42085015952E+02  0.48856148973E+02  0.00000000000E+00 0.  1.
         11    1    1    2    0    0  0.11191968750E+03 -0.10954724313E+03  0.42719735638E+03  0.45499911673E+03  0.00000000000E+00 0.  1.
        -15    1    3    3    0    0  0.13627565816E+02  0.29632206303E+02 -0.89848037433E+02  0.95601285347E+02  0.17770000000E+01 0.  1.
         15    1    3    3    0    0 -0.11463080491E+03  0.57630381137E+02 -0.37943433490E+03  0.40054344895E+03  0.17770000000E+01 0. -1.
</event>
<event>
 7    1  0.3234965E-006  0.4021575E+03  0.7546771E-02  0.9650048E-01
        -11   -1    0    0    0    0  0.00000000000E+00  0.00000000000E+00  0.50000000000E+03  0.50000000000E+03  0.00000000000E+00 0.  1.
         11   -1    0    0    0    0 -0.00000000000E+00 -0.00000000000E+00 -0.50000000000E+03  0.50000000000E+03  0.00000000000E+00 0. -1.
         23    2    1    2    0    0 -0.70932084496E+02 -0.95326116663E+02 -0.99971260730E+02  0.18083263020E+03  0.92670157244E+02 0.  0.
        -11    1    1    2    0    0 -0.13077735928E+03 -0.50326034091E+02  0.40324425666E+03  0.42689736230E+03  0.00000000000E+00 0.  1.
         11    1    1    2    0    0  0.20170944378E+03  0.14565215075E+03 -0.30327299593E+03  0.39227000750E+03  0.00000000000E+00 0. -1.
        -15    1    3    3    0    0 -0.28142601638E+02 -0.46968963059E+02 -0.10246351809E+03  0.11618958553E+03  0.17770000000E+01 0. -1.
         15    1    3    3    0    0 -0.42789482857E+02 -0.48357153604E+02  0.24922573608E+01  0.64643044666E+02  0.17770000000E+01 0.  1.
</event>
<event>
 7    1  0.3234965E-006  0.3656713E+03  0.7546771E-02  0.9763650E-01
        -11   -1    0    0    0    0  0.00000000000E+00  0.00000000000E+00  0.50000000000E+03  0.50000000000E+03  0.00000000000E+00 0. -1.
         11   -1    0    0    0    0 -0.00000000000E+00 -0.00000000000E+00 -0.50000000000E+03  0.50000000000E+03  0.00000000000E+00 0. -1.
         23    2    1    2    0    0 -0.21656834303E+03 -0.14356133867E+03 -0.33484743144E+03  0.43364192465E+03  0.91710475444E+02 0.  0.
        -11    1    1    2    0    0 -0.76399120807E+02  0.11811255321E+03  0.19574674540E+03  0.24104810561E+03  0.00000000000E+00 0. -1.
         11    1    1    2    0    0  0.29296746384E+03  0.25448785466E+02  0.13910068604E+03  0.32530996973E+03  0.00000000000E+00 0. -1.
        -15    1    3    3    0    0 -0.68432650339E+02 -0.49263302025E+01 -0.54840978898E+02  0.87852074860E+02  0.17770000000E+01 0. -1.
         15    1    3    3    0    0 -0.14813569270E+03 -0.13863500847E+03 -0.28000645254E+03  0.34578984979E+03  0.17770000000E+01 0.  1.
</event>
<event>
 7    1  0.3234965E-006  0.4284782E+03  0.7546771E-02  0.9575808E-01
        -11   -1    0    0    0    0  0.00000000000E+00  0.00000000000E+00  0.50000000000E+03  0.50000000000E+03  0.00000000000E+00 0.  1.
         11   -1    0    0    0    0 -0.00000000000E+00 -0.00000000000E+00 -0.50000000000E+03  0.50000000000E+03  0.00000000000E+00 0. -1.
         23    2    1    2    0    0  0.18648197298E+03  0.23774006027E+03 -0.23671746809E+03  0.39482124117E+03  0.92481296926E+02 0.  0.
        -11    1    1    2    0    0 -0.48656423375E+02  0.13264881706E+03 -0.59582996924E+01  0.14141660983E+03  0.00000000000E+00 0. -1.
         11    1    1    2    0    0 -0.13782554961E+03 -0.37038887732E+03  0.24267576778E+03  0.46376214899E+03  0.00000000000E+00 0.  1.
        -15    1    3    3    0    0  0.14676720999E+02  0.19505198343E+02 -0.62075074175E+02  0.66725793098E+02  0.17770000000E+01 0.  1.
         15    1    3    3    0    0  0.17180525198E+03  0.21823486192E+03 -0.17464239391E+03  0.32809544808E+03  0.17770000000E+01 0. -1.
</event>
<event>
 7    1  0.3234965E-006  0.3944757E+03  0.7546771E-02  0.9672866E-01
        -11   -1    0    0    0    0  0.00000000000E+00  0.00000000000E+00  0.50000000000E+03  0.50000000000E+03  0.00000000000E+00 0. -1.
         11   -1    0    0    0    0 -0.00000000000E+00 -0.00000000000E+00 -0.50000000000E+03  0.50000000000E+03  0.00000000000E+00 0. -1.
         23    2    1    2    0    0  0.14634264141E+02  0.12718608325E+03  0.11164273063E+03  0.19296919093E+03  0.91556255300E+02 0.  0.
        -11    1    1    2    0    0  0.30067612783E+03 -0.30756146691E+03 -0.11699852283E+02  0.43027558183E+03  0.00000000000E+00 0. -1.
         11    1    1    2    0    0 -0.31531039198E+03  0.18037538366E+03 -0.99942878349E+02  0.37675522724E+03  0.00000000000E+00 0. -1.
        -15    1    3    3    0    0 -0.13806412502E+01  0.12451740626E+03  0.58915699948E+02  0.13777049053E+03  0.17770000000E+01 0. -1.
         15    1    3    3    0    0  0.16014905392E+02  0.26686769898E+01  0.52727030684E+02  0.55198700395E+02  0.17770000000E+01 0.  1.
</event>
<event>
 7    1  0.3234965E-006  0.5221321E+03  0.7546771E-02  0.9351605E-01
        -11   -1    0    0    0    0  0.00000000000E+00  0.00000000000E+00  0.50000000000E+03  0.50000000000E+03  0.00000000000E+00 0. -1.
         11   -1    0    0    0    0 -0.00000000000E+00 -0.00000000000E+00 -0.50000000000E+03  0.50000000000E+03  0.00000000000E+00 0.  1.
         23    2    1    2    0    0 -0.15713060487E+02 -0.35126286182E+02 -0.25812898601E+03  0.27636856876E+03  0.90929951755E+02 0.  0.
        -11    1    1    2    0    0 -0.86368645473E+02  0.16503674389E+03  0.44006938620E+03  0.47786790479E+03  0.00000000000E+00 0. -1.
         11    1    1    2    0    0  0.10208170596E+03 -0.12991045770E+03 -0.18194040019E+03  0.24576352645E+03  0.00000000000E+00 0.  1.
        -15    1    3    3    0    0  0.34743925330E+02 -0.31203184188E+02 -0.10115520404E+03  0.11142850660E+03  0.17770000000E+01 0.  1.
         15    1    3    3    0    0 -0.50456985817E+02 -0.39231019940E+01 -0.15697378197E+03  0.16494006215E+03  0.17770000000E+01 0. -1.
</event>
<event>
 7    1  0.3234965E-006  0.5202570E+03  0.7546771E-02  0.9355590E-01
        -11   -1    0    0    0    0  0.00000000000E+00  0.00000000000E+00  0.50000000000E+03  0.50000000000E+03  0.00000000000E+00 0.  1.
         11   -1    0    0    0    0 -0.00000000000E+00 -0.00000000000E+00 -0.50000000000E+03  0.50000000000E+03  0.00000000000E+00 0. -1.
         23    2    1    2    0    0  0.21137822273E+02  0.43889378178E+02 -0.14659075449E+03  0.17902524449E+03  0.90488141859E+02 0.  0.
        -11    1    1    2    0    0  0.11497645435E+03 -0.11638494889E+03  0.45098591472E+03  0.47974299021E+03  0.00000000000E+00 0.  1.
         11    1    1    2    0    0 -0.13611427662E+03  0.72495570715E+02 -0.30439516023E+03  0.34123176530E+03  0.00000000000E+00 0. -1.
        -15    1    3    3    0    0  0.49814163535E+02  0.45642947708E+02 -0.12803287084E+03  0.14477673608E+03  0.17770000000E+01 0.  1.
         15    1    3    3    0    0 -0.28676341262E+02 -0.17535695302E+01 -0.18557883646E+02  0.34248508415E+02  0.17770000000E+01 0. -1.
</event>
<event>
 7    1  0.3234965E-006  0.4677746E+03  0.7546771E-02  0.9474952E-01
        -11   -1    0    0    0    0  0.00000000000E+00  0.00000000000E+00  0.50000000000E+03  0.50000000000E+03  0.00000000000E+00 0. -1.
         11   -1    0    0    0    0 -0.00000000000E+00 -0.00000000000E+00 -0.50000000000E+03  0.50000000000E+03  0.00000000000E+00 0. -1.
         23    2    1    2    0    0 -0.60466314246E+02 -0.96966041204E+01 -0.42643170155E+03  0.44036685701E+03  0.91262113556E+02 0.  0.
        -11    1    1    2    0    0  0.11045750227E+03  0.17050419321E+02  0.47594318140E+03  0.48889005771E+03  0.00000000000E+00 0. -1.
         11    1    1    2    0    0 -0.49991188021E+02 -0.73538152005E+01 -0.49511479852E+02  0.70743085280E+02  0.00000000000E+00 0. -1.
        -15    1    3    3    0    0  0.18348978907E+02  0.16279909583E+02 -0.64274628960E+02  0.68819373289E+02  0.17770000000E+01 0.  1.
         15    1    3    3    0    0 -0.78815293152E+02 -0.25976513704E+02 -0.36215707259E+03  0.37154748372E+03  0.17770000000E+01 0. -1.
</event>
<event>
 7    1  0.3234965E-006  0.5141480E+03  0.7546771E-02  0.9368697E-01
        -11   -1    0    0    0    0  0.00000000000E+00  0.00000000000E+00  0.50000000000E+03  0.50000000000E+03  0.00000000000E+00 0.  1.
         11   -1    0    0    0    0 -0.00000000000E+00 -0.00000000000E+00 -0.50000000000E+03  0.50000000000E+03  0.00000000000E+00 0. -1.
         23    2    1    2    0    0  0.85459509045E+02 -0.49090206202E+02 -0.29537348160E+03  0.32383301470E+03  0.88933411846E+02 0.  0.
        -11    1    1    2    0    0 -0.40535281043E+02  0.68472389465E+02  0.47929176573E+03  0.48585200815E+03  0.00000000000E+00 0.  1.
         11    1    1    2    0    0 -0.44924228001E+02 -0.19382183262E+02 -0.18391828413E+03  0.19031497715E+03  0.00000000000E+00 0. -1.
        -15    1    3    3    0    0  0.91447474575E+02 -0.63261965378E+02 -0.21584390866E+03  0.24280952927E+03  0.17770000000E+01 0.  1.
         15    1    3    3    0    0 -0.59879655301E+01  0.14171759176E+02 -0.79529572943E+02  0.81023485428E+02  0.17770000000E+01 0. -1.
</event>
<event>
 7    1  0.3234965E-006  0.5095492E+03  0.7546771E-02  0.9378693E-01
        -11   -1    0    0    0    0  0.00000000000E+00  0.00000000000E+00  0.50000000000E+03  0.50000000000E+03  0.00000000000E+00 0.  1.
         11   -1    0    0    0    0 -0.00000000000E+00 -0.00000000000E+00 -0.50000000000E+03  0.50000000000E+03  0.00000000000E+00 0. -1.
         23    2    1    2    0    0 -0.23019564072E+01 -0.39899993129E+02 -0.35775306226E+03  0.37108456627E+03  0.90106566447E+02 0.  0.
        -11    1    1    2    0    0  0.55475320564E+02  0.67257039616E+02  0.48263957718E+03  0.49045079471E+03  0.00000000000E+00 0.  1.
         11    1    1    2    0    0 -0.53173364157E+02 -0.27357046487E+02 -0.12488651493E+03  0.13846463902E+03  0.00000000000E+00 0. -1.
        -15    1    3    3    0    0  0.37778565192E+02 -0.39333976376E+02 -0.15305548138E+03  0.16249159915E+03  0.17770000000E+01 0. -1.
         15    1    3    3    0    0 -0.40080521599E+02 -0.56601675343E+00 -0.20469758088E+03  0.20859296712E+03  0.17770000000E+01 0.  1.
</event>
<event>
 7    1  0.3234965E-006  0.5308180E+03  0.7546771E-02  0.9333375E-01
        -11   -1    0    0    0    0  0.00000000000E+00  0.00000000000E+00  0.50000000000E+03  0.50000000000E+03  0.00000000000E+00 0.  1.
         11   -1    0    0    0    0 -0.00000000000E+00 -0.00000000000E+00 -0.50000000000E+03  0.50000000000E+03  0.00000000000E+00 0.  1.
         23    2    1    2    0    0  0.19194368945E+02  0.49903941944E+02  0.38795167009E+02  0.10914449045E+03  0.86882838303E+02 0.  0.
        -11    1    1    2    0    0 -0.83906474311E+02  0.10110720200E+03  0.40068144281E+03  0.42167354831E+03  0.00000000000E+00 0.  1.
         11    1    1    2    0    0  0.64712105366E+02 -0.15101114394E+03 -0.43947660982E+03  0.46918196124E+03  0.00000000000E+00 0.  1.
        -15    1    3    3    0    0 -0.32045756767E+02  0.11842845509E+02  0.28373520699E+02  0.44445448838E+02  0.17770000000E+01 0. -1.
         15    1    3    3    0    0  0.51240125712E+02  0.38061096435E+02  0.10421646309E+02  0.64699041613E+02  0.17770000000E+01 0.  1.
</event>
<event>
 7    1  0.3234965E-006  0.4643254E+03  0.7546771E-02  0.9483375E-01
        -11   -1    0    0    0    0  0.00000000000E+00  0.00000000000E+00  0.50000000000E+03  0.50000000000E+03  0.00000000000E+00 0. -1.
         11   -1    0    0    0    0 -0.00000000000E+00 -0.00000000000E+00 -0.50000000000E+03  0.50000000000E+03  0.00000000000E+00 0.  1.
         23    2    1    2    0    0 -0.59103351275E+02  0.48705069697E+02 -0.44711264598E+03  0.46544002676E+03  0.10420801486E+03 0.  0.
        -11    1    1    2    0    0  0.13513047599E+03 -0.64945367497E+02  0.42940548207E+03  0.45482657611E+03  0.00000000000E+00 0. -1.
         11    1    1    2    0    0 -0.76027124715E+02  0.16240297801E+02  0.17707163911E+02  0.79733397136E+02  0.00000000000E+00 0.  1.
        -15    1    3    3    0    0  0.16788858375E+02 -0.13368766141E+02 -0.29835369413E+02  0.36795334904E+02  0.17770000000E+01 0. -1.
         15    1    3    3    0    0 -0.75892209651E+02  0.62073835838E+02 -0.41727727657E+03  0.42864469185E+03  0.17770000000E+01 0.  1.
</event>
<event>
 7    1  0.3234965E-006  0.5088442E+03  0.7546771E-02  0.9380235E-01
        -11   -1    0    0    0    0  0.00000000000E+00  0.00000000000E+00  0.50000000000E+03  0.50000000000E+03  0.00000000000E+00 0.  1.
         11   -1    0    0    0    0 -0.00000000000E+00 -0.00000000000E+00 -0.50000000000E+03  0.50000000000E+03  0.00000000000E+00 0. -1.
         23    2    1    2    0    0  0.84634869667E+01  0.69674066110E+02  0.31588798479E+03  0.33691653613E+03  0.93815922339E+02 0.  0.
        -11    1    1    2    0    0 -0.42899906080E+02  0.39165143335E+02  0.16181717345E+03  0.17192762436E+03  0.00000000000E+00 0.  1.
         11    1    1    2    0    0  0.34436419113E+02 -0.10883920945E+03 -0.47770515824E+03  0.49115583951E+03  0.00000000000E+00 0. -1.
        -15    1    3    3    0    0 -0.19351047248E+01 -0.21725845848E+02  0.97735713110E+02  0.10015580040E+03  0.17770000000E+01 0. -1.
         15    1    3    3    0    0  0.10398591692E+02  0.91399911958E+02  0.21815227168E+03  0.23676073573E+03  0.17770000000E+01 0.  1.
</event>
<event>
 7    1  0.3234965E-006  0.5108429E+03  0.7546771E-02  0.9375869E-01
        -11   -1    0    0    0    0  0.00000000000E+00  0.00000000000E+00  0.50000000000E+03  0.50000000000E+03  0.00000000000E+00 0.  1.
         11   -1    0    0    0    0 -0.00000000000E+00 -0.00000000000E+00 -0.50000000000E+03  0.50000000000E+03  0.00000000000E+00 0.  1.
         23    2    1    2    0    0  0.36454236089E+02  0.46056442081E+01 -0.36888957525E+03  0.38130755162E+03  0.89251369243E+02 0.  0.
        -11    1    1    2    0    0 -0.69929476782E+02  0.49837068042E+02  0.48156080157E+03  0.48915710225E+03  0.00000000000E+00 0.  1.
         11    1    1    2    0    0  0.33475240693E+02 -0.54442712250E+02 -0.11267122632E+03  0.12953534613E+03  0.00000000000E+00 0.  1.
        -15    1    3    3    0    0  0.54457882603E+02  0.22068083879E+02 -0.32859057783E+03  0.33380770943E+03  0.17770000000E+01 0.  1.
         15    1    3    3    0    0 -0.18003646514E+02 -0.17462439671E+02 -0.40298997415E+02  0.47499842197E+02  0.17770000000E+01 0. -1.
</event>
<event>
 7    1  0.3234965E-006  0.3664313E+03  0.7546771E-02  0.9761141E-01
        -11   -1    0    0    0    0  0.00000000000E+00  0.00000000000E+00  0.50000000000E+03  0.50000000000E+03  0.00000000000E+00 0.  1.
         11   -1    0    0    0    0 -0.00000000000E+00 -0.00000000000E+00 -0.50000000000E+03  0.50000000000E+03  0.00000000000E+00 0. -1.
         23    2    1    2    0    0 -0.41190451525E+02 -0.88305792317E+02 -0.19139595246E+03  0.23631511863E+03  0.98579198733E+02 0.  0.
        -11    1    1    2    0    0 -0.24875615639E+03 -0.84304212881E+02  0.30972838401E+03  0.40610158521E+03  0.00000000000E+00 0.  1.
         11    1    1    2    0    0  0.28994660791E+03  0.17261000520E+03 -0.11833243155E+03  0.35758329616E+03  0.00000000000E+00 0. -1.
        -15    1    3    3    0    0 -0.11549823084E+01  0.21349288055E+02 -0.23534736780E+02  0.31845998947E+02  0.17770000000E+01 0.  1.
         15    1    3    3    0    0 -0.40035469216E+02 -0.10965508037E+03 -0.16786121568E+03  0.20446911969E+03  0.17770000000E+01 0. -1.
</event>
<event>
 7    1  0.3234965E-006  0.3722139E+03  0.7546771E-02  0.9742261E-01
        -11   -1    0    0    0    0  0.00000000000E+00  0.00000000000E+00  0.50000000000E+03  0.50000000000E+03  0.00000000000E+00 0. -1.
         11   -1    0    0    0    0 -0.00000000000E+00 -0.00000000000E+00 -0.50000000000E+03  0.50000000000E+03  0.00000000000E+00 0.  1.
         23    2    1    2    0    0  0.35978317104E+03 -0.15135512669E+02  0.88086929000E+02  0.38197531072E+03  0.92047906164E+02 0.  0.
        -11    1    1    2    0    0 -0.10068153078E+03 -0.14414010175E+03  0.15052390699E+03  0.23145320510E+03  0.00000000000E+00 0. -1.
         11    1    1    2    0    0 -0.25910164026E+03  0.15927561442E+03 -0.23861083599E+03  0.38657148419E+03  0.00000000000E+00 0.  1.
        -15    1    3    3    0    0  0.22495028609E+03 -0.24145891820E+02  0.97797556952E+02  0.24648159196E+03  0.17770000000E+01 0. -1.
         15    1    3    3    0    0  0.13483288495E+03  0.90103791511E+01 -0.97106279520E+01  0.13549371875E+03  0.17770000000E+01 0.  1.
</event>
<event>
 7    1  0.3234965E-006  0.3484323E+03  0.7546771E-02  0.9822380E-01
        -11   -1    0    0    0    0  0.00000000000E+00  0.00000000000E+00  0.50000000000E+03  0.50000000000E+03  0.00000000000E+00 0.  1.
         11   -1    0    0    0    0 -0.00000000000E+00 -0.00000000000E+00 -0.50000000000E+03  0.50000000000E+03  0.00000000000E+00 0. -1.
         23    2    1    2    0    0  0.13995621787E+03 -0.10838884580E+03 -0.16975622850E+03  0.26123524947E+03  0.89948838997E+02 0.  0.
        -11    1    1    2    0    0 -0.10702804601E+03  0.30884137592E+02  0.44094724689E+03  0.45480029368E+03  0.00000000000E+00 0.  1.
         11    1    1    2    0    0 -0.32928171860E+02  0.77504708207E+02 -0.27119101840E+03  0.28396445685E+03  0.00000000000E+00 0. -1.
        -15    1    3    3    0    0  0.10189704010E+03 -0.11591252607E+03 -0.15748293314E+03  0.22050567440E+03  0.17770000000E+01 0.  1.
         15    1    3    3    0    0  0.38059177769E+02  0.75236802755E+01 -0.12273295353E+02  0.40729575067E+02  0.17770000000E+01 0. -1.
</event>
<event>
 7    1  0.3234965E-006  0.5110315E+03  0.7546771E-02  0.9375459E-01
        -11   -1    0    0    0    0  0.00000000000E+00  0.00000000000E+00  0.50000000000E+03  0.50000000000E+03  0.00000000000E+00 0. -1.
         11   -1    0    0    0    0 -0.00000000000E+00 -0.00000000000E+00 -0.50000000000E+03  0.50000000000E+03  0.00000000000E+00 0.  1.
         23    2    1    2    0    0  0.18874988037E+02 -0.14574500222E+03  0.31279721042E+03  0.35744664339E+03  0.91258627969E+02 0.  0.
        -11    1    1    2    0    0  0.38613011277E+02 -0.57578550787E+01  0.14854020038E+03  0.15358485819E+03  0.00000000000E+00 0. -1.
         11    1    1    2    0    0 -0.57487999314E+02  0.15150285730E+03 -0.46133741081E+03  0.48896849842E+03  0.00000000000E+00 0.  1.
        -15    1    3    3    0    0  0.50621883317E+02 -0.50973587722E+02  0.11071514511E+03  0.13199198006E+03  0.17770000000E+01 0.  1.
         15    1    3    3    0    0 -0.31746895280E+02 -0.94771414498E+02  0.20208206532E+03  0.22545466333E+03  0.17770000000E+01 0. -1.
</event>
<event>
 7    1  0.3234965E-006  0.5424924E+03  0.7546771E-02  0.9309448E-01
        -11   -1    0    0    0    0  0.00000000000E+00  0.00000000000E+00  0.50000000000E+03  0.50000000000E+03  0.00000000000E+00 0. -1.
         11   -1    0    0    0    0 -0.00000000000E+00 -0.00000000000E+00 -0.50000000000E+03  0.50000000000E+03  0.00000000000E+00 0. -1.
         23    2    1    2    0    0 -0.10333907079E+03  0.11638028565E+03  0.12975835892E+03  0.22757638253E+03  0.10358785515E+03 0.  0.
        -11    1    1    2    0    0  0.74672328518E+02  0.22951592224E+02  0.30507271118E+03  0.31491600680E+03  0.00000000000E+00 0. -1.
         11    1    1    2    0    0  0.28666742274E+02 -0.13933187788E+03 -0.43483107009E+03  0.45750761067E+03  0.00000000000E+00 0. -1.
        -15    1    3    3    0    0 -0.85041089465E+01  0.51178071611E+02  0.93423801978E+02  0.10687693571E+03  0.17770000000E+01 0. -1.
         15    1    3    3    0    0 -0.94834961845E+02  0.65202214041E+02  0.36334556938E+02  0.12069944681E+03  0.17770000000E+01 0.  1.
</event>
<event>
 7    1  0.3234965E-006  0.5363106E+03  0.7546771E-02  0.9322037E-01
        -11   -1    0    0    0    0  0.00000000000E+00  0.00000000000E+00  0.50000000000E+03  0.50000000000E+03  0.00000000000E+00 0.  1.
         11   -1    0    0    0    0 -0.00000000000E+00 -0.00000000000E+00 -0.50000000000E+03  0.50000000000E+03  0.00000000000E+00 0. -1.
         23    2    1    2    0    0 -0.12668464628E+03  0.34844333957E+02 -0.15605370664E+03  0.22347604986E+03  0.91245045293E+02 0.  0.
        -11    1    1    2    0    0  0.45451117130E+02 -0.70315286588E+02  0.45606772587E+03  0.46368935092E+03  0.00000000000E+00 0.  1.
         11    1    1    2    0    0  0.81233529148E+02  0.35470952630E+02 -0.30001401923E+03  0.31283459922E+03  0.00000000000E+00 0. -1.
        -15    1    3    3    0    0 -0.14031887405E+02  0.27376708442E+02  0.51623849689E-01  0.30814581342E+02  0.17770000000E+01 0. -1.
         15    1    3    3    0    0 -0.11265275887E+03  0.74676255152E+01 -0.15610533049E+03  0.19266146851E+03  0.17770000000E+01 0.  1.
</event>
<event>
 7    1  0.3234965E-006  0.5346846E+03  0.7546771E-02  0.9325379E-01
        -11   -1    0    0    0    0  0.00000000000E+00  0.00000000000E+00  0.50000000000E+03  0.50000000000E+03  0.00000000000E+00 0.  1.
         11   -1    0    0    0    0 -0.00000000000E+00 -0.00000000000E+00 -0.50000000000E+03  0.50000000000E+03  0.00000000000E+00 0. -1.
         23    2    1    2    0    0  0.54380365997E+02  0.55549530333E+02 -0.11309854628E+03  0.16299733269E+03  0.87942451445E+02 0.  0.
        -11    1    1    2    0    0  0.95316842767E+02 -0.45582753142E+02  0.45316150858E+03  0.46531542071E+03  0.00000000000E+00 0.  1.
         11    1    1    2    0    0 -0.14969720876E+03 -0.99667771916E+01 -0.34006296229E+03  0.37168724660E+03  0.00000000000E+00 0. -1.
        -15    1    3    3    0    0  0.26134591395E+02  0.50411715983E+02 -0.12236733298E+02  0.58114140677E+02  0.17770000000E+01 0. -1.
         15    1    3    3    0    0  0.28245774602E+02  0.51378143499E+01 -0.10086181298E+03  0.10488319201E+03  0.17770000000E+01 0.  1.
</event>
<event>
 7    1  0.3234965E-006  0.4394003E+03  0.7546771E-02  0.9546653E-01
        -11   -1    0    0    0    0  0.00000000000E+00  0.00000000000E+00  0.50000000000E+03  0.50000000000E+03  0.00000000000E+00 0.  1.
         11   -1    0    0    0    0 -0.00000000000E+00 -0.00000000000E+00 -0.50000000000E+03  0.50000000000E+03  0.00000000000E+00 0.  1.
         23    2    1    2    0    0  0.36795963614E+02 -0.34519130471E+02 -0.39909157638E+03  0.41222787991E+03  0.90067892872E+02 0.  0.
        -11    1    1    2    0    0  0.68685453498E+02  0.52751990231E+02  0.45763896217E+03  0.46576161680E+03  0.00000000000E+00 0.  1.
         11    1    1    2    0    0 -0.10548141711E+03 -0.18232859760E+02 -0.58547385785E+02  0.12201050329E+03  0.00000000000E+00 0.  1.
        -15    1    3    3    0    0 -0.28139580387E+02 -0.13084335393E+02 -0.18133605821E+03  0.18398086736E+03  0.17770000000E+01 0. -1.
         15    1    3    3    0    0  0.64935544001E+02 -0.21434795078E+02 -0.21775551817E+03  0.22824701255E+03  0.17770000000E+01 0.  1.
</event>
<event>
 7    1  0.3234965E-006  0.5067946E+03  0.7546771E-02  0.9384733E-01
        -11   -1    0    0    0    0  0.00000000000E+00  0.00000000000E+00  0.50000000000E+03  0.50000000000E+03  0.00000000000E+00 0.  1.
         11   -1    0    0    0    0 -0.00000000000E+00 -0.00000000000E+00 -0.50000000000E+03  0.50000000000E+03  0.00000000000E+00 0. -1.
         23    2    1    2    0    0  0.14235548483E+03  0.50545441827E+02  0.31681539708E+03  0.36242876394E+03  0.90347591879E+02 0.  0.
        -11    1    1    2    0    0  0.62120091823E+02  0.48580557232E+02  0.12092355070E+03  0.14436579049E+03  0.00000000000E+00 0.  1.
         11    1    1    2    0    0 -0.20447557665E+03 -0.99125999059E+02 -0.43773894778E+03  0.49320544557E+03  0.00000000000E+00 0. -1.
        -15    1    3    3    0    0  0.66182552863E+02  0.27055610926E+02  0.59473865709E+02  0.93018464927E+02  0.17770000000E+01 0.  1.
         15    1    3    3    0    0  0.76172931964E+02  0.23489830901E+02  0.25734153137E+03  0.26941029902E+03  0.17770000000E+01 0. -1.
</event>
<event>
 7    1  0.3234965E-006  0.5137456E+03  0.7546771E-02  0.9369567E-01
        -11   -1    0    0    0    0  0.00000000000E+00  0.00000000000E+00  0.50000000000E+03  0.50000000000E+03  0.00000000000E+00 0.  1.
         11   -1    0    0    0    0 -0.00000000000E+00 -0.00000000000E+00 -0.50000000000E+03  0.50000000000E+03  0.00000000000E+00 0. -1.
         23    2    1    2    0    0  0.47004950056E+01 -0.82557512752E+02 -0.28803816234E+03  0.31332764403E+03  0.91489846361E+02 0.  0.
        -11    1    1    2    0    0 -0.53170270541E+02  0.20892946735E+03  0.43584943416E+03  0.48625438739E+03  0.00000000000E+00 0.  1.
         11    1    1    2    0    0  0.48469775536E+02 -0.12637195460E+03 -0.14781127183E+03  0.20041796858E+03  0.00000000000E+00 0. -1.
        -15    1    3    3    0    0  0.39558972978E+02 -0.22229181526E+02 -0.62432370850E+02  0.77201084923E+02  0.17770000000E+01 0.  1.
         15    1    3    3    0    0 -0.34858477973E+02 -0.60328331226E+02 -0.22560579149E+03  0.23612655911E+03  0.17770000000E+01 0. -1.
</event>
<event>
 7    1  0.3234965E-006  0.4556534E+03  0.7546771E-02  0.9504901E-01
        -11   -1    0    0    0    0  0.00000000000E+00  0.00000000000E+00  0.50000000000E+03  0.50000000000E+03  0.00000000000E+00 0.  1.
         11   -1    0    0    0    0 -0.00000000000E+00 -0.00000000000E+00 -0.50000000000E+03  0.50000000000E+03  0.00000000000E+00 0. -1.
         23    2    1    2    0    0  0.33669567327E+02 -0.75191408378E+02 -0.41742724579E+03  0.43535714086E+03  0.92211425044E+02 0.  0.
        -11    1    1    2    0    0  0.47669207570E+02  0.92685153374E+02  0.45966752654E+03  0.47133547072E+03  0.00000000000E+00 0.  1.
         11    1    1    2    0    0 -0.81338774897E+02 -0.17493744996E+02 -0.42240280749E+02  0.93307388418E+02  0.00000000000E+00 0. -1.
        -15    1    3    3    0    0 -0.25642175181E+02 -0.19309418711E+00 -0.12747593512E+03  0.13004164793E+03  0.17770000000E+01 0.  1.
         15    1    3    3    0    0  0.59311742508E+02 -0.74998314190E+02 -0.28995131067E+03  0.30531549293E+03  0.17770000000E+01 0. -1.
</event>
<event>
 7    1  0.3234965E-006  0.3219786E+03  0.7546771E-02  0.9919975E-01
        -11   -1    0    0    0    0  0.00000000000E+00  0.00000000000E+00  0.50000000000E+03  0.50000000000E+03  0.00000000000E+00 0.  1.
         11   -1    0    0    0    0 -0.00000000000E+00 -0.00000000000E+00 -0.50000000000E+03  0.50000000000E+03  0.00000000000E+00 0. -1.
         23    2    1    2    0    0  0.17081195254E+03 -0.10834294780E+03 -0.26456283399E+03  0.34505217010E+03  0.90291691189E+02 0.  0.
        -11    1    1    2    0    0  0.15077688304E+03  0.20873120065E+03  0.15567839353E+03  0.30089557125E+03  0.00000000000E+00 0.  1.
         11    1    1    2    0    0 -0.32158883558E+03 -0.10038825285E+03  0.10888444046E+03  0.35405225865E+03  0.00000000000E+00 0. -1.
        -15    1    3    3    0    0  0.22178172397E+02 -0.52332233946E+02 -0.10779069618E+03  0.12187093974E+03  0.17770000000E+01 0. -1.
         15    1    3    3    0    0  0.14863378014E+03 -0.56010713852E+02 -0.15677213781E+03  0.22318123037E+03  0.17770000000E+01 0.  1.
</event>
<event>
 7    1  0.3234965E-006  0.5412016E+03  0.7546771E-02  0.9312062E-01
        -11   -1    0    0    0    0  0.00000000000E+00  0.00000000000E+00  0.50000000000E+03  0.50000000000E+03  0.00000000000E+00 0.  1.
         11   -1    0    0    0    0 -0.00000000000E+00 -0.00000000000E+00 -0.50000000000E+03  0.50000000000E+03  0.00000000000E+00 0. -1.
         23    2    1    2    0    0  0.25131082953E+02 -0.15955037048E+03  0.14203729751E+03  0.23388875820E+03  0.91877447070E+02 0.  0.
        -11    1    1    2    0    0 -0.41275397919E+02  0.43149388390E+02  0.30145585549E+03  0.30731280644E+03  0.00000000000E+00 0.  1.
         11    1    1    2    0    0  0.16144314966E+02  0.11640098209E+03 -0.44349315300E+03  0.45879843536E+03  0.00000000000E+00 0. -1.
        -15    1    3    3    0    0  0.41064290157E+02 -0.55064725737E+02  0.97268037540E+02  0.11909084265E+03  0.17770000000E+01 0.  1.
         15    1    3    3    0    0 -0.15933207204E+02 -0.10448564474E+03  0.44769259968E+02  0.11479791555E+03  0.17770000000E+01 0. -1.
</event>
<event>
 7    1  0.3234965E-006  0.5096823E+03  0.7546771E-02  0.9378402E-01
        -11   -1    0    0    0    0  0.00000000000E+00  0.00000000000E+00  0.50000000000E+03  0.50000000000E+03  0.00000000000E+00 0. -1.
         11   -1    0    0    0    0 -0.00000000000E+00 -0.00000000000E+00 -0.50000000000E+03  0.50000000000E+03  0.00000000000E+00 0. -1.
         23    2    1    2    0    0  0.23645485315E+02 -0.31116006916E+02  0.24176911162E+03  0.25944204114E+03  0.85618657503E+02 0.  0.
        -11    1    1    2    0    0  0.79227601681E+02 -0.69572676786E+02  0.22694229722E+03  0.25024023755E+03  0.00000000000E+00 0. -1.
         11    1    1    2    0    0 -0.10287308700E+03  0.10068868370E+03 -0.46871140884E+03  0.49031772131E+03  0.00000000000E+00 0. -1.
        -15    1    3    3    0    0 -0.13539719534E+02  0.15806414293E+01  0.11728879857E+01  0.13796949939E+02  0.17770000000E+01 0.  1.
         15    1    3    3    0    0  0.37185204849E+02 -0.32696648345E+02  0.24059622364E+03  0.24564509120E+03  0.17770000000E+01 0. -1.
</event>
<event>
 7    1  0.3234965E-006  0.4011549E+03  0.7546771E-02  0.9652995E-01
        -11   -1    0    0    0    0  0.00000000000E+00  0.00000000000E+00  0.50000000000E+03  0.50000000000E+03  0.00000000000E+00 0.  1.
         11   -1    0    0    0    0 -0.00000000000E+00 -0.00000000000E+00 -0.50000000000E+03  0.50000000000E+03  0.00000000000E+00 0. -1.
         23    2    1    2    0    0 -0.27989617325E+03 -0.53838838160E+02 -0.25954443533E+03  0.39612160102E+03  0.91151086640E+02 0.  0.
        -11    1    1    2    0    0  0.14352133730E+03  0.67665274667E+02  0.38602704032E+03  0.41736535495E+03  0.00000000000E+00 0.  1.
         11    1    1    2    0    0  0.13637483595E+03 -0.13826436506E+02 -0.12648260499E+03  0.18651304403E+03  0.00000000000E+00 0. -1.
        -15    1    3    3    0    0 -0.13986342825E+02 -0.27752748951E+02 -0.18145937980E+02  0.36031453678E+02  0.17770000000E+01 0.  1.
         15    1    3    3    0    0 -0.26590983042E+03 -0.26086089209E+02 -0.24139849735E+03  0.36009014735E+03  0.17770000000E+01 0. -1.
</event>
<event>
 7    1  0.3234965E-006  0.5099678E+03  0.7546771E-02  0.9377778E-01
        -11   -1    0    0    0    0  0.00000000000E+00  0.00000000000E+00  0.50000000000E+03  0.50000000000E+03  0.00000000000E+00 0.  1.
         11   -1    0    0    0    0 -0.00000000000E+00 -0.00000000000E+00 -0.50000000000E+03  0.50000000000E+03  0.00000000000E+00 0.  1.
         23    2    1    2    0    0 -0.49931610146E+02 -0.54431864541E+01  0.24754584144E+03  0.26953925265E+03  0.94072690681E+02 0.  0.
        -11    1    1    2    0    0 -0.32955710134E+02  0.45598328452E+02  0.23375326839E+03  0.24042852758E+03  0.00000000000E+00 0.  1.
         11    1    1    2    0    0  0.82887320280E+02 -0.40155141997E+02 -0.48129910983E+03  0.49003221978E+03  0.00000000000E+00 0.  1.
        -15    1    3    3    0    0  0.27547624845E+02  0.57621734386E+01  0.71708052767E+02  0.77053726957E+02  0.17770000000E+01 0.  1.
         15    1    3    3    0    0 -0.77479234992E+02 -0.11205359893E+02  0.17583778867E+03  0.19248552569E+03  0.17770000000E+01 0. -1.
</event>
<event>
 7    1  0.3234965E-006  0.4674318E+03  0.7546771E-02  0.9475785E-01
        -11   -1    0    0    0    0  0.00000000000E+00  0.00000000000E+00  0.50000000000E+03  0.50000000000E+03  0.00000000000E+00 0.  1.
         11   -1    0    0    0    0 -0.00000000000E+00 -0.00000000000E+00 -0.50000000000E+03  0.50000000000E+03  0.00000000000E+00 0.  1.
         23    2    1    2    0    0 -0.20928184178E+03  0.11536262480E+03  0.35368977208E+03  0.43786328508E+03  0.97572419515E+02 0.  0.
        -11    1    1    2    0    0 -0.10251980509E+02 -0.10413525599E+02  0.71102187206E+02  0.72588329952E+02  0.00000000000E+00 0.  1.
         11    1    1    2    0    0  0.21953382229E+03 -0.10494909920E+03 -0.42479195928E+03  0.48954838497E+03  0.00000000000E+00 0.  1.
        -15    1    3    3    0    0 -0.47753016039E+02  0.55311636957E+02  0.17478096110E+03  0.18944991374E+03  0.17770000000E+01 0. -1.
         15    1    3    3    0    0 -0.16152882574E+03  0.60050987841E+02  0.17890881097E+03  0.24841337134E+03  0.17770000000E+01 0.  1.
</event>
<event>
 7    1  0.3234965E-006  0.5174239E+03  0.7546771E-02  0.9361645E-01
        -11   -1    0    0    0    0  0.00000000000E+00  0.00000000000E+00  0.50000000000E+03  0.50000000000E+03  0.00000000000E+00 0. -1.
         11   -1    0    0    0    0 -0.00000000000E+00 -0.00000000000E+00 -0.50000000000E+03  0.50000000000E+03  0.00000000000E+00 0.  1.
         23    2    1    2    0    0 -0.44732860528E+02 -0.21987836042E+02 -0.18286922015E+03  0.21029655740E+03  0.91098828915E+02 0.  0.
        -11    1    1    2    0    0  0.46053369731E+02 -0.73820295129E+02  0.47466758030E+03  0.48257606719E+03  0.00000000000E+00 0. -1.
         11    1    1    2    0    0 -0.13205092032E+01  0.95808131171E+02 -0.29179836015E+03  0.30712737541E+03  0.00000000000E+00 0.  1.
        -15    1    3    3    0    0  0.18117832913E+01 -0.34720732182E+02 -0.19419626721E+02  0.39863409700E+02  0.17770000000E+01 0. -1.
         15    1    3    3    0    0 -0.46544643819E+02  0.12732896140E+02 -0.16344959343E+03  0.17043314770E+03  0.17770000000E+01 0.  1.
</event>
<event>
 7    1  0.3234965E-006  0.3562711E+03  0.7546771E-02  0.9795234E-01
        -11   -1    0    0    0    0  0.00000000000E+00  0.00000000000E+00  0.50000000000E+03  0.50000000000E+03  0.00000000000E+00 0. -1.
         11   -1    0    0    0    0 -0.00000000000E+00 -0.00000000000E+00 -0.50000000000E+03  0.50000000000E+03  0.00000000000E+00 0.  1.
         23    2    1    2    0    0  0.13082482926E+03  0.96825412133E+02 -0.30291124882E+03  0.35584856068E+03  0.91556960916E+02 0.  0.
        -11    1    1    2    0    0  0.94739084171E+02 -0.21461662909E+03  0.31099445267E+03  0.38955531205E+03  0.00000000000E+00 0. -1.
         11    1    1    2    0    0 -0.22556391343E+03  0.11779121696E+03 -0.80832038569E+01  0.25459612727E+03  0.00000000000E+00 0.  1.
        -15    1    3    3    0    0  0.81608204696E+02  0.10310589391E+03 -0.25469176191E+03  0.28663875479E+03  0.17770000000E+01 0.  1.
         15    1    3    3    0    0  0.49216624568E+02 -0.62804817771E+01 -0.48219486911E+02  0.69209805896E+02  0.17770000000E+01 0. -1.
</event>
<event>
 7    1  0.3234965E-006  0.4285916E+03  0.7546771E-02  0.9575501E-01
        -11   -1    0    0    0    0  0.00000000000E+00  0.00000000000E+00  0.50000000000E+03  0.50000000000E+03  0.00000000000E+00 0.  1.
         11   -1    0    0    0    0 -0.00000000000E+00 -0.00000000000E+00 -0.50000000000E+03  0.50000000000E+03  0.00000000000E+00 0. -1.
         23    2    1    2    0    0 -0.13701944682E+03 -0.33016016813E+02 -0.36389215644E+03  0.40051135250E+03  0.90152403133E+02 0.  0.
        -11    1    1    2    0    0  0.84388617584E+02  0.14793583727E+03  0.42590645578E+03  0.45869680596E+03  0.00000000000E+00 0.  1.
         11    1    1    2    0    0  0.52630829235E+02 -0.11491982046E+03 -0.62014299336E+02  0.14079184153E+03  0.00000000000E+00 0. -1.
        -15    1    3    3    0    0 -0.74780748108E+02 -0.62448715633E+02 -0.19135396786E+03  0.21473588689E+03  0.17770000000E+01 0. -1.
         15    1    3    3    0    0 -0.62238698711E+02  0.29432698820E+02 -0.17253818858E+03  0.18577546562E+03  0.17770000000E+01 0.  1.
</event>
<event>
 7    1  0.3234965E-006  0.3665358E+03  0.7546771E-02  0.9760796E-01
        -11   -1    0    0    0    0  0.00000000000E+00  0.00000000000E+00  0.50000000000E+03  0.50000000000E+03  0.00000000000E+00 0. -1.
         11   -1    0    0    0    0 -0.00000000000E+00 -0.00000000000E+00 -0.50000000000E+03  0.50000000000E+03  0.00000000000E+00 0. -1.
         23    2    1    2    0    0 -0.26341115350E+03  0.23598532359E+03 -0.26263547277E+03  0.45018456353E+03  0.92812935240E+02 0.  0.
        -11    1    1    2    0    0  0.39188841783E+02 -0.23891384698E+02  0.23555890726E+03  0.23998867135E+03  0.00000000000E+00 0. -1.
         11    1    1    2    0    0  0.22422231172E+03 -0.21209393889E+03  0.27076565511E+02  0.30982676512E+03  0.00000000000E+00 0. -1.
        -15    1    3    3    0    0 -0.22181143924E+03  0.19117416009E+03 -0.25544944197E+03  0.38859419604E+03  0.17770000000E+01 0. -1.
         15    1    3    3    0    0 -0.41599714259E+02  0.44811163496E+02 -0.71860308057E+01  0.61590367494E+02  0.17770000000E+01 0.  1.
</event>
<event>
 7    1  0.3234965E-006  0.5212278E+03  0.7546771E-02  0.9353525E-01
        -11   -1    0    0    0    0  0.00000000000E+00  0.00000000000E+00  0.50000000000E+03  0.50000000000E+03  0.00000000000E+00 0.  1.
         11   -1    0    0    0    0 -0.00000000000E+00 -0.00000000000E+00 -0.50000000000E+03  0.50000000000E+03  0.00000000000E+00 0. -1.
         23    2    1    2    0    0  0.67102048264E+01  0.15574232474E+01 -0.23718548223E+03  0.25427094926E+03  0.91374560137E+02 0.  0.
        -11    1    1    2    0    0  0.10469918949E+03 -0.11057212694E+03  0.45391044343E+03  0.47877218611E+03  0.00000000000E+00 0.  1.
         11    1    1    2    0    0 -0.11140939431E+03  0.10901470370E+03 -0.21672496120E+03  0.26695686463E+03  0.00000000000E+00 0. -1.
        -15    1    3    3    0    0  0.26143489717E+02  0.26803959685E+02 -0.20693214167E+03  0.21029979385E+03  0.17770000000E+01 0. -1.
         15    1    3    3    0    0 -0.19433284891E+02 -0.25246536438E+02 -0.30253340563E+02  0.43971155409E+02  0.17770000000E+01 0.  1.
</event>
<event>
 7    1  0.3234965E-006  0.5338636E+03  0.7546771E-02  0.9327071E-01
        -11   -1    0    0    0    0  0.00000000000E+00  0.00000000000E+00  0.50000000000E+03  0.50000000000E+03  0.00000000000E+00 0. -1.
         11   -1    0    0    0    0 -0.00000000000E+00 -0.00000000000E+00 -0.50000000000E+03  0.50000000000E+03  0.00000000000E+00 0. -1.
         23    2    1    2    0    0 -0.15539337715E+03  0.92780505433E+02  0.12166182714E+03  0.23542041917E+03  0.88689625821E+02 0.  0.
        -11    1    1    2    0    0  0.24282407604E+02  0.11639492698E+03  0.27373509128E+03  0.29844315128E+03  0.00000000000E+00 0. -1.
         11    1    1    2    0    0  0.13111096955E+03 -0.20917543242E+03 -0.39539691842E+03  0.46613642955E+03  0.00000000000E+00 0. -1.
        -15    1    3    3    0    0 -0.12085008102E+03  0.28939671734E+02  0.10038653122E+03  0.15975875582E+03  0.17770000000E+01 0.  1.
         15    1    3    3    0    0 -0.34543296138E+02  0.63840833700E+02  0.21275295915E+02  0.75661663350E+02  0.17770000000E+01 0. -1.
</event>
<event>
 7    1  0.3234965E-006  0.3708645E+03  0.7546771E-02  0.9746634E-01
        -11   -1    0    0    0    0  0.00000000000E+00  0.00000000000E+00  0.50000000000E+03  0.50000000000E+03  0.00000000000E+00 0. -1.
         11   -1    0    0    0    0 -0.00000000000E+00 -0.00000000000E+00 -0.50000000000E+03  0.50000000000E+03  0.00000000000E+00 0.  1.
         23    2    1    2    0    0  0.40403019049E+02 -0.16158229945E+03 -0.13196834690E+03  0.22843101952E+03  0.83808368626E+02 0.  0.
        -11    1    1    2    0    0  0.14177539496E+02  0.81583687687E+02  0.44048951442E+03  0.44820521308E+03  0.00000000000E+00 0. -1.
         11    1    1    2    0    0 -0.54580558545E+02  0.79998611766E+02 -0.30852116752E+03  0.32336376739E+03  0.00000000000E+00 0.  1.
        -15    1    3    3    0    0 -0.25022011986E+02 -0.27804046945E+02 -0.23931711834E+02  0.44441542172E+02  0.17770000000E+01 0. -1.
         15    1    3    3    0    0  0.65425031035E+02 -0.13377825251E+03 -0.10803663507E+03  0.18398947735E+03  0.17770000000E+01 0.  1.
</event>
<event>
 7    1  0.3234965E-006  0.5289665E+03  0.7546771E-02  0.9337230E-01
        -11   -1    0    0    0    0  0.00000000000E+00  0.00000000000E+00  0.50000000000E+03  0.50000000000E+03  0.00000000000E+00 0.  1.
         11   -1    0    0    0    0 -0.00000000000E+00 -0.00000000000E+00 -0.50000000000E+03  0.50000000000E+03  0.00000000000E+00 0. -1.
         23    2    1    2    0    0 -0.62246834758E+02 -0.11280584822E+03 -0.17317159410E+03  0.23282216073E+03  0.87280752150E+02 0.  0.
        -11    1    1    2    0    0  0.67062083154E+02  0.53120701300E+02  0.46319912123E+03  0.47103349967E+03  0.00000000000E+00 0.  1.
         11    1    1    2    0    0 -0.48152483960E+01  0.59685146923E+02 -0.29002752713E+03  0.29614433960E+03  0.00000000000E+00 0. -1.
        -15    1    3    3    0    0 -0.52543106317E+02 -0.30636847859E+02 -0.30933868549E+02  0.68260211108E+02  0.17770000000E+01 0. -1.
         15    1    3    3    0    0 -0.97037284418E+01 -0.82169000364E+02 -0.14223772555E+03  0.16456194963E+03  0.17770000000E+01 0.  1.
</event>
<event>
 7    1  0.3234965E-006  0.4629089E+03  0.7546771E-02  0.9486857E-01
        -11   -1    0    0    0    0  0.00000000000E+00  0.00000000000E+00  0.50000000000E+03  0.50000000000E+03  0.00000000000E+00 0.  1.
         11   -1    0    0    0    0 -0.00000000000E+00 -0.00000000000E+00 -0.50000000000E+03  0.50000000000E+03  0.00000000000E+00 0. -1.
         23    2    1    2    0    0  0.52929534477E+02 -0.43586523074E+02 -0.47240097686E+03  0.48576833945E+03  0.90038192237E+02 0.  0.
        -11    1    1    2    0    0 -0.36020549890E+02  0.10193081857E+03  0.42099592824E+03  0.43465497050E+03  0.00000000000E+00 0.  1.
         11    1    1    2    0    0 -0.16908984586E+02 -0.58344295493E+02  0.51405048619E+02  0.79576690054E+02  0.00000000000E+00 0. -1.
        -15    1    3    3    0    0  0.77742844314E+02 -0.37672181572E+02 -0.39151906711E+03  0.40094074468E+03  0.17770000000E+01 0. -1.
         15    1    3    3    0    0 -0.24813309838E+02 -0.59143415024E+01 -0.80881909746E+02  0.84827594765E+02  0.17770000000E+01 0.  1.
</event>
<event>
 7    1  0.3234965E-006  0.5281749E+03  0.7546771E-02  0.9338883E-01
        -11   -1    0    0    0    0  0.00000000000E+00  0.00000000000E+00  0.50000000000E+03  0.50000000000E+03  0.00000000000E+00 0.  1.
         11   -1    0    0    0    0 -0.00000000000E+00 -0.00000000000E+00 -0.50000000000E+03  0.50000000000E+03  0.00000000000E+00 0. -1.
         23    2    1    2    0    0  0.11175912788E+03 -0.12493225827E+03  0.22731825322E+03  0.29683162034E+03  0.91308547032E+02 0.  0.
        -11    1    1    2    0    0 -0.62635225949E+02 -0.86231520914E+01  0.22253582843E+03  0.23134330597E+03  0.00000000000E+00 0.  1.
         11    1    1    2    0    0 -0.49123901932E+02  0.13355541037E+03 -0.44985408166E+03  0.47182507369E+03  0.00000000000E+00 0. -1.
        -15    1    3    3    0    0  0.91104731520E+02 -0.78216194476E+02  0.21170161982E+03  0.24338976713E+03  0.17770000000E+01 0.  1.
         15    1    3    3    0    0  0.20654396361E+02 -0.46716063798E+02  0.15616633408E+02  0.53441853204E+02  0.17770000000E+01 0. -1.
</event>
<event>
 7    1  0.3234965E-006  0.5204997E+03  0.7546771E-02  0.9355073E-01
        -11   -1    0    0    0    0  0.00000000000E+00  0.00000000000E+00  0.50000000000E+03  0.50000000000E+03  0.00000000000E+00 0. -1.
         11   -1    0    0    0    0 -0.00000000000E+00 -0.00000000000E+00 -0.50000000000E+03  0.50000000000E+03  0.00000000000E+00 0.  1.
         23    2    1    2    0    0  0.12152171220E+02  0.63065807816E+02 -0.33971681897E+03  0.35735368406E+03  0.90383444488E+02 0.  0.
        -11    1    1    2    0    0  0.85383017159E+02 -0.46928126602E+02  0.46949767730E+03  0.47950034169E+03  0.00000000000E+00 0. -1.
         11    1    1    2    0    0 -0.97535188379E+02 -0.16137681215E+02 -0.12978085833E+03  0.16314597426E+03  0.00000000000E+00 0.  1.
        -15    1    3    3    0    0 -0.27790527469E+02  0.37771771298E+02 -0.26350348297E+03  0.26764951595E+03  0.17770000000E+01 0.  1.
         15    1    3    3    0    0  0.39942698688E+02  0.25294036518E+02 -0.76213335997E+02  0.89704168101E+02  0.17770000000E+01 0. -1.
</event>
<event>
 7    1  0.3234965E-006  0.3924592E+03  0.7546771E-02  0.9678948E-01
        -11   -1    0    0    0    0  0.00000000000E+00  0.00000000000E+00  0.50000000000E+03  0.50000000000E+03  0.00000000000E+00 0.  1.
         11   -1    0    0    0    0 -0.00000000000E+00 -0.00000000000E+00 -0.50000000000E+03  0.50000000000E+03  0.00000000000E+00 0. -1.
         23    2    1    2    0    0  0.69938255786E+02 -0.34610861214E+03  0.34385190753E+02  0.37306469651E+03  0.11537935440E+03 0.  0.
        -11    1    1    2    0    0  0.70396365872E+02  0.19402111074E+02  0.19199725309E+03  0.20541430193E+03  0.00000000000E+00 0.  1.
         11    1    1    2    0    0 -0.14033462166E+03  0.32670650106E+03 -0.22638244385E+03  0.42152100156E+03  0.00000000000E+00 0. -1.
        -15    1    3    3    0    0  0.80936018243E+02 -0.33385498715E+03  0.53612614114E+02  0.34768845482E+03  0.17770000000E+01 0.  1.
         15    1    3    3    0    0 -0.10997762456E+02 -0.12253624992E+02 -0.19227423361E+02  0.25376241696E+02  0.17770000000E+01 0. -1.
</event>
<event>
 7    1  0.3234965E-006  0.5411545E+03  0.7546771E-02  0.9312157E-01
        -11   -1    0    0    0    0  0.00000000000E+00  0.00000000000E+00  0.50000000000E+03  0.50000000000E+03  0.00000000000E+00 0. -1.
         11   -1    0    0    0    0 -0.00000000000E+00 -0.00000000000E+00 -0.50000000000E+03  0.50000000000E+03  0.00000000000E+00 0. -1.
         23    2    1    2    0    0 -0.19778685449E+03 -0.19025616850E+03  0.83606097430E+02  0.29992022084E+03  0.87436319018E+02 0.  0.
        -11    1    1    2    0    0 -0.21011555228E+02 -0.59953955466E+02  0.23271870448E+03  0.24123423812E+03  0.00000000000E+00 0. -1.
         11    1    1    2    0    0  0.21879840972E+03  0.25021012396E+03 -0.31632480191E+03  0.45884554104E+03  0.00000000000E+00 0. -1.
        -15    1    3    3    0    0 -0.15616894208E+03 -0.17171476567E+03  0.98216894168E+02  0.25204050319E+03  0.17770000000E+01 0. -1.
         15    1    3    3    0    0 -0.41617912409E+02 -0.18541402821E+02 -0.14610796737E+02  0.47879717649E+02  0.17770000000E+01 0.  1.
</event>
<event>
 7    1  0.3234965E-006  0.3629436E+03  0.7546771E-02  0.9772709E-01
        -11   -1    0    0    0    0  0.00000000000E+00  0.00000000000E+00  0.50000000000E+03  0.50000000000E+03  0.00000000000E+00 0.  1.
         11   -1    0    0    0    0 -0.00000000000E+00 -0.00000000000E+00 -0.50000000000E+03  0.50000000000E+03  0.00000000000E+00 0. -1.
         23    2    1    2    0    0  0.14711294370E+03 -0.10874058636E+03 -0.35580625500E+03  0.40998196801E+03  0.89556628313E+02 0.  0.
        -11    1    1    2    0    0  0.71912885558E+02  0.12853218235E+01  0.33781900587E+03  0.34539078721E+03  0.00000000000E+00 0.  1.
         11    1    1    2    0    0 -0.21902582926E+03  0.10745526454E+03  0.17987249127E+02  0.24462724478E+03  0.00000000000E+00 0. -1.
        -15    1    3    3    0    0  0.33206258685E+02 -0.44963537855E+02 -0.19493593329E+03  0.20279928790E+03  0.17770000000E+01 0. -1.
         15    1    3    3    0    0  0.11390668501E+03 -0.63777048506E+02 -0.16087032170E+03  0.20718268012E+03  0.17770000000E+01 0.  1.
</event>
<event>
 7    1  0.3234965E-006  0.5331270E+03  0.7546771E-02  0.9328591E-01
        -11   -1    0    0    0    0  0.00000000000E+00  0.00000000000E+00  0.50000000000E+03  0.50000000000E+03  0.00000000000E+00 0. -1.
         11   -1    0    0    0    0 -0.00000000000E+00 -0.00000000000E+00 -0.50000000000E+03  0.50000000000E+03  0.00000000000E+00 0. -1.
         23    2    1    2    0    0 -0.12755772155E+02  0.47357200675E+02 -0.15313935004E+03  0.18409591318E+03  0.89633869383E+02 0.  0.
        -11    1    1    2    0    0 -0.10911679531E+03  0.10813559982E+03  0.44087487779E+03  0.46687304574E+03  0.00000000000E+00 0. -1.
         11    1    1    2    0    0  0.12187256746E+03 -0.15549280050E+03 -0.28773552776E+03  0.34903104108E+03  0.00000000000E+00 0. -1.
        -15    1    3    3    0    0  0.12500910115E+02  0.60507405779E+02 -0.13927561121E+03  0.15237543278E+03  0.17770000000E+01 0. -1.
         15    1    3    3    0    0 -0.25256682270E+02 -0.13150205104E+02 -0.13863738829E+02  0.31720480401E+02  0.17770000000E+01 0.  1.
</event>
<event>
 7    1  0.3234965E-006  0.5264537E+03  0.7546771E-02  0.9342488E-01
        -11   -1    0    0    0    0  0.00000000000E+00  0.00000000000E+00  0.50000000000E+03  0.50000000000E+03  0.00000000000E+00 0.  1.
         11   -1    0    0    0    0 -0.00000000000E+00 -0.00000000000E+00 -0.50000000000E+03  0.50000000000E+03  0.00000000000E+00 0.  1.
         23    2    1    2    0    0  0.28586347856E+02 -0.17687239873E+03  0.31562300697E+03  0.37452010527E+03  0.92446752262E+02 0.  0.
        -11    1    1    2    0    0  0.12454578822E+03 -0.52936254774E+02  0.69064656761E+02  0.15193362777E+03  0.00000000000E+00 0.  1.
         11    1    1    2    0    0 -0.15313213608E+03  0.22980865351E+03 -0.38468766373E+03  0.47354626696E+03  0.00000000000E+00 0.  1.
        -15    1    3    3    0    0  0.95258009254E+01 -0.18092742111E+03  0.27346713400E+03  0.32804405756E+03  0.17770000000E+01 0.  1.
         15    1    3    3    0    0  0.19060546931E+02  0.40550223763E+01  0.42155872973E+02  0.46476047712E+02  0.17770000000E+01 0. -1.
</event>
<event>
 7    1  0.3234965E-006  0.5258327E+03  0.7546771E-02  0.9343793E-01
        -11   -1    0    0    0    0  0.00000000000E+00  0.00000000000E+00  0.50000000000E+03  0.50000000000E+03  0.00000000000E+00 0. -1.
         11   -1    0    0    0    0 -0.00000000000E+00 -0.00000000000E+00 -0.50000000000E+03  0.50000000000E+03  0.00000000000E+00 0.  1.
         23    2    1    2    0    0  0.31903020096E+02  0.25672078654E+01 -0.93928762873E+02  0.13722894113E+03  0.94788061182E+02 0.  0.
        -11    1    1    2    0    0  0.10888166691E+02 -0.16449540242E+03  0.44458674948E+03  0.47416734114E+03  0.00000000000E+00 0. -1.
         11    1    1    2    0    0 -0.42791186786E+02  0.16192819455E+03 -0.35065798661E+03  0.38860371772E+03  0.00000000000E+00 0.  1.
        -15    1    3    3    0    0 -0.21730965426E+02 -0.41812023136E+01  0.65252597338E+01  0.23139880179E+02  0.17770000000E+01 0.  1.
         15    1    3    3    0    0  0.53633985521E+02  0.67484101790E+01 -0.10045402261E+03  0.11408906096E+03  0.17770000000E+01 0. -1.
</event>
<event>
 7    1  0.3234965E-006  0.3325238E+03  0.7546771E-02  0.9879905E-01
        -11   -1    0    0    0    0  0.00000000000E+00  0.00000000000E+00  0.50000000000E+03  0.50000000000E+03  0.00000000000E+00 0.  1.
         11   -1    0    0    0    0 -0.00000000000E+00 -0.00000000000E+00 -0.50000000000E+03  0.50000000000E+03  0.00000000000E+00 0. -1.
         23    2    1    2    0    0 -0.65746975319E+02  0.11573573589E+03 -0.23290484375E+03  0.28288741890E+03  0.89795323972E+02 0.  0.
        -11    1    1    2    0    0  0.25883784367E+02  0.13952896438E+03  0.38981211473E+03  0.41483947134E+03  0.00000000000E+00 0.  1.
         11    1    1    2    0    0  0.39863190951E+02 -0.25526470027E+03 -0.15690727098E+03  0.30227310975E+03  0.00000000000E+00 0. -1.
        -15    1    3    3    0    0 -0.13093977206E+02  0.10179064580E+03 -0.12292143325E+03  0.16014251245E+03  0.17770000000E+01 0. -1.
         15    1    3    3    0    0 -0.52652998112E+02  0.13945090091E+02 -0.10998341050E+03  0.12274490646E+03  0.17770000000E+01 0.  1.
</event>
<event>
 7    1  0.3234965E-006  0.3572909E+03  0.7546771E-02  0.9791757E-01
        -11   -1    0    0    0    0  0.00000000000E+00  0.00000000000E+00  0.50000000000E+03  0.50000000000E+03  0.00000000000E+00 0. -1.
         11   -1    0    0    0    0 -0.00000000000E+00 -0.00000000000E+00 -0.50000000000E+03  0.50000000000E+03  0.00000000000E+00 0. -1.
         23    2    1    2    0    0  0.87875259271E+02  0.92472502882E+00 -0.21413739876E+03  0.24886417928E+03  0.91409178281E+02 0.  0.
        -11    1    1    2    0    0  0.96241569562E+02  0.37161088904E+01  0.44528720118E+03  0.45558417522E+03  0.00000000000E+00 0. -1.
         11    1    1    2    0    0 -0.18411682883E+03 -0.46408339192E+01 -0.23114980242E+03  0.29555164550E+03  0.00000000000E+00 0. -1.
        -15    1    3    3    0    0  0.53477552987E+02 -0.18143627982E+02 -0.19869930447E+03  0.20657592124E+03  0.17770000000E+01 0. -1.
         15    1    3    3    0    0  0.34397706284E+02  0.19068353011E+02 -0.15438094291E+02  0.42288258045E+02  0.17770000000E+01 0.  1.
</event>
<event>
 7    1  0.3234965E-006  0.3783058E+03  0.7546771E-02  0.9722765E-01
        -11   -1    0    0    0    0  0.00000000000E+00  0.00000000000E+00  0.50000000000E+03  0.50000000000E+03  0.00000000000E+00 0.  1.
         11   -1    0    0    0    0 -0.00000000000E+00 -0.00000000000E+00 -0.50000000000E+03  0.50000000000E+03  0.00000000000E+00 0. -1.
         23    2    1    2    0    0  0.16452828025E+03  0.12197440014E+02 -0.26780552174E+03  0.32554856687E+03  0.83926988330E+02 0.  0.
        -11    1    1    2    0    0 -0.65267891094E+02 -0.12134247857E+03  0.43216134406E+03  0.45359378525E+03  0.00000000000E+00 0.  1.
         11    1    1    2    0    0 -0.99260389152E+02  0.10914503856E+03 -0.16435582232E+03  0.22085764788E+03  0.00000000000E+00 0. -1.
        -15    1    3    3    0    0  0.48981695860E+02  0.29947910792E+01 -0.15954903887E+03  0.16693480415E+03  0.17770000000E+01 0. -1.
         15    1    3    3    0    0  0.11554658439E+03  0.92026489349E+01 -0.10825648287E+03  0.15861376272E+03  0.17770000000E+01 0.  1.
</event>
<event>
 7    1  0.3234965E-006  0.5384737E+03  0.7546771E-02  0.9317612E-01
        -11   -1    0    0    0    0  0.00000000000E+00  0.00000000000E+00  0.50000000000E+03  0.50000000000E+03  0.00000000000E+00 0.  1.
         11   -1    0    0    0    0 -0.00000000000E+00 -0.00000000000E+00 -0.50000000000E+03  0.50000000000E+03  0.00000000000E+00 0. -1.
         23    2    1    2    0    0  0.15533565961E+02 -0.96841429155E+01  0.23569685701E+02  0.97327245681E+02  0.92639021867E+02 0.  0.
        -11    1    1    2    0    0 -0.12286697785E+03 -0.22076291408E+03  0.36163187470E+03  0.44114642839E+03  0.00000000000E+00 0.  1.
         11    1    1    2    0    0  0.10733341189E+03  0.23044705700E+03 -0.38520156040E+03  0.46152632593E+03  0.00000000000E+00 0. -1.
        -15    1    3    3    0    0  0.51047974033E+02 -0.19914295615E+02  0.25095954175E+02  0.60294605627E+02  0.17770000000E+01 0. -1.
         15    1    3    3    0    0 -0.35514408072E+02  0.10230152700E+02 -0.15262684740E+01  0.37032640055E+02  0.17770000000E+01 0.  1.
</event>
<event>
 7    1  0.3234965E-006  0.3795666E+03  0.7546771E-02  0.9718780E-01
        -11   -1    0    0    0    0  0.00000000000E+00  0.00000000000E+00  0.50000000000E+03  0.50000000000E+03  0.00000000000E+00 0.  1.
         11   -1    0    0    0    0 -0.00000000000E+00 -0.00000000000E+00 -0.50000000000E+03  0.50000000000E+03  0.00000000000E+00 0.  1.
         23    2    1    2    0    0 -0.50794008060E+02 -0.30867005973E+02 -0.32654355970E+03  0.34417783684E+03  0.91076251978E+02 0.  0.
        -11    1    1    2    0    0  0.10230383682E+03 -0.17493351939E+03  0.38559816995E+03  0.43560734602E+03  0.00000000000E+00 0.  1.
         11    1    1    2    0    0 -0.51509828756E+02  0.20580052537E+03 -0.59054610249E+02  0.22021481715E+03  0.00000000000E+00 0.  1.
        -15    1    3    3    0    0 -0.50690704493E+02  0.43459172507E+01 -0.28579286538E+03  0.29029149858E+03  0.17770000000E+01 0.  1.
         15    1    3    3    0    0 -0.10330356733E+00 -0.35212923224E+02 -0.40750694320E+02  0.53886338252E+02  0.17770000000E+01 0. -1.
</event>
<event>
 7    1  0.3234965E-006  0.3637798E+03  0.7546771E-02  0.9769923E-01
        -11   -1    0    0    0    0  0.00000000000E+00  0.00000000000E+00  0.50000000000E+03  0.50000000000E+03  0.00000000000E+00 0.  1.
         11   -1    0    0    0    0 -0.00000000000E+00 -0.00000000000E+00 -0.50000000000E+03  0.50000000000E+03  0.00000000000E+00 0.  1.
         23    2    1    2    0    0  0.31460611133E+02  0.38738290665E+02  0.21797858606E+03  0.23885090807E+03  0.83932515104E+02 0.  0.
        -11    1    1    2    0    0 -0.32084476829E+03  0.10082877547E+03 -0.27550969552E+03  0.43475671315E+03  0.00000000000E+00 0.  1.
         11    1    1    2    0    0  0.28938415716E+03 -0.13956706613E+03  0.57531109468E+02  0.32639237877E+03  0.00000000000E+00 0.  1.
        -15    1    3    3    0    0  0.25389776328E+01 -0.25604886702E+02  0.76863315485E+02  0.81075172691E+02  0.17770000000E+01 0. -1.
         15    1    3    3    0    0  0.28921633500E+02  0.64343177367E+02  0.14111527057E+03  0.15777573538E+03  0.17770000000E+01 0.  1.
</event>
<event>
 7    1  0.3234965E-006  0.5255242E+03  0.7546771E-02  0.9344441E-01
        -11   -1    0    0    0    0  0.00000000000E+00  0.00000000000E+00  0.50000000000E+03  0.50000000000E+03  0.00000000000E+00 0. -1.
         11   -1    0    0    0    0 -0.00000000000E+00 -0.00000000000E+00 -0.50000000000E+03  0.50000000000E+03  0.00000000000E+00 0.  1.
         23    2    1    2    0    0  0.39108731120E+02  0.15242929349E+03  0.24746404063E+03  0.30800993688E+03  0.94167337458E+02 0.  0.
        -11    1    1    2    0    0  0.44813825468E+02  0.20660781929E+03  0.51160498029E+02  0.21751429034E+03  0.00000000000E+00 0. -1.
         11    1    1    2    0    0 -0.83922556587E+02 -0.35903711279E+03 -0.29862453866E+03  0.47447577278E+03  0.00000000000E+00 0.  1.
        -15    1    3    3    0    0  0.46360546293E+02  0.16240494717E+03  0.24003161168E+03  0.29350127675E+03  0.17770000000E+01 0. -1.
         15    1    3    3    0    0 -0.72518151737E+01 -0.99756536785E+01  0.74324289598E+01  0.14508660133E+02  0.17770000000E+01 0.  1.
</event>
<event>
 7    1  0.3234965E-006  0.4331181E+03  0.7546771E-02  0.9563311E-01
        -11   -1    0    0    0    0  0.00000000000E+00  0.00000000000E+00  0.50000000000E+03  0.50000000000E+03  0.00000000000E+00 0.  1.
         11   -1    0    0    0    0 -0.00000000000E+00 -0.00000000000E+00 -0.50000000000E+03  0.50000000000E+03  0.00000000000E+00 0. -1.
         23    2    1    2    0    0  0.22903353686E+02 -0.94974505456E+01 -0.40706726175E+03  0.41744969086E+03  0.89138788636E+02 0.  0.
        -11    1    1    2    0    0 -0.10056100967E+03 -0.96250732669E+02  0.42766009063E+03  0.44974423101E+03  0.00000000000E+00 0.  1.
         11    1    1    2    0    0  0.77657655986E+02  0.10574818322E+03 -0.20592828886E+02  0.13280607813E+03  0.00000000000E+00 0. -1.
        -15    1    3    3    0    0 -0.32698348765E+02  0.20882242658E+01 -0.10240878499E+03  0.10753724780E+03  0.17770000000E+01 0.  1.
         15    1    3    3    0    0  0.55601702451E+02 -0.11585674811E+02 -0.30465847676E+03  0.30991244306E+03  0.17770000000E+01 0. -1.
</event>
<event>
 7    1  0.3234965E-006  0.4753452E+03  0.7546771E-02  0.9456732E-01
        -11   -1    0    0    0    0  0.00000000000E+00  0.00000000000E+00  0.50000000000E+03  0.50000000000E+03  0.00000000000E+00 0.  1.
         11   -1    0    0    0    0 -0.00000000000E+00 -0.00000000000E+00 -0.50000000000E+03  0.50000000000E+03  0.00000000000E+00 0.  1.
         23    2    1    2    0    0 -0.44349771853E+03  0.27351432823E+02 -0.14548578598E+03  0.47632833446E+03  0.91017806357E+02 0.  0.
        -11    1    1    2    0    0 -0.14214822798E+02 -0.41995963677E+01  0.54434984470E+02  0.56416888704E+02  0.00000000000E+00 0.  1.
         11    1    1    2    0    0  0.45771254133E+03 -0.23151836455E+02  0.91050801507E+02  0.46725477683E+03  0.00000000000E+00 0.  1.
        -15    1    3    3    0    0 -0.41084860040E+03  0.23709912535E+01 -0.14326386737E+03  0.43512054361E+03  0.17770000000E+01 0.  1.
         15    1    3    3    0    0 -0.32649118128E+02  0.24980441570E+02 -0.22219186065E+01  0.41207790851E+02  0.17770000000E+01 0. -1.
</event>
<event>
 7    1  0.3234965E-006  0.4714437E+03  0.7546771E-02  0.9466076E-01
        -11   -1    0    0    0    0  0.00000000000E+00  0.00000000000E+00  0.50000000000E+03  0.50000000000E+03  0.00000000000E+00 0.  1.
         11   -1    0    0    0    0 -0.00000000000E+00 -0.00000000000E+00 -0.50000000000E+03  0.50000000000E+03  0.00000000000E+00 0. -1.
         23    2    1    2    0    0  0.49521130692E+02  0.16723533450E+03 -0.43710001638E+03  0.47958089413E+03  0.92311484699E+02 0.  0.
        -11    1    1    2    0    0 -0.73700984230E+02 -0.10793073531E+03  0.43726044718E+03  0.45637438290E+03  0.00000000000E+00 0.  1.
         11    1    1    2    0    0  0.24179853538E+02 -0.59304599186E+02 -0.16043079961E+00  0.64044722966E+02  0.00000000000E+00 0. -1.
        -15    1    3    3    0    0  0.43540492257E+02  0.46078985814E+02 -0.77928858434E+02  0.10047443508E+03  0.17770000000E+01 0.  1.
         15    1    3    3    0    0  0.59806384346E+01  0.12115634869E+03 -0.35917115795E+03  0.37910645905E+03  0.17770000000E+01 0. -1.
</event>
<event>
 7    1  0.3234965E-006  0.4040474E+03  0.7546771E-02  0.9644517E-01
        -11   -1    0    0    0    0  0.00000000000E+00  0.00000000000E+00  0.50000000000E+03  0.50000000000E+03  0.00000000000E+00 0.  1.
         11   -1    0    0    0    0 -0.00000000000E+00 -0.00000000000E+00 -0.50000000000E+03  0.50000000000E+03  0.00000000000E+00 0. -1.
         23    2    1    2    0    0  0.46706823631E+02  0.22197025381E+03 -0.30168135617E+03  0.38827183984E+03  0.91055257973E+02 0.  0.
        -11    1    1    2    0    0 -0.10224511895E+02 -0.89172096495E+02  0.42041721413E+03  0.42989165772E+03  0.00000000000E+00 0.  1.
         11    1    1    2    0    0 -0.36482311736E+02 -0.13279815731E+03 -0.11873585796E+03  0.18183650244E+03  0.00000000000E+00 0. -1.
        -15    1    3    3    0    0  0.39671619810E+02  0.15280481850E+03 -0.26788907878E+03  0.31095154966E+03  0.17770000000E+01 0. -1.
         15    1    3    3    0    0  0.70352038209E+01  0.69165435303E+02 -0.33792277384E+02  0.77320290178E+02  0.17770000000E+01 0.  1.
</event>
<event>
 7    1  0.3234965E-006  0.5184478E+03  0.7546771E-02  0.9359452E-01
        -11   -1    0    0    0    0  0.00000000000E+00  0.00000000000E+00  0.50000000000E+03  0.50000000000E+03  0.00000000000E+00 0. -1.
         11   -1    0    0    0    0 -0.00000000000E+00 -0.00000000000E+00 -0.50000000000E+03  0.50000000000E+03  0.00000000000E+00 0. -1.
         23    2    1    2    0    0  0.18822822515E+02 -0.61363377604E+02 -0.25839307430E+03  0.28159179762E+03  0.91690767712E+02 0.  0.
        -11    1    1    2    0    0 -0.79318794673E+02 -0.13586866543E+02  0.47478039858E+03  0.48155217891E+03  0.00000000000E+00 0. -1.
         11    1    1    2    0    0  0.60495972158E+02  0.74950244148E+02 -0.21638732428E+03  0.23685602347E+03  0.00000000000E+00 0. -1.
        -15    1    3    3    0    0 -0.26679398965E+02 -0.91471380828E+01 -0.23688859966E+02  0.36875198707E+02  0.17770000000E+01 0.  1.
         15    1    3    3    0    0  0.45502221480E+02 -0.52216239521E+02 -0.23470421434E+03  0.24471659892E+03  0.17770000000E+01 0. -1.
</event>
<event>
 7    1  0.3234965E-006  0.3792325E+03  0.7546771E-02  0.9719834E-01
        -11   -1    0    0    0    0  0.00000000000E+00  0.00000000000E+00  0.50000000000E+03  0.50000000000E+03  0.00000000000E+00 0.  1.
         11   -1    0    0    0    0 -0.00000000000E+00 -0.00000000000E+00 -0.50000000000E+03  0.50000000000E+03  0.00000000000E+00 0. -1.
         23    2    1    2    0    0  0.92496794261E+02 -0.24944526239E+03 -0.28797481849E+03  0.40299734183E+03  0.93267173010E+02 0.  0.
        -11    1    1    2    0    0 -0.32547495114E+01  0.64609962712E+02  0.37026168482E+03  0.37587066382E+03  0.00000000000E+00 0.  1.
         11    1    1    2    0    0 -0.89242044750E+02  0.18483529967E+03 -0.82286866323E+02  0.22113199435E+03  0.00000000000E+00 0. -1.
        -15    1    3    3    0    0  0.30653538995E+02 -0.14603447406E+02 -0.64763856322E+02  0.73146530633E+02  0.17770000000E+01 0.  1.
         15    1    3    3    0    0  0.61843255266E+02 -0.23484181498E+03 -0.22321096217E+03  0.32985081120E+03  0.17770000000E+01 0. -1.
</event>
<event>
 7    1  0.3234965E-006  0.5077118E+03  0.7546771E-02  0.9382718E-01
        -11   -1    0    0    0    0  0.00000000000E+00  0.00000000000E+00  0.50000000000E+03  0.50000000000E+03  0.00000000000E+00 0.  1.
         11   -1    0    0    0    0 -0.00000000000E+00 -0.00000000000E+00 -0.50000000000E+03  0.50000000000E+03  0.00000000000E+00 0. -1.
         23    2    1    2    0    0  0.42048179339E+02  0.55297135647E+02  0.24781566383E+03  0.27252923486E+03  0.89631233483E+02 0.  0.
        -11    1    1    2    0    0  0.24991005894E+02  0.43805349610E+02  0.22971146803E+03  0.23518251970E+03  0.00000000000E+00 0.  1.
         11    1    1    2    0    0 -0.67039185233E+02 -0.99102485258E+02 -0.47752713186E+03  0.49228824544E+03  0.00000000000E+00 0. -1.
        -15    1    3    3    0    0 -0.20800270660E+02  0.44619910579E+02  0.97277622788E+02  0.10903981522E+03  0.17770000000E+01 0. -1.
         15    1    3    3    0    0  0.62848449999E+02  0.10677225068E+02  0.15053804104E+03  0.16348941963E+03  0.17770000000E+01 0.  1.
</event>
<event>
 7    1  0.3234965E-006  0.4053365E+03  0.7546771E-02  0.9640763E-01
        -11   -1    0    0    0    0  0.00000000000E+00  0.00000000000E+00  0.50000000000E+03  0.50000000000E+03  0.00000000000E+00 0. -1.
         11   -1    0    0    0    0 -0.00000000000E+00 -0.00000000000E+00 -0.50000000000E+03  0.50000000000E+03  0.00000000000E+00 0. -1.
         23    2    1    2    0    0 -0.51723547362E+02  0.17930754932E+02 -0.41410138109E+03  0.42711559852E+03  0.89168062443E+02 0.  0.
        -11    1    1    2    0    0 -0.10621674483E+03  0.57387115313E+02  0.37450076393E+03  0.39347947859E+03  0.00000000000E+00 0. -1.
         11    1    1    2    0    0  0.15794029219E+03 -0.75317870245E+02  0.39600617157E+02  0.17940492288E+03  0.00000000000E+00 0. -1.
        -15    1    3    3    0    0 -0.49217416217E+01  0.48364294444E+02 -0.20343035497E+03  0.20916595222E+03  0.17770000000E+01 0.  1.
         15    1    3    3    0    0 -0.46801805740E+02 -0.30433539512E+02 -0.21067102612E+03  0.21794964630E+03  0.17770000000E+01 0. -1.
</event>
<event>
 7    1  0.3234965E-006  0.5185984E+03  0.7546771E-02  0.9359130E-01
        -11   -1    0    0    0    0  0.00000000000E+00  0.00000000000E+00  0.50000000000E+03  0.50000000000E+03  0.00000000000E+00 0.  1.
         11   -1    0    0    0    0 -0.00000000000E+00 -0.00000000000E+00 -0.50000000000E+03  0.50000000000E+03  0.00000000000E+00 0. -1.
         23    2    1    2    0    0 -0.44132420028E+02 -0.21022160629E+01 -0.13844957693E+03  0.17108143389E+03  0.90268941840E+02 0.  0.
        -11    1    1    2    0    0  0.23474506246E+02  0.11073404559E+03  0.46790429455E+03  0.48140161005E+03  0.00000000000E+00 0.  1.
         11    1    1    2    0    0  0.20657913782E+02 -0.10863182952E+03 -0.32945471762E+03  0.34751695606E+03  0.00000000000E+00 0. -1.
        -15    1    3    3    0    0 -0.70001514558E+02  0.16803615074E+01 -0.12029822614E+03  0.13920436989E+03  0.17770000000E+01 0.  1.
         15    1    3    3    0    0  0.25869094530E+02 -0.37825775704E+01 -0.18151350786E+02  0.31877064000E+02  0.17770000000E+01 0. -1.
</event>
<event>
 7    1  0.3234965E-006  0.3839025E+03  0.7546771E-02  0.9705197E-01
        -11   -1    0    0    0    0  0.00000000000E+00  0.00000000000E+00  0.50000000000E+03  0.50000000000E+03  0.00000000000E+00 0.  1.
         11   -1    0    0    0    0 -0.00000000000E+00 -0.00000000000E+00 -0.50000000000E+03  0.50000000000E+03  0.00000000000E+00 0.  1.
         23    2    1    2    0    0  0.82525190419E+02  0.48080323103E+02 -0.40840541707E+03  0.42906121375E+03  0.90423536364E+02 0.  0.
        -11    1    1    2    0    0  0.52464475213E+02  0.10184318673E+03  0.33861132794E+03  0.35746634423E+03  0.00000000000E+00 0.  1.
         11    1    1    2    0    0 -0.13498966563E+03 -0.14992350983E+03  0.69794089123E+02  0.21347244203E+03  0.00000000000E+00 0.  1.
        -15    1    3    3    0    0  0.20715343458E+02  0.62859125515E+02 -0.17347501126E+03  0.18568018843E+03  0.17770000000E+01 0.  1.
         15    1    3    3    0    0  0.61809846961E+02 -0.14778802411E+02 -0.23493040581E+03  0.24338102532E+03  0.17770000000E+01 0. -1.
</event>
<event>
 7    1  0.3234965E-006  0.5312812E+03  0.7546771E-02  0.9332414E-01
        -11   -1    0    0    0    0  0.00000000000E+00  0.00000000000E+00  0.50000000000E+03  0.50000000000E+03  0.00000000000E+00 0.  1.
         11   -1    0    0    0    0 -0.00000000000E+00 -0.00000000000E+00 -0.50000000000E+03  0.50000000000E+03  0.00000000000E+00 0. -1.
         23    2    1    2    0    0 -0.21083750033E+03 -0.11134650454E+03  0.51807275958E+02  0.26018565782E+03  0.90344269747E+02 0.  0.
        -11    1    1    2    0    0 -0.17219072914E+03  0.33058868235E+02  0.20676135210E+03  0.27109554163E+03  0.00000000000E+00 0.  1.
         11    1    1    2    0    0  0.38302822947E+03  0.78287636302E+02 -0.25856862806E+03  0.46871880055E+03  0.00000000000E+00 0. -1.
        -15    1    3    3    0    0 -0.23461366114E+02  0.15710254383E+02  0.96742788720E+01  0.29899785842E+02  0.17770000000E+01 0.  1.
         15    1    3    3    0    0 -0.18737613422E+03 -0.12705675892E+03  0.42132997086E+02  0.23028587198E+03  0.17770000000E+01 0. -1.
</event>
<event>
 7    1  0.3234965E-006  0.5200867E+03  0.7546771E-02  0.9355953E-01
        -11   -1    0    0    0    0  0.00000000000E+00  0.00000000000E+00  0.50000000000E+03  0.50000000000E+03  0.00000000000E+00 0.  1.
         11   -1    0    0    0    0 -0.00000000000E+00 -0.00000000000E+00 -0.50000000000E+03  0.50000000000E+03  0.00000000000E+00 0. -1.
         23    2    1    2    0    0  0.25899350557E+00  0.52191456236E+02  0.92695656635E+02  0.14071692831E+03  0.92112724267E+02 0.  0.
        -11    1    1    2    0    0 -0.64713994151E+02  0.66151725503E+02  0.36790960803E+03  0.37936978202E+03  0.00000000000E+00 0.  1.
         11    1    1    2    0    0  0.64455000646E+02 -0.11834318174E+03 -0.46060526466E+03  0.47991328968E+03  0.00000000000E+00 0. -1.
        -15    1    3    3    0    0  0.23996799397E+02  0.11050610291E+02  0.89211657042E+02  0.93058260516E+02  0.17770000000E+01 0.  1.
         15    1    3    3    0    0 -0.23737805891E+02  0.41140845945E+02  0.34839995933E+01  0.47658667792E+02  0.17770000000E+01 0. -1.
</event>
<event>
 7    1  0.3234965E-006  0.5097344E+03  0.7546771E-02  0.9378288E-01
        -11   -1    0    0    0    0  0.00000000000E+00  0.00000000000E+00  0.50000000000E+03  0.50000000000E+03  0.00000000000E+00 0. -1.
         11   -1    0    0    0    0 -0.00000000000E+00 -0.00000000000E+00 -0.50000000000E+03  0.50000000000E+03  0.00000000000E+00 0. -1.
         23    2    1    2    0    0  0.31346880672E+02  0.15999566274E+02 -0.36487586086E+03  0.37736262508E+03  0.89607722462E+02 0.  0.
        -11    1    1    2    0    0 -0.59390637044E+02 -0.72584137439E+02  0.48121166106E+03  0.49026560915E+03  0.00000000000E+00 0. -1.
         11    1    1    2    0    0  0.28043756372E+02  0.56584571165E+02 -0.11633580020E+03  0.13237176577E+03  0.00000000000E+00 0. -1.
        -15    1    3    3    0    0  0.11571745522E+02  0.52803438354E+02 -0.22193601936E+03  0.22843130874E+03  0.17770000000E+01 0. -1.
         15    1    3    3    0    0  0.19775135150E+02 -0.36803872080E+02 -0.14293984150E+03  0.14893131634E+03  0.17770000000E+01 0.  1.
</event>
<event>
 7    1  0.3234965E-006  0.3245338E+03  0.7546771E-02  0.9910116E-01
        -11   -1    0    0    0    0  0.00000000000E+00  0.00000000000E+00  0.50000000000E+03  0.50000000000E+03  0.00000000000E+00 0. -1.
         11   -1    0    0    0    0 -0.00000000000E+00 -0.00000000000E+00 -0.50000000000E+03  0.50000000000E+03  0.00000000000E+00 0.  1.
         23    2    1    2    0    0 -0.26779480318E+03  0.87463091284E+00  0.78758130261E+02  0.29345454022E+03  0.90542269148E+02 0.  0.
        -11    1    1    2    0    0  0.10898522921E+03 -0.41676089885E+02  0.28477118374E+03  0.30774876725E+03  0.00000000000E+00 0. -1.
         11    1    1    2    0    0  0.15880957397E+03  0.40801458972E+02 -0.36352931400E+03  0.39879669254E+03  0.00000000000E+00 0.  1.
        -15    1    3    3    0    0 -0.13730319752E+03  0.42940501916E+02  0.24250309451E+02  0.14590164493E+03  0.17770000000E+01 0. -1.
         15    1    3    3    0    0 -0.13049160566E+03 -0.42065871003E+02  0.54507820810E+02  0.14755289529E+03  0.17770000000E+01 0.  1.
</event>
<event>
 6    1  0.3234965E-006  0.5407932E+03  0.7546771E-02  0.9312890E-01
        -11   -1    0    0    0    0  0.00000000000E+00  0.00000000000E+00  0.50000000000E+03  0.50000000000E+03  0.00000000000E+00 0. -1.
         11   -1    0    0    0    0 -0.00000000000E+00 -0.00000000000E+00 -0.50000000000E+03  0.50000000000E+03  0.00000000000E+00 0. -1.
        -11    1    1    2    0    0  0.76329035013E+02  0.63958273396E+02  0.15787108202E+03  0.18665492455E+03  0.00000000000E+00 0. -1.
         11    1    1    2    0    0 -0.34577576921E+03  0.54051621681E+02 -0.29730186771E+03  0.45920677360E+03  0.00000000000E+00 0. -1.
        -15    1    1    2    0    0 -0.12291921906E+01 -0.32768770591E+02  0.43650635509E+02  0.54624526989E+02  0.17770000000E+01 0. -1.
         15    1    1    2    0    0  0.27067592639E+03 -0.85241124487E+02  0.95780150182E+02  0.29951377485E+03  0.17770000000E+01 0.  1.
</event>
<event>
 7    1  0.3234965E-006  0.4597716E+03  0.7546771E-02  0.9494615E-01
        -11   -1    0    0    0    0  0.00000000000E+00  0.00000000000E+00  0.50000000000E+03  0.50000000000E+03  0.00000000000E+00 0.  1.
         11   -1    0    0    0    0 -0.00000000000E+00 -0.00000000000E+00 -0.50000000000E+03  0.50000000000E+03  0.00000000000E+00 0. -1.
         23    2    1    2    0    0  0.13904540775E+03  0.19127983854E+03  0.34793316096E+03  0.43039765917E+03  0.90901366715E+02 0.  0.
        -11    1    1    2    0    0  0.38917064549E+02 -0.27012366919E+02  0.71205352403E+02  0.85524312862E+02  0.00000000000E+00 0.  1.
         11    1    1    2    0    0 -0.17796247230E+03 -0.16426747162E+03 -0.41913851336E+03  0.48407802797E+03  0.00000000000E+00 0. -1.
        -15    1    3    3    0    0  0.29160023704E+02  0.49021242975E+02  0.16207123326E+03  0.17182442092E+03  0.17770000000E+01 0. -1.
         15    1    3    3    0    0  0.10988538405E+03  0.14225859556E+03  0.18586192770E+03  0.25857323825E+03  0.17770000000E+01 0.  1.
</event>
<event>
 7    1  0.3234965E-006  0.5255664E+03  0.7546771E-02  0.9344353E-01
        -11   -1    0    0    0    0  0.00000000000E+00  0.00000000000E+00  0.50000000000E+03  0.50000000000E+03  0.00000000000E+00 0. -1.
         11   -1    0    0    0    0 -0.00000000000E+00 -0.00000000000E+00 -0.50000000000E+03  0.50000000000E+03  0.00000000000E+00 0.  1.
         23    2    1    2    0    0 -0.68335423150E+01  0.15827500433E+02 -0.20658627486E+03  0.23227256505E+03  0.10476377448E+03 0.  0.
        -11    1    1    2    0    0  0.95327406804E+01  0.14561430874E+03  0.45143422492E+03  0.47443361969E+03  0.00000000000E+00 0. -1.
         11    1    1    2    0    0 -0.26991983654E+01 -0.16144180918E+03 -0.24484795006E+03  0.29329381526E+03  0.00000000000E+00 0.  1.
        -15    1    3    3    0    0  0.31647171222E+02 -0.31483534938E+02 -0.98450620755E+02  0.10811308374E+03  0.17770000000E+01 0. -1.
         15    1    3    3    0    0 -0.38480713537E+02  0.47311035371E+02 -0.10813565411E+03  0.12415948132E+03  0.17770000000E+01 0.  1.
</event>
<event>
 7    1  0.3234965E-006  0.5193262E+03  0.7546771E-02  0.9357575E-01
        -11   -1    0    0    0    0  0.00000000000E+00  0.00000000000E+00  0.50000000000E+03  0.50000000000E+03  0.00000000000E+00 0. -1.
         11   -1    0    0    0    0 -0.00000000000E+00 -0.00000000000E+00 -0.50000000000E+03  0.50000000000E+03  0.00000000000E+00 0.  1.
         23    2    1    2    0    0 -0.51238015794E+02  0.45550442039E+01 -0.39148906083E+03  0.40534121647E+03  0.91606409870E+02 0.  0.
        -11    1    1    2    0    0  0.34584082534E+02 -0.83381711480E+02  0.47212148607E+03  0.48067376273E+03  0.00000000000E+00 0. -1.
         11    1    1    2    0    0  0.16653933260E+02  0.78826667276E+02 -0.80632425232E+02  0.11398502079E+03  0.00000000000E+00 0.  1.
        -15    1    3    3    0    0 -0.28002660614E+02  0.42935690719E+02 -0.28799298040E+03  0.29252476310E+03  0.17770000000E+01 0.  1.
         15    1    3    3    0    0 -0.23235355180E+02 -0.38380646515E+02 -0.10349608044E+03  0.11281645338E+03  0.17770000000E+01 0. -1.
</event>
<event>
 7    1  0.3234965E-006  0.5130048E+03  0.7546771E-02  0.9371172E-01
        -11   -1    0    0    0    0  0.00000000000E+00  0.00000000000E+00  0.50000000000E+03  0.50000000000E+03  0.00000000000E+00 0. -1.
         11   -1    0    0    0    0 -0.00000000000E+00 -0.00000000000E+00 -0.50000000000E+03  0.50000000000E+03  0.00000000000E+00 0. -1.
         23    2    1    2    0    0  0.12439448626E+02 -0.63372263652E+02 -0.39938539633E+03  0.41590461770E+03  0.96421846798E+02 0.  0.
        -11    1    1    2    0    0 -0.77662148687E-01  0.12941535966E+03  0.46948484862E+03  0.48699524066E+03  0.00000000000E+00 0. -1.
         11    1    1    2    0    0 -0.12361786477E+02 -0.66043096007E+02 -0.70099452289E+02  0.97100141639E+02  0.00000000000E+00 0. -1.
        -15    1    3    3    0    0 -0.21414249242E+02 -0.11514211473E+01 -0.18181218636E+02  0.28171089459E+02  0.17770000000E+01 0.  1.
         15    1    3    3    0    0  0.33853697868E+02 -0.62220842504E+02 -0.38120417769E+03  0.38773352824E+03  0.17770000000E+01 0. -1.
</event>
<event>
 7    1  0.3234965E-006  0.5167208E+03  0.7546771E-02  0.9363154E-01
        -11   -1    0    0    0    0  0.00000000000E+00  0.00000000000E+00  0.50000000000E+03  0.50000000000E+03  0.00000000000E+00 0. -1.
         11   -1    0    0    0    0 -0.00000000000E+00 -0.00000000000E+00 -0.50000000000E+03  0.50000000000E+03  0.00000000000E+00 0. -1.
         23    2    1    2    0    0  0.23229724135E+02 -0.33342964109E+02  0.19731519206E+03  0.22074152499E+03  0.90233932082E+02 0.  0.
        -11    1    1    2    0    0  0.16091625415E+03 -0.83524069734E+02  0.23395172726E+03  0.29597925901E+03  0.00000000000E+00 0. -1.
         11    1    1    2    0    0 -0.18414597828E+03  0.11686703384E+03 -0.43126691932E+03  0.48327921600E+03  0.00000000000E+00 0. -1.
        -15    1    3    3    0    0  0.14204130229E+02 -0.63123115751E+02  0.15672745655E+03  0.16956691430E+03  0.17770000000E+01 0. -1.
         15    1    3    3    0    0  0.90255939060E+01  0.29780151642E+02  0.40587735508E+02  0.51174610696E+02  0.17770000000E+01 0.  1.
</event>
<event>
 7    1  0.3234965E-006  0.5181911E+03  0.7546771E-02  0.9360001E-01
        -11   -1    0    0    0    0  0.00000000000E+00  0.00000000000E+00  0.50000000000E+03  0.50000000000E+03  0.00000000000E+00 0. -1.
         11   -1    0    0    0    0 -0.00000000000E+00 -0.00000000000E+00 -0.50000000000E+03  0.50000000000E+03  0.00000000000E+00 0. -1.
         23    2    1    2    0    0 -0.44298616205E+01  0.38465185523E+02 -0.22134015856E+03  0.24268441544E+03  0.91679144496E+02 0.  0.
        -11    1    1    2    0    0  0.83620336587E+02  0.42079805297E+02  0.47262747472E+03  0.48180888385E+03  0.00000000000E+00 0. -1.
         11    1    1    2    0    0 -0.79190474967E+02 -0.80544990820E+02 -0.25128731616E+03  0.27550670070E+03  0.00000000000E+00 0. -1.
        -15    1    3    3    0    0 -0.42656388781E+02  0.39072502643E+02 -0.16244114866E+03  0.17244278029E+03  0.17770000000E+01 0. -1.
         15    1    3    3    0    0  0.38226527160E+02 -0.60731712039E+00 -0.58899009902E+02  0.70241635155E+02  0.17770000000E+01 0.  1.
</event>
<event>
 7    1  0.3234965E-006  0.3326426E+03  0.7546771E-02  0.9879463E-01
        -11   -1    0    0    0    0  0.00000000000E+00  0.00000000000E+00  0.50000000000E+03  0.50000000000E+03  0.00000000000E+00 0. -1.
         11   -1    0    0    0    0 -0.00000000000E+00 -0.00000000000E+00 -0.50000000000E+03  0.50000000000E+03  0.00000000000E+00 0.  1.
         23    2    1    2    0    0  0.17035503632E+03 -0.21062746672E+03 -0.71634799997E+02  0.29728687025E+03  0.99313496136E+02 0.  0.
        -11    1    1    2    0    0 -0.26679922335E+03  0.75113064217E+02  0.30757590506E+03  0.41403711835E+03  0.00000000000E+00 0. -1.
         11    1    1    2    0    0  0.96444187033E+02  0.13551440251E+03 -0.23594110506E+03  0.28867601140E+03  0.00000000000E+00 0.  1.
        -15    1    3    3    0    0  0.63875010602E+02 -0.51474234120E+02  0.20799555398E+02  0.84648644356E+02  0.17770000000E+01 0. -1.
         15    1    3    3    0    0  0.10648002572E+03 -0.15915323260E+03 -0.92434355395E+02  0.21263822589E+03  0.17770000000E+01 0.  1.
</event>
<event>
 7    1  0.3234965E-006  0.5158307E+03  0.7546771E-02  0.9365068E-01
        -11   -1    0    0    0    0  0.00000000000E+00  0.00000000000E+00  0.50000000000E+03  0.50000000000E+03  0.00000000000E+00 0.  1.
         11   -1    0    0    0    0 -0.00000000000E+00 -0.00000000000E+00 -0.50000000000E+03  0.50000000000E+03  0.00000000000E+00 0.  1.
         23    2    1    2    0    0 -0.62520696554E+00  0.28324980877E+02  0.18293171991E+03  0.20091294763E+03  0.78098034218E+02 0.  0.
        -11    1    1    2    0    0  0.54705340293E+02 -0.10375922619E+03  0.29225764786E+03  0.31491774166E+03  0.00000000000E+00 0.  1.
         11    1    1    2    0    0 -0.54080133327E+02  0.75434245318E+02 -0.47518936778E+03  0.48416931071E+03  0.00000000000E+00 0.  1.
        -15    1    3    3    0    0  0.14839870648E+02  0.45422431101E+02  0.64764748610E+02  0.80504965061E+02  0.17770000000E+01 0. -1.
         15    1    3    3    0    0 -0.15465077614E+02 -0.17097450224E+02  0.11816697130E+03  0.12040798257E+03  0.17770000000E+01 0.  1.
</event>
<event>
 7    1  0.3234965E-006  0.4598154E+03  0.7546771E-02  0.9494507E-01
        -11   -1    0    0    0    0  0.00000000000E+00  0.00000000000E+00  0.50000000000E+03  0.50000000000E+03  0.00000000000E+00 0.  1.
         11   -1    0    0    0    0 -0.00000000000E+00 -0.00000000000E+00 -0.50000000000E+03  0.50000000000E+03  0.00000000000E+00 0.  1.
         23    2    1    2    0    0  0.20158231762E+02 -0.10565408202E+02 -0.43389673981E+03  0.44392755360E+03  0.91034663026E+02 0.  0.
        -11    1    1    2    0    0  0.28088297244E+01  0.87824929836E+02  0.46232786498E+03  0.47060404010E+03  0.00000000000E+00 0.  1.
         11    1    1    2    0    0 -0.22967061486E+02 -0.77259521634E+02 -0.28431125166E+02  0.85468406295E+02  0.00000000000E+00 0.  1.
        -15    1    3    3    0    0 -0.13193329050E+02 -0.42690797819E+02 -0.26689682086E+03  0.27061714443E+03  0.17770000000E+01 0.  1.
         15    1    3    3    0    0  0.33351560812E+02  0.32125389617E+02 -0.16699991895E+03  0.17331040917E+03  0.17770000000E+01 0. -1.
</event>
<event>
 6    1  0.3234965E-006  0.4093597E+03  0.7546771E-02  0.9629143E-01
        -11   -1    0    0    0    0  0.00000000000E+00  0.00000000000E+00  0.50000000000E+03  0.50000000000E+03  0.00000000000E+00 0. -1.
         11   -1    0    0    0    0 -0.00000000000E+00 -0.00000000000E+00 -0.50000000000E+03  0.50000000000E+03  0.00000000000E+00 0. -1.
        -11    1    1    2    0    0 -0.87265181803E+02  0.11191473311E+02  0.33111039192E+03  0.34259969742E+03  0.00000000000E+00 0. -1.
         11    1    1    2    0    0  0.10275945718E+03 -0.99947175659E+02  0.11429870192E+03  0.18333885901E+03  0.00000000000E+00 0. -1.
        -15    1    1    2    0    0 -0.61630041065E+02  0.58709051465E+02 -0.14100822340E+03  0.16471639712E+03  0.17770000000E+01 0.  1.
         15    1    1    2    0    0  0.46135765690E+02  0.30046650883E+02 -0.30440087045E+03  0.30934504645E+03  0.17770000000E+01 0. -1.
</event>
<event>
 7    1  0.3234965E-006  0.4451204E+03  0.7546771E-02  0.9531743E-01
        -11   -1    0    0    0    0  0.00000000000E+00  0.00000000000E+00  0.50000000000E+03  0.50000000000E+03  0.00000000000E+00 0.  1.
         11   -1    0    0    0    0 -0.00000000000E+00 -0.00000000000E+00 -0.50000000000E+03  0.50000000000E+03  0.00000000000E+00 0. -1.
         23    2    1    2    0    0 -0.58050064547E+02  0.18470546148E+03 -0.36704144576E+03  0.42465577361E+03  0.90150904925E+02 0.  0.
        -11    1    1    2    0    0  0.40686677539E+02 -0.10984753505E+03  0.44839013474E+03  0.46343888445E+03  0.00000000000E+00 0.  1.
         11    1    1    2    0    0  0.17363387008E+02 -0.74857926430E+02 -0.81348688979E+02  0.11190534195E+03  0.00000000000E+00 0. -1.
        -15    1    3    3    0    0 -0.14940789766E+02  0.19214522023E+02 -0.13051107784E+03  0.13277320597E+03  0.17770000000E+01 0.  1.
         15    1    3    3    0    0 -0.43109274780E+02  0.16549093945E+03 -0.23653036792E+03  0.29188256764E+03  0.17770000000E+01 0. -1.
</event>
<event>
 7    1  0.3234965E-006  0.5155725E+03  0.7546771E-02  0.9365624E-01
        -11   -1    0    0    0    0  0.00000000000E+00  0.00000000000E+00  0.50000000000E+03  0.50000000000E+03  0.00000000000E+00 0. -1.
         11   -1    0    0    0    0 -0.00000000000E+00 -0.00000000000E+00 -0.50000000000E+03  0.50000000000E+03  0.00000000000E+00 0. -1.
         23    2    1    2    0    0  0.72176835530E+02  0.36100563236E+02  0.13094074689E+03  0.17941354644E+03  0.92363386671E+02 0.  0.
        -11    1    1    2    0    0  0.58219992245E+02  0.60199433311E+02  0.32556001796E+03  0.33615898703E+03  0.00000000000E+00 0. -1.
         11    1    1    2    0    0 -0.13039682777E+03 -0.96299996547E+02 -0.45650076484E+03  0.48442746653E+03  0.00000000000E+00 0. -1.
        -15    1    3    3    0    0  0.63859552291E+01  0.42235131219E+02  0.94994556471E+02  0.10417154228E+03  0.17770000000E+01 0. -1.
         15    1    3    3    0    0  0.65790880300E+02 -0.61345679831E+01  0.35946190416E+02  0.75242004156E+02  0.17770000000E+01 0.  1.
</event>
<event>
 7    1  0.3234965E-006  0.4136615E+03  0.7546771E-02  0.9616875E-01
        -11   -1    0    0    0    0  0.00000000000E+00  0.00000000000E+00  0.50000000000E+03  0.50000000000E+03  0.00000000000E+00 0. -1.
         11   -1    0    0    0    0 -0.00000000000E+00 -0.00000000000E+00 -0.50000000000E+03  0.50000000000E+03  0.00000000000E+00 0.  1.
         23    2    1    2    0    0 -0.96565924796E+02 -0.89083801795E+02 -0.10288488732E+01  0.16230958257E+03  0.95301838854E+02 0.  0.
        -11    1    1    2    0    0  0.25457310160E+03 -0.76001969088E+02  0.33838835075E+03  0.43022138404E+03  0.00000000000E+00 0. -1.
         11    1    1    2    0    0 -0.15800717681E+03  0.16508577088E+03 -0.33735950187E+03  0.40746903339E+03  0.00000000000E+00 0.  1.
        -15    1    3    3    0    0 -0.84575988645E+02 -0.96761059185E+02 -0.28199535300E+02  0.13158332702E+03  0.17770000000E+01 0. -1.
         15    1    3    3    0    0 -0.11989936151E+02  0.76772573896E+01  0.27170686427E+02  0.30726255546E+02  0.17770000000E+01 0.  1.
</event>
<event>
 7    1  0.3234965E-006  0.5265552E+03  0.7546771E-02  0.9342275E-01
        -11   -1    0    0    0    0  0.00000000000E+00  0.00000000000E+00  0.50000000000E+03  0.50000000000E+03  0.00000000000E+00 0.  1.
         11   -1    0    0    0    0 -0.00000000000E+00 -0.00000000000E+00 -0.50000000000E+03  0.50000000000E+03  0.00000000000E+00 0. -1.
         23    2    1    2    0    0 -0.15829205406E+03 -0.64969180745E+02 -0.35369173290E+03  0.40352240977E+03  0.91951750612E+02 0.  0.
        -11    1    1    2    0    0  0.12468349487E+03  0.66573116331E+01  0.45668331768E+03  0.47344476588E+03  0.00000000000E+00 0.  1.
         11    1    1    2    0    0  0.33608559195E+02  0.58311869112E+02 -0.10299158478E+03  0.12303282434E+03  0.00000000000E+00 0. -1.
        -15    1    3    3    0    0 -0.64726072373E+02 -0.69118691057E+02 -0.22695785854E+03  0.24592658494E+03  0.17770000000E+01 0. -1.
         15    1    3    3    0    0 -0.93565981690E+02  0.41495103119E+01 -0.12673387436E+03  0.15759582484E+03  0.17770000000E+01 0.  1.
</event>
<event>
 7    1  0.3465826E-006  0.4590567E+03  0.7546771E-02  0.9496393E-01
        -11   -1    0    0    0    0  0.00000000000E+00  0.00000000000E+00  0.50000000000E+03  0.50000000000E+03  0.00000000000E+00 0. -1.
         11   -1    0    0    0    0 -0.00000000000E+00 -0.00000000000E+00 -0.50000000000E+03  0.50000000000E+03  0.00000000000E+00 0.  1.
         23    2    1    2    0    0 -0.10028814519E+02  0.44268144522E+02  0.41057113801E+03  0.42202677544E+03  0.86473661166E+02 0.  0.
        -11    1    1    2    0    0 -0.34200790332E+02  0.27198315694E+02  0.74123945448E+02  0.86045346909E+02  0.00000000000E+00 0. -1.
         11    1    1    2    0    0  0.44229604851E+02 -0.71466460217E+02 -0.48469508346E+03  0.49192787765E+03  0.00000000000E+00 0.  1.
        -15    1    3    3    0    0 -0.29828504972E+02 -0.16100840222E+02  0.15469484171E+03  0.15837496186E+03  0.17770000000E+01 0.  1.
         15    1    3    3    0    0  0.19799690453E+02  0.60368984744E+02  0.25587629630E+03  0.26365181357E+03  0.17770000000E+01 0. -1.
</event>
<event>
 7    1  0.3234965E-006  0.4012241E+03  0.7546771E-02  0.9652791E-01
        -11   -1    0    0    0    0  0.00000000000E+00  0.00000000000E+00  0.50000000000E+03  0.50000000000E+03  0.00000000000E+00 0.  1.
         11   -1    0    0    0    0 -0.00000000000E+00 -0.00000000000E+00 -0.50000000000E+03  0.50000000000E+03  0.00000000000E+00 0.  1.
         23    2    1    2    0    0 -0.36821134580E+02 -0.10759821963E+03 -0.32194209110E+03  0.35533685639E+03  0.98409342399E+02 0.  0.
        -11    1    1    2    0    0  0.10977486062E+03 -0.15864745800E+02  0.44319695539E+03  0.45686513486E+03  0.00000000000E+00 0.  1.
         11    1    1    2    0    0 -0.72953726035E+02  0.12346296543E+03 -0.12125486429E+03  0.18779800875E+03  0.00000000000E+00 0.  1.
        -15    1    3    3    0    0 -0.10277951394E+02  0.18522583663E+02 -0.38964747722E+02  0.44386165463E+02  0.17770000000E+01 0. -1.
         15    1    3    3    0    0 -0.26543183186E+02 -0.12612080330E+03 -0.28297734338E+03  0.31095069093E+03  0.17770000000E+01 0.  1.
</event>
<event>
 7    1  0.3234965E-006  0.5154932E+03  0.7546771E-02  0.9365795E-01
        -11   -1    0    0    0    0  0.00000000000E+00  0.00000000000E+00  0.50000000000E+03  0.50000000000E+03  0.00000000000E+00 0.  1.
         11   -1    0    0    0    0 -0.00000000000E+00 -0.00000000000E+00 -0.50000000000E+03  0.50000000000E+03  0.00000000000E+00 0.  1.
         23    2    1    2    0    0  0.12108031948E+02 -0.19924355524E+02  0.19609983198E+03  0.21788769163E+03  0.92066919587E+02 0.  0.
        -11    1    1    2    0    0  0.12518713103E+03  0.28708546601E+02  0.26846419869E+03  0.29760548449E+03  0.00000000000E+00 0.  1.
         11    1    1    2    0    0 -0.13729516298E+03 -0.87841910770E+01 -0.46456403067E+03  0.48450682387E+03  0.00000000000E+00 0.  1.
        -15    1    3    3    0    0  0.38677094817E+02 -0.44326319781E+02  0.12146235077E+03  0.13497036961E+03  0.17770000000E+01 0.  1.
         15    1    3    3    0    0 -0.26569062869E+02  0.24401964257E+02  0.74637481213E+02  0.82917322027E+02  0.17770000000E+01 0. -1.
</event>
<event>
 7    1  0.3234965E-006  0.3759032E+03  0.7546771E-02  0.9730407E-01
        -11   -1    0    0    0    0  0.00000000000E+00  0.00000000000E+00  0.50000000000E+03  0.50000000000E+03  0.00000000000E+00 0.  1.
         11   -1    0    0    0    0 -0.00000000000E+00 -0.00000000000E+00 -0.50000000000E+03  0.50000000000E+03  0.00000000000E+00 0. -1.
         23    2    1    2    0    0  0.40331456605E+03 -0.92516315707E+02  0.10310492237E+02  0.42379957997E+03  0.90982799909E+02 0.  0.
        -11    1    1    2    0    0 -0.15855899715E+03 -0.14630918568E+03  0.66396099688E+02  0.22573385977E+03  0.00000000000E+00 0.  1.
         11    1    1    2    0    0 -0.24475556889E+03  0.23882550138E+03 -0.76706591925E+02  0.35046656026E+03  0.00000000000E+00 0. -1.
        -15    1    3    3    0    0  0.14830952307E+03  0.67809648411E+01  0.20867905661E+02  0.14993439676E+03  0.17770000000E+01 0.  1.
         15    1    3    3    0    0  0.25500504298E+03 -0.99297280548E+02 -0.10557413425E+02  0.27386518321E+03  0.17770000000E+01 0. -1.
</event>
<event>
 7    1  0.3234965E-006  0.3760674E+03  0.7546771E-02  0.9729883E-01
        -11   -1    0    0    0    0  0.00000000000E+00  0.00000000000E+00  0.50000000000E+03  0.50000000000E+03  0.00000000000E+00 0.  1.
         11   -1    0    0    0    0 -0.00000000000E+00 -0.00000000000E+00 -0.50000000000E+03  0.50000000000E+03  0.00000000000E+00 0. -1.
         23    2    1    2    0    0  0.14135613556E+03  0.47536977707E+02 -0.29716403953E+03  0.34424633645E+03  0.89206235524E+02 0.  0.
        -11    1    1    2    0    0  0.43997904777E+02 -0.55157652196E+02  0.42477172431E+03  0.43059168594E+03  0.00000000000E+00 0.  1.
         11    1    1    2    0    0 -0.18535404034E+03  0.76206744889E+01 -0.12760768478E+03  0.22516197762E+03  0.00000000000E+00 0. -1.
        -15    1    3    3    0    0  0.15133400920E+03  0.54141409103E+02 -0.28426520533E+03  0.32656261147E+03  0.17770000000E+01 0.  1.
         15    1    3    3    0    0 -0.99778736361E+01 -0.66044313961E+01 -0.12898834207E+02  0.17683724982E+02  0.17770000000E+01 0. -1.
</event>
<event>
 7    1  0.3234965E-006  0.3225390E+03  0.7546771E-02  0.9917805E-01
        -11   -1    0    0    0    0  0.00000000000E+00  0.00000000000E+00  0.50000000000E+03  0.50000000000E+03  0.00000000000E+00 0. -1.
         11   -1    0    0    0    0 -0.00000000000E+00 -0.00000000000E+00 -0.50000000000E+03  0.50000000000E+03  0.00000000000E+00 0.  1.
         23    2    1    2    0    0 -0.32207366038E+03 -0.11878562889E+02 -0.11687580570E+03  0.35299732315E+03  0.84110720032E+02 0.  0.
        -11    1    1    2    0    0  0.11153800000E+03  0.52887377806E+02  0.32529446217E+03  0.34792856637E+03  0.00000000000E+00 0. -1.
         11    1    1    2    0    0  0.21053566038E+03 -0.41008814916E+02 -0.20841865647E+03  0.29907411048E+03  0.00000000000E+00 0.  1.
        -15    1    3    3    0    0 -0.27805020556E+03  0.14884472591E+02 -0.11541641177E+03  0.30142589500E+03  0.17770000000E+01 0.  1.
         15    1    3    3    0    0 -0.44023454821E+02 -0.26763035481E+02 -0.14593939297E+01  0.51571428157E+02  0.17770000000E+01 0. -1.
</event>
<event>
 7    1  0.3234965E-006  0.5204744E+03  0.7546771E-02  0.9355127E-01
        -11   -1    0    0    0    0  0.00000000000E+00  0.00000000000E+00  0.50000000000E+03  0.50000000000E+03  0.00000000000E+00 0. -1.
         11   -1    0    0    0    0 -0.00000000000E+00 -0.00000000000E+00 -0.50000000000E+03  0.50000000000E+03  0.00000000000E+00 0.  1.
         23    2    1    2    0    0 -0.28415515851E+01  0.38099310605E+02 -0.11017266388E+03  0.14808078165E+03  0.91270313585E+02 0.  0.
        -11    1    1    2    0    0  0.88051734688E+02 -0.67053938520E+01  0.47132447482E+03  0.47952563107E+03  0.00000000000E+00 0. -1.
         11    1    1    2    0    0 -0.85210183103E+02 -0.31393916753E+02 -0.36115181093E+03  0.37239358729E+03  0.00000000000E+00 0.  1.
        -15    1    3    3    0    0 -0.91030979542E+01  0.66302361017E+02 -0.92438882955E+02  0.11413577125E+03  0.17770000000E+01 0. -1.
         15    1    3    3    0    0  0.62615463691E+01 -0.28203050413E+02 -0.17733780929E+02  0.33945010393E+02  0.17770000000E+01 0.  1.
</event>
<event>
 7    1  0.3234965E-006  0.5167776E+03  0.7546771E-02  0.9363032E-01
        -11   -1    0    0    0    0  0.00000000000E+00  0.00000000000E+00  0.50000000000E+03  0.50000000000E+03  0.00000000000E+00 0. -1.
         11   -1    0    0    0    0 -0.00000000000E+00 -0.00000000000E+00 -0.50000000000E+03  0.50000000000E+03  0.00000000000E+00 0.  1.
         23    2    1    2    0    0  0.21189816067E+02  0.14135006036E+02 -0.30423907083E+03  0.31869060907E+03  0.91397403630E+02 0.  0.
        -11    1    1    2    0    0  0.53124310417E+02 -0.88717967103E+02  0.47202838969E+03  0.48322238226E+03  0.00000000000E+00 0. -1.
         11    1    1    2    0    0 -0.74314126484E+02  0.74582961067E+02 -0.16778931886E+03  0.19808700866E+03  0.00000000000E+00 0.  1.
        -15    1    3    3    0    0  0.45369752385E+02 -0.17006643522E+02 -0.10601921810E+03  0.11657989831E+03  0.17770000000E+01 0.  1.
         15    1    3    3    0    0 -0.24179936318E+02  0.31141649558E+02 -0.19821985273E+03  0.20211071076E+03  0.17770000000E+01 0. -1.
</event>
<event>
 7    1  0.3234965E-006  0.5362903E+03  0.7546771E-02  0.9322079E-01
        -11   -1    0    0    0    0  0.00000000000E+00  0.00000000000E+00  0.50000000000E+03  0.50000000000E+03  0.00000000000E+00 0. -1.
         11   -1    0    0    0    0 -0.00000000000E+00 -0.00000000000E+00 -0.50000000000E+03  0.50000000000E+03  0.00000000000E+00 0.  1.
         23    2    1    2    0    0  0.20365258642E+03 -0.10741771052E+01  0.16009787162E+03  0.27416832693E+03  0.89785372882E+02 0.  0.
        -11    1    1    2    0    0 -0.54125453934E+01  0.61758779177E+02  0.25468510753E+03  0.26212200681E+03  0.00000000000E+00 0. -1.
         11    1    1    2    0    0 -0.19824004103E+03 -0.60684602072E+02 -0.41478297915E+03  0.46370966626E+03  0.00000000000E+00 0.  1.
        -15    1    3    3    0    0  0.12888924209E+03 -0.41022086370E+02  0.11800430817E+03  0.17950883759E+03  0.17770000000E+01 0.  1.
         15    1    3    3    0    0  0.74763344327E+02  0.39947909265E+02  0.42093563451E+02  0.94659489342E+02  0.17770000000E+01 0. -1.
</event>
<event>
 7    1  0.3234965E-006  0.5255341E+03  0.7546771E-02  0.9344421E-01
        -11   -1    0    0    0    0  0.00000000000E+00  0.00000000000E+00  0.50000000000E+03  0.50000000000E+03  0.00000000000E+00 0. -1.
         11   -1    0    0    0    0 -0.00000000000E+00 -0.00000000000E+00 -0.50000000000E+03  0.50000000000E+03  0.00000000000E+00 0.  1.
         23    2    1    2    0    0 -0.18426992826E+03  0.40656485960E+01  0.24939595225E+03  0.32326607142E+03  0.91272536814E+02 0.  0.
        -11    1    1    2    0    0  0.27241373758E+02 -0.35768353104E+02  0.19720773589E+03  0.20226803658E+03  0.00000000000E+00 0. -1.
         11    1    1    2    0    0  0.15702855450E+03  0.31702704508E+02 -0.44660368814E+03  0.47446589199E+03  0.00000000000E+00 0.  1.
        -15    1    3    3    0    0 -0.16737154708E+03 -0.27459458132E+02  0.19973705030E+03  0.26204065258E+03  0.17770000000E+01 0. -1.
         15    1    3    3    0    0 -0.16898381176E+02  0.31525106728E+02  0.49658901951E+02  0.61225418844E+02  0.17770000000E+01 0.  1.
</event>
<event>
 6    1  0.3234965E-006  0.5301527E+03  0.7546771E-02  0.9334759E-01
        -11   -1    0    0    0    0  0.00000000000E+00  0.00000000000E+00  0.50000000000E+03  0.50000000000E+03  0.00000000000E+00 0. -1.
         11   -1    0    0    0    0 -0.00000000000E+00 -0.00000000000E+00 -0.50000000000E+03  0.50000000000E+03  0.00000000000E+00 0. -1.
        -11    1    1    2    0    0 -0.65852346367E+02  0.53918776588E+02  0.46207438110E+03  0.46984731526E+03  0.00000000000E+00 0. -1.
         11    1    1    2    0    0 -0.73148407805E+01 -0.84269071304E+02 -0.13266075576E+03  0.15733295711E+03  0.00000000000E+00 0. -1.
        -15    1    1    2    0    0  0.14698101895E+02  0.51860430681E+02 -0.20524850579E+02  0.57705854902E+02  0.17770000000E+01 0.  1.
         15    1    1    2    0    0  0.58469085253E+02 -0.21510135964E+02 -0.30888877476E+03  0.31511387273E+03  0.17770000000E+01 0. -1.
</event>
<event>
 7    1  0.3234965E-006  0.4673713E+03  0.7546771E-02  0.9475933E-01
        -11   -1    0    0    0    0  0.00000000000E+00  0.00000000000E+00  0.50000000000E+03  0.50000000000E+03  0.00000000000E+00 0. -1.
         11   -1    0    0    0    0 -0.00000000000E+00 -0.00000000000E+00 -0.50000000000E+03  0.50000000000E+03  0.00000000000E+00 0. -1.
         23    2    1    2    0    0 -0.31017395431E+02  0.79503698975E+02 -0.45825031697E+03  0.47477635749E+03  0.90201550206E+02 0.  0.
        -11    1    1    2    0    0  0.42997621270E+02 -0.14322454926E+03  0.42858112917E+03  0.45392053404E+03  0.00000000000E+00 0. -1.
         11    1    1    2    0    0 -0.11980225839E+02  0.63720850282E+02  0.29669187804E+02  0.71303108465E+02  0.00000000000E+00 0. -1.
        -15    1    3    3    0    0  0.29429122153E+02  0.36811912096E+02 -0.13022172018E+03  0.13849925718E+03  0.17770000000E+01 0.  1.
         15    1    3    3    0    0 -0.60446517584E+02  0.42691786879E+02 -0.32802859679E+03  0.33627710032E+03  0.17770000000E+01 0. -1.
</event>
<event>
 7    1  0.3234965E-006  0.5125587E+03  0.7546771E-02  0.9372139E-01
        -11   -1    0    0    0    0  0.00000000000E+00  0.00000000000E+00  0.50000000000E+03  0.50000000000E+03  0.00000000000E+00 0.  1.
         11   -1    0    0    0    0 -0.00000000000E+00 -0.00000000000E+00 -0.50000000000E+03  0.50000000000E+03  0.00000000000E+00 0. -1.
         23    2    1    2    0    0  0.20116750500E+02 -0.11179338830E+03 -0.35620624858E+03  0.38403049362E+03  0.87715923195E+02 0.  0.
        -11    1    1    2    0    0  0.87661475067E+01  0.20122832588E+03  0.44387988324E+03  0.48744131465E+03  0.00000000000E+00 0.  1.
         11    1    1    2    0    0 -0.28882898006E+02 -0.89434937575E+02 -0.87673634663E+02  0.12852819174E+03  0.00000000000E+00 0. -1.
        -15    1    3    3    0    0 -0.22632352692E+01 -0.23693111831E+02 -0.96449967621E+01  0.25742367289E+02  0.17770000000E+01 0.  1.
         15    1    3    3    0    0  0.22379985769E+02 -0.88100276473E+02 -0.34656125182E+03  0.35828812633E+03  0.17770000000E+01 0. -1.
</event>
<event>
 7    1  0.3234965E-006  0.5044849E+03  0.7546771E-02  0.9389830E-01
        -11   -1    0    0    0    0  0.00000000000E+00  0.00000000000E+00  0.50000000000E+03  0.50000000000E+03  0.00000000000E+00 0. -1.
         11   -1    0    0    0    0 -0.00000000000E+00 -0.00000000000E+00 -0.50000000000E+03  0.50000000000E+03  0.00000000000E+00 0. -1.
         23    2    1    2    0    0 -0.78642605147E+02  0.18779623810E+02  0.26335843488E+03  0.28139943010E+03  0.57364103978E+02 0.  0.
        -11    1    1    2    0    0 -0.93691824143E+02  0.50774641436E+02  0.19598701998E+03  0.22308548614E+03  0.00000000000E+00 0. -1.
         11    1    1    2    0    0  0.17233442929E+03 -0.69554265246E+02 -0.45934545486E+03  0.49551508376E+03  0.00000000000E+00 0. -1.
        -15    1    3    3    0    0 -0.96270773511E+01  0.18922365072E+02  0.12467244197E+03  0.12647969021E+03  0.17770000000E+01 0. -1.
         15    1    3    3    0    0 -0.69015527796E+02 -0.14274126201E+00  0.13868599291E+03  0.15491973990E+03  0.17770000000E+01 0.  1.
</event>
<event>
 7    1  0.3234965E-006  0.5270700E+03  0.7546771E-02  0.9341196E-01
        -11   -1    0    0    0    0  0.00000000000E+00  0.00000000000E+00  0.50000000000E+03  0.50000000000E+03  0.00000000000E+00 0. -1.
         11   -1    0    0    0    0 -0.00000000000E+00 -0.00000000000E+00 -0.50000000000E+03  0.50000000000E+03  0.00000000000E+00 0. -1.
         23    2    1    2    0    0 -0.23869255821E+02 -0.36822909949E+02 -0.15910396275E+03  0.18877190622E+03  0.91624743090E+02 0.  0.
        -11    1    1    2    0    0 -0.12471968103E+03  0.22901621302E+03  0.39453689099E+03  0.47292999801E+03  0.00000000000E+00 0. -1.
         11    1    1    2    0    0  0.14858893685E+03 -0.19219330307E+03 -0.23543292824E+03  0.33829809577E+03  0.00000000000E+00 0. -1.
        -15    1    3    3    0    0  0.22873063102E+02 -0.43246248983E+02 -0.11125812823E+03  0.12155222702E+03  0.17770000000E+01 0.  1.
         15    1    3    3    0    0 -0.46742318923E+02  0.64233390335E+01 -0.47845834518E+02  0.67219679205E+02  0.17770000000E+01 0. -1.
</event>
<event>
 7    1  0.3234965E-006  0.5276437E+03  0.7546771E-02  0.9339994E-01
        -11   -1    0    0    0    0  0.00000000000E+00  0.00000000000E+00  0.50000000000E+03  0.50000000000E+03  0.00000000000E+00 0.  1.
         11   -1    0    0    0    0 -0.00000000000E+00 -0.00000000000E+00 -0.50000000000E+03  0.50000000000E+03  0.00000000000E+00 0. -1.
         23    2    1    2    0    0  0.18817511503E+02 -0.11584285885E+02  0.44944201786E+02  0.10352455926E+03  0.90603855752E+02 0.  0.
        -11    1    1    2    0    0  0.20811252903E+03  0.12754909780E+02  0.36932848808E+03  0.42411913960E+03  0.00000000000E+00 0.  1.
         11    1    1    2    0    0 -0.22693004053E+03 -0.11706238946E+01 -0.41427268987E+03  0.47235630114E+03  0.00000000000E+00 0. -1.
        -15    1    3    3    0    0 -0.29090622062E+01  0.20042291330E+02  0.59168627913E+02  0.62563890087E+02  0.17770000000E+01 0.  1.
         15    1    3    3    0    0  0.21726573709E+02 -0.31626577215E+02 -0.14224426127E+02  0.40960669173E+02  0.17770000000E+01 0. -1.
</event>
<event>
 7    1  0.3234965E-006  0.4445113E+03  0.7546771E-02  0.9533319E-01
        -11   -1    0    0    0    0  0.00000000000E+00  0.00000000000E+00  0.50000000000E+03  0.50000000000E+03  0.00000000000E+00 0. -1.
         11   -1    0    0    0    0 -0.00000000000E+00 -0.00000000000E+00 -0.50000000000E+03  0.50000000000E+03  0.00000000000E+00 0. -1.
         23    2    1    2    0    0  0.27062548510E+01  0.31847274981E+02 -0.46645781022E+03  0.47545188036E+03  0.86313551006E+02 0.  0.
        -11    1    1    2    0    0  0.67582748385E+02  0.31030471112E+02  0.40547975749E+03  0.41224283105E+03  0.00000000000E+00 0. -1.
         11    1    1    2    0    0 -0.70289003236E+02 -0.62877746093E+02  0.60978052725E+02  0.11230528858E+03  0.00000000000E+00 0. -1.
        -15    1    3    3    0    0  0.35432299141E+02  0.44494535241E+02 -0.29076769614E+03  0.29628402309E+03  0.17770000000E+01 0. -1.
         15    1    3    3    0    0 -0.32726044290E+02 -0.12647260260E+02 -0.17569011408E+03  0.17916785727E+03  0.17770000000E+01 0.  1.
</event>
<event>
 7    1  0.3365457E-006  0.5095127E+03  0.7546771E-02  0.9378772E-01
        -11   -1    0    0    0    0  0.00000000000E+00  0.00000000000E+00  0.50000000000E+03  0.50000000000E+03  0.00000000000E+00 0. -1.
         11   -1    0    0    0    0 -0.00000000000E+00 -0.00000000000E+00 -0.50000000000E+03  0.50000000000E+03  0.00000000000E+00 0.  1.
         23    2    1    2    0    0 -0.56750457567E+02 -0.29652517104E+02  0.20758539269E+03  0.23321685857E+03  0.84844102067E+02 0.  0.
        -11    1    1    2    0    0 -0.89733787196E+02 -0.93423026620E+02  0.24404786441E+03  0.27629580994E+03  0.00000000000E+00 0. -1.
         11    1    1    2    0    0  0.14648424476E+03  0.12307554372E+03 -0.45163325711E+03  0.49048733149E+03  0.00000000000E+00 0.  1.
        -15    1    3    3    0    0 -0.33616664996E+02  0.71863362108E+01  0.18290231150E+02  0.38979659800E+02  0.17770000000E+01 0.  1.
         15    1    3    3    0    0 -0.23133792571E+02 -0.36838853315E+02  0.18929516154E+03  0.19423719877E+03  0.17770000000E+01 0. -1.
</event>
<event>
 7    1  0.3234965E-006  0.3243692E+03  0.7546771E-02  0.9910748E-01
        -11   -1    0    0    0    0  0.00000000000E+00  0.00000000000E+00  0.50000000000E+03  0.50000000000E+03  0.00000000000E+00 0.  1.
         11   -1    0    0    0    0 -0.00000000000E+00 -0.00000000000E+00 -0.50000000000E+03  0.50000000000E+03  0.00000000000E+00 0.  1.
         23    2    1    2    0    0 -0.12608119063E+03  0.28574543781E+03 -0.28777908152E+02  0.32671897908E+03  0.91488804945E+02 0.  0.
        -11    1    1    2    0    0  0.22925231108E+01 -0.50563178245E+02  0.29369658321E+03  0.29802612913E+03  0.00000000000E+00 0.  1.
         11    1    1    2    0    0  0.12378866751E+03 -0.23518225957E+03 -0.26491867506E+03  0.37525489179E+03  0.00000000000E+00 0.  1.
        -15    1    3    3    0    0 -0.10358373539E+03  0.22178187777E+03  0.16219753244E+02  0.24532229754E+03  0.17770000000E+01 0. -1.
         15    1    3    3    0    0 -0.22497455235E+02  0.63963560043E+02 -0.44997661396E+02  0.81396681538E+02  0.17770000000E+01 0.  1.
</event>
<event>
 7    1  0.3234965E-006  0.4758703E+03  0.7546771E-02  0.9455482E-01
        -11   -1    0    0    0    0  0.00000000000E+00  0.00000000000E+00  0.50000000000E+03  0.50000000000E+03  0.00000000000E+00 0. -1.
         11   -1    0    0    0    0 -0.00000000000E+00 -0.00000000000E+00 -0.50000000000E+03  0.50000000000E+03  0.00000000000E+00 0. -1.
         23    2    1    2    0    0 -0.65969715767E+02 -0.33530572155E+02 -0.44314429649E+03  0.45833189034E+03  0.90636369809E+02 0.  0.
        -11    1    1    2    0    0  0.11032684552E+03  0.51709134209E+02  0.47080951009E+03  0.48632030823E+03  0.00000000000E+00 0. -1.
         11    1    1    2    0    0 -0.44357129757E+02 -0.18178562054E+02 -0.27665213607E+02  0.55347801425E+02  0.00000000000E+00 0. -1.
        -15    1    3    3    0    0 -0.74425814597E+01 -0.50340434521E+02 -0.13634010710E+03  0.14553808401E+03  0.17770000000E+01 0.  1.
         15    1    3    3    0    0 -0.58527134308E+02  0.16809862366E+02 -0.30680418939E+03  0.31279380633E+03  0.17770000000E+01 0. -1.
</event>
<event>
 7    1  0.3234965E-006  0.5237757E+03  0.7546771E-02  0.9348127E-01
        -11   -1    0    0    0    0  0.00000000000E+00  0.00000000000E+00  0.50000000000E+03  0.50000000000E+03  0.00000000000E+00 0.  1.
         11   -1    0    0    0    0 -0.00000000000E+00 -0.00000000000E+00 -0.50000000000E+03  0.50000000000E+03  0.00000000000E+00 0. -1.
         23    2    1    2    0    0 -0.61987790187E+02 -0.49992891602E+02 -0.21382552183E+03  0.24888034595E+03  0.99389624557E+02 0.  0.
        -11    1    1    2    0    0  0.22764529681E+03 -0.32720574456E+02  0.41700904273E+03  0.47622427371E+03  0.00000000000E+00 0.  1.
         11    1    1    2    0    0 -0.16565750663E+03  0.82713466058E+02 -0.20318352090E+03  0.27489538034E+03  0.00000000000E+00 0. -1.
        -15    1    3    3    0    0 -0.34144060652E+02 -0.54722458333E+01 -0.18644566898E+03  0.18963361401E+03  0.17770000000E+01 0.  1.
         15    1    3    3    0    0 -0.27843729535E+02 -0.44520645768E+02 -0.27379852851E+02  0.59246731937E+02  0.17770000000E+01 0. -1.
</event>
<event>
 7    1  0.3234965E-006  0.5357550E+03  0.7546771E-02  0.9323178E-01
        -11   -1    0    0    0    0  0.00000000000E+00  0.00000000000E+00  0.50000000000E+03  0.50000000000E+03  0.00000000000E+00 0. -1.
         11   -1    0    0    0    0 -0.00000000000E+00 -0.00000000000E+00 -0.50000000000E+03  0.50000000000E+03  0.00000000000E+00 0.  1.
         23    2    1    2    0    0  0.51982677411E+02 -0.35304697106E+01 -0.34280771098E+03  0.35796539359E+03  0.88923750125E+02 0.  0.
        -11    1    1    2    0    0 -0.19216243932E+03 -0.78364440821E+02  0.41527830521E+03  0.46424504246E+03  0.00000000000E+00 0. -1.
         11    1    1    2    0    0  0.14017976191E+03  0.81894910532E+02 -0.72470594229E+02  0.17778956395E+03  0.00000000000E+00 0.  1.
        -15    1    3    3    0    0  0.76900372220E+02  0.10276618496E+01 -0.27506319760E+03  0.28561800317E+03  0.17770000000E+01 0.  1.
         15    1    3    3    0    0 -0.24917694809E+02 -0.45581315602E+01 -0.67744513384E+02  0.72347390419E+02  0.17770000000E+01 0. -1.
</event>
<event>
 7    1  0.3234965E-006  0.3863387E+03  0.7546771E-02  0.9697650E-01
        -11   -1    0    0    0    0  0.00000000000E+00  0.00000000000E+00  0.50000000000E+03  0.50000000000E+03  0.00000000000E+00 0. -1.
         11   -1    0    0    0    0 -0.00000000000E+00 -0.00000000000E+00 -0.50000000000E+03  0.50000000000E+03  0.00000000000E+00 0.  1.
         23    2    1    2    0    0  0.32045565528E+02  0.12870745428E+03 -0.12703040738E+03  0.20579618907E+03  0.92859140535E+02 0.  0.
        -11    1    1    2    0    0  0.16292813446E+03  0.23914967394E+02  0.39584526387E+03  0.42873182246E+03  0.00000000000E+00 0. -1.
         11    1    1    2    0    0 -0.19497369999E+03 -0.15262242167E+03 -0.26881485649E+03  0.36547198846E+03  0.00000000000E+00 0.  1.
        -15    1    3    3    0    0  0.38652223819E+02  0.14122649153E+03 -0.12223758314E+03  0.19074616845E+03  0.17770000000E+01 0. -1.
         15    1    3    3    0    0 -0.66066582906E+01 -0.12519037256E+02 -0.47928242408E+01  0.15050020624E+02  0.17770000000E+01 0.  1.
</event>
<event>
 7    1  0.3234965E-006  0.4165806E+03  0.7546771E-02  0.9608640E-01
        -11   -1    0    0    0    0  0.00000000000E+00  0.00000000000E+00  0.50000000000E+03  0.50000000000E+03  0.00000000000E+00 0. -1.
         11   -1    0    0    0    0 -0.00000000000E+00 -0.00000000000E+00 -0.50000000000E+03  0.50000000000E+03  0.00000000000E+00 0.  1.
         23    2    1    2    0    0 -0.55753818571E+02 -0.85146664254E+02  0.77647005680E+00  0.16064516778E+03  0.12428927672E+03 0.  0.
        -11    1    1    2    0    0 -0.28830612086E+02  0.81545362649E+02  0.41047043587E+03  0.41948400337E+03  0.00000000000E+00 0. -1.
         11    1    1    2    0    0  0.84584430657E+02  0.36013016047E+01 -0.41124690593E+03  0.41987082885E+03  0.00000000000E+00 0.  1.
        -15    1    3    3    0    0  0.19598415890E+02 -0.68293726932E+02 -0.30471350145E+02  0.77329114519E+02  0.17770000000E+01 0. -1.
         15    1    3    3    0    0 -0.75352234461E+02 -0.16852937322E+02  0.31247820202E+02  0.83316053261E+02  0.17770000000E+01 0.  1.
</event>
<event>
 7    1  0.3234965E-006  0.3676537E+03  0.7546771E-02  0.9757119E-01
        -11   -1    0    0    0    0  0.00000000000E+00  0.00000000000E+00  0.50000000000E+03  0.50000000000E+03  0.00000000000E+00 0.  1.
         11   -1    0    0    0    0 -0.00000000000E+00 -0.00000000000E+00 -0.50000000000E+03  0.50000000000E+03  0.00000000000E+00 0.  1.
         23    2    1    2    0    0  0.11601495501E+02 -0.23959891027E+03 -0.34946113173E+03  0.43343541976E+03  0.90559085733E+02 0.  0.
        -11    1    1    2    0    0  0.13194305348E+03  0.57714977022E+02  0.29540294964E+03  0.32863793237E+03  0.00000000000E+00 0.  1.
         11    1    1    2    0    0 -0.14354454899E+03  0.18188393325E+03  0.54058182089E+02  0.23792664787E+03  0.00000000000E+00 0.  1.
        -15    1    3    3    0    0 -0.13806784647E+02 -0.22710693764E+03 -0.30164839787E+03  0.37784004829E+03  0.17770000000E+01 0.  1.
         15    1    3    3    0    0  0.25408280148E+02 -0.12491972633E+02 -0.47812733857E+02  0.55595371464E+02  0.17770000000E+01 0. -1.
</event>
<event>
 7    1  0.3234965E-006  0.5128424E+03  0.7546771E-02  0.9371524E-01
        -11   -1    0    0    0    0  0.00000000000E+00  0.00000000000E+00  0.50000000000E+03  0.50000000000E+03  0.00000000000E+00 0. -1.
         11   -1    0    0    0    0 -0.00000000000E+00 -0.00000000000E+00 -0.50000000000E+03  0.50000000000E+03  0.00000000000E+00 0. -1.
         23    2    1    2    0    0 -0.67208583941E+01  0.13360842529E+03 -0.45894302535E+03  0.48715757365E+03  0.93794561669E+02 0.  0.
        -11    1    1    2    0    0  0.42879596104E+02  0.29617135191E+02  0.18233836694E+03  0.18963943291E+03  0.00000000000E+00 0. -1.
         11    1    1    2    0    0 -0.36158737710E+02 -0.16322556048E+03  0.27660465842E+03  0.32320299343E+03  0.00000000000E+00 0. -1.
        -15    1    3    3    0    0 -0.27618495161E+02  0.53661453860E+02 -0.85451566443E+02  0.10463011441E+03  0.17770000000E+01 0.  1.
         15    1    3    3    0    0  0.20897636767E+02  0.79946971428E+02 -0.37349145891E+03  0.38252745924E+03  0.17770000000E+01 0. -1.
</event>
<event>
 6    1  0.3234965E-006  0.3711429E+03  0.7546771E-02  0.9745730E-01
        -11   -1    0    0    0    0  0.00000000000E+00  0.00000000000E+00  0.50000000000E+03  0.50000000000E+03  0.00000000000E+00 0.  1.
         11   -1    0    0    0    0 -0.00000000000E+00 -0.00000000000E+00 -0.50000000000E+03  0.50000000000E+03  0.00000000000E+00 0.  1.
        -11    1    1    2    0    0 -0.54114316678E+02 -0.35271071195E+02  0.36623317614E+03  0.37188593284E+03  0.00000000000E+00 0.  1.
         11    1    1    2    0    0  0.11887801515E+03 -0.16130832448E+03 -0.19138627085E+03  0.27709396006E+03  0.00000000000E+00 0.  1.
        -15    1    1    2    0    0 -0.11726662070E+03  0.21747155571E+03 -0.15167772396E+03  0.28992176108E+03  0.17770000000E+01 0. -1.
         15    1    1    2    0    0  0.52502922228E+02 -0.20892160033E+02 -0.23169181337E+02  0.61098346018E+02  0.17770000000E+01 0.  1.
</event>
<event>
 7    1  0.3234965E-006  0.4012561E+03  0.7546771E-02  0.9652697E-01
        -11   -1    0    0    0    0  0.00000000000E+00  0.00000000000E+00  0.50000000000E+03  0.50000000000E+03  0.00000000000E+00 0. -1.
         11   -1    0    0    0    0 -0.00000000000E+00 -0.00000000000E+00 -0.50000000000E+03  0.50000000000E+03  0.00000000000E+00 0. -1.
         23    2    1    2    0    0 -0.35828860430E+02 -0.13374055427E+03 -0.74848743911E+02  0.18219897314E+03  0.91781742472E+02 0.  0.
        -11    1    1    2    0    0 -0.54002858601E+02 -0.75736408250E+02  0.40559541158E+03  0.41612492135E+03  0.00000000000E+00 0. -1.
         11    1    1    2    0    0  0.89831719031E+02  0.20947696252E+03 -0.33074666767E+03  0.40167610552E+03  0.00000000000E+00 0. -1.
        -15    1    3    3    0    0  0.28411170291E+02 -0.29465698014E+02 -0.52132223669E+01  0.41300815648E+02  0.17770000000E+01 0. -1.
         15    1    3    3    0    0 -0.64240030720E+02 -0.10427485625E+03 -0.69635521544E+02  0.14089815749E+03  0.17770000000E+01 0.  1.
</event>
<event>
 7    1  0.3234965E-006  0.3307371E+03  0.7546771E-02  0.9886581E-01
        -11   -1    0    0    0    0  0.00000000000E+00  0.00000000000E+00  0.50000000000E+03  0.50000000000E+03  0.00000000000E+00 0.  1.
         11   -1    0    0    0    0 -0.00000000000E+00 -0.00000000000E+00 -0.50000000000E+03  0.50000000000E+03  0.00000000000E+00 0. -1.
         23    2    1    2    0    0 -0.83212811038E+02  0.11445308205E+03 -0.22934127725E+03  0.28573859026E+03  0.95001266326E+02 0.  0.
        -11    1    1    2    0    0 -0.91987138029E+02  0.10401088503E+02  0.41799623256E+03  0.42812459243E+03  0.00000000000E+00 0.  1.
         11    1    1    2    0    0  0.17519994907E+03 -0.12485417055E+03 -0.18865495531E+03  0.28613681731E+03  0.00000000000E+00 0. -1.
        -15    1    3    3    0    0 -0.21682987087E+02  0.24642887388E+01  0.14360108749E+01  0.21941843684E+02  0.17770000000E+01 0.  1.
         15    1    3    3    0    0 -0.61529823951E+02  0.11198879331E+03 -0.23077728813E+03  0.26379674658E+03  0.17770000000E+01 0. -1.
</event>
<event>
 7    1  0.3234965E-006  0.3725837E+03  0.7546771E-02  0.9741067E-01
        -11   -1    0    0    0    0  0.00000000000E+00  0.00000000000E+00  0.50000000000E+03  0.50000000000E+03  0.00000000000E+00 0. -1.
         11   -1    0    0    0    0 -0.00000000000E+00 -0.00000000000E+00 -0.50000000000E+03  0.50000000000E+03  0.00000000000E+00 0.  1.
         23    2    1    2    0    0  0.84552142759E+01  0.11837413723E+03 -0.42992232478E+03  0.45517376881E+03  0.90917696071E+02 0.  0.
        -11    1    1    2    0    0  0.64954645106E+02  0.58775451065E+02  0.30167282376E+03  0.31413397168E+03  0.00000000000E+00 0. -1.
         11    1    1    2    0    0 -0.73409859381E+02 -0.17714958829E+03  0.12824950102E+03  0.23069225951E+03  0.00000000000E+00 0.  1.
        -15    1    3    3    0    0 -0.10633505803E+02  0.12770342774E+03 -0.37120165495E+03  0.39270225779E+03  0.17770000000E+01 0.  1.
         15    1    3    3    0    0  0.19088720079E+02 -0.93292905178E+01 -0.58720669824E+02  0.62471511022E+02  0.17770000000E+01 0. -1.
</event>
<event>
 7    1  0.3234965E-006  0.5100066E+03  0.7546771E-02  0.9377693E-01
        -11   -1    0    0    0    0  0.00000000000E+00  0.00000000000E+00  0.50000000000E+03  0.50000000000E+03  0.00000000000E+00 0.  1.
         11   -1    0    0    0    0 -0.00000000000E+00 -0.00000000000E+00 -0.50000000000E+03  0.50000000000E+03  0.00000000000E+00 0. -1.
         23    2    1    2    0    0  0.24291913444E+03  0.71822183709E+02  0.27088200690E+03  0.37906492628E+03  0.78390208054E+02 0.  0.
        -11    1    1    2    0    0  0.31719431389E+02  0.54571157533E+02  0.11472393353E+03  0.13094164535E+03  0.00000000000E+00 0.  1.
         11    1    1    2    0    0 -0.27463856583E+03 -0.12639334124E+03 -0.38560594043E+03  0.48999342837E+03  0.00000000000E+00 0. -1.
        -15    1    3    3    0    0  0.10158004133E+03  0.68452080567E+02  0.10735026344E+03  0.16288471052E+03  0.17770000000E+01 0. -1.
         15    1    3    3    0    0  0.14133909311E+03  0.33701031421E+01  0.16353174346E+03  0.21618021576E+03  0.17770000000E+01 0.  1.
</event>
<event>
 7    1  0.3234965E-006  0.4685825E+03  0.7546771E-02  0.9472990E-01
        -11   -1    0    0    0    0  0.00000000000E+00  0.00000000000E+00  0.50000000000E+03  0.50000000000E+03  0.00000000000E+00 0.  1.
         11   -1    0    0    0    0 -0.00000000000E+00 -0.00000000000E+00 -0.50000000000E+03  0.50000000000E+03  0.00000000000E+00 0. -1.
         23    2    1    2    0    0  0.29718341180E+02  0.10203257593E+03  0.41774180051E+03  0.44058874418E+03  0.91194315858E+02 0.  0.
        -11    1    1    2    0    0 -0.20617748859E+02 -0.14444137230E+02  0.64477412476E+02  0.69217493367E+02  0.00000000000E+00 0.  1.
         11    1    1    2    0    0 -0.91005923208E+01 -0.87588438704E+02 -0.48221921299E+03  0.49019376246E+03  0.00000000000E+00 0. -1.
        -15    1    3    3    0    0  0.59066803587E+02  0.77617659036E+02  0.24579751675E+03  0.26444841700E+03  0.17770000000E+01 0.  1.
         15    1    3    3    0    0 -0.29348462407E+02  0.24414916899E+02  0.17194428376E+03  0.17614032718E+03  0.17770000000E+01 0. -1.
</event>
<event>
 7    1  0.3234965E-006  0.5122138E+03  0.7546771E-02  0.9372888E-01
        -11   -1    0    0    0    0  0.00000000000E+00  0.00000000000E+00  0.50000000000E+03  0.50000000000E+03  0.00000000000E+00 0. -1.
         11   -1    0    0    0    0 -0.00000000000E+00 -0.00000000000E+00 -0.50000000000E+03  0.50000000000E+03  0.00000000000E+00 0.  1.
         23    2    1    2    0    0  0.48226198114E+02 -0.30338074341E+01  0.16232188582E+03  0.19227212986E+03  0.91023113183E+02 0.  0.
        -11    1    1    2    0    0  0.61208226166E+02 -0.49253040173E+02  0.31014567992E+03  0.31994163794E+03  0.00000000000E+00 0. -1.
         11    1    1    2    0    0 -0.10943442428E+03  0.52286847607E+02 -0.47246756574E+03  0.48778623220E+03  0.00000000000E+00 0.  1.
        -15    1    3    3    0    0 -0.34089077779E+01 -0.36174594319E+02  0.91991214068E+02  0.98923016134E+02  0.17770000000E+01 0.  1.
         15    1    3    3    0    0  0.51635105892E+02  0.33140786884E+02  0.70330671753E+02  0.93349113729E+02  0.17770000000E+01 0. -1.
</event>
<event>
 7    1  0.3234965E-006  0.4175615E+03  0.7546771E-02  0.9605889E-01
        -11   -1    0    0    0    0  0.00000000000E+00  0.00000000000E+00  0.50000000000E+03  0.50000000000E+03  0.00000000000E+00 0.  1.
         11   -1    0    0    0    0 -0.00000000000E+00 -0.00000000000E+00 -0.50000000000E+03  0.50000000000E+03  0.00000000000E+00 0. -1.
         23    2    1    2    0    0  0.35991581592E+02  0.11439484411E+03  0.36836928311E+02  0.15550667523E+03  0.91890110728E+02 0.  0.
        -11    1    1    2    0    0 -0.89131116455E+02 -0.45968138540E+02  0.39321451959E+03  0.40580177932E+03  0.00000000000E+00 0.  1.
         11    1    1    2    0    0  0.53139534864E+02 -0.68426705573E+02 -0.43005144790E+03  0.43869154545E+03  0.00000000000E+00 0. -1.
        -15    1    3    3    0    0  0.22947196902E+02  0.89867932744E+02 -0.17546268902E+02  0.94413179497E+02  0.17770000000E+01 0. -1.
         15    1    3    3    0    0  0.13044384689E+02  0.24526911369E+02  0.54383197213E+02  0.61093495737E+02  0.17770000000E+01 0.  1.
</event>
<event>
 7    1  0.3234965E-006  0.4730488E+03  0.7546771E-02  0.9462220E-01
        -11   -1    0    0    0    0  0.00000000000E+00  0.00000000000E+00  0.50000000000E+03  0.50000000000E+03  0.00000000000E+00 0.  1.
         11   -1    0    0    0    0 -0.00000000000E+00 -0.00000000000E+00 -0.50000000000E+03  0.50000000000E+03  0.00000000000E+00 0. -1.
         23    2    1    2    0    0 -0.45786092873E+02  0.12789998435E+03  0.42031841637E+03  0.45101383299E+03  0.91055664910E+02 0.  0.
        -11    1    1    2    0    0 -0.36372900997E+02  0.36832708196E+02  0.31852278185E+02  0.60779963356E+02  0.00000000000E+00 0.  1.
         11    1    1    2    0    0  0.82158993870E+02 -0.16473269255E+03 -0.45217069456E+03  0.48820620365E+03  0.00000000000E+00 0. -1.
        -15    1    3    3    0    0 -0.30958904171E+02  0.56411476871E+01  0.38138036878E+02  0.49476700381E+02  0.17770000000E+01 0. -1.
         15    1    3    3    0    0 -0.14827188702E+02  0.12225883666E+03  0.38218037949E+03  0.40153713261E+03  0.17770000000E+01 0.  1.
</event>
<event>
 7    1  0.3234965E-006  0.4108117E+03  0.7546771E-02  0.9624984E-01
        -11   -1    0    0    0    0  0.00000000000E+00  0.00000000000E+00  0.50000000000E+03  0.50000000000E+03  0.00000000000E+00 0. -1.
         11   -1    0    0    0    0 -0.00000000000E+00 -0.00000000000E+00 -0.50000000000E+03  0.50000000000E+03  0.00000000000E+00 0.  1.
         23    2    1    2    0    0  0.10297663218E+01 -0.11333501804E+03 -0.95878103136E+01  0.17054056422E+03  0.12706797868E+03 0.  0.
        -11    1    1    2    0    0 -0.70367293960E+02  0.10358772588E+02  0.40696919250E+03  0.41313772991E+03  0.00000000000E+00 0. -1.
         11    1    1    2    0    0  0.69337527639E+02  0.10297624545E+03 -0.39738138219E+03  0.41632170587E+03  0.00000000000E+00 0.  1.
        -15    1    3    3    0    0 -0.49213173890E+02 -0.59525538866E+02 -0.44379121042E+02  0.89094839217E+02  0.17770000000E+01 0. -1.
         15    1    3    3    0    0  0.50242940212E+02 -0.53809479176E+02  0.34791310728E+02  0.81445725004E+02  0.17770000000E+01 0. -1.
</event>
<event>
 7    1  0.3234965E-006  0.4148650E+03  0.7546771E-02  0.9613471E-01
        -11   -1    0    0    0    0  0.00000000000E+00  0.00000000000E+00  0.50000000000E+03  0.50000000000E+03  0.00000000000E+00 0. -1.
         11   -1    0    0    0    0 -0.00000000000E+00 -0.00000000000E+00 -0.50000000000E+03  0.50000000000E+03  0.00000000000E+00 0. -1.
         23    2    1    2    0    0  0.70834770905E+02 -0.20246980814E+02 -0.37571230685E+03  0.39315612938E+03  0.89356026920E+02 0.  0.
        -11    1    1    2    0    0  0.78419094279E+02 -0.10256787041E+02  0.43592184558E+03  0.44303793459E+03  0.00000000000E+00 0. -1.
         11    1    1    2    0    0 -0.14925386518E+03  0.30503767855E+02 -0.60209538731E+02  0.16380593603E+03  0.00000000000E+00 0. -1.
        -15    1    3    3    0    0  0.75508175432E+02 -0.45965779862E+02 -0.26399721509E+03  0.27840981444E+03  0.17770000000E+01 0. -1.
         15    1    3    3    0    0 -0.46734045273E+01  0.25718799048E+02 -0.11171509176E+03  0.11474631493E+03  0.17770000000E+01 0.  1.
</event>
<event>
 7    1  0.3234965E-006  0.5181671E+03  0.7546771E-02  0.9360053E-01
        -11   -1    0    0    0    0  0.00000000000E+00  0.00000000000E+00  0.50000000000E+03  0.50000000000E+03  0.00000000000E+00 0.  1.
         11   -1    0    0    0    0 -0.00000000000E+00 -0.00000000000E+00 -0.50000000000E+03  0.50000000000E+03  0.00000000000E+00 0. -1.
         23    2    1    2    0    0  0.27247818283E+02 -0.10363320175E+03  0.99036221425E+02  0.17178683191E+03  0.90665640445E+02 0.  0.
        -11    1    1    2    0    0  0.36075105251E+02 -0.12070141544E+03  0.32265932717E+03  0.34638026260E+03  0.00000000000E+00 0.  1.
         11    1    1    2    0    0 -0.63322923533E+02  0.22433461718E+03 -0.42169554859E+03  0.48183290549E+03  0.00000000000E+00 0. -1.
        -15    1    3    3    0    0  0.59553314375E+02 -0.81084088503E+02  0.65929050303E+02  0.12029556960E+03  0.17770000000E+01 0.  1.
         15    1    3    3    0    0 -0.32305496092E+02 -0.22549113246E+02  0.33107171122E+02  0.51491262314E+02  0.17770000000E+01 0. -1.
</event>
<event>
 7    1  0.4173518E-006  0.4697948E+03  0.7546771E-02  0.9470054E-01
        -11   -1    0    0    0    0  0.00000000000E+00  0.00000000000E+00  0.50000000000E+03  0.50000000000E+03  0.00000000000E+00 0.  1.
         11   -1    0    0    0    0 -0.00000000000E+00 -0.00000000000E+00 -0.50000000000E+03  0.50000000000E+03  0.00000000000E+00 0.  1.
         23    2    1    2    0    0 -0.43458628766E+02  0.99334069447E+02  0.41672621932E+03  0.44055284393E+03  0.93113675988E+02 0.  0.
        -11    1    1    2    0    0  0.10489121515E+02 -0.87805732790E+01  0.65894375615E+02  0.67299248695E+02  0.00000000000E+00 0.  1.
         11    1    1    2    0    0  0.32969507252E+02 -0.90553496168E+02 -0.48262059494E+03  0.49214790738E+03  0.00000000000E+00 0.  1.
        -15    1    3    3    0    0  0.21829645448E+02 -0.15769716423E+01  0.49434555675E+02  0.54092081526E+02  0.17770000000E+01 0.  1.
         15    1    3    3    0    0 -0.65288274215E+02  0.10091104109E+03  0.36729166365E+03  0.38646076240E+03  0.17770000000E+01 0. -1.
</event>
<event>
 7    1  0.3234965E-006  0.3560109E+03  0.7546771E-02  0.9796122E-01
        -11   -1    0    0    0    0  0.00000000000E+00  0.00000000000E+00  0.50000000000E+03  0.50000000000E+03  0.00000000000E+00 0.  1.
         11   -1    0    0    0    0 -0.00000000000E+00 -0.00000000000E+00 -0.50000000000E+03  0.50000000000E+03  0.00000000000E+00 0.  1.
         23    2    1    2    0    0  0.17839904685E+03  0.10955044249E+02 -0.14939927644E+03  0.25083944027E+03  0.93027136291E+02 0.  0.
        -11    1    1    2    0    0  0.93655054079E+02  0.76379430153E+02  0.36932454171E+03  0.38859452340E+03  0.00000000000E+00 0.  1.
         11    1    1    2    0    0 -0.27205410093E+03 -0.87334474402E+02 -0.21992526527E+03  0.36056603633E+03  0.00000000000E+00 0.  1.
        -15    1    3    3    0    0  0.94731475053E+02 -0.38834585695E+02 -0.60200139195E+02  0.11878296132E+03  0.17770000000E+01 0.  1.
         15    1    3    3    0    0  0.83667571793E+02  0.49789629945E+02 -0.89199137241E+02  0.13205647895E+03  0.17770000000E+01 0. -1.
</event>
<event>
 7    1  0.3234965E-006  0.4488363E+03  0.7546771E-02  0.9522184E-01
        -11   -1    0    0    0    0  0.00000000000E+00  0.00000000000E+00  0.50000000000E+03  0.50000000000E+03  0.00000000000E+00 0.  1.
         11   -1    0    0    0    0 -0.00000000000E+00 -0.00000000000E+00 -0.50000000000E+03  0.50000000000E+03  0.00000000000E+00 0. -1.
         23    2    1    2    0    0  0.50213636215E+02 -0.24567686795E+01 -0.41012982671E+03  0.42251365841E+03  0.88226253547E+02 0.  0.
        -11    1    1    2    0    0 -0.37625413566E+02 -0.87339268808E+02  0.46290462507E+03  0.47257222890E+03  0.00000000000E+00 0.  1.
         11    1    1    2    0    0 -0.12588222650E+02  0.89796037487E+02 -0.52774798359E+02  0.10491411268E+03  0.00000000000E+00 0. -1.
        -15    1    3    3    0    0 -0.10364881461E+02  0.27495755446E+02 -0.73753485056E+02  0.79411470344E+02  0.17770000000E+01 0.  1.
         15    1    3    3    0    0  0.60578517676E+02 -0.29952524125E+02 -0.33637634165E+03  0.34310218807E+03  0.17770000000E+01 0. -1.
</event>
<event>
 7    1  0.3234965E-006  0.5394281E+03  0.7546771E-02  0.9315666E-01
        -11   -1    0    0    0    0  0.00000000000E+00  0.00000000000E+00  0.50000000000E+03  0.50000000000E+03  0.00000000000E+00 0.  1.
         11   -1    0    0    0    0 -0.00000000000E+00 -0.00000000000E+00 -0.50000000000E+03  0.50000000000E+03  0.00000000000E+00 0. -1.
         23    2    1    2    0    0  0.44867677155E+02  0.15843638311E+03  0.18470831328E+03  0.26392257908E+03  0.91775654774E+02 0.  0.
        -11    1    1    2    0    0 -0.13373702966E+02 -0.69855978836E+02  0.26616648528E+03  0.27550555638E+03  0.00000000000E+00 0.  1.
         11    1    1    2    0    0 -0.31493974189E+02 -0.88580404272E+02 -0.45087479856E+03  0.46057186454E+03  0.00000000000E+00 0. -1.
        -15    1    3    3    0    0 -0.21632531817E+02  0.88612014751E+02  0.77356533041E+02  0.11961290283E+03  0.17770000000E+01 0.  1.
         15    1    3    3    0    0  0.66500208972E+02  0.69824368358E+02  0.10735178024E+03  0.14430967625E+03  0.17770000000E+01 0. -1.
</event>
<event>
 7    1  0.3234965E-006  0.5306634E+03  0.7546771E-02  0.9333696E-01
        -11   -1    0    0    0    0  0.00000000000E+00  0.00000000000E+00  0.50000000000E+03  0.50000000000E+03  0.00000000000E+00 0. -1.
         11   -1    0    0    0    0 -0.00000000000E+00 -0.00000000000E+00 -0.50000000000E+03  0.50000000000E+03  0.00000000000E+00 0. -1.
         23    2    1    2    0    0  0.70779649642E+01 -0.84679993856E+02 -0.10223980844E+03  0.16076017314E+03  0.90388361473E+02 0.  0.
        -11    1    1    2    0    0 -0.12503166648E+03  0.42912928470E+02  0.45033585192E+03  0.46933657068E+03  0.00000000000E+00 0. -1.
         11    1    1    2    0    0  0.11795370151E+03  0.41767065386E+02 -0.34809604348E+03  0.36990325619E+03  0.00000000000E+00 0. -1.
        -15    1    3    3    0    0  0.17391802915E+02 -0.77557253895E+02 -0.11691089305E+03  0.14138216678E+03  0.17770000000E+01 0.  1.
         15    1    3    3    0    0 -0.10313837951E+02 -0.71227399615E+01  0.14671084609E+02  0.19378006359E+02  0.17770000000E+01 0. -1.
</event>
<event>
 7    1  0.3234965E-006  0.4373128E+03  0.7546771E-02  0.9552155E-01
        -11   -1    0    0    0    0  0.00000000000E+00  0.00000000000E+00  0.50000000000E+03  0.50000000000E+03  0.00000000000E+00 0. -1.
         11   -1    0    0    0    0 -0.00000000000E+00 -0.00000000000E+00 -0.50000000000E+03  0.50000000000E+03  0.00000000000E+00 0. -1.
         23    2    1    2    0    0  0.19392523337E+02 -0.22870954669E+02 -0.41856786723E+03  0.42969205247E+03  0.92396157626E+02 0.  0.
        -11    1    1    2    0    0  0.30041908775E+02  0.13885500906E+03  0.42087626147E+03  0.44420722337E+03  0.00000000000E+00 0. -1.
         11    1    1    2    0    0 -0.49434432112E+02 -0.11598405439E+03 -0.23083942355E+01  0.12610072416E+03  0.00000000000E+00 0. -1.
        -15    1    3    3    0    0 -0.37417506903E+02 -0.10998673524E+02 -0.16268996879E+03  0.16730876939E+03  0.17770000000E+01 0.  1.
         15    1    3    3    0    0  0.56810030240E+02 -0.11872281144E+02 -0.25587789844E+03  0.26238328307E+03  0.17770000000E+01 0. -1.
</event>
<event>
 7    1  0.3234965E-006  0.4744342E+03  0.7546771E-02  0.9458905E-01
        -11   -1    0    0    0    0  0.00000000000E+00  0.00000000000E+00  0.50000000000E+03  0.50000000000E+03  0.00000000000E+00 0.  1.
         11   -1    0    0    0    0 -0.00000000000E+00 -0.00000000000E+00 -0.50000000000E+03  0.50000000000E+03  0.00000000000E+00 0. -1.
         23    2    1    2    0    0  0.17036374549E+03  0.26513929367E+03  0.32088004466E+03  0.45936508919E+03  0.93432495875E+02 0.  0.
        -11    1    1    2    0    0 -0.33285484918E+02  0.17014253072E+02  0.45124486047E+02  0.58597163369E+02  0.00000000000E+00 0.  1.
         11    1    1    2    0    0 -0.13707826057E+03 -0.28215354674E+03 -0.36600453070E+03  0.48203774744E+03  0.00000000000E+00 0. -1.
        -15    1    3    3    0    0  0.16027550633E+03  0.17242364969E+03  0.22777118188E+03  0.32756834696E+03  0.17770000000E+01 0.  1.
         15    1    3    3    0    0  0.10088239154E+02  0.92715643979E+02  0.93108862774E+02  0.13179674223E+03  0.17770000000E+01 0. -1.
</event>
<event>
 7    1  0.3234965E-006  0.5123369E+03  0.7546771E-02  0.9372620E-01
        -11   -1    0    0    0    0  0.00000000000E+00  0.00000000000E+00  0.50000000000E+03  0.50000000000E+03  0.00000000000E+00 0.  1.
         11   -1    0    0    0    0 -0.00000000000E+00 -0.00000000000E+00 -0.50000000000E+03  0.50000000000E+03  0.00000000000E+00 0. -1.
         23    2    1    2    0    0 -0.47603865749E+02 -0.33117423868E+02 -0.34139762866E+03  0.35815388764E+03  0.91427427932E+02 0.  0.
        -11    1    1    2    0    0  0.17946927017E+02  0.10054037316E+03  0.47684882279E+03  0.48766305850E+03  0.00000000000E+00 0.  1.
         11    1    1    2    0    0  0.29656938732E+02 -0.67422949296E+02 -0.13545119413E+03  0.15418305386E+03  0.00000000000E+00 0. -1.
        -15    1    3    3    0    0 -0.56752959834E+02 -0.25591598073E+02 -0.34049111967E+03  0.34614041753E+03  0.17770000000E+01 0. -1.
         15    1    3    3    0    0  0.91490940856E+01 -0.75258257956E+01 -0.90650898483E+00  0.12013470108E+02  0.17770000000E+01 0. -1.
</event>
<event>
 7    1  0.3234965E-006  0.3308569E+03  0.7546771E-02  0.9886132E-01
        -11   -1    0    0    0    0  0.00000000000E+00  0.00000000000E+00  0.50000000000E+03  0.50000000000E+03  0.00000000000E+00 0.  1.
         11   -1    0    0    0    0 -0.00000000000E+00 -0.00000000000E+00 -0.50000000000E+03  0.50000000000E+03  0.00000000000E+00 0. -1.
         23    2    1    2    0    0  0.13512516176E+03  0.27729990003E+03 -0.13936266696E+03  0.35081182987E+03  0.92157165384E+02 0.  0.
        -11    1    1    2    0    0  0.12036906412E+03 -0.53819648386E+02  0.25789451387E+03  0.28964607098E+03  0.00000000000E+00 0.  1.
         11    1    1    2    0    0 -0.25549422588E+03 -0.22348025165E+03 -0.11853184691E+03  0.35954209915E+03  0.00000000000E+00 0. -1.
        -15    1    3    3    0    0 -0.10996453945E+02  0.35613353744E+02 -0.30253579734E+02  0.48038211665E+02  0.17770000000E+01 0.  1.
         15    1    3    3    0    0  0.14612161570E+03  0.24168654629E+03 -0.10910908723E+03  0.30277361820E+03  0.17770000000E+01 0. -1.
</event>
<event>
 7    1  0.3234965E-006  0.4672238E+03  0.7546771E-02  0.9476292E-01
        -11   -1    0    0    0    0  0.00000000000E+00  0.00000000000E+00  0.50000000000E+03  0.50000000000E+03  0.00000000000E+00 0.  1.
         11   -1    0    0    0    0 -0.00000000000E+00 -0.00000000000E+00 -0.50000000000E+03  0.50000000000E+03  0.00000000000E+00 0. -1.
         23    2    1    2    0    0  0.82058949390E+02  0.51955352939E+02 -0.41761735384E+03  0.44461032804E+03  0.11764803312E+03 0.  0.
        -11    1    1    2    0    0 -0.47061251781E+02 -0.10254239542E+03  0.46452591381E+03  0.47803140993E+03  0.00000000000E+00 0.  1.
         11    1    1    2    0    0 -0.34997697609E+02  0.50587042483E+02 -0.46908559974E+02  0.77358262028E+02  0.00000000000E+00 0. -1.
        -15    1    3    3    0    0  0.58119633263E+01  0.68039400924E+02 -0.25927898601E+03  0.26812662924E+03  0.17770000000E+01 0.  1.
         15    1    3    3    0    0  0.76246986064E+02 -0.16084047985E+02 -0.15833836783E+03  0.17648369879E+03  0.17770000000E+01 0. -1.
</event>
<event>
 7    1  0.3234965E-006  0.4428313E+03  0.7546771E-02  0.9537681E-01
        -11   -1    0    0    0    0  0.00000000000E+00  0.00000000000E+00  0.50000000000E+03  0.50000000000E+03  0.00000000000E+00 0. -1.
         11   -1    0    0    0    0 -0.00000000000E+00 -0.00000000000E+00 -0.50000000000E+03  0.50000000000E+03  0.00000000000E+00 0.  1.
         23    2    1    2    0    0  0.19191254873E+02  0.54737472569E+02  0.26380037654E+02  0.11204804384E+03  0.92164866278E+02 0.  0.
        -11    1    1    2    0    0 -0.19649833655E+03 -0.12077323501E+02  0.38807172151E+03  0.43515183447E+03  0.00000000000E+00 0. -1.
         11    1    1    2    0    0  0.17730708167E+03 -0.42660149068E+02 -0.41445175916E+03  0.45280012169E+03  0.00000000000E+00 0.  1.
        -15    1    3    3    0    0 -0.14042464667E+02 -0.19499366748E+02 -0.54218290583E+01  0.24697572286E+02  0.17770000000E+01 0.  1.
         15    1    3    3    0    0  0.33233719540E+02  0.74236839317E+02  0.31801866712E+02  0.87350471559E+02  0.17770000000E+01 0. -1.
</event>
<event>
 7    1  0.3234965E-006  0.3392888E+03  0.7546771E-02  0.9855030E-01
        -11   -1    0    0    0    0  0.00000000000E+00  0.00000000000E+00  0.50000000000E+03  0.50000000000E+03  0.00000000000E+00 0.  1.
         11   -1    0    0    0    0 -0.00000000000E+00 -0.00000000000E+00 -0.50000000000E+03  0.50000000000E+03  0.00000000000E+00 0. -1.
         23    2    1    2    0    0  0.20523482028E+03 -0.97912104344E+02 -0.12280637378E+03  0.27387538724E+03  0.90654347193E+02 0.  0.
        -11    1    1    2    0    0  0.44586786869E+02  0.10430209399E+03  0.36251151666E+03  0.37984405759E+03  0.00000000000E+00 0.  1.
         11    1    1    2    0    0 -0.24982160715E+03 -0.63899896438E+01 -0.23970514288E+03  0.34628055517E+03  0.00000000000E+00 0. -1.
        -15    1    3    3    0    0  0.10623748361E+02 -0.26578312778E+02  0.67178184828E+01  0.29454329962E+02  0.17770000000E+01 0. -1.
         15    1    3    3    0    0  0.19461107192E+03 -0.71333791566E+02 -0.12952419227E+03  0.24442105728E+03  0.17770000000E+01 0.  1.
</event>
<event>
 7    1  0.3234965E-006  0.3929830E+03  0.7546771E-02  0.9677364E-01
        -11   -1    0    0    0    0  0.00000000000E+00  0.00000000000E+00  0.50000000000E+03  0.50000000000E+03  0.00000000000E+00 0.  1.
         11   -1    0    0    0    0 -0.00000000000E+00 -0.00000000000E+00 -0.50000000000E+03  0.50000000000E+03  0.00000000000E+00 0. -1.
         23    2    1    2    0    0 -0.20172090584E+03 -0.14982954160E+03 -0.30428103728E+03  0.40434725033E+03  0.88144959074E+02 0.  0.
        -11    1    1    2    0    0  0.41746606567E+02  0.67054101532E+02  0.38876126708E+03  0.39670436659E+03  0.00000000000E+00 0.  1.
         11    1    1    2    0    0  0.15997429927E+03  0.82775440069E+02 -0.84480229792E+02  0.19894838308E+03  0.00000000000E+00 0. -1.
        -15    1    3    3    0    0 -0.16442732305E+03 -0.72644185626E+02 -0.22016461200E+03  0.28423429838E+03  0.17770000000E+01 0. -1.
         15    1    3    3    0    0 -0.37293582788E+02 -0.77185355975E+02 -0.84116425288E+02  0.12011295195E+03  0.17770000000E+01 0.  1.
</event>
<event>
 7    1  0.3234965E-006  0.5106000E+03  0.7546771E-02  0.9376399E-01
        -11   -1    0    0    0    0  0.00000000000E+00  0.00000000000E+00  0.50000000000E+03  0.50000000000E+03  0.00000000000E+00 0.  1.
         11   -1    0    0    0    0 -0.00000000000E+00 -0.00000000000E+00 -0.50000000000E+03  0.50000000000E+03  0.00000000000E+00 0. -1.
         23    2    1    2    0    0  0.41667557962E+02  0.39162816409E+02 -0.40088768549E+03  0.41505180415E+03  0.91033796917E+02 0.  0.
        -11    1    1    2    0    0 -0.98683202856E+02 -0.51280435822E+02  0.47659658299E+03  0.48940000055E+03  0.00000000000E+00 0.  1.
         11    1    1    2    0    0  0.57015644895E+02  0.12117619413E+02 -0.75708897503E+02  0.95548195295E+02  0.00000000000E+00 0. -1.
        -15    1    3    3    0    0 -0.10753552590E+01 -0.27857245875E+02 -0.11038809654E+03  0.11386778351E+03  0.17770000000E+01 0.  1.
         15    1    3    3    0    0  0.42742913221E+02  0.67020062284E+02 -0.29049958895E+03  0.30118402064E+03  0.17770000000E+01 0. -1.
</event>
<event>
 7    1  0.3234965E-006  0.3409117E+03  0.7546771E-02  0.9849155E-01
        -11   -1    0    0    0    0  0.00000000000E+00  0.00000000000E+00  0.50000000000E+03  0.50000000000E+03  0.00000000000E+00 0.  1.
         11   -1    0    0    0    0 -0.00000000000E+00 -0.00000000000E+00 -0.50000000000E+03  0.50000000000E+03  0.00000000000E+00 0.  1.
         23    2    1    2    0    0 -0.16731935239E+03 -0.89015312085E+02 -0.17501424889E+03  0.27100573539E+03  0.83033907697E+02 0.  0.
        -11    1    1    2    0    0  0.60692248937E+02  0.67383287794E+02  0.43647684644E+03  0.44579826608E+03  0.00000000000E+00 0.  1.
         11    1    1    2    0    0  0.10662710346E+03  0.21632024291E+02 -0.26146259756E+03  0.28319599854E+03  0.00000000000E+00 0.  1.
        -15    1    3    3    0    0 -0.16963825254E+03 -0.73836672111E+02 -0.13776243001E+03  0.23067430660E+03  0.17770000000E+01 0.  1.
         15    1    3    3    0    0  0.23189001495E+01 -0.15178639974E+02 -0.37251818871E+02  0.40331428782E+02  0.17770000000E+01 0. -1.
</event>
<event>
 7    1  0.3234965E-006  0.5317284E+03  0.7546771E-02  0.9331486E-01
        -11   -1    0    0    0    0  0.00000000000E+00  0.00000000000E+00  0.50000000000E+03  0.50000000000E+03  0.00000000000E+00 0.  1.
         11   -1    0    0    0    0 -0.00000000000E+00 -0.00000000000E+00 -0.50000000000E+03  0.50000000000E+03  0.00000000000E+00 0. -1.
         23    2    1    2    0    0 -0.83239694266E+02  0.11956470716E+02 -0.12077163225E+03  0.17253066472E+03  0.90051314361E+02 0.  0.
        -11    1    1    2    0    0  0.46686234044E+02  0.13854760224E+03  0.44486321773E+03  0.46827163594E+03  0.00000000000E+00 0.  1.
         11    1    1    2    0    0  0.36553460222E+02 -0.15050407295E+03 -0.32409158549E+03  0.35919769934E+03  0.00000000000E+00 0. -1.
        -15    1    3    3    0    0  0.17214883445E+01  0.16139742765E+02  0.80052978419E+01  0.18185085680E+02  0.17770000000E+01 0. -1.
         15    1    3    3    0    0 -0.84961182610E+02 -0.41832720490E+01 -0.12877693009E+03  0.15434557904E+03  0.17770000000E+01 0.  1.
</event>
<event>
 7    1  0.3234965E-006  0.5178345E+03  0.7546771E-02  0.9360765E-01
        -11   -1    0    0    0    0  0.00000000000E+00  0.00000000000E+00  0.50000000000E+03  0.50000000000E+03  0.00000000000E+00 0. -1.
         11   -1    0    0    0    0 -0.00000000000E+00 -0.00000000000E+00 -0.50000000000E+03  0.50000000000E+03  0.00000000000E+00 0.  1.
         23    2    1    2    0    0 -0.45748251706E+02  0.41662108442E+02 -0.19943875881E+03  0.22768500343E+03  0.90752457029E+02 0.  0.
        -11    1    1    2    0    0  0.22193523271E+03 -0.10925328546E+02  0.42791228252E+03  0.48216546107E+03  0.00000000000E+00 0. -1.
         11    1    1    2    0    0 -0.17618698101E+03 -0.30736779896E+02 -0.22847352371E+03  0.29014953550E+03  0.00000000000E+00 0.  1.
        -15    1    3    3    0    0 -0.31398162678E+02 -0.21162499484E+02 -0.11727536185E+03  0.12324919565E+03  0.17770000000E+01 0.  1.
         15    1    3    3    0    0 -0.14350089028E+02  0.62824607926E+02 -0.82163396962E+02  0.10443580777E+03  0.17770000000E+01 0. -1.
</event>
<event>
 7    1  0.3234965E-006  0.4266303E+03  0.7546771E-02  0.9580832E-01
        -11   -1    0    0    0    0  0.00000000000E+00  0.00000000000E+00  0.50000000000E+03  0.50000000000E+03  0.00000000000E+00 0.  1.
         11   -1    0    0    0    0 -0.00000000000E+00 -0.00000000000E+00 -0.50000000000E+03  0.50000000000E+03  0.00000000000E+00 0.  1.
         23    2    1    2    0    0 -0.77193619065E+02 -0.14320938514E+03 -0.38482140390E+03  0.42720319185E+03  0.89147470052E+02 0.  0.
        -11    1    1    2    0    0 -0.61692911754E+02  0.11386699854E+03  0.40880944562E+03  0.42883198522E+03  0.00000000000E+00 0.  1.
         11    1    1    2    0    0  0.13888653082E+03  0.29342386597E+02 -0.23988041726E+02  0.14396482293E+03  0.00000000000E+00 0.  1.
        -15    1    3    3    0    0  0.15429940683E+02 -0.37788655463E+02 -0.13028505687E+03  0.13654090714E+03  0.17770000000E+01 0.  1.
         15    1    3    3    0    0 -0.92623559747E+02 -0.10542072967E+03 -0.25453634703E+03  0.29066228471E+03  0.17770000000E+01 0. -1.
</event>
<event>
 7    1  0.3234965E-006  0.3438773E+03  0.7546771E-02  0.9838509E-01
        -11   -1    0    0    0    0  0.00000000000E+00  0.00000000000E+00  0.50000000000E+03  0.50000000000E+03  0.00000000000E+00 0.  1.
         11   -1    0    0    0    0 -0.00000000000E+00 -0.00000000000E+00 -0.50000000000E+03  0.50000000000E+03  0.00000000000E+00 0. -1.
         23    2    1    2    0    0  0.12023260719E+03  0.51850290253E+02 -0.22699437586E+03  0.27751449261E+03  0.91342840500E+02 0.  0.
        -11    1    1    2    0    0 -0.15168433992E+03  0.16182896095E+03  0.39219320226E+03  0.45056881770E+03  0.00000000000E+00 0.  1.
         11    1    1    2    0    0  0.31451732735E+02 -0.21367925120E+03 -0.16519882641E+03  0.27191668969E+03  0.00000000000E+00 0. -1.
        -15    1    3    3    0    0  0.92800615270E+02 -0.85379380417E+01 -0.13714723896E+03  0.16582332003E+03  0.17770000000E+01 0. -1.
         15    1    3    3    0    0  0.27431991916E+02  0.60388228295E+02 -0.89847136892E+02  0.11169117259E+03  0.17770000000E+01 0.  1.
</event>
<event>
 7    1  0.3234965E-006  0.4258023E+03  0.7546771E-02  0.9583092E-01
        -11   -1    0    0    0    0  0.00000000000E+00  0.00000000000E+00  0.50000000000E+03  0.50000000000E+03  0.00000000000E+00 0.  1.
         11   -1    0    0    0    0 -0.00000000000E+00 -0.00000000000E+00 -0.50000000000E+03  0.50000000000E+03  0.00000000000E+00 0. -1.
         23    2    1    2    0    0  0.31749066984E+02  0.10022703145E+03 -0.24744379159E+02  0.14157338446E+03  0.91527470195E+02 0.  0.
        -11    1    1    2    0    0  0.55607991366E+02  0.62528780917E+02  0.41675656187E+03  0.42507426294E+03  0.00000000000E+00 0.  1.
         11    1    1    2    0    0 -0.87357058350E+02 -0.16275581237E+03 -0.39201218272E+03  0.43335235260E+03  0.00000000000E+00 0. -1.
        -15    1    3    3    0    0  0.28689833411E+01  0.11172100446E+02  0.30636692637E+02  0.32784318790E+02  0.17770000000E+01 0.  1.
         15    1    3    3    0    0  0.28880083643E+02  0.89054931008E+02 -0.55381071796E+02  0.10878906567E+03  0.17770000000E+01 0. -1.
</event>
<event>
 7    1  0.3234965E-006  0.5212499E+03  0.7546771E-02  0.9353478E-01
        -11   -1    0    0    0    0  0.00000000000E+00  0.00000000000E+00  0.50000000000E+03  0.50000000000E+03  0.00000000000E+00 0.  1.
         11   -1    0    0    0    0 -0.00000000000E+00 -0.00000000000E+00 -0.50000000000E+03  0.50000000000E+03  0.00000000000E+00 0. -1.
         23    2    1    2    0    0  0.51034352828E+02 -0.45838217035E+02 -0.31449173620E+03  0.33440323556E+03  0.90635669064E+02 0.  0.
        -11    1    1    2    0    0 -0.84895644610E+02 -0.55300760950E+02  0.46790619850E+03  0.47875009684E+03  0.00000000000E+00 0.  1.
         11    1    1    2    0    0  0.33861291782E+02  0.10113897798E+03 -0.15341446230E+03  0.18684666760E+03  0.00000000000E+00 0. -1.
        -15    1    3    3    0    0  0.54511934527E+02 -0.18297154780E+02 -0.29470414840E+03  0.30026659770E+03  0.17770000000E+01 0. -1.
         15    1    3    3    0    0 -0.34775816986E+01 -0.27541062256E+02 -0.19787587792E+02  0.34136637859E+02  0.17770000000E+01 0.  1.
</event>
<event>
 7    1  0.3234965E-006  0.3351101E+03  0.7546771E-02  0.9870321E-01
        -11   -1    0    0    0    0  0.00000000000E+00  0.00000000000E+00  0.50000000000E+03  0.50000000000E+03  0.00000000000E+00 0.  1.
         11   -1    0    0    0    0 -0.00000000000E+00 -0.00000000000E+00 -0.50000000000E+03  0.50000000000E+03  0.00000000000E+00 0. -1.
         23    2    1    2    0    0  0.15455217288E+03  0.18347073248E+03 -0.10943829666E+03  0.27977792656E+03  0.93547119645E+02 0.  0.
        -11    1    1    2    0    0 -0.23653098711E+02  0.64432490674E+02  0.34640993405E+03  0.35314424438E+03  0.00000000000E+00 0.  1.
         11    1    1    2    0    0 -0.13089907417E+03 -0.24790322315E+03 -0.23697163738E+03  0.36707782907E+03  0.00000000000E+00 0. -1.
        -15    1    3    3    0    0  0.28796559655E+02  0.10914652832E+02  0.13185381627E+02  0.33546736236E+02  0.17770000000E+01 0.  1.
         15    1    3    3    0    0  0.12575561322E+03  0.17255607965E+03 -0.12262367829E+03  0.24623119032E+03  0.17770000000E+01 0. -1.
</event>
<event>
 7    1  0.3234965E-006  0.4183061E+03  0.7546771E-02  0.9603807E-01
        -11   -1    0    0    0    0  0.00000000000E+00  0.00000000000E+00  0.50000000000E+03  0.50000000000E+03  0.00000000000E+00 0.  1.
         11   -1    0    0    0    0 -0.00000000000E+00 -0.00000000000E+00 -0.50000000000E+03  0.50000000000E+03  0.00000000000E+00 0.  1.
         23    2    1    2    0    0  0.11267321860E+03 -0.96093623619E+02 -0.36085169433E+03  0.40031172381E+03  0.90034950062E+02 0.  0.
        -11    1    1    2    0    0 -0.68518246418E+02 -0.36712483690E+02  0.43459673629E+03  0.44149391813E+03  0.00000000000E+00 0.  1.
         11    1    1    2    0    0 -0.44154972182E+02  0.13280610731E+03 -0.73745041966E+02  0.15819435806E+03  0.00000000000E+00 0.  1.
        -15    1    3    3    0    0  0.75756576342E+02 -0.59951273220E+02 -0.32045537055E+03  0.33470586530E+03  0.17770000000E+01 0.  1.
         15    1    3    3    0    0  0.36916642258E+02 -0.36142350399E+02 -0.40396323776E+02  0.65605858516E+02  0.17770000000E+01 0. -1.
</event>
<event>
 7    1  0.3234965E-006  0.4748970E+03  0.7546771E-02  0.9457801E-01
        -11   -1    0    0    0    0  0.00000000000E+00  0.00000000000E+00  0.50000000000E+03  0.50000000000E+03  0.00000000000E+00 0. -1.
         11   -1    0    0    0    0 -0.00000000000E+00 -0.00000000000E+00 -0.50000000000E+03  0.50000000000E+03  0.00000000000E+00 0.  1.
         23    2    1    2    0    0  0.61259679171E+02  0.63180679346E+02 -0.44594400700E+03  0.46377316699E+03  0.92059472641E+02 0.  0.
        -11    1    1    2    0    0 -0.35514008855E+02 -0.11114888581E+03  0.46432878505E+03  0.47876564232E+03  0.00000000000E+00 0. -1.
         11    1    1    2    0    0 -0.25745670316E+02  0.47968206465E+02 -0.18384778048E+02  0.57461190689E+02  0.00000000000E+00 0.  1.
        -15    1    3    3    0    0  0.18868598935E+02 -0.28393564426E+01 -0.11609993331E+02  0.22406151944E+02  0.17770000000E+01 0. -1.
         15    1    3    3    0    0  0.42391080235E+02  0.66020035788E+02 -0.43433401367E+03  0.44136701504E+03  0.17770000000E+01 0.  1.
</event>
<event>
 7    1  0.3234965E-006  0.4520439E+03  0.7546771E-02  0.9514011E-01
        -11   -1    0    0    0    0  0.00000000000E+00  0.00000000000E+00  0.50000000000E+03  0.50000000000E+03  0.00000000000E+00 0.  1.
         11   -1    0    0    0    0 -0.00000000000E+00 -0.00000000000E+00 -0.50000000000E+03  0.50000000000E+03  0.00000000000E+00 0.  1.
         23    2    1    2    0    0 -0.32620441894E+02 -0.19533287776E+03 -0.39255492309E+03  0.44841505162E+03  0.88077605030E+02 0.  0.
        -11    1    1    2    0    0  0.35615716765E+02  0.10736575579E+03  0.43810913181E+03  0.45247706701E+03  0.00000000000E+00 0.  1.
         11    1    1    2    0    0 -0.29952748702E+01  0.87967121966E+02 -0.45554208712E+02  0.99107881372E+02  0.00000000000E+00 0.  1.
        -15    1    3    3    0    0 -0.44748386633E+02 -0.16206414415E+03 -0.24833567125E+03  0.29990159765E+03  0.17770000000E+01 0.  1.
         15    1    3    3    0    0  0.12127944738E+02 -0.33268733610E+02 -0.14421925184E+03  0.14851345397E+03  0.17770000000E+01 0. -1.
</event>
<event>
 7    1  0.3234965E-006  0.4699977E+03  0.7546771E-02  0.9469564E-01
        -11   -1    0    0    0    0  0.00000000000E+00  0.00000000000E+00  0.50000000000E+03  0.50000000000E+03  0.00000000000E+00 0.  1.
         11   -1    0    0    0    0 -0.00000000000E+00 -0.00000000000E+00 -0.50000000000E+03  0.50000000000E+03  0.00000000000E+00 0. -1.
         23    2    1    2    0    0 -0.10902163780E+03  0.29432682947E+02 -0.42263084253E+03  0.44768947129E+03  0.95168447068E+02 0.  0.
        -11    1    1    2    0    0  0.90496336209E+02  0.65100053507E+01  0.47643972901E+03  0.48500183754E+03  0.00000000000E+00 0.  1.
         11    1    1    2    0    0  0.18525301595E+02 -0.35942688298E+02 -0.53808886486E+02  0.67308691163E+02  0.00000000000E+00 0. -1.
        -15    1    3    3    0    0 -0.75651024809E+02  0.32363816410E+02 -0.39708324135E+03  0.40552281373E+03  0.17770000000E+01 0. -1.
         15    1    3    3    0    0 -0.33370612995E+02 -0.29311334627E+01 -0.25547601178E+02  0.42166657563E+02  0.17770000000E+01 0.  1.
</event>
<event>
 7    1  0.3234965E-006  0.4627195E+03  0.7546771E-02  0.9487323E-01
        -11   -1    0    0    0    0  0.00000000000E+00  0.00000000000E+00  0.50000000000E+03  0.50000000000E+03  0.00000000000E+00 0. -1.
         11   -1    0    0    0    0 -0.00000000000E+00 -0.00000000000E+00 -0.50000000000E+03  0.50000000000E+03  0.00000000000E+00 0. -1.
         23    2    1    2    0    0 -0.69757184015E+02 -0.10896539998E+02 -0.44471522102E+03  0.45951400574E+03  0.91633478375E+02 0.  0.
        -11    1    1    2    0    0  0.10009318343E+03  0.85072558616E+02  0.44112209625E+03  0.46026588989E+03  0.00000000000E+00 0. -1.
         11    1    1    2    0    0 -0.30335999416E+02 -0.74176018618E+02  0.35931247716E+01  0.80220104365E+02  0.00000000000E+00 0. -1.
        -15    1    3    3    0    0 -0.59896245701E+02 -0.45125672485E+02 -0.23189418900E+03  0.24372517143E+03  0.17770000000E+01 0. -1.
         15    1    3    3    0    0 -0.98609383144E+01  0.34229132487E+02 -0.21282103202E+03  0.21578883431E+03  0.17770000000E+01 0.  1.
</event>
<event>
 7    1  0.3234965E-006  0.4068498E+03  0.7546771E-02  0.9636376E-01
        -11   -1    0    0    0    0  0.00000000000E+00  0.00000000000E+00  0.50000000000E+03  0.50000000000E+03  0.00000000000E+00 0.  1.
         11   -1    0    0    0    0 -0.00000000000E+00 -0.00000000000E+00 -0.50000000000E+03  0.50000000000E+03  0.00000000000E+00 0. -1.
         23    2    1    2    0    0 -0.21647550593E+02 -0.52308502812E+02 -0.13646537292E+03  0.17299662280E+03  0.90001319875E+02 0.  0.
        -11    1    1    2    0    0 -0.60779922932E+02 -0.20604492452E+03  0.39671426168E+03  0.45114400735E+03  0.00000000000E+00 0.  1.
         11    1    1    2    0    0  0.82427473525E+02  0.25835342733E+03 -0.26024888876E+03  0.37585936985E+03  0.00000000000E+00 0. -1.
        -15    1    3    3    0    0 -0.54378188706E+02 -0.22055554578E+02 -0.56765795716E+02  0.81663628299E+02  0.17770000000E+01 0.  1.
         15    1    3    3    0    0  0.32730638113E+02 -0.30252948234E+02 -0.79699577207E+02  0.91332994498E+02  0.17770000000E+01 0. -1.
</event>
<event>
 7    1  0.3234965E-006  0.4371422E+03  0.7546771E-02  0.9552607E-01
        -11   -1    0    0    0    0  0.00000000000E+00  0.00000000000E+00  0.50000000000E+03  0.50000000000E+03  0.00000000000E+00 0. -1.
         11   -1    0    0    0    0 -0.00000000000E+00 -0.00000000000E+00 -0.50000000000E+03  0.50000000000E+03  0.00000000000E+00 0.  1.
         23    2    1    2    0    0 -0.11289483441E+03  0.14396167480E+03 -0.36083364663E+03  0.41222665501E+03  0.79118184483E+02 0.  0.
        -11    1    1    2    0    0  0.81859148387E+02 -0.65333267414E+02  0.45169053891E+03  0.46367413012E+03  0.00000000000E+00 0. -1.
         11    1    1    2    0    0  0.31035686020E+02 -0.78628407388E+02 -0.90856892280E+02  0.12409921486E+03  0.00000000000E+00 0.  1.
        -15    1    3    3    0    0 -0.88756380779E+02  0.14977188414E+03 -0.30742485923E+03  0.35330229862E+03  0.17770000000E+01 0.  1.
         15    1    3    3    0    0 -0.24138453628E+02 -0.58102093365E+01 -0.53408787398E+02  0.58924356394E+02  0.17770000000E+01 0. -1.
</event>
<event>
 7    1  0.3234965E-006  0.4480685E+03  0.7546771E-02  0.9524151E-01
        -11   -1    0    0    0    0  0.00000000000E+00  0.00000000000E+00  0.50000000000E+03  0.50000000000E+03  0.00000000000E+00 0. -1.
         11   -1    0    0    0    0 -0.00000000000E+00 -0.00000000000E+00 -0.50000000000E+03  0.50000000000E+03  0.00000000000E+00 0.  1.
         23    2    1    2    0    0  0.29796489460E+02  0.17340505022E+02  0.32057666708E+02  0.10262740820E+03  0.91193020677E+02 0.  0.
        -11    1    1    2    0    0 -0.12583347267E+03  0.34428176574E+03  0.23701632984E+03  0.43650972231E+03  0.00000000000E+00 0. -1.
         11    1    1    2    0    0  0.96036983210E+02 -0.36162227076E+03 -0.26907399655E+03  0.46086286949E+03  0.00000000000E+00 0.  1.
        -15    1    3    3    0    0 -0.28785770295E+02  0.44538321975E+00  0.29970755067E+02  0.41595947230E+02  0.17770000000E+01 0.  1.
         15    1    3    3    0    0  0.58582259755E+02  0.16895121802E+02  0.20869116412E+01  0.61031460968E+02  0.17770000000E+01 0. -1.
</event>
<event>
 7    1  0.3234965E-006  0.4207070E+03  0.7546771E-02  0.9597122E-01
        -11   -1    0    0    0    0  0.00000000000E+00  0.00000000000E+00  0.50000000000E+03  0.50000000000E+03  0.00000000000E+00 0.  1.
         11   -1    0    0    0    0 -0.00000000000E+00 -0.00000000000E+00 -0.50000000000E+03  0.50000000000E+03  0.00000000000E+00 0.  1.
         23    2    1    2    0    0  0.10205703063E+02 -0.18458725123E+02 -0.39757675071E+03  0.40819913607E+03  0.90079859407E+02 0.  0.
        -11    1    1    2    0    0 -0.59214247877E+02  0.16459142770E+03  0.40114999243E+03  0.43762767468E+03  0.00000000000E+00 0.  1.
         11    1    1    2    0    0  0.49008544813E+02 -0.14613270258E+03 -0.35732417118E+01  0.15417318925E+03  0.00000000000E+00 0.  1.
        -15    1    3    3    0    0 -0.23412206564E+01 -0.51997492840E+02 -0.29438662675E+03  0.29895796413E+03  0.17770000000E+01 0.  1.
         15    1    3    3    0    0  0.12546923720E+02  0.33538767717E+02 -0.10319012396E+03  0.10924117194E+03  0.17770000000E+01 0. -1.
</event>
<event>
 7    1  0.3234965E-006  0.5153646E+03  0.7546771E-02  0.9366072E-01
        -11   -1    0    0    0    0  0.00000000000E+00  0.00000000000E+00  0.50000000000E+03  0.50000000000E+03  0.00000000000E+00 0. -1.
         11   -1    0    0    0    0 -0.00000000000E+00 -0.00000000000E+00 -0.50000000000E+03  0.50000000000E+03  0.00000000000E+00 0.  1.
         23    2    1    2    0    0  0.70159090344E+02 -0.67635628211E+02  0.32807959969E+03  0.35188219770E+03  0.81780078016E+02 0.  0.
        -11    1    1    2    0    0 -0.65490634377E+02 -0.22115700974E+02  0.14814977250E+03  0.16348236147E+03  0.00000000000E+00 0. -1.
         11    1    1    2    0    0 -0.46684559668E+01  0.89751329185E+02 -0.47622937219E+03  0.48463544083E+03  0.00000000000E+00 0.  1.
        -15    1    3    3    0    0  0.68914713170E+00  0.15957653358E+02  0.70403114883E+02  0.72214111770E+02  0.17770000000E+01 0.  1.
         15    1    3    3    0    0  0.69469943212E+02 -0.83593281569E+02  0.25767648481E+03  0.27966808593E+03  0.17770000000E+01 0. -1.
</event>
<event>
 7    1  0.3234965E-006  0.3824736E+03  0.7546771E-02  0.9709652E-01
        -11   -1    0    0    0    0  0.00000000000E+00  0.00000000000E+00  0.50000000000E+03  0.50000000000E+03  0.00000000000E+00 0.  1.
         11   -1    0    0    0    0 -0.00000000000E+00 -0.00000000000E+00 -0.50000000000E+03  0.50000000000E+03  0.00000000000E+00 0. -1.
         23    2    1    2    0    0  0.14380776171E+03  0.26094619201E+03  0.17104556900E+03  0.35544016995E+03  0.91145709115E+02 0.  0.
        -11    1    1    2    0    0  0.13482562221E+02 -0.96706664596E+02  0.19244227079E+03  0.21579616782E+03  0.00000000000E+00 0.  1.
         11    1    1    2    0    0 -0.15729032393E+03 -0.16423952741E+03 -0.36348783979E+03  0.42876366222E+03  0.00000000000E+00 0. -1.
        -15    1    3    3    0    0  0.84606877609E+02  0.22789992181E+03  0.12404209583E+03  0.27292177884E+03  0.17770000000E+01 0.  1.
         15    1    3    3    0    0  0.59200884101E+02  0.33046270198E+02  0.47003473174E+02  0.82518391113E+02  0.17770000000E+01 0. -1.
</event>
<event>
 7    1  0.3234965E-006  0.5076734E+03  0.7546771E-02  0.9382802E-01
        -11   -1    0    0    0    0  0.00000000000E+00  0.00000000000E+00  0.50000000000E+03  0.50000000000E+03  0.00000000000E+00 0.  1.
         11   -1    0    0    0    0 -0.00000000000E+00 -0.00000000000E+00 -0.50000000000E+03  0.50000000000E+03  0.00000000000E+00 0. -1.
         23    2    1    2    0    0  0.73490607642E+02  0.60600697278E+02  0.25156148464E+03  0.28254167863E+03  0.86448283296E+02 0.  0.
        -11    1    1    2    0    0  0.37304043886E+02  0.22594612541E+02  0.22086688946E+03  0.22513171937E+03  0.00000000000E+00 0.  1.
         11    1    1    2    0    0 -0.11079465153E+03 -0.83195309819E+02 -0.47242837410E+03  0.49232660200E+03  0.00000000000E+00 0. -1.
        -15    1    3    3    0    0 -0.27605030434E+00 -0.19438273324E+02  0.32251965545E+02  0.37699730558E+02  0.17770000000E+01 0. -1.
         15    1    3    3    0    0  0.73766657947E+02  0.80038970602E+02  0.21930951909E+03  0.24484194807E+03  0.17770000000E+01 0.  1.
</event>
<event>
 7    1  0.3234965E-006  0.5310446E+03  0.7546771E-02  0.9332905E-01
        -11   -1    0    0    0    0  0.00000000000E+00  0.00000000000E+00  0.50000000000E+03  0.50000000000E+03  0.00000000000E+00 0.  1.
         11   -1    0    0    0    0 -0.00000000000E+00 -0.00000000000E+00 -0.50000000000E+03  0.50000000000E+03  0.00000000000E+00 0. -1.
         23    2    1    2    0    0  0.94905540390E+02 -0.14482708515E+01 -0.25062159363E+03  0.28377393186E+03  0.93312925828E+02 0.  0.
        -11    1    1    2    0    0  0.65254999654E+01  0.79862180841E+02  0.46205906676E+03  0.46895536168E+03  0.00000000000E+00 0.  1.
         11    1    1    2    0    0 -0.10143104036E+03 -0.78413909989E+02 -0.21143747313E+03  0.24727070646E+03  0.00000000000E+00 0. -1.
        -15    1    3    3    0    0  0.71802809464E+01 -0.37387961551E+02 -0.78519266461E+02  0.87280290089E+02  0.17770000000E+01 0.  1.
         15    1    3    3    0    0  0.87725259444E+02  0.35939690699E+02 -0.17210232717E+03  0.19649364177E+03  0.17770000000E+01 0. -1.
</event>
<event>
 7    1  0.3234965E-006  0.5161047E+03  0.7546771E-02  0.9364478E-01
        -11   -1    0    0    0    0  0.00000000000E+00  0.00000000000E+00  0.50000000000E+03  0.50000000000E+03  0.00000000000E+00 0. -1.
         11   -1    0    0    0    0 -0.00000000000E+00 -0.00000000000E+00 -0.50000000000E+03  0.50000000000E+03  0.00000000000E+00 0.  1.
         23    2    1    2    0    0 -0.59834773239E+02  0.54616541287E+01  0.23839929606E+03  0.26251134928E+03  0.92021488713E+02 0.  0.
        -11    1    1    2    0    0  0.36440108309E+01 -0.10079635991E+03  0.23267236078E+03  0.25359339987E+03  0.00000000000E+00 0. -1.
         11    1    1    2    0    0  0.56190762408E+02  0.95334705781E+02 -0.47107165685E+03  0.48389525085E+03  0.00000000000E+00 0.  1.
        -15    1    3    3    0    0 -0.49406980654E+02  0.38861370106E+02  0.88462937855E+02  0.10853619178E+03  0.17770000000E+01 0.  1.
         15    1    3    3    0    0 -0.10427792585E+02 -0.33399715977E+02  0.14993635821E+03  0.15397515750E+03  0.17770000000E+01 0. -1.
</event>
<event>
 7    1  0.3234965E-006  0.5198725E+03  0.7546771E-02  0.9356409E-01
        -11   -1    0    0    0    0  0.00000000000E+00  0.00000000000E+00  0.50000000000E+03  0.50000000000E+03  0.00000000000E+00 0.  1.
         11   -1    0    0    0    0 -0.00000000000E+00 -0.00000000000E+00 -0.50000000000E+03  0.50000000000E+03  0.00000000000E+00 0.  1.
         23    2    1    2    0    0 -0.73859544910E+02  0.10720601095E+03 -0.30984373219E+03  0.34806793634E+03  0.90552685072E+02 0.  0.
        -11    1    1    2    0    0  0.92936885127E+01 -0.10242704914E+03  0.46898269711E+03  0.48012752809E+03  0.00000000000E+00 0.  1.
         11    1    1    2    0    0  0.64565856398E+02 -0.47789618051E+01 -0.15913896491E+03  0.17180453557E+03  0.00000000000E+00 0.  1.
        -15    1    3    3    0    0 -0.33533790037E+02  0.11268898829E+03 -0.22116110511E+03  0.25047697559E+03  0.17770000000E+01 0. -1.
         15    1    3    3    0    0 -0.40325754873E+02 -0.54829773402E+01 -0.88682627079E+02  0.97590960755E+02  0.17770000000E+01 0.  1.
</event>
<event>
 7    1  0.3234965E-006  0.5163380E+03  0.7546771E-02  0.9363976E-01
        -11   -1    0    0    0    0  0.00000000000E+00  0.00000000000E+00  0.50000000000E+03  0.50000000000E+03  0.00000000000E+00 0. -1.
         11   -1    0    0    0    0 -0.00000000000E+00 -0.00000000000E+00 -0.50000000000E+03  0.50000000000E+03  0.00000000000E+00 0. -1.
         23    2    1    2    0    0 -0.41164222422E+02  0.35246434139E+02  0.98954622110E+02  0.14493475260E+03  0.90979453427E+02 0.  0.
        -11    1    1    2    0    0 -0.15330758653E+03  0.14789901135E+03  0.30424179503E+03  0.37140328955E+03  0.00000000000E+00 0. -1.
         11    1    1    2    0    0  0.19447180895E+03 -0.18314544549E+03 -0.40319641714E+03  0.48366195785E+03  0.00000000000E+00 0. -1.
        -15    1    3    3    0    0 -0.52361537844E+02 -0.14203955037E+02  0.60440258794E+02  0.81238325907E+02  0.17770000000E+01 0.  1.
         15    1    3    3    0    0  0.11197315422E+02  0.49450389175E+02  0.38514363315E+02  0.63696426688E+02  0.17770000000E+01 0. -1.
</event>
<event>
 7    1  0.3234965E-006  0.5018440E+03  0.7546771E-02  0.9395693E-01
        -11   -1    0    0    0    0  0.00000000000E+00  0.00000000000E+00  0.50000000000E+03  0.50000000000E+03  0.00000000000E+00 0. -1.
         11   -1    0    0    0    0 -0.00000000000E+00 -0.00000000000E+00 -0.50000000000E+03  0.50000000000E+03  0.00000000000E+00 0. -1.
         23    2    1    2    0    0 -0.95619777476E+02  0.61300850291E+02 -0.48032314064E+03  0.50184404154E+03  0.90753437929E+02 0.  0.
        -11    1    1    2    0    0 -0.87761103319E+01 -0.91496414338E+01  0.23946698442E+02  0.27095763824E+02  0.00000000000E+00 0. -1.
         11    1    1    2    0    0  0.10439588781E+03 -0.52151208857E+02  0.45637644220E+03  0.47106019464E+03  0.00000000000E+00 0. -1.
        -15    1    3    3    0    0 -0.10892558058E+03  0.51280921196E+02 -0.46005033953E+03  0.47554598896E+03  0.17770000000E+01 0. -1.
         15    1    3    3    0    0  0.13305803106E+02  0.10019929095E+02 -0.20272801117E+02  0.26298052580E+02  0.17770000000E+01 0.  1.
</event>
<event>
 7    1  0.8272377E-006  0.3903926E+03  0.7546771E-02  0.9685221E-01
        -11   -1    0    0    0    0  0.00000000000E+00  0.00000000000E+00  0.50000000000E+03  0.50000000000E+03  0.00000000000E+00 0.  1.
         11   -1    0    0    0    0 -0.00000000000E+00 -0.00000000000E+00 -0.50000000000E+03  0.50000000000E+03  0.00000000000E+00 0. -1.
         23    2    1    2    0    0  0.11801971875E+03  0.68630081985E+02  0.94627369234E+02  0.20174024251E+03  0.11448163292E+03 0.  0.
        -11    1    1    2    0    0  0.60235593449E+01 -0.64604250072E+02  0.34006383021E+03  0.34619849943E+03  0.00000000000E+00 0.  1.
         11    1    1    2    0    0 -0.12404327809E+03 -0.40258319129E+01 -0.43469119944E+03  0.45206125805E+03  0.00000000000E+00 0. -1.
        -15    1    3    3    0    0 -0.46702408392E+01  0.41451555498E+02  0.56799576877E+02  0.70493916512E+02  0.17770000000E+01 0.  1.
         15    1    3    3    0    0  0.12268995959E+03  0.27178526487E+02  0.37827792357E+02  0.13124632600E+03  0.17770000000E+01 0. -1.
</event>
<event>
 7    1  0.3234965E-006  0.4019573E+03  0.7546771E-02  0.9650635E-01
        -11   -1    0    0    0    0  0.00000000000E+00  0.00000000000E+00  0.50000000000E+03  0.50000000000E+03  0.00000000000E+00 0.  1.
         11   -1    0    0    0    0 -0.00000000000E+00 -0.00000000000E+00 -0.50000000000E+03  0.50000000000E+03  0.00000000000E+00 0.  1.
         23    2    1    2    0    0 -0.28714541946E+02 -0.40275433991E+02 -0.14848021524E+03  0.18099355687E+03  0.90915663160E+02 0.  0.
        -11    1    1    2    0    0  0.13033438288E+03 -0.24455562232E+03  0.35680642285E+03  0.45178017570E+03  0.00000000000E+00 0.  1.
         11    1    1    2    0    0 -0.10161984094E+03  0.28483105631E+03 -0.20832620761E+03  0.36722626743E+03  0.00000000000E+00 0.  1.
        -15    1    3    3    0    0 -0.58326821116E+02 -0.75106785448E+01 -0.76202111260E+02  0.96272258949E+02  0.17770000000E+01 0.  1.
         15    1    3    3    0    0  0.29612279171E+02 -0.32764755446E+02 -0.72278103980E+02  0.84721297919E+02  0.17770000000E+01 0. -1.
</event>
<event>
 7    1  0.3234965E-006  0.4606783E+03  0.7546771E-02  0.9492366E-01
        -11   -1    0    0    0    0  0.00000000000E+00  0.00000000000E+00  0.50000000000E+03  0.50000000000E+03  0.00000000000E+00 0. -1.
         11   -1    0    0    0    0 -0.00000000000E+00 -0.00000000000E+00 -0.50000000000E+03  0.50000000000E+03  0.00000000000E+00 0.  1.
         23    2    1    2    0    0 -0.28017713662E+02 -0.12638301836E+03 -0.40826615984E+03  0.43808709718E+03  0.92094450603E+02 0.  0.
        -11    1    1    2    0    0  0.10067475426E+03  0.15256746365E+03  0.44149320230E+03  0.47783729950E+03  0.00000000000E+00 0. -1.
         11    1    1    2    0    0 -0.72657040599E+02 -0.26184445290E+02 -0.33227042459E+02  0.84075603324E+02  0.00000000000E+00 0.  1.
        -15    1    3    3    0    0  0.13680564133E+02 -0.11470079169E+03 -0.29728193972E+03  0.31894065100E+03  0.17770000000E+01 0.  1.
         15    1    3    3    0    0 -0.41698277795E+02 -0.11682226674E+02 -0.11098422012E+03  0.11914644618E+03  0.17770000000E+01 0. -1.
</event>
<event>
 7    1  0.3234965E-006  0.4324248E+03  0.7546771E-02  0.9565168E-01
        -11   -1    0    0    0    0  0.00000000000E+00  0.00000000000E+00  0.50000000000E+03  0.50000000000E+03  0.00000000000E+00 0.  1.
         11   -1    0    0    0    0 -0.00000000000E+00 -0.00000000000E+00 -0.50000000000E+03  0.50000000000E+03  0.00000000000E+00 0. -1.
         23    2    1    2    0    0  0.20143704287E+02 -0.47176435896E+02 -0.45885555643E+03  0.47432215114E+03  0.10863561325E+03 0.  0.
        -11    1    1    2    0    0  0.87863532813E+02  0.55814293638E+02  0.37352965422E+03  0.38776234777E+03  0.00000000000E+00 0.  1.
         11    1    1    2    0    0 -0.10800723710E+03 -0.86378577415E+01  0.85325902213E+02  0.13791550109E+03  0.00000000000E+00 0. -1.
        -15    1    3    3    0    0 -0.39948242933E+02 -0.68466449153E+00 -0.10411395810E+03  0.11153118344E+03  0.17770000000E+01 0.  1.
         15    1    3    3    0    0  0.60091947220E+02 -0.46491771405E+02 -0.35474159833E+03  0.36279096770E+03  0.17770000000E+01 0. -1.
</event>
<event>
 7    1  0.3234965E-006  0.4083671E+03  0.7546771E-02  0.9631997E-01
        -11   -1    0    0    0    0  0.00000000000E+00  0.00000000000E+00  0.50000000000E+03  0.50000000000E+03  0.00000000000E+00 0. -1.
         11   -1    0    0    0    0 -0.00000000000E+00 -0.00000000000E+00 -0.50000000000E+03  0.50000000000E+03  0.00000000000E+00 0.  1.
         23    2    1    2    0    0  0.24389019289E+02  0.14102456882E+02 -0.35369138619E+03  0.36660442239E+03  0.92236122536E+02 0.  0.
        -11    1    1    2    0    0 -0.59182867006E+01  0.13884079951E+03  0.43678592760E+03  0.45835983711E+03  0.00000000000E+00 0. -1.
         11    1    1    2    0    0 -0.18470732588E+02 -0.15294325639E+03 -0.83094541415E+02  0.17503574049E+03  0.00000000000E+00 0.  1.
        -15    1    3    3    0    0  0.70491420100E+00 -0.38258919967E+02 -0.12123182253E+03  0.12713990084E+03  0.17770000000E+01 0. -1.
         15    1    3    3    0    0  0.23684105088E+02  0.52361376849E+02 -0.23245956366E+03  0.23946452155E+03  0.17770000000E+01 0.  1.
</event>
<event>
 7    1  0.3234965E-006  0.5106359E+03  0.7546771E-02  0.9376321E-01
        -11   -1    0    0    0    0  0.00000000000E+00  0.00000000000E+00  0.50000000000E+03  0.50000000000E+03  0.00000000000E+00 0.  1.
         11   -1    0    0    0    0 -0.00000000000E+00 -0.00000000000E+00 -0.50000000000E+03  0.50000000000E+03  0.00000000000E+00 0. -1.
         23    2    1    2    0    0 -0.12138360708E+01 -0.83216364252E+01 -0.29120747270E+03  0.30546541308E+03  0.91850984754E+02 0.  0.
        -11    1    1    2    0    0 -0.31377022556E+02  0.74586755737E+02  0.48262770660E+03  0.48936408210E+03  0.00000000000E+00 0.  1.
         11    1    1    2    0    0  0.32590858627E+02 -0.66265119312E+02 -0.19142023390E+03  0.20517050482E+03  0.00000000000E+00 0. -1.
        -15    1    3    3    0    0 -0.22820887551E+02  0.25686178206E+02 -0.48700874118E+02  0.59628059907E+02  0.17770000000E+01 0.  1.
         15    1    3    3    0    0  0.21607051480E+02 -0.34007814631E+02 -0.24250659858E+03  0.24583735317E+03  0.17770000000E+01 0. -1.
</event>
<event>
 7    1  0.3234965E-006  0.4743034E+03  0.7546771E-02  0.9459218E-01
        -11   -1    0    0    0    0  0.00000000000E+00  0.00000000000E+00  0.50000000000E+03  0.50000000000E+03  0.00000000000E+00 0. -1.
         11   -1    0    0    0    0 -0.00000000000E+00 -0.00000000000E+00 -0.50000000000E+03  0.50000000000E+03  0.00000000000E+00 0.  1.
         23    2    1    2    0    0 -0.10544480798E+03  0.27077265531E+02 -0.42775675236E+03  0.45162100909E+03  0.95571495865E+02 0.  0.
        -11    1    1    2    0    0  0.80651341427E+02 -0.30359873714E+02  0.48147383913E+03  0.48912515634E+03  0.00000000000E+00 0. -1.
         11    1    1    2    0    0  0.24793466554E+02  0.32826081827E+01 -0.53717086762E+02  0.59253834563E+02  0.00000000000E+00 0.  1.
        -15    1    3    3    0    0 -0.27191459765E+02  0.40489195874E+02 -0.71158263917E+02  0.86286770245E+02  0.17770000000E+01 0. -1.
         15    1    3    3    0    0 -0.78253348215E+02 -0.13411930343E+02 -0.35659848845E+03  0.36533423885E+03  0.17770000000E+01 0.  1.
</event>
<event>
 7    1  0.3234965E-006  0.3968168E+03  0.7546771E-02  0.9665853E-01
        -11   -1    0    0    0    0  0.00000000000E+00  0.00000000000E+00  0.50000000000E+03  0.50000000000E+03  0.00000000000E+00 0.  1.
         11   -1    0    0    0    0 -0.00000000000E+00 -0.00000000000E+00 -0.50000000000E+03  0.50000000000E+03  0.00000000000E+00 0. -1.
         23    2    1    2    0    0  0.70035806921E+02  0.37424877404E+02 -0.35059084551E+03  0.37041106800E+03  0.89357610987E+02 0.  0.
        -11    1    1    2    0    0 -0.26297131294E+03 -0.43919948034E+02  0.34558838003E+03  0.43647932559E+03  0.00000000000E+00 0.  1.
         11    1    1    2    0    0  0.19293550601E+03  0.64950706300E+01  0.50024654875E+01  0.19310960640E+03  0.00000000000E+00 0. -1.
        -15    1    3    3    0    0  0.83446388269E+02  0.35904045504E+02 -0.34298824213E+03  0.35481895689E+03  0.17770000000E+01 0.  1.
         15    1    3    3    0    0 -0.13410581348E+02  0.15208319001E+01 -0.76026033795E+01  0.15592111111E+02  0.17770000000E+01 0. -1.
</event>
<event>
 7    1  0.3234965E-006  0.4414857E+03  0.7546771E-02  0.9541190E-01
        -11   -1    0    0    0    0  0.00000000000E+00  0.00000000000E+00  0.50000000000E+03  0.50000000000E+03  0.00000000000E+00 0.  1.
         11   -1    0    0    0    0 -0.00000000000E+00 -0.00000000000E+00 -0.50000000000E+03  0.50000000000E+03  0.00000000000E+00 0. -1.
         23    2    1    2    0    0  0.55778104199E+02  0.13864042285E+03 -0.37352759955E+03  0.41291075787E+03  0.92951936953E+02 0.  0.
        -11    1    1    2    0    0 -0.16730767235E+03 -0.16524943910E+03  0.40488290965E+03  0.46821939823E+03  0.00000000000E+00 0.  1.
         11    1    1    2    0    0  0.11152956815E+03  0.26609016256E+02 -0.31355310102E+02  0.11886984390E+03  0.00000000000E+00 0. -1.
        -15    1    3    3    0    0  0.37445609217E+02  0.94921960136E+02 -0.13244033077E+03  0.16720033226E+03  0.17770000000E+01 0. -1.
         15    1    3    3    0    0  0.18332494982E+02  0.43718462711E+02 -0.24108726878E+03  0.24571042561E+03  0.17770000000E+01 0.  1.
</event>
<event>
 7    1  0.3234965E-006  0.5172472E+03  0.7546771E-02  0.9362024E-01
        -11   -1    0    0    0    0  0.00000000000E+00  0.00000000000E+00  0.50000000000E+03  0.50000000000E+03  0.00000000000E+00 0.  1.
         11   -1    0    0    0    0 -0.00000000000E+00 -0.00000000000E+00 -0.50000000000E+03  0.50000000000E+03  0.00000000000E+00 0.  1.
         23    2    1    2    0    0  0.96658161521E+01 -0.41017003850E+02 -0.40844246295E+03  0.42065000424E+03  0.91352930553E+02 0.  0.
        -11    1    1    2    0    0 -0.10114604325E+02  0.11683886381E+03  0.46829116601E+03  0.48275277470E+03  0.00000000000E+00 0.  1.
         11    1    1    2    0    0  0.44878817264E+00 -0.75821859963E+02 -0.59848703053E+02  0.96597221058E+02  0.00000000000E+00 0.  1.
        -15    1    3    3    0    0  0.44725298724E+02 -0.44977470569E+02 -0.22202283523E+03  0.23091258584E+03  0.17770000000E+01 0.  1.
         15    1    3    3    0    0 -0.35059482572E+02  0.39604667191E+01 -0.18641962772E+03  0.18973741841E+03  0.17770000000E+01 0. -1.
</event>
<event>
 7    1  0.3234965E-006  0.4512853E+03  0.7546771E-02  0.9515937E-01
        -11   -1    0    0    0    0  0.00000000000E+00  0.00000000000E+00  0.50000000000E+03  0.50000000000E+03  0.00000000000E+00 0.  1.
         11   -1    0    0    0    0 -0.00000000000E+00 -0.00000000000E+00 -0.50000000000E+03  0.50000000000E+03  0.00000000000E+00 0. -1.
         23    2    1    2    0    0 -0.14824248711E+02  0.19165376994E+02 -0.46965935887E+03  0.47910304666E+03  0.91502709904E+02 0.  0.
        -11    1    1    2    0    0  0.95130051668E+02 -0.11573532890E+02  0.40871261289E+03  0.41979718118E+03  0.00000000000E+00 0.  1.
         11    1    1    2    0    0 -0.80305802958E+02 -0.75918441038E+01  0.60946745975E+02  0.10109977216E+03  0.00000000000E+00 0. -1.
        -15    1    3    3    0    0 -0.50331764632E+02  0.28211471107E+02 -0.30369504388E+03  0.30913267546E+03  0.17770000000E+01 0. -1.
         15    1    3    3    0    0  0.35507515921E+02 -0.90460941128E+01 -0.16596431499E+03  0.16997037120E+03  0.17770000000E+01 0.  1.
</event>
<event>
 7    1  0.3234965E-006  0.4200947E+03  0.7546771E-02  0.9598823E-01
        -11   -1    0    0    0    0  0.00000000000E+00  0.00000000000E+00  0.50000000000E+03  0.50000000000E+03  0.00000000000E+00 0. -1.
         11   -1    0    0    0    0 -0.00000000000E+00 -0.00000000000E+00 -0.50000000000E+03  0.50000000000E+03  0.00000000000E+00 0. -1.
         23    2    1    2    0    0 -0.20336223839E+03 -0.67136299468E+02  0.31490061981E+03  0.39150600839E+03  0.90835409027E+02 0.  0.
        -11    1    1    2    0    0 -0.34601379498E+02  0.13708913088E+03  0.64344919744E+02  0.15534141098E+03  0.00000000000E+00 0. -1.
         11    1    1    2    0    0  0.23796361789E+03 -0.69952831411E+02 -0.37924553956E+03  0.45315258063E+03  0.00000000000E+00 0. -1.
        -15    1    3    3    0    0 -0.52700355208E+02 -0.30594643761E+02  0.16478431842E+03  0.17569971256E+03  0.17770000000E+01 0. -1.
         15    1    3    3    0    0 -0.15066188319E+03 -0.36541655707E+02  0.15011630139E+03  0.21580629583E+03  0.17770000000E+01 0.  1.
</event>
<event>
 7    1  0.3234965E-006  0.5116185E+03  0.7546771E-02  0.9374181E-01
        -11   -1    0    0    0    0  0.00000000000E+00  0.00000000000E+00  0.50000000000E+03  0.50000000000E+03  0.00000000000E+00 0. -1.
         11   -1    0    0    0    0 -0.00000000000E+00 -0.00000000000E+00 -0.50000000000E+03  0.50000000000E+03  0.00000000000E+00 0.  1.
         23    2    1    2    0    0 -0.26346355214E+02  0.21212775263E+02 -0.18869456035E+03  0.21231471081E+03  0.91256709636E+02 0.  0.
        -11    1    1    2    0    0  0.17236076013E+02 -0.92696183836E+02  0.47919393077E+03  0.48838149853E+03  0.00000000000E+00 0. -1.
         11    1    1    2    0    0  0.91102792006E+01  0.71483408573E+02 -0.29049937043E+03  0.29930379067E+03  0.00000000000E+00 0.  1.
        -15    1    3    3    0    0 -0.36426920558E+02 -0.58211846849E+01 -0.21696854478E+02  0.42833607784E+02  0.17770000000E+01 0.  1.
         15    1    3    3    0    0  0.10080565344E+02  0.27033959948E+02 -0.16699770587E+03  0.16948110302E+03  0.17770000000E+01 0. -1.
</event>
<event>
 7    1  0.3234965E-006  0.5119808E+03  0.7546771E-02  0.9373394E-01
        -11   -1    0    0    0    0  0.00000000000E+00  0.00000000000E+00  0.50000000000E+03  0.50000000000E+03  0.00000000000E+00 0. -1.
         11   -1    0    0    0    0 -0.00000000000E+00 -0.00000000000E+00 -0.50000000000E+03  0.50000000000E+03  0.00000000000E+00 0.  1.
         23    2    1    2    0    0 -0.44875175129E+02 -0.41842754072E+02 -0.35560805192E+03  0.37229738465E+03  0.91562320917E+02 0.  0.
        -11    1    1    2    0    0  0.12370464533E+03  0.74767930430E+02  0.46612190458E+03  0.48801917239E+03  0.00000000000E+00 0. -1.
         11    1    1    2    0    0 -0.78829470196E+02 -0.32925176358E+02 -0.11051385265E+03  0.13968344296E+03  0.00000000000E+00 0.  1.
        -15    1    3    3    0    0 -0.24773971535E+02  0.20590564867E+02 -0.48446241658E+02  0.58205816607E+02  0.17770000000E+01 0. -1.
         15    1    3    3    0    0 -0.20101203594E+02 -0.62433318939E+02 -0.30716181027E+03  0.31409156804E+03  0.17770000000E+01 0.  1.
</event>
<event>
 7    1  0.3234965E-006  0.4357933E+03  0.7546771E-02  0.9556181E-01
        -11   -1    0    0    0    0  0.00000000000E+00  0.00000000000E+00  0.50000000000E+03  0.50000000000E+03  0.00000000000E+00 0.  1.
         11   -1    0    0    0    0 -0.00000000000E+00 -0.00000000000E+00 -0.50000000000E+03  0.50000000000E+03  0.00000000000E+00 0. -1.
         23    2    1    2    0    0 -0.29862522901E+02  0.16728171777E+02 -0.41861181044E+03  0.42991323511E+03  0.91749331744E+02 0.  0.
        -11    1    1    2    0    0  0.14213989629E+03 -0.78964315014E+02  0.41041612832E+03  0.44145272855E+03  0.00000000000E+00 0.  1.
         11    1    1    2    0    0 -0.11227737339E+03  0.62236143237E+02  0.81956821198E+01  0.12863403634E+03  0.00000000000E+00 0. -1.
        -15    1    3    3    0    0  0.10175292274E+02  0.46194041252E+02 -0.17598574836E+03  0.18224041093E+03  0.17770000000E+01 0. -1.
         15    1    3    3    0    0 -0.40037815175E+02 -0.29465869475E+02 -0.24262606208E+03  0.24767282418E+03  0.17770000000E+01 0.  1.
</event>
<event>
 7    1  0.3234965E-006  0.5134699E+03  0.7546771E-02  0.9370164E-01
        -11   -1    0    0    0    0  0.00000000000E+00  0.00000000000E+00  0.50000000000E+03  0.50000000000E+03  0.00000000000E+00 0. -1.
         11   -1    0    0    0    0 -0.00000000000E+00 -0.00000000000E+00 -0.50000000000E+03  0.50000000000E+03  0.00000000000E+00 0.  1.
         23    2    1    2    0    0 -0.10524215747E+03  0.56078432523E+02  0.19019649062E+03  0.24195753995E+03  0.90266515338E+02 0.  0.
        -11    1    1    2    0    0 -0.12904946051E+03 -0.38092877629E+02  0.23582643792E+03  0.27151231907E+03  0.00000000000E+00 0. -1.
         11    1    1    2    0    0  0.23429161798E+03 -0.17985554894E+02 -0.42602292854E+03  0.48653014098E+03  0.00000000000E+00 0.  1.
        -15    1    3    3    0    0 -0.13907450471E+02 -0.42014247877E+01 -0.71526273107E+01  0.16290701498E+02  0.17770000000E+01 0.  1.
         15    1    3    3    0    0 -0.91334707000E+02  0.60279857311E+02  0.19734911793E+03  0.22566683845E+03  0.17770000000E+01 0. -1.
</event>
<event>
 7    1  0.3234965E-006  0.5118335E+03  0.7546771E-02  0.9373714E-01
        -11   -1    0    0    0    0  0.00000000000E+00  0.00000000000E+00  0.50000000000E+03  0.50000000000E+03  0.00000000000E+00 0. -1.
         11   -1    0    0    0    0 -0.00000000000E+00 -0.00000000000E+00 -0.50000000000E+03  0.50000000000E+03  0.00000000000E+00 0.  1.
         23    2    1    2    0    0  0.12559648805E+03 -0.70169384871E+02  0.25188068215E+03  0.30289265645E+03  0.87188662739E+02 0.  0.
        -11    1    1    2    0    0  0.51050721442E+01 -0.53967619611E+02  0.20178624928E+03  0.20894079575E+03  0.00000000000E+00 0. -1.
         11    1    1    2    0    0 -0.13070156020E+03  0.12413700448E+03 -0.45366693143E+03  0.48816654780E+03  0.00000000000E+00 0.  1.
        -15    1    3    3    0    0  0.13150752180E+03 -0.41235303128E+02  0.19523357397E+03  0.23898511387E+03  0.17770000000E+01 0. -1.
         15    1    3    3    0    0 -0.59110337458E+01 -0.28934081743E+02  0.56647108174E+02  0.63907542588E+02  0.17770000000E+01 0.  1.
</event>
<event>
 7    1  0.3234965E-006  0.3975660E+03  0.7546771E-02  0.9663620E-01
        -11   -1    0    0    0    0  0.00000000000E+00  0.00000000000E+00  0.50000000000E+03  0.50000000000E+03  0.00000000000E+00 0. -1.
         11   -1    0    0    0    0 -0.00000000000E+00 -0.00000000000E+00 -0.50000000000E+03  0.50000000000E+03  0.00000000000E+00 0. -1.
         23    2    1    2    0    0  0.15276915666E+03  0.12009200982E+03 -0.40281038453E+03  0.45625572415E+03  0.90291604775E+02 0.  0.
        -11    1    1    2    0    0 -0.15409521881E+03 -0.21222073190E+03  0.23426148187E+03  0.35165525362E+03  0.00000000000E+00 0. -1.
         11    1    1    2    0    0  0.13260621504E+01  0.92128722084E+02  0.16854890266E+03  0.19208902223E+03  0.00000000000E+00 0. -1.
        -15    1    3    3    0    0  0.10114723858E+03  0.32657052604E+02 -0.15033606636E+03  0.18412315860E+03  0.17770000000E+01 0. -1.
         15    1    3    3    0    0  0.51621918076E+02  0.87434957213E+02 -0.25247431817E+03  0.27213256555E+03  0.17770000000E+01 0.  1.
</event>
<event>
 7    1  0.3234965E-006  0.3850728E+03  0.7546771E-02  0.9701564E-01
        -11   -1    0    0    0    0  0.00000000000E+00  0.00000000000E+00  0.50000000000E+03  0.50000000000E+03  0.00000000000E+00 0.  1.
         11   -1    0    0    0    0 -0.00000000000E+00 -0.00000000000E+00 -0.50000000000E+03  0.50000000000E+03  0.00000000000E+00 0. -1.
         23    2    1    2    0    0  0.56117363005E+02 -0.83690036188E+02 -0.15669686926E+03  0.20764201207E+03  0.91695778271E+02 0.  0.
        -11    1    1    2    0    0  0.51855179849E+02 -0.86097480202E+02  0.43638674067E+03  0.44781148178E+03  0.00000000000E+00 0.  1.
         11    1    1    2    0    0 -0.10797254285E+03  0.16978751639E+03 -0.27968987141E+03  0.34454650615E+03  0.00000000000E+00 0. -1.
        -15    1    3    3    0    0  0.20074917419E+02  0.16281575368E+02 -0.53776474488E+02  0.59692201695E+02  0.17770000000E+01 0.  1.
         15    1    3    3    0    0  0.36042445586E+02 -0.99971611556E+02 -0.10292039477E+03  0.14794981037E+03  0.17770000000E+01 0. -1.
</event>
<event>
 7    1  0.3234965E-006  0.3410238E+03  0.7546771E-02  0.9848750E-01
        -11   -1    0    0    0    0  0.00000000000E+00  0.00000000000E+00  0.50000000000E+03  0.50000000000E+03  0.00000000000E+00 0.  1.
         11   -1    0    0    0    0 -0.00000000000E+00 -0.00000000000E+00 -0.50000000000E+03  0.50000000000E+03  0.00000000000E+00 0.  1.
         23    2    1    2    0    0  0.86177216008E+02  0.17499002239E+02  0.23941082939E+03  0.27182470593E+03  0.94012753855E+02 0.  0.
        -11    1    1    2    0    0 -0.93731570898E+02  0.25291111189E+03  0.10568653473E+03  0.28968824886E+03  0.00000000000E+00 0.  1.
         11    1    1    2    0    0  0.75543548902E+01 -0.27041011413E+03 -0.34509736411E+03  0.43848704522E+03  0.00000000000E+00 0.  1.
        -15    1    3    3    0    0  0.10032820805E+03 -0.26542589309E+01  0.21411849588E+03  0.23647977171E+03  0.17770000000E+01 0.  1.
         15    1    3    3    0    0 -0.14150992044E+02  0.20153261170E+02  0.25292333503E+02  0.35344934215E+02  0.17770000000E+01 0. -1.
</event>
<event>
 7    1  0.3234965E-006  0.5125076E+03  0.7546771E-02  0.9372250E-01
        -11   -1    0    0    0    0  0.00000000000E+00  0.00000000000E+00  0.50000000000E+03  0.50000000000E+03  0.00000000000E+00 0. -1.
         11   -1    0    0    0    0 -0.00000000000E+00 -0.00000000000E+00 -0.50000000000E+03  0.50000000000E+03  0.00000000000E+00 0.  1.
         23    2    1    2    0    0 -0.11702287023E+02  0.17662903101E+02 -0.27138561757E+03  0.28658859969E+03  0.89632306586E+02 0.  0.
        -11    1    1    2    0    0  0.28975850986E+02 -0.12174516574E+03  0.47115529150E+03  0.48749235279E+03  0.00000000000E+00 0. -1.
         11    1    1    2    0    0 -0.17273563964E+02  0.10408226263E+03 -0.19976967393E+03  0.22591904752E+03  0.00000000000E+00 0.  1.
        -15    1    3    3    0    0 -0.50640894303E+02  0.14564040335E+02 -0.14472020590E+03  0.15402502125E+03  0.17770000000E+01 0. -1.
         15    1    3    3    0    0  0.38938607281E+02  0.30988627667E+01 -0.12666541167E+03  0.13256357844E+03  0.17770000000E+01 0.  1.
</event>
<event>
 7    1  0.3234965E-006  0.4328990E+03  0.7546771E-02  0.9563897E-01
        -11   -1    0    0    0    0  0.00000000000E+00  0.00000000000E+00  0.50000000000E+03  0.50000000000E+03  0.00000000000E+00 0.  1.
         11   -1    0    0    0    0 -0.00000000000E+00 -0.00000000000E+00 -0.50000000000E+03  0.50000000000E+03  0.00000000000E+00 0.  1.
         23    2    1    2    0    0  0.94184464651E+01 -0.15847811365E+03 -0.35906055785E+03  0.40305479370E+03  0.91239590555E+02 0.  0.
        -11    1    1    2    0    0  0.40354490348E+02  0.79629177250E+02  0.45469593896E+03  0.46337639956E+03  0.00000000000E+00 0.  1.
         11    1    1    2    0    0 -0.49772936813E+02  0.78848936403E+02 -0.95635381118E+02  0.13356880673E+03  0.00000000000E+00 0.  1.
        -15    1    3    3    0    0 -0.13369403947E+02 -0.72365023809E+02 -0.25815528637E+03  0.26844505442E+03  0.17770000000E+01 0. -1.
         15    1    3    3    0    0  0.22787850412E+02 -0.86113089844E+02 -0.10090527148E+03  0.13460973928E+03  0.17770000000E+01 0.  1.
</event>
<event>
 7    1  0.3234965E-006  0.5229537E+03  0.7546771E-02  0.9349865E-01
        -11   -1    0    0    0    0  0.00000000000E+00  0.00000000000E+00  0.50000000000E+03  0.50000000000E+03  0.00000000000E+00 0.  1.
         11   -1    0    0    0    0 -0.00000000000E+00 -0.00000000000E+00 -0.50000000000E+03  0.50000000000E+03  0.00000000000E+00 0.  1.
         23    2    1    2    0    0  0.86831227123E+01  0.11328063008E+03 -0.23696542644E+03  0.27865315258E+03  0.92666435899E+02 0.  0.
        -11    1    1    2    0    0  0.68434725719E+02 -0.76606527358E+02  0.46585540978E+03  0.47704626038E+03  0.00000000000E+00 0.  1.
         11    1    1    2    0    0 -0.77117848431E+02 -0.36674102726E+02 -0.22888998334E+03  0.24430058705E+03  0.00000000000E+00 0.  1.
        -15    1    3    3    0    0 -0.83604530761E+01  0.75208579072E+02 -0.59320918349E+02  0.96168376426E+02  0.17770000000E+01 0. -1.
         15    1    3    3    0    0  0.17043575788E+02  0.38072051012E+02 -0.17764450809E+03  0.18248477615E+03  0.17770000000E+01 0.  1.
</event>
<event>
 7    1  0.3234965E-006  0.4402445E+03  0.7546771E-02  0.9544438E-01
        -11   -1    0    0    0    0  0.00000000000E+00  0.00000000000E+00  0.50000000000E+03  0.50000000000E+03  0.00000000000E+00 0.  1.
         11   -1    0    0    0    0 -0.00000000000E+00 -0.00000000000E+00 -0.50000000000E+03  0.50000000000E+03  0.00000000000E+00 0. -1.
         23    2    1    2    0    0 -0.19934013575E+01  0.16932997472E+03 -0.37413805791E+03  0.42094742938E+03  0.92416654007E+02 0.  0.
        -11    1    1    2    0    0 -0.56583780246E+02 -0.91064481937E+02  0.44537141041E+03  0.45809404850E+03  0.00000000000E+00 0.  1.
         11    1    1    2    0    0  0.58577181604E+02 -0.78265492781E+02 -0.71233352501E+02  0.12095852212E+03  0.00000000000E+00 0. -1.
        -15    1    3    3    0    0  0.55260006496E+01  0.39303788022E+02 -0.19761342696E+03  0.20156772728E+03  0.17770000000E+01 0.  1.
         15    1    3    3    0    0 -0.75194020071E+01  0.13002618670E+03 -0.17652463095E+03  0.21937970210E+03  0.17770000000E+01 0. -1.
</event>
<event>
 7    1  0.3234965E-006  0.4617361E+03  0.7546771E-02  0.9489749E-01
        -11   -1    0    0    0    0  0.00000000000E+00  0.00000000000E+00  0.50000000000E+03  0.50000000000E+03  0.00000000000E+00 0. -1.
         11   -1    0    0    0    0 -0.00000000000E+00 -0.00000000000E+00 -0.50000000000E+03  0.50000000000E+03  0.00000000000E+00 0. -1.
         23    2    1    2    0    0 -0.11913017616E+03 -0.48145675466E+02 -0.40287708561E+03  0.43239017501E+03  0.90229221427E+02 0.  0.
        -11    1    1    2    0    0  0.17441096211E+03  0.14977972796E+02  0.45319597803E+03  0.48582930940E+03  0.00000000000E+00 0. -1.
         11    1    1    2    0    0 -0.55280785944E+02  0.33167702670E+02 -0.50318892419E+02  0.81780515585E+02  0.00000000000E+00 0. -1.
        -15    1    3    3    0    0 -0.40177119426E+02  0.25989032971E+02 -0.14450179070E+03  0.15222863070E+03  0.17770000000E+01 0.  1.
         15    1    3    3    0    0 -0.78953056738E+02 -0.74134708438E+02 -0.25837529491E+03  0.28016154432E+03  0.17770000000E+01 0. -1.
</event>
<event>
 7    1  0.3234965E-006  0.3178710E+03  0.7546771E-02  0.9936033E-01
        -11   -1    0    0    0    0  0.00000000000E+00  0.00000000000E+00  0.50000000000E+03  0.50000000000E+03  0.00000000000E+00 0.  1.
         11   -1    0    0    0    0 -0.00000000000E+00 -0.00000000000E+00 -0.50000000000E+03  0.50000000000E+03  0.00000000000E+00 0. -1.
         23    2    1    2    0    0  0.53206917375E+01  0.19512677470E+03 -0.22087342286E+03  0.30921193111E+03  0.93403326759E+02 0.  0.
        -11    1    1    2    0    0 -0.28483616355E+02  0.67936355272E+02  0.37691805240E+03  0.38404932365E+03  0.00000000000E+00 0.  1.
         11    1    1    2    0    0  0.23162924618E+02 -0.26306312997E+03 -0.15604462954E+03  0.30673874524E+03  0.00000000000E+00 0. -1.
        -15    1    3    3    0    0 -0.38105294615E+02  0.60109753976E+02 -0.49278780946E+02  0.86583785903E+02  0.17770000000E+01 0. -1.
         15    1    3    3    0    0  0.43425986352E+02  0.13501702072E+03 -0.17159464191E+03  0.22262814521E+03  0.17770000000E+01 0.  1.
</event>
<event>
 7    1  0.3234965E-006  0.5121940E+03  0.7546771E-02  0.9372931E-01
        -11   -1    0    0    0    0  0.00000000000E+00  0.00000000000E+00  0.50000000000E+03  0.50000000000E+03  0.00000000000E+00 0.  1.
         11   -1    0    0    0    0 -0.00000000000E+00 -0.00000000000E+00 -0.50000000000E+03  0.50000000000E+03  0.00000000000E+00 0. -1.
         23    2    1    2    0    0 -0.26962684575E+02  0.55803024658E+02  0.17821285183E+03  0.20873659701E+03  0.89275878328E+02 0.  0.
        -11    1    1    2    0    0 -0.11963376552E+03  0.61482938755E+02  0.27201839464E+03  0.30345740498E+03  0.00000000000E+00 0.  1.
         11    1    1    2    0    0  0.14659645009E+03 -0.11728596341E+03 -0.45023124648E+03  0.48780599802E+03  0.00000000000E+00 0. -1.
        -15    1    3    3    0    0 -0.19836530452E+02 -0.18557861211E+02  0.85104201670E+02  0.89351916734E+02  0.17770000000E+01 0. -1.
         15    1    3    3    0    0 -0.71261541229E+01  0.74360885870E+02  0.93108650165E+02  0.11938468028E+03  0.17770000000E+01 0.  1.
</event>
<event>
 7    1  0.3234965E-006  0.4018761E+03  0.7546771E-02  0.9650874E-01
        -11   -1    0    0    0    0  0.00000000000E+00  0.00000000000E+00  0.50000000000E+03  0.50000000000E+03  0.00000000000E+00 0. -1.
         11   -1    0    0    0    0 -0.00000000000E+00 -0.00000000000E+00 -0.50000000000E+03  0.50000000000E+03  0.00000000000E+00 0. -1.
         23    2    1    2    0    0  0.66601833211E+02 -0.83319151903E+02 -0.11347623411E+03  0.18129836551E+03  0.92813557020E+02 0.  0.
        -11    1    1    2    0    0  0.22027291942E+03  0.38117561809E+02  0.36929360114E+03  0.43168376318E+03  0.00000000000E+00 0. -1.
         11    1    1    2    0    0 -0.28687475263E+03  0.45201590094E+02 -0.25581736703E+03  0.38701787131E+03  0.00000000000E+00 0. -1.
        -15    1    3    3    0    0  0.58915166885E+02 -0.76046388944E+02 -0.12991741921E+03  0.16166553035E+03  0.17770000000E+01 0. -1.
         15    1    3    3    0    0  0.76866663259E+01 -0.72727629589E+01  0.16441185092E+02  0.19632835162E+02  0.17770000000E+01 0.  1.
</event>
<event>
 7    1  0.3234965E-006  0.3531767E+03  0.7546771E-02  0.9805860E-01
        -11   -1    0    0    0    0  0.00000000000E+00  0.00000000000E+00  0.50000000000E+03  0.50000000000E+03  0.00000000000E+00 0.  1.
         11   -1    0    0    0    0 -0.00000000000E+00 -0.00000000000E+00 -0.50000000000E+03  0.50000000000E+03  0.00000000000E+00 0.  1.
         23    2    1    2    0    0  0.73087946353E+02  0.42154726041E+02 -0.34481292151E+03  0.36886859903E+03  0.10024581627E+03 0.  0.
        -11    1    1    2    0    0  0.13051134463E+03  0.11949351905E+03  0.32544897073E+03  0.37044425319E+03  0.00000000000E+00 0.  1.
         11    1    1    2    0    0 -0.20359929098E+03 -0.16164824509E+03  0.19363950778E+02  0.26068714778E+03  0.00000000000E+00 0.  1.
        -15    1    3    3    0    0 -0.11176091347E+02  0.28228151217E-01  0.10003563915E+00  0.11316958547E+02  0.17770000000E+01 0. -1.
         15    1    3    3    0    0  0.84264037699E+02  0.42126497890E+02 -0.34491295715E+03  0.35755164048E+03  0.17770000000E+01 0.  1.
</event>
<event>
 7    1  0.3234965E-006  0.3951563E+03  0.7546771E-02  0.9670822E-01
        -11   -1    0    0    0    0  0.00000000000E+00  0.00000000000E+00  0.50000000000E+03  0.50000000000E+03  0.00000000000E+00 0. -1.
         11   -1    0    0    0    0 -0.00000000000E+00 -0.00000000000E+00 -0.50000000000E+03  0.50000000000E+03  0.00000000000E+00 0. -1.
         23    2    1    2    0    0 -0.97256493766E+02  0.42639546679E+02 -0.13111008086E+03  0.19187823259E+03  0.91380776533E+02 0.  0.
        -11    1    1    2    0    0 -0.58675848337E+01  0.76036775230E+02  0.44796211814E+03  0.45440739323E+03  0.00000000000E+00 0. -1.
         11    1    1    2    0    0  0.10312407860E+03 -0.11867632191E+03 -0.31685203728E+03  0.35371437417E+03  0.00000000000E+00 0. -1.
        -15    1    3    3    0    0  0.16887515700E+02  0.47906851952E+01 -0.67924716877E+01  0.18905931656E+02  0.17770000000E+01 0.  1.
         15    1    3    3    0    0 -0.11414400947E+03  0.37848861484E+02 -0.12431760917E+03  0.17297230094E+03  0.17770000000E+01 0. -1.
</event>
<event>
 7    1  0.3234965E-006  0.5163749E+03  0.7546771E-02  0.9363897E-01
        -11   -1    0    0    0    0  0.00000000000E+00  0.00000000000E+00  0.50000000000E+03  0.50000000000E+03  0.00000000000E+00 0.  1.
         11   -1    0    0    0    0 -0.00000000000E+00 -0.00000000000E+00 -0.50000000000E+03  0.50000000000E+03  0.00000000000E+00 0. -1.
         23    2    1    2    0    0 -0.29246395198E+02 -0.30880176378E+02 -0.24610239403E+03  0.26581548855E+03  0.91008508813E+02 0.  0.
        -11    1    1    2    0    0  0.77035247404E+02  0.17852717695E+03  0.44281694177E+03  0.48362508844E+03  0.00000000000E+00 0.  1.
         11    1    1    2    0    0 -0.47788852206E+02 -0.14764700057E+03 -0.19671454773E+03  0.25055942302E+03  0.00000000000E+00 0. -1.
        -15    1    3    3    0    0 -0.47183704634E+02 -0.48782210600E+02 -0.21604082630E+03  0.22645706527E+03  0.17770000000E+01 0. -1.
         15    1    3    3    0    0  0.17937309436E+02  0.17902034222E+02 -0.30061567737E+02  0.39358423277E+02  0.17770000000E+01 0.  1.
</event>
<event>
 7    1  0.3234965E-006  0.5070913E+03  0.7546771E-02  0.9384081E-01
        -11   -1    0    0    0    0  0.00000000000E+00  0.00000000000E+00  0.50000000000E+03  0.50000000000E+03  0.00000000000E+00 0.  1.
         11   -1    0    0    0    0 -0.00000000000E+00 -0.00000000000E+00 -0.50000000000E+03  0.50000000000E+03  0.00000000000E+00 0. -1.
         23    2    1    2    0    0  0.18238128103E+02 -0.53292579406E+02  0.27864598630E+03  0.29752245461E+03  0.87768428152E+02 0.  0.
        -11    1    1    2    0    0 -0.45403399900E+00 -0.60925494778E+02  0.20051677320E+03  0.20956883927E+03  0.00000000000E+00 0.  1.
         11    1    1    2    0    0 -0.17784094104E+02  0.11421807418E+03 -0.47916275950E+03  0.49290870611E+03  0.00000000000E+00 0. -1.
        -15    1    3    3    0    0 -0.27048456414E+02  0.49959355816E+01  0.11038763159E+03  0.11377682235E+03  0.17770000000E+01 0.  1.
         15    1    3    3    0    0  0.45286584517E+02 -0.58288514988E+02  0.16825835471E+03  0.18374563226E+03  0.17770000000E+01 0. -1.
</event>
<event>
 7    1  0.3234965E-006  0.4306904E+03  0.7546771E-02  0.9569829E-01
        -11   -1    0    0    0    0  0.00000000000E+00  0.00000000000E+00  0.50000000000E+03  0.50000000000E+03  0.00000000000E+00 0.  1.
         11   -1    0    0    0    0 -0.00000000000E+00 -0.00000000000E+00 -0.50000000000E+03  0.50000000000E+03  0.00000000000E+00 0. -1.
         23    2    1    2    0    0 -0.40068222546E+02 -0.51858083268E+02 -0.66719681048E+02  0.13355727938E+03  0.95348349629E+02 0.  0.
        -11    1    1    2    0    0 -0.45269684367E+02 -0.62609300158E+02  0.45044125083E+03  0.45701924384E+03  0.00000000000E+00 0.  1.
         11    1    1    2    0    0  0.85337906913E+02  0.11446738343E+03 -0.38372156978E+03  0.40942347678E+03  0.00000000000E+00 0. -1.
        -15    1    3    3    0    0  0.10152777794E+02 -0.54868044804E+02 -0.61318529909E+02  0.82925877003E+02  0.17770000000E+01 0. -1.
         15    1    3    3    0    0 -0.50221000340E+02  0.30099615360E+01 -0.54011511390E+01  0.50631402373E+02  0.17770000000E+01 0.  1.
</event>
<event>
 7    1  0.3234965E-006  0.5136377E+03  0.7546771E-02  0.9369801E-01
        -11   -1    0    0    0    0  0.00000000000E+00  0.00000000000E+00  0.50000000000E+03  0.50000000000E+03  0.00000000000E+00 0. -1.
         11   -1    0    0    0    0 -0.00000000000E+00 -0.00000000000E+00 -0.50000000000E+03  0.50000000000E+03  0.00000000000E+00 0. -1.
         23    2    1    2    0    0 -0.70954764055E+02 -0.57985581673E+01 -0.21594725916E+03  0.24686286441E+03  0.96124155478E+02 0.  0.
        -11    1    1    2    0    0  0.85674606482E+02  0.77857888134E+02  0.47238361257E+03  0.48636227893E+03  0.00000000000E+00 0. -1.
         11    1    1    2    0    0 -0.14719842427E+02 -0.72059329966E+02 -0.25643635341E+03  0.26677485666E+03  0.00000000000E+00 0. -1.
        -15    1    3    3    0    0 -0.44929971287E+02  0.19087764705E+02 -0.20262126835E+03  0.20842644074E+03  0.17770000000E+01 0.  1.
         15    1    3    3    0    0 -0.26024792767E+02 -0.24886322872E+02 -0.13325990811E+02  0.38436423673E+02  0.17770000000E+01 0. -1.
</event>
<event>
 7    1  0.3234965E-006  0.4144304E+03  0.7546771E-02  0.9614699E-01
        -11   -1    0    0    0    0  0.00000000000E+00  0.00000000000E+00  0.50000000000E+03  0.50000000000E+03  0.00000000000E+00 0.  1.
         11   -1    0    0    0    0 -0.00000000000E+00 -0.00000000000E+00 -0.50000000000E+03  0.50000000000E+03  0.00000000000E+00 0. -1.
         23    2    1    2    0    0 -0.57841636989E+02  0.84257251738E+02 -0.34878578737E+03  0.37499954552E+03  0.92348222694E+02 0.  0.
        -11    1    1    2    0    0  0.91012807141E+02  0.42823395210E+02  0.44878949540E+03  0.45992302119E+03  0.00000000000E+00 0.  1.
         11    1    1    2    0    0 -0.33171170152E+02 -0.12708064695E+03 -0.10000370804E+03  0.16507743328E+03  0.00000000000E+00 0. -1.
        -15    1    3    3    0    0 -0.98488958144E+01 -0.11129580114E+02 -0.62821486597E+01  0.16232418891E+02  0.17770000000E+01 0.  1.
         15    1    3    3    0    0 -0.47992741174E+02  0.95386831852E+02 -0.34250363871E+03  0.35876712663E+03  0.17770000000E+01 0. -1.
</event>
<event>
 7    1  0.7799272E-006  0.4773655E+03  0.7546771E-02  0.9451931E-01
        -11   -1    0    0    0    0  0.00000000000E+00  0.00000000000E+00  0.50000000000E+03  0.50000000000E+03  0.00000000000E+00 0. -1.
         11   -1    0    0    0    0 -0.00000000000E+00 -0.00000000000E+00 -0.50000000000E+03  0.50000000000E+03  0.00000000000E+00 0.  1.
         23    2    1    2    0    0  0.19670884273E+02 -0.91208403613E+02  0.43319294862E+03  0.45322817863E+03  0.95151114513E+02 0.  0.
        -11    1    1    2    0    0 -0.90745873723E+01  0.42425162637E+01  0.52395002508E+02  0.53344009674E+02  0.00000000000E+00 0. -1.
         11    1    1    2    0    0 -0.10596296900E+02  0.86965887349E+02 -0.48558795113E+03  0.49342781169E+03  0.00000000000E+00 0.  1.
        -15    1    3    3    0    0  0.22287961790E+02  0.44172241402E+01  0.24402315653E+02  0.33390056126E+02  0.17770000000E+01 0.  1.
         15    1    3    3    0    0 -0.26170775172E+01 -0.95625627753E+02  0.40879063297E+03  0.41983812251E+03  0.17770000000E+01 0. -1.
</event>
<event>
 6    1  0.3234965E-006  0.1000000E+04  0.7546771E-02  0.8684367E-01
        -11   -1    0    0    0    0  0.00000000000E+00  0.00000000000E+00  0.50000000000E+03  0.50000000000E+03  0.00000000000E+00 0.  1.
         11   -1    0    0    0    0 -0.00000000000E+00 -0.00000000000E+00 -0.50000000000E+03  0.50000000000E+03  0.00000000000E+00 0. -1.
        -11    1    1    2    0    0 -0.43005641449E+01 -0.12027111779E+02  0.63733224743E+02  0.65000540042E+02  0.00000000000E+00 0. -1.
         11    1    1    2    0    0  0.15485076412E+02  0.14716106637E+03  0.36500343688E+03  0.39385743104E+03  0.00000000000E+00 0.  1.
        -15    1    1    2    0    0  0.27895356441E+01 -0.15126157131E+03 -0.47048972495E+03  0.49421815374E+03  0.17770000000E+01 0. -1.
         15    1    1    2    0    0 -0.13974047912E+02  0.16127616724E+02  0.41753063329E+02  0.46923875187E+02  0.17770000000E+01 0.  1.
</event>
<event>
 7    1  0.3234965E-006  0.3586222E+03  0.7546771E-02  0.9787237E-01
        -11   -1    0    0    0    0  0.00000000000E+00  0.00000000000E+00  0.50000000000E+03  0.50000000000E+03  0.00000000000E+00 0. -1.
         11   -1    0    0    0    0 -0.00000000000E+00 -0.00000000000E+00 -0.50000000000E+03  0.50000000000E+03  0.00000000000E+00 0.  1.
         23    2    1    2    0    0 -0.28196126843E+02 -0.19012552056E+02  0.22636565274E+03  0.24711388169E+03  0.93098673867E+02 0.  0.
        -11    1    1    2    0    0  0.27523386613E+03 -0.50185020499E+02  0.13425884575E+03  0.31031863465E+03  0.00000000000E+00 0. -1.
         11    1    1    2    0    0 -0.24703773929E+03  0.69197572555E+02 -0.36062449849E+03  0.44256748366E+03  0.00000000000E+00 0.  1.
        -15    1    3    3    0    0 -0.29612006057E+02 -0.33097637239E+02  0.22841600611E+03  0.23270013767E+03  0.17770000000E+01 0. -1.
         15    1    3    3    0    0  0.14158792133E+01  0.14085085183E+02 -0.20503533733E+01  0.14413744015E+02  0.17770000000E+01 0.  1.
</event>
<event>
 7    1  0.3234965E-006  0.4521785E+03  0.7546771E-02  0.9513670E-01
        -11   -1    0    0    0    0  0.00000000000E+00  0.00000000000E+00  0.50000000000E+03  0.50000000000E+03  0.00000000000E+00 0.  1.
         11   -1    0    0    0    0 -0.00000000000E+00 -0.00000000000E+00 -0.50000000000E+03  0.50000000000E+03  0.00000000000E+00 0. -1.
         23    2    1    2    0    0 -0.55148108319E+02  0.34591391134E+02 -0.46427637761E+03  0.47754755169E+03  0.90891314879E+02 0.  0.
        -11    1    1    2    0    0  0.98256997478E+02 -0.96868604880E+02  0.39994784283E+03  0.42307947380E+03  0.00000000000E+00 0.  1.
         11    1    1    2    0    0 -0.43108889159E+02  0.62277213746E+02  0.64328534786E+02  0.99372974516E+02  0.00000000000E+00 0. -1.
        -15    1    3    3    0    0  0.25388710923E+02  0.47595236648E+01 -0.10937797784E+03  0.11240079836E+03  0.17770000000E+01 0.  1.
         15    1    3    3    0    0 -0.80536819242E+02  0.29831867469E+02 -0.35489839978E+03  0.36514675333E+03  0.17770000000E+01 0. -1.
</event>
<event>
 7    1  0.3234965E-006  0.4755836E+03  0.7546771E-02  0.9456164E-01
        -11   -1    0    0    0    0  0.00000000000E+00  0.00000000000E+00  0.50000000000E+03  0.50000000000E+03  0.00000000000E+00 0.  1.
         11   -1    0    0    0    0 -0.00000000000E+00 -0.00000000000E+00 -0.50000000000E+03  0.50000000000E+03  0.00000000000E+00 0. -1.
         23    2    1    2    0    0  0.52954055411E+02  0.30308235488E+02 -0.47125875547E+03  0.48349139630E+03  0.89198624231E+02 0.  0.
        -11    1    1    2    0    0 -0.83755489067E+02  0.12284612970E+02  0.45303516775E+03  0.46087607540E+03  0.00000000000E+00 0.  1.
         11    1    1    2    0    0  0.30801433655E+02 -0.42592848458E+02  0.18223587727E+02  0.55632528296E+02  0.00000000000E+00 0. -1.
        -15    1    3    3    0    0  0.61900853382E+02  0.53571566069E+02 -0.38884046975E+03  0.39736846501E+03  0.17770000000E+01 0. -1.
         15    1    3    3    0    0 -0.89467979701E+01 -0.23263330581E+02 -0.82418285721E+02  0.86122931289E+02  0.17770000000E+01 0.  1.
</event>
<event>
 7    1  0.3234965E-006  0.5153876E+03  0.7546771E-02  0.9366022E-01
        -11   -1    0    0    0    0  0.00000000000E+00  0.00000000000E+00  0.50000000000E+03  0.50000000000E+03  0.00000000000E+00 0. -1.
         11   -1    0    0    0    0 -0.00000000000E+00 -0.00000000000E+00 -0.50000000000E+03  0.50000000000E+03  0.00000000000E+00 0. -1.
         23    2    1    2    0    0  0.55682341776E+02 -0.60815073130E+02  0.20840289869E+03  0.24118661281E+03  0.89107899243E+02 0.  0.
        -11    1    1    2    0    0 -0.58654897777E+02 -0.55311510110E+02  0.26208089717E+03  0.27420094246E+03  0.00000000000E+00 0. -1.
         11    1    1    2    0    0  0.29725560001E+01  0.11612658324E+03 -0.47048379586E+03  0.48461244474E+03  0.00000000000E+00 0. -1.
        -15    1    3    3    0    0 -0.16011515795E+02 -0.16275175982E+01  0.40767272705E+01  0.16697152028E+02  0.17770000000E+01 0.  1.
         15    1    3    3    0    0  0.71693857572E+02 -0.59187555532E+02  0.20432617142E+03  0.22448946078E+03  0.17770000000E+01 0. -1.
</event>
<event>
 7    1  0.3234965E-006  0.5119794E+03  0.7546771E-02  0.9373397E-01
        -11   -1    0    0    0    0  0.00000000000E+00  0.00000000000E+00  0.50000000000E+03  0.50000000000E+03  0.00000000000E+00 0.  1.
         11   -1    0    0    0    0 -0.00000000000E+00 -0.00000000000E+00 -0.50000000000E+03  0.50000000000E+03  0.00000000000E+00 0. -1.
         23    2    1    2    0    0 -0.80324933930E+02 -0.29013732958E+02  0.31295826521E+03  0.33664741603E+03  0.89970635447E+02 0.  0.
        -11    1    1    2    0    0  0.16178027677E+02 -0.67052158503E+02  0.16119425608E+03  0.17533199575E+03  0.00000000000E+00 0.  1.
         11    1    1    2    0    0  0.64146906253E+02  0.96065891461E+02 -0.47415252129E+03  0.48802058823E+03  0.00000000000E+00 0. -1.
        -15    1    3    3    0    0 -0.43950170208E+02 -0.41336516352E+02  0.27866955497E+03  0.28513190569E+03  0.17770000000E+01 0.  1.
         15    1    3    3    0    0 -0.36374763722E+02  0.12322783394E+02  0.34288710242E+02  0.51515510339E+02  0.17770000000E+01 0. -1.
</event>
<event>
 7    1  0.3234965E-006  0.5114629E+03  0.7546771E-02  0.9374520E-01
        -11   -1    0    0    0    0  0.00000000000E+00  0.00000000000E+00  0.50000000000E+03  0.50000000000E+03  0.00000000000E+00 0. -1.
         11   -1    0    0    0    0 -0.00000000000E+00 -0.00000000000E+00 -0.50000000000E+03  0.50000000000E+03  0.00000000000E+00 0. -1.
         23    2    1    2    0    0  0.59030471417E+02  0.51535689021E+02 -0.31425830787E+03  0.33917506547E+03  0.10070212099E+03 0.  0.
        -11    1    1    2    0    0 -0.45485075298E+02 -0.12213683374E+03  0.47083134228E+03  0.48853705192E+03  0.00000000000E+00 0. -1.
         11    1    1    2    0    0 -0.13545396120E+02  0.70601144715E+02 -0.15657303441E+03  0.17228788261E+03  0.00000000000E+00 0. -1.
        -15    1    3    3    0    0  0.12517602643E+02  0.14188230432E+01  0.42437265515E+01  0.13411576298E+02  0.17770000000E+01 0.  1.
         15    1    3    3    0    0  0.46512868775E+02  0.50116865978E+02 -0.31850203442E+03  0.32576348917E+03  0.17770000000E+01 0. -1.
</event>
<event>
 7    1  0.3234965E-006  0.3960852E+03  0.7546771E-02  0.9668039E-01
        -11   -1    0    0    0    0  0.00000000000E+00  0.00000000000E+00  0.50000000000E+03  0.50000000000E+03  0.00000000000E+00 0.  1.
         11   -1    0    0    0    0 -0.00000000000E+00 -0.00000000000E+00 -0.50000000000E+03  0.50000000000E+03  0.00000000000E+00 0.  1.
         23    2    1    2    0    0 -0.42818692107E+02  0.12353677309E+03  0.10692924339E+03  0.19002319590E+03  0.87064213014E+02 0.  0.
        -11    1    1    2    0    0  0.30237698449E+03 -0.19904945493E+03  0.18965715013E+03  0.40868369291E+03  0.00000000000E+00 0.  1.
         11    1    1    2    0    0 -0.25955829239E+03  0.75512681841E+02 -0.29658639352E+03  0.40129311119E+03  0.00000000000E+00 0.  1.
        -15    1    3    3    0    0 -0.20609716296E+02 -0.67195457908E+01  0.31108434400E+01  0.21971521962E+02  0.17770000000E+01 0. -1.
         15    1    3    3    0    0 -0.22208975811E+02  0.13025631888E+03  0.10381839995E+03  0.16805167394E+03  0.17770000000E+01 0.  1.
</event>
<event>
 7    1  0.3234965E-006  0.5151195E+03  0.7546771E-02  0.9366600E-01
        -11   -1    0    0    0    0  0.00000000000E+00  0.00000000000E+00  0.50000000000E+03  0.50000000000E+03  0.00000000000E+00 0.  1.
         11   -1    0    0    0    0 -0.00000000000E+00 -0.00000000000E+00 -0.50000000000E+03  0.50000000000E+03  0.00000000000E+00 0. -1.
         23    2    1    2    0    0  0.43109799057E+02 -0.22883438497E+02 -0.38435918373E+03  0.39919123706E+03  0.96122604513E+02 0.  0.
        -11    1    1    2    0    0 -0.11961510870E+03  0.62402200741E+01  0.46985360722E+03  0.48488052837E+03  0.00000000000E+00 0.  1.
         11    1    1    2    0    0  0.76505309643E+02  0.16643218423E+02 -0.85494423487E+02  0.11592823457E+03  0.00000000000E+00 0. -1.
        -15    1    3    3    0    0 -0.27742346847E+02 -0.12442662487E+01 -0.55489793138E+02  0.62076250520E+02  0.17770000000E+01 0.  1.
         15    1    3    3    0    0  0.70852145904E+02 -0.21639172249E+02 -0.32886939059E+03  0.33711498654E+03  0.17770000000E+01 0. -1.
</event>
<event>
 7    1  0.3234965E-006  0.5211252E+03  0.7546771E-02  0.9353743E-01
        -11   -1    0    0    0    0  0.00000000000E+00  0.00000000000E+00  0.50000000000E+03  0.50000000000E+03  0.00000000000E+00 0.  1.
         11   -1    0    0    0    0 -0.00000000000E+00 -0.00000000000E+00 -0.50000000000E+03  0.50000000000E+03  0.00000000000E+00 0. -1.
         23    2    1    2    0    0 -0.82448247642E+02  0.16565379932E+03  0.28713466625E+03  0.35372008119E+03  0.91829649377E+02 0.  0.
        -11    1    1    2    0    0  0.55449737949E+02  0.97122691116E+01  0.15765618158E+03  0.16740511701E+03  0.00000000000E+00 0.  1.
         11    1    1    2    0    0  0.26998509693E+02 -0.17536606843E+03 -0.44479084783E+03  0.47887480180E+03  0.00000000000E+00 0. -1.
        -15    1    3    3    0    0 -0.28903534715E+02  0.91129662973E+02  0.22037645076E+03  0.24022690851E+03  0.17770000000E+01 0.  1.
         15    1    3    3    0    0 -0.53544712927E+02  0.74524136346E+02  0.66758215491E+02  0.11349317268E+03  0.17770000000E+01 0. -1.
</event>
<event>
 7    1  0.3234965E-006  0.5252271E+03  0.7546771E-02  0.9345067E-01
        -11   -1    0    0    0    0  0.00000000000E+00  0.00000000000E+00  0.50000000000E+03  0.50000000000E+03  0.00000000000E+00 0.  1.
         11   -1    0    0    0    0 -0.00000000000E+00 -0.00000000000E+00 -0.50000000000E+03  0.50000000000E+03  0.00000000000E+00 0. -1.
         23    2    1    2    0    0 -0.34249212361E+02  0.45638741447E+02 -0.19585104903E+03  0.22389424580E+03  0.92277281219E+02 0.  0.
        -11    1    1    2    0    0 -0.80171717616E+02  0.16174831124E+02  0.46767529371E+03  0.47477290341E+03  0.00000000000E+00 0.  1.
         11    1    1    2    0    0  0.11442092998E+03 -0.61813572570E+02 -0.27182424468E+03  0.30133285079E+03  0.00000000000E+00 0. -1.
        -15    1    3    3    0    0 -0.52754979485E+02  0.48787588031E+02 -0.84400485468E+02  0.11085989483E+03  0.17770000000E+01 0.  1.
         15    1    3    3    0    0  0.18505767124E+02 -0.31488465847E+01 -0.11145056356E+03  0.11303435096E+03  0.17770000000E+01 0. -1.
</event>
<event>
 7    1  0.3234965E-006  0.5292233E+03  0.7546771E-02  0.9336694E-01
        -11   -1    0    0    0    0  0.00000000000E+00  0.00000000000E+00  0.50000000000E+03  0.50000000000E+03  0.00000000000E+00 0.  1.
         11   -1    0    0    0    0 -0.00000000000E+00 -0.00000000000E+00 -0.50000000000E+03  0.50000000000E+03  0.00000000000E+00 0. -1.
         23    2    1    2    0    0  0.94790047252E+01 -0.10943730173E+03 -0.19765123269E+03  0.24537656233E+03  0.95274723913E+02 0.  0.
        -11    1    1    2    0    0 -0.19214658838E+03  0.11213195032E+03  0.41489369324E+03  0.47077665873E+03  0.00000000000E+00 0.  1.
         11    1    1    2    0    0  0.18266758366E+03 -0.26946485841E+01 -0.21724246055E+03  0.28384677894E+03  0.00000000000E+00 0. -1.
        -15    1    3    3    0    0  0.42834180251E+01 -0.94333764287E+02 -0.20646887738E+03  0.22704572625E+03  0.17770000000E+01 0. -1.
         15    1    3    3    0    0  0.51955867001E+01 -0.15103537447E+02  0.88176446877E+01  0.18330836080E+02  0.17770000000E+01 0.  1.
</event>
<event>
 7    1  0.3234965E-006  0.4646251E+03  0.7546771E-02  0.9482640E-01
        -11   -1    0    0    0    0  0.00000000000E+00  0.00000000000E+00  0.50000000000E+03  0.50000000000E+03  0.00000000000E+00 0. -1.
         11   -1    0    0    0    0 -0.00000000000E+00 -0.00000000000E+00 -0.50000000000E+03  0.50000000000E+03  0.00000000000E+00 0.  1.
         23    2    1    2    0    0  0.36470370955E+02  0.32179258000E+02 -0.42461682486E+03  0.43666376750E+03  0.89499750243E+02 0.  0.
        -11    1    1    2    0    0 -0.38496379272E+02 -0.86978435883E+02  0.47766290572E+03  0.48704113894E+03  0.00000000000E+00 0. -1.
         11    1    1    2    0    0  0.20260083178E+01  0.54799177883E+02 -0.53046080857E+02  0.76295093556E+02  0.00000000000E+00 0.  1.
        -15    1    3    3    0    0  0.51380287591E+02 -0.95335412897E+01 -0.29695547157E+03  0.30152368429E+03  0.17770000000E+01 0.  1.
         15    1    3    3    0    0 -0.14909916637E+02  0.41712799289E+02 -0.12766135329E+03  0.13514008322E+03  0.17770000000E+01 0. -1.
</event>
<event>
 7    1  0.3234965E-006  0.3644749E+03  0.7546771E-02  0.9767613E-01
        -11   -1    0    0    0    0  0.00000000000E+00  0.00000000000E+00  0.50000000000E+03  0.50000000000E+03  0.00000000000E+00 0.  1.
         11   -1    0    0    0    0 -0.00000000000E+00 -0.00000000000E+00 -0.50000000000E+03  0.50000000000E+03  0.00000000000E+00 0. -1.
         23    2    1    2    0    0  0.14732598085E+03  0.95162014557E+02 -0.22501362868E+03  0.29983528586E+03  0.92245931666E+02 0.  0.
        -11    1    1    2    0    0 -0.44289441822E+02 -0.95568071214E+02  0.44497197192E+03  0.45726892163E+03  0.00000000000E+00 0.  1.
         11    1    1    2    0    0 -0.10303653903E+03  0.40605665705E+00 -0.21995834324E+03  0.24289579251E+03  0.00000000000E+00 0. -1.
        -15    1    3    3    0    0 -0.54332644671E+01  0.20438287480E+02 -0.50854811075E+01  0.21823469133E+02  0.17770000000E+01 0.  1.
         15    1    3    3    0    0  0.15275924532E+03  0.74723727077E+02 -0.21992814757E+03  0.27801181673E+03  0.17770000000E+01 0. -1.
</event>
<event>
 7    1  0.3234965E-006  0.3652637E+03  0.7546771E-02  0.9764998E-01
        -11   -1    0    0    0    0  0.00000000000E+00  0.00000000000E+00  0.50000000000E+03  0.50000000000E+03  0.00000000000E+00 0.  1.
         11   -1    0    0    0    0 -0.00000000000E+00 -0.00000000000E+00 -0.50000000000E+03  0.50000000000E+03  0.00000000000E+00 0. -1.
         23    2    1    2    0    0  0.39527542611E+02  0.12836603511E+01  0.21538250173E+03  0.23735723825E+03  0.91568346561E+02 0.  0.
        -11    1    1    2    0    0  0.23038262457E+03  0.23526485299E+03  0.25715222209E+02  0.33028317761E+03  0.00000000000E+00 0.  1.
         11    1    1    2    0    0 -0.26991016718E+03 -0.23654851334E+03 -0.24109772394E+03  0.43235958414E+03  0.00000000000E+00 0. -1.
        -15    1    3    3    0    0  0.46387573596E+02  0.36117473633E+02  0.16884769667E+03  0.17879871724E+03  0.17770000000E+01 0.  1.
         15    1    3    3    0    0 -0.68600309851E+01 -0.34833813282E+02  0.46534805060E+02  0.58558521018E+02  0.17770000000E+01 0. -1.
</event>
<event>
 7    1  0.3234965E-006  0.4622207E+03  0.7546771E-02  0.9488553E-01
        -11   -1    0    0    0    0  0.00000000000E+00  0.00000000000E+00  0.50000000000E+03  0.50000000000E+03  0.00000000000E+00 0.  1.
         11   -1    0    0    0    0 -0.00000000000E+00 -0.00000000000E+00 -0.50000000000E+03  0.50000000000E+03  0.00000000000E+00 0.  1.
         23    2    1    2    0    0  0.15280353696E+03 -0.82044176635E+01 -0.41442695076E+03  0.45024409330E+03  0.86912672577E+02 0.  0.
        -11    1    1    2    0    0 -0.87552401070E+02  0.64754810882E+01  0.46118239550E+03  0.46946411653E+03  0.00000000000E+00 0.  1.
         11    1    1    2    0    0 -0.65251135893E+02  0.17289365753E+01 -0.46755444740E+02  0.80291790177E+02  0.00000000000E+00 0.  1.
        -15    1    3    3    0    0  0.10219893392E+03 -0.44152484386E+02 -0.22776005354E+03  0.25351896120E+03  0.17770000000E+01 0. -1.
         15    1    3    3    0    0  0.50604603038E+02  0.35948066723E+02 -0.18666689722E+03  0.19672513209E+03  0.17770000000E+01 0.  1.
</event>
<event>
 7    1  0.3234965E-006  0.4711389E+03  0.7546771E-02  0.9466810E-01
        -11   -1    0    0    0    0  0.00000000000E+00  0.00000000000E+00  0.50000000000E+03  0.50000000000E+03  0.00000000000E+00 0.  1.
         11   -1    0    0    0    0 -0.00000000000E+00 -0.00000000000E+00 -0.50000000000E+03  0.50000000000E+03  0.00000000000E+00 0. -1.
         23    2    1    2    0    0  0.16170259628E+02 -0.12083758777E+03  0.42938521135E+03  0.45534268446E+03  0.90011669499E+02 0.  0.
        -11    1    1    2    0    0  0.39851374194E+02  0.31390110087E+02  0.39340409674E+02  0.64196096997E+02  0.00000000000E+00 0.  1.
         11    1    1    2    0    0 -0.56021633822E+02  0.89447477680E+02 -0.46872562103E+03  0.48046121855E+03  0.00000000000E+00 0. -1.
        -15    1    3    3    0    0  0.37771078083E+02 -0.34714244025E+02  0.81639985699E+02  0.96436393917E+02  0.17770000000E+01 0. -1.
         15    1    3    3    0    0 -0.21600818454E+02 -0.86123343742E+02  0.34774522565E+03  0.35890629054E+03  0.17770000000E+01 0.  1.
</event>
<event>
 7    1  0.3234965E-006  0.5252764E+03  0.7546771E-02  0.9344963E-01
        -11   -1    0    0    0    0  0.00000000000E+00  0.00000000000E+00  0.50000000000E+03  0.50000000000E+03  0.00000000000E+00 0.  1.
         11   -1    0    0    0    0 -0.00000000000E+00 -0.00000000000E+00 -0.50000000000E+03  0.50000000000E+03  0.00000000000E+00 0. -1.
         23    2    1    2    0    0 -0.34204302159E+02 -0.54467811906E+02 -0.30245034606E+03  0.32148805096E+03  0.87986807302E+02 0.  0.
        -11    1    1    2    0    0 -0.70182266949E+02  0.16168524644E+03  0.44078888447E+03  0.47472361452E+03  0.00000000000E+00 0.  1.
         11    1    1    2    0    0  0.10438656911E+03 -0.10721743454E+03 -0.13833853841E+03  0.20378833452E+03  0.00000000000E+00 0. -1.
        -15    1    3    3    0    0 -0.32542301332E+02  0.16673917406E+02 -0.12630003714E+03  0.13149858557E+03  0.17770000000E+01 0.  1.
         15    1    3    3    0    0 -0.16620008267E+01 -0.71141729312E+02 -0.17615030892E+03  0.18998946539E+03  0.17770000000E+01 0. -1.
</event>
<event>
 7    1  0.3234965E-006  0.5271590E+03  0.7546771E-02  0.9341009E-01
        -11   -1    0    0    0    0  0.00000000000E+00  0.00000000000E+00  0.50000000000E+03  0.50000000000E+03  0.00000000000E+00 0. -1.
         11   -1    0    0    0    0 -0.00000000000E+00 -0.00000000000E+00 -0.50000000000E+03  0.50000000000E+03  0.00000000000E+00 0. -1.
         23    2    1    2    0    0  0.43441271724E+02  0.29004603541E+02  0.19450275301E+03  0.21992052038E+03  0.88347627253E+02 0.  0.
        -11    1    1    2    0    0 -0.72229665321E+02 -0.13844331885E+03  0.26459745247E+03  0.30723848871E+03  0.00000000000E+00 0. -1.
         11    1    1    2    0    0  0.28788393597E+02  0.10943871531E+03 -0.45910020548E+03  0.47284099091E+03  0.00000000000E+00 0. -1.
        -15    1    3    3    0    0  0.68977458708E+02  0.85388626878E+01  0.12369125601E+03  0.14189251752E+03  0.17770000000E+01 0. -1.
         15    1    3    3    0    0 -0.25536186984E+02  0.20465740853E+02  0.70811497002E+02  0.78028002864E+02  0.17770000000E+01 0.  1.
</event>
<event>
 7    1  0.3234965E-006  0.5172414E+03  0.7546771E-02  0.9362036E-01
        -11   -1    0    0    0    0  0.00000000000E+00  0.00000000000E+00  0.50000000000E+03  0.50000000000E+03  0.00000000000E+00 0. -1.
         11   -1    0    0    0    0 -0.00000000000E+00 -0.00000000000E+00 -0.50000000000E+03  0.50000000000E+03  0.00000000000E+00 0.  1.
         23    2    1    2    0    0  0.36546906942E+02  0.81285609729E+02 -0.20077754792E+03  0.23780475948E+03  0.91084867724E+02 0.  0.
        -11    1    1    2    0    0 -0.86314166439E+02 -0.42831375122E+02  0.47304458725E+03  0.48275857688E+03  0.00000000000E+00 0. -1.
         11    1    1    2    0    0  0.49767259497E+02 -0.38454234607E+02 -0.27226703933E+03  0.27943666364E+03  0.00000000000E+00 0.  1.
        -15    1    3    3    0    0 -0.15814908177E+02  0.29183750559E+02 -0.12441201553E+02  0.35492870304E+02  0.17770000000E+01 0. -1.
         15    1    3    3    0    0  0.52361815119E+02  0.52101859170E+02 -0.18833634637E+03  0.20231188918E+03  0.17770000000E+01 0.  1.
</event>
<event>
 7    1  0.3234965E-006  0.4120210E+03  0.7546771E-02  0.9621535E-01
        -11   -1    0    0    0    0  0.00000000000E+00  0.00000000000E+00  0.50000000000E+03  0.50000000000E+03  0.00000000000E+00 0.  1.
         11   -1    0    0    0    0 -0.00000000000E+00 -0.00000000000E+00 -0.50000000000E+03  0.50000000000E+03  0.00000000000E+00 0. -1.
         23    2    1    2    0    0  0.15422721713E+01 -0.12264890260E+03  0.59822611159E+02  0.16473413746E+03  0.92268409135E+02 0.  0.
        -11    1    1    2    0    0  0.48036946279E+02  0.34356600230E+03  0.26694301962E+03  0.43772562395E+03  0.00000000000E+00 0.  1.
         11    1    1    2    0    0 -0.49579218450E+02 -0.22091709969E+03 -0.32676563078E+03  0.39754023859E+03  0.00000000000E+00 0. -1.
        -15    1    3    3    0    0 -0.22972319439E+01  0.15177613499E+02  0.39246751923E+01  0.15943589009E+02  0.17770000000E+01 0.  1.
         15    1    3    3    0    0  0.38395041152E+01 -0.13782651610E+03  0.55897935967E+02  0.14879054845E+03  0.17770000000E+01 0. -1.
</event>
<event>
 7    1  0.3234965E-006  0.5187405E+03  0.7546771E-02  0.9358826E-01
        -11   -1    0    0    0    0  0.00000000000E+00  0.00000000000E+00  0.50000000000E+03  0.50000000000E+03  0.00000000000E+00 0. -1.
         11   -1    0    0    0    0 -0.00000000000E+00 -0.00000000000E+00 -0.50000000000E+03  0.50000000000E+03  0.00000000000E+00 0.  1.
         23    2    1    2    0    0  0.19781397631E+02 -0.25520336218E+02 -0.17807404383E+03  0.20201677147E+03  0.89765358647E+02 0.  0.
        -11    1    1    2    0    0  0.15990857660E+02 -0.81373884910E+02  0.47406038854E+03  0.48125946085E+03  0.00000000000E+00 0. -1.
         11    1    1    2    0    0 -0.35772255291E+02  0.10689422113E+03 -0.29598634471E+03  0.31672376768E+03  0.00000000000E+00 0.  1.
        -15    1    3    3    0    0 -0.11865592180E+02  0.28556521974E+02 -0.41872077653E+02  0.52083546740E+02  0.17770000000E+01 0.  1.
         15    1    3    3    0    0  0.31646989811E+02 -0.54076858192E+02 -0.13620196618E+03  0.14993322473E+03  0.17770000000E+01 0. -1.
</event>
<event>
 7    1  0.3234965E-006  0.5161093E+03  0.7546771E-02  0.9364468E-01
        -11   -1    0    0    0    0  0.00000000000E+00  0.00000000000E+00  0.50000000000E+03  0.50000000000E+03  0.00000000000E+00 0. -1.
         11   -1    0    0    0    0 -0.00000000000E+00 -0.00000000000E+00 -0.50000000000E+03  0.50000000000E+03  0.00000000000E+00 0. -1.
         23    2    1    2    0    0 -0.23428275652E+02  0.15303601027E+02  0.32181459685E+03  0.33535719469E+03  0.90092890837E+02 0.  0.
        -11    1    1    2    0    0 -0.11064537258E+03  0.14953280974E+02  0.14214547987E+03  0.18075214116E+03  0.00000000000E+00 0. -1.
         11    1    1    2    0    0  0.13407364823E+03 -0.30256882001E+02 -0.46396007673E+03  0.48389066415E+03  0.00000000000E+00 0. -1.
        -15    1    3    3    0    0  0.14354525952E+02  0.43412549286E+02  0.18794107498E+03  0.19343140191E+03  0.17770000000E+01 0.  1.
         15    1    3    3    0    0 -0.37782801604E+02 -0.28108948260E+02  0.13387352187E+03  0.14192579278E+03  0.17770000000E+01 0. -1.
</event>
<event>
 7    1  0.3234965E-006  0.4308113E+03  0.7546771E-02  0.9569503E-01
        -11   -1    0    0    0    0  0.00000000000E+00  0.00000000000E+00  0.50000000000E+03  0.50000000000E+03  0.00000000000E+00 0. -1.
         11   -1    0    0    0    0 -0.00000000000E+00 -0.00000000000E+00 -0.50000000000E+03  0.50000000000E+03  0.00000000000E+00 0.  1.
         23    2    1    2    0    0 -0.34250488608E+02  0.33641610691E+02 -0.38414532550E+03  0.39795521221E+03  0.92173021441E+02 0.  0.
        -11    1    1    2    0    0 -0.78713302433E+02 -0.71807178841E+02  0.45231645479E+03  0.46469584696E+03  0.00000000000E+00 0. -1.
         11    1    1    2    0    0  0.11296379104E+03  0.38165568151E+02 -0.68171129283E+02  0.13734894083E+03  0.00000000000E+00 0.  1.
        -15    1    3    3    0    0 -0.29203235904E+00 -0.21019604497E+02 -0.23379314975E+02  0.31490620092E+02  0.17770000000E+01 0. -1.
         15    1    3    3    0    0 -0.33958456249E+02  0.54661215187E+02 -0.36076601053E+03  0.36646459212E+03  0.17770000000E+01 0.  1.
</event>
<event>
 7    1  0.3234965E-006  0.4755694E+03  0.7546771E-02  0.9456198E-01
        -11   -1    0    0    0    0  0.00000000000E+00  0.00000000000E+00  0.50000000000E+03  0.50000000000E+03  0.00000000000E+00 0.  1.
         11   -1    0    0    0    0 -0.00000000000E+00 -0.00000000000E+00 -0.50000000000E+03  0.50000000000E+03  0.00000000000E+00 0.  1.
         23    2    1    2    0    0 -0.92646498995E+01 -0.16560080307E+03  0.40621438158E+03  0.44909699521E+03  0.95752428596E+02 0.  0.
        -11    1    1    2    0    0  0.70215497079E+01 -0.99101501000E+01  0.55571598096E+02  0.56883352136E+02  0.00000000000E+00 0.  1.
         11    1    1    2    0    0  0.22431001916E+01  0.17551095317E+03 -0.46178597968E+03  0.49401965266E+03  0.00000000000E+00 0.  1.
        -15    1    3    3    0    0 -0.95714611925E+01 -0.10985502312E+03  0.14600067355E+03  0.18297293073E+03  0.17770000000E+01 0.  1.
         15    1    3    3    0    0  0.30681129297E+00 -0.55745779952E+02  0.26021370803E+03  0.26612406448E+03  0.17770000000E+01 0. -1.
</event>
<event>
 7    1  0.3234965E-006  0.5416607E+03  0.7546771E-02  0.9311131E-01
        -11   -1    0    0    0    0  0.00000000000E+00  0.00000000000E+00  0.50000000000E+03  0.50000000000E+03  0.00000000000E+00 0.  1.
         11   -1    0    0    0    0 -0.00000000000E+00 -0.00000000000E+00 -0.50000000000E+03  0.50000000000E+03  0.00000000000E+00 0. -1.
         23    2    1    2    0    0  0.20329615144E+02 -0.34889009811E+02 -0.25905071189E+03  0.27747084055E+03  0.90841949383E+02 0.  0.
        -11    1    1    2    0    0  0.16157581176E+03 -0.61830840683E+02  0.42443504079E+03  0.45833928443E+03  0.00000000000E+00 0.  1.
         11    1    1    2    0    0 -0.18190542690E+03  0.96719850494E+02 -0.16538432890E+03  0.26418987502E+03  0.00000000000E+00 0. -1.
        -15    1    3    3    0    0 -0.30560268177E+02  0.84680413866E+01 -0.67983006728E+02  0.75036555417E+02  0.17770000000E+01 0. -1.
         15    1    3    3    0    0  0.50889883321E+02 -0.43357051197E+02 -0.19106770516E+03  0.20243428513E+03  0.17770000000E+01 0.  1.
</event>
<event>
 7    1  0.3234965E-006  0.3998830E+03  0.7546771E-02  0.9656746E-01
        -11   -1    0    0    0    0  0.00000000000E+00  0.00000000000E+00  0.50000000000E+03  0.50000000000E+03  0.00000000000E+00 0.  1.
         11   -1    0    0    0    0 -0.00000000000E+00 -0.00000000000E+00 -0.50000000000E+03  0.50000000000E+03  0.00000000000E+00 0. -1.
         23    2    1    2    0    0 -0.12913844610E+03 -0.23820935318E+02  0.82457135899E+02  0.18534112227E+03  0.10152820851E+03 0.  0.
        -11    1    1    2    0    0  0.32821156903E+02  0.62741569088E+02  0.35655770460E+03  0.36352046647E+03  0.00000000000E+00 0.  1.
         11    1    1    2    0    0  0.96317289194E+02 -0.38920633771E+02 -0.43901484050E+03  0.45113841126E+03  0.00000000000E+00 0. -1.
        -15    1    3    3    0    0 -0.13851624316E+03 -0.79933117274E+00  0.57248802731E+02  0.14989320096E+03  0.17770000000E+01 0.  1.
         15    1    3    3    0    0  0.93777970641E+01 -0.23021604145E+02  0.25208333168E+02  0.35447921311E+02  0.17770000000E+01 0. -1.
</event>
<event>
 7    1  0.3234965E-006  0.5142496E+03  0.7546771E-02  0.9368478E-01
        -11   -1    0    0    0    0  0.00000000000E+00  0.00000000000E+00  0.50000000000E+03  0.50000000000E+03  0.00000000000E+00 0. -1.
         11   -1    0    0    0    0 -0.00000000000E+00 -0.00000000000E+00 -0.50000000000E+03  0.50000000000E+03  0.00000000000E+00 0.  1.
         23    2    1    2    0    0  0.20014376644E+03 -0.20648511759E+03  0.16529006610E+03  0.34397889345E+03  0.91142976472E+02 0.  0.
        -11    1    1    2    0    0  0.52351196139E+02 -0.65320904582E+02  0.14827215675E+03  0.17027066917E+03  0.00000000000E+00 0. -1.
         11    1    1    2    0    0 -0.25249496258E+03  0.27180602217E+03 -0.31356222285E+03  0.48575043738E+03  0.00000000000E+00 0.  1.
        -15    1    3    3    0    0  0.18494432992E+03 -0.20769905587E+03  0.13311179242E+03  0.30832646657E+03  0.17770000000E+01 0.  1.
         15    1    3    3    0    0  0.15199436522E+02  0.12139382771E+01  0.32178273682E+02  0.35652426886E+02  0.17770000000E+01 0. -1.
</event>
<event>
 6    1  0.3234965E-006  0.4182249E+03  0.7546771E-02  0.9604034E-01
        -11   -1    0    0    0    0  0.00000000000E+00  0.00000000000E+00  0.50000000000E+03  0.50000000000E+03  0.00000000000E+00 0. -1.
         11   -1    0    0    0    0 -0.00000000000E+00 -0.00000000000E+00 -0.50000000000E+03  0.50000000000E+03  0.00000000000E+00 0. -1.
        -11    1    1    2    0    0 -0.83877906060E+01 -0.78444696808E+02  0.41491004240E+03  0.42234378031E+03  0.00000000000E+00 0. -1.
         11    1    1    2    0    0  0.49703142657E+02  0.73906134103E+02 -0.40552528532E+03  0.41519065028E+03  0.00000000000E+00 0. -1.
        -15    1    1    2    0    0 -0.77945206223E+02 -0.32896813791E+02  0.37116394153E+02  0.92403679443E+02  0.17770000000E+01 0.  1.
         15    1    1    2    0    0  0.36629854172E+02  0.37435376496E+02 -0.46501151230E+02  0.70061889960E+02  0.17770000000E+01 0. -1.
</event>
<event>
 7    1  0.3234965E-006  0.3830903E+03  0.7546771E-02  0.9707727E-01
        -11   -1    0    0    0    0  0.00000000000E+00  0.00000000000E+00  0.50000000000E+03  0.50000000000E+03  0.00000000000E+00 0.  1.
         11   -1    0    0    0    0 -0.00000000000E+00 -0.00000000000E+00 -0.50000000000E+03  0.50000000000E+03  0.00000000000E+00 0.  1.
         23    2    1    2    0    0 -0.29889749422E+02  0.27312614404E+02 -0.36243820458E+03  0.37461341797E+03  0.85641022640E+02 0.  0.
        -11    1    1    2    0    0  0.14884349227E+03 -0.20138405623E+03  0.32655788607E+03  0.41152153801E+03  0.00000000000E+00 0.  1.
         11    1    1    2    0    0 -0.11895374285E+03  0.17407144182E+03  0.35880318506E+02  0.21386504402E+03  0.00000000000E+00 0.  1.
        -15    1    3    3    0    0 -0.60051739107E+01  0.56469697363E+02 -0.22899790778E+03  0.23594085770E+03  0.17770000000E+01 0.  1.
         15    1    3    3    0    0 -0.23884575511E+02 -0.29157082959E+02 -0.13344029679E+03  0.13867256027E+03  0.17770000000E+01 0. -1.
</event>
<event>
 7    1  0.3234965E-006  0.5116933E+03  0.7546771E-02  0.9374019E-01
        -11   -1    0    0    0    0  0.00000000000E+00  0.00000000000E+00  0.50000000000E+03  0.50000000000E+03  0.00000000000E+00 0. -1.
         11   -1    0    0    0    0 -0.00000000000E+00 -0.00000000000E+00 -0.50000000000E+03  0.50000000000E+03  0.00000000000E+00 0. -1.
         23    2    1    2    0    0 -0.16457827903E+02  0.27295013717E+02  0.21484618536E+03  0.23573837972E+03  0.91639633549E+02 0.  0.
        -11    1    1    2    0    0 -0.37795100385E+02  0.10741597976E+03  0.25136516222E+03  0.27595490048E+03  0.00000000000E+00 0. -1.
         11    1    1    2    0    0  0.54252928288E+02 -0.13471099348E+03 -0.46621134758E+03  0.48830671980E+03  0.00000000000E+00 0. -1.
        -15    1    3    3    0    0  0.32799019729E+02  0.11103416534E+02  0.38009399540E+02  0.51448359899E+02  0.17770000000E+01 0.  1.
         15    1    3    3    0    0 -0.49256847632E+02  0.16191597183E+02  0.17683678582E+03  0.18429001982E+03  0.17770000000E+01 0. -1.
</event>
<event>
 7    1  0.3234965E-006  0.5200074E+03  0.7546771E-02  0.9356122E-01
        -11   -1    0    0    0    0  0.00000000000E+00  0.00000000000E+00  0.50000000000E+03  0.50000000000E+03  0.00000000000E+00 0. -1.
         11   -1    0    0    0    0 -0.00000000000E+00 -0.00000000000E+00 -0.50000000000E+03  0.50000000000E+03  0.00000000000E+00 0.  1.
         23    2    1    2    0    0 -0.22016131413E+02  0.81220904098E+02 -0.34062618337E+03  0.36216128147E+03  0.89738797048E+02 0.  0.
        -11    1    1    2    0    0 -0.35559149291E+02 -0.19016000073E+03  0.43928084660E+03  0.47999264699E+03  0.00000000000E+00 0. -1.
         11    1    1    2    0    0  0.57575280704E+02  0.10893909664E+03 -0.98654663229E+02  0.15784607154E+03  0.00000000000E+00 0.  1.
        -15    1    3    3    0    0 -0.44794660792E+02  0.52162652611E+02 -0.11877953820E+03  0.13725611238E+03  0.17770000000E+01 0. -1.
         15    1    3    3    0    0  0.22778529379E+02  0.29058251486E+02 -0.22184664517E+03  0.22490516909E+03  0.17770000000E+01 0.  1.
</event>
<event>
 7    1  0.3234965E-006  0.5181731E+03  0.7546771E-02  0.9360040E-01
        -11   -1    0    0    0    0  0.00000000000E+00  0.00000000000E+00  0.50000000000E+03  0.50000000000E+03  0.00000000000E+00 0.  1.
         11   -1    0    0    0    0 -0.00000000000E+00 -0.00000000000E+00 -0.50000000000E+03  0.50000000000E+03  0.00000000000E+00 0. -1.
         23    2    1    2    0    0  0.34230187712E+02  0.72347912687E+02 -0.17631589711E+03  0.21423471698E+03  0.91669472386E+02 0.  0.
        -11    1    1    2    0    0 -0.18301501368E+03 -0.26481662717E+03  0.35851750033E+03  0.48182687690E+03  0.00000000000E+00 0.  1.
         11    1    1    2    0    0  0.14878482597E+03  0.19246871449E+03 -0.18220160323E+03  0.30393840612E+03  0.00000000000E+00 0. -1.
        -15    1    3    3    0    0 -0.14807624974E+02  0.40094921818E+02 -0.19941171243E+02  0.47198268533E+02  0.17770000000E+01 0.  1.
         15    1    3    3    0    0  0.49037812687E+02  0.32252990869E+02 -0.15637472586E+03  0.16703644845E+03  0.17770000000E+01 0. -1.
</event>
<event>
 7    1  0.3234965E-006  0.4438957E+03  0.7546771E-02  0.9534915E-01
        -11   -1    0    0    0    0  0.00000000000E+00  0.00000000000E+00  0.50000000000E+03  0.50000000000E+03  0.00000000000E+00 0. -1.
         11   -1    0    0    0    0 -0.00000000000E+00 -0.00000000000E+00 -0.50000000000E+03  0.50000000000E+03  0.00000000000E+00 0.  1.
         23    2    1    2    0    0 -0.57740961602E+02 -0.23347478499E+03 -0.32770730561E+03  0.41648497039E+03  0.90681632866E+02 0.  0.
        -11    1    1    2    0    0  0.69613354890E+02  0.17992549756E+03  0.42785040522E+03  0.46933481982E+03  0.00000000000E+00 0. -1.
         11    1    1    2    0    0 -0.11872393287E+02  0.53549287428E+02 -0.10014309961E+03  0.11418020978E+03  0.00000000000E+00 0.  1.
        -15    1    3    3    0    0 -0.11194131644E+02 -0.16768620940E+03 -0.26732238087E+03  0.31576634787E+03  0.17770000000E+01 0.  1.
         15    1    3    3    0    0 -0.46546829959E+02 -0.65788575589E+02 -0.60384924743E+02  0.10071862252E+03  0.17770000000E+01 0. -1.
</event>
<event>
 7    1  0.3234965E-006  0.5151042E+03  0.7546771E-02  0.9366633E-01
        -11   -1    0    0    0    0  0.00000000000E+00  0.00000000000E+00  0.50000000000E+03  0.50000000000E+03  0.00000000000E+00 0.  1.
         11   -1    0    0    0    0 -0.00000000000E+00 -0.00000000000E+00 -0.50000000000E+03  0.50000000000E+03  0.00000000000E+00 0.  1.
         23    2    1    2    0    0  0.58763176927E+02  0.53707405027E+02 -0.33372664129E+03  0.35410426023E+03  0.87628532399E+02 0.  0.
        -11    1    1    2    0    0  0.14801297890E+01 -0.10858904936E+03  0.47257816188E+03  0.48489575325E+03  0.00000000000E+00 0.  1.
         11    1    1    2    0    0 -0.60243306716E+02  0.54881644336E+02 -0.13885152060E+03  0.16099998653E+03  0.00000000000E+00 0.  1.
        -15    1    3    3    0    0  0.65911335636E+02  0.48007475102E+01 -0.22782202654E+03  0.23722011898E+03  0.17770000000E+01 0.  1.
         15    1    3    3    0    0 -0.71481587088E+01  0.48906657517E+02 -0.10590461475E+03  0.11688414125E+03  0.17770000000E+01 0. -1.
</event>
<event>
 7    1  0.3234965E-006  0.5381008E+03  0.7546771E-02  0.9318373E-01
        -11   -1    0    0    0    0  0.00000000000E+00  0.00000000000E+00  0.50000000000E+03  0.50000000000E+03  0.00000000000E+00 0.  1.
         11   -1    0    0    0    0 -0.00000000000E+00 -0.00000000000E+00 -0.50000000000E+03  0.50000000000E+03  0.00000000000E+00 0. -1.
         23    2    1    2    0    0 -0.78176578345E+02 -0.47863299203E+02 -0.16869813241E+03  0.21234486986E+03  0.90712794367E+02 0.  0.
        -11    1    1    2    0    0  0.15575871128E+03 -0.16587763480E+03  0.40196355340E+03  0.46189919260E+03  0.00000000000E+00 0.  1.
         11    1    1    2    0    0 -0.77582132932E+02  0.21374093400E+03 -0.23326542098E+03  0.32575593754E+03  0.00000000000E+00 0. -1.
        -15    1    3    3    0    0 -0.82456488510E+02 -0.68474641457E+02 -0.13249525286E+03  0.17042886721E+03  0.17770000000E+01 0.  1.
         15    1    3    3    0    0  0.42799101650E+01  0.20611342254E+02 -0.36202879557E+02  0.41916002646E+02  0.17770000000E+01 0. -1.
</event>
<event>
 7    1  0.3234965E-006  0.3945348E+03  0.7546771E-02  0.9672688E-01
        -11   -1    0    0    0    0  0.00000000000E+00  0.00000000000E+00  0.50000000000E+03  0.50000000000E+03  0.00000000000E+00 0.  1.
         11   -1    0    0    0    0 -0.00000000000E+00 -0.00000000000E+00 -0.50000000000E+03  0.50000000000E+03  0.00000000000E+00 0. -1.
         23    2    1    2    0    0  0.35155482134E+03 -0.53494256176E+02  0.42888418840E+02  0.37270060900E+03  0.10302378187E+03 0.  0.
        -11    1    1    2    0    0 -0.77267116419E+01 -0.34119634061E+02  0.19629914816E+03  0.19939209380E+03  0.00000000000E+00 0.  1.
         11    1    1    2    0    0 -0.34382810970E+03  0.87613890237E+02 -0.23918756700E+03  0.42790729719E+03  0.00000000000E+00 0. -1.
        -15    1    3    3    0    0  0.14989396152E+02  0.28636410209E+01  0.27011966192E+02  0.31075496512E+02  0.17770000000E+01 0.  1.
         15    1    3    3    0    0  0.33656542519E+03 -0.56357897197E+02  0.15876452649E+02  0.34162511249E+03  0.17770000000E+01 0. -1.
</event>
<event>
 7    1  0.3234965E-006  0.4009743E+03  0.7546771E-02  0.9653526E-01
        -11   -1    0    0    0    0  0.00000000000E+00  0.00000000000E+00  0.50000000000E+03  0.50000000000E+03  0.00000000000E+00 0. -1.
         11   -1    0    0    0    0 -0.00000000000E+00 -0.00000000000E+00 -0.50000000000E+03  0.50000000000E+03  0.00000000000E+00 0. -1.
         23    2    1    2    0    0  0.92439088664E+02 -0.20801810893E+03 -0.31789798274E+03  0.40149724774E+03  0.91238115678E+02 0.  0.
        -11    1    1    2    0    0 -0.91356426747E+02  0.39932043120E+02  0.39942837515E+03  0.41168384915E+03  0.00000000000E+00 0. -1.
         11    1    1    2    0    0 -0.10826619166E+01  0.16808606581E+03 -0.81530392405E+02  0.18681890312E+03  0.00000000000E+00 0. -1.
        -15    1    3    3    0    0  0.13691569717E+02  0.19761673420E+01 -0.20171080248E+01  0.14092223829E+02  0.17770000000E+01 0.  1.
         15    1    3    3    0    0  0.78747518947E+02 -0.20999427627E+03 -0.31588087472E+03  0.38740502391E+03  0.17770000000E+01 0. -1.
</event>
<event>
 7    1  0.3234965E-006  0.5320060E+03  0.7546771E-02  0.9330911E-01
        -11   -1    0    0    0    0  0.00000000000E+00  0.00000000000E+00  0.50000000000E+03  0.50000000000E+03  0.00000000000E+00 0. -1.
         11   -1    0    0    0    0 -0.00000000000E+00 -0.00000000000E+00 -0.50000000000E+03  0.50000000000E+03  0.00000000000E+00 0.  1.
         23    2    1    2    0    0  0.31944962862E+02 -0.28591467989E+02 -0.29130653707E+03  0.31095638196E+03  0.99982099626E+02 0.  0.
        -11    1    1    2    0    0 -0.42682811019E+01  0.20604726138E+03  0.42017223660E+03  0.46799401765E+03  0.00000000000E+00 0. -1.
         11    1    1    2    0    0 -0.27676681760E+02 -0.17745579339E+03 -0.12886569953E+03  0.22104960040E+03  0.00000000000E+00 0.  1.
        -15    1    3    3    0    0 -0.30742644968E+02  0.50701031484E+00 -0.15599633348E+03  0.15900748746E+03  0.17770000000E+01 0. -1.
         15    1    3    3    0    0  0.62687607829E+02 -0.29098478304E+02 -0.13531020359E+03  0.15194889450E+03  0.17770000000E+01 0.  1.
</event>
<event>
 7    1  0.3234965E-006  0.5087641E+03  0.7546771E-02  0.9380410E-01
        -11   -1    0    0    0    0  0.00000000000E+00  0.00000000000E+00  0.50000000000E+03  0.50000000000E+03  0.00000000000E+00 0.  1.
         11   -1    0    0    0    0 -0.00000000000E+00 -0.00000000000E+00 -0.50000000000E+03  0.50000000000E+03  0.00000000000E+00 0. -1.
         23    2    1    2    0    0 -0.50063245788E+02 -0.58704930625E+02 -0.35251799201E+03  0.37231113700E+03  0.91619051423E+02 0.  0.
        -11    1    1    2    0    0  0.21355406489E+02  0.80845516467E+02  0.48406675176E+03  0.49123586094E+03  0.00000000000E+00 0.  1.
         11    1    1    2    0    0  0.28707839299E+02 -0.22140585842E+02 -0.13154875975E+03  0.13645300206E+03  0.00000000000E+00 0. -1.
        -15    1    3    3    0    0  0.12498266479E+02  0.48444815415E+01 -0.65388237144E+01  0.15019640839E+02  0.17770000000E+01 0.  1.
         15    1    3    3    0    0 -0.62561512267E+02 -0.63549412166E+02 -0.34597916829E+03  0.35729149616E+03  0.17770000000E+01 0. -1.
</event>
<event>
 7    1  0.3234965E-006  0.5172342E+03  0.7546771E-02  0.9362052E-01
        -11   -1    0    0    0    0  0.00000000000E+00  0.00000000000E+00  0.50000000000E+03  0.50000000000E+03  0.00000000000E+00 0.  1.
         11   -1    0    0    0    0 -0.00000000000E+00 -0.00000000000E+00 -0.50000000000E+03  0.50000000000E+03  0.00000000000E+00 0. -1.
         23    2    1    2    0    0  0.83844524219E+02 -0.57449611212E+02 -0.40181166299E+03  0.42454158510E+03  0.91937929568E+02 0.  0.
        -11    1    1    2    0    0 -0.89608309363E+02  0.64557940663E-01  0.47437655820E+03  0.48276575297E+03  0.00000000000E+00 0.  1.
         11    1    1    2    0    0  0.57637851447E+01  0.57385053272E+02 -0.72564895213E+02  0.92692661929E+02  0.00000000000E+00 0. -1.
        -15    1    3    3    0    0  0.54607396925E+02 -0.45083901257E+01 -0.79309057533E+02  0.96412539207E+02  0.17770000000E+01 0.  1.
         15    1    3    3    0    0  0.29237127293E+02 -0.52941221086E+02 -0.32250260545E+03  0.32812904589E+03  0.17770000000E+01 0. -1.
</event>
<event>
 7    1  0.3234965E-006  0.4782439E+03  0.7546771E-02  0.9449851E-01
        -11   -1    0    0    0    0  0.00000000000E+00  0.00000000000E+00  0.50000000000E+03  0.50000000000E+03  0.00000000000E+00 0.  1.
         11   -1    0    0    0    0 -0.00000000000E+00 -0.00000000000E+00 -0.50000000000E+03  0.50000000000E+03  0.00000000000E+00 0. -1.
         23    2    1    2    0    0 -0.50924170016E+02  0.81899815858E+02 -0.45738118937E+03  0.47622278752E+03  0.91048009524E+02 0.  0.
        -11    1    1    2    0    0  0.70025837045E+00 -0.83190051956E+02  0.46550819139E+03  0.47288365521E+03  0.00000000000E+00 0.  1.
         11    1    1    2    0    0  0.50223911645E+02  0.12902360978E+01 -0.81270020279E+01  0.50893557275E+02  0.00000000000E+00 0. -1.
        -15    1    3    3    0    0 -0.28082776058E+02  0.66657799804E+02 -0.43436154642E+03  0.44034647191E+03  0.17770000000E+01 0. -1.
         15    1    3    3    0    0 -0.22841393957E+02  0.15242016054E+02 -0.23019642941E+02  0.35876315606E+02  0.17770000000E+01 0.  1.
</event>
<event>
 7    1  0.3234965E-006  0.4753374E+03  0.7546771E-02  0.9456751E-01
        -11   -1    0    0    0    0  0.00000000000E+00  0.00000000000E+00  0.50000000000E+03  0.50000000000E+03  0.00000000000E+00 0.  1.
         11   -1    0    0    0    0 -0.00000000000E+00 -0.00000000000E+00 -0.50000000000E+03  0.50000000000E+03  0.00000000000E+00 0. -1.
         23    2    1    2    0    0 -0.69980253358E+02 -0.12119147648E+01 -0.45061887781E+03  0.46512548457E+03  0.91573133436E+02 0.  0.
        -11    1    1    2    0    0  0.11488096865E+03 -0.30703572232E+02  0.46332415547E+03  0.47834048475E+03  0.00000000000E+00 0.  1.
         11    1    1    2    0    0 -0.44900715297E+02  0.31915486997E+02 -0.12705277663E+02  0.56534030680E+02  0.00000000000E+00 0. -1.
        -15    1    3    3    0    0  0.15869508609E+02 -0.19307160915E+02 -0.14535601261E+03  0.14749961321E+03  0.17770000000E+01 0. -1.
         15    1    3    3    0    0 -0.85849761967E+02  0.18095246151E+02 -0.30526286519E+03  0.31762587136E+03  0.17770000000E+01 0.  1.
</event>
<event>
 7    1  0.3234965E-006  0.5250687E+03  0.7546771E-02  0.9345400E-01
        -11   -1    0    0    0    0  0.00000000000E+00  0.00000000000E+00  0.50000000000E+03  0.50000000000E+03  0.00000000000E+00 0. -1.
         11   -1    0    0    0    0 -0.00000000000E+00 -0.00000000000E+00 -0.50000000000E+03  0.50000000000E+03  0.00000000000E+00 0. -1.
         23    2    1    2    0    0 -0.45975519778E+02 -0.51917547563E+02 -0.39724212358E+03  0.41170358172E+03  0.83002134231E+02 0.  0.
        -11    1    1    2    0    0 -0.40763336951E+02  0.69884257961E+02  0.46798964446E+03  0.47493132816E+03  0.00000000000E+00 0. -1.
         11    1    1    2    0    0  0.86738856728E+02 -0.17966710398E+02 -0.70747520875E+02  0.11336509012E+03  0.00000000000E+00 0. -1.
        -15    1    3    3    0    0  0.17829522780E+02  0.69736725836E+01 -0.45442143328E+02  0.49342376424E+02  0.17770000000E+01 0.  1.
         15    1    3    3    0    0 -0.63805042558E+02 -0.58891220147E+02 -0.35179998025E+03  0.36236120529E+03  0.17770000000E+01 0. -1.
</event>
<event>
 7    1  0.3234965E-006  0.5216381E+03  0.7546771E-02  0.9352653E-01
        -11   -1    0    0    0    0  0.00000000000E+00  0.00000000000E+00  0.50000000000E+03  0.50000000000E+03  0.00000000000E+00 0. -1.
         11   -1    0    0    0    0 -0.00000000000E+00 -0.00000000000E+00 -0.50000000000E+03  0.50000000000E+03  0.00000000000E+00 0.  1.
         23    2    1    2    0    0  0.36674644341E+02 -0.63859089438E+02  0.33308604959E+03  0.35324616967E+03  0.91725280678E+02 0.  0.
        -11    1    1    2    0    0 -0.17861155367E+02 -0.13209877760E+03  0.10289181544E+03  0.16839190479E+03  0.00000000000E+00 0. -1.
         11    1    1    2    0    0 -0.18813488974E+02  0.19595786703E+03 -0.43597786502E+03  0.47836192554E+03  0.00000000000E+00 0.  1.
        -15    1    3    3    0    0  0.98786625555E+01  0.22459371776E+02  0.44683289396E+02  0.51007503710E+02  0.17770000000E+01 0.  1.
         15    1    3    3    0    0  0.26795981785E+02 -0.86318461214E+02  0.28840276019E+03  0.30223866596E+03  0.17770000000E+01 0. -1.
</event>
<event>
 7    1  0.3234965E-006  0.5147456E+03  0.7546771E-02  0.9367407E-01
        -11   -1    0    0    0    0  0.00000000000E+00  0.00000000000E+00  0.50000000000E+03  0.50000000000E+03  0.00000000000E+00 0. -1.
         11   -1    0    0    0    0 -0.00000000000E+00 -0.00000000000E+00 -0.50000000000E+03  0.50000000000E+03  0.00000000000E+00 0. -1.
         23    2    1    2    0    0  0.18026892137E+03 -0.23930483190E+03  0.15885959748E+03  0.35054005873E+03  0.88759644452E+02 0.  0.
        -11    1    1    2    0    0  0.28811167589E+02 -0.80675112292E+02  0.14008889190E+03  0.16420552596E+03  0.00000000000E+00 0. -1.
         11    1    1    2    0    0 -0.20908008895E+03  0.31997994419E+03 -0.29894848938E+03  0.48525441531E+03  0.00000000000E+00 0. -1.
        -15    1    3    3    0    0  0.12983115887E+03 -0.15239932851E+03  0.58666239789E+02  0.20863022448E+03  0.17770000000E+01 0. -1.
         15    1    3    3    0    0  0.50437762494E+02 -0.86905503386E+02  0.10019335769E+03  0.14190983425E+03  0.17770000000E+01 0.  1.
</event>
<event>
 7    1  0.3234965E-006  0.5157215E+03  0.7546771E-02  0.9365303E-01
        -11   -1    0    0    0    0  0.00000000000E+00  0.00000000000E+00  0.50000000000E+03  0.50000000000E+03  0.00000000000E+00 0. -1.
         11   -1    0    0    0    0 -0.00000000000E+00 -0.00000000000E+00 -0.50000000000E+03  0.50000000000E+03  0.00000000000E+00 0.  1.
         23    2    1    2    0    0 -0.14901440748E+02  0.46862378201E+02 -0.15800904423E+03  0.18866372129E+03  0.90603566407E+02 0.  0.
        -11    1    1    2    0    0 -0.80461703465E+02 -0.12216313253E+03  0.46165761508E+03  0.48427850483E+03  0.00000000000E+00 0. -1.
         11    1    1    2    0    0  0.95363144213E+02  0.75300754329E+02 -0.30364857085E+03  0.32705777388E+03  0.00000000000E+00 0.  1.
        -15    1    3    3    0    0  0.12372490638E+02 -0.24042584997E+02 -0.41522081373E+02  0.49581905857E+02  0.17770000000E+01 0. -1.
         15    1    3    3    0    0 -0.27273931386E+02  0.70904963199E+02 -0.11648696286E+03  0.13908181543E+03  0.17770000000E+01 0.  1.
</event>
<event>
 7    1  0.3234965E-006  0.4397025E+03  0.7546771E-02  0.9545860E-01
        -11   -1    0    0    0    0  0.00000000000E+00  0.00000000000E+00  0.50000000000E+03  0.50000000000E+03  0.00000000000E+00 0.  1.
         11   -1    0    0    0    0 -0.00000000000E+00 -0.00000000000E+00 -0.50000000000E+03  0.50000000000E+03  0.00000000000E+00 0. -1.
         23    2    1    2    0    0  0.72955752383E+02  0.17105027733E+02  0.21230642561E+01  0.11740566997E+03  0.90357402356E+02 0.  0.
        -11    1    1    2    0    0 -0.99983063665E+01 -0.14196673391E+03  0.41707496380E+03  0.44068814948E+03  0.00000000000E+00 0.  1.
         11    1    1    2    0    0 -0.62957446016E+02  0.12486170617E+03 -0.41919802806E+03  0.44190618054E+03  0.00000000000E+00 0. -1.
        -15    1    3    3    0    0 -0.67577372770E+01 -0.14047479484E+02 -0.23315500497E+02  0.28102828779E+02  0.17770000000E+01 0. -1.
         15    1    3    3    0    0  0.79713489660E+02  0.31152507217E+02  0.25438564753E+02  0.89302841194E+02  0.17770000000E+01 0.  1.
</event>
<event>
 7    1  0.3234965E-006  0.5105405E+03  0.7546771E-02  0.9376529E-01
        -11   -1    0    0    0    0  0.00000000000E+00  0.00000000000E+00  0.50000000000E+03  0.50000000000E+03  0.00000000000E+00 0. -1.
         11   -1    0    0    0    0 -0.00000000000E+00 -0.00000000000E+00 -0.50000000000E+03  0.50000000000E+03  0.00000000000E+00 0.  1.
         23    2    1    2    0    0  0.80401706632E+02  0.10009804135E+02 -0.33997262099E+03  0.36140522197E+03  0.92020219702E+02 0.  0.
        -11    1    1    2    0    0 -0.75831912481E+02  0.34168637997E+02  0.48234081539E+03  0.48945953557E+03  0.00000000000E+00 0. -1.
         11    1    1    2    0    0 -0.45697941514E+01 -0.44178442131E+02 -0.14236819439E+03  0.14913524246E+03  0.00000000000E+00 0.  1.
        -15    1    3    3    0    0  0.55137252600E+02 -0.29961060906E+02 -0.26811751720E+03  0.27536873924E+03  0.17770000000E+01 0.  1.
         15    1    3    3    0    0  0.25264454032E+02  0.39970865041E+02 -0.71855103799E+02  0.86036482730E+02  0.17770000000E+01 0. -1.
</event>
<event>
 7    1  0.3234965E-006  0.5105434E+03  0.7546771E-02  0.9376522E-01
        -11   -1    0    0    0    0  0.00000000000E+00  0.00000000000E+00  0.50000000000E+03  0.50000000000E+03  0.00000000000E+00 0.  1.
         11   -1    0    0    0    0 -0.00000000000E+00 -0.00000000000E+00 -0.50000000000E+03  0.50000000000E+03  0.00000000000E+00 0.  1.
         23    2    1    2    0    0  0.98115168291E+00  0.59251121595E+02 -0.47697249033E+03  0.48945659083E+03  0.92484267349E+02 0.  0.
        -11    1    1    2    0    0  0.61588434977E+02 -0.46318101104E+02  0.41300517767E+03  0.42013304868E+03  0.00000000000E+00 0.  1.
         11    1    1    2    0    0 -0.62569586659E+02 -0.12933020491E+02  0.63967312660E+02  0.90410360483E+02  0.00000000000E+00 0.  1.
        -15    1    3    3    0    0  0.44378074620E+02  0.41133082199E+02 -0.31599716359E+03  0.32174323471E+03  0.17770000000E+01 0.  1.
         15    1    3    3    0    0 -0.43396922937E+02  0.18118039396E+02 -0.16097532674E+03  0.16771335612E+03  0.17770000000E+01 0. -1.
</event>
<event>
 7    1  0.3234965E-006  0.5378205E+03  0.7546771E-02  0.9318946E-01
        -11   -1    0    0    0    0  0.00000000000E+00  0.00000000000E+00  0.50000000000E+03  0.50000000000E+03  0.00000000000E+00 0.  1.
         11   -1    0    0    0    0 -0.00000000000E+00 -0.00000000000E+00 -0.50000000000E+03  0.50000000000E+03  0.00000000000E+00 0. -1.
         23    2    1    2    0    0 -0.10038682372E+03  0.39177140049E+02 -0.27336707641E+03  0.30791183959E+03  0.92020540208E+02 0.  0.
        -11    1    1    2    0    0  0.18905078097E+03  0.13012482536E+03  0.40116981534E+03  0.46217949836E+03  0.00000000000E+00 0.  1.
         11    1    1    2    0    0 -0.88663957248E+02 -0.16930196540E+03 -0.12780273894E+03  0.22990866205E+03  0.00000000000E+00 0. -1.
        -15    1    3    3    0    0  0.17836244162E+01 -0.18324639593E+02 -0.13760209797E+02  0.23053737982E+02  0.17770000000E+01 0. -1.
         15    1    3    3    0    0 -0.10217044814E+03  0.57501779642E+02 -0.25960686661E+03  0.28485810161E+03  0.17770000000E+01 0. -1.
</event>
<event>
 7    1  0.3234965E-006  0.5119145E+03  0.7546771E-02  0.9373538E-01
        -11   -1    0    0    0    0  0.00000000000E+00  0.00000000000E+00  0.50000000000E+03  0.50000000000E+03  0.00000000000E+00 0. -1.
         11   -1    0    0    0    0 -0.00000000000E+00 -0.00000000000E+00 -0.50000000000E+03  0.50000000000E+03  0.00000000000E+00 0.  1.
         23    2    1    2    0    0  0.17082363331E+02  0.22188991863E+02 -0.21043586345E+03  0.23125065406E+03  0.91703074550E+02 0.  0.
        -11    1    1    2    0    0 -0.11029830792E+03 -0.81780024815E+02  0.46837357979E+03  0.48808554520E+03  0.00000000000E+00 0. -1.
         11    1    1    2    0    0  0.93215944591E+02  0.59591032951E+02 -0.25793771634E+03  0.28066380074E+03  0.00000000000E+00 0.  1.
        -15    1    3    3    0    0  0.42889189387E+02  0.30524520467E+02 -0.19022206612E+03  0.19737989028E+03  0.17770000000E+01 0.  1.
         15    1    3    3    0    0 -0.25806826055E+02 -0.83355286037E+01 -0.20213797324E+02  0.33870763785E+02  0.17770000000E+01 0. -1.
</event>
<event>
 7    1  0.3234965E-006  0.5312114E+03  0.7546771E-02  0.9332559E-01
        -11   -1    0    0    0    0  0.00000000000E+00  0.00000000000E+00  0.50000000000E+03  0.50000000000E+03  0.00000000000E+00 0.  1.
         11   -1    0    0    0    0 -0.00000000000E+00 -0.00000000000E+00 -0.50000000000E+03  0.50000000000E+03  0.00000000000E+00 0. -1.
         23    2    1    2    0    0 -0.54243202738E+02  0.57373216364E+02 -0.56518698161E+02  0.13364437646E+03  0.91828345936E+02 0.  0.
        -11    1    1    2    0    0  0.14049923933E+03 -0.49160695160E+02  0.44452894623E+03  0.46878864559E+03  0.00000000000E+00 0.  1.
         11    1    1    2    0    0 -0.86256036594E+02 -0.82125212041E+01 -0.38801024807E+03  0.39756697795E+03  0.00000000000E+00 0. -1.
        -15    1    3    3    0    0 -0.70476347767E+02  0.65315047418E+02 -0.62366053978E+02  0.11456724415E+03  0.17770000000E+01 0. -1.
         15    1    3    3    0    0  0.16233145029E+02 -0.79418310547E+01  0.58473558175E+01  0.19077132308E+02  0.17770000000E+01 0.  1.
</event>
<event>
 7    1  0.3234965E-006  0.5194666E+03  0.7546771E-02  0.9357275E-01
        -11   -1    0    0    0    0  0.00000000000E+00  0.00000000000E+00  0.50000000000E+03  0.50000000000E+03  0.00000000000E+00 0.  1.
         11   -1    0    0    0    0 -0.00000000000E+00 -0.00000000000E+00 -0.50000000000E+03  0.50000000000E+03  0.00000000000E+00 0.  1.
         23    2    1    2    0    0 -0.13481819692E+03 -0.13918103939E+03  0.30420077239E+03  0.37837987502E+03  0.11439367093E+03 0.  0.
        -11    1    1    2    0    0  0.29371991351E+02 -0.21090835840E+02  0.13637424455E+03  0.14108675277E+03  0.00000000000E+00 0.  1.
         11    1    1    2    0    0  0.10544620557E+03  0.16027187523E+03 -0.44057501694E+03  0.48053337221E+03  0.00000000000E+00 0.  1.
        -15    1    3    3    0    0 -0.91105602354E+02 -0.88924550048E+02  0.27982613938E+03  0.30743069526E+03  0.17770000000E+01 0.  1.
         15    1    3    3    0    0 -0.43712594564E+02 -0.50256489337E+02  0.24374633015E+02  0.70949179753E+02  0.17770000000E+01 0. -1.
</event>
<event>
 7    1  0.3234965E-006  0.5080027E+03  0.7546771E-02  0.9382079E-01
        -11   -1    0    0    0    0  0.00000000000E+00  0.00000000000E+00  0.50000000000E+03  0.50000000000E+03  0.00000000000E+00 0.  1.
         11   -1    0    0    0    0 -0.00000000000E+00 -0.00000000000E+00 -0.50000000000E+03  0.50000000000E+03  0.00000000000E+00 0.  1.
         23    2    1    2    0    0 -0.72822929573E+02 -0.73162912379E+02  0.38328827812E+03  0.40721720530E+03  0.90884307377E+02 0.  0.
        -11    1    1    2    0    0  0.19463505141E+02 -0.19166164603E+02  0.97013133854E+02  0.10078550510E+03  0.00000000000E+00 0.  1.
         11    1    1    2    0    0  0.53359424432E+02  0.92329076982E+02 -0.48030141197E+03  0.49199728960E+03  0.00000000000E+00 0.  1.
        -15    1    3    3    0    0 -0.15201998601E+01 -0.55650212444E+02  0.23787884551E+03  0.24431283229E+03  0.17770000000E+01 0. -1.
         15    1    3    3    0    0 -0.71302729713E+02 -0.17512699935E+02  0.14540943261E+03  0.16290437301E+03  0.17770000000E+01 0.  1.
</event>
<event>
 7    1  0.3234965E-006  0.4018543E+03  0.7546771E-02  0.9650938E-01
        -11   -1    0    0    0    0  0.00000000000E+00  0.00000000000E+00  0.50000000000E+03  0.50000000000E+03  0.00000000000E+00 0. -1.
         11   -1    0    0    0    0 -0.00000000000E+00 -0.00000000000E+00 -0.50000000000E+03  0.50000000000E+03  0.00000000000E+00 0.  1.
         23    2    1    2    0    0 -0.81520302927E+02  0.93772167691E+02  0.68542130518E+02  0.18386007463E+03  0.11690904227E+03 0.  0.
        -11    1    1    2    0    0 -0.46563973269E+02 -0.39802873017E+02  0.36023084936E+03  0.36540215809E+03  0.00000000000E+00 0. -1.
         11    1    1    2    0    0  0.12808427620E+03 -0.53969294674E+02 -0.42877297988E+03  0.45073776728E+03  0.00000000000E+00 0.  1.
        -15    1    3    3    0    0 -0.30339699360E+02  0.10700571342E+03  0.21973262170E+02  0.11338739807E+03  0.17770000000E+01 0. -1.
         15    1    3    3    0    0 -0.51180603567E+02 -0.13233545727E+02  0.46568868347E+02  0.70472676564E+02  0.17770000000E+01 0.  1.
</event>
<event>
 7    1  0.3234965E-006  0.5156674E+03  0.7546771E-02  0.9365419E-01
        -11   -1    0    0    0    0  0.00000000000E+00  0.00000000000E+00  0.50000000000E+03  0.50000000000E+03  0.00000000000E+00 0. -1.
         11   -1    0    0    0    0 -0.00000000000E+00 -0.00000000000E+00 -0.50000000000E+03  0.50000000000E+03  0.00000000000E+00 0.  1.
         23    2    1    2    0    0  0.12974450272E+03 -0.22515449794E+02  0.19146700106E+03  0.24965677155E+03  0.91259572762E+02 0.  0.
        -11    1    1    2    0    0  0.41988041107E+02  0.26023940180E+02  0.26138363965E+03  0.26601061659E+03  0.00000000000E+00 0. -1.
         11    1    1    2    0    0 -0.17173254383E+03 -0.35084903861E+01 -0.45285064071E+03  0.48433261186E+03  0.00000000000E+00 0.  1.
        -15    1    3    3    0    0  0.99714602990E+02 -0.36404621870E+02  0.78790921681E+02  0.13220993008E+03  0.17770000000E+01 0.  1.
         15    1    3    3    0    0  0.30029899734E+02  0.13889172076E+02  0.11267607938E+03  0.11744684148E+03  0.17770000000E+01 0. -1.
</event>
<event>
 7    1  0.3234965E-006  0.5193174E+03  0.7546771E-02  0.9357594E-01
        -11   -1    0    0    0    0  0.00000000000E+00  0.00000000000E+00  0.50000000000E+03  0.50000000000E+03  0.00000000000E+00 0. -1.
         11   -1    0    0    0    0 -0.00000000000E+00 -0.00000000000E+00 -0.50000000000E+03  0.50000000000E+03  0.00000000000E+00 0. -1.
         23    2    1    2    0    0 -0.38936357098E+02 -0.12343489118E+02  0.27915359973E+03  0.29678289292E+03  0.92113797353E+02 0.  0.
        -11    1    1    2    0    0 -0.12655493646E+02 -0.13719450048E+03  0.17475439438E+03  0.22253447112E+03  0.00000000000E+00 0. -1.
         11    1    1    2    0    0  0.51591850744E+02  0.14953798960E+03 -0.45390799411E+03  0.48068263596E+03  0.00000000000E+00 0. -1.
        -15    1    3    3    0    0 -0.23685177030E+02  0.36498520907E+02  0.17998205859E+03  0.18517513003E+03  0.17770000000E+01 0. -1.
         15    1    3    3    0    0 -0.15251180068E+02 -0.48842010024E+02  0.99171541142E+02  0.11160776289E+03  0.17770000000E+01 0.  1.
</event>
<event>
 7    1  0.3234965E-006  0.3689190E+03  0.7546771E-02  0.9752973E-01
        -11   -1    0    0    0    0  0.00000000000E+00  0.00000000000E+00  0.50000000000E+03  0.50000000000E+03  0.00000000000E+00 0.  1.
         11   -1    0    0    0    0 -0.00000000000E+00 -0.00000000000E+00 -0.50000000000E+03  0.50000000000E+03  0.00000000000E+00 0. -1.
         23    2    1    2    0    0  0.10138561544E+03  0.42897432007E+02 -0.30087052710E+03  0.33194585910E+03  0.86866256975E+02 0.  0.
        -11    1    1    2    0    0  0.29967610141E+02  0.11487338943E+03  0.41605071153E+03  0.43265707879E+03  0.00000000000E+00 0.  1.
         11    1    1    2    0    0 -0.13135322558E+03 -0.15777082144E+03 -0.11518018443E+03  0.23539706212E+03  0.00000000000E+00 0. -1.
        -15    1    3    3    0    0  0.11100386654E+03  0.24269314759E+02 -0.21111488016E+03  0.23975718630E+03  0.17770000000E+01 0. -1.
         15    1    3    3    0    0 -0.96182510951E+01  0.18628117248E+02 -0.89755646938E+02  0.92188672800E+02  0.17770000000E+01 0.  1.
</event>
<event>
 7    1  0.3234965E-006  0.4078315E+03  0.7546771E-02  0.9633540E-01
        -11   -1    0    0    0    0  0.00000000000E+00  0.00000000000E+00  0.50000000000E+03  0.50000000000E+03  0.00000000000E+00 0.  1.
         11   -1    0    0    0    0 -0.00000000000E+00 -0.00000000000E+00 -0.50000000000E+03  0.50000000000E+03  0.00000000000E+00 0.  1.
         23    2    1    2    0    0 -0.27424172032E+03  0.23478830795E+03 -0.27085773863E+03  0.46025812573E+03  0.90219493491E+02 0.  0.
        -11    1    1    2    0    0 -0.18270831778E+02 -0.43104540450E+02  0.16917923051E+03  0.17553756503E+03  0.00000000000E+00 0.  1.
         11    1    1    2    0    0  0.29251255210E+03 -0.19168376750E+03  0.10167850813E+03  0.36420430925E+03  0.00000000000E+00 0.  1.
        -15    1    3    3    0    0 -0.17819365544E+03  0.10477961360E+03 -0.11933478072E+03  0.23869581874E+03  0.17770000000E+01 0. -1.
         15    1    3    3    0    0 -0.96048064881E+02  0.13000869435E+03 -0.15152295791E+03  0.22156230698E+03  0.17770000000E+01 0.  1.
</event>
<event>
 7    1  0.3234965E-006  0.4832940E+03  0.7546771E-02  0.9437987E-01
        -11   -1    0    0    0    0  0.00000000000E+00  0.00000000000E+00  0.50000000000E+03  0.50000000000E+03  0.00000000000E+00 0.  1.
         11   -1    0    0    0    0 -0.00000000000E+00 -0.00000000000E+00 -0.50000000000E+03  0.50000000000E+03  0.00000000000E+00 0. -1.
         23    2    1    2    0    0 -0.13350669866E+03  0.84770242029E+02  0.43027804067E+03  0.46646303440E+03  0.86246957377E+02 0.  0.
        -11    1    1    2    0    0  0.10169848284E+02  0.61514720696E+01  0.38530920801E+02  0.40322429001E+02  0.00000000000E+00 0.  1.
         11    1    1    2    0    0  0.12333685038E+03 -0.90921714098E+02 -0.46880896147E+03  0.49321453660E+03  0.00000000000E+00 0. -1.
        -15    1    3    3    0    0 -0.97485686104E+02  0.10093543642E+03  0.32467439238E+03  0.35370614939E+03  0.17770000000E+01 0. -1.
         15    1    3    3    0    0 -0.36021012560E+02 -0.16165194393E+02  0.10560364829E+03  0.11275688501E+03  0.17770000000E+01 0.  1.
</event>
<event>
 7    1  0.3234965E-006  0.5237600E+03  0.7546771E-02  0.9348160E-01
        -11   -1    0    0    0    0  0.00000000000E+00  0.00000000000E+00  0.50000000000E+03  0.50000000000E+03  0.00000000000E+00 0.  1.
         11   -1    0    0    0    0 -0.00000000000E+00 -0.00000000000E+00 -0.50000000000E+03  0.50000000000E+03  0.00000000000E+00 0. -1.
         23    2    1    2    0    0  0.48076631920E+02  0.42071629432E+02  0.92938432301E+02  0.14300715057E+03  0.87932408002E+02 0.  0.
        -11    1    1    2    0    0 -0.51786915239E+02  0.56745814573E+02  0.37292193000E+03  0.38075285677E+03  0.00000000000E+00 0.  1.
         11    1    1    2    0    0  0.37102833185E+01 -0.98817444005E+02 -0.46586036230E+03  0.47623999266E+03  0.00000000000E+00 0. -1.
        -15    1    3    3    0    0 -0.18422470897E+01 -0.23581138485E+02  0.91485252540E+01  0.25422769517E+02  0.17770000000E+01 0.  1.
         15    1    3    3    0    0  0.49918879010E+02  0.65652767917E+02  0.83789907047E+02  0.11758438106E+03  0.17770000000E+01 0. -1.
</event>
<event>
 7    1  0.3234965E-006  0.3555008E+03  0.7546771E-02  0.9797868E-01
        -11   -1    0    0    0    0  0.00000000000E+00  0.00000000000E+00  0.50000000000E+03  0.50000000000E+03  0.00000000000E+00 0.  1.
         11   -1    0    0    0    0 -0.00000000000E+00 -0.00000000000E+00 -0.50000000000E+03  0.50000000000E+03  0.00000000000E+00 0.  1.
         23    2    1    2    0    0 -0.11969316258E+03 -0.14080434660E+03 -0.29876161545E+03  0.36271610079E+03  0.90289255835E+02 0.  0.
        -11    1    1    2    0    0  0.37199307563E+02 -0.90518814097E+02  0.36907076863E+03  0.38182545286E+03  0.00000000000E+00 0.  1.
         11    1    1    2    0    0  0.82493855017E+02  0.23132316070E+03 -0.70309153183E+02  0.25545844635E+03  0.00000000000E+00 0.  1.
        -15    1    3    3    0    0 -0.58103930158E+02 -0.19626863078E+02 -0.14517772440E+03  0.15761031009E+03  0.17770000000E+01 0.  1.
         15    1    3    3    0    0 -0.61589232422E+02 -0.12117748352E+03 -0.15358389105E+03  0.20510579070E+03  0.17770000000E+01 0. -1.
</event>
<event>
 7    1  0.3234965E-006  0.3685954E+03  0.7546771E-02  0.9754032E-01
        -11   -1    0    0    0    0  0.00000000000E+00  0.00000000000E+00  0.50000000000E+03  0.50000000000E+03  0.00000000000E+00 0.  1.
         11   -1    0    0    0    0 -0.00000000000E+00 -0.00000000000E+00 -0.50000000000E+03  0.50000000000E+03  0.00000000000E+00 0.  1.
         23    2    1    2    0    0  0.90108607706E+02 -0.12764882341E+03 -0.24716421159E+03  0.30675708740E+03  0.92714507368E+02 0.  0.
        -11    1    1    2    0    0  0.32402643463E+02  0.89268606458E+02  0.44630993824E+03  0.45630184787E+03  0.00000000000E+00 0.  1.
         11    1    1    2    0    0 -0.12251125117E+03  0.38380216950E+02 -0.19914572664E+03  0.23694106473E+03  0.00000000000E+00 0.  1.
        -15    1    3    3    0    0 -0.48953504503E+01 -0.67417034892E+02 -0.73845425693E+02  0.10012654830E+03  0.17770000000E+01 0. -1.
         15    1    3    3    0    0  0.95003958156E+02 -0.60231788516E+02 -0.17331878590E+03  0.20663053910E+03  0.17770000000E+01 0.  1.
</event>
<event>
 7    1  0.3234965E-006  0.5326059E+03  0.7546771E-02  0.9329669E-01
        -11   -1    0    0    0    0  0.00000000000E+00  0.00000000000E+00  0.50000000000E+03  0.50000000000E+03  0.00000000000E+00 0.  1.
         11   -1    0    0    0    0 -0.00000000000E+00 -0.00000000000E+00 -0.50000000000E+03  0.50000000000E+03  0.00000000000E+00 0.  1.
         23    2    1    2    0    0 -0.59812047790E+02  0.69881935672E+02 -0.26256504004E+03  0.28987507961E+03  0.81401446728E+02 0.  0.
        -11    1    1    2    0    0 -0.74601619140E+02 -0.28947104059E+02  0.46049315352E+03  0.46739413866E+03  0.00000000000E+00 0.  1.
         11    1    1    2    0    0  0.13441366693E+03 -0.40934831613E+02 -0.19792811348E+03  0.24273078174E+03  0.00000000000E+00 0.  1.
        -15    1    3    3    0    0 -0.73631642540E+02  0.47082749348E+02 -0.23812680594E+03  0.25366501041E+03  0.17770000000E+01 0.  1.
         15    1    3    3    0    0  0.13819594750E+02  0.22799186324E+02 -0.24438234098E+02  0.36210069193E+02  0.17770000000E+01 0. -1.
</event>
<event>
 7    1  0.3234965E-006  0.3487877E+03  0.7546771E-02  0.9821133E-01
        -11   -1    0    0    0    0  0.00000000000E+00  0.00000000000E+00  0.50000000000E+03  0.50000000000E+03  0.00000000000E+00 0. -1.
         11   -1    0    0    0    0 -0.00000000000E+00 -0.00000000000E+00 -0.50000000000E+03  0.50000000000E+03  0.00000000000E+00 0. -1.
         23    2    1    2    0    0  0.10002319525E+03 -0.21671343297E+03 -0.32117242026E+02  0.26202142414E+03  0.10321994893E+03 0.  0.
        -11    1    1    2    0    0 -0.56268821369E+02  0.29720478109E+02  0.35589039548E+03  0.36153486785E+03  0.00000000000E+00 0. -1.
         11    1    1    2    0    0 -0.43754373879E+02  0.18699295486E+03 -0.32377315346E+03  0.37644370801E+03  0.00000000000E+00 0. -1.
        -15    1    3    3    0    0 -0.13213427036E+02 -0.17021255627E+02  0.16697722812E+02  0.27318299238E+02  0.17770000000E+01 0.  1.
         15    1    3    3    0    0  0.11323662228E+03 -0.19969217734E+03 -0.48814964838E+02  0.23470312490E+03  0.17770000000E+01 0. -1.
</event>
<event>
 7    1  0.3234965E-006  0.5214441E+03  0.7546771E-02  0.9353065E-01
        -11   -1    0    0    0    0  0.00000000000E+00  0.00000000000E+00  0.50000000000E+03  0.50000000000E+03  0.00000000000E+00 0. -1.
         11   -1    0    0    0    0 -0.00000000000E+00 -0.00000000000E+00 -0.50000000000E+03  0.50000000000E+03  0.00000000000E+00 0. -1.
         23    2    1    2    0    0 -0.78886216714E+01 -0.21335970298E+02  0.77334571377E+02  0.12226434190E+03  0.91926489055E+02 0.  0.
        -11    1    1    2    0    0  0.23135724991E+02 -0.62335398388E+02  0.39360321944E+03  0.39917973147E+03  0.00000000000E+00 0. -1.
         11    1    1    2    0    0 -0.15247103320E+02  0.83671368686E+02 -0.47093779081E+03  0.47855592663E+03  0.00000000000E+00 0. -1.
        -15    1    3    3    0    0  0.11479891391E+02 -0.49574352491E+01 -0.18897467891E+02  0.22729630271E+02  0.17770000000E+01 0.  1.
         15    1    3    3    0    0 -0.19368513062E+02 -0.16378535049E+02  0.96232039268E+02  0.99534711630E+02  0.17770000000E+01 0. -1.
</event>
<event>
 7    1  0.3234965E-006  0.4340734E+03  0.7546771E-02  0.9560758E-01
        -11   -1    0    0    0    0  0.00000000000E+00  0.00000000000E+00  0.50000000000E+03  0.50000000000E+03  0.00000000000E+00 0. -1.
         11   -1    0    0    0    0 -0.00000000000E+00 -0.00000000000E+00 -0.50000000000E+03  0.50000000000E+03  0.00000000000E+00 0. -1.
         23    2    1    2    0    0 -0.11765643000E+03 -0.67396197511E+02 -0.41836288479E+03  0.44825642310E+03  0.86723898212E+02 0.  0.
        -11    1    1    2    0    0 -0.10157440081E+02  0.93611244946E+02  0.41035931249E+03  0.42102375718E+03  0.00000000000E+00 0. -1.
         11    1    1    2    0    0  0.12781387008E+03 -0.26215047436E+02  0.80035723008E+01  0.13071981972E+03  0.00000000000E+00 0. -1.
        -15    1    3    3    0    0  0.54558077316E+01 -0.18659667372E+02 -0.17966885209E+02  0.26531410018E+02  0.17770000000E+01 0.  1.
         15    1    3    3    0    0 -0.12311223773E+03 -0.48736530139E+02 -0.40039599958E+03  0.42172501308E+03  0.17770000000E+01 0. -1.
</event>
<event>
 7    1  0.3234965E-006  0.4283387E+03  0.7546771E-02  0.9576186E-01
        -11   -1    0    0    0    0  0.00000000000E+00  0.00000000000E+00  0.50000000000E+03  0.50000000000E+03  0.00000000000E+00 0.  1.
         11   -1    0    0    0    0 -0.00000000000E+00 -0.00000000000E+00 -0.50000000000E+03  0.50000000000E+03  0.00000000000E+00 0. -1.
         23    2    1    2    0    0  0.11878822221E+03 -0.10090229376E+03 -0.39860259774E+03  0.44596667899E+03  0.12534086811E+03 0.  0.
        -11    1    1    2    0    0 -0.11331684924E+03  0.22536034802E+03  0.31697664257E+03  0.40509528104E+03  0.00000000000E+00 0.  1.
         11    1    1    2    0    0 -0.54713729719E+01 -0.12445805426E+03  0.81625955171E+02  0.14893803997E+03  0.00000000000E+00 0. -1.
        -15    1    3    3    0    0  0.15656164972E+02 -0.56837286634E+01  0.59304950580E+01  0.17769321140E+02  0.17770000000E+01 0.  1.
         15    1    3    3    0    0  0.10313205724E+03 -0.95218565100E+02 -0.40453309280E+03  0.42819735785E+03  0.17770000000E+01 0. -1.
</event>
<event>
 7    1  0.3234965E-006  0.3909474E+03  0.7546771E-02  0.9683533E-01
        -11   -1    0    0    0    0  0.00000000000E+00  0.00000000000E+00  0.50000000000E+03  0.50000000000E+03  0.00000000000E+00 0.  1.
         11   -1    0    0    0    0 -0.00000000000E+00 -0.00000000000E+00 -0.50000000000E+03  0.50000000000E+03  0.00000000000E+00 0. -1.
         23    2    1    2    0    0  0.16695772791E+03  0.11984887936E+02 -0.51173997446E+02  0.19875290701E+03  0.94156357084E+02 0.  0.
        -11    1    1    2    0    0 -0.72775251427E+02 -0.57853493238E+02  0.41363340464E+03  0.42395265931E+03  0.00000000000E+00 0.  1.
         11    1    1    2    0    0 -0.94182476487E+02  0.45868605302E+02 -0.36245940719E+03  0.37729443369E+03  0.00000000000E+00 0. -1.
        -15    1    3    3    0    0  0.83887113470E+02 -0.14792755027E+02  0.18349395625E+02  0.87153493656E+02  0.17770000000E+01 0.  1.
         15    1    3    3    0    0  0.83070614445E+02  0.26777642964E+02 -0.69523393071E+02  0.11159941335E+03  0.17770000000E+01 0. -1.
</event>
<event>
 7    1  0.3234965E-006  0.5402240E+03  0.7546771E-02  0.9314047E-01
        -11   -1    0    0    0    0  0.00000000000E+00  0.00000000000E+00  0.50000000000E+03  0.50000000000E+03  0.00000000000E+00 0. -1.
         11   -1    0    0    0    0 -0.00000000000E+00 -0.00000000000E+00 -0.50000000000E+03  0.50000000000E+03  0.00000000000E+00 0.  1.
         23    2    1    2    0    0  0.78157677462E+02 -0.10986913205E+03  0.18820905903E+03  0.24874907812E+03  0.90959360379E+02 0.  0.
        -11    1    1    2    0    0  0.22665233316E+03  0.96581986688E+02  0.15575065470E+03  0.29147491611E+03  0.00000000000E+00 0. -1.
         11    1    1    2    0    0 -0.30481001063E+03  0.13287145360E+02 -0.34395971373E+03  0.45977600577E+03  0.00000000000E+00 0.  1.
        -15    1    3    3    0    0  0.13316436111E+02  0.14146335330E+02  0.42228859864E+02  0.46517530119E+02  0.17770000000E+01 0.  1.
         15    1    3    3    0    0  0.64841241352E+02 -0.12401546738E+03  0.14598019917E+03  0.20223154800E+03  0.17770000000E+01 0. -1.
</event>
<event>
 7    1  0.3234965E-006  0.5283217E+03  0.7546771E-02  0.9338576E-01
        -11   -1    0    0    0    0  0.00000000000E+00  0.00000000000E+00  0.50000000000E+03  0.50000000000E+03  0.00000000000E+00 0.  1.
         11   -1    0    0    0    0 -0.00000000000E+00 -0.00000000000E+00 -0.50000000000E+03  0.50000000000E+03  0.00000000000E+00 0. -1.
         23    2    1    2    0    0  0.50608056053E+02  0.57062627093E+02 -0.11913406588E+03  0.16874520180E+03  0.92003797354E+02 0.  0.
        -11    1    1    2    0    0 -0.95802019606E+02  0.51364973895E+02  0.45898146458E+03  0.47167825086E+03  0.00000000000E+00 0.  1.
         11    1    1    2    0    0  0.45193963553E+02 -0.10842760099E+03 -0.33984739870E+03  0.35957654734E+03  0.00000000000E+00 0. -1.
        -15    1    3    3    0    0  0.19156634393E+02  0.59470036446E+02 -0.21455679238E+02  0.66084535080E+02  0.17770000000E+01 0.  1.
         15    1    3    3    0    0  0.31451421660E+02 -0.24074093530E+01 -0.97678386644E+02  0.10266066672E+03  0.17770000000E+01 0. -1.
</event>
<event>
 7    1  0.3234965E-006  0.5349655E+03  0.7546771E-02  0.9324801E-01
        -11   -1    0    0    0    0  0.00000000000E+00  0.00000000000E+00  0.50000000000E+03  0.50000000000E+03  0.00000000000E+00 0. -1.
         11   -1    0    0    0    0 -0.00000000000E+00 -0.00000000000E+00 -0.50000000000E+03  0.50000000000E+03  0.00000000000E+00 0.  1.
         23    2    1    2    0    0 -0.68739161448E+02  0.38437465213E+02 -0.13115666855E+03  0.17787617261E+03  0.90748829353E+02 0.  0.
        -11    1    1    2    0    0 -0.79850547369E+02 -0.46491135107E+02  0.45576261201E+03  0.46503450846E+03  0.00000000000E+00 0. -1.
         11    1    1    2    0    0  0.14858970882E+03  0.80536698940E+01 -0.32460594345E+03  0.35708931893E+03  0.00000000000E+00 0.  1.
        -15    1    3    3    0    0 -0.15582726677E+02  0.52082219980E+02 -0.10226526247E+03  0.11583056870E+03  0.17770000000E+01 0.  1.
         15    1    3    3    0    0 -0.53156434771E+02 -0.13644754767E+02 -0.28891406082E+02  0.62045603910E+02  0.17770000000E+01 0. -1.
</event>
<event>
 7    1  0.3234965E-006  0.5194359E+03  0.7546771E-02  0.9357341E-01
        -11   -1    0    0    0    0  0.00000000000E+00  0.00000000000E+00  0.50000000000E+03  0.50000000000E+03  0.00000000000E+00 0.  1.
         11   -1    0    0    0    0 -0.00000000000E+00 -0.00000000000E+00 -0.50000000000E+03  0.50000000000E+03  0.00000000000E+00 0. -1.
         23    2    1    2    0    0 -0.12025149109E+03  0.14343675318E+02 -0.32698314809E+03  0.36048127242E+03  0.91447288104E+02 0.  0.
        -11    1    1    2    0    0  0.70742050881E+02 -0.56906111292E+02  0.47191009366E+03  0.48056412658E+03  0.00000000000E+00 0.  1.
         11    1    1    2    0    0  0.49509440207E+02  0.42562435974E+02 -0.14492694557E+03  0.15895460100E+03  0.00000000000E+00 0. -1.
        -15    1    3    3    0    0 -0.72730338038E+02  0.53330662374E+02 -0.19912576011E+03  0.21860486657E+03  0.17770000000E+01 0.  1.
         15    1    3    3    0    0 -0.47521153051E+02 -0.38986987056E+02 -0.12785738798E+03  0.14187640585E+03  0.17770000000E+01 0. -1.
</event>
<event>
 7    1  0.3234965E-006  0.5149804E+03  0.7546771E-02  0.9366900E-01
        -11   -1    0    0    0    0  0.00000000000E+00  0.00000000000E+00  0.50000000000E+03  0.50000000000E+03  0.00000000000E+00 0.  1.
         11   -1    0    0    0    0 -0.00000000000E+00 -0.00000000000E+00 -0.50000000000E+03  0.50000000000E+03  0.00000000000E+00 0. -1.
         23    2    1    2    0    0  0.59443502716E+02 -0.79299633782E+01 -0.40049069506E+03  0.41512666024E+03  0.91328707843E+02 0.  0.
        -11    1    1    2    0    0 -0.13336606168E+03 -0.53489305332E+01  0.46629268265E+03  0.48501957008E+03  0.00000000000E+00 0.  1.
         11    1    1    2    0    0  0.73922558967E+02  0.13278893911E+02 -0.65801987591E+02  0.99853769677E+02  0.00000000000E+00 0. -1.
        -15    1    3    3    0    0  0.13031316180E+01  0.36163418030E+02 -0.12783064580E+03  0.13286580708E+03  0.17770000000E+01 0. -1.
         15    1    3    3    0    0  0.58140371098E+02 -0.44093381408E+02 -0.27266004926E+03  0.28226085316E+03  0.17770000000E+01 0.  1.
</event>
<event>
 7    1  0.3234965E-006  0.4617110E+03  0.7546771E-02  0.9489811E-01
        -11   -1    0    0    0    0  0.00000000000E+00  0.00000000000E+00  0.50000000000E+03  0.50000000000E+03  0.00000000000E+00 0. -1.
         11   -1    0    0    0    0 -0.00000000000E+00 -0.00000000000E+00 -0.50000000000E+03  0.50000000000E+03  0.00000000000E+00 0.  1.
         23    2    1    2    0    0  0.87668573841E+02  0.17465229760E+03 -0.37817909083E+03  0.43545791871E+03  0.91733147383E+02 0.  0.
        -11    1    1    2    0    0 -0.38527783554E+02  0.60245321073E+02 -0.40336762855E+02  0.82103247527E+02  0.00000000000E+00 0.  1.
         11    1    1    2    0    0 -0.49140790287E+02 -0.23489761868E+03  0.41851585369E+03  0.48243883376E+03  0.00000000000E+00 0. -1.
        -15    1    3    3    0    0  0.74686277468E+02  0.18338297755E+03 -0.36347719841E+03  0.41391567739E+03  0.17770000000E+01 0.  1.
         15    1    3    3    0    0  0.12982296373E+02 -0.87306799442E+01 -0.14701892425E+02  0.21542241324E+02  0.17770000000E+01 0. -1.
</event>
<event>
 7    1  0.3234965E-006  0.5013839E+03  0.7546771E-02  0.9396718E-01
        -11   -1    0    0    0    0  0.00000000000E+00  0.00000000000E+00  0.50000000000E+03  0.50000000000E+03  0.00000000000E+00 0.  1.
         11   -1    0    0    0    0 -0.00000000000E+00 -0.00000000000E+00 -0.50000000000E+03  0.50000000000E+03  0.00000000000E+00 0. -1.
         23    2    1    2    0    0  0.63085388750E+02  0.99854252781E+02 -0.47973091357E+03  0.50138393012E+03  0.85401744028E+02 0.  0.
        -11    1    1    2    0    0  0.24103355541E+01 -0.38172945251E+02  0.23032158815E+03  0.23347594615E+03  0.00000000000E+00 0.  1.
         11    1    1    2    0    0 -0.65495724304E+02 -0.61681307530E+02  0.24940932542E+03  0.26514012372E+03  0.00000000000E+00 0. -1.
        -15    1    3    3    0    0  0.11506961899E+02  0.57230077648E+02 -0.10005283222E+03  0.11585084775E+03  0.17770000000E+01 0.  1.
         15    1    3    3    0    0  0.51578426851E+02  0.42624175133E+02 -0.37967808135E+03  0.38553308238E+03  0.17770000000E+01 0. -1.
</event>
<event>
 7    1  0.3234965E-006  0.5116456E+03  0.7546771E-02  0.9374122E-01
        -11   -1    0    0    0    0  0.00000000000E+00  0.00000000000E+00  0.50000000000E+03  0.50000000000E+03  0.00000000000E+00 0. -1.
         11   -1    0    0    0    0 -0.00000000000E+00 -0.00000000000E+00 -0.50000000000E+03  0.50000000000E+03  0.00000000000E+00 0.  1.
         23    2    1    2    0    0  0.43805789559E+01  0.72622701070E+02  0.30753228004E+03  0.32942054527E+03  0.92997560158E+02 0.  0.
        -11    1    1    2    0    0  0.75596395869E+02  0.34047214737E+02  0.16227115776E+03  0.18222501623E+03  0.00000000000E+00 0. -1.
         11    1    1    2    0    0 -0.79976974825E+02 -0.10666991581E+03 -0.46980343780E+03  0.48835443850E+03  0.00000000000E+00 0.  1.
        -15    1    3    3    0    0  0.28537307455E+02  0.48552053399E+02  0.27983664775E+03  0.28545295052E+03  0.17770000000E+01 0. -1.
         15    1    3    3    0    0 -0.24156728499E+02  0.24070647671E+02  0.27695632285E+02  0.43967594746E+02  0.17770000000E+01 0.  1.
</event>
<event>
 7    1  0.3234965E-006  0.4873019E+03  0.7546771E-02  0.9428680E-01
        -11   -1    0    0    0    0  0.00000000000E+00  0.00000000000E+00  0.50000000000E+03  0.50000000000E+03  0.00000000000E+00 0.  1.
         11   -1    0    0    0    0 -0.00000000000E+00 -0.00000000000E+00 -0.50000000000E+03  0.50000000000E+03  0.00000000000E+00 0. -1.
         23    2    1    2    0    0  0.74782196285E+02  0.75064481066E+02  0.45188760260E+03  0.47256732368E+03  0.88828018245E+02 0.  0.
        -11    1    1    2    0    0  0.62689663082E+01  0.18078318716E+02  0.26883106569E+02  0.32997378153E+02  0.00000000000E+00 0.  1.
         11    1    1    2    0    0 -0.81051162594E+02 -0.93142799782E+02 -0.47877070917E+03  0.49443529816E+03  0.00000000000E+00 0. -1.
        -15    1    3    3    0    0  0.49301292055E+02  0.93310948034E+02  0.31841630012E+03  0.33545439083E+03  0.17770000000E+01 0. -1.
         15    1    3    3    0    0  0.25480904230E+02 -0.18246466968E+02  0.13347130249E+03  0.13711293285E+03  0.17770000000E+01 0.  1.
</event>
<event>
 7    1  0.3234965E-006  0.4349883E+03  0.7546771E-02  0.9558321E-01
        -11   -1    0    0    0    0  0.00000000000E+00  0.00000000000E+00  0.50000000000E+03  0.50000000000E+03  0.00000000000E+00 0.  1.
         11   -1    0    0    0    0 -0.00000000000E+00 -0.00000000000E+00 -0.50000000000E+03  0.50000000000E+03  0.00000000000E+00 0. -1.
         23    2    1    2    0    0 -0.16626582369E+02  0.81908008918E+02  0.39630922549E+02  0.12511992581E+03  0.84255686133E+02 0.  0.
        -11    1    1    2    0    0  0.14818397118E+03 -0.30020289314E+03  0.30048948600E+03  0.44986019779E+03  0.00000000000E+00 0.  1.
         11    1    1    2    0    0 -0.13155738881E+03  0.21829488422E+03 -0.34012040855E+03  0.42501987640E+03  0.00000000000E+00 0. -1.
        -15    1    3    3    0    0 -0.59573198222E+01  0.65023831717E+02 -0.14918151918E+02  0.67002218890E+02  0.17770000000E+01 0. -1.
         15    1    3    3    0    0 -0.10669262547E+02  0.16884177202E+02  0.54549074468E+02  0.58117706917E+02  0.17770000000E+01 0.  1.
</event>
<event>
 6    1  0.3234965E-006  0.5448634E+03  0.7546771E-02  0.9304666E-01
        -11   -1    0    0    0    0  0.00000000000E+00  0.00000000000E+00  0.50000000000E+03  0.50000000000E+03  0.00000000000E+00 0. -1.
         11   -1    0    0    0    0 -0.00000000000E+00 -0.00000000000E+00 -0.50000000000E+03  0.50000000000E+03  0.00000000000E+00 0. -1.
        -11    1    1    2    0    0  0.52385574230E+02  0.55688403758E+02  0.44866902371E+03  0.45513661635E+03  0.00000000000E+00 0. -1.
         11    1    1    2    0    0 -0.59565139769E+02  0.91267434103E+02 -0.15186926275E+03  0.18692785606E+03  0.00000000000E+00 0. -1.
        -15    1    1    2    0    0 -0.54880102518E+02 -0.20765149740E+02 -0.73926644359E+02  0.94399807051E+02  0.17770000000E+01 0.  1.
         15    1    1    2    0    0  0.62059668056E+02 -0.12619068812E+03 -0.22287311660E+03  0.26353572054E+03  0.17770000000E+01 0. -1.
</event>
<event>
 7    1  0.3234965E-006  0.4432171E+03  0.7546771E-02  0.9536677E-01
        -11   -1    0    0    0    0  0.00000000000E+00  0.00000000000E+00  0.50000000000E+03  0.50000000000E+03  0.00000000000E+00 0.  1.
         11   -1    0    0    0    0 -0.00000000000E+00 -0.00000000000E+00 -0.50000000000E+03  0.50000000000E+03  0.00000000000E+00 0. -1.
         23    2    1    2    0    0  0.50311918436E+02  0.43144705528E+02 -0.41965889260E+03  0.43458436616E+03  0.91417888945E+02 0.  0.
        -11    1    1    2    0    0 -0.18070581077E+02 -0.15404220606E+03  0.42231591665E+03  0.44989585529E+03  0.00000000000E+00 0.  1.
         11    1    1    2    0    0 -0.32241337359E+02  0.11089750053E+03 -0.26570240513E+01  0.11551977855E+03  0.00000000000E+00 0. -1.
        -15    1    3    3    0    0  0.29186503098E+02  0.60764024587E+02 -0.38204638880E+03  0.38795195524E+03  0.17770000000E+01 0. -1.
         15    1    3    3    0    0  0.21125415338E+02 -0.17619319059E+02 -0.37612503798E+02  0.46632410921E+02  0.17770000000E+01 0.  1.
</event>
<event>
 7    1  0.3234965E-006  0.5310542E+03  0.7546771E-02  0.9332885E-01
        -11   -1    0    0    0    0  0.00000000000E+00  0.00000000000E+00  0.50000000000E+03  0.50000000000E+03  0.00000000000E+00 0. -1.
         11   -1    0    0    0    0 -0.00000000000E+00 -0.00000000000E+00 -0.50000000000E+03  0.50000000000E+03  0.00000000000E+00 0.  1.
         23    2    1    2    0    0 -0.18481153754E+02 -0.13772215274E+03  0.17561554598E+03  0.24289153821E+03  0.94056020252E+02 0.  0.
        -11    1    1    2    0    0 -0.31727461829E+02  0.49197625402E+02  0.28215366545E+03  0.28816267820E+03  0.00000000000E+00 0. -1.
         11    1    1    2    0    0  0.50208615583E+02  0.88524527337E+02 -0.45776921143E+03  0.46894578359E+03  0.00000000000E+00 0.  1.
        -15    1    3    3    0    0  0.31554499491E+02 -0.16003659355E+02  0.47141306298E+02  0.58968330817E+02  0.17770000000E+01 0. -1.
         15    1    3    3    0    0 -0.50035653245E+02 -0.12171849338E+03  0.12847423968E+03  0.18392320739E+03  0.17770000000E+01 0.  1.
</event>
<event>
 7    1  0.3234965E-006  0.5225179E+03  0.7546771E-02  0.9350788E-01
        -11   -1    0    0    0    0  0.00000000000E+00  0.00000000000E+00  0.50000000000E+03  0.50000000000E+03  0.00000000000E+00 0. -1.
         11   -1    0    0    0    0 -0.00000000000E+00 -0.00000000000E+00 -0.50000000000E+03  0.50000000000E+03  0.00000000000E+00 0. -1.
         23    2    1    2    0    0  0.12982882802E+02  0.22117986540E+02 -0.26938021193E+03  0.28485980256E+03  0.89003640139E+02 0.  0.
        -11    1    1    2    0    0 -0.12945052443E+03  0.72013567825E+02  0.45392264328E+03  0.47748210261E+03  0.00000000000E+00 0. -1.
         11    1    1    2    0    0  0.11646764163E+03 -0.94131554365E+02 -0.18454243135E+03  0.23765809484E+03  0.00000000000E+00 0. -1.
        -15    1    3    3    0    0  0.24400660715E+02  0.51180802487E+02 -0.21257302021E+03  0.22001207566E+03  0.17770000000E+01 0.  1.
         15    1    3    3    0    0 -0.11417777913E+02 -0.29062815947E+02 -0.56807191720E+02  0.64847726894E+02  0.17770000000E+01 0. -1.
</event>
<event>
 7    1  0.3234965E-006  0.3465967E+03  0.7546771E-02  0.9828848E-01
        -11   -1    0    0    0    0  0.00000000000E+00  0.00000000000E+00  0.50000000000E+03  0.50000000000E+03  0.00000000000E+00 0. -1.
         11   -1    0    0    0    0 -0.00000000000E+00 -0.00000000000E+00 -0.50000000000E+03  0.50000000000E+03  0.00000000000E+00 0. -1.
         23    2    1    2    0    0 -0.14742220440E+03  0.21371699513E+02 -0.32991181192E+03  0.37346525459E+03  0.91893617022E+02 0.  0.
        -11    1    1    2    0    0 -0.18285862602E+03  0.14354556959E+02  0.19575913920E+03  0.26826287666E+03  0.00000000000E+00 0. -1.
         11    1    1    2    0    0  0.33028083041E+03 -0.35726256471E+02  0.13415267273E+03  0.35827186875E+03  0.00000000000E+00 0. -1.
        -15    1    3    3    0    0 -0.16833175550E+02 -0.25884801626E+02 -0.30638892624E+02  0.43534793264E+02  0.17770000000E+01 0.  1.
         15    1    3    3    0    0 -0.13058902885E+03  0.47256501139E+02 -0.29927291930E+03  0.32993046133E+03  0.17770000000E+01 0. -1.
</event>
<event>
 7    1  0.3234965E-006  0.5250279E+03  0.7546771E-02  0.9345486E-01
        -11   -1    0    0    0    0  0.00000000000E+00  0.00000000000E+00  0.50000000000E+03  0.50000000000E+03  0.00000000000E+00 0.  1.
         11   -1    0    0    0    0 -0.00000000000E+00 -0.00000000000E+00 -0.50000000000E+03  0.50000000000E+03  0.00000000000E+00 0. -1.
         23    2    1    2    0    0  0.18056128664E+03 -0.26478732767E+02  0.28300986961E+03  0.34858104306E+03  0.90059179249E+02 0.  0.
        -11    1    1    2    0    0 -0.34420077907E+02  0.38297976051E+02  0.16876614178E+03  0.17644684000E+03  0.00000000000E+00 0.  1.
         11    1    1    2    0    0 -0.14614120873E+03 -0.11819243284E+02 -0.45177601139E+03  0.47497211694E+03  0.00000000000E+00 0. -1.
        -15    1    3    3    0    0  0.14002793331E+03  0.20039017309E+02  0.20576631301E+03  0.24970446055E+03  0.17770000000E+01 0.  1.
         15    1    3    3    0    0  0.40533353332E+02 -0.46517750076E+02  0.77243556598E+02  0.98876582513E+02  0.17770000000E+01 0. -1.
</event>
<event>
 7    1  0.3234965E-006  0.4403026E+03  0.7546771E-02  0.9544285E-01
        -11   -1    0    0    0    0  0.00000000000E+00  0.00000000000E+00  0.50000000000E+03  0.50000000000E+03  0.00000000000E+00 0.  1.
         11   -1    0    0    0    0 -0.00000000000E+00 -0.00000000000E+00 -0.50000000000E+03  0.50000000000E+03  0.00000000000E+00 0. -1.
         23    2    1    2    0    0 -0.32489235634E+02 -0.13365027769E+03 -0.37546941191E+03  0.41048059693E+03  0.92731300111E+02 0.  0.
        -11    1    1    2    0    0 -0.53045016800E+02  0.10108358631E+03  0.45448689103E+03  0.46860430999E+03  0.00000000000E+00 0.  1.
         11    1    1    2    0    0  0.85534252433E+02  0.32566691378E+02 -0.79017479120E+02  0.12091509307E+03  0.00000000000E+00 0. -1.
        -15    1    3    3    0    0  0.13018728589E+02 -0.54197013076E+02 -0.59681588212E+02  0.81681412946E+02  0.17770000000E+01 0.  1.
         15    1    3    3    0    0 -0.45507964223E+02 -0.79453264612E+02 -0.31578782370E+03  0.32879918399E+03  0.17770000000E+01 0. -1.
</event>
<event>
 7    1  0.3234965E-006  0.5314648E+03  0.7546771E-02  0.9332033E-01
        -11   -1    0    0    0    0  0.00000000000E+00  0.00000000000E+00  0.50000000000E+03  0.50000000000E+03  0.00000000000E+00 0.  1.
         11   -1    0    0    0    0 -0.00000000000E+00 -0.00000000000E+00 -0.50000000000E+03  0.50000000000E+03  0.00000000000E+00 0. -1.
         23    2    1    2    0    0  0.40102647044E+02 -0.61068337551E+02 -0.37524489383E+03  0.39299579191E+03  0.91101031614E+02 0.  0.
        -11    1    1    2    0    0 -0.77047901182E+02 -0.41793788156E+02  0.46026311321E+03  0.46853519952E+03  0.00000000000E+00 0.  1.
         11    1    1    2    0    0  0.36945254137E+02  0.10286212571E+03 -0.85018219384E+02  0.13846900857E+03  0.00000000000E+00 0. -1.
        -15    1    3    3    0    0 -0.20863385714E+02  0.90325048801E+01 -0.54928308756E+02  0.59473892084E+02  0.17770000000E+01 0.  1.
         15    1    3    3    0    0  0.60966032758E+02 -0.70100842431E+02 -0.32031658507E+03  0.33352189982E+03  0.17770000000E+01 0. -1.
</event>
<event>
 7    1  0.3234965E-006  0.3552740E+03  0.7546771E-02  0.9798645E-01
        -11   -1    0    0    0    0  0.00000000000E+00  0.00000000000E+00  0.50000000000E+03  0.50000000000E+03  0.00000000000E+00 0. -1.
         11   -1    0    0    0    0 -0.00000000000E+00 -0.00000000000E+00 -0.50000000000E+03  0.50000000000E+03  0.00000000000E+00 0.  1.
         23    2    1    2    0    0 -0.19470785052E+03 -0.16927054025E+03 -0.19458264410E+03  0.33628349581E+03  0.93061921963E+02 0.  0.
        -11    1    1    2    0    0  0.27682387859E+03 -0.52067243119E+02  0.29435897769E+03  0.40741829280E+03  0.00000000000E+00 0. -1.
         11    1    1    2    0    0 -0.82116028074E+02  0.22133778337E+03 -0.99776333595E+02  0.25629821139E+03  0.00000000000E+00 0.  1.
        -15    1    3    3    0    0 -0.10212150528E+03 -0.42745576119E+02 -0.44786745361E+02  0.11943616039E+03  0.17770000000E+01 0. -1.
         15    1    3    3    0    0 -0.92586345235E+02 -0.12652496413E+03 -0.14979589874E+03  0.21684733542E+03  0.17770000000E+01 0.  1.
</event>
<event>
 7    1  0.3234965E-006  0.3431277E+03  0.7546771E-02  0.9841189E-01
        -11   -1    0    0    0    0  0.00000000000E+00  0.00000000000E+00  0.50000000000E+03  0.50000000000E+03  0.00000000000E+00 0.  1.
         11   -1    0    0    0    0 -0.00000000000E+00 -0.00000000000E+00 -0.50000000000E+03  0.50000000000E+03  0.00000000000E+00 0. -1.
         23    2    1    2    0    0 -0.83094316344E+02  0.22896265103E+02 -0.23673488228E+03  0.26896055545E+03  0.94167253000E+02 0.  0.
        -11    1    1    2    0    0 -0.70051981184E+02  0.10213220496E+03  0.43425815089E+03  0.45157325980E+03  0.00000000000E+00 0.  1.
         11    1    1    2    0    0  0.15314629753E+03 -0.12502847007E+03 -0.19752326861E+03  0.27946618474E+03  0.00000000000E+00 0. -1.
        -15    1    3    3    0    0 -0.41679941187E+02 -0.32770172388E+02 -0.66132758105E+02  0.84780900675E+02  0.17770000000E+01 0.  1.
         15    1    3    3    0    0 -0.41414375157E+02  0.55666437490E+02 -0.17060212418E+03  0.18417965478E+03  0.17770000000E+01 0. -1.
</event>
<event>
 7    1  0.3234965E-006  0.4169218E+03  0.7546771E-02  0.9607683E-01
        -11   -1    0    0    0    0  0.00000000000E+00  0.00000000000E+00  0.50000000000E+03  0.50000000000E+03  0.00000000000E+00 0. -1.
         11   -1    0    0    0    0 -0.00000000000E+00 -0.00000000000E+00 -0.50000000000E+03  0.50000000000E+03  0.00000000000E+00 0.  1.
         23    2    1    2    0    0 -0.76478482194E+02  0.50134284077E+01 -0.38516168183E+03  0.40405040369E+03  0.95042700245E+02 0.  0.
        -11    1    1    2    0    0 -0.71343954716E+02 -0.56347716068E+02  0.42488649511E+03  0.43450380747E+03  0.00000000000E+00 0. -1.
         11    1    1    2    0    0  0.14782243691E+03  0.51334287660E+02 -0.39724813277E+02  0.16144578884E+03  0.00000000000E+00 0.  1.
        -15    1    3    3    0    0 -0.75826524949E+02  0.22801667031E+02 -0.37541569806E+03  0.38367913937E+03  0.17770000000E+01 0. -1.
         15    1    3    3    0    0 -0.65195724455E+00 -0.17788238624E+02 -0.97459837696E+01  0.20371264325E+02  0.17770000000E+01 0.  1.
</event>
<event>
 7    1  0.3234965E-006  0.4094310E+03  0.7546771E-02  0.9628938E-01
        -11   -1    0    0    0    0  0.00000000000E+00  0.00000000000E+00  0.50000000000E+03  0.50000000000E+03  0.00000000000E+00 0.  1.
         11   -1    0    0    0    0 -0.00000000000E+00 -0.00000000000E+00 -0.50000000000E+03  0.50000000000E+03  0.00000000000E+00 0.  1.
         23    2    1    2    0    0 -0.13824662392E+03  0.14241049817E+03 -0.41864800381E+03  0.47236475327E+03  0.92029506290E+02 0.  0.
        -11    1    1    2    0    0  0.72627891671E+02  0.96962692527E+00  0.34685487999E+03  0.35437841159E+03  0.00000000000E+00 0.  1.
         11    1    1    2    0    0  0.65618732251E+02 -0.14338012510E+03  0.71793123811E+02  0.17325683514E+03  0.00000000000E+00 0.  1.
        -15    1    3    3    0    0 -0.12465554924E+03  0.15576482655E+03 -0.37726559806E+03  0.42677180830E+03  0.17770000000E+01 0.  1.
         15    1    3    3    0    0 -0.13591074680E+02 -0.13354328378E+02 -0.41382405744E+02  0.45592944976E+02  0.17770000000E+01 0. -1.
</event>
<event>
 7    1  0.3234965E-006  0.5231839E+03  0.7546771E-02  0.9349378E-01
        -11   -1    0    0    0    0  0.00000000000E+00  0.00000000000E+00  0.50000000000E+03  0.50000000000E+03  0.00000000000E+00 0.  1.
         11   -1    0    0    0    0 -0.00000000000E+00 -0.00000000000E+00 -0.50000000000E+03  0.50000000000E+03  0.00000000000E+00 0. -1.
         23    2    1    2    0    0  0.23361015625E+02 -0.15403722043E+02 -0.16632972261E+03  0.19472742634E+03  0.97314861350E+02 0.  0.
        -11    1    1    2    0    0  0.97698759694E+01  0.21345076776E+03  0.42625923463E+03  0.47681612372E+03  0.00000000000E+00 0.  1.
         11    1    1    2    0    0 -0.33130891594E+02 -0.19804704572E+03 -0.25992951201E+03  0.32845644994E+03  0.00000000000E+00 0. -1.
        -15    1    3    3    0    0  0.56830438434E+02 -0.55365200754E+01 -0.13928287276E+03  0.15054311064E+03  0.17770000000E+01 0.  1.
         15    1    3    3    0    0 -0.33469422809E+02 -0.98672019678E+01 -0.27046849851E+02  0.44184315697E+02  0.17770000000E+01 0. -1.
</event>
<event>
 7    1  0.3234965E-006  0.5361345E+03  0.7546771E-02  0.9322399E-01
        -11   -1    0    0    0    0  0.00000000000E+00  0.00000000000E+00  0.50000000000E+03  0.50000000000E+03  0.00000000000E+00 0. -1.
         11   -1    0    0    0    0 -0.00000000000E+00 -0.00000000000E+00 -0.50000000000E+03  0.50000000000E+03  0.00000000000E+00 0.  1.
         23    2    1    2    0    0 -0.35548250530E+02  0.13947315272E+03 -0.15852043297E+03  0.23222846666E+03  0.89916042011E+02 0.  0.
        -11    1    1    2    0    0 -0.20815787280E+02 -0.94256430638E+02  0.45371093465E+03  0.46386548043E+03  0.00000000000E+00 0. -1.
         11    1    1    2    0    0  0.56364037811E+02 -0.45216722084E+02 -0.29519050168E+03  0.30390605291E+03  0.00000000000E+00 0.  1.
        -15    1    3    3    0    0  0.28560097875E+02  0.66575622989E+02 -0.72622113186E+02  0.10259201635E+03  0.17770000000E+01 0. -1.
         15    1    3    3    0    0 -0.64108348405E+02  0.72897529733E+02 -0.85898319783E+02  0.12963645030E+03  0.17770000000E+01 0.  1.
</event>
<event>
 7    1  0.3234965E-006  0.5147248E+03  0.7546771E-02  0.9367452E-01
        -11   -1    0    0    0    0  0.00000000000E+00  0.00000000000E+00  0.50000000000E+03  0.50000000000E+03  0.00000000000E+00 0. -1.
         11   -1    0    0    0    0 -0.00000000000E+00 -0.00000000000E+00 -0.50000000000E+03  0.50000000000E+03  0.00000000000E+00 0.  1.
         23    2    1    2    0    0  0.11252195947E+03 -0.10118701732E+03  0.38023633469E+03  0.41921385642E+03  0.90887751431E+02 0.  0.
        -11    1    1    2    0    0 -0.38312534783E+01  0.36341856130E+02  0.88243598834E+02  0.95510950918E+02  0.00000000000E+00 0. -1.
         11    1    1    2    0    0 -0.10869070599E+03  0.64845161192E+02 -0.46847993352E+03  0.48527519266E+03  0.00000000000E+00 0.  1.
        -15    1    3    3    0    0  0.12847641306E+03 -0.91966374337E+02  0.33995970894E+03  0.37488633498E+03  0.17770000000E+01 0.  1.
         15    1    3    3    0    0 -0.15954453593E+02 -0.92206429849E+01  0.40276625746E+02  0.44327521440E+02  0.17770000000E+01 0. -1.
</event>
<event>
 7    1  0.3234965E-006  0.3455907E+03  0.7546771E-02  0.9832411E-01
        -11   -1    0    0    0    0  0.00000000000E+00  0.00000000000E+00  0.50000000000E+03  0.50000000000E+03  0.00000000000E+00 0.  1.
         11   -1    0    0    0    0 -0.00000000000E+00 -0.00000000000E+00 -0.50000000000E+03  0.50000000000E+03  0.00000000000E+00 0.  1.
         23    2    1    2    0    0 -0.47208149283E+02 -0.11048255777E+03  0.21983878227E+03  0.26481587539E+03  0.85809980393E+02 0.  0.
        -11    1    1    2    0    0 -0.29965055608E+03  0.59941038356E+02  0.26537870024E+02  0.30673709000E+03  0.00000000000E+00 0.  1.
         11    1    1    2    0    0  0.34685870536E+03  0.50541519410E+02 -0.24637665230E+03  0.42844703461E+03  0.00000000000E+00 0.  1.
        -15    1    3    3    0    0 -0.71914445500E+02 -0.86131245446E+02  0.17819718061E+03  0.21058886917E+03  0.17770000000E+01 0. -1.
         15    1    3    3    0    0  0.24706296217E+02 -0.24351312321E+02  0.41641601667E+02  0.54227006214E+02  0.17770000000E+01 0.  1.
</event>
<event>
 7    1  0.3234965E-006  0.5203670E+03  0.7546771E-02  0.9355356E-01
        -11   -1    0    0    0    0  0.00000000000E+00  0.00000000000E+00  0.50000000000E+03  0.50000000000E+03  0.00000000000E+00 0.  1.
         11   -1    0    0    0    0 -0.00000000000E+00 -0.00000000000E+00 -0.50000000000E+03  0.50000000000E+03  0.00000000000E+00 0. -1.
         23    2    1    2    0    0 -0.66771226613E+02  0.25143597128E+02  0.14336334622E+03  0.18314364262E+03  0.88870397841E+02 0.  0.
        -11    1    1    2    0    0 -0.90265551998E+00 -0.74421944273E+02  0.32890748136E+03  0.33722332640E+03  0.00000000000E+00 0.  1.
         11    1    1    2    0    0  0.67673882133E+02  0.49278347144E+02 -0.47227082758E+03  0.47963303098E+03  0.00000000000E+00 0. -1.
        -15    1    3    3    0    0  0.11447948665E+02 -0.15913345040E+02  0.53992555966E+02  0.57468634121E+02  0.17770000000E+01 0. -1.
         15    1    3    3    0    0 -0.78219175278E+02  0.41056942168E+02  0.89370790257E+02  0.12567500850E+03  0.17770000000E+01 0.  1.
</event>
<event>
 7    1  0.3396218E-006  0.5055192E+03  0.7546771E-02  0.9387544E-01
        -11   -1    0    0    0    0  0.00000000000E+00  0.00000000000E+00  0.50000000000E+03  0.50000000000E+03  0.00000000000E+00 0. -1.
         11   -1    0    0    0    0 -0.00000000000E+00 -0.00000000000E+00 -0.50000000000E+03  0.50000000000E+03  0.00000000000E+00 0.  1.
         23    2    1    2    0    0  0.62439132619E+02 -0.17034436718E+01  0.38924937657E+03  0.40450287601E+03  0.90586712806E+02 0.  0.
        -11    1    1    2    0    0  0.29465488589E+02  0.12433182846E+01  0.96615408288E+02  0.10101632530E+03  0.00000000000E+00 0. -1.
         11    1    1    2    0    0 -0.91904621208E+02  0.46012538720E+00 -0.48586478486E+03  0.49448079869E+03  0.00000000000E+00 0.  1.
        -15    1    3    3    0    0  0.47886892643E+02  0.42044797114E+02  0.23596773315E+03  0.24442759310E+03  0.17770000000E+01 0.  1.
         15    1    3    3    0    0  0.14552239976E+02 -0.43748240785E+02  0.15328164342E+03  0.16007528291E+03  0.17770000000E+01 0. -1.
</event>
<event>
 7    1  0.3234965E-006  0.3769766E+03  0.7546771E-02  0.9726986E-01
        -11   -1    0    0    0    0  0.00000000000E+00  0.00000000000E+00  0.50000000000E+03  0.50000000000E+03  0.00000000000E+00 0.  1.
         11   -1    0    0    0    0 -0.00000000000E+00 -0.00000000000E+00 -0.50000000000E+03  0.50000000000E+03  0.00000000000E+00 0.  1.
         23    2    1    2    0    0 -0.90748701644E+02 -0.14130831755E+03 -0.29845637367E+03  0.35331172141E+03  0.86888422931E+02 0.  0.
        -11    1    1    2    0    0  0.56795202833E+02 -0.44904859402E+02  0.41707212752E+03  0.42330993494E+03  0.00000000000E+00 0.  1.
         11    1    1    2    0    0  0.33953498811E+02  0.18621317695E+03 -0.11861575385E+03  0.22337834365E+03  0.00000000000E+00 0.  1.
        -15    1    3    3    0    0 -0.63758591947E+02 -0.92324730938E+02 -0.26581770188E+03  0.28853287915E+03  0.17770000000E+01 0.  1.
         15    1    3    3    0    0 -0.26990109697E+02 -0.48983586613E+02 -0.32638671797E+02  0.64778842261E+02  0.17770000000E+01 0. -1.
</event>
<event>
 7    1  0.3234965E-006  0.3550915E+03  0.7546771E-02  0.9799271E-01
        -11   -1    0    0    0    0  0.00000000000E+00  0.00000000000E+00  0.50000000000E+03  0.50000000000E+03  0.00000000000E+00 0.  1.
         11   -1    0    0    0    0 -0.00000000000E+00 -0.00000000000E+00 -0.50000000000E+03  0.50000000000E+03  0.00000000000E+00 0.  1.
         23    2    1    2    0    0 -0.87651790266E+02 -0.91210700441E+02 -0.19783031846E+03  0.25200344484E+03  0.91469520039E+02 0.  0.
        -11    1    1    2    0    0  0.80598075952E+01 -0.10991591809E+03  0.42219663314E+03  0.43634443572E+03  0.00000000000E+00 0.  1.
         11    1    1    2    0    0  0.79591982671E+02  0.20112661853E+03 -0.22436631468E+03  0.31165211944E+03  0.00000000000E+00 0.  1.
        -15    1    3    3    0    0 -0.47579037922E+02 -0.10298437664E+03 -0.15569177075E+03  0.19264639080E+03  0.17770000000E+01 0.  1.
         15    1    3    3    0    0 -0.40072752344E+02  0.11773676196E+02 -0.42138547709E+02  0.59357054034E+02  0.17770000000E+01 0. -1.
</event>
<event>
 7    1  0.3234965E-006  0.4465671E+03  0.7546771E-02  0.9528009E-01
        -11   -1    0    0    0    0  0.00000000000E+00  0.00000000000E+00  0.50000000000E+03  0.50000000000E+03  0.00000000000E+00 0. -1.
         11   -1    0    0    0    0 -0.00000000000E+00 -0.00000000000E+00 -0.50000000000E+03  0.50000000000E+03  0.00000000000E+00 0.  1.
         23    2    1    2    0    0  0.19637755921E+02  0.45883675211E+01 -0.64335757515E+01  0.10661503078E+03  0.10449248450E+03 0.  0.
        -11    1    1    2    0    0 -0.80809733148E+02  0.50870639930E+02  0.44091035961E+03  0.45113188780E+03  0.00000000000E+00 0. -1.
         11    1    1    2    0    0  0.61171977226E+02 -0.55459007451E+02 -0.43447678386E+03  0.44225308141E+03  0.00000000000E+00 0.  1.
        -15    1    3    3    0    0  0.49761474808E+02 -0.28817609102E+02  0.10569258101E+02  0.58493810914E+02  0.17770000000E+01 0. -1.
         15    1    3    3    0    0 -0.30123718887E+02  0.33405976623E+02 -0.17002833852E+02  0.48121219869E+02  0.17770000000E+01 0.  1.
</event>
<event>
 7    1  0.3234965E-006  0.5194312E+03  0.7546771E-02  0.9357351E-01
        -11   -1    0    0    0    0  0.00000000000E+00  0.00000000000E+00  0.50000000000E+03  0.50000000000E+03  0.00000000000E+00 0.  1.
         11   -1    0    0    0    0 -0.00000000000E+00 -0.00000000000E+00 -0.50000000000E+03  0.50000000000E+03  0.00000000000E+00 0. -1.
         23    2    1    2    0    0 -0.31237575411E+02  0.15558065639E+03  0.33897929542E+03  0.38428545451E+03  0.87104655802E+02 0.  0.
        -11    1    1    2    0    0  0.35178332406E+02 -0.34076531547E+02  0.12595894085E+03  0.13514577261E+03  0.00000000000E+00 0.  1.
         11    1    1    2    0    0 -0.39407569948E+01 -0.12150412485E+03 -0.46493823627E+03  0.48056877288E+03  0.00000000000E+00 0. -1.
        -15    1    3    3    0    0  0.65904993005E+01  0.13508356739E+03  0.22605237271E+03  0.26342710149E+03  0.17770000000E+01 0.  1.
         15    1    3    3    0    0 -0.37828074712E+02  0.20497089003E+02  0.11292692271E+03  0.12085835302E+03  0.17770000000E+01 0. -1.
</event>
<event>
 7    1  0.3234965E-006  0.5132727E+03  0.7546771E-02  0.9370591E-01
        -11   -1    0    0    0    0  0.00000000000E+00  0.00000000000E+00  0.50000000000E+03  0.50000000000E+03  0.00000000000E+00 0. -1.
         11   -1    0    0    0    0 -0.00000000000E+00 -0.00000000000E+00 -0.50000000000E+03  0.50000000000E+03  0.00000000000E+00 0. -1.
         23    2    1    2    0    0  0.92214600950E+02  0.90707050293E+02 -0.35147927214E+03  0.38025806919E+03  0.65781599594E+02 0.  0.
        -11    1    1    2    0    0 -0.53715000104E+02 -0.75275043019E+02  0.47786172952E+03  0.48672730135E+03  0.00000000000E+00 0. -1.
         11    1    1    2    0    0 -0.38499600846E+02 -0.15432007275E+02 -0.12638245739E+03  0.13301462946E+03  0.00000000000E+00 0. -1.
        -15    1    3    3    0    0 -0.26501006241E+01  0.27014625615E+02 -0.39096388164E+02  0.47628755252E+02  0.17770000000E+01 0.  1.
         15    1    3    3    0    0  0.94864701574E+02  0.63692424679E+02 -0.31238288397E+03  0.33262931394E+03  0.17770000000E+01 0. -1.
</event>
<event>
 7    1  0.3234965E-006  0.4093962E+03  0.7546771E-02  0.9629038E-01
        -11   -1    0    0    0    0  0.00000000000E+00  0.00000000000E+00  0.50000000000E+03  0.50000000000E+03  0.00000000000E+00 0.  1.
         11   -1    0    0    0    0 -0.00000000000E+00 -0.00000000000E+00 -0.50000000000E+03  0.50000000000E+03  0.00000000000E+00 0. -1.
         23    2    1    2    0    0 -0.42687315265E+02  0.72099194081E+02  0.11468762565E+03  0.16897964262E+03  0.91544347010E+02 0.  0.
        -11    1    1    2    0    0 -0.56699326086E+01 -0.16689496188E+03  0.33210704399E+03  0.37172727248E+03  0.00000000000E+00 0.  1.
         11    1    1    2    0    0  0.48357247874E+02  0.94795767797E+02 -0.44679466965E+03  0.45929308490E+03  0.00000000000E+00 0. -1.
        -15    1    3    3    0    0  0.17237875679E+02  0.39610091013E+01  0.60986566608E+02  0.63524428267E+02  0.17770000000E+01 0. -1.
         15    1    3    3    0    0 -0.59925190945E+02  0.68138184980E+02  0.53701059046E+02  0.10545521435E+03  0.17770000000E+01 0.  1.
</event>
<event>
 7    1  0.3234965E-006  0.3287239E+03  0.7546771E-02  0.9894158E-01
        -11   -1    0    0    0    0  0.00000000000E+00  0.00000000000E+00  0.50000000000E+03  0.50000000000E+03  0.00000000000E+00 0.  1.
         11   -1    0    0    0    0 -0.00000000000E+00 -0.00000000000E+00 -0.50000000000E+03  0.50000000000E+03  0.00000000000E+00 0. -1.
         23    2    1    2    0    0 -0.26856805392E+03  0.43175047204E+02  0.23727042551E+02  0.28810578940E+03  0.91918926498E+02 0.  0.
        -11    1    1    2    0    0  0.57619640586E+02 -0.66524316562E+02  0.30675549483E+03  0.31913075891E+03  0.00000000000E+00 0.  1.
         11    1    1    2    0    0  0.21094841333E+03  0.23349269357E+02 -0.33048253738E+03  0.39276345169E+03  0.00000000000E+00 0. -1.
        -15    1    3    3    0    0 -0.13905777465E+03 -0.78722973423E+01 -0.23158784778E+02  0.14120384130E+03  0.17770000000E+01 0.  1.
         15    1    3    3    0    0 -0.12951027927E+03  0.51047344546E+02  0.46885827329E+02  0.14690194810E+03  0.17770000000E+01 0. -1.
</event>
<event>
 7    1  0.3234965E-006  0.3979710E+03  0.7546771E-02  0.9662415E-01
        -11   -1    0    0    0    0  0.00000000000E+00  0.00000000000E+00  0.50000000000E+03  0.50000000000E+03  0.00000000000E+00 0. -1.
         11   -1    0    0    0    0 -0.00000000000E+00 -0.00000000000E+00 -0.50000000000E+03  0.50000000000E+03  0.00000000000E+00 0. -1.
         23    2    1    2    0    0 -0.19186679254E+03  0.51965088377E+02 -0.37363036364E+03  0.43309460148E+03  0.91967650358E+02 0.  0.
        -11    1    1    2    0    0  0.76537934791E+00 -0.67110269080E+02  0.36909900281E+03  0.37515123337E+03  0.00000000000E+00 0. -1.
         11    1    1    2    0    0  0.19110141319E+03  0.15145180703E+02  0.45313608276E+01  0.19175416515E+03  0.00000000000E+00 0. -1.
        -15    1    3    3    0    0 -0.73061880372E+02 -0.19829470755E+02 -0.92399267314E+02  0.11946559590E+03  0.17770000000E+01 0.  1.
         15    1    3    3    0    0 -0.11880491216E+03  0.71794559133E+02 -0.28123109633E+03  0.31362900559E+03  0.17770000000E+01 0. -1.
</event>
<event>
 7    1  0.3234965E-006  0.5191788E+03  0.7546771E-02  0.9357889E-01
        -11   -1    0    0    0    0  0.00000000000E+00  0.00000000000E+00  0.50000000000E+03  0.50000000000E+03  0.00000000000E+00 0. -1.
         11   -1    0    0    0    0 -0.00000000000E+00 -0.00000000000E+00 -0.50000000000E+03  0.50000000000E+03  0.00000000000E+00 0. -1.
         23    2    1    2    0    0 -0.31133906742E+02  0.56736911331E+02 -0.40375623278E+03  0.41787091989E+03  0.86073299728E+02 0.  0.
        -11    1    1    2    0    0 -0.35885891096E+02 -0.93400365517E+02  0.47029518692E+03  0.48082116041E+03  0.00000000000E+00 0. -1.
         11    1    1    2    0    0  0.67019797838E+02  0.36663454187E+02 -0.66538954143E+02  0.10130791970E+03  0.00000000000E+00 0. -1.
        -15    1    3    3    0    0  0.21702831272E+02  0.23888139992E+02 -0.56602060995E+02  0.65181340546E+02  0.17770000000E+01 0.  1.
         15    1    3    3    0    0 -0.52836738013E+02  0.32848771339E+02 -0.34715417178E+03  0.35268957934E+03  0.17770000000E+01 0. -1.
</event>
<event>
 7    1  0.3234965E-006  0.5188505E+03  0.7546771E-02  0.9358591E-01
        -11   -1    0    0    0    0  0.00000000000E+00  0.00000000000E+00  0.50000000000E+03  0.50000000000E+03  0.00000000000E+00 0.  1.
         11   -1    0    0    0    0 -0.00000000000E+00 -0.00000000000E+00 -0.50000000000E+03  0.50000000000E+03  0.00000000000E+00 0. -1.
         23    2    1    2    0    0  0.11768305804E+02  0.34543902902E+01 -0.41589797169E+03  0.42565917499E+03  0.89800804916E+02 0.  0.
        -11    1    1    2    0    0 -0.63734481454E+02  0.46932586752E+02  0.47459462889E+03  0.48114947116E+03  0.00000000000E+00 0.  1.
         11    1    1    2    0    0  0.51966175650E+02 -0.50386977042E+02 -0.58696657200E+02  0.93191353856E+02  0.00000000000E+00 0. -1.
        -15    1    3    3    0    0 -0.10832989696E+02  0.42972833259E+02 -0.23200940448E+03  0.23621079476E+03  0.17770000000E+01 0.  1.
         15    1    3    3    0    0  0.22601295500E+02 -0.39518442969E+02 -0.18388856720E+03  0.18944838022E+03  0.17770000000E+01 0. -1.
</event>
<event>
 7    1  0.3234965E-006  0.4356360E+03  0.7546771E-02  0.9556599E-01
        -11   -1    0    0    0    0  0.00000000000E+00  0.00000000000E+00  0.50000000000E+03  0.50000000000E+03  0.00000000000E+00 0.  1.
         11   -1    0    0    0    0 -0.00000000000E+00 -0.00000000000E+00 -0.50000000000E+03  0.50000000000E+03  0.00000000000E+00 0. -1.
         23    2    1    2    0    0 -0.22210813030E+02 -0.17880876767E+02 -0.40591691312E+03  0.41672146137E+03  0.89862061178E+02 0.  0.
        -11    1    1    2    0    0  0.85172623843E+02 -0.89642426007E+02  0.43758126771E+03  0.45471695179E+03  0.00000000000E+00 0.  1.
         11    1    1    2    0    0 -0.62961810813E+02  0.10752330277E+03 -0.31664354588E+02  0.12856158684E+03  0.00000000000E+00 0. -1.
        -15    1    3    3    0    0  0.28558759764E+02  0.16404136859E+02 -0.14448180952E+03  0.14819868244E+03  0.17770000000E+01 0.  1.
         15    1    3    3    0    0 -0.50769572795E+02 -0.34285013626E+02 -0.26143510360E+03  0.26852277893E+03  0.17770000000E+01 0. -1.
</event>
<event>
 7    1  0.3234965E-006  0.5166701E+03  0.7546771E-02  0.9363263E-01
        -11   -1    0    0    0    0  0.00000000000E+00  0.00000000000E+00  0.50000000000E+03  0.50000000000E+03  0.00000000000E+00 0. -1.
         11   -1    0    0    0    0 -0.00000000000E+00 -0.00000000000E+00 -0.50000000000E+03  0.50000000000E+03  0.00000000000E+00 0. -1.
         23    2    1    2    0    0 -0.14805223043E+02  0.22359303446E+02 -0.17265381788E+03  0.19733771759E+03  0.91726227863E+02 0.  0.
        -11    1    1    2    0    0  0.17390582063E+03 -0.61985244842E+02  0.44667928569E+03  0.48332989696E+03  0.00000000000E+00 0. -1.
         11    1    1    2    0    0 -0.15910059759E+03  0.39625941396E+02 -0.27402546782E+03  0.31933238545E+03  0.00000000000E+00 0. -1.
        -15    1    3    3    0    0  0.22912704553E+02  0.42631731045E+02 -0.61999554956E+02  0.78673750804E+02  0.17770000000E+01 0.  1.
         15    1    3    3    0    0 -0.37717927596E+02 -0.20272427599E+02 -0.11065426292E+03  0.11866396679E+03  0.17770000000E+01 0. -1.
</event>
<event>
 7    1  0.3234965E-006  0.3773385E+03  0.7546771E-02  0.9725835E-01
        -11   -1    0    0    0    0  0.00000000000E+00  0.00000000000E+00  0.50000000000E+03  0.50000000000E+03  0.00000000000E+00 0.  1.
         11   -1    0    0    0    0 -0.00000000000E+00 -0.00000000000E+00 -0.50000000000E+03  0.50000000000E+03  0.00000000000E+00 0. -1.
         23    2    1    2    0    0 -0.39896964066E+03  0.15128094998E+03 -0.13373173215E+03  0.45810017677E+03  0.99543436610E+02 0.  0.
        -11    1    1    2    0    0  0.22477329224E+03 -0.37441834451E+02  0.21989803692E+03  0.31667028675E+03  0.00000000000E+00 0.  1.
         11    1    1    2    0    0  0.17419634842E+03 -0.11383911552E+03 -0.86166304762E+02  0.22522953648E+03  0.00000000000E+00 0. -1.
        -15    1    3    3    0    0 -0.80087477571E+02  0.94220010773E+01  0.87242132024E+01  0.81129820614E+02  0.17770000000E+01 0.  1.
         15    1    3    3    0    0 -0.31888216309E+03  0.14185894890E+03 -0.14245594536E+03  0.37697035615E+03  0.17770000000E+01 0. -1.
</event>
<event>
 7    1  0.3234965E-006  0.3405424E+03  0.7546771E-02  0.9850489E-01
        -11   -1    0    0    0    0  0.00000000000E+00  0.00000000000E+00  0.50000000000E+03  0.50000000000E+03  0.00000000000E+00 0.  1.
         11   -1    0    0    0    0 -0.00000000000E+00 -0.00000000000E+00 -0.50000000000E+03  0.50000000000E+03  0.00000000000E+00 0. -1.
         23    2    1    2    0    0 -0.13669464379E+03 -0.87513735764E+02 -0.19914771480E+03  0.27207124810E+03  0.89548155450E+02 0.  0.
        -11    1    1    2    0    0 -0.33030464506E+02  0.16427108847E+03  0.41218383224E+03  0.44493989892E+03  0.00000000000E+00 0.  1.
         11    1    1    2    0    0  0.16972510829E+03 -0.76757352709E+02 -0.21303611743E+03  0.28298885298E+03  0.00000000000E+00 0. -1.
        -15    1    3    3    0    0 -0.59570917382E+02 -0.41890228005E+02 -0.15690241581E+03  0.17298847134E+03  0.17770000000E+01 0. -1.
         15    1    3    3    0    0 -0.77123726406E+02 -0.45623507759E+02 -0.42245298992E+02  0.99082776762E+02  0.17770000000E+01 0.  1.
</event>
<event>
 7    1  0.3234965E-006  0.5300407E+03  0.7546771E-02  0.9334992E-01
        -11   -1    0    0    0    0  0.00000000000E+00  0.00000000000E+00  0.50000000000E+03  0.50000000000E+03  0.00000000000E+00 0. -1.
         11   -1    0    0    0    0 -0.00000000000E+00 -0.00000000000E+00 -0.50000000000E+03  0.50000000000E+03  0.00000000000E+00 0. -1.
         23    2    1    2    0    0  0.10535059825E+02 -0.96903857429E+01 -0.11489156738E+03  0.17161717675E+03  0.12667869607E+03 0.  0.
        -11    1    1    2    0    0 -0.12962359665E+03  0.10281483038E+03  0.43987337382E+03  0.46995930797E+03  0.00000000000E+00 0. -1.
         11    1    1    2    0    0  0.11908853683E+03 -0.93124444640E+02 -0.32498180643E+03  0.35842351528E+03  0.00000000000E+00 0. -1.
        -15    1    3    3    0    0  0.52695645075E+02  0.27819366137E+02 -0.23267123386E+02  0.63994256788E+02  0.17770000000E+01 0.  1.
         15    1    3    3    0    0 -0.42160585250E+02 -0.37509751880E+02 -0.91624443999E+02  0.10762291997E+03  0.17770000000E+01 0. -1.
</event>
<event>
 7    1  0.3542408E-006  0.5391709E+03  0.7546771E-02  0.9316190E-01
        -11   -1    0    0    0    0  0.00000000000E+00  0.00000000000E+00  0.50000000000E+03  0.50000000000E+03  0.00000000000E+00 0. -1.
         11   -1    0    0    0    0 -0.00000000000E+00 -0.00000000000E+00 -0.50000000000E+03  0.50000000000E+03  0.00000000000E+00 0. -1.
         23    2    1    2    0    0  0.13085450817E+03  0.95562677354E+02  0.15609103077E+03  0.24108105944E+03  0.86605656403E+02 0.  0.
        -11    1    1    2    0    0 -0.44479595704E+02 -0.35651084712E+02  0.29258863893E+03  0.29808982859E+03  0.00000000000E+00 0. -1.
         11    1    1    2    0    0 -0.86374912470E+02 -0.59911592643E+02 -0.44867966970E+03  0.46082911197E+03  0.00000000000E+00 0. -1.
        -15    1    3    3    0    0  0.13261019839E+02  0.98656080598E+00  0.61553515608E+02  0.62998579048E+02  0.17770000000E+01 0.  1.
         15    1    3    3    0    0  0.11759348834E+03  0.94576116548E+02  0.94537515161E+02  0.17808248039E+03  0.17770000000E+01 0. -1.
</event>
<event>
 7    1  0.3234965E-006  0.3536469E+03  0.7546771E-02  0.9804237E-01
        -11   -1    0    0    0    0  0.00000000000E+00  0.00000000000E+00  0.50000000000E+03  0.50000000000E+03  0.00000000000E+00 0. -1.
         11   -1    0    0    0    0 -0.00000000000E+00 -0.00000000000E+00 -0.50000000000E+03  0.50000000000E+03  0.00000000000E+00 0. -1.
         23    2    1    2    0    0  0.20870793805E+03 -0.10150640856E+03  0.49334171089E+02  0.25396993138E+03  0.90577653011E+02 0.  0.
        -11    1    1    2    0    0 -0.14073503961E+02  0.53903269223E+02  0.32055288377E+03  0.32535792174E+03  0.00000000000E+00 0. -1.
         11    1    1    2    0    0 -0.19463443409E+03  0.47603139336E+02 -0.36988705486E+03  0.42067214688E+03  0.00000000000E+00 0. -1.
        -15    1    3    3    0    0  0.15997670346E+03 -0.89454369293E+02 -0.37967071189E+00  0.18329738600E+03  0.17770000000E+01 0. -1.
         15    1    3    3    0    0  0.48731234593E+02 -0.12052039265E+02  0.49713841800E+02  0.70672545384E+02  0.17770000000E+01 0.  1.
</event>
<event>
 7    1  0.3234965E-006  0.5233843E+03  0.7546771E-02  0.9348954E-01
        -11   -1    0    0    0    0  0.00000000000E+00  0.00000000000E+00  0.50000000000E+03  0.50000000000E+03  0.00000000000E+00 0.  1.
         11   -1    0    0    0    0 -0.00000000000E+00 -0.00000000000E+00 -0.50000000000E+03  0.50000000000E+03  0.00000000000E+00 0. -1.
         23    2    1    2    0    0 -0.18985157086E+03  0.31615030630E+03 -0.28776145435E+03  0.47661571145E+03  0.91439852684E+02 0.  0.
        -11    1    1    2    0    0 -0.62767918717E+01 -0.86342443384E+02  0.18501791514E+03  0.20426953901E+03  0.00000000000E+00 0.  1.
         11    1    1    2    0    0  0.19612836273E+03 -0.22980786292E+03  0.10274353921E+03  0.31911474954E+03  0.00000000000E+00 0. -1.
        -15    1    3    3    0    0 -0.16351181318E+03  0.21666944916E+03 -0.17033286897E+03  0.32046561006E+03  0.17770000000E+01 0. -1.
         15    1    3    3    0    0 -0.26339757681E+02  0.99480857141E+02 -0.11742858537E+03  0.15615010139E+03  0.17770000000E+01 0.  1.
</event>
<event>
 7    1  0.3234965E-006  0.5260855E+03  0.7546771E-02  0.9343262E-01
        -11   -1    0    0    0    0  0.00000000000E+00  0.00000000000E+00  0.50000000000E+03  0.50000000000E+03  0.00000000000E+00 0.  1.
         11   -1    0    0    0    0 -0.00000000000E+00 -0.00000000000E+00 -0.50000000000E+03  0.50000000000E+03  0.00000000000E+00 0. -1.
         23    2    1    2    0    0  0.29895955917E+02  0.96911753234E+02 -0.81529186216E+02  0.16619033652E+03  0.10337583689E+03 0.  0.
        -11    1    1    2    0    0 -0.29168219851E+03 -0.29315304709E+03  0.23146865963E+03  0.47391450108E+03  0.00000000000E+00 0.  1.
         11    1    1    2    0    0  0.26178624259E+03  0.19624129386E+03 -0.14993947341E+03  0.35989516239E+03  0.00000000000E+00 0. -1.
        -15    1    3    3    0    0  0.54122911797E+02  0.81620997998E+02 -0.93198608868E+02  0.13520508615E+03  0.17770000000E+01 0.  1.
         15    1    3    3    0    0 -0.24226955880E+02  0.15290755236E+02  0.11669422653E+02  0.30985250377E+02  0.17770000000E+01 0. -1.
</event>
<event>
 7    1  0.3234965E-006  0.5168555E+03  0.7546771E-02  0.9362865E-01
        -11   -1    0    0    0    0  0.00000000000E+00  0.00000000000E+00  0.50000000000E+03  0.50000000000E+03  0.00000000000E+00 0.  1.
         11   -1    0    0    0    0 -0.00000000000E+00 -0.00000000000E+00 -0.50000000000E+03  0.50000000000E+03  0.00000000000E+00 0. -1.
         23    2    1    2    0    0 -0.39142104439E+02  0.46407545922E+02  0.14040325287E+03  0.17835181469E+03  0.91708951193E+02 0.  0.
        -11    1    1    2    0    0 -0.12445954185E+03  0.20770175746E+03  0.23654711865E+03  0.33850367347E+03  0.00000000000E+00 0.  1.
         11    1    1    2    0    0  0.16360164629E+03 -0.25410930338E+03 -0.37695037152E+03  0.48314451184E+03  0.00000000000E+00 0. -1.
        -15    1    3    3    0    0 -0.38426293425E+02 -0.20109360106E+02  0.53328408232E+02  0.68760768203E+02  0.17770000000E+01 0. -1.
         15    1    3    3    0    0 -0.71581101403E+00  0.66516906027E+02  0.87074844633E+02  0.10959104649E+03  0.17770000000E+01 0.  1.
</event>
<event>
 7    1  0.3372122E-006  0.4435360E+03  0.7546771E-02  0.9535849E-01
        -11   -1    0    0    0    0  0.00000000000E+00  0.00000000000E+00  0.50000000000E+03  0.50000000000E+03  0.00000000000E+00 0. -1.
         11   -1    0    0    0    0 -0.00000000000E+00 -0.00000000000E+00 -0.50000000000E+03  0.50000000000E+03  0.00000000000E+00 0.  1.
         23    2    1    2    0    0 -0.13095442057E+03 -0.19409686541E+02  0.34262406585E+03  0.38876366563E+03  0.12735831741E+03 0.  0.
        -11    1    1    2    0    0 -0.19314221219E+02 -0.66322121621E+01  0.12123839758E+03  0.12294622576E+03  0.00000000000E+00 0. -1.
         11    1    1    2    0    0  0.15026864179E+03  0.26041898704E+02 -0.46386246343E+03  0.48829010862E+03  0.00000000000E+00 0.  1.
        -15    1    3    3    0    0 -0.11670093701E+03 -0.66132554712E+02  0.26524509824E+03  0.29723852940E+03  0.17770000000E+01 0. -1.
         15    1    3    3    0    0 -0.14253483561E+02  0.46722868170E+02  0.77378967606E+02  0.91525136222E+02  0.17770000000E+01 0.  1.
</event>
<event>
 7    1  0.3234965E-006  0.4171790E+03  0.7546771E-02  0.9606961E-01
        -11   -1    0    0    0    0  0.00000000000E+00  0.00000000000E+00  0.50000000000E+03  0.50000000000E+03  0.00000000000E+00 0.  1.
         11   -1    0    0    0    0 -0.00000000000E+00 -0.00000000000E+00 -0.50000000000E+03  0.50000000000E+03  0.00000000000E+00 0. -1.
         23    2    1    2    0    0 -0.23817639553E+03  0.10242837628E+03 -0.36231445132E+03  0.45465164404E+03  0.90646500979E+02 0.  0.
        -11    1    1    2    0    0  0.81506036909E+02 -0.13410352963E+03  0.35173874724E+03  0.38515858684E+03  0.00000000000E+00 0.  1.
         11    1    1    2    0    0  0.15667035862E+03  0.31675153353E+02  0.10575704084E+02  0.16018976911E+03  0.00000000000E+00 0. -1.
        -15    1    3    3    0    0 -0.17254148837E+03  0.48185705231E+02 -0.29886601764E+03  0.34844867861E+03  0.17770000000E+01 0. -1.
         15    1    3    3    0    0 -0.65634907166E+02  0.54242671048E+02 -0.63448433677E+02  0.10620296543E+03  0.17770000000E+01 0.  1.
</event>
<event>
 7    1  0.3234965E-006  0.5317018E+03  0.7546771E-02  0.9331541E-01
        -11   -1    0    0    0    0  0.00000000000E+00  0.00000000000E+00  0.50000000000E+03  0.50000000000E+03  0.00000000000E+00 0.  1.
         11   -1    0    0    0    0 -0.00000000000E+00 -0.00000000000E+00 -0.50000000000E+03  0.50000000000E+03  0.00000000000E+00 0.  1.
         23    2    1    2    0    0  0.14316073503E+03 -0.75725971785E+02  0.27426780069E+01  0.18462207308E+03  0.88591019459E+02 0.  0.
        -11    1    1    2    0    0  0.75589916636E+02 -0.33454149740E+03  0.53221174366E+02  0.34707973490E+03  0.00000000000E+00 0.  1.
         11    1    1    2    0    0 -0.21875065166E+03  0.41026746919E+03 -0.55963852373E+02  0.46829819202E+03  0.00000000000E+00 0.  1.
        -15    1    3    3    0    0  0.87912984537E+02 -0.14619379614E+02 -0.32669912759E+02  0.94936294636E+02  0.17770000000E+01 0. -1.
         15    1    3    3    0    0  0.55247750488E+02 -0.61106592171E+02  0.35412590766E+02  0.89685778441E+02  0.17770000000E+01 0.  1.
</event>
<event>
 7    1  0.3234965E-006  0.5191611E+03  0.7546771E-02  0.9357927E-01
        -11   -1    0    0    0    0  0.00000000000E+00  0.00000000000E+00  0.50000000000E+03  0.50000000000E+03  0.00000000000E+00 0.  1.
         11   -1    0    0    0    0 -0.00000000000E+00 -0.00000000000E+00 -0.50000000000E+03  0.50000000000E+03  0.00000000000E+00 0. -1.
         23    2    1    2    0    0 -0.63372054580E+02 -0.96526086343E+01  0.15225530238E+03  0.18776802160E+03  0.89252241851E+02 0.  0.
        -11    1    1    2    0    0  0.23287394414E+02 -0.11005672530E+03  0.31171554745E+03  0.33139307181E+03  0.00000000000E+00 0.  1.
         11    1    1    2    0    0  0.40084660166E+02  0.11970933393E+03 -0.46397084983E+03  0.48083890660E+03  0.00000000000E+00 0. -1.
        -15    1    3    3    0    0  0.17806618814E+02  0.11906593056E+02  0.56128075794E+02  0.60102922168E+02  0.17770000000E+01 0.  1.
         15    1    3    3    0    0 -0.81178673393E+02 -0.21559201691E+02  0.96127226587E+02  0.12766509943E+03  0.17770000000E+01 0. -1.
</event>
<event>
 7    1  0.3234965E-006  0.5127508E+03  0.7546771E-02  0.9371722E-01
        -11   -1    0    0    0    0  0.00000000000E+00  0.00000000000E+00  0.50000000000E+03  0.50000000000E+03  0.00000000000E+00 0.  1.
         11   -1    0    0    0    0 -0.00000000000E+00 -0.00000000000E+00 -0.50000000000E+03  0.50000000000E+03  0.00000000000E+00 0. -1.
         23    2    1    2    0    0 -0.78108151838E+02  0.17517189469E+02 -0.26081944597E+03  0.28853780321E+03  0.93912433545E+02 0.  0.
        -11    1    1    2    0    0  0.61727885981E+02 -0.69574329653E+02  0.47828949175E+03  0.48724917360E+03  0.00000000000E+00 0.  1.
         11    1    1    2    0    0  0.16380265857E+02  0.52057140184E+02 -0.21747004578E+03  0.22421302318E+03  0.00000000000E+00 0. -1.
        -15    1    3    3    0    0 -0.37860506769E+02  0.52852953848E+02 -0.10247989589E+03  0.12137602520E+03  0.17770000000E+01 0.  1.
         15    1    3    3    0    0 -0.40247645069E+02 -0.35335764380E+02 -0.15833955008E+03  0.16716177801E+03  0.17770000000E+01 0. -1.
</event>
<event>
 7    1  0.3234965E-006  0.3754144E+03  0.7546771E-02  0.9731969E-01
        -11   -1    0    0    0    0  0.00000000000E+00  0.00000000000E+00  0.50000000000E+03  0.50000000000E+03  0.00000000000E+00 0.  1.
         11   -1    0    0    0    0 -0.00000000000E+00 -0.00000000000E+00 -0.50000000000E+03  0.50000000000E+03  0.00000000000E+00 0. -1.
         23    2    1    2    0    0 -0.10396559354E+03  0.39472038032E+02 -0.32251364358E+03  0.35206515871E+03  0.86993903568E+02 0.  0.
        -11    1    1    2    0    0 -0.10418888455E+03 -0.23662633755E+02  0.40844383692E+03  0.42218670256E+03  0.00000000000E+00 0.  1.
         11    1    1    2    0    0  0.20815447809E+03 -0.15809404277E+02 -0.85930193337E+02  0.22574813873E+03  0.00000000000E+00 0. -1.
        -15    1    3    3    0    0 -0.11815838092E+03  0.39564486341E+02 -0.26561392806E+03  0.29339507166E+03  0.17770000000E+01 0.  1.
         15    1    3    3    0    0  0.14192787384E+02 -0.92448309453E-01 -0.56899715514E+02  0.58670087055E+02  0.17770000000E+01 0. -1.
</event>
<event>
 7    1  0.3234965E-006  0.3606690E+03  0.7546771E-02  0.9780329E-01
        -11   -1    0    0    0    0  0.00000000000E+00  0.00000000000E+00  0.50000000000E+03  0.50000000000E+03  0.00000000000E+00 0.  1.
         11   -1    0    0    0    0 -0.00000000000E+00 -0.00000000000E+00 -0.50000000000E+03  0.50000000000E+03  0.00000000000E+00 0. -1.
         23    2    1    2    0    0 -0.84388411547E+02  0.16631105742E+03 -0.26418241182E+03  0.33575795206E+03  0.90334289351E+02 0.  0.
        -11    1    1    2    0    0 -0.12956854605E+03 -0.11455429221E+03  0.37854339592E+03  0.41618000503E+03  0.00000000000E+00 0.  1.
         11    1    1    2    0    0  0.21395695760E+03 -0.51756765209E+02 -0.11436098410E+03  0.24806204291E+03  0.00000000000E+00 0. -1.
        -15    1    3    3    0    0 -0.26713338994E+02  0.35858826931E+02 -0.12500482207E+02  0.46463724920E+02  0.17770000000E+01 0.  1.
         15    1    3    3    0    0 -0.57675072552E+02  0.13045223049E+03 -0.25168192961E+03  0.28929422714E+03  0.17770000000E+01 0. -1.
</event>
<event>
 7    1  0.9067241E-006  0.4146534E+03  0.7546771E-02  0.9614069E-01
        -11   -1    0    0    0    0  0.00000000000E+00  0.00000000000E+00  0.50000000000E+03  0.50000000000E+03  0.00000000000E+00 0.  1.
         11   -1    0    0    0    0 -0.00000000000E+00 -0.00000000000E+00 -0.50000000000E+03  0.50000000000E+03  0.00000000000E+00 0. -1.
         23    2    1    2    0    0  0.49988853674E+02 -0.12525608834E+03  0.10526446037E+02  0.15973307424E+03  0.84946311172E+02 0.  0.
        -11    1    1    2    0    0 -0.55673247577E+02  0.44742421749E+02  0.40791053134E+03  0.41411640438E+03  0.00000000000E+00 0.  1.
         11    1    1    2    0    0  0.56843939028E+01  0.80513666588E+02 -0.41843697737E+03  0.42615052138E+03  0.00000000000E+00 0. -1.
        -15    1    3    3    0    0  0.33542996977E+02 -0.10625934631E+03 -0.26878149485E+02  0.11463757662E+03  0.17770000000E+01 0.  1.
         15    1    3    3    0    0  0.16445856697E+02 -0.18996742026E+02  0.37404595522E+02  0.45095497617E+02  0.17770000000E+01 0. -1.
</event>
<event>
 7    1  0.3234965E-006  0.5357681E+03  0.7546771E-02  0.9323151E-01
        -11   -1    0    0    0    0  0.00000000000E+00  0.00000000000E+00  0.50000000000E+03  0.50000000000E+03  0.00000000000E+00 0. -1.
         11   -1    0    0    0    0 -0.00000000000E+00 -0.00000000000E+00 -0.50000000000E+03  0.50000000000E+03  0.00000000000E+00 0. -1.
         23    2    1    2    0    0  0.32037056764E+02  0.79588886149E+01 -0.30721288134E+03  0.32215946677E+03  0.91198961922E+02 0.  0.
        -11    1    1    2    0    0  0.11505880317E+03  0.61869316714E+02  0.44547158667E+03  0.46423191948E+03  0.00000000000E+00 0. -1.
         11    1    1    2    0    0 -0.14709585993E+03 -0.69828205329E+02 -0.13825870533E+03  0.21360861375E+03  0.00000000000E+00 0. -1.
        -15    1    3    3    0    0 -0.23490853296E+02  0.20677861700E+02 -0.52479860797E+02  0.61128452225E+02  0.17770000000E+01 0.  1.
         15    1    3    3    0    0  0.55527910060E+02 -0.12718973086E+02 -0.25473302054E+03  0.26103101455E+03  0.17770000000E+01 0. -1.
</event>
<event>
 7    1  0.3234965E-006  0.4933434E+03  0.7546771E-02  0.9414829E-01
        -11   -1    0    0    0    0  0.00000000000E+00  0.00000000000E+00  0.50000000000E+03  0.50000000000E+03  0.00000000000E+00 0.  1.
         11   -1    0    0    0    0 -0.00000000000E+00 -0.00000000000E+00 -0.50000000000E+03  0.50000000000E+03  0.00000000000E+00 0.  1.
         23    2    1    2    0    0 -0.11106084354E+03  0.40943807983E+02 -0.46430610912E+03  0.48820404485E+03  0.93552766228E+02 0.  0.
        -11    1    1    2    0    0  0.13211139758E+03 -0.44776300580E+02  0.46949478724E+03  0.48977922956E+03  0.00000000000E+00 0.  1.
         11    1    1    2    0    0 -0.21050554039E+02  0.38324925967E+01 -0.51886781265E+01  0.22016725587E+02  0.00000000000E+00 0.  1.
        -15    1    3    3    0    0 -0.64032306601E+02  0.24823397068E+02 -0.40505144608E+03  0.41083593931E+03  0.17770000000E+01 0.  1.
         15    1    3    3    0    0 -0.47028536935E+02  0.16120410916E+02 -0.59254663037E+02  0.77368105540E+02  0.17770000000E+01 0. -1.
</event>
<event>
 7    1  0.3234965E-006  0.3600432E+03  0.7546771E-02  0.9782436E-01
        -11   -1    0    0    0    0  0.00000000000E+00  0.00000000000E+00  0.50000000000E+03  0.50000000000E+03  0.00000000000E+00 0.  1.
         11   -1    0    0    0    0 -0.00000000000E+00 -0.00000000000E+00 -0.50000000000E+03  0.50000000000E+03  0.00000000000E+00 0. -1.
         23    2    1    2    0    0  0.25146163580E+03 -0.20608044816E+03 -0.26865206855E+03  0.43076779917E+03  0.87663318814E+02 0.  0.
        -11    1    1    2    0    0 -0.13703699484E+02  0.13700518295E+03  0.28969442617E+03  0.32075079437E+03  0.00000000000E+00 0.  1.
         11    1    1    2    0    0 -0.23775793632E+03  0.69075265214E+02 -0.21042357612E+02  0.24848140647E+03  0.00000000000E+00 0. -1.
        -15    1    3    3    0    0  0.19114117799E+03 -0.10404710502E+03 -0.18559189894E+03  0.28602143393E+03  0.17770000000E+01 0. -1.
         15    1    3    3    0    0  0.60320457812E+02 -0.10203334315E+03 -0.83060169612E+02  0.14474636524E+03  0.17770000000E+01 0.  1.
</event>
<event>
 7    1  0.3234965E-006  0.5203151E+03  0.7546771E-02  0.9355466E-01
        -11   -1    0    0    0    0  0.00000000000E+00  0.00000000000E+00  0.50000000000E+03  0.50000000000E+03  0.00000000000E+00 0.  1.
         11   -1    0    0    0    0 -0.00000000000E+00 -0.00000000000E+00 -0.50000000000E+03  0.50000000000E+03  0.00000000000E+00 0. -1.
         23    2    1    2    0    0 -0.21393349709E+02  0.13503699893E+02 -0.24234635328E+03  0.25992930253E+03  0.90506696134E+02 0.  0.
        -11    1    1    2    0    0 -0.10648189268E+03  0.13872274515E+02  0.46751126225E+03  0.47968491095E+03  0.00000000000E+00 0.  1.
         11    1    1    2    0    0  0.12787524238E+03 -0.27375974407E+02 -0.22516490896E+03  0.26038578651E+03  0.00000000000E+00 0. -1.
        -15    1    3    3    0    0  0.32026511324E+02 -0.41011035133E+01 -0.13392713876E+03  0.13777573336E+03  0.17770000000E+01 0. -1.
         15    1    3    3    0    0 -0.53419861032E+02  0.17604803406E+02 -0.10841921452E+03  0.12215356918E+03  0.17770000000E+01 0.  1.
</event>
<event>
 7    1  0.3234965E-006  0.5136651E+03  0.7546771E-02  0.9369742E-01
        -11   -1    0    0    0    0  0.00000000000E+00  0.00000000000E+00  0.50000000000E+03  0.50000000000E+03  0.00000000000E+00 0.  1.
         11   -1    0    0    0    0 -0.00000000000E+00 -0.00000000000E+00 -0.50000000000E+03  0.50000000000E+03  0.00000000000E+00 0. -1.
         23    2    1    2    0    0 -0.39795124089E+02  0.25238542955E+02  0.17349939948E+03  0.20253117714E+03  0.93253418934E+02 0.  0.
        -11    1    1    2    0    0  0.16969206528E+02  0.62875590014E+02  0.30424168577E+03  0.31113388942E+03  0.00000000000E+00 0.  1.
         11    1    1    2    0    0  0.22825917561E+02 -0.88114132969E+02 -0.47774108525E+03  0.48633493343E+03  0.00000000000E+00 0. -1.
        -15    1    3    3    0    0 -0.11419025999E+01  0.40892866244E+02  0.24326343967E+02  0.47628344407E+02  0.17770000000E+01 0. -1.
         15    1    3    3    0    0 -0.38653221489E+02 -0.15654323289E+02  0.14917305551E+03  0.15490283274E+03  0.17770000000E+01 0.  1.
</event>
<event>
 7    1  0.3234965E-006  0.5354797E+03  0.7546771E-02  0.9323743E-01
        -11   -1    0    0    0    0  0.00000000000E+00  0.00000000000E+00  0.50000000000E+03  0.50000000000E+03  0.00000000000E+00 0.  1.
         11   -1    0    0    0    0 -0.00000000000E+00 -0.00000000000E+00 -0.50000000000E+03  0.50000000000E+03  0.00000000000E+00 0. -1.
         23    2    1    2    0    0  0.59289194658E+02  0.20334942435E+03  0.25183242799E+03  0.34155726337E+03  0.91518278967E+02 0.  0.
        -11    1    1    2    0    0  0.27922079797E+02 -0.61444351876E+02  0.18179899984E+03  0.19392247745E+03  0.00000000000E+00 0.  1.
         11    1    1    2    0    0 -0.87211274455E+02 -0.14190507247E+03 -0.43363142783E+03  0.46452025918E+03  0.00000000000E+00 0. -1.
        -15    1    3    3    0    0  0.52919193728E+02  0.46959534817E+02  0.52544014299E+02  0.88145732414E+02  0.17770000000E+01 0.  1.
         15    1    3    3    0    0  0.63700009296E+01  0.15638988953E+03  0.19928841369E+03  0.25341153095E+03  0.17770000000E+01 0. -1.
</event>
<event>
 7    1  0.3234965E-006  0.3800793E+03  0.7546771E-02  0.9717163E-01
        -11   -1    0    0    0    0  0.00000000000E+00  0.00000000000E+00  0.50000000000E+03  0.50000000000E+03  0.00000000000E+00 0. -1.
         11   -1    0    0    0    0 -0.00000000000E+00 -0.00000000000E+00 -0.50000000000E+03  0.50000000000E+03  0.00000000000E+00 0. -1.
         23    2    1    2    0    0 -0.41033351379E+02 -0.84223229668E+02 -0.31086960912E+03  0.33731771228E+03  0.91466041806E+02 0.  0.
        -11    1    1    2    0    0  0.69562634458E+02 -0.10048502891E+03  0.42598981908E+03  0.44317437551E+03  0.00000000000E+00 0. -1.
         11    1    1    2    0    0 -0.28529283079E+02  0.18470825858E+03 -0.11512020996E+03  0.21950791221E+03  0.00000000000E+00 0. -1.
        -15    1    3    3    0    0 -0.31838108459E+02  0.12028772336E+02 -0.74204006363E+02  0.81656284531E+02  0.17770000000E+01 0.  1.
         15    1    3    3    0    0 -0.91952429204E+01 -0.96252002004E+02 -0.23666560276E+03  0.25566142775E+03  0.17770000000E+01 0. -1.
</event>
<event>
 7    1  0.3234965E-006  0.5213234E+03  0.7546771E-02  0.9353322E-01
        -11   -1    0    0    0    0  0.00000000000E+00  0.00000000000E+00  0.50000000000E+03  0.50000000000E+03  0.00000000000E+00 0. -1.
         11   -1    0    0    0    0 -0.00000000000E+00 -0.00000000000E+00 -0.50000000000E+03  0.50000000000E+03  0.00000000000E+00 0.  1.
         23    2    1    2    0    0  0.95183098624E+01 -0.33404496288E+02 -0.26050613260E+03  0.27836866920E+03  0.91756265602E+02 0.  0.
        -11    1    1    2    0    0 -0.15576257583E+03  0.10829337953E+03  0.43947901763E+03  0.47867655365E+03  0.00000000000E+00 0. -1.
         11    1    1    2    0    0  0.14624426596E+03 -0.74888883237E+02 -0.17897288504E+03  0.24295477715E+03  0.00000000000E+00 0.  1.
        -15    1    3    3    0    0 -0.37365423990E+02  0.35824170558E+01 -0.83910275550E+02  0.91940745559E+02  0.17770000000E+01 0. -1.
         15    1    3    3    0    0  0.46883733852E+02 -0.36986913344E+02 -0.17659585705E+03  0.18642792364E+03  0.17770000000E+01 0.  1.
</event>
<event>
 7    1  0.3234965E-006  0.4439633E+03  0.7546771E-02  0.9534740E-01
        -11   -1    0    0    0    0  0.00000000000E+00  0.00000000000E+00  0.50000000000E+03  0.50000000000E+03  0.00000000000E+00 0. -1.
         11   -1    0    0    0    0 -0.00000000000E+00 -0.00000000000E+00 -0.50000000000E+03  0.50000000000E+03  0.00000000000E+00 0.  1.
         23    2    1    2    0    0 -0.38685053242E+02  0.18845444429E+02  0.43134668265E+02  0.10998536437E+03  0.91566897122E+02 0.  0.
        -11    1    1    2    0    0  0.22306720256E+03  0.11534622613E+03  0.35283189769E+03  0.43307513987E+03  0.00000000000E+00 0. -1.
         11    1    1    2    0    0 -0.18438214932E+03 -0.13419167055E+03 -0.39596656596E+03  0.45693949577E+03  0.00000000000E+00 0.  1.
        -15    1    3    3    0    0 -0.49217045530E+02  0.26261183141E+02 -0.87510314653E+01  0.56495182019E+02  0.17770000000E+01 0.  1.
         15    1    3    3    0    0  0.10531992288E+02 -0.74157387114E+01  0.51885699731E+02  0.53490182349E+02  0.17770000000E+01 0. -1.
</event>
<event>
 7    1  0.3234965E-006  0.5288639E+03  0.7546771E-02  0.9337444E-01
        -11   -1    0    0    0    0  0.00000000000E+00  0.00000000000E+00  0.50000000000E+03  0.50000000000E+03  0.00000000000E+00 0.  1.
         11   -1    0    0    0    0 -0.00000000000E+00 -0.00000000000E+00 -0.50000000000E+03  0.50000000000E+03  0.00000000000E+00 0. -1.
         23    2    1    2    0    0 -0.53349823456E+02  0.13011888982E+02 -0.39818648831E+02  0.11315288952E+03  0.90567867889E+02 0.  0.
        -11    1    1    2    0    0  0.18727214059E+03  0.23281032654E+02  0.43169014237E+03  0.47113611636E+03  0.00000000000E+00 0.  1.
         11    1    1    2    0    0 -0.13392231713E+03 -0.36292921637E+02 -0.39187149354E+03  0.41571099412E+03  0.00000000000E+00 0. -1.
        -15    1    3    3    0    0 -0.56925208325E+02  0.41438373080E+02 -0.45553326716E+02  0.83880161005E+02  0.17770000000E+01 0. -1.
         15    1    3    3    0    0  0.35753848689E+01 -0.28426484098E+02  0.57346778855E+01  0.29272728513E+02  0.17770000000E+01 0.  1.
</event>
<event>
 7    1  0.3234965E-006  0.5183313E+03  0.7546771E-02  0.9359701E-01
        -11   -1    0    0    0    0  0.00000000000E+00  0.00000000000E+00  0.50000000000E+03  0.50000000000E+03  0.00000000000E+00 0. -1.
         11   -1    0    0    0    0 -0.00000000000E+00 -0.00000000000E+00 -0.50000000000E+03  0.50000000000E+03  0.00000000000E+00 0.  1.
         23    2    1    2    0    0 -0.46744509763E+02  0.31687262146E+02 -0.28885305575E+03  0.31009158253E+03  0.97629759631E+02 0.  0.
        -11    1    1    2    0    0  0.69161817231E+02  0.64210621650E+02  0.47233288714E+03  0.48166867987E+03  0.00000000000E+00 0. -1.
         11    1    1    2    0    0 -0.22417307468E+02 -0.95897883796E+02 -0.18347983138E+03  0.20823973760E+03  0.00000000000E+00 0.  1.
        -15    1    3    3    0    0 -0.70904958398E+01  0.52094561859E+02 -0.74867468458E+02  0.91500896547E+02  0.17770000000E+01 0. -1.
         15    1    3    3    0    0 -0.39654013923E+02 -0.20407299713E+02 -0.21398558729E+03  0.21859068599E+03  0.17770000000E+01 0.  1.
</event>
<event>
 7    1  0.3234965E-006  0.3739364E+03  0.7546771E-02  0.9736709E-01
        -11   -1    0    0    0    0  0.00000000000E+00  0.00000000000E+00  0.50000000000E+03  0.50000000000E+03  0.00000000000E+00 0.  1.
         11   -1    0    0    0    0 -0.00000000000E+00 -0.00000000000E+00 -0.50000000000E+03  0.50000000000E+03  0.00000000000E+00 0. -1.
         23    2    1    2    0    0 -0.37780001372E+02 -0.18332249910E+03 -0.28717266976E+03  0.35508348021E+03  0.92637295320E+02 0.  0.
        -11    1    1    2    0    0  0.26519605700E+03  0.18650509097E+03  0.26053702285E+03  0.41592383664E+03  0.00000000000E+00 0.  1.
         11    1    1    2    0    0 -0.22741605563E+03 -0.31825918787E+01  0.26635646905E+02  0.22899268315E+03  0.00000000000E+00 0. -1.
        -15    1    3    3    0    0  0.26820392406E+02 -0.57006040179E+02 -0.58638310400E+02  0.86085023328E+02  0.17770000000E+01 0.  1.
         15    1    3    3    0    0 -0.64600393778E+02 -0.12631645892E+03 -0.22853435936E+03  0.26899845688E+03  0.17770000000E+01 0. -1.
</event>
<event>
 7    1  0.3234965E-006  0.4801062E+03  0.7546771E-02  0.9445458E-01
        -11   -1    0    0    0    0  0.00000000000E+00  0.00000000000E+00  0.50000000000E+03  0.50000000000E+03  0.00000000000E+00 0. -1.
         11   -1    0    0    0    0 -0.00000000000E+00 -0.00000000000E+00 -0.50000000000E+03  0.50000000000E+03  0.00000000000E+00 0. -1.
         23    2    1    2    0    0 -0.85893374093E+02  0.35441432023E+02 -0.45000750118E+03  0.46785253828E+03  0.88008406646E+02 0.  0.
        -11    1    1    2    0    0  0.85570322526E+02  0.22050782601E+01  0.47776531897E+03  0.48537289013E+03  0.00000000000E+00 0. -1.
         11    1    1    2    0    0  0.32305156646E+00 -0.37646510283E+02 -0.27757817788E+02  0.46774571587E+02  0.00000000000E+00 0. -1.
        -15    1    3    3    0    0 -0.70556546294E+02  0.60890806870E+02 -0.38842345547E+03  0.39945194338E+03  0.17770000000E+01 0. -1.
         15    1    3    3    0    0 -0.15336827799E+02 -0.25449374847E+02 -0.61584045714E+02  0.68400594899E+02  0.17770000000E+01 0.  1.
</event>
<event>
 7    1  0.3234965E-006  0.5287983E+03  0.7546771E-02  0.9337581E-01
        -11   -1    0    0    0    0  0.00000000000E+00  0.00000000000E+00  0.50000000000E+03  0.50000000000E+03  0.00000000000E+00 0.  1.
         11   -1    0    0    0    0 -0.00000000000E+00 -0.00000000000E+00 -0.50000000000E+03  0.50000000000E+03  0.00000000000E+00 0. -1.
         23    2    1    2    0    0 -0.28309737954E+02  0.95470440660E+02 -0.33951537066E+03  0.36641622670E+03  0.95258164858E+02 0.  0.
        -11    1    1    2    0    0  0.12255309963E+03 -0.29357911408E+02  0.45403729197E+03  0.47120166775E+03  0.00000000000E+00 0.  1.
         11    1    1    2    0    0 -0.94243361677E+02 -0.66112529251E+02 -0.11452192130E+03  0.16238210555E+03  0.00000000000E+00 0. -1.
        -15    1    3    3    0    0  0.10763347201E+01  0.93647187846E+02 -0.16769626037E+03  0.19208369987E+03  0.17770000000E+01 0.  1.
         15    1    3    3    0    0 -0.29386072674E+02  0.18232528136E+01 -0.17181911030E+03  0.17433252683E+03  0.17770000000E+01 0. -1.
</event>
<event>
 7    1  0.3234965E-006  0.4363374E+03  0.7546771E-02  0.9554737E-01
        -11   -1    0    0    0    0  0.00000000000E+00  0.00000000000E+00  0.50000000000E+03  0.50000000000E+03  0.00000000000E+00 0.  1.
         11   -1    0    0    0    0 -0.00000000000E+00 -0.00000000000E+00 -0.50000000000E+03  0.50000000000E+03  0.00000000000E+00 0.  1.
         23    2    1    2    0    0  0.15896834139E+03 -0.20242993964E+02 -0.38767201205E+03  0.42956636926E+03  0.92503861021E+02 0.  0.
        -11    1    1    2    0    0 -0.26983064142E+03  0.66903399492E+02  0.34440862096E+03  0.44260810895E+03  0.00000000000E+00 0.  1.
         11    1    1    2    0    0  0.11086230003E+03 -0.46660405528E+02  0.43263391088E+02  0.12782552179E+03  0.00000000000E+00 0.  1.
        -15    1    3    3    0    0  0.82971095674E+02 -0.48848787283E+02 -0.14860959289E+03  0.17708296238E+03  0.17770000000E+01 0.  1.
         15    1    3    3    0    0  0.75997245713E+02  0.28605793319E+02 -0.23906241916E+03  0.25248340688E+03  0.17770000000E+01 0. -1.
</event>
<event>
 7    1  0.3234965E-006  0.4092821E+03  0.7546771E-02  0.9629366E-01
        -11   -1    0    0    0    0  0.00000000000E+00  0.00000000000E+00  0.50000000000E+03  0.50000000000E+03  0.00000000000E+00 0.  1.
         11   -1    0    0    0    0 -0.00000000000E+00 -0.00000000000E+00 -0.50000000000E+03  0.50000000000E+03  0.00000000000E+00 0. -1.
         23    2    1    2    0    0 -0.13727634853E+03  0.37922335644E+02  0.63030048920E+01  0.16911495897E+03  0.90979349701E+02 0.  0.
        -11    1    1    2    0    0  0.64118095711E+02 -0.27548286671E+02  0.40603015055E+03  0.41198364222E+03  0.00000000000E+00 0.  1.
         11    1    1    2    0    0  0.73158252816E+02 -0.10374048973E+02 -0.41233315544E+03  0.41890139881E+03  0.00000000000E+00 0. -1.
        -15    1    3    3    0    0 -0.13006824267E+03  0.61351047732E+02  0.10404957635E+02  0.14419819583E+03  0.17770000000E+01 0.  1.
         15    1    3    3    0    0 -0.72081058604E+01 -0.23428712088E+02 -0.41019527430E+01  0.24916763143E+02  0.17770000000E+01 0. -1.
</event>
<event>
 7    1  0.3234965E-006  0.5387699E+03  0.7546771E-02  0.9317008E-01
        -11   -1    0    0    0    0  0.00000000000E+00  0.00000000000E+00  0.50000000000E+03  0.50000000000E+03  0.00000000000E+00 0.  1.
         11   -1    0    0    0    0 -0.00000000000E+00 -0.00000000000E+00 -0.50000000000E+03  0.50000000000E+03  0.00000000000E+00 0. -1.
         23    2    1    2    0    0  0.62729324468E+01 -0.73212346520E+02 -0.29408118986E+03  0.31483806140E+03  0.85087374567E+02 0.  0.
        -11    1    1    2    0    0  0.91952245988E+02 -0.55817018546E+02  0.44851140435E+03  0.46123013229E+03  0.00000000000E+00 0.  1.
         11    1    1    2    0    0 -0.98225178435E+02  0.12902936507E+03 -0.15443021449E+03  0.22393180630E+03  0.00000000000E+00 0. -1.
        -15    1    3    3    0    0 -0.14012620923E+02 -0.84765590455E+02 -0.25697786554E+03  0.27096556972E+03  0.17770000000E+01 0. -1.
         15    1    3    3    0    0  0.20285553370E+02  0.11553243936E+02 -0.37103324329E+02  0.43872491680E+02  0.17770000000E+01 0.  1.
</event>
<event>
 7    1  0.3234965E-006  0.5232039E+03  0.7546771E-02  0.9349335E-01
        -11   -1    0    0    0    0  0.00000000000E+00  0.00000000000E+00  0.50000000000E+03  0.50000000000E+03  0.00000000000E+00 0.  1.
         11   -1    0    0    0    0 -0.00000000000E+00 -0.00000000000E+00 -0.50000000000E+03  0.50000000000E+03  0.00000000000E+00 0. -1.
         23    2    1    2    0    0 -0.22944976417E+02 -0.38185242885E+02 -0.24824388187E+03  0.27119561933E+03  0.99686781180E+02 0.  0.
        -11    1    1    2    0    0  0.30909042871E+02 -0.84496375316E+02  0.46823018354E+03  0.47679608969E+03  0.00000000000E+00 0.  1.
         11    1    1    2    0    0 -0.79640664533E+01  0.12268161820E+03 -0.21998630167E+03  0.25200829097E+03  0.00000000000E+00 0. -1.
        -15    1    3    3    0    0  0.27004675110E+02 -0.41771786641E+02 -0.17854848074E+03  0.18535601512E+03  0.17770000000E+01 0.  1.
         15    1    3    3    0    0 -0.49949651527E+02  0.35865437559E+01 -0.69695401126E+02  0.85839604210E+02  0.17770000000E+01 0. -1.
</event>
<event>
 7    1  0.3234965E-006  0.3239384E+03  0.7546771E-02  0.9912405E-01
        -11   -1    0    0    0    0  0.00000000000E+00  0.00000000000E+00  0.50000000000E+03  0.50000000000E+03  0.00000000000E+00 0.  1.
         11   -1    0    0    0    0 -0.00000000000E+00 -0.00000000000E+00 -0.50000000000E+03  0.50000000000E+03  0.00000000000E+00 0. -1.
         23    2    1    2    0    0  0.35396348325E+03  0.80197983788E+02 -0.69631201438E+02  0.38102413218E+03  0.92784810232E+02 0.  0.
        -11    1    1    2    0    0 -0.11337372842E+03 -0.30179047642E+02  0.27483521922E+03  0.29882900618E+03  0.00000000000E+00 0.  1.
         11    1    1    2    0    0 -0.24058975484E+03 -0.50018936147E+02 -0.20520401778E+03  0.32014686164E+03  0.00000000000E+00 0. -1.
        -15    1    3    3    0    0  0.12430136055E+03  0.56263532941E+02 -0.62279517470E+02  0.14999436456E+03  0.17770000000E+01 0. -1.
         15    1    3    3    0    0  0.22966212271E+03  0.23934450848E+02 -0.73516839682E+01  0.23102976763E+03  0.17770000000E+01 0.  1.
</event>
<event>
 7    1  0.3234965E-006  0.5145348E+03  0.7546771E-02  0.9367862E-01
        -11   -1    0    0    0    0  0.00000000000E+00  0.00000000000E+00  0.50000000000E+03  0.50000000000E+03  0.00000000000E+00 0.  1.
         11   -1    0    0    0    0 -0.00000000000E+00 -0.00000000000E+00 -0.50000000000E+03  0.50000000000E+03  0.00000000000E+00 0. -1.
         23    2    1    2    0    0  0.57732681382E+02 -0.43369645866E+01 -0.34093332042E+03  0.35852574994E+03  0.94621945844E+02 0.  0.
        -11    1    1    2    0    0 -0.53602506569E+02 -0.71591708319E+02  0.47715597752E+03  0.48546516692E+03  0.00000000000E+00 0.  1.
         11    1    1    2    0    0 -0.41301748133E+01  0.75928672906E+02 -0.13622265710E+03  0.15600908314E+03  0.00000000000E+00 0. -1.
        -15    1    3    3    0    0  0.77420387204E+02 -0.60498245372E+01 -0.32150730753E+03  0.33075765034E+03  0.17770000000E+01 0. -1.
         15    1    3    3    0    0 -0.19687705822E+02  0.17128599506E+01 -0.19426012891E+02  0.27768099603E+02  0.17770000000E+01 0.  1.
</event>
<event>
 7    1  0.3234965E-006  0.5119869E+03  0.7546771E-02  0.9373380E-01
        -11   -1    0    0    0    0  0.00000000000E+00  0.00000000000E+00  0.50000000000E+03  0.50000000000E+03  0.00000000000E+00 0.  1.
         11   -1    0    0    0    0 -0.00000000000E+00 -0.00000000000E+00 -0.50000000000E+03  0.50000000000E+03  0.00000000000E+00 0. -1.
         23    2    1    2    0    0  0.22788308984E+02  0.29158322650E+02  0.18136572344E+03  0.20673036920E+03  0.92056532105E+02 0.  0.
        -11    1    1    2    0    0  0.97426837411E+02  0.49991044138E+02  0.28493940304E+03  0.30525654218E+03  0.00000000000E+00 0.  1.
         11    1    1    2    0    0 -0.12021514639E+03 -0.79149366788E+02 -0.46630512648E+03  0.48801308862E+03  0.00000000000E+00 0. -1.
        -15    1    3    3    0    0  0.28416253470E+01  0.60603665256E+02  0.95988062917E+02  0.11356823952E+03  0.17770000000E+01 0. -1.
         15    1    3    3    0    0  0.19946683637E+02 -0.31445342607E+02  0.85377660523E+02  0.93162129673E+02  0.17770000000E+01 0.  1.
</event>
<event>
 7    1  0.3234965E-006  0.5220555E+03  0.7546771E-02  0.9351768E-01
        -11   -1    0    0    0    0  0.00000000000E+00  0.00000000000E+00  0.50000000000E+03  0.50000000000E+03  0.00000000000E+00 0.  1.
         11   -1    0    0    0    0 -0.00000000000E+00 -0.00000000000E+00 -0.50000000000E+03  0.50000000000E+03  0.00000000000E+00 0. -1.
         23    2    1    2    0    0 -0.20719477765E+02  0.10157399027E+03 -0.36677504903E+03  0.39175239068E+03  0.90550686120E+02 0.  0.
        -11    1    1    2    0    0  0.11109026442E+03 -0.16745496377E+03  0.43364589668E+03  0.47794453177E+03  0.00000000000E+00 0.  1.
         11    1    1    2    0    0 -0.90370786658E+02  0.65880973505E+02 -0.66870847653E+02  0.13030307754E+03  0.00000000000E+00 0. -1.
        -15    1    3    3    0    0  0.86975990654E+01  0.41799294672E+02 -0.40963435670E+02  0.59194510349E+02  0.17770000000E+01 0.  1.
         15    1    3    3    0    0 -0.29417076831E+02  0.59774695597E+02 -0.32581161336E+03  0.33255788033E+03  0.17770000000E+01 0. -1.
</event>
<event>
 7    1  0.3234965E-006  0.4186269E+03  0.7546771E-02  0.9602911E-01
        -11   -1    0    0    0    0  0.00000000000E+00  0.00000000000E+00  0.50000000000E+03  0.50000000000E+03  0.00000000000E+00 0.  1.
         11   -1    0    0    0    0 -0.00000000000E+00 -0.00000000000E+00 -0.50000000000E+03  0.50000000000E+03  0.00000000000E+00 0. -1.
         23    2    1    2    0    0 -0.10455921210E+03  0.59144202762E+02 -0.30030645701E+02  0.15363929846E+03  0.90953443011E+02 0.  0.
        -11    1    1    2    0    0 -0.10017834963E+03 -0.17598054969E+03  0.37638413397E+03  0.42739896106E+03  0.00000000000E+00 0.  1.
         11    1    1    2    0    0  0.20473756173E+03  0.11683634693E+03 -0.34635348827E+03  0.41896174048E+03  0.00000000000E+00 0. -1.
        -15    1    3    3    0    0 -0.51201353254E+02  0.42355939902E+02  0.28797200507E+02  0.72443362056E+02  0.17770000000E+01 0. -1.
         15    1    3    3    0    0 -0.53357858844E+02  0.16788262860E+02 -0.58827846208E+02  0.81195936405E+02  0.17770000000E+01 0.  1.
</event>
<event>
 7    1  0.3234965E-006  0.5068180E+03  0.7546771E-02  0.9384682E-01
        -11   -1    0    0    0    0  0.00000000000E+00  0.00000000000E+00  0.50000000000E+03  0.50000000000E+03  0.00000000000E+00 0.  1.
         11   -1    0    0    0    0 -0.00000000000E+00 -0.00000000000E+00 -0.50000000000E+03  0.50000000000E+03  0.00000000000E+00 0. -1.
         23    2    1    2    0    0  0.16669664252E+02  0.69736784507E+02 -0.32923027317E+03  0.34898655379E+03  0.90873236619E+02 0.  0.
        -11    1    1    2    0    0 -0.43823772046E+01 -0.11998563322E+03  0.47834376204E+03  0.49318202734E+03  0.00000000000E+00 0.  1.
         11    1    1    2    0    0 -0.12287287047E+02  0.50248848715E+02 -0.14911348887E+03  0.15783141887E+03  0.00000000000E+00 0. -1.
        -15    1    3    3    0    0 -0.31484504402E+02  0.25773241611E+02 -0.20138988190E+03  0.20546672787E+03  0.17770000000E+01 0.  1.
         15    1    3    3    0    0  0.48154168654E+02  0.43963542896E+02 -0.12784039127E+03  0.14351982592E+03  0.17770000000E+01 0. -1.
</event>
<event>
 7    1  0.3234965E-006  0.3455366E+03  0.7546771E-02  0.9832603E-01
        -11   -1    0    0    0    0  0.00000000000E+00  0.00000000000E+00  0.50000000000E+03  0.50000000000E+03  0.00000000000E+00 0. -1.
         11   -1    0    0    0    0 -0.00000000000E+00 -0.00000000000E+00 -0.50000000000E+03  0.50000000000E+03  0.00000000000E+00 0.  1.
         23    2    1    2    0    0 -0.11374163576E+03  0.22122481103E+03 -0.22583119795E+02  0.26517373556E+03  0.89047942186E+02 0.  0.
        -11    1    1    2    0    0  0.83560286232E+02  0.57355898407E+02  0.31435582785E+03  0.33029018608E+03  0.00000000000E+00 0. -1.
         11    1    1    2    0    0  0.30181349527E+02 -0.27858070944E+03 -0.29177270806E+03  0.40453607836E+03  0.00000000000E+00 0.  1.
        -15    1    3    3    0    0 -0.29505632040E+02  0.12915975520E+03 -0.41728514744E+02  0.13891454696E+03  0.17770000000E+01 0.  1.
         15    1    3    3    0    0 -0.84236003719E+02  0.92065055829E+02  0.19145394949E+02  0.12625918859E+03  0.17770000000E+01 0. -1.
</event>
<event>
 7    1  0.3234965E-006  0.5168215E+03  0.7546771E-02  0.9362937E-01
        -11   -1    0    0    0    0  0.00000000000E+00  0.00000000000E+00  0.50000000000E+03  0.50000000000E+03  0.00000000000E+00 0.  1.
         11   -1    0    0    0    0 -0.00000000000E+00 -0.00000000000E+00 -0.50000000000E+03  0.50000000000E+03  0.00000000000E+00 0.  1.
         23    2    1    2    0    0  0.85273844023E+02  0.70142821190E+02  0.20719714430E+03  0.25181114741E+03  0.91030508701E+02 0.  0.
        -11    1    1    2    0    0 -0.28882177258E+02  0.34151670055E+02  0.26120872122E+03  0.26501040125E+03  0.00000000000E+00 0.  1.
         11    1    1    2    0    0 -0.56391666765E+02 -0.10429449125E+03 -0.46840586552E+03  0.48317845134E+03  0.00000000000E+00 0.  1.
        -15    1    3    3    0    0  0.38924914580E+02  0.18430314046E+02  0.12181371402E+02  0.44792510414E+02  0.17770000000E+01 0.  1.
         15    1    3    3    0    0  0.46348929442E+02  0.51712507144E+02  0.19501577290E+03  0.20701863699E+03  0.17770000000E+01 0. -1.
</event>
<event>
 7    1  0.3234965E-006  0.5142139E+03  0.7546771E-02  0.9368555E-01
        -11   -1    0    0    0    0  0.00000000000E+00  0.00000000000E+00  0.50000000000E+03  0.50000000000E+03  0.00000000000E+00 0.  1.
         11   -1    0    0    0    0 -0.00000000000E+00 -0.00000000000E+00 -0.50000000000E+03  0.50000000000E+03  0.00000000000E+00 0. -1.
         23    2    1    2    0    0 -0.94863957001E+02  0.50887735131E+02  0.18906027829E+03  0.23860126597E+03  0.97969604317E+02 0.  0.
        -11    1    1    2    0    0 -0.40652681147E+02  0.22037529959E+02  0.27170573789E+03  0.27561259263E+03  0.00000000000E+00 0.  1.
         11    1    1    2    0    0  0.13551663815E+03 -0.72925265090E+02 -0.46076601619E+03  0.48578614140E+03  0.00000000000E+00 0. -1.
        -15    1    3    3    0    0  0.10202623002E+02 -0.15814162050E+02  0.12813131651E+02  0.22836709684E+02  0.17770000000E+01 0.  1.
         15    1    3    3    0    0 -0.10506658000E+03  0.66701897182E+02  0.17624714664E+03  0.21576455629E+03  0.17770000000E+01 0. -1.
</event>
<event>
 7    1  0.3234965E-006  0.5229738E+03  0.7546771E-02  0.9349822E-01
        -11   -1    0    0    0    0  0.00000000000E+00  0.00000000000E+00  0.50000000000E+03  0.50000000000E+03  0.00000000000E+00 0.  1.
         11   -1    0    0    0    0 -0.00000000000E+00 -0.00000000000E+00 -0.50000000000E+03  0.50000000000E+03  0.00000000000E+00 0. -1.
         23    2    1    2    0    0 -0.16233824003E+03 -0.59450196826E+02  0.93690505719E+02  0.21629970587E+03  0.90108944172E+02 0.  0.
        -11    1    1    2    0    0 -0.20617165124E+03  0.92260417958E+02  0.20743733161E+03  0.30667406320E+03  0.00000000000E+00 0.  1.
         11    1    1    2    0    0  0.36850989127E+03 -0.32810221133E+02 -0.30112783733E+03  0.47702623092E+03  0.00000000000E+00 0. -1.
        -15    1    3    3    0    0 -0.91944237258E+02 -0.77880664610E+02  0.71863178952E+02  0.14030899794E+03  0.17770000000E+01 0. -1.
         15    1    3    3    0    0 -0.70394002776E+02  0.18430467784E+02  0.21827326768E+02  0.75990707934E+02  0.17770000000E+01 0.  1.
</event>
<event>
 6    1  0.3234965E-006  0.4685056E+03  0.7546771E-02  0.9473176E-01
        -11   -1    0    0    0    0  0.00000000000E+00  0.00000000000E+00  0.50000000000E+03  0.50000000000E+03  0.00000000000E+00 0.  1.
         11   -1    0    0    0    0 -0.00000000000E+00 -0.00000000000E+00 -0.50000000000E+03  0.50000000000E+03  0.00000000000E+00 0.  1.
        -11    1    1    2    0    0  0.31491506273E+02  0.66816082522E+00  0.92478568751E+02  0.97695686109E+02  0.00000000000E+00 0.  1.
         11    1    1    2    0    0  0.36005519315E+03  0.18915500471E+03  0.42405446523E+02  0.40892246186E+03  0.00000000000E+00 0.  1.
        -15    1    1    2    0    0 -0.50230187888E+02 -0.55246545049E+02  0.42417669340E+02  0.85893357813E+02  0.17770000000E+01 0. -1.
         15    1    1    2    0    0 -0.34131651153E+03 -0.13457662048E+03 -0.17730168461E+03  0.40748849422E+03  0.17770000000E+01 0.  1.
</event>
<event>
 7    1  0.3234965E-006  0.4738404E+03  0.7546771E-02  0.9460325E-01
        -11   -1    0    0    0    0  0.00000000000E+00  0.00000000000E+00  0.50000000000E+03  0.50000000000E+03  0.00000000000E+00 0.  1.
         11   -1    0    0    0    0 -0.00000000000E+00 -0.00000000000E+00 -0.50000000000E+03  0.50000000000E+03  0.00000000000E+00 0.  1.
         23    2    1    2    0    0  0.44375000592E+02 -0.33953519295E+02 -0.44789194639E+03  0.46038869053E+03  0.90711457801E+02 0.  0.
        -11    1    1    2    0    0 -0.64099508702E+02  0.85934903236E+02  0.46827829777E+03  0.48039371226E+03  0.00000000000E+00 0.  1.
         11    1    1    2    0    0  0.19724508110E+02 -0.51981383941E+02 -0.20386351379E+02  0.59217597209E+02  0.00000000000E+00 0.  1.
        -15    1    3    3    0    0  0.50786679133E+02  0.16002227799E+02 -0.28283836297E+03  0.28781253511E+03  0.17770000000E+01 0. -1.
         15    1    3    3    0    0 -0.64116785406E+01 -0.49955747094E+02 -0.16505358343E+03  0.17257615542E+03  0.17770000000E+01 0.  1.
</event>
<event>
 7    1  0.3234965E-006  0.5253616E+03  0.7546771E-02  0.9344783E-01
        -11   -1    0    0    0    0  0.00000000000E+00  0.00000000000E+00  0.50000000000E+03  0.50000000000E+03  0.00000000000E+00 0. -1.
         11   -1    0    0    0    0 -0.00000000000E+00 -0.00000000000E+00 -0.50000000000E+03  0.50000000000E+03  0.00000000000E+00 0.  1.
         23    2    1    2    0    0 -0.61829835000E+01  0.41439049712E+01  0.12072177150E+03  0.17024820898E+03  0.11981362741E+03 0.  0.
        -11    1    1    2    0    0 -0.69658200540E+02  0.47353863018E+02  0.34497952534E+03  0.35511339900E+03  0.00000000000E+00 0. -1.
         11    1    1    2    0    0  0.75841184040E+02 -0.51497767989E+02 -0.46570129684E+03  0.47463839202E+03  0.00000000000E+00 0.  1.
        -15    1    3    3    0    0 -0.12336112182E+02 -0.19199132613E+02  0.13839631888E+03  0.14027645977E+03  0.17770000000E+01 0. -1.
         15    1    3    3    0    0  0.61531286824E+01  0.23343037584E+02 -0.17674547387E+02  0.29971749207E+02  0.17770000000E+01 0.  1.
</event>
<event>
 7    1  0.3234965E-006  0.3295065E+03  0.7546771E-02  0.9891206E-01
        -11   -1    0    0    0    0  0.00000000000E+00  0.00000000000E+00  0.50000000000E+03  0.50000000000E+03  0.00000000000E+00 0.  1.
         11   -1    0    0    0    0 -0.00000000000E+00 -0.00000000000E+00 -0.50000000000E+03  0.50000000000E+03  0.00000000000E+00 0. -1.
         23    2    1    2    0    0  0.85501776991E+02  0.23229004085E+03 -0.11499521147E+03  0.28670399931E+03  0.87784210488E+02 0.  0.
        -11    1    1    2    0    0 -0.21164305688E+03  0.98987369187E+02  0.24234503197E+03  0.33663392180E+03  0.00000000000E+00 0.  1.
         11    1    1    2    0    0  0.12614127989E+03 -0.33127741004E+03 -0.12734982051E+03  0.37666207889E+03  0.00000000000E+00 0. -1.
        -15    1    3    3    0    0  0.44590861945E+02  0.60654643294E+02 -0.73946678050E+02  0.10553956436E+03  0.17770000000E+01 0. -1.
         15    1    3    3    0    0  0.40910915046E+02  0.17163539756E+03 -0.41048533419E+02  0.18116443494E+03  0.17770000000E+01 0.  1.
</event>
<event>
 6    1  0.3234965E-006  0.5013984E+03  0.7546771E-02  0.9396686E-01
        -11   -1    0    0    0    0  0.00000000000E+00  0.00000000000E+00  0.50000000000E+03  0.50000000000E+03  0.00000000000E+00 0.  1.
         11   -1    0    0    0    0 -0.00000000000E+00 -0.00000000000E+00 -0.50000000000E+03  0.50000000000E+03  0.00000000000E+00 0. -1.
        -11    1    1    2    0    0 -0.26441157082E+02 -0.25517899539E+02  0.19193914975E+02  0.41457259398E+02  0.00000000000E+00 0.  1.
         11    1    1    2    0    0 -0.10884904405E+03  0.36634739033E+03 -0.27008446733E+03  0.46797878615E+03  0.00000000000E+00 0. -1.
        -15    1    1    2    0    0  0.15956162122E+03 -0.13851131306E+03  0.17046731812E+03  0.27149136098E+03  0.17770000000E+01 0.  1.
         15    1    1    2    0    0 -0.24271420088E+02 -0.20231817773E+03  0.80423234241E+02  0.21907259347E+03  0.17770000000E+01 0. -1.
</event>
<event>
 7    1  0.3234965E-006  0.5442414E+03  0.7546771E-02  0.9305918E-01
        -11   -1    0    0    0    0  0.00000000000E+00  0.00000000000E+00  0.50000000000E+03  0.50000000000E+03  0.00000000000E+00 0. -1.
         11   -1    0    0    0    0 -0.00000000000E+00 -0.00000000000E+00 -0.50000000000E+03  0.50000000000E+03  0.00000000000E+00 0.  1.
         23    2    1    2    0    0  0.15048587340E+01  0.91350466141E+02 -0.20144927327E+03  0.24158563740E+03  0.97132065924E+02 0.  0.
        -11    1    1    2    0    0  0.17937079950E+03  0.16880558382E+02  0.41863712899E+03  0.45575857944E+03  0.00000000000E+00 0. -1.
         11    1    1    2    0    0 -0.18087565824E+03 -0.10823102452E+03 -0.21718785572E+03  0.30265578316E+03  0.00000000000E+00 0.  1.
        -15    1    3    3    0    0 -0.42638378306E+01  0.52140627781E+02 -0.20300243385E+02  0.56143414475E+02  0.17770000000E+01 0. -1.
         15    1    3    3    0    0  0.57686965646E+01  0.39209838361E+02 -0.18114902989E+03  0.18544222292E+03  0.17770000000E+01 0.  1.
</event>
<event>
 7    1  0.3234965E-006  0.4706931E+03  0.7546771E-02  0.9467885E-01
        -11   -1    0    0    0    0  0.00000000000E+00  0.00000000000E+00  0.50000000000E+03  0.50000000000E+03  0.00000000000E+00 0.  1.
         11   -1    0    0    0    0 -0.00000000000E+00 -0.00000000000E+00 -0.50000000000E+03  0.50000000000E+03  0.00000000000E+00 0.  1.
         23    2    1    2    0    0 -0.12468051659E+02 -0.12298254759E+03 -0.43789234089E+03  0.46418362681E+03  0.91850845743E+02 0.  0.
        -11    1    1    2    0    0 -0.41735905051E+02  0.93295102546E+02  0.45920644909E+03  0.47044279654E+03  0.00000000000E+00 0.  1.
         11    1    1    2    0    0  0.54203956710E+02  0.29687445040E+02 -0.21314108193E+02  0.65373576650E+02  0.00000000000E+00 0.  1.
        -15    1    3    3    0    0 -0.48067788245E+02 -0.90306921590E+02 -0.33896297513E+03  0.35406907320E+03  0.17770000000E+01 0.  1.
         15    1    3    3    0    0  0.35599736586E+02 -0.32675625996E+02 -0.98929365762E+02  0.11011455362E+03  0.17770000000E+01 0. -1.
</event>
<event>
 7    1  0.3234965E-006  0.4072039E+03  0.7546771E-02  0.9635352E-01
        -11   -1    0    0    0    0  0.00000000000E+00  0.00000000000E+00  0.50000000000E+03  0.50000000000E+03  0.00000000000E+00 0.  1.
         11   -1    0    0    0    0 -0.00000000000E+00 -0.00000000000E+00 -0.50000000000E+03  0.50000000000E+03  0.00000000000E+00 0. -1.
         23    2    1    2    0    0 -0.13934793500E+03  0.75952880759E-01 -0.43335655591E+02  0.17262107192E+03  0.92207389437E+02 0.  0.
        -11    1    1    2    0    0  0.35016434552E+02  0.88196469171E+02  0.41796432156E+03  0.42860114554E+03  0.00000000000E+00 0.  1.
         11    1    1    2    0    0  0.10433150045E+03 -0.88272422052E+02 -0.37462866597E+03  0.39877778254E+03  0.00000000000E+00 0. -1.
        -15    1    3    3    0    0 -0.84917293149E+02 -0.38006943886E+02  0.42459889998E+00  0.93052740274E+02  0.17770000000E+01 0.  1.
         15    1    3    3    0    0 -0.54430641856E+02  0.38082896767E+02 -0.43760254491E+02  0.79568331647E+02  0.17770000000E+01 0. -1.
</event>
<event>
 7    1  0.3234965E-006  0.5210109E+03  0.7546771E-02  0.9353986E-01
        -11   -1    0    0    0    0  0.00000000000E+00  0.00000000000E+00  0.50000000000E+03  0.50000000000E+03  0.00000000000E+00 0.  1.
         11   -1    0    0    0    0 -0.00000000000E+00 -0.00000000000E+00 -0.50000000000E+03  0.50000000000E+03  0.00000000000E+00 0. -1.
         23    2    1    2    0    0  0.28636724283E+02 -0.94814424065E+01 -0.15374136289E+03  0.18035532068E+03  0.89340222218E+02 0.  0.
        -11    1    1    2    0    0  0.81247847020E+02 -0.64142825217E+02  0.46766980720E+03  0.47898910555E+03  0.00000000000E+00 0.  1.
         11    1    1    2    0    0 -0.10988457130E+03  0.73624267623E+02 -0.31392844431E+03  0.34065557377E+03  0.00000000000E+00 0. -1.
        -15    1    3    3    0    0  0.22504902505E+02  0.38077644834E+02 -0.92560514209E+02  0.10260109255E+03  0.17770000000E+01 0. -1.
         15    1    3    3    0    0  0.61318217781E+01 -0.47559087240E+02 -0.61180848680E+02  0.77754228127E+02  0.17770000000E+01 0.  1.
</event>
<event>
 7    1  0.3234965E-006  0.5197950E+03  0.7546771E-02  0.9356575E-01
        -11   -1    0    0    0    0  0.00000000000E+00  0.00000000000E+00  0.50000000000E+03  0.50000000000E+03  0.00000000000E+00 0. -1.
         11   -1    0    0    0    0 -0.00000000000E+00 -0.00000000000E+00 -0.50000000000E+03  0.50000000000E+03  0.00000000000E+00 0.  1.
         23    2    1    2    0    0  0.41915214483E+02  0.19034978131E+02  0.35694172799E+03  0.37197084334E+03  0.93998380385E+02 0.  0.
        -11    1    1    2    0    0  0.47687253139E+02 -0.86499064078E+02  0.10998099933E+03  0.14782416045E+03  0.00000000000E+00 0. -1.
         11    1    1    2    0    0 -0.89602467622E+02  0.67464085947E+02 -0.46692272732E+03  0.48020499621E+03  0.00000000000E+00 0.  1.
        -15    1    3    3    0    0  0.70720276726E+02  0.38437756988E+01  0.21671848184E+03  0.22800480313E+03  0.17770000000E+01 0. -1.
         15    1    3    3    0    0 -0.28805062243E+02  0.15191202432E+02  0.14022324616E+03  0.14396604021E+03  0.17770000000E+01 0.  1.
</event>
<event>
 7    1  0.3234965E-006  0.5226865E+03  0.7546771E-02  0.9350430E-01
        -11   -1    0    0    0    0  0.00000000000E+00  0.00000000000E+00  0.50000000000E+03  0.50000000000E+03  0.00000000000E+00 0. -1.
         11   -1    0    0    0    0 -0.00000000000E+00 -0.00000000000E+00 -0.50000000000E+03  0.50000000000E+03  0.00000000000E+00 0.  1.
         23    2    1    2    0    0  0.16213864537E+03  0.21367071255E+03 -0.38440480300E+03  0.47731352691E+03  0.90094598507E+02 0.  0.
        -11    1    1    2    0    0 -0.14295774639E+02  0.23878753531E+02  0.16443498689E+03  0.16677358591E+03  0.00000000000E+00 0. -1.
         11    1    1    2    0    0 -0.14784287073E+03 -0.23754946608E+03  0.21996981610E+03  0.35591288718E+03  0.00000000000E+00 0.  1.
        -15    1    3    3    0    0  0.15493812328E+03  0.14109783596E+03 -0.27327830010E+03  0.34438148672E+03  0.17770000000E+01 0.  1.
         15    1    3    3    0    0  0.72005220888E+01  0.72572876591E+02 -0.11112650290E+03  0.13293204019E+03  0.17770000000E+01 0. -1.
</event>
<event>
 7    1  0.3234965E-006  0.5152964E+03  0.7546771E-02  0.9366219E-01
        -11   -1    0    0    0    0  0.00000000000E+00  0.00000000000E+00  0.50000000000E+03  0.50000000000E+03  0.00000000000E+00 0.  1.
         11   -1    0    0    0    0 -0.00000000000E+00 -0.00000000000E+00 -0.50000000000E+03  0.50000000000E+03  0.00000000000E+00 0. -1.
         23    2    1    2    0    0  0.21854936743E+02  0.61309612309E+02  0.19509186924E+03  0.22580688214E+03  0.93227698448E+02 0.  0.
        -11    1    1    2    0    0  0.14047924802E+03  0.10578841286E+03  0.22995338377E+03  0.28948949226E+03  0.00000000000E+00 0.  1.
         11    1    1    2    0    0 -0.16233418477E+03 -0.16709802517E+03 -0.42504525301E+03  0.48470362560E+03  0.00000000000E+00 0. -1.
        -15    1    3    3    0    0 -0.11187434408E+02  0.47519074632E+02  0.31026719983E+02  0.57870858162E+02  0.17770000000E+01 0.  1.
         15    1    3    3    0    0  0.33042371151E+02  0.13790537676E+02  0.16406514926E+03  0.16793602398E+03  0.17770000000E+01 0. -1.
</event>
<event>
 7    1  0.3234965E-006  0.5385648E+03  0.7546771E-02  0.9317426E-01
        -11   -1    0    0    0    0  0.00000000000E+00  0.00000000000E+00  0.50000000000E+03  0.50000000000E+03  0.00000000000E+00 0.  1.
         11   -1    0    0    0    0 -0.00000000000E+00 -0.00000000000E+00 -0.50000000000E+03  0.50000000000E+03  0.00000000000E+00 0. -1.
         23    2    1    2    0    0  0.15372819381E+03 -0.18152011164E+02  0.16017799235E+03  0.24015600993E+03  0.89755594745E+02 0.  0.
        -11    1    1    2    0    0 -0.64054894991E+02 -0.27413272969E+02  0.29016075482E+03  0.29840874777E+03  0.00000000000E+00 0.  1.
         11    1    1    2    0    0 -0.89673298823E+02  0.45565284132E+02 -0.45033874717E+03  0.46143524231E+03  0.00000000000E+00 0. -1.
        -15    1    3    3    0    0  0.21887193512E+02  0.17029277765E+01  0.83468806286E+02  0.86325827854E+02  0.17770000000E+01 0.  1.
         15    1    3    3    0    0  0.13184100030E+03 -0.19854938940E+02  0.76709186065E+02  0.15383018207E+03  0.17770000000E+01 0. -1.
</event>
<event>
 7    1  0.3234965E-006  0.3545320E+03  0.7546771E-02  0.9801191E-01
        -11   -1    0    0    0    0  0.00000000000E+00  0.00000000000E+00  0.50000000000E+03  0.50000000000E+03  0.00000000000E+00 0.  1.
         11   -1    0    0    0    0 -0.00000000000E+00 -0.00000000000E+00 -0.50000000000E+03  0.50000000000E+03  0.00000000000E+00 0. -1.
         23    2    1    2    0    0 -0.15532589051E+03 -0.33770316949E+02 -0.32908138889E+03  0.37672984005E+03  0.91456248010E+02 0.  0.
        -11    1    1    2    0    0 -0.10048991554E+03  0.22263389000E+02  0.35145850847E+03  0.36621983123E+03  0.00000000000E+00 0.  1.
         11    1    1    2    0    0  0.25581580605E+03  0.11506927949E+02 -0.22377119573E+02  0.25705032872E+03  0.00000000000E+00 0. -1.
        -15    1    3    3    0    0 -0.65929600190E+02 -0.47804492522E+02 -0.91565913012E+02  0.12255388954E+03  0.17770000000E+01 0. -1.
         15    1    3    3    0    0 -0.89396290319E+02  0.14034175573E+02 -0.23751547588E+03  0.25417595051E+03  0.17770000000E+01 0.  1.
</event>
<event>
 7    1  0.3234965E-006  0.4718586E+03  0.7546771E-02  0.9465078E-01
        -11   -1    0    0    0    0  0.00000000000E+00  0.00000000000E+00  0.50000000000E+03  0.50000000000E+03  0.00000000000E+00 0. -1.
         11   -1    0    0    0    0 -0.00000000000E+00 -0.00000000000E+00 -0.50000000000E+03  0.50000000000E+03  0.00000000000E+00 0.  1.
         23    2    1    2    0    0  0.86262858248E+02 -0.69468000188E+02  0.43549989916E+03  0.45805433469E+03  0.88806123629E+02 0.  0.
        -11    1    1    2    0    0  0.24687956161E+02  0.48893746173E+02  0.30352829865E+02  0.62620985900E+02  0.00000000000E+00 0. -1.
         11    1    1    2    0    0 -0.11095081441E+03  0.20574254015E+02 -0.46585272903E+03  0.47932467941E+03  0.00000000000E+00 0.  1.
        -15    1    3    3    0    0  0.84371194082E+02 -0.16741039774E+02  0.22105522268E+03  0.23720735656E+03  0.17770000000E+01 0.  1.
         15    1    3    3    0    0  0.18916641661E+01 -0.52726960414E+02  0.21444467648E+03  0.22084697813E+03  0.17770000000E+01 0. -1.
</event>
<event>
 7    1  0.3234965E-006  0.5158796E+03  0.7546771E-02  0.9364962E-01
        -11   -1    0    0    0    0  0.00000000000E+00  0.00000000000E+00  0.50000000000E+03  0.50000000000E+03  0.00000000000E+00 0.  1.
         11   -1    0    0    0    0 -0.00000000000E+00 -0.00000000000E+00 -0.50000000000E+03  0.50000000000E+03  0.00000000000E+00 0. -1.
         23    2    1    2    0    0 -0.52323582382E+02  0.11553994360E+03 -0.37389164483E+03  0.40681239816E+03  0.98051666906E+02 0.  0.
        -11    1    1    2    0    0  0.12941912975E+03 -0.11948560562E+03  0.45093947942E+03  0.48412037263E+03  0.00000000000E+00 0.  1.
         11    1    1    2    0    0 -0.77095547371E+02  0.39456620212E+01 -0.77047834591E+02  0.10906722921E+03  0.00000000000E+00 0. -1.
        -15    1    3    3    0    0 -0.26951325152E+02  0.30661592318E+02 -0.27466309397E+02  0.49234774823E+02  0.17770000000E+01 0.  1.
         15    1    3    3    0    0 -0.25372257230E+02  0.84878351282E+02 -0.34642533543E+03  0.35757762333E+03  0.17770000000E+01 0. -1.
</event>
<event>
 7    1  0.3234965E-006  0.5099424E+03  0.7546771E-02  0.9377834E-01
        -11   -1    0    0    0    0  0.00000000000E+00  0.00000000000E+00  0.50000000000E+03  0.50000000000E+03  0.00000000000E+00 0. -1.
         11   -1    0    0    0    0 -0.00000000000E+00 -0.00000000000E+00 -0.50000000000E+03  0.50000000000E+03  0.00000000000E+00 0.  1.
         23    2    1    2    0    0 -0.13992026349E+03  0.24801997084E+02  0.28741797144E+03  0.33632008181E+03  0.10153466367E+03 0.  0.
        -11    1    1    2    0    0 -0.31398303917E+02  0.69935908445E+01  0.17061636044E+03  0.17362230920E+03  0.00000000000E+00 0. -1.
         11    1    1    2    0    0  0.17131856741E+03 -0.31795587928E+02 -0.45803433188E+03  0.49005760899E+03  0.00000000000E+00 0.  1.
        -15    1    3    3    0    0 -0.13852901433E+03 -0.10802223682E+02  0.22710535886E+03  0.26624608467E+03  0.17770000000E+01 0. -1.
         15    1    3    3    0    0 -0.13912491591E+01  0.35604220765E+02  0.60312612580E+02  0.70073997144E+02  0.17770000000E+01 0.  1.
</event>
<event>
 7    1  0.3234965E-006  0.5328388E+03  0.7546771E-02  0.9329187E-01
        -11   -1    0    0    0    0  0.00000000000E+00  0.00000000000E+00  0.50000000000E+03  0.50000000000E+03  0.00000000000E+00 0. -1.
         11   -1    0    0    0    0 -0.00000000000E+00 -0.00000000000E+00 -0.50000000000E+03  0.50000000000E+03  0.00000000000E+00 0.  1.
         23    2    1    2    0    0  0.52057772462E+02 -0.19389140378E+02 -0.14804479597E+03  0.18259774945E+03  0.91316625272E+02 0.  0.
        -11    1    1    2    0    0  0.10543852684E+03  0.17048136798E+03  0.42196968254E+03  0.46716120639E+03  0.00000000000E+00 0. -1.
         11    1    1    2    0    0 -0.15749629930E+03 -0.15109222760E+03 -0.27392488657E+03  0.35024104416E+03  0.00000000000E+00 0.  1.
        -15    1    3    3    0    0  0.24483486253E+02 -0.53452940582E+02 -0.10907957605E+03  0.12392808236E+03  0.17770000000E+01 0.  1.
         15    1    3    3    0    0  0.27574286208E+02  0.34063800204E+02 -0.38965219922E+02  0.58669667093E+02  0.17770000000E+01 0. -1.
</event>
<event>
 7    1  0.3234965E-006  0.5119780E+03  0.7546771E-02  0.9373400E-01
        -11   -1    0    0    0    0  0.00000000000E+00  0.00000000000E+00  0.50000000000E+03  0.50000000000E+03  0.00000000000E+00 0.  1.
         11   -1    0    0    0    0 -0.00000000000E+00 -0.00000000000E+00 -0.50000000000E+03  0.50000000000E+03  0.00000000000E+00 0.  1.
         23    2    1    2    0    0  0.14368392918E+03  0.98952574415E+02  0.95064629279E+02  0.21842333421E+03  0.90745719994E+02 0.  0.
        -11    1    1    2    0    0  0.25824926388E+03  0.10103941003E+03  0.96294757514E+02  0.29355463716E+03  0.00000000000E+00 0.  1.
         11    1    1    2    0    0 -0.40193319306E+03 -0.19999198444E+03 -0.19135938679E+03  0.48802202864E+03  0.00000000000E+00 0.  1.
        -15    1    3    3    0    0  0.10055534777E+03  0.66341324458E+02  0.10909497615E+03  0.16253436820E+03  0.17770000000E+01 0.  1.
         15    1    3    3    0    0  0.43128581415E+02  0.32611249957E+02 -0.14030346876E+02  0.55888966005E+02  0.17770000000E+01 0. -1.
</event>
<event>
 7    1  0.3234965E-006  0.5347216E+03  0.7546771E-02  0.9325302E-01
        -11   -1    0    0    0    0  0.00000000000E+00  0.00000000000E+00  0.50000000000E+03  0.50000000000E+03  0.00000000000E+00 0.  1.
         11   -1    0    0    0    0 -0.00000000000E+00 -0.00000000000E+00 -0.50000000000E+03  0.50000000000E+03  0.00000000000E+00 0. -1.
         23    2    1    2    0    0  0.11134887641E+03 -0.54013511856E+02  0.88989384514E+02  0.17830849373E+03  0.92513656506E+02 0.  0.
        -11    1    1    2    0    0  0.84872395833E+02  0.10527999847E+03  0.32976222906E+03  0.35641314421E+03  0.00000000000E+00 0.  1.
         11    1    1    2    0    0 -0.19622127224E+03 -0.51266486618E+02 -0.41875161357E+03  0.46527836206E+03  0.00000000000E+00 0. -1.
        -15    1    3    3    0    0  0.69722436343E+02 -0.54447303756E+02  0.10164601779E+03  0.13476200383E+03  0.17770000000E+01 0.  1.
         15    1    3    3    0    0  0.41626440062E+02  0.43379189965E+00 -0.12656633272E+02  0.43546489898E+02  0.17770000000E+01 0. -1.
</event>
<event>
 7    1  0.3234965E-006  0.3424322E+03  0.7546771E-02  0.9843682E-01
        -11   -1    0    0    0    0  0.00000000000E+00  0.00000000000E+00  0.50000000000E+03  0.50000000000E+03  0.00000000000E+00 0. -1.
         11   -1    0    0    0    0 -0.00000000000E+00 -0.00000000000E+00 -0.50000000000E+03  0.50000000000E+03  0.00000000000E+00 0.  1.
         23    2    1    2    0    0  0.60254937589E+02 -0.44135787530E+02  0.24236371231E+03  0.26968636936E+03  0.91716648060E+02 0.  0.
        -11    1    1    2    0    0  0.22409820784E+03 -0.18733514937E+03 -0.23653668557E+01  0.29209597722E+03  0.00000000000E+00 0. -1.
         11    1    1    2    0    0 -0.28435314543E+03  0.23147093690E+03 -0.23999834546E+03  0.43821765342E+03  0.00000000000E+00 0.  1.
        -15    1    3    3    0    0 -0.19805343517E+02 -0.31044860834E+02  0.67456689727E+02  0.76873908018E+02  0.17770000000E+01 0.  1.
         15    1    3    3    0    0  0.80060281106E+02 -0.13090926695E+02  0.17490702258E+03  0.19281246135E+03  0.17770000000E+01 0. -1.
</event>
<event>
 7    1  0.3234965E-006  0.4855152E+03  0.7546771E-02  0.9432817E-01
        -11   -1    0    0    0    0  0.00000000000E+00  0.00000000000E+00  0.50000000000E+03  0.50000000000E+03  0.00000000000E+00 0.  1.
         11   -1    0    0    0    0 -0.00000000000E+00 -0.00000000000E+00 -0.50000000000E+03  0.50000000000E+03  0.00000000000E+00 0.  1.
         23    2    1    2    0    0  0.12827399771E+03 -0.33882203333E+02  0.44260964839E+03  0.47255589593E+03  0.99012886716E+02 0.  0.
        -11    1    1    2    0    0 -0.19555108006E+02  0.82744585294E+00  0.33043897573E+02  0.38405547550E+02  0.00000000000E+00 0.  1.
         11    1    1    2    0    0 -0.10871888971E+03  0.33054757480E+02 -0.47565354597E+03  0.48903855652E+03  0.00000000000E+00 0.  1.
        -15    1    3    3    0    0  0.98287093602E+02  0.83784094086E+01  0.18381561486E+03  0.20861900323E+03  0.17770000000E+01 0.  1.
         15    1    3    3    0    0  0.29986904110E+02 -0.42260612741E+02  0.25879403353E+03  0.26393689270E+03  0.17770000000E+01 0. -1.
</event>
<event>
 7    1  0.3234965E-006  0.3489640E+03  0.7546771E-02  0.9820515E-01
        -11   -1    0    0    0    0  0.00000000000E+00  0.00000000000E+00  0.50000000000E+03  0.50000000000E+03  0.00000000000E+00 0.  1.
         11   -1    0    0    0    0 -0.00000000000E+00 -0.00000000000E+00 -0.50000000000E+03  0.50000000000E+03  0.00000000000E+00 0.  1.
         23    2    1    2    0    0  0.84371767624E+02 -0.18480291867E+03 -0.12928969213E+03  0.26169790236E+03  0.10246586597E+03 0.  0.
        -11    1    1    2    0    0 -0.44537523739E+02  0.11918068209E+03  0.41936526526E+03  0.43824063220E+03  0.00000000000E+00 0.  1.
         11    1    1    2    0    0 -0.39834243886E+02  0.65622236576E+02 -0.29007557313E+03  0.30006146544E+03  0.00000000000E+00 0.  1.
        -15    1    3    3    0    0  0.83780252936E+02 -0.14406737882E+03 -0.14203007733E+03  0.21897543473E+03  0.17770000000E+01 0.  1.
         15    1    3    3    0    0  0.59151468803E+00 -0.40735539849E+02  0.12740385196E+02  0.42722467629E+02  0.17770000000E+01 0. -1.
</event>
<event>
 6    1  0.3234965E-006  0.5610732E+03  0.7546771E-02  0.9272652E-01
        -11   -1    0    0    0    0  0.00000000000E+00  0.00000000000E+00  0.50000000000E+03  0.50000000000E+03  0.00000000000E+00 0. -1.
         11   -1    0    0    0    0 -0.00000000000E+00 -0.00000000000E+00 -0.50000000000E+03  0.50000000000E+03  0.00000000000E+00 0. -1.
        -11    1    1    2    0    0 -0.47747940128E+02 -0.59856341773E+02  0.43219676830E+03  0.43892675239E+03  0.00000000000E+00 0. -1.
         11    1    1    2    0    0 -0.21242446550E+02 -0.44230871275E+02 -0.20593173425E+03  0.21169669501E+03  0.00000000000E+00 0. -1.
        -15    1    1    2    0    0 -0.30294849469E+02  0.52937606575E+02 -0.22965652979E+03  0.23762459364E+03  0.17770000000E+01 0. -1.
         15    1    1    2    0    0  0.99285236147E+02  0.51149606472E+02  0.33914957400E+01  0.11175195896E+03  0.17770000000E+01 0.  1.
</event>
<event>
 7    1  0.3234965E-006  0.5332541E+03  0.7546771E-02  0.9328329E-01
        -11   -1    0    0    0    0  0.00000000000E+00  0.00000000000E+00  0.50000000000E+03  0.50000000000E+03  0.00000000000E+00 0. -1.
         11   -1    0    0    0    0 -0.00000000000E+00 -0.00000000000E+00 -0.50000000000E+03  0.50000000000E+03  0.00000000000E+00 0. -1.
         23    2    1    2    0    0  0.78218423761E+02  0.19194849223E+02  0.97377843271E+02  0.15886504872E+03  0.96276140822E+02 0.  0.
        -11    1    1    2    0    0 -0.71625391200E+02  0.61748311280E+02  0.36224864550E+03  0.37438901130E+03  0.00000000000E+00 0. -1.
         11    1    1    2    0    0 -0.65930325610E+01 -0.80943160503E+02 -0.45962648877E+03  0.46674593999E+03  0.00000000000E+00 0. -1.
        -15    1    3    3    0    0 -0.23805473581E+00  0.33296682823E+02  0.64518695273E+02  0.72626066435E+02  0.17770000000E+01 0. -1.
         15    1    3    3    0    0  0.78456478496E+02 -0.14101833599E+02  0.32859147997E+02  0.86238982282E+02  0.17770000000E+01 0.  1.
</event>
<event>
 7    1  0.3234965E-006  0.5122254E+03  0.7546771E-02  0.9372863E-01
        -11   -1    0    0    0    0  0.00000000000E+00  0.00000000000E+00  0.50000000000E+03  0.50000000000E+03  0.00000000000E+00 0.  1.
         11   -1    0    0    0    0 -0.00000000000E+00 -0.00000000000E+00 -0.50000000000E+03  0.50000000000E+03  0.00000000000E+00 0.  1.
         23    2    1    2    0    0  0.25393763492E+02 -0.65229893628E+02  0.28247521504E+03  0.30457778628E+03  0.89864334041E+02 0.  0.
        -11    1    1    2    0    0  0.63199111037E+02  0.28293495246E+02  0.19576227536E+03  0.20764758116E+03  0.00000000000E+00 0.  1.
         11    1    1    2    0    0 -0.88592874529E+02  0.36936398382E+02 -0.47823749040E+03  0.48777463256E+03  0.00000000000E+00 0.  1.
        -15    1    3    3    0    0 -0.34794691097E+01  0.21738573270E+02  0.61682061052E+02  0.65517224130E+02  0.17770000000E+01 0. -1.
         15    1    3    3    0    0  0.28873232602E+02 -0.86968466898E+02  0.22079315399E+03  0.23906056215E+03  0.17770000000E+01 0.  1.
</event>
<event>
 7    1  0.3234965E-006  0.3683554E+03  0.7546771E-02  0.9754818E-01
        -11   -1    0    0    0    0  0.00000000000E+00  0.00000000000E+00  0.50000000000E+03  0.50000000000E+03  0.00000000000E+00 0. -1.
         11   -1    0    0    0    0 -0.00000000000E+00 -0.00000000000E+00 -0.50000000000E+03  0.50000000000E+03  0.00000000000E+00 0.  1.
         23    2    1    2    0    0  0.21230026376E+03  0.20662957072E+03  0.17675842263E+03  0.36510089997E+03  0.11953219524E+03 0.  0.
        -11    1    1    2    0    0 -0.21118499118E+03  0.81713716204E+02  0.88480247968E+02  0.24311517064E+03  0.00000000000E+00 0. -1.
         11    1    1    2    0    0 -0.11152725783E+01 -0.28834328692E+03 -0.26523867060E+03  0.39178392939E+03  0.00000000000E+00 0.  1.
        -15    1    3    3    0    0  0.68211658061E+01  0.61132497071E+02  0.65375916033E+02  0.89782395976E+02  0.17770000000E+01 0. -1.
         15    1    3    3    0    0  0.20547909795E+03  0.14549707365E+03  0.11138250660E+03  0.27531850399E+03  0.17770000000E+01 0.  1.
</event>
<event>
 7    1  0.3234965E-006  0.4570983E+03  0.7546771E-02  0.9501279E-01
        -11   -1    0    0    0    0  0.00000000000E+00  0.00000000000E+00  0.50000000000E+03  0.50000000000E+03  0.00000000000E+00 0.  1.
         11   -1    0    0    0    0 -0.00000000000E+00 -0.00000000000E+00 -0.50000000000E+03  0.50000000000E+03  0.00000000000E+00 0.  1.
         23    2    1    2    0    0  0.24714178096E+02 -0.15444821158E+03 -0.38573347779E+03  0.42604231930E+03  0.90866392540E+02 0.  0.
        -11    1    1    2    0    0 -0.19341158454E+02  0.11830527382E+03  0.46844200222E+03  0.48353710061E+03  0.00000000000E+00 0.  1.
         11    1    1    2    0    0 -0.53730196417E+01  0.36142937757E+02 -0.82708524430E+02  0.90420580087E+02  0.00000000000E+00 0.  1.
        -15    1    3    3    0    0 -0.28429164887E+02 -0.51881754388E+02 -0.18727917696E+03  0.19640922001E+03  0.17770000000E+01 0.  1.
         15    1    3    3    0    0  0.53143342983E+02 -0.10256645719E+03 -0.19845430083E+03  0.22963309929E+03  0.17770000000E+01 0. -1.
</event>
<event>
 7    1  0.3234965E-006  0.5247091E+03  0.7546771E-02  0.9346158E-01
        -11   -1    0    0    0    0  0.00000000000E+00  0.00000000000E+00  0.50000000000E+03  0.50000000000E+03  0.00000000000E+00 0. -1.
         11   -1    0    0    0    0 -0.00000000000E+00 -0.00000000000E+00 -0.50000000000E+03  0.50000000000E+03  0.00000000000E+00 0. -1.
         23    2    1    2    0    0 -0.14410500214E+03  0.56705265269E+02  0.17201977478E+03  0.25318229540E+03  0.10260961475E+03 0.  0.
        -11    1    1    2    0    0 -0.48935645751E+02 -0.50518115793E+02  0.26225947117E+03  0.27152680838E+03  0.00000000000E+00 0. -1.
         11    1    1    2    0    0  0.19304064789E+03 -0.61871494767E+01 -0.43427924596E+03  0.47529089622E+03  0.00000000000E+00 0. -1.
        -15    1    3    3    0    0 -0.14399991180E+03  0.66947001777E+02  0.18002449048E+03  0.24006218058E+03  0.17770000000E+01 0.  1.
         15    1    3    3    0    0 -0.10509034378E+00 -0.10241736508E+02 -0.80047156940E+01  0.13120114825E+02  0.17770000000E+01 0. -1.
</event>
<event>
 7    1  0.3234965E-006  0.4772276E+03  0.7546771E-02  0.9452258E-01
        -11   -1    0    0    0    0  0.00000000000E+00  0.00000000000E+00  0.50000000000E+03  0.50000000000E+03  0.00000000000E+00 0. -1.
         11   -1    0    0    0    0 -0.00000000000E+00 -0.00000000000E+00 -0.50000000000E+03  0.50000000000E+03  0.00000000000E+00 0. -1.
         23    2    1    2    0    0 -0.26109458966E+02 -0.97618012251E+02 -0.44594001075E+03  0.46581238993E+03  0.88925301597E+02 0.  0.
        -11    1    1    2    0    0 -0.18276351803E+02  0.90161257428E+02  0.47287187275E+03  0.48173736144E+03  0.00000000000E+00 0. -1.
         11    1    1    2    0    0  0.44385810769E+02  0.74567548224E+01 -0.26931861999E+02  0.52450248625E+02  0.00000000000E+00 0. -1.
        -15    1    3    3    0    0 -0.46348278767E+02 -0.74829219395E+02 -0.40656520296E+03  0.41598797700E+03  0.17770000000E+01 0. -1.
         15    1    3    3    0    0  0.20238819800E+02 -0.22788792855E+02 -0.39374807784E+02  0.49824412929E+02  0.17770000000E+01 0.  1.
</event>
<event>
 7    1  0.3234965E-006  0.3989948E+03  0.7546771E-02  0.9659376E-01
        -11   -1    0    0    0    0  0.00000000000E+00  0.00000000000E+00  0.50000000000E+03  0.50000000000E+03  0.00000000000E+00 0.  1.
         11   -1    0    0    0    0 -0.00000000000E+00 -0.00000000000E+00 -0.50000000000E+03  0.50000000000E+03  0.00000000000E+00 0.  1.
         23    2    1    2    0    0 -0.13292462392E+03 -0.55024770557E+02 -0.72275731105E+02  0.18593138416E+03  0.93005469132E+02 0.  0.
        -11    1    1    2    0    0  0.79975612755E+02  0.56834086248E+01  0.43595050660E+03  0.44326204887E+03  0.00000000000E+00 0.  1.
         11    1    1    2    0    0  0.52949011165E+02  0.49341361932E+02 -0.36367477549E+03  0.37080656697E+03  0.00000000000E+00 0.  1.
        -15    1    3    3    0    0 -0.48442180532E+01 -0.41442370509E+02 -0.10441562741E+02  0.43047885934E+02  0.17770000000E+01 0. -1.
         15    1    3    3    0    0 -0.12808040587E+03 -0.13582400049E+02 -0.61834168364E+02  0.14288349822E+03  0.17770000000E+01 0.  1.
</event>
<event>
 7    1  0.3234965E-006  0.4181833E+03  0.7546771E-02  0.9604150E-01
        -11   -1    0    0    0    0  0.00000000000E+00  0.00000000000E+00  0.50000000000E+03  0.50000000000E+03  0.00000000000E+00 0.  1.
         11   -1    0    0    0    0 -0.00000000000E+00 -0.00000000000E+00 -0.50000000000E+03  0.50000000000E+03  0.00000000000E+00 0. -1.
         23    2    1    2    0    0 -0.44070087396E+02 -0.86868963106E+02 -0.73503251092E+02  0.15477802784E+03  0.95210927030E+02 0.  0.
        -11    1    1    2    0    0  0.69036928638E+02 -0.30500306419E+03  0.26356719626E+03  0.40897510147E+03  0.00000000000E+00 0.  1.
         11    1    1    2    0    0 -0.24966841242E+02  0.39187202729E+03 -0.19006394517E+03  0.43624687069E+03  0.00000000000E+00 0. -1.
        -15    1    3    3    0    0 -0.52328829682E+02 -0.63920776729E+01 -0.14726050320E+02  0.54764763853E+02  0.17770000000E+01 0. -1.
         15    1    3    3    0    0  0.82587422863E+01 -0.80476885433E+02 -0.58777200772E+02  0.10001326398E+03  0.17770000000E+01 0.  1.
</event>
<event>
 7    1  0.3234965E-006  0.4684689E+03  0.7546771E-02  0.9473266E-01
        -11   -1    0    0    0    0  0.00000000000E+00  0.00000000000E+00  0.50000000000E+03  0.50000000000E+03  0.00000000000E+00 0. -1.
         11   -1    0    0    0    0 -0.00000000000E+00 -0.00000000000E+00 -0.50000000000E+03  0.50000000000E+03  0.00000000000E+00 0. -1.
         23    2    1    2    0    0  0.66244569324E+02 -0.12640341410E+02 -0.44696864971E+03  0.46124873378E+03  0.91767638019E+02 0.  0.
        -11    1    1    2    0    0 -0.12053373856E+03 -0.30464214940E+02  0.45244468128E+03  0.46921491892E+03  0.00000000000E+00 0. -1.
         11    1    1    2    0    0  0.54289169232E+02  0.43104556350E+02 -0.54760315667E+01  0.69536347299E+02  0.00000000000E+00 0. -1.
        -15    1    3    3    0    0 -0.22124420764E+02 -0.34537152327E+01 -0.56621176464E+02  0.60914148571E+02  0.17770000000E+01 0.  1.
         15    1    3    3    0    0  0.88368990087E+02 -0.91866261775E+01 -0.39034747325E+03  0.40033458521E+03  0.17770000000E+01 0. -1.
</event>
<event>
 6    1  0.3234965E-006  0.3915333E+03  0.7546771E-02  0.9681753E-01
        -11   -1    0    0    0    0  0.00000000000E+00  0.00000000000E+00  0.50000000000E+03  0.50000000000E+03  0.00000000000E+00 0.  1.
         11   -1    0    0    0    0 -0.00000000000E+00 -0.00000000000E+00 -0.50000000000E+03  0.50000000000E+03  0.00000000000E+00 0. -1.
        -11    1    1    2    0    0 -0.12910063287E+03 -0.58941315851E+02  0.16508290471E+03  0.21770029295E+03  0.00000000000E+00 0.  1.
         11    1    1    2    0    0 -0.17281217821E+03  0.29181276647E+03 -0.14966752029E+03  0.37070083118E+03  0.00000000000E+00 0. -1.
        -15    1    1    2    0    0  0.15520235641E+03 -0.16989018684E+03  0.55775199401E+02  0.23677938596E+03  0.17770000000E+01 0.  1.
         15    1    1    2    0    0  0.14671045467E+03 -0.62981263774E+02 -0.71190583823E+02  0.17481948991E+03  0.17770000000E+01 0. -1.
</event>
<event>
 7    1  0.3234965E-006  0.4073682E+03  0.7546771E-02  0.9634877E-01
        -11   -1    0    0    0    0  0.00000000000E+00  0.00000000000E+00  0.50000000000E+03  0.50000000000E+03  0.00000000000E+00 0. -1.
         11   -1    0    0    0    0 -0.00000000000E+00 -0.00000000000E+00 -0.50000000000E+03  0.50000000000E+03  0.00000000000E+00 0. -1.
         23    2    1    2    0    0 -0.15355581425E+03  0.34247673200E+02 -0.34034206681E+03  0.38631299099E+03  0.93019962130E+02 0.  0.
        -11    1    1    2    0    0  0.17170054663E+03 -0.21011520355E+03  0.34238794065E+03  0.43687409900E+03  0.00000000000E+00 0. -1.
         11    1    1    2    0    0 -0.18144732376E+02  0.17586753035E+03 -0.20458738394E+01  0.17681291001E+03  0.00000000000E+00 0. -1.
        -15    1    3    3    0    0 -0.68268509733E+02 -0.30847755974E+02 -0.12566338643E+03  0.14631000611E+03  0.17770000000E+01 0.  1.
         15    1    3    3    0    0 -0.85287304520E+02  0.65095429173E+02 -0.21467868038E+03  0.24000298488E+03  0.17770000000E+01 0. -1.
</event>
<event>
 7    1  0.3234965E-006  0.4837313E+03  0.7546771E-02  0.9436967E-01
        -11   -1    0    0    0    0  0.00000000000E+00  0.00000000000E+00  0.50000000000E+03  0.50000000000E+03  0.00000000000E+00 0. -1.
         11   -1    0    0    0    0 -0.00000000000E+00 -0.00000000000E+00 -0.50000000000E+03  0.50000000000E+03  0.00000000000E+00 0.  1.
         23    2    1    2    0    0  0.68750574926E+02  0.15477326460E+03  0.42051519873E+03  0.46452874786E+03  0.10135344215E+03 0.  0.
        -11    1    1    2    0    0 -0.87523098101E+01  0.12338002117E+02  0.39543662037E+02  0.42338285635E+02  0.00000000000E+00 0. -1.
         11    1    1    2    0    0 -0.59998265116E+02 -0.16711126672E+03 -0.46005886077E+03  0.49313296650E+03  0.00000000000E+00 0.  1.
        -15    1    3    3    0    0  0.38060278148E+02  0.99339730335E+02  0.36525536213E+03  0.38043607096E+03  0.17770000000E+01 0. -1.
         15    1    3    3    0    0  0.30690296778E+02  0.55433534269E+02  0.55259836605E+02  0.84092676902E+02  0.17770000000E+01 0.  1.
</event>
<event>
 7    1  0.3234965E-006  0.4174888E+03  0.7546771E-02  0.9606093E-01
        -11   -1    0    0    0    0  0.00000000000E+00  0.00000000000E+00  0.50000000000E+03  0.50000000000E+03  0.00000000000E+00 0.  1.
         11   -1    0    0    0    0 -0.00000000000E+00 -0.00000000000E+00 -0.50000000000E+03  0.50000000000E+03  0.00000000000E+00 0. -1.
         23    2    1    2    0    0  0.76108297689E+02  0.40873838539E+02 -0.76590121736E+02  0.15707840084E+03  0.10651025119E+03 0.  0.
        -11    1    1    2    0    0 -0.11821693710E+03  0.16572131320E+03  0.40463926503E+03  0.45295886421E+03  0.00000000000E+00 0.  1.
         11    1    1    2    0    0  0.42108639407E+02 -0.20659515174E+03 -0.32804914329E+03  0.38996273495E+03  0.00000000000E+00 0. -1.
        -15    1    3    3    0    0 -0.10098448456E+02 -0.20585238405E+02  0.48399153050E+01  0.23501344867E+02  0.17770000000E+01 0.  1.
         15    1    3    3    0    0  0.86206746145E+02  0.61459076944E+02 -0.81430037041E+02  0.13357705597E+03  0.17770000000E+01 0. -1.
</event>
<event>
 6    1  0.3234965E-006  0.3429320E+03  0.7546771E-02  0.9841890E-01
        -11   -1    0    0    0    0  0.00000000000E+00  0.00000000000E+00  0.50000000000E+03  0.50000000000E+03  0.00000000000E+00 0.  1.
         11   -1    0    0    0    0 -0.00000000000E+00 -0.00000000000E+00 -0.50000000000E+03  0.50000000000E+03  0.00000000000E+00 0. -1.
        -11    1    1    2    0    0 -0.60604100513E+01  0.78753619172E+02  0.35662051341E+03  0.36526298975E+03  0.00000000000E+00 0.  1.
         11    1    1    2    0    0  0.18257644748E+03 -0.30322226914E+02 -0.29395494472E+03  0.34736595421E+03  0.00000000000E+00 0. -1.
        -15    1    1    2    0    0 -0.10047966665E+03 -0.11406467726E+03  0.24970995667E+02  0.15405720484E+03  0.17770000000E+01 0.  1.
         15    1    1    2    0    0 -0.76036370775E+02  0.65633285003E+02 -0.87636564351E+02  0.13331385120E+03  0.17770000000E+01 0. -1.
</event>
<event>
 7    1  0.3234965E-006  0.4077251E+03  0.7546771E-02  0.9633847E-01
        -11   -1    0    0    0    0  0.00000000000E+00  0.00000000000E+00  0.50000000000E+03  0.50000000000E+03  0.00000000000E+00 0.  1.
         11   -1    0    0    0    0 -0.00000000000E+00 -0.00000000000E+00 -0.50000000000E+03  0.50000000000E+03  0.00000000000E+00 0.  1.
         23    2    1    2    0    0 -0.17483075461E+03 -0.20974687575E+03 -0.31628048801E+03  0.42560574223E+03  0.80915734451E+02 0.  0.
        -11    1    1    2    0    0  0.77307282391E+01 -0.10687502964E+03  0.13721893610E+03  0.17410075400E+03  0.00000000000E+00 0.  1.
         11    1    1    2    0    0  0.16710002637E+03  0.31662190539E+03  0.17906155191E+03  0.40029350376E+03  0.00000000000E+00 0.  1.
        -15    1    3    3    0    0 -0.47300532805E+02 -0.10388387346E+03 -0.16855974204E+03  0.20357982202E+03  0.17770000000E+01 0.  1.
         15    1    3    3    0    0 -0.12753022180E+03 -0.10586300229E+03 -0.14772074598E+03  0.22202592021E+03  0.17770000000E+01 0. -1.
</event>
<event>
 7    1  0.3234965E-006  0.4322208E+03  0.7546771E-02  0.9565715E-01
        -11   -1    0    0    0    0  0.00000000000E+00  0.00000000000E+00  0.50000000000E+03  0.50000000000E+03  0.00000000000E+00 0. -1.
         11   -1    0    0    0    0 -0.00000000000E+00 -0.00000000000E+00 -0.50000000000E+03  0.50000000000E+03  0.00000000000E+00 0.  1.
         23    2    1    2    0    0 -0.56518617632E+02 -0.71292823853E+02  0.22700415247E+02  0.13048778607E+03  0.90745427378E+02 0.  0.
        -11    1    1    2    0    0 -0.99731731622E+02  0.31672906053E+03  0.29109365797E+03  0.44158717575E+03  0.00000000000E+00 0. -1.
         11    1    1    2    0    0  0.15625034925E+03 -0.24543623668E+03 -0.31379407322E+03  0.42792503818E+03  0.00000000000E+00 0.  1.
        -15    1    3    3    0    0 -0.44119542926E+02 -0.59243294049E+01  0.41959557764E+02  0.61199623885E+02  0.17770000000E+01 0. -1.
         15    1    3    3    0    0 -0.12399074706E+02 -0.65368494448E+02 -0.19259142517E+02  0.69288162189E+02  0.17770000000E+01 0.  1.
</event>
<event>
 7    1  0.3234965E-006  0.5250973E+03  0.7546771E-02  0.9345340E-01
        -11   -1    0    0    0    0  0.00000000000E+00  0.00000000000E+00  0.50000000000E+03  0.50000000000E+03  0.00000000000E+00 0. -1.
         11   -1    0    0    0    0 -0.00000000000E+00 -0.00000000000E+00 -0.50000000000E+03  0.50000000000E+03  0.00000000000E+00 0.  1.
         23    2    1    2    0    0 -0.10175503155E+03  0.20152587597E+01 -0.34393752387E+03  0.36928080748E+03  0.87847292140E+02 0.  0.
        -11    1    1    2    0    0  0.13211271744E+03 -0.12103881940E+03  0.43980499919E+03  0.47490273028E+03  0.00000000000E+00 0. -1.
         11    1    1    2    0    0 -0.30357685886E+02  0.11902356064E+03 -0.95867475320E+02  0.15581646224E+03  0.00000000000E+00 0.  1.
        -15    1    3    3    0    0 -0.81398988069E+02  0.22068156370E+02 -0.32294275566E+03  0.33377833954E+03  0.17770000000E+01 0.  1.
         15    1    3    3    0    0 -0.20356043483E+02 -0.20052897610E+02 -0.20994768209E+02  0.35502467942E+02  0.17770000000E+01 0. -1.
</event>
<event>
 7    1  0.3234965E-006  0.5285783E+03  0.7546771E-02  0.9338040E-01
        -11   -1    0    0    0    0  0.00000000000E+00  0.00000000000E+00  0.50000000000E+03  0.50000000000E+03  0.00000000000E+00 0. -1.
         11   -1    0    0    0    0 -0.00000000000E+00 -0.00000000000E+00 -0.50000000000E+03  0.50000000000E+03  0.00000000000E+00 0.  1.
         23    2    1    2    0    0  0.23747589257E+02 -0.48103400546E+02 -0.13922661175E+03  0.17580547340E+03  0.92981879520E+02 0.  0.
        -11    1    1    2    0    0  0.11164179487E+03 -0.21240571273E+02  0.45751865958E+03  0.47142165424E+03  0.00000000000E+00 0. -1.
         11    1    1    2    0    0 -0.13538938412E+03  0.69343971818E+02 -0.31829204783E+03  0.35277287236E+03  0.00000000000E+00 0.  1.
        -15    1    3    3    0    0  0.20498259917E+01 -0.59510275053E+02 -0.13899878580E+03  0.15122663392E+03  0.17770000000E+01 0.  1.
         15    1    3    3    0    0  0.21697763265E+02  0.11406874507E+02 -0.22782595138E+00  0.24578839484E+02  0.17770000000E+01 0. -1.
</event>
<event>
 7    1  0.3234965E-006  0.5191511E+03  0.7546771E-02  0.9357949E-01
        -11   -1    0    0    0    0  0.00000000000E+00  0.00000000000E+00  0.50000000000E+03  0.50000000000E+03  0.00000000000E+00 0. -1.
         11   -1    0    0    0    0 -0.00000000000E+00 -0.00000000000E+00 -0.50000000000E+03  0.50000000000E+03  0.00000000000E+00 0. -1.
         23    2    1    2    0    0  0.81164061415E+02 -0.13474583818E+02 -0.39883927703E+03  0.41722684486E+03  0.90754073709E+02 0.  0.
        -11    1    1    2    0    0 -0.99163493373E+02  0.91853453539E+02  0.46145983216E+03  0.48084886611E+03  0.00000000000E+00 0. -1.
         11    1    1    2    0    0  0.17999431958E+02 -0.78378869721E+02 -0.62620555125E+02  0.10192428903E+03  0.00000000000E+00 0. -1.
        -15    1    3    3    0    0 -0.68457213697E+01 -0.31797812705E+02 -0.10810900014E+03  0.11291004576E+03  0.17770000000E+01 0.  1.
         15    1    3    3    0    0  0.88009782785E+02  0.18323228887E+02 -0.29073027689E+03  0.30431679910E+03  0.17770000000E+01 0. -1.
</event>
<event>
 7    1  0.3234965E-006  0.3920406E+03  0.7546771E-02  0.9680215E-01
        -11   -1    0    0    0    0  0.00000000000E+00  0.00000000000E+00  0.50000000000E+03  0.50000000000E+03  0.00000000000E+00 0. -1.
         11   -1    0    0    0    0 -0.00000000000E+00 -0.00000000000E+00 -0.50000000000E+03  0.50000000000E+03  0.00000000000E+00 0.  1.
         23    2    1    2    0    0  0.12158954582E+03 -0.96159937594E+02  0.83626452807E+02  0.19637844667E+03  0.86835243168E+02 0.  0.
        -11    1    1    2    0    0 -0.69421558430E+02 -0.10561258265E+03  0.32291880378E+03  0.34677070843E+03  0.00000000000E+00 0. -1.
         11    1    1    2    0    0 -0.52167987388E+02  0.20177252024E+03 -0.40654525659E+03  0.45685084490E+03  0.00000000000E+00 0.  1.
        -15    1    3    3    0    0 -0.81123722643E+00  0.11950205080E+02 -0.15082217092E+01  0.12202375548E+02  0.17770000000E+01 0.  1.
         15    1    3    3    0    0  0.12240078304E+03 -0.10811014267E+03  0.85134674517E+02  0.18417607112E+03  0.17770000000E+01 0. -1.
</event>
<event>
 7    1  0.3234965E-006  0.5324520E+03  0.7546771E-02  0.9329987E-01
        -11   -1    0    0    0    0  0.00000000000E+00  0.00000000000E+00  0.50000000000E+03  0.50000000000E+03  0.00000000000E+00 0.  1.
         11   -1    0    0    0    0 -0.00000000000E+00 -0.00000000000E+00 -0.50000000000E+03  0.50000000000E+03  0.00000000000E+00 0. -1.
         23    2    1    2    0    0 -0.39498068069E+02 -0.13800203018E+03 -0.35288522048E+03  0.39201629365E+03  0.92434506223E+02 0.  0.
        -11    1    1    2    0    0 -0.31824556533E+02  0.80700220042E+02  0.45942989194E+03  0.46754802269E+03  0.00000000000E+00 0.  1.
         11    1    1    2    0    0  0.71322624602E+02  0.57301810139E+02 -0.10654467146E+03  0.14043568365E+03  0.00000000000E+00 0. -1.
        -15    1    3    3    0    0  0.22067513540E+02 -0.80873675449E+01 -0.82258899419E+02  0.85569065265E+02  0.17770000000E+01 0.  1.
         15    1    3    3    0    0 -0.61565581609E+02 -0.12991466264E+03 -0.27062632106E+03  0.30644722839E+03  0.17770000000E+01 0. -1.
</event>
<event>
 7    1  0.3234965E-006  0.5068556E+03  0.7546771E-02  0.9384599E-01
        -11   -1    0    0    0    0  0.00000000000E+00  0.00000000000E+00  0.50000000000E+03  0.50000000000E+03  0.00000000000E+00 0. -1.
         11   -1    0    0    0    0 -0.00000000000E+00 -0.00000000000E+00 -0.50000000000E+03  0.50000000000E+03  0.00000000000E+00 0. -1.
         23    2    1    2    0    0  0.73008613554E+02 -0.73178921212E+02  0.34771007628E+03  0.37439010480E+03  0.92629591718E+02 0.  0.
        -11    1    1    2    0    0  0.48682867894E+02 -0.39301629615E+02  0.11675814050E+03  0.13246547886E+03  0.00000000000E+00 0. -1.
         11    1    1    2    0    0 -0.12169148145E+03  0.11248055083E+03 -0.46446821678E+03  0.49314441634E+03  0.00000000000E+00 0. -1.
        -15    1    3    3    0    0  0.48456136669E+02 -0.58306117428E+01  0.24051148872E+03  0.24541989966E+03  0.17770000000E+01 0. -1.
         15    1    3    3    0    0  0.24552476885E+02 -0.67348309469E+02  0.10719858756E+03  0.12897020514E+03  0.17770000000E+01 0.  1.
</event>
<event>
 7    1  0.3234965E-006  0.5210071E+03  0.7546771E-02  0.9353994E-01
        -11   -1    0    0    0    0  0.00000000000E+00  0.00000000000E+00  0.50000000000E+03  0.50000000000E+03  0.00000000000E+00 0.  1.
         11   -1    0    0    0    0 -0.00000000000E+00 -0.00000000000E+00 -0.50000000000E+03  0.50000000000E+03  0.00000000000E+00 0. -1.
         23    2    1    2    0    0 -0.12967153946E+01  0.24528173625E+02 -0.27836921813E+03  0.29332589371E+03  0.89147885801E+02 0.  0.
        -11    1    1    2    0    0 -0.13857933354E+03 -0.58729769643E+02  0.45473155062E+03  0.47899290251E+03  0.00000000000E+00 0.  1.
         11    1    1    2    0    0  0.13987604893E+03  0.34201596018E+02 -0.17636233249E+03  0.22768120378E+03  0.00000000000E+00 0. -1.
        -15    1    3    3    0    0  0.30470297372E+01  0.48271846971E+02 -0.25544393811E+03  0.25998888216E+03  0.17770000000E+01 0. -1.
         15    1    3    3    0    0 -0.43437451318E+01 -0.23743673346E+02 -0.22925280018E+02  0.33337011543E+02  0.17770000000E+01 0.  1.
</event>
<event>
 7    1  0.3234965E-006  0.4066559E+03  0.7546771E-02  0.9636937E-01
        -11   -1    0    0    0    0  0.00000000000E+00  0.00000000000E+00  0.50000000000E+03  0.50000000000E+03  0.00000000000E+00 0. -1.
         11   -1    0    0    0    0 -0.00000000000E+00 -0.00000000000E+00 -0.50000000000E+03  0.50000000000E+03  0.00000000000E+00 0. -1.
         23    2    1    2    0    0  0.11664052423E+03 -0.57054659749E+01 -0.10018466184E+03  0.17226182471E+03  0.77457120728E+02 0.  0.
        -11    1    1    2    0    0  0.60071084930E+02 -0.97663925493E+02  0.42698278910E+03  0.44210980511E+03  0.00000000000E+00 0. -1.
         11    1    1    2    0    0 -0.17671160916E+03  0.10336939147E+03 -0.32679812726E+03  0.38562837018E+03  0.00000000000E+00 0. -1.
        -15    1    3    3    0    0  0.98841743159E+02  0.14384204012E+02 -0.10500574503E+03  0.14493432904E+03  0.17770000000E+01 0. -1.
         15    1    3    3    0    0  0.17798781072E+02 -0.20089669987E+02  0.48210831903E+01  0.27327495677E+02  0.17770000000E+01 0.  1.
</event>
<event>
 7    1  0.3234965E-006  0.5237768E+03  0.7546771E-02  0.9348125E-01
        -11   -1    0    0    0    0  0.00000000000E+00  0.00000000000E+00  0.50000000000E+03  0.50000000000E+03  0.00000000000E+00 0.  1.
         11   -1    0    0    0    0 -0.00000000000E+00 -0.00000000000E+00 -0.50000000000E+03  0.50000000000E+03  0.00000000000E+00 0. -1.
         23    2    1    2    0    0 -0.34330135269E+02  0.23293366218E+01 -0.28293304616E+03  0.29868652795E+03  0.89322725973E+02 0.  0.
        -11    1    1    2    0    0 -0.95554351658E+02  0.82268926643E+01  0.46646566033E+03  0.47622319153E+03  0.00000000000E+00 0.  1.
         11    1    1    2    0    0  0.12988448693E+03 -0.10556229286E+02 -0.18353261417E+03  0.22509028052E+03  0.00000000000E+00 0. -1.
        -15    1    3    3    0    0  0.29386900886E+02  0.89175743740E+01 -0.11159625744E+03  0.11575834950E+03  0.17770000000E+01 0.  1.
         15    1    3    3    0    0 -0.63717036155E+02 -0.65882377522E+01 -0.17133678872E+03  0.18292817845E+03  0.17770000000E+01 0. -1.
</event>
<event>
 7    1  0.3234965E-006  0.5232292E+03  0.7546771E-02  0.9349282E-01
        -11   -1    0    0    0    0  0.00000000000E+00  0.00000000000E+00  0.50000000000E+03  0.50000000000E+03  0.00000000000E+00 0.  1.
         11   -1    0    0    0    0 -0.00000000000E+00 -0.00000000000E+00 -0.50000000000E+03  0.50000000000E+03  0.00000000000E+00 0. -1.
         23    2    1    2    0    0  0.28631939133E+03  0.11011030310E+03  0.26281941440E+03  0.41476699744E+03  0.94098591272E+02 0.  0.
        -11    1    1    2    0    0 -0.13992536844E+02  0.23865819421E+02  0.10487459220E+03  0.10846219854E+03  0.00000000000E+00 0.  1.
         11    1    1    2    0    0 -0.27232685448E+03 -0.13397612253E+03 -0.36769400660E+03  0.47677080402E+03  0.00000000000E+00 0. -1.
        -15    1    3    3    0    0  0.29958032677E+02  0.23135000404E+02  0.78766082019E+02  0.87406895444E+02  0.17770000000E+01 0. -1.
         15    1    3    3    0    0  0.25636135865E+03  0.86975302701E+02  0.18405333238E+03  0.32736010199E+03  0.17770000000E+01 0.  1.
</event>
<event>
 7    1  0.3234965E-006  0.3798227E+03  0.7546771E-02  0.9717972E-01
        -11   -1    0    0    0    0  0.00000000000E+00  0.00000000000E+00  0.50000000000E+03  0.50000000000E+03  0.00000000000E+00 0. -1.
         11   -1    0    0    0    0 -0.00000000000E+00 -0.00000000000E+00 -0.50000000000E+03  0.50000000000E+03  0.00000000000E+00 0. -1.
         23    2    1    2    0    0 -0.22315420019E+02  0.35048693671E+02 -0.33524941556E+03  0.35129781512E+03  0.96392921808E+02 0.  0.
        -11    1    1    2    0    0 -0.44468257783E+01  0.17738494241E+03  0.38933564856E+03  0.42786380928E+03  0.00000000000E+00 0. -1.
         11    1    1    2    0    0  0.26762245797E+02 -0.21243363608E+03 -0.54086232995E+02  0.22083837560E+03  0.00000000000E+00 0. -1.
        -15    1    3    3    0    0 -0.61101091528E+01 -0.32206576797E+02 -0.72474954876E+02  0.79563646448E+02  0.17770000000E+01 0.  1.
         15    1    3    3    0    0 -0.16205310866E+02  0.67255270468E+02 -0.26277446069E+03  0.27173416867E+03  0.17770000000E+01 0. -1.
</event>
<event>
 7    1  0.3234965E-006  0.3860960E+03  0.7546771E-02  0.9698399E-01
        -11   -1    0    0    0    0  0.00000000000E+00  0.00000000000E+00  0.50000000000E+03  0.50000000000E+03  0.00000000000E+00 0. -1.
         11   -1    0    0    0    0 -0.00000000000E+00 -0.00000000000E+00 -0.50000000000E+03  0.50000000000E+03  0.00000000000E+00 0.  1.
         23    2    1    2    0    0 -0.61796205463E+02 -0.44194410002E+02 -0.42021900628E+03  0.43673705897E+03  0.91560518524E+02 0.  0.
        -11    1    1    2    0    0  0.11000199717E+03  0.18990133595E+03  0.27643669744E+03  0.35295921077E+03  0.00000000000E+00 0. -1.
         11    1    1    2    0    0 -0.48205791710E+02 -0.14570692595E+03  0.14378230885E+03  0.21030373026E+03  0.00000000000E+00 0.  1.
        -15    1    3    3    0    0 -0.17389772392E+02  0.27658329439E+02 -0.86257149759E+02  0.92254219333E+02  0.17770000000E+01 0. -1.
         15    1    3    3    0    0 -0.44406433071E+02 -0.71852739441E+02 -0.33396185653E+03  0.34448283964E+03  0.17770000000E+01 0.  1.
</event>
<event>
 7    1  0.3234965E-006  0.5076635E+03  0.7546771E-02  0.9382823E-01
        -11   -1    0    0    0    0  0.00000000000E+00  0.00000000000E+00  0.50000000000E+03  0.50000000000E+03  0.00000000000E+00 0. -1.
         11   -1    0    0    0    0 -0.00000000000E+00 -0.00000000000E+00 -0.50000000000E+03  0.50000000000E+03  0.00000000000E+00 0.  1.
         23    2    1    2    0    0  0.63241835682E+01  0.13996794141E+03  0.35913875048E+03  0.39684091829E+03  0.94186264452E+02 0.  0.
        -11    1    1    2    0    0 -0.31436033855E+02  0.36161609663E+02  0.99928777748E+02  0.11082259183E+03  0.00000000000E+00 0. -1.
         11    1    1    2    0    0  0.25111850287E+02 -0.17612955107E+03 -0.45906752823E+03  0.49233648988E+03  0.00000000000E+00 0.  1.
        -15    1    3    3    0    0  0.25229228857E+02  0.10165486651E+03  0.14742543611E+03  0.18085254440E+03  0.17770000000E+01 0.  1.
         15    1    3    3    0    0 -0.18905045289E+02  0.38313074901E+02  0.21171331437E+03  0.21598837389E+03  0.17770000000E+01 0. -1.
</event>
<event>
 7    1  0.3234965E-006  0.5179412E+03  0.7546771E-02  0.9360536E-01
        -11   -1    0    0    0    0  0.00000000000E+00  0.00000000000E+00  0.50000000000E+03  0.50000000000E+03  0.00000000000E+00 0.  1.
         11   -1    0    0    0    0 -0.00000000000E+00 -0.00000000000E+00 -0.50000000000E+03  0.50000000000E+03  0.00000000000E+00 0. -1.
         23    2    1    2    0    0  0.66641501288E+02 -0.31770690321E+02 -0.11680128426E+03  0.16928178115E+03  0.97792202993E+02 0.  0.
        -11    1    1    2    0    0 -0.13339372045E+03  0.12851312283E+03  0.44505186629E+03  0.48205878385E+03  0.00000000000E+00 0.  1.
         11    1    1    2    0    0  0.66752219161E+02 -0.96742432513E+02 -0.32825058203E+03  0.34865943500E+03  0.00000000000E+00 0. -1.
        -15    1    3    3    0    0  0.62854581561E+02  0.18431742761E+02 -0.37978709171E+02  0.75736171303E+02  0.17770000000E+01 0. -1.
         15    1    3    3    0    0  0.37869197272E+01 -0.50202433082E+02 -0.78822575091E+02  0.93545609846E+02  0.17770000000E+01 0.  1.
</event>
<event>
 7    1  0.3234965E-006  0.4561287E+03  0.7546771E-02  0.9503708E-01
        -11   -1    0    0    0    0  0.00000000000E+00  0.00000000000E+00  0.50000000000E+03  0.50000000000E+03  0.00000000000E+00 0. -1.
         11   -1    0    0    0    0 -0.00000000000E+00 -0.00000000000E+00 -0.50000000000E+03  0.50000000000E+03  0.00000000000E+00 0. -1.
         23    2    1    2    0    0 -0.11569694245E+02  0.16715363849E+01 -0.43336214620E+03  0.44311922769E+03  0.91734662618E+02 0.  0.
        -11    1    1    2    0    0  0.80071971195E+02  0.56709919285E+02  0.45404801311E+03  0.46452893745E+03  0.00000000000E+00 0. -1.
         11    1    1    2    0    0 -0.68502276951E+02 -0.58381455670E+02 -0.20685866909E+02  0.92351834867E+02  0.00000000000E+00 0. -1.
        -15    1    3    3    0    0  0.23602562978E+02 -0.33517539415E+02 -0.15494662002E+03  0.16028761403E+03  0.17770000000E+01 0.  1.
         15    1    3    3    0    0 -0.35172257222E+02  0.35189075800E+02 -0.27841552618E+03  0.28283161365E+03  0.17770000000E+01 0. -1.
</event>
<event>
 7    1  0.3234965E-006  0.5159153E+03  0.7546771E-02  0.9364886E-01
        -11   -1    0    0    0    0  0.00000000000E+00  0.00000000000E+00  0.50000000000E+03  0.50000000000E+03  0.00000000000E+00 0.  1.
         11   -1    0    0    0    0 -0.00000000000E+00 -0.00000000000E+00 -0.50000000000E+03  0.50000000000E+03  0.00000000000E+00 0.  1.
         23    2    1    2    0    0 -0.22028543382E+02  0.54608102597E+02 -0.36511447815E+03  0.38108596966E+03  0.91927321943E+02 0.  0.
        -11    1    1    2    0    0 -0.47773480892E+02 -0.99695756741E+02  0.47129230757E+03  0.48408469152E+03  0.00000000000E+00 0.  1.
         11    1    1    2    0    0  0.69802024274E+02  0.45087654144E+02 -0.10617782942E+03  0.13482933883E+03  0.00000000000E+00 0.  1.
        -15    1    3    3    0    0 -0.47670586232E+02 -0.13020567977E+00 -0.13593764818E+03  0.14406492865E+03  0.17770000000E+01 0.  1.
         15    1    3    3    0    0  0.25642042850E+02  0.54738308277E+02 -0.22917682997E+03  0.23702104100E+03  0.17770000000E+01 0. -1.
</event>
<event>
 7    1  0.3234965E-006  0.5240514E+03  0.7546771E-02  0.9347545E-01
        -11   -1    0    0    0    0  0.00000000000E+00  0.00000000000E+00  0.50000000000E+03  0.50000000000E+03  0.00000000000E+00 0.  1.
         11   -1    0    0    0    0 -0.00000000000E+00 -0.00000000000E+00 -0.50000000000E+03  0.50000000000E+03  0.00000000000E+00 0.  1.
         23    2    1    2    0    0  0.11594122241E+02  0.22516785754E+03  0.18288648436E+03  0.30192126167E+03  0.82909555233E+02 0.  0.
        -11    1    1    2    0    0 -0.34543773270E+02  0.31723900867E+02  0.21712232207E+03  0.22213009904E+03  0.00000000000E+00 0.  1.
         11    1    1    2    0    0  0.22949651029E+02 -0.25689175840E+03 -0.40000880643E+03  0.47594863929E+03  0.00000000000E+00 0.  1.
        -15    1    3    3    0    0 -0.15187846468E+02  0.50757618511E+01  0.29660158199E+01  0.16382582750E+02  0.17770000000E+01 0. -1.
         15    1    3    3    0    0  0.26781968709E+02  0.22009209568E+03  0.17992046854E+03  0.28553867892E+03  0.17770000000E+01 0.  1.
</event>
<event>
 7    1  0.3234965E-006  0.4032554E+03  0.7546771E-02  0.9646831E-01
        -11   -1    0    0    0    0  0.00000000000E+00  0.00000000000E+00  0.50000000000E+03  0.50000000000E+03  0.00000000000E+00 0. -1.
         11   -1    0    0    0    0 -0.00000000000E+00 -0.00000000000E+00 -0.50000000000E+03  0.50000000000E+03  0.00000000000E+00 0.  1.
         23    2    1    2    0    0 -0.10673833657E+03  0.72551872324E+02 -0.37966196210E+03  0.41150452916E+03  0.92390071872E+02 0.  0.
        -11    1    1    2    0    0 -0.65171551407E+02 -0.11982337146E+02  0.39967594797E+03  0.40513179449E+03  0.00000000000E+00 0. -1.
         11    1    1    2    0    0  0.17190988797E+03 -0.60569535178E+02 -0.20013985872E+02  0.18336367635E+03  0.00000000000E+00 0.  1.
        -15    1    3    3    0    0 -0.10041850404E+03  0.16009887769E+02 -0.23641157554E+03  0.25735924938E+03  0.17770000000E+01 0.  1.
         15    1    3    3    0    0 -0.63198325245E+01  0.56541984556E+02 -0.14325038656E+03  0.15414527978E+03  0.17770000000E+01 0. -1.
</event>
<event>
 7    1  0.3234965E-006  0.4671768E+03  0.7546771E-02  0.9476406E-01
        -11   -1    0    0    0    0  0.00000000000E+00  0.00000000000E+00  0.50000000000E+03  0.50000000000E+03  0.00000000000E+00 0.  1.
         11   -1    0    0    0    0 -0.00000000000E+00 -0.00000000000E+00 -0.50000000000E+03  0.50000000000E+03  0.00000000000E+00 0. -1.
         23    2    1    2    0    0 -0.43595951915E+02  0.10737211238E+03 -0.43822559318E+03  0.46247891623E+03  0.91737123891E+02 0.  0.
        -11    1    1    2    0    0  0.10246206209E+03 -0.67463050500E+02  0.44911901099E+03  0.46557236106E+03  0.00000000000E+00 0.  1.
         11    1    1    2    0    0 -0.58866110175E+02 -0.39909061883E+02 -0.10893417820E+02  0.71948722708E+02  0.00000000000E+00 0. -1.
        -15    1    3    3    0    0 -0.12423428753E+02  0.35749950094E+02 -0.34435826847E+02  0.51199457159E+02  0.17770000000E+01 0.  1.
         15    1    3    3    0    0 -0.31172523163E+02  0.71622162289E+02 -0.40378976633E+03  0.41127945907E+03  0.17770000000E+01 0. -1.
</event>
<event>
 7    1  0.3234965E-006  0.3664959E+03  0.7546771E-02  0.9760928E-01
        -11   -1    0    0    0    0  0.00000000000E+00  0.00000000000E+00  0.50000000000E+03  0.50000000000E+03  0.00000000000E+00 0. -1.
         11   -1    0    0    0    0 -0.00000000000E+00 -0.00000000000E+00 -0.50000000000E+03  0.50000000000E+03  0.00000000000E+00 0. -1.
         23    2    1    2    0    0  0.49898168517E+02  0.70255223159E+02 -0.28969023733E+03  0.31574000595E+03  0.91354770809E+02 0.  0.
        -11    1    1    2    0    0  0.30420721144E+02  0.10643162847E+03  0.43048179609E+03  0.44448586994E+03  0.00000000000E+00 0. -1.
         11    1    1    2    0    0 -0.80318889662E+02 -0.17668685163E+03 -0.14079155875E+03  0.23977412411E+03  0.00000000000E+00 0. -1.
        -15    1    3    3    0    0  0.40554237425E+02  0.92273956115E+02 -0.24688330872E+03  0.26667143643E+03  0.17770000000E+01 0.  1.
         15    1    3    3    0    0  0.93439310921E+01 -0.22018732956E+02 -0.42806928609E+02  0.49068569524E+02  0.17770000000E+01 0. -1.
</event>
<event>
 6    1  0.3234965E-006  0.4303402E+03  0.7546771E-02  0.9570773E-01
        -11   -1    0    0    0    0  0.00000000000E+00  0.00000000000E+00  0.50000000000E+03  0.50000000000E+03  0.00000000000E+00 0.  1.
         11   -1    0    0    0    0 -0.00000000000E+00 -0.00000000000E+00 -0.50000000000E+03  0.50000000000E+03  0.00000000000E+00 0. -1.
        -11    1    1    2    0    0  0.52669871715E+02 -0.43740341941E+02  0.15536096346E+03  0.16977738915E+03  0.00000000000E+00 0.  1.
         11    1    1    2    0    0  0.29592128216E+03 -0.18533361687E+03 -0.11190032877E+03  0.36666011285E+03  0.00000000000E+00 0. -1.
        -15    1    1    2    0    0 -0.29082928329E+03  0.15387677468E+03  0.47152673595E+02  0.33239474448E+03  0.17770000000E+01 0.  1.
         15    1    1    2    0    0 -0.57761870586E+02  0.75197184138E+02 -0.90613308283E+02  0.13116775352E+03  0.17770000000E+01 0. -1.
</event>
<event>
 7    1  0.3234965E-006  0.3958814E+03  0.7546771E-02  0.9668649E-01
        -11   -1    0    0    0    0  0.00000000000E+00  0.00000000000E+00  0.50000000000E+03  0.50000000000E+03  0.00000000000E+00 0. -1.
         11   -1    0    0    0    0 -0.00000000000E+00 -0.00000000000E+00 -0.50000000000E+03  0.50000000000E+03  0.00000000000E+00 0. -1.
         23    2    1    2    0    0  0.13509497534E+02 -0.13648621245E+03 -0.96022105330E+02  0.19072908217E+03  0.91358334916E+02 0.  0.
        -11    1    1    2    0    0  0.78315854332E+02  0.56710935908E+02  0.43683141775E+03  0.44740495173E+03  0.00000000000E+00 0. -1.
         11    1    1    2    0    0 -0.91825351866E+02  0.79775276544E+02 -0.34080931242E+03  0.36186596611E+03  0.00000000000E+00 0. -1.
        -15    1    3    3    0    0  0.72813389689E+01 -0.14690689826E+03 -0.99954806598E+02  0.17784480803E+03  0.17770000000E+01 0.  1.
         15    1    3    3    0    0  0.62281585646E+01  0.10420685804E+02  0.39327012684E+01  0.12884274135E+02  0.17770000000E+01 0. -1.
</event>
<event>
 7    1  0.3234965E-006  0.5089001E+03  0.7546771E-02  0.9380112E-01
        -11   -1    0    0    0    0  0.00000000000E+00  0.00000000000E+00  0.50000000000E+03  0.50000000000E+03  0.00000000000E+00 0. -1.
         11   -1    0    0    0    0 -0.00000000000E+00 -0.00000000000E+00 -0.50000000000E+03  0.50000000000E+03  0.00000000000E+00 0. -1.
         23    2    1    2    0    0  0.34284466677E+03 -0.15834990738E+03 -0.30018443649E+03  0.49109989608E+03  0.91930698451E+02 0.  0.
        -11    1    1    2    0    0 -0.14074329835E+02 -0.12525975999E+02  0.70468487524E+02  0.72943776767E+02  0.00000000000E+00 0. -1.
         11    1    1    2    0    0 -0.32877033694E+03  0.17087588338E+03  0.22971594897E+03  0.43595632715E+03  0.00000000000E+00 0. -1.
        -15    1    3    3    0    0  0.14393138004E+03 -0.31300407136E+02 -0.15578036679E+03  0.21439831635E+03  0.17770000000E+01 0.  1.
         15    1    3    3    0    0  0.19891328674E+03 -0.12704950024E+03 -0.14440406970E+03  0.27670157973E+03  0.17770000000E+01 0. -1.
</event>
<event>
 7    1  0.3234965E-006  0.3897266E+03  0.7546771E-02  0.9687252E-01
        -11   -1    0    0    0    0  0.00000000000E+00  0.00000000000E+00  0.50000000000E+03  0.50000000000E+03  0.00000000000E+00 0. -1.
         11   -1    0    0    0    0 -0.00000000000E+00 -0.00000000000E+00 -0.50000000000E+03  0.50000000000E+03  0.00000000000E+00 0.  1.
         23    2    1    2    0    0 -0.16158237352E+03 -0.18314195062E+03  0.21340543787E+03  0.33572027843E+03  0.86697098717E+02 0.  0.
        -11    1    1    2    0    0  0.51284179957E+02  0.61125472674E+01  0.19713726100E+03  0.20379040710E+03  0.00000000000E+00 0. -1.
         11    1    1    2    0    0  0.11029819357E+03  0.17702940335E+03 -0.41054269887E+03  0.46048931448E+03  0.00000000000E+00 0.  1.
        -15    1    3    3    0    0 -0.72594750481E+02 -0.61951652678E+02  0.13723040590E+03  0.16716263667E+03  0.17770000000E+01 0.  1.
         15    1    3    3    0    0 -0.88987623042E+02 -0.12119029794E+03  0.76175031968E+02  0.16855764175E+03  0.17770000000E+01 0. -1.
</event>
<event>
 7    1  0.3234965E-006  0.5198205E+03  0.7546771E-02  0.9356520E-01
        -11   -1    0    0    0    0  0.00000000000E+00  0.00000000000E+00  0.50000000000E+03  0.50000000000E+03  0.00000000000E+00 0.  1.
         11   -1    0    0    0    0 -0.00000000000E+00 -0.00000000000E+00 -0.50000000000E+03  0.50000000000E+03  0.00000000000E+00 0. -1.
         23    2    1    2    0    0  0.64665093180E+02  0.41430354631E+02  0.14013944552E+03  0.18359002354E+03  0.90378006125E+02 0.  0.
        -11    1    1    2    0    0  0.20716636911E+03 -0.73667469774E+02  0.25437394671E+03  0.33623043491E+03  0.00000000000E+00 0.  1.
         11    1    1    2    0    0 -0.27183146229E+03  0.32237115143E+02 -0.39451339222E+03  0.48017954156E+03  0.00000000000E+00 0. -1.
        -15    1    3    3    0    0  0.62293507429E+02  0.66742346371E+02  0.12163257525E+03  0.15209425682E+03  0.17770000000E+01 0. -1.
         15    1    3    3    0    0  0.23715857517E+01 -0.25311991741E+02  0.18506870267E+02  0.31495766714E+02  0.17770000000E+01 0.  1.
</event>
<event>
 7    1  0.3234965E-006  0.5144071E+03  0.7546771E-02  0.9368138E-01
        -11   -1    0    0    0    0  0.00000000000E+00  0.00000000000E+00  0.50000000000E+03  0.50000000000E+03  0.00000000000E+00 0. -1.
         11   -1    0    0    0    0 -0.00000000000E+00 -0.00000000000E+00 -0.50000000000E+03  0.50000000000E+03  0.00000000000E+00 0.  1.
         23    2    1    2    0    0 -0.15601604838E+03  0.11844183732E+01 -0.25246331977E+03  0.31044924879E+03  0.91096641263E+02 0.  0.
        -11    1    1    2    0    0  0.31175463891E+03 -0.67783182752E+02  0.36608058359E+03  0.48559294519E+03  0.00000000000E+00 0. -1.
         11    1    1    2    0    0 -0.15573859053E+03  0.66598764379E+02 -0.11361726382E+03  0.20395780601E+03  0.00000000000E+00 0.  1.
        -15    1    3    3    0    0 -0.90156124834E+02  0.75158375799E+01 -0.21755033735E+03  0.23561816923E+03  0.17770000000E+01 0.  1.
         15    1    3    3    0    0 -0.65859923546E+02 -0.63314192068E+01 -0.34912982414E+02  0.74831079564E+02  0.17770000000E+01 0. -1.
</event>
<event>
 7    1  0.3234965E-006  0.5188101E+03  0.7546771E-02  0.9358677E-01
        -11   -1    0    0    0    0  0.00000000000E+00  0.00000000000E+00  0.50000000000E+03  0.50000000000E+03  0.00000000000E+00 0.  1.
         11   -1    0    0    0    0 -0.00000000000E+00 -0.00000000000E+00 -0.50000000000E+03  0.50000000000E+03  0.00000000000E+00 0. -1.
         23    2    1    2    0    0  0.43630823708E+01 -0.17187921235E+02  0.11006803054E+03  0.14435694582E+03  0.91703300572E+02 0.  0.
        -11    1    1    2    0    0  0.92441068507E+02  0.38716487444E+02  0.36079200152E+03  0.37445318253E+03  0.00000000000E+00 0.  1.
         11    1    1    2    0    0 -0.96804150878E+02 -0.21528566209E+02 -0.47086003206E+03  0.48118987165E+03  0.00000000000E+00 0. -1.
        -15    1    3    3    0    0 -0.18465701388E+02 -0.89870393958E+01  0.11720931456E+03  0.11900810961E+03  0.17770000000E+01 0. -1.
         15    1    3    3    0    0  0.22828783759E+02 -0.82008818392E+01 -0.71412840185E+01  0.25348836211E+02  0.17770000000E+01 0.  1.
</event>
<event>
 7    1  0.3234965E-006  0.5364350E+03  0.7546771E-02  0.9321782E-01
        -11   -1    0    0    0    0  0.00000000000E+00  0.00000000000E+00  0.50000000000E+03  0.50000000000E+03  0.00000000000E+00 0. -1.
         11   -1    0    0    0    0 -0.00000000000E+00 -0.00000000000E+00 -0.50000000000E+03  0.50000000000E+03  0.00000000000E+00 0. -1.
         23    2    1    2    0    0  0.10278019144E+03  0.10086147529E+03  0.14912077738E+03  0.22710828970E+03  0.92759711394E+02 0.  0.
        -11    1    1    2    0    0 -0.29238270181E+02 -0.43087420522E+02  0.30491250269E+03  0.30932674722E+03  0.00000000000E+00 0. -1.
         11    1    1    2    0    0 -0.73541921256E+02 -0.57774054763E+02 -0.45403328006E+03  0.46356496308E+03  0.00000000000E+00 0. -1.
        -15    1    3    3    0    0  0.72783332146E+02  0.48315736115E+02  0.14121611883E+03  0.16606316190E+03  0.17770000000E+01 0.  1.
         15    1    3    3    0    0  0.29996859292E+02  0.52545739171E+02  0.79046585445E+01  0.61045127799E+02  0.17770000000E+01 0. -1.
</event>
<event>
 7    1  0.3234965E-006  0.5086007E+03  0.7546771E-02  0.9380768E-01
        -11   -1    0    0    0    0  0.00000000000E+00  0.00000000000E+00  0.50000000000E+03  0.50000000000E+03  0.00000000000E+00 0.  1.
         11   -1    0    0    0    0 -0.00000000000E+00 -0.00000000000E+00 -0.50000000000E+03  0.50000000000E+03  0.00000000000E+00 0. -1.
         23    2    1    2    0    0  0.58420507817E+02 -0.29116254668E+02  0.35278049762E+03  0.37004276687E+03  0.90646885165E+02 0.  0.
        -11    1    1    2    0    0  0.56053436634E+02  0.20624676801E+02  0.12502373591E+03  0.13855792866E+03  0.00000000000E+00 0.  1.
         11    1    1    2    0    0 -0.11447394445E+03  0.84915778675E+01 -0.47780423354E+03  0.49139930447E+03  0.00000000000E+00 0. -1.
        -15    1    3    3    0    0  0.33432534950E+01  0.19033999714E+02  0.15281212165E+02  0.24701086277E+02  0.17770000000E+01 0. -1.
         15    1    3    3    0    0  0.55077254322E+02 -0.48150254382E+02  0.33749928546E+03  0.34534168059E+03  0.17770000000E+01 0.  1.
</event>
<event>
 7    1  0.3234965E-006  0.5217875E+03  0.7546771E-02  0.9352336E-01
        -11   -1    0    0    0    0  0.00000000000E+00  0.00000000000E+00  0.50000000000E+03  0.50000000000E+03  0.00000000000E+00 0. -1.
         11   -1    0    0    0    0 -0.00000000000E+00 -0.00000000000E+00 -0.50000000000E+03  0.50000000000E+03  0.00000000000E+00 0.  1.
         23    2    1    2    0    0  0.99895456239E+01 -0.19685052397E+02 -0.28545272732E+03  0.29983825927E+03  0.89064189654E+02 0.  0.
        -11    1    1    2    0    0  0.99311119076E+02  0.11512568898E+03  0.45339890366E+03  0.47821249301E+03  0.00000000000E+00 0. -1.
         11    1    1    2    0    0 -0.10930066470E+03 -0.95440636584E+02 -0.16794617633E+03  0.22194924771E+03  0.00000000000E+00 0.  1.
        -15    1    3    3    0    0  0.22174218757E+02 -0.51205225724E+02 -0.20704088016E+03  0.21443589929E+03  0.17770000000E+01 0.  1.
         15    1    3    3    0    0 -0.12184673133E+02  0.31520173327E+02 -0.78411847166E+02  0.85402359984E+02  0.17770000000E+01 0. -1.
</event>
<event>
 7    1  0.3234965E-006  0.3606386E+03  0.7546771E-02  0.9780431E-01
        -11   -1    0    0    0    0  0.00000000000E+00  0.00000000000E+00  0.50000000000E+03  0.50000000000E+03  0.00000000000E+00 0.  1.
         11   -1    0    0    0    0 -0.00000000000E+00 -0.00000000000E+00 -0.50000000000E+03  0.50000000000E+03  0.00000000000E+00 0.  1.
         23    2    1    2    0    0  0.16390559331E+03 -0.15398002342E+03  0.24613619748E+02  0.24407564611E+03  0.91608949426E+02 0.  0.
        -11    1    1    2    0    0  0.16534408012E+03  0.80946102645E+02  0.25729025309E+03  0.31636878908E+03  0.00000000000E+00 0.  1.
         11    1    1    2    0    0 -0.32924967343E+03  0.73033920775E+02 -0.28190387284E+03  0.43955556482E+03  0.00000000000E+00 0.  1.
        -15    1    3    3    0    0  0.17519942904E+03 -0.14895268500E+03  0.20295851374E+02  0.23086104396E+03  0.17770000000E+01 0.  1.
         15    1    3    3    0    0 -0.11293835734E+02 -0.50273384173E+01  0.43177683742E+01  0.13214602146E+02  0.17770000000E+01 0. -1.
</event>
<event>
 7    1  0.3234965E-006  0.4099233E+03  0.7546771E-02  0.9627526E-01
        -11   -1    0    0    0    0  0.00000000000E+00  0.00000000000E+00  0.50000000000E+03  0.50000000000E+03  0.00000000000E+00 0. -1.
         11   -1    0    0    0    0 -0.00000000000E+00 -0.00000000000E+00 -0.50000000000E+03  0.50000000000E+03  0.00000000000E+00 0. -1.
         23    2    1    2    0    0  0.17784095003E+03  0.30345198954E+03 -0.13766593235E+03  0.38829772288E+03  0.90070523460E+02 0.  0.
        -11    1    1    2    0    0 -0.34959864054E+02  0.11212457636E+03  0.12577906745E+03  0.17208860080E+03  0.00000000000E+00 0. -1.
         11    1    1    2    0    0 -0.14288108598E+03 -0.41557656590E+03  0.11886864902E+02  0.43961367632E+03  0.00000000000E+00 0. -1.
        -15    1    3    3    0    0  0.34314943678E+02  0.32775712387E+02 -0.51458588932E+02  0.70020759678E+02  0.17770000000E+01 0.  1.
         15    1    3    3    0    0  0.14352600635E+03  0.27067627715E+03 -0.86207343418E+02  0.31827696320E+03  0.17770000000E+01 0. -1.
</event>
<event>
 7    1  0.3234965E-006  0.4529372E+03  0.7546771E-02  0.9511748E-01
        -11   -1    0    0    0    0  0.00000000000E+00  0.00000000000E+00  0.50000000000E+03  0.50000000000E+03  0.00000000000E+00 0.  1.
         11   -1    0    0    0    0 -0.00000000000E+00 -0.00000000000E+00 -0.50000000000E+03  0.50000000000E+03  0.00000000000E+00 0. -1.
         23    2    1    2    0    0  0.35466500769E+02 -0.11398036098E+03 -0.38288955554E+03  0.41740271880E+03  0.11563400257E+03 0.  0.
        -11    1    1    2    0    0 -0.97169000368E+02  0.87516002819E+02  0.46123794572E+03  0.47941767589E+03  0.00000000000E+00 0.  1.
         11    1    1    2    0    0  0.61702499599E+02  0.26464358163E+02 -0.78348390178E+02  0.10317960532E+03  0.00000000000E+00 0. -1.
        -15    1    3    3    0    0  0.81679138228E+01 -0.64874264306E+02 -0.57184977322E+02  0.86883049818E+02  0.17770000000E+01 0.  1.
         15    1    3    3    0    0  0.27298586946E+02 -0.49106096676E+02 -0.32570457822E+03  0.33051966898E+03  0.17770000000E+01 0. -1.
</event>
<event>
 7    1  0.3234965E-006  0.3939446E+03  0.7546771E-02  0.9674464E-01
        -11   -1    0    0    0    0  0.00000000000E+00  0.00000000000E+00  0.50000000000E+03  0.50000000000E+03  0.00000000000E+00 0. -1.
         11   -1    0    0    0    0 -0.00000000000E+00 -0.00000000000E+00 -0.50000000000E+03  0.50000000000E+03  0.00000000000E+00 0. -1.
         23    2    1    2    0    0 -0.12613208000E+03  0.50075278662E+02  0.10440310681E+03  0.19372077402E+03  0.90613985890E+02 0.  0.
        -11    1    1    2    0    0  0.42118768879E+03 -0.17002697938E+03  0.41187393692E+02  0.45607526166E+03  0.00000000000E+00 0. -1.
         11    1    1    2    0    0 -0.29505560879E+03  0.11995170072E+03 -0.14559050051E+03  0.35020396431E+03  0.00000000000E+00 0. -1.
        -15    1    3    3    0    0 -0.38005550503E+02 -0.26139443588E+02  0.22967105151E+02  0.51559073190E+02  0.17770000000E+01 0.  1.
         15    1    3    3    0    0 -0.88126529492E+02  0.76214722251E+02  0.81436001664E+02  0.14216170083E+03  0.17770000000E+01 0. -1.
</event>
<event>
 7    1  0.3234965E-006  0.5206921E+03  0.7546771E-02  0.9354664E-01
        -11   -1    0    0    0    0  0.00000000000E+00  0.00000000000E+00  0.50000000000E+03  0.50000000000E+03  0.00000000000E+00 0. -1.
         11   -1    0    0    0    0 -0.00000000000E+00 -0.00000000000E+00 -0.50000000000E+03  0.50000000000E+03  0.00000000000E+00 0.  1.
         23    2    1    2    0    0 -0.44790155757E+02 -0.37114517516E+02 -0.40639860763E+03  0.42038274324E+03  0.90433274124E+02 0.  0.
        -11    1    1    2    0    0  0.22543240328E+02  0.11574231558E+03  0.46457681491E+03  0.47930793677E+03  0.00000000000E+00 0. -1.
         11    1    1    2    0    0  0.22246915429E+02 -0.78627798067E+02 -0.58178207282E+02  0.10030931999E+03  0.00000000000E+00 0.  1.
        -15    1    3    3    0    0 -0.66789237397E+02 -0.48137115155E+02 -0.29445666898E+03  0.30575459396E+03  0.17770000000E+01 0.  1.
         15    1    3    3    0    0  0.21999081640E+02  0.11022597639E+02 -0.11194193864E+03  0.11462814928E+03  0.17770000000E+01 0. -1.
</event>
<event>
 7    1  0.3234965E-006  0.5247414E+03  0.7546771E-02  0.9346089E-01
        -11   -1    0    0    0    0  0.00000000000E+00  0.00000000000E+00  0.50000000000E+03  0.50000000000E+03  0.00000000000E+00 0.  1.
         11   -1    0    0    0    0 -0.00000000000E+00 -0.00000000000E+00 -0.50000000000E+03  0.50000000000E+03  0.00000000000E+00 0. -1.
         23    2    1    2    0    0 -0.28882732199E+02  0.87724929603E+02 -0.25611669799E+03  0.28709673077E+03  0.91098267483E+02 0.  0.
        -11    1    1    2    0    0 -0.11021176645E+03 -0.12406886330E+03  0.44534366865E+03  0.47525856069E+03  0.00000000000E+00 0.  1.
         11    1    1    2    0    0  0.13909449865E+03  0.36343933700E+02 -0.18922697066E+03  0.23764470854E+03  0.00000000000E+00 0. -1.
        -15    1    3    3    0    0 -0.57054348588E+02  0.79214401885E+02 -0.16963507389E+03  0.19572770928E+03  0.17770000000E+01 0.  1.
         15    1    3    3    0    0  0.28171616389E+02  0.85105277180E+01 -0.86481624097E+02  0.91369021487E+02  0.17770000000E+01 0. -1.
</event>
<event>
 7    1  0.3234965E-006  0.5206840E+03  0.7546771E-02  0.9354681E-01
        -11   -1    0    0    0    0  0.00000000000E+00  0.00000000000E+00  0.50000000000E+03  0.50000000000E+03  0.00000000000E+00 0.  1.
         11   -1    0    0    0    0 -0.00000000000E+00 -0.00000000000E+00 -0.50000000000E+03  0.50000000000E+03  0.00000000000E+00 0. -1.
         23    2    1    2    0    0 -0.65410582600E+02  0.65183455320E+02 -0.16593649065E+03  0.21270896080E+03  0.95826697278E+02 0.  0.
        -11    1    1    2    0    0  0.12548010831E+03 -0.79814627640E+01  0.46253088863E+03  0.47931595452E+03  0.00000000000E+00 0.  1.
         11    1    1    2    0    0 -0.60069525708E+02 -0.57201992556E+02 -0.29659439797E+03  0.30797508468E+03  0.00000000000E+00 0. -1.
        -15    1    3    3    0    0 -0.26595098422E+02  0.55391123695E+02 -0.25297034836E+02  0.66472351732E+02  0.17770000000E+01 0.  1.
         15    1    3    3    0    0 -0.38815484178E+02  0.97923316256E+01 -0.14063945582E+03  0.14623660907E+03  0.17770000000E+01 0. -1.
</event>
<event>
 7    1  0.3234965E-006  0.4756162E+03  0.7546771E-02  0.9456087E-01
        -11   -1    0    0    0    0  0.00000000000E+00  0.00000000000E+00  0.50000000000E+03  0.50000000000E+03  0.00000000000E+00 0.  1.
         11   -1    0    0    0    0 -0.00000000000E+00 -0.00000000000E+00 -0.50000000000E+03  0.50000000000E+03  0.00000000000E+00 0. -1.
         23    2    1    2    0    0 -0.87485195467E+02  0.63167161236E+02  0.42977606165E+03  0.45222921637E+03  0.90333002165E+02 0.  0.
        -11    1    1    2    0    0  0.11800362937E+02 -0.10471757047E+02  0.53498117564E+02  0.55775934273E+02  0.00000000000E+00 0.  1.
         11    1    1    2    0    0  0.75684832530E+02 -0.52695404189E+02 -0.48327417922E+03  0.49199484936E+03  0.00000000000E+00 0. -1.
        -15    1    3    3    0    0 -0.39646740190E+02  0.80473899015E+02  0.28209183015E+03  0.29601836227E+03  0.17770000000E+01 0.  1.
         15    1    3    3    0    0 -0.47838455277E+02 -0.17306737780E+02  0.14768423150E+03  0.15621085410E+03  0.17770000000E+01 0. -1.
</event>
<event>
 7    1  0.3234965E-006  0.4544200E+03  0.7546771E-02  0.9508004E-01
        -11   -1    0    0    0    0  0.00000000000E+00  0.00000000000E+00  0.50000000000E+03  0.50000000000E+03  0.00000000000E+00 0.  1.
         11   -1    0    0    0    0 -0.00000000000E+00 -0.00000000000E+00 -0.50000000000E+03  0.50000000000E+03  0.00000000000E+00 0.  1.
         23    2    1    2    0    0 -0.10551456721E+02  0.32197348514E+02 -0.42858292168E+03  0.44104350177E+03  0.98427878223E+02 0.  0.
        -11    1    1    2    0    0  0.69653793794E+02 -0.10719457404E+03  0.44417503407E+03  0.46220535326E+03  0.00000000000E+00 0.  1.
         11    1    1    2    0    0 -0.59102337074E+02  0.74997225524E+02 -0.15592112387E+02  0.96751144967E+02  0.00000000000E+00 0.  1.
        -15    1    3    3    0    0  0.55968308702E+01 -0.34700958814E+02 -0.13801340035E+03  0.14243011431E+03  0.17770000000E+01 0. -1.
         15    1    3    3    0    0 -0.16148287591E+02  0.66898307328E+02 -0.29056952133E+03  0.29861338746E+03  0.17770000000E+01 0.  1.
</event>
<event>
 7    1  0.3234965E-006  0.5276044E+03  0.7546771E-02  0.9340077E-01
        -11   -1    0    0    0    0  0.00000000000E+00  0.00000000000E+00  0.50000000000E+03  0.50000000000E+03  0.00000000000E+00 0. -1.
         11   -1    0    0    0    0 -0.00000000000E+00 -0.00000000000E+00 -0.50000000000E+03  0.50000000000E+03  0.00000000000E+00 0.  1.
         23    2    1    2    0    0  0.58753125551E+02 -0.31108713202E+02 -0.38338673533E+03  0.39878438754E+03  0.87315045214E+02 0.  0.
        -11    1    1    2    0    0 -0.75216188872E+02 -0.70354495630E+02  0.46103189482E+03  0.47239563733E+03  0.00000000000E+00 0. -1.
         11    1    1    2    0    0  0.16463063321E+02  0.10146320883E+03 -0.77645159494E+02  0.12881997513E+03  0.00000000000E+00 0.  1.
        -15    1    3    3    0    0  0.66835440804E+02 -0.24750301061E+02 -0.38159248434E+03  0.38819522844E+03  0.17770000000E+01 0.  1.
         15    1    3    3    0    0 -0.80823152528E+01 -0.63584121409E+01 -0.17942509869E+01  0.10589159098E+02  0.17770000000E+01 0. -1.
</event>
<event>
 7    1  0.3234965E-006  0.5208643E+03  0.7546771E-02  0.9354297E-01
        -11   -1    0    0    0    0  0.00000000000E+00  0.00000000000E+00  0.50000000000E+03  0.50000000000E+03  0.00000000000E+00 0. -1.
         11   -1    0    0    0    0 -0.00000000000E+00 -0.00000000000E+00 -0.50000000000E+03  0.50000000000E+03  0.00000000000E+00 0.  1.
         23    2    1    2    0    0  0.35652567180E+02 -0.55520447750E+02  0.95171709524E+02  0.14760043593E+03  0.91512888317E+02 0.  0.
        -11    1    1    2    0    0 -0.44578961499E+02 -0.11887955901E+03  0.35100755958E+03  0.37326390160E+03  0.00000000000E+00 0. -1.
         11    1    1    2    0    0  0.89263943191E+01  0.17440000676E+03 -0.44617926910E+03  0.47913566247E+03  0.00000000000E+00 0.  1.
        -15    1    3    3    0    0 -0.21338717949E+02 -0.46678795597E+02  0.63871415113E+02  0.81957099995E+02  0.17770000000E+01 0.  1.
         15    1    3    3    0    0  0.56991285129E+02 -0.88416521537E+01  0.31300294411E+02  0.65643335935E+02  0.17770000000E+01 0. -1.
</event>
<event>
 7    1  0.3234965E-006  0.3146178E+03  0.7546771E-02  0.9948936E-01
        -11   -1    0    0    0    0  0.00000000000E+00  0.00000000000E+00  0.50000000000E+03  0.50000000000E+03  0.00000000000E+00 0.  1.
         11   -1    0    0    0    0 -0.00000000000E+00 -0.00000000000E+00 -0.50000000000E+03  0.50000000000E+03  0.00000000000E+00 0.  1.
         23    2    1    2    0    0 -0.16776064585E+03 -0.19454775344E+03 -0.13639771798E+03  0.30679421156E+03  0.97600656305E+02 0.  0.
        -11    1    1    2    0    0  0.68197305505E+02 -0.75394982229E+02  0.33073310721E+03  0.34600529480E+03  0.00000000000E+00 0.  1.
         11    1    1    2    0    0  0.99563340349E+02  0.26994273567E+03 -0.19433538923E+03  0.34720049365E+03  0.00000000000E+00 0.  1.
        -15    1    3    3    0    0 -0.37374108439E+01 -0.64805910807E+02 -0.42003203809E+02  0.77338225830E+02  0.17770000000E+01 0. -1.
         15    1    3    3    0    0 -0.16402323501E+03 -0.12974184263E+03 -0.94394514170E+02  0.22945598573E+03  0.17770000000E+01 0.  1.
</event>
<event>
 7    1  0.3234965E-006  0.5091367E+03  0.7546771E-02  0.9379595E-01
        -11   -1    0    0    0    0  0.00000000000E+00  0.00000000000E+00  0.50000000000E+03  0.50000000000E+03  0.00000000000E+00 0.  1.
         11   -1    0    0    0    0 -0.00000000000E+00 -0.00000000000E+00 -0.50000000000E+03  0.50000000000E+03  0.00000000000E+00 0. -1.
         23    2    1    2    0    0  0.54363808134E+02  0.79798600935E+02  0.34155663896E+03  0.36653804369E+03  0.91465619289E+02 0.  0.
        -11    1    1    2    0    0  0.33288281998E+02  0.77176478683E+02  0.11519572711E+03  0.14259864699E+03  0.00000000000E+00 0.  1.
         11    1    1    2    0    0 -0.87652090131E+02 -0.15697507962E+03 -0.45675236607E+03  0.49086330932E+03  0.00000000000E+00 0. -1.
        -15    1    3    3    0    0  0.73697964126E+02  0.30073569650E+02  0.20544699913E+03  0.22033482858E+03  0.17770000000E+01 0.  1.
         15    1    3    3    0    0 -0.19334155993E+02  0.49725031285E+02  0.13610963983E+03  0.14620321511E+03  0.17770000000E+01 0. -1.
</event>
<event>
 7    1  0.3234965E-006  0.4353787E+03  0.7546771E-02  0.9557282E-01
        -11   -1    0    0    0    0  0.00000000000E+00  0.00000000000E+00  0.50000000000E+03  0.50000000000E+03  0.00000000000E+00 0. -1.
         11   -1    0    0    0    0 -0.00000000000E+00 -0.00000000000E+00 -0.50000000000E+03  0.50000000000E+03  0.00000000000E+00 0. -1.
         23    2    1    2    0    0 -0.19637238028E+03 -0.87222587234E+01 -0.40230866047E+03  0.45725704033E+03  0.92701419152E+02 0.  0.
        -11    1    1    2    0    0  0.78120984611E+02  0.61581914203E+02  0.40105644889E+03  0.41320877967E+03  0.00000000000E+00 0. -1.
         11    1    1    2    0    0  0.11825139567E+03 -0.52859655480E+02  0.12522115769E+01  0.12953418000E+03  0.00000000000E+00 0. -1.
        -15    1    3    3    0    0 -0.74569532699E+02  0.22793542913E+02 -0.23703082539E+03  0.24953342605E+03  0.17770000000E+01 0.  1.
         15    1    3    3    0    0 -0.12180284758E+03 -0.31515801636E+02 -0.16527783508E+03  0.20772361428E+03  0.17770000000E+01 0. -1.
</event>
<event>
 7    1  0.3234965E-006  0.3642665E+03  0.7546771E-02  0.9768305E-01
        -11   -1    0    0    0    0  0.00000000000E+00  0.00000000000E+00  0.50000000000E+03  0.50000000000E+03  0.00000000000E+00 0.  1.
         11   -1    0    0    0    0 -0.00000000000E+00 -0.00000000000E+00 -0.50000000000E+03  0.50000000000E+03  0.00000000000E+00 0. -1.
         23    2    1    2    0    0  0.42798141618E+02 -0.99678186487E+02 -0.34639861620E+03  0.37405272815E+03  0.90310687859E+02 0.  0.
        -11    1    1    2    0    0  0.73950953165E+02 -0.11290986908E+03  0.35854342073E+03  0.38310672998E+03  0.00000000000E+00 0.  1.
         11    1    1    2    0    0 -0.11674909478E+03  0.21258805556E+03 -0.12144804526E+02  0.24284054187E+03  0.00000000000E+00 0. -1.
        -15    1    3    3    0    0 -0.40647784947E+01 -0.90525573196E+02 -0.18985488266E+03  0.21037926710E+03  0.17770000000E+01 0. -1.
         15    1    3    3    0    0  0.46862920113E+02 -0.91526132917E+01 -0.15654373354E+03  0.16367346105E+03  0.17770000000E+01 0.  1.
</event>
<event>
 7    1  0.3234965E-006  0.4640690E+03  0.7546771E-02  0.9484004E-01
        -11   -1    0    0    0    0  0.00000000000E+00  0.00000000000E+00  0.50000000000E+03  0.50000000000E+03  0.00000000000E+00 0. -1.
         11   -1    0    0    0    0 -0.00000000000E+00 -0.00000000000E+00 -0.50000000000E+03  0.50000000000E+03  0.00000000000E+00 0.  1.
         23    2    1    2    0    0  0.44000048125E+02 -0.14319207261E+03 -0.41145349150E+03  0.44721669093E+03  0.90933047252E+02 0.  0.
        -11    1    1    2    0    0 -0.68414744914E+02  0.89329084408E+02  0.46168082145E+03  0.47519411143E+03  0.00000000000E+00 0. -1.
         11    1    1    2    0    0  0.24414696788E+02  0.53862988204E+02 -0.50227329944E+02  0.77589197642E+02  0.00000000000E+00 0.  1.
        -15    1    3    3    0    0  0.55581762708E+02 -0.43066044505E+02 -0.21810624104E+03  0.22916698419E+03  0.17770000000E+01 0. -1.
         15    1    3    3    0    0 -0.11581714583E+02 -0.10012602811E+03 -0.19334725047E+03  0.21804970674E+03  0.17770000000E+01 0.  1.
</event>
<event>
 7    1  0.3234965E-006  0.3701512E+03  0.7546771E-02  0.9748954E-01
        -11   -1    0    0    0    0  0.00000000000E+00  0.00000000000E+00  0.50000000000E+03  0.50000000000E+03  0.00000000000E+00 0. -1.
         11   -1    0    0    0    0 -0.00000000000E+00 -0.00000000000E+00 -0.50000000000E+03  0.50000000000E+03  0.00000000000E+00 0. -1.
         23    2    1    2    0    0  0.45265074325E+02 -0.14189454049E+03 -0.38013798837E+03  0.41882649642E+03  0.93422461547E+02 0.  0.
        -11    1    1    2    0    0  0.13152651513E+03 -0.59196617125E+00  0.32045566362E+03  0.34639775830E+03  0.00000000000E+00 0. -1.
         11    1    1    2    0    0 -0.17679158946E+03  0.14248650666E+03  0.59682324752E+02  0.23477574528E+03  0.00000000000E+00 0. -1.
        -15    1    3    3    0    0 -0.14652957068E+02 -0.85054468480E+02 -0.25192888039E+03  0.26630863723E+03  0.17770000000E+01 0.  1.
         15    1    3    3    0    0  0.59918031394E+02 -0.56840072013E+02 -0.12820910798E+03  0.15251785919E+03  0.17770000000E+01 0. -1.
</event>
<event>
 7    1  0.3234965E-006  0.5282090E+03  0.7546771E-02  0.9338812E-01
        -11   -1    0    0    0    0  0.00000000000E+00  0.00000000000E+00  0.50000000000E+03  0.50000000000E+03  0.00000000000E+00 0.  1.
         11   -1    0    0    0    0 -0.00000000000E+00 -0.00000000000E+00 -0.50000000000E+03  0.50000000000E+03  0.00000000000E+00 0. -1.
         23    2    1    2    0    0 -0.24389035462E+02  0.37821829845E+02 -0.86986574022E+02  0.13194708222E+03  0.88419752220E+02 0.  0.
        -11    1    1    2    0    0 -0.12693627802E+03 -0.33112887385E+02  0.45318592766E+03  0.47179102049E+03  0.00000000000E+00 0.  1.
         11    1    1    2    0    0  0.15132531348E+03 -0.47089424599E+01 -0.36619935364E+03  0.39626189729E+03  0.00000000000E+00 0. -1.
        -15    1    3    3    0    0 -0.15583140050E+02 -0.25795685280E+02 -0.10288229534E+02  0.31894467057E+02  0.17770000000E+01 0. -1.
         15    1    3    3    0    0 -0.88058954119E+01  0.63617515125E+02 -0.76698344488E+02  0.10005261516E+03  0.17770000000E+01 0.  1.
</event>
<event>
 7    1  0.3234965E-006  0.5072064E+03  0.7546771E-02  0.9383828E-01
        -11   -1    0    0    0    0  0.00000000000E+00  0.00000000000E+00  0.50000000000E+03  0.50000000000E+03  0.00000000000E+00 0.  1.
         11   -1    0    0    0    0 -0.00000000000E+00 -0.00000000000E+00 -0.50000000000E+03  0.50000000000E+03  0.00000000000E+00 0. -1.
         23    2    1    2    0    0  0.20640812068E+02 -0.71407609398E+02 -0.37164401414E+03  0.38878585922E+03  0.86660725151E+02 0.  0.
        -11    1    1    2    0    0  0.96638692990E+01  0.10091025009E+03  0.48225434956E+03  0.49279359433E+03  0.00000000000E+00 0.  1.
         11    1    1    2    0    0 -0.30304681367E+02 -0.29502640693E+02 -0.11061033542E+03  0.11842054645E+03  0.00000000000E+00 0. -1.
        -15    1    3    3    0    0 -0.29042835930E+02 -0.32577977612E+02 -0.22417864480E+03  0.22839446897E+03  0.17770000000E+01 0. -1.
         15    1    3    3    0    0  0.49683647998E+02 -0.38829631786E+02 -0.14746536934E+03  0.16039139025E+03  0.17770000000E+01 0.  1.
</event>
<event>
 7    1  0.3234965E-006  0.5081595E+03  0.7546771E-02  0.9381735E-01
        -11   -1    0    0    0    0  0.00000000000E+00  0.00000000000E+00  0.50000000000E+03  0.50000000000E+03  0.00000000000E+00 0. -1.
         11   -1    0    0    0    0 -0.00000000000E+00 -0.00000000000E+00 -0.50000000000E+03  0.50000000000E+03  0.00000000000E+00 0.  1.
         23    2    1    2    0    0 -0.24662204603E+02  0.45502881277E+02  0.29124831111E+03  0.30970412145E+03  0.91718741700E+02 0.  0.
        -11    1    1    2    0    0 -0.53996009452E+02  0.17281876578E+02  0.19018496403E+03  0.19845541776E+03  0.00000000000E+00 0. -1.
         11    1    1    2    0    0  0.78658214054E+02 -0.62784757855E+02 -0.48143327514E+03  0.49184046079E+03  0.00000000000E+00 0.  1.
        -15    1    3    3    0    0 -0.13325114617E+01  0.57544177996E+02  0.26944713268E+03  0.27553225409E+03  0.17770000000E+01 0. -1.
         15    1    3    3    0    0 -0.23329693141E+02 -0.12041296719E+02  0.21801178430E+02  0.34171867357E+02  0.17770000000E+01 0.  1.
</event>
<event>
 7    1  0.3234965E-006  0.5304802E+03  0.7546771E-02  0.9334077E-01
        -11   -1    0    0    0    0  0.00000000000E+00  0.00000000000E+00  0.50000000000E+03  0.50000000000E+03  0.00000000000E+00 0.  1.
         11   -1    0    0    0    0 -0.00000000000E+00 -0.00000000000E+00 -0.50000000000E+03  0.50000000000E+03  0.00000000000E+00 0. -1.
         23    2    1    2    0    0 -0.38477450647E+02 -0.68775137607E+01 -0.35487628312E+03  0.36837991154E+03  0.90767662188E+02 0.  0.
        -11    1    1    2    0    0  0.68679898604E+02 -0.12225553220E+03  0.44809094557E+03  0.46951979631E+03  0.00000000000E+00 0.  1.
         11    1    1    2    0    0 -0.30202447956E+02  0.12913304596E+03 -0.93214662447E+02  0.16210029215E+03  0.00000000000E+00 0. -1.
        -15    1    3    3    0    0 -0.11755497566E+02  0.37897997421E+02 -0.89411502320E+02  0.97836723206E+02  0.17770000000E+01 0.  1.
         15    1    3    3    0    0 -0.26721953082E+02 -0.44775511182E+02 -0.26546478080E+03  0.27054318833E+03  0.17770000000E+01 0. -1.
</event>
<event>
 7    1  0.3234965E-006  0.5172482E+03  0.7546771E-02  0.9362022E-01
        -11   -1    0    0    0    0  0.00000000000E+00  0.00000000000E+00  0.50000000000E+03  0.50000000000E+03  0.00000000000E+00 0.  1.
         11   -1    0    0    0    0 -0.00000000000E+00 -0.00000000000E+00 -0.50000000000E+03  0.50000000000E+03  0.00000000000E+00 0. -1.
         23    2    1    2    0    0 -0.18392724998E+02  0.30276315048E+02 -0.34069753939E+03  0.35509227163E+03  0.93598933959E+02 0.  0.
        -11    1    1    2    0    0 -0.70561807607E+02 -0.37855588027E+02  0.47606439138E+03  0.48275181924E+03  0.00000000000E+00 0.  1.
         11    1    1    2    0    0  0.88954532605E+02  0.75792729796E+01 -0.13536685199E+03  0.16215590913E+03  0.00000000000E+00 0. -1.
        -15    1    3    3    0    0  0.21532420632E+02 -0.15177019260E+02 -0.37195071019E+02  0.45613792750E+02  0.17770000000E+01 0. -1.
         15    1    3    3    0    0 -0.39925145629E+02  0.45453334307E+02 -0.30350246837E+03  0.30947847888E+03  0.17770000000E+01 0.  1.
</event>
<event>
 7    1  0.3234965E-006  0.3672282E+03  0.7546771E-02  0.9758517E-01
        -11   -1    0    0    0    0  0.00000000000E+00  0.00000000000E+00  0.50000000000E+03  0.50000000000E+03  0.00000000000E+00 0. -1.
         11   -1    0    0    0    0 -0.00000000000E+00 -0.00000000000E+00 -0.50000000000E+03  0.50000000000E+03  0.00000000000E+00 0. -1.
         23    2    1    2    0    0  0.11776842416E+03 -0.12363266640E+03 -0.31113146731E+03  0.36642626902E+03  0.91164591534E+02 0.  0.
        -11    1    1    2    0    0 -0.71195717945E+02 -0.10158367193E+03  0.37492083444E+03  0.39490974254E+03  0.00000000000E+00 0. -1.
         11    1    1    2    0    0 -0.46572706220E+02  0.22521633833E+03 -0.63789367137E+02  0.23866398844E+03  0.00000000000E+00 0. -1.
        -15    1    3    3    0    0  0.97680621470E+02 -0.13734133306E+03 -0.26118957679E+03  0.31084931772E+03  0.17770000000E+01 0. -1.
         15    1    3    3    0    0  0.20087802695E+02  0.13708666651E+02 -0.49941890517E+02  0.55576951300E+02  0.17770000000E+01 0.  1.
</event>
<event>
 7    1  0.3234965E-006  0.5213825E+03  0.7546771E-02  0.9353196E-01
        -11   -1    0    0    0    0  0.00000000000E+00  0.00000000000E+00  0.50000000000E+03  0.50000000000E+03  0.00000000000E+00 0. -1.
         11   -1    0    0    0    0 -0.00000000000E+00 -0.00000000000E+00 -0.50000000000E+03  0.50000000000E+03  0.00000000000E+00 0. -1.
         23    2    1    2    0    0 -0.90242980060E+02  0.65924439644E+02 -0.28519808117E+03  0.32006392653E+03  0.92807027591E+02 0.  0.
        -11    1    1    2    0    0  0.13891541373E+02 -0.12596657077E+03  0.46153458496E+03  0.47861751429E+03  0.00000000000E+00 0. -1.
         11    1    1    2    0    0  0.76351438687E+02  0.60042131128E+02 -0.17633650379E+03  0.20131855918E+03  0.00000000000E+00 0. -1.
        -15    1    3    3    0    0 -0.62781543922E+02  0.40646056378E+02 -0.72740704606E+02  0.10434554131E+03  0.17770000000E+01 0.  1.
         15    1    3    3    0    0 -0.27461436138E+02  0.25278383265E+02 -0.21245737656E+03  0.21571838522E+03  0.17770000000E+01 0. -1.
</event>
<event>
 7    1  0.3234965E-006  0.5307306E+03  0.7546771E-02  0.9333557E-01
        -11   -1    0    0    0    0  0.00000000000E+00  0.00000000000E+00  0.50000000000E+03  0.50000000000E+03  0.00000000000E+00 0.  1.
         11   -1    0    0    0    0 -0.00000000000E+00 -0.00000000000E+00 -0.50000000000E+03  0.50000000000E+03  0.00000000000E+00 0.  1.
         23    2    1    2    0    0 -0.17420737325E+03 -0.20523078386E+03 -0.37354460052E+03  0.46926940317E+03  0.90610819614E+02 0.  0.
        -11    1    1    2    0    0  0.54023193538E+02  0.15608522211E+02  0.28320625934E+03  0.28873502859E+03  0.00000000000E+00 0.  1.
         11    1    1    2    0    0  0.12018417971E+03  0.18962226164E+03  0.90338341187E+02  0.24199556825E+03  0.00000000000E+00 0.  1.
        -15    1    3    3    0    0 -0.32101342454E+02 -0.30394126112E+02 -0.16788253044E+02  0.47321266453E+02  0.17770000000E+01 0. -1.
         15    1    3    3    0    0 -0.14210603079E+03 -0.17483665774E+03 -0.35675634748E+03  0.42194813671E+03  0.17770000000E+01 0.  1.
</event>
<event>
 7    1  0.3234965E-006  0.4724540E+03  0.7546771E-02  0.9463647E-01
        -11   -1    0    0    0    0  0.00000000000E+00  0.00000000000E+00  0.50000000000E+03  0.50000000000E+03  0.00000000000E+00 0.  1.
         11   -1    0    0    0    0 -0.00000000000E+00 -0.00000000000E+00 -0.50000000000E+03  0.50000000000E+03  0.00000000000E+00 0. -1.
         23    2    1    2    0    0 -0.51899059276E+02  0.10920388352E+03  0.41883217579E+03  0.44547771227E+03  0.91711504830E+02 0.  0.
        -11    1    1    2    0    0 -0.60527964047E+01  0.40166159894E+02  0.46874767697E+02  0.62025805852E+02  0.00000000000E+00 0.  1.
         11    1    1    2    0    0  0.57951855681E+02 -0.14937004341E+03 -0.46570694349E+03  0.49249648188E+03  0.00000000000E+00 0. -1.
        -15    1    3    3    0    0 -0.58493717730E+02  0.65192375886E+02  0.15614726084E+03  0.17904380940E+03  0.17770000000E+01 0. -1.
         15    1    3    3    0    0  0.65946584537E+01  0.44011507634E+02  0.26268491496E+03  0.26643390287E+03  0.17770000000E+01 0.  1.
</event>
<event>
 7    1  0.3234965E-006  0.5197634E+03  0.7546771E-02  0.9356642E-01
        -11   -1    0    0    0    0  0.00000000000E+00  0.00000000000E+00  0.50000000000E+03  0.50000000000E+03  0.00000000000E+00 0. -1.
         11   -1    0    0    0    0 -0.00000000000E+00 -0.00000000000E+00 -0.50000000000E+03  0.50000000000E+03  0.00000000000E+00 0.  1.
         23    2    1    2    0    0 -0.28967366310E+02  0.29841798735E+02 -0.16270810855E+03  0.19137461394E+03  0.91764225108E+02 0.  0.
        -11    1    1    2    0    0  0.34456611955E+02  0.79254479596E+02  0.47239674305E+03  0.48023662239E+03  0.00000000000E+00 0. -1.
         11    1    1    2    0    0 -0.54892456452E+01 -0.10909627833E+03 -0.30968863450E+03  0.32838876366E+03  0.00000000000E+00 0.  1.
        -15    1    3    3    0    0 -0.10912753606E+02  0.58665595895E+02 -0.66748456620E+02  0.89550290469E+02  0.17770000000E+01 0. -1.
         15    1    3    3    0    0 -0.18054612703E+02 -0.28823797159E+02 -0.95959651934E+02  0.10182432347E+03  0.17770000000E+01 0.  1.
</event>
<event>
 7    1  0.3234965E-006  0.4540430E+03  0.7546771E-02  0.9508954E-01
        -11   -1    0    0    0    0  0.00000000000E+00  0.00000000000E+00  0.50000000000E+03  0.50000000000E+03  0.00000000000E+00 0. -1.
         11   -1    0    0    0    0 -0.00000000000E+00 -0.00000000000E+00 -0.50000000000E+03  0.50000000000E+03  0.00000000000E+00 0.  1.
         23    2    1    2    0    0  0.18255524628E+02  0.16501253410E+02 -0.92646440397E+01  0.91533369483E+02  0.87675358888E+02 0.  0.
        -11    1    1    2    0    0  0.37081338702E+03 -0.24471552222E+03  0.81383036075E+02  0.45167627054E+03  0.00000000000E+00 0. -1.
         11    1    1    2    0    0 -0.38906891164E+03  0.22821426881E+03 -0.72118392035E+02  0.45679035998E+03  0.00000000000E+00 0.  1.
        -15    1    3    3    0    0  0.18907659692E+02  0.51707313426E+02 -0.11246195398E+02  0.56220819068E+02  0.17770000000E+01 0.  1.
         15    1    3    3    0    0 -0.65213506352E+00 -0.35206060016E+02  0.19815513578E+01  0.35312550415E+02  0.17770000000E+01 0. -1.
</event>
<event>
 7    1  0.4194566E-006  0.5194999E+03  0.7546771E-02  0.9357204E-01
        -11   -1    0    0    0    0  0.00000000000E+00  0.00000000000E+00  0.50000000000E+03  0.50000000000E+03  0.00000000000E+00 0. -1.
         11   -1    0    0    0    0 -0.00000000000E+00 -0.00000000000E+00 -0.50000000000E+03  0.50000000000E+03  0.00000000000E+00 0.  1.
         23    2    1    2    0    0 -0.48725385139E+01  0.43874128381E+02  0.22165292998E+03  0.24376098861E+03  0.91327528298E+02 0.  0.
        -11    1    1    2    0    0 -0.14902430199E+03 -0.56791155483E+01  0.23192979524E+03  0.27573887077E+03  0.00000000000E+00 0. -1.
         11    1    1    2    0    0  0.15389684050E+03 -0.38195012833E+02 -0.45358272522E+03  0.48050014062E+03  0.00000000000E+00 0.  1.
        -15    1    3    3    0    0  0.51678168985E+01  0.71630772230E+02  0.15441445054E+03  0.17030752810E+03  0.17770000000E+01 0.  1.
         15    1    3    3    0    0 -0.10040355412E+02 -0.27756643849E+02  0.67238479436E+02  0.73453460507E+02  0.17770000000E+01 0. -1.
</event>
<event>
 7    1  0.3234965E-006  0.5077085E+03  0.7546771E-02  0.9382725E-01
        -11   -1    0    0    0    0  0.00000000000E+00  0.00000000000E+00  0.50000000000E+03  0.50000000000E+03  0.00000000000E+00 0.  1.
         11   -1    0    0    0    0 -0.00000000000E+00 -0.00000000000E+00 -0.50000000000E+03  0.50000000000E+03  0.00000000000E+00 0. -1.
         23    2    1    2    0    0  0.41560560916E+02  0.66024684655E+01  0.18676519170E+03  0.20654593549E+03  0.77518474084E+02 0.  0.
        -11    1    1    2    0    0  0.86544933009E+02  0.63868548210E+01  0.28838870536E+03  0.30116251879E+03  0.00000000000E+00 0.  1.
         11    1    1    2    0    0 -0.12810549393E+03 -0.12989323286E+02 -0.47515389706E+03  0.49229154572E+03  0.00000000000E+00 0. -1.
        -15    1    3    3    0    0  0.22222580037E+02  0.42138371918E+02  0.98032070255E+02  0.10900885275E+03  0.17770000000E+01 0. -1.
         15    1    3    3    0    0  0.19337980879E+02 -0.35535903453E+02  0.88733121445E+02  0.97537082738E+02  0.17770000000E+01 0.  1.
</event>
<event>
 7    1  0.3234965E-006  0.3434399E+03  0.7546771E-02  0.9840072E-01
        -11   -1    0    0    0    0  0.00000000000E+00  0.00000000000E+00  0.50000000000E+03  0.50000000000E+03  0.00000000000E+00 0. -1.
         11   -1    0    0    0    0 -0.00000000000E+00 -0.00000000000E+00 -0.50000000000E+03  0.50000000000E+03  0.00000000000E+00 0. -1.
         23    2    1    2    0    0  0.58432023587E+02  0.10342110890E+01 -0.24533635625E+03  0.26828334166E+03  0.91491271385E+02 0.  0.
        -11    1    1    2    0    0  0.31284809124E+02  0.33018781567E+03  0.19539478654E+03  0.38494396411E+03  0.00000000000E+00 0. -1.
         11    1    1    2    0    0 -0.89716832711E+02 -0.33122202676E+03  0.49941569708E+02  0.34677269423E+03  0.00000000000E+00 0. -1.
        -15    1    3    3    0    0 -0.14159336472E+02 -0.25283708733E+02 -0.44770271518E+02  0.53359981985E+02  0.17770000000E+01 0.  1.
         15    1    3    3    0    0  0.72591360059E+02  0.26317919822E+02 -0.20056608473E+03  0.21492335967E+03  0.17770000000E+01 0. -1.
</event>
<event>
 7    1  0.3234965E-006  0.4475882E+03  0.7546771E-02  0.9525383E-01
        -11   -1    0    0    0    0  0.00000000000E+00  0.00000000000E+00  0.50000000000E+03  0.50000000000E+03  0.00000000000E+00 0.  1.
         11   -1    0    0    0    0 -0.00000000000E+00 -0.00000000000E+00 -0.50000000000E+03  0.50000000000E+03  0.00000000000E+00 0. -1.
         23    2    1    2    0    0 -0.34416327194E+02  0.46956191460E+02 -0.41734752765E+03  0.43212103150E+03  0.95709244747E+02 0.  0.
        -11    1    1    2    0    0  0.78408703079E+02  0.46683389096E+02  0.45017988219E+03  0.45933559612E+03  0.00000000000E+00 0.  1.
         11    1    1    2    0    0 -0.43992375885E+02 -0.93639580557E+02 -0.32832354541E+02  0.10854337238E+03  0.00000000000E+00 0. -1.
        -15    1    3    3    0    0  0.31677320879E+02  0.83191253582E+01 -0.86077891660E+02  0.92115262940E+02  0.17770000000E+01 0.  1.
         15    1    3    3    0    0 -0.66093648073E+02  0.38637066102E+02 -0.33126963599E+03  0.34000576856E+03  0.17770000000E+01 0. -1.
</event>
<event>
 7    1  0.3234965E-006  0.5250765E+03  0.7546771E-02  0.9345384E-01
        -11   -1    0    0    0    0  0.00000000000E+00  0.00000000000E+00  0.50000000000E+03  0.50000000000E+03  0.00000000000E+00 0.  1.
         11   -1    0    0    0    0 -0.00000000000E+00 -0.00000000000E+00 -0.50000000000E+03  0.50000000000E+03  0.00000000000E+00 0. -1.
         23    2    1    2    0    0  0.75185272858E+00 -0.12527741914E+02  0.73340585794E+02  0.11787250652E+03  0.91419782695E+02 0.  0.
        -11    1    1    2    0    0 -0.47248261291E+02  0.11092193794E+03  0.38894607696E+03  0.40720403399E+03  0.00000000000E+00 0.  1.
         11    1    1    2    0    0  0.46496408563E+02 -0.98394196028E+02 -0.46228666275E+03  0.47492345950E+03  0.00000000000E+00 0. -1.
        -15    1    3    3    0    0 -0.28634020634E+02 -0.27452019212E+02  0.25783383150E+01  0.39791029818E+02  0.17770000000E+01 0. -1.
         15    1    3    3    0    0  0.29385873363E+02  0.14924277299E+02  0.70762247479E+02  0.78081476699E+02  0.17770000000E+01 0.  1.
</event>
<event>
 7    1  0.3234965E-006  0.4461751E+03  0.7546771E-02  0.9529019E-01
        -11   -1    0    0    0    0  0.00000000000E+00  0.00000000000E+00  0.50000000000E+03  0.50000000000E+03  0.00000000000E+00 0.  1.
         11   -1    0    0    0    0 -0.00000000000E+00 -0.00000000000E+00 -0.50000000000E+03  0.50000000000E+03  0.00000000000E+00 0. -1.
         23    2    1    2    0    0  0.57258456530E+02 -0.29622968665E+02 -0.42416640968E+03  0.44422718616E+03  0.11517203962E+03 0.  0.
        -11    1    1    2    0    0  0.56356897750E+02  0.45859740013E+02  0.43450529494E+03  0.44053838313E+03  0.00000000000E+00 0.  1.
         11    1    1    2    0    0 -0.11361535428E+03 -0.16236771348E+02 -0.10338885264E+02  0.11523443071E+03  0.00000000000E+00 0. -1.
        -15    1    3    3    0    0  0.64422759435E+02  0.23760904740E+02 -0.15232897798E+03  0.16709921541E+03  0.17770000000E+01 0.  1.
         15    1    3    3    0    0 -0.71643029049E+01 -0.53383873405E+02 -0.27183743169E+03  0.27712797076E+03  0.17770000000E+01 0. -1.
</event>
<event>
 7    1  0.3234965E-006  0.5267893E+03  0.7546771E-02  0.9341784E-01
        -11   -1    0    0    0    0  0.00000000000E+00  0.00000000000E+00  0.50000000000E+03  0.50000000000E+03  0.00000000000E+00 0. -1.
         11   -1    0    0    0    0 -0.00000000000E+00 -0.00000000000E+00 -0.50000000000E+03  0.50000000000E+03  0.00000000000E+00 0.  1.
         23    2    1    2    0    0  0.93387322177E+01 -0.22082803231E+02  0.70287930764E+02  0.11831417007E+03  0.92103135178E+02 0.  0.
        -11    1    1    2    0    0  0.25346814802E+03 -0.56938496018E+02  0.31522026563E+03  0.40847510359E+03  0.00000000000E+00 0. -1.
         11    1    1    2    0    0 -0.26280688024E+03  0.79021299249E+02 -0.38550819639E+03  0.47321072634E+03  0.00000000000E+00 0.  1.
        -15    1    3    3    0    0 -0.21014471218E+02  0.16287328017E+02  0.63531835000E+02  0.68893663293E+02  0.17770000000E+01 0. -1.
         15    1    3    3    0    0  0.30353203436E+02 -0.38370131248E+02  0.67560957635E+01  0.49420506774E+02  0.17770000000E+01 0.  1.
</event>
<event>
 7    1  0.3234965E-006  0.5326403E+03  0.7546771E-02  0.9329598E-01
        -11   -1    0    0    0    0  0.00000000000E+00  0.00000000000E+00  0.50000000000E+03  0.50000000000E+03  0.00000000000E+00 0.  1.
         11   -1    0    0    0    0 -0.00000000000E+00 -0.00000000000E+00 -0.50000000000E+03  0.50000000000E+03  0.00000000000E+00 0. -1.
         23    2    1    2    0    0 -0.31691876156E+02  0.43598127556E+02 -0.20534802607E+03  0.23053162471E+03  0.89843455186E+02 0.  0.
        -11    1    1    2    0    0  0.13731171307E+03  0.13313781879E+03  0.42643281102E+03  0.46735974116E+03  0.00000000000E+00 0.  1.
         11    1    1    2    0    0 -0.10561983691E+03 -0.17673594634E+03 -0.22108478496E+03  0.30210863414E+03  0.00000000000E+00 0. -1.
        -15    1    3    3    0    0 -0.11977186222E+02 -0.93663233483E+01  0.21584512383E+01  0.15459548622E+02  0.17770000000E+01 0.  1.
         15    1    3    3    0    0 -0.19714689934E+02  0.52964450905E+02 -0.20750647730E+03  0.21507207608E+03  0.17770000000E+01 0. -1.
</event>
<event>
 7    1  0.3234965E-006  0.4621232E+03  0.7546771E-02  0.9488794E-01
        -11   -1    0    0    0    0  0.00000000000E+00  0.00000000000E+00  0.50000000000E+03  0.50000000000E+03  0.00000000000E+00 0. -1.
         11   -1    0    0    0    0 -0.00000000000E+00 -0.00000000000E+00 -0.50000000000E+03  0.50000000000E+03  0.00000000000E+00 0.  1.
         23    2    1    2    0    0 -0.25743705694E+03 -0.17425828332E+03  0.32294979385E+03  0.45734002316E+03  0.90683735268E+02 0.  0.
        -11    1    1    2    0    0  0.44590262499E+02  0.30574642668E+02  0.60513870941E+02  0.81148190740E+02  0.00000000000E+00 0. -1.
         11    1    1    2    0    0  0.21284679444E+03  0.14368364066E+03 -0.38346366479E+03  0.46151178610E+03  0.00000000000E+00 0.  1.
        -15    1    3    3    0    0 -0.62224755130E+02 -0.64479671430E+01  0.37520089152E+02  0.72968563439E+02  0.17770000000E+01 0.  1.
         15    1    3    3    0    0 -0.19521230181E+03 -0.16781031618E+03  0.28542970470E+03  0.38437145972E+03  0.17770000000E+01 0. -1.
</event>
<event>
 7    1  0.3234965E-006  0.4007408E+03  0.7546771E-02  0.9654214E-01
        -11   -1    0    0    0    0  0.00000000000E+00  0.00000000000E+00  0.50000000000E+03  0.50000000000E+03  0.00000000000E+00 0.  1.
         11   -1    0    0    0    0 -0.00000000000E+00 -0.00000000000E+00 -0.50000000000E+03  0.50000000000E+03  0.00000000000E+00 0. -1.
         23    2    1    2    0    0  0.13310531163E+03 -0.52793329172E+02 -0.38703402801E+03  0.42255085922E+03  0.90828025431E+02 0.  0.
        -11    1    1    2    0    0  0.13745132424E+02 -0.63153216985E+02  0.38494336398E+03  0.39033146293E+03  0.00000000000E+00 0.  1.
         11    1    1    2    0    0 -0.14685044406E+03  0.11594654616E+03  0.20906640290E+01  0.18711767784E+03  0.00000000000E+00 0. -1.
        -15    1    3    3    0    0  0.27721225483E+02  0.24401169810E+02 -0.11449221401E+03  0.12031420626E+03  0.17770000000E+01 0.  1.
         15    1    3    3    0    0  0.10538408615E+03 -0.77194498982E+02 -0.27254181400E+03  0.30223665296E+03  0.17770000000E+01 0. -1.
</event>
<event>
 7    1  0.3234965E-006  0.3460287E+03  0.7546771E-02  0.9830858E-01
        -11   -1    0    0    0    0  0.00000000000E+00  0.00000000000E+00  0.50000000000E+03  0.50000000000E+03  0.00000000000E+00 0.  1.
         11   -1    0    0    0    0 -0.00000000000E+00 -0.00000000000E+00 -0.50000000000E+03  0.50000000000E+03  0.00000000000E+00 0. -1.
         23    2    1    2    0    0  0.84656640946E+02  0.72858464506E+02  0.29785599564E+03  0.33039090583E+03  0.89246029669E+02 0.  0.
        -11    1    1    2    0    0 -0.25271811741E+03 -0.62338732144E+02  0.66127140051E+02  0.26856165595E+03  0.00000000000E+00 0.  1.
         11    1    1    2    0    0  0.16806147647E+03 -0.10519732362E+02 -0.36398313569E+03  0.40104743822E+03  0.00000000000E+00 0. -1.
        -15    1    3    3    0    0  0.24766370117E+02 -0.19265695551E+02  0.89024601114E+02  0.94409096205E+02  0.17770000000E+01 0. -1.
         15    1    3    3    0    0  0.59890270829E+02  0.92124160057E+02  0.20883139452E+03  0.23598180962E+03  0.17770000000E+01 0.  1.
</event>
<event>
 7    1  0.3234965E-006  0.3565380E+03  0.7546771E-02  0.9794322E-01
        -11   -1    0    0    0    0  0.00000000000E+00  0.00000000000E+00  0.50000000000E+03  0.50000000000E+03  0.00000000000E+00 0.  1.
         11   -1    0    0    0    0 -0.00000000000E+00 -0.00000000000E+00 -0.50000000000E+03  0.50000000000E+03  0.00000000000E+00 0.  1.
         23    2    1    2    0    0 -0.13300635900E+03 -0.17926613997E+02 -0.19025753064E+03  0.24987507395E+03  0.90705951237E+02 0.  0.
        -11    1    1    2    0    0 -0.69345131432E+02 -0.61633498925E+02  0.42215976911E+03  0.43223408716E+03  0.00000000000E+00 0.  1.
         11    1    1    2    0    0  0.20235149043E+03  0.79560112922E+02 -0.23190223847E+03  0.31789083890E+03  0.00000000000E+00 0.  1.
        -15    1    3    3    0    0 -0.13222482970E+03 -0.37933303248E+02 -0.14255053907E+03  0.19810642343E+03  0.17770000000E+01 0.  1.
         15    1    3    3    0    0 -0.78152929964E+00  0.20006689251E+02 -0.47706991571E+02  0.51768650519E+02  0.17770000000E+01 0. -1.
</event>
<event>
 6    1  0.3234965E-006  0.3320918E+03  0.7546771E-02  0.9881515E-01
        -11   -1    0    0    0    0  0.00000000000E+00  0.00000000000E+00  0.50000000000E+03  0.50000000000E+03  0.00000000000E+00 0. -1.
         11   -1    0    0    0    0 -0.00000000000E+00 -0.00000000000E+00 -0.50000000000E+03  0.50000000000E+03  0.00000000000E+00 0.  1.
        -11    1    1    2    0    0  0.60177664323E+02  0.99806259718E+02  0.39322993218E+03  0.41013707504E+03  0.00000000000E+00 0. -1.
         11    1    1    2    0    0 -0.20986284120E+03 -0.88836610295E+02 -0.19406180169E+03  0.29932313361E+03  0.00000000000E+00 0.  1.
        -15    1    1    2    0    0  0.39396457836E+02  0.47617138543E+02 -0.82186688024E+01  0.62371283609E+02  0.17770000000E+01 0. -1.
         15    1    1    2    0    0  0.11028871904E+03 -0.58586787966E+02 -0.19094946169E+03  0.22816850773E+03  0.17770000000E+01 0.  1.
</event>
<event>
 7    1  0.3234965E-006  0.5095003E+03  0.7546771E-02  0.9378799E-01
        -11   -1    0    0    0    0  0.00000000000E+00  0.00000000000E+00  0.50000000000E+03  0.50000000000E+03  0.00000000000E+00 0.  1.
         11   -1    0    0    0    0 -0.00000000000E+00 -0.00000000000E+00 -0.50000000000E+03  0.50000000000E+03  0.00000000000E+00 0.  1.
         23    2    1    2    0    0  0.38612398959E+01  0.35844740003E+02 -0.33656184059E+03  0.35050280063E+03  0.90986736095E+02 0.  0.
        -11    1    1    2    0    0  0.32606500880E+02 -0.92417978132E+02  0.48060968893E+03  0.49049968367E+03  0.00000000000E+00 0.  1.
         11    1    1    2    0    0 -0.36467740776E+02  0.56573238130E+02 -0.14404784834E+03  0.15899751571E+03  0.00000000000E+00 0.  1.
        -15    1    3    3    0    0 -0.15216825978E+02  0.58152161026E+02 -0.28378149166E+03  0.29008329556E+03  0.17770000000E+01 0.  1.
         15    1    3    3    0    0  0.19078065874E+02 -0.22307421023E+02 -0.52780348929E+02  0.60419505065E+02  0.17770000000E+01 0. -1.
</event>
<event>
 7    1  0.3234965E-006  0.5182572E+03  0.7546771E-02  0.9359860E-01
        -11   -1    0    0    0    0  0.00000000000E+00  0.00000000000E+00  0.50000000000E+03  0.50000000000E+03  0.00000000000E+00 0. -1.
         11   -1    0    0    0    0 -0.00000000000E+00 -0.00000000000E+00 -0.50000000000E+03  0.50000000000E+03  0.00000000000E+00 0.  1.
         23    2    1    2    0    0  0.75700037978E+02 -0.89236879139E+02  0.12687027259E+03  0.19466304613E+03  0.90021770222E+02 0.  0.
        -11    1    1    2    0    0  0.30642264302E+02 -0.75464886449E+02  0.31317608478E+03  0.32359412468E+03  0.00000000000E+00 0. -1.
         11    1    1    2    0    0 -0.10634230228E+03  0.16470176559E+03 -0.44004635737E+03  0.48174282919E+03  0.00000000000E+00 0.  1.
        -15    1    3    3    0    0  0.36881514460E+02 -0.62319981439E+02  0.16067444049E+02  0.74198023442E+02  0.17770000000E+01 0.  1.
         15    1    3    3    0    0  0.38818523517E+02 -0.26916897700E+02  0.11080282854E+03  0.12046502269E+03  0.17770000000E+01 0. -1.
</event>
<event>
 7    1  0.3234965E-006  0.4329138E+03  0.7546771E-02  0.9563857E-01
        -11   -1    0    0    0    0  0.00000000000E+00  0.00000000000E+00  0.50000000000E+03  0.50000000000E+03  0.00000000000E+00 0.  1.
         11   -1    0    0    0    0 -0.00000000000E+00 -0.00000000000E+00 -0.50000000000E+03  0.50000000000E+03  0.00000000000E+00 0. -1.
         23    2    1    2    0    0 -0.20463624252E+03 -0.10039462130E+03 -0.34037674868E+03  0.41602820782E+03  0.72581450278E+02 0.  0.
        -11    1    1    2    0    0  0.10735481018E+03  0.10936599279E+03  0.42683569244E+03  0.45351370871E+03  0.00000000000E+00 0.  1.
         11    1    1    2    0    0  0.97281432346E+02 -0.89713714867E+01 -0.86458943761E+02  0.13045808347E+03  0.00000000000E+00 0. -1.
        -15    1    3    3    0    0 -0.18799247083E+03 -0.11176353173E+03 -0.30576220354E+03  0.37593342357E+03  0.17770000000E+01 0. -1.
         15    1    3    3    0    0 -0.16643771694E+02  0.11368910425E+02 -0.34614545138E+02  0.40094784256E+02  0.17770000000E+01 0.  1.
</event>
<event>
 7    1  0.3234965E-006  0.3546592E+03  0.7546771E-02  0.9800754E-01
        -11   -1    0    0    0    0  0.00000000000E+00  0.00000000000E+00  0.50000000000E+03  0.50000000000E+03  0.00000000000E+00 0.  1.
         11   -1    0    0    0    0 -0.00000000000E+00 -0.00000000000E+00 -0.50000000000E+03  0.50000000000E+03  0.00000000000E+00 0.  1.
         23    2    1    2    0    0 -0.65790737516E+02 -0.12058020761E+03 -0.24875410211E+03  0.29815626277E+03  0.90280374984E+02 0.  0.
        -11    1    1    2    0    0  0.67536158275E+02 -0.24760269265E+03 -0.15128108016E+01  0.25665251738E+03  0.00000000000E+00 0.  1.
         11    1    1    2    0    0 -0.17454207593E+01  0.36818290025E+03  0.25026691291E+03  0.44519121985E+03  0.00000000000E+00 0.  1.
        -15    1    3    3    0    0 -0.21213963482E+02 -0.11355879098E+03 -0.20476653950E+03  0.23511300407E+03  0.17770000000E+01 0.  1.
         15    1    3    3    0    0 -0.44576774034E+02 -0.70214166235E+01 -0.43987562608E+02  0.63043258703E+02  0.17770000000E+01 0. -1.
</event>
<event>
 7    1  0.3234965E-006  0.3325490E+03  0.7546771E-02  0.9879811E-01
        -11   -1    0    0    0    0  0.00000000000E+00  0.00000000000E+00  0.50000000000E+03  0.50000000000E+03  0.00000000000E+00 0.  1.
         11   -1    0    0    0    0 -0.00000000000E+00 -0.00000000000E+00 -0.50000000000E+03  0.50000000000E+03  0.00000000000E+00 0. -1.
         23    2    1    2    0    0  0.42718381027E+02  0.22695673434E+02 -0.26431257288E+03  0.28267404557E+03  0.87769733869E+02 0.  0.
        -11    1    1    2    0    0  0.15174734285E+03  0.18653079438E+03  0.34497591294E+03  0.42051084864E+03  0.00000000000E+00 0.  1.
         11    1    1    2    0    0 -0.19446572387E+03 -0.20922646782E+03 -0.80663340061E+02  0.29681510579E+03  0.00000000000E+00 0. -1.
        -15    1    3    3    0    0  0.43241036447E+02  0.43534914200E+01 -0.26016745072E+03  0.26377831651E+03  0.17770000000E+01 0.  1.
         15    1    3    3    0    0 -0.52265542027E+00  0.18342182014E+02 -0.41451221643E+01  0.18895729054E+02  0.17770000000E+01 0. -1.
</event>
<event>
 7    1  0.3234965E-006  0.3651950E+03  0.7546771E-02  0.9765226E-01
        -11   -1    0    0    0    0  0.00000000000E+00  0.00000000000E+00  0.50000000000E+03  0.50000000000E+03  0.00000000000E+00 0. -1.
         11   -1    0    0    0    0 -0.00000000000E+00 -0.00000000000E+00 -0.50000000000E+03  0.50000000000E+03  0.00000000000E+00 0. -1.
         23    2    1    2    0    0  0.36714405901E+02 -0.50469538283E+02 -0.20980039071E+03  0.23751661588E+03  0.92210720522E+02 0.  0.
        -11    1    1    2    0    0 -0.56636684714E+02 -0.18101831364E+03  0.41258359580E+03  0.45409312641E+03  0.00000000000E+00 0. -1.
         11    1    1    2    0    0  0.19922278813E+02  0.23148785193E+03 -0.20278320509E+03  0.30839025771E+03  0.00000000000E+00 0. -1.
        -15    1    3    3    0    0 -0.69855343686E+00 -0.68051886249E+02 -0.15078572899E+03  0.16544195657E+03  0.17770000000E+01 0. -1.
         15    1    3    3    0    0  0.37412959338E+02  0.17582347966E+02 -0.59014661728E+02  0.72074659307E+02  0.17770000000E+01 0.  1.
</event>
<event>
 7    1  0.3234965E-006  0.5366477E+03  0.7546771E-02  0.9321346E-01
        -11   -1    0    0    0    0  0.00000000000E+00  0.00000000000E+00  0.50000000000E+03  0.50000000000E+03  0.00000000000E+00 0.  1.
         11   -1    0    0    0    0 -0.00000000000E+00 -0.00000000000E+00 -0.50000000000E+03  0.50000000000E+03  0.00000000000E+00 0. -1.
         23    2    1    2    0    0  0.23432478931E+02 -0.11914825139E+03  0.16009322377E+03  0.22087651995E+03  0.91712648471E+02 0.  0.
        -11    1    1    2    0    0  0.23910045173E+03  0.10696091978E+02  0.20598052236E+03  0.31577113230E+03  0.00000000000E+00 0.  1.
         11    1    1    2    0    0 -0.26253293066E+03  0.10845215942E+03 -0.36607374613E+03  0.46335234775E+03  0.00000000000E+00 0. -1.
        -15    1    3    3    0    0  0.45662772947E+02 -0.19392886777E+02  0.59092212767E+02  0.77176552329E+02  0.17770000000E+01 0. -1.
         15    1    3    3    0    0 -0.22230294016E+02 -0.99755364616E+02  0.10100101100E+03  0.14369996762E+03  0.17770000000E+01 0.  1.
</event>
<event>
 7    1  0.3234965E-006  0.5278645E+03  0.7546771E-02  0.9339532E-01
        -11   -1    0    0    0    0  0.00000000000E+00  0.00000000000E+00  0.50000000000E+03  0.50000000000E+03  0.00000000000E+00 0.  1.
         11   -1    0    0    0    0 -0.00000000000E+00 -0.00000000000E+00 -0.50000000000E+03  0.50000000000E+03  0.00000000000E+00 0. -1.
         23    2    1    2    0    0  0.12970277761E+03  0.72544021321E+02 -0.21457911188E+03  0.27318798202E+03  0.80635182864E+02 0.  0.
        -11    1    1    2    0    0 -0.58294959865E+02 -0.10225943071E+03  0.45722710945E+03  0.47213549234E+03  0.00000000000E+00 0.  1.
         11    1    1    2    0    0 -0.71407817744E+02  0.29715409389E+02 -0.24264799757E+03  0.25467652565E+03  0.00000000000E+00 0. -1.
        -15    1    3    3    0    0  0.37567870322E+02 -0.14650947323E+02 -0.35686642576E+02  0.53876612044E+02  0.17770000000E+01 0.  1.
         15    1    3    3    0    0  0.92134907288E+02  0.87194968644E+02 -0.17889246930E+03  0.21931136997E+03  0.17770000000E+01 0. -1.
</event>
<event>
 7    1  0.3234965E-006  0.4389091E+03  0.7546771E-02  0.9547945E-01
        -11   -1    0    0    0    0  0.00000000000E+00  0.00000000000E+00  0.50000000000E+03  0.50000000000E+03  0.00000000000E+00 0.  1.
         11   -1    0    0    0    0 -0.00000000000E+00 -0.00000000000E+00 -0.50000000000E+03  0.50000000000E+03  0.00000000000E+00 0.  1.
         23    2    1    2    0    0 -0.11155847151E+02  0.28612696393E+01 -0.46617474368E+03  0.47557930742E+03  0.93403138138E+02 0.  0.
        -11    1    1    2    0    0  0.28554920424E+02  0.92094544411E+02  0.38916160841E+03  0.40092835526E+03  0.00000000000E+00 0.  1.
         11    1    1    2    0    0 -0.17399073273E+02 -0.94955814050E+02  0.77013135267E+02  0.12349233732E+03  0.00000000000E+00 0.  1.
        -15    1    3    3    0    0  0.31840264201E+02 -0.26956548475E+02 -0.20666895938E+03  0.21084514324E+03  0.17770000000E+01 0.  1.
         15    1    3    3    0    0 -0.42996111351E+02  0.29817818114E+02 -0.25950578430E+03  0.26473416418E+03  0.17770000000E+01 0. -1.
</event>
<event>
 7    1  0.3234965E-006  0.5298994E+03  0.7546771E-02  0.9335286E-01
        -11   -1    0    0    0    0  0.00000000000E+00  0.00000000000E+00  0.50000000000E+03  0.50000000000E+03  0.00000000000E+00 0.  1.
         11   -1    0    0    0    0 -0.00000000000E+00 -0.00000000000E+00 -0.50000000000E+03  0.50000000000E+03  0.00000000000E+00 0. -1.
         23    2    1    2    0    0 -0.32120098287E+02  0.93557977752E+02 -0.14331517599E+03  0.19654546078E+03  0.91137712098E+02 0.  0.
        -11    1    1    2    0    0  0.92623910110E+02 -0.11661917244E+02  0.46073787490E+03  0.47010060456E+03  0.00000000000E+00 0.  1.
         11    1    1    2    0    0 -0.60503811823E+02 -0.81896060508E+02 -0.31742269891E+03  0.33335393466E+03  0.00000000000E+00 0. -1.
        -15    1    3    3    0    0 -0.24172074348E+01  0.53528590868E+02 -0.10443040173E+02  0.54620213741E+02  0.17770000000E+01 0.  1.
         15    1    3    3    0    0 -0.29702890852E+02  0.40029386885E+02 -0.13287213582E+03  0.14192524703E+03  0.17770000000E+01 0. -1.
</event>
<event>
 7    1  0.3234965E-006  0.5210723E+03  0.7546771E-02  0.9353855E-01
        -11   -1    0    0    0    0  0.00000000000E+00  0.00000000000E+00  0.50000000000E+03  0.50000000000E+03  0.00000000000E+00 0. -1.
         11   -1    0    0    0    0 -0.00000000000E+00 -0.00000000000E+00 -0.50000000000E+03  0.50000000000E+03  0.00000000000E+00 0.  1.
         23    2    1    2    0    0 -0.29200792656E+02  0.56265426607E+02 -0.20713291335E+03  0.23459898863E+03  0.90078616499E+02 0.  0.
        -11    1    1    2    0    0  0.67167613240E+02  0.46228727449E+02  0.47193553872E+03  0.47892769414E+03  0.00000000000E+00 0. -1.
         11    1    1    2    0    0 -0.37966820583E+02 -0.10249415406E+03 -0.26480262537E+03  0.28647331723E+03  0.00000000000E+00 0.  1.
        -15    1    3    3    0    0 -0.23999729722E+02  0.75997330115E+02 -0.19530221719E+03  0.21094476760E+03  0.17770000000E+01 0.  1.
         15    1    3    3    0    0 -0.52010629347E+01 -0.19731903508E+02 -0.11830696159E+02  0.23654221025E+02  0.17770000000E+01 0. -1.
</event>
<event>
 7    1  0.3234965E-006  0.5089049E+03  0.7546771E-02  0.9380102E-01
        -11   -1    0    0    0    0  0.00000000000E+00  0.00000000000E+00  0.50000000000E+03  0.50000000000E+03  0.00000000000E+00 0.  1.
         11   -1    0    0    0    0 -0.00000000000E+00 -0.00000000000E+00 -0.50000000000E+03  0.50000000000E+03  0.00000000000E+00 0. -1.
         23    2    1    2    0    0 -0.39681077820E+01  0.10111230130E+03  0.31560195460E+03  0.34362270727E+03  0.90733278641E+02 0.  0.
        -11    1    1    2    0    0 -0.45872989981E+02  0.21458711315E+02  0.15733210374E+03  0.16528217801E+03  0.00000000000E+00 0.  1.
         11    1    1    2    0    0  0.49841097763E+02 -0.12257101262E+03 -0.47293405834E+03  0.49109511472E+03  0.00000000000E+00 0. -1.
        -15    1    3    3    0    0 -0.18299239330E+02 -0.11824187771E+02  0.44347729070E+02  0.49442414779E+02  0.17770000000E+01 0. -1.
         15    1    3    3    0    0  0.14331131548E+02  0.11293648907E+03  0.27125422553E+03  0.29418029249E+03  0.17770000000E+01 0.  1.
</event>
<event>
 7    1  0.3234965E-006  0.5135720E+03  0.7546771E-02  0.9369943E-01
        -11   -1    0    0    0    0  0.00000000000E+00  0.00000000000E+00  0.50000000000E+03  0.50000000000E+03  0.00000000000E+00 0.  1.
         11   -1    0    0    0    0 -0.00000000000E+00 -0.00000000000E+00 -0.50000000000E+03  0.50000000000E+03  0.00000000000E+00 0.  1.
         23    2    1    2    0    0  0.25363246083E+02  0.12365477206E+03 -0.46055597364E+03  0.48642799835E+03  0.92555906485E+02 0.  0.
        -11    1    1    2    0    0 -0.42657151953E+02  0.18228137723E+02  0.27736365815E+03  0.28121610281E+03  0.00000000000E+00 0.  1.
         11    1    1    2    0    0  0.17293905870E+02 -0.14188290979E+03  0.18319231549E+03  0.23235589884E+03  0.00000000000E+00 0.  1.
        -15    1    3    3    0    0  0.40586318802E+02  0.12705681433E+03 -0.44402860380E+03  0.46363265854E+03  0.17770000000E+01 0.  1.
         15    1    3    3    0    0 -0.15223072719E+02 -0.34020422687E+01 -0.16527369837E+02  0.22795339816E+02  0.17770000000E+01 0. -1.
</event>
<event>
 7    1  0.3234965E-006  0.3268556E+03  0.7546771E-02  0.9901242E-01
        -11   -1    0    0    0    0  0.00000000000E+00  0.00000000000E+00  0.50000000000E+03  0.50000000000E+03  0.00000000000E+00 0. -1.
         11   -1    0    0    0    0 -0.00000000000E+00 -0.00000000000E+00 -0.50000000000E+03  0.50000000000E+03  0.00000000000E+00 0. -1.
         23    2    1    2    0    0  0.23640767092E+03  0.11396777258E+03 -0.84094896791E+02  0.29057242281E+03  0.92103969381E+02 0.  0.
        -11    1    1    2    0    0  0.53475529429E+02 -0.23161359827E+02  0.31971740140E+03  0.32498507288E+03  0.00000000000E+00 0. -1.
         11    1    1    2    0    0 -0.28988320035E+03 -0.90806412756E+02 -0.23562250461E+03  0.38444250431E+03  0.00000000000E+00 0. -1.
        -15    1    3    3    0    0  0.15088698115E+02  0.41970197870E+02 -0.21592936484E+02  0.49584059485E+02  0.17770000000E+01 0.  1.
         15    1    3    3    0    0  0.22131897280E+03  0.71997574713E+02 -0.62501960307E+02  0.24098836333E+03  0.17770000000E+01 0. -1.
</event>
<event>
 7    1  0.3234965E-006  0.3365591E+03  0.7546771E-02  0.9864991E-01
        -11   -1    0    0    0    0  0.00000000000E+00  0.00000000000E+00  0.50000000000E+03  0.50000000000E+03  0.00000000000E+00 0. -1.
         11   -1    0    0    0    0 -0.00000000000E+00 -0.00000000000E+00 -0.50000000000E+03  0.50000000000E+03  0.00000000000E+00 0. -1.
         23    2    1    2    0    0 -0.30345743298E+02 -0.10137068982E+03 -0.23917054087E+03  0.27785900382E+03  0.93841342118E+02 0.  0.
        -11    1    1    2    0    0  0.66035252604E+02 -0.12423211180E+03  0.41222846803E+03  0.43557614954E+03  0.00000000000E+00 0. -1.
         11    1    1    2    0    0 -0.35689509305E+02  0.22560280163E+03 -0.17305792717E+03  0.28656484665E+03  0.00000000000E+00 0. -1.
        -15    1    3    3    0    0 -0.52929825872E+02 -0.19465851704E+02 -0.98174072055E+02  0.11323335199E+03  0.17770000000E+01 0.  1.
         15    1    3    3    0    0  0.22584082573E+02 -0.81904838121E+02 -0.14099646881E+03  0.16462565183E+03  0.17770000000E+01 0. -1.
</event>
<event>
 7    1  0.3234965E-006  0.5359687E+03  0.7546771E-02  0.9322739E-01
        -11   -1    0    0    0    0  0.00000000000E+00  0.00000000000E+00  0.50000000000E+03  0.50000000000E+03  0.00000000000E+00 0. -1.
         11   -1    0    0    0    0 -0.00000000000E+00 -0.00000000000E+00 -0.50000000000E+03  0.50000000000E+03  0.00000000000E+00 0.  1.
         23    2    1    2    0    0 -0.26530225036E+02  0.49883873109E+02  0.51979317900E+02  0.11790225605E+03  0.89480941302E+02 0.  0.
        -11    1    1    2    0    0  0.11532274417E+03 -0.99437837468E+01  0.40172294283E+03  0.41806642649E+03  0.00000000000E+00 0. -1.
         11    1    1    2    0    0 -0.88792519131E+02 -0.39940089362E+02 -0.45370226073E+03  0.46403131746E+03  0.00000000000E+00 0.  1.
        -15    1    3    3    0    0 -0.69875554818E+01  0.50748916833E+02 -0.10573722087E+02  0.52337747555E+02  0.17770000000E+01 0.  1.
         15    1    3    3    0    0 -0.19542669555E+02 -0.86504372399E+00  0.62553039987E+02  0.65564508498E+02  0.17770000000E+01 0. -1.
</event>
<event>
 7    1  0.3234965E-006  0.3898919E+03  0.7546771E-02  0.9686748E-01
        -11   -1    0    0    0    0  0.00000000000E+00  0.00000000000E+00  0.50000000000E+03  0.50000000000E+03  0.00000000000E+00 0. -1.
         11   -1    0    0    0    0 -0.00000000000E+00 -0.00000000000E+00 -0.50000000000E+03  0.50000000000E+03  0.00000000000E+00 0.  1.
         23    2    1    2    0    0 -0.17124771018E+03 -0.20889152237E+02 -0.31331957250E+03  0.37144417851E+03  0.10019724705E+03 0.  0.
        -11    1    1    2    0    0  0.93073209202E+02 -0.15745923279E+03  0.38081238961E+03  0.42246196082E+03  0.00000000000E+00 0. -1.
         11    1    1    2    0    0  0.78174500974E+02  0.17834838503E+03 -0.67492817109E+02  0.20609386067E+03  0.00000000000E+00 0.  1.
        -15    1    3    3    0    0 -0.41853167546E+02  0.38329289914E+02 -0.10039232464E+03  0.11533689208E+03  0.17770000000E+01 0. -1.
         15    1    3    3    0    0 -0.12939454263E+03 -0.59218442152E+02 -0.21292724786E+03  0.25610728643E+03  0.17770000000E+01 0.  1.
</event>
<event>
 7    1  0.3234965E-006  0.5116259E+03  0.7546771E-02  0.9374165E-01
        -11   -1    0    0    0    0  0.00000000000E+00  0.00000000000E+00  0.50000000000E+03  0.50000000000E+03  0.00000000000E+00 0.  1.
         11   -1    0    0    0    0 -0.00000000000E+00 -0.00000000000E+00 -0.50000000000E+03  0.50000000000E+03  0.00000000000E+00 0.  1.
         23    2    1    2    0    0  0.30886619304E+02  0.35131907844E+02 -0.40165961691E+03  0.41464371641E+03  0.91710029457E+02 0.  0.
        -11    1    1    2    0    0 -0.10041155411E+00 -0.80406139329E+02  0.48170957343E+03  0.48837410912E+03  0.00000000000E+00 0.  1.
         11    1    1    2    0    0 -0.30786207750E+02  0.45274231486E+02 -0.80049956524E+02  0.96982174464E+02  0.00000000000E+00 0.  1.
        -15    1    3    3    0    0  0.84786206235E+01 -0.26609244062E+02 -0.53901348146E+02  0.60732626637E+02  0.17770000000E+01 0. -1.
         15    1    3    3    0    0  0.22407998681E+02  0.61741151905E+02 -0.34775826876E+03  0.35391108978E+03  0.17770000000E+01 0.  1.
</event>
<event>
 7    1  0.3234965E-006  0.4015692E+03  0.7546771E-02  0.9651776E-01
        -11   -1    0    0    0    0  0.00000000000E+00  0.00000000000E+00  0.50000000000E+03  0.50000000000E+03  0.00000000000E+00 0.  1.
         11   -1    0    0    0    0 -0.00000000000E+00 -0.00000000000E+00 -0.50000000000E+03  0.50000000000E+03  0.00000000000E+00 0. -1.
         23    2    1    2    0    0  0.82452972185E+02 -0.95200271778E+02 -0.92320624095E+02  0.18182160675E+03  0.93136537821E+02 0.  0.
        -11    1    1    2    0    0 -0.84421188410E+02  0.23783256632E+02  0.44743409985E+03  0.45594939857E+03  0.00000000000E+00 0.  1.
         11    1    1    2    0    0  0.19682162254E+01  0.71417015146E+02 -0.35511347575E+03  0.36222899468E+03  0.00000000000E+00 0. -1.
        -15    1    3    3    0    0  0.18978358178E+02 -0.90959376211E+02 -0.57334404112E+02  0.10919788379E+03  0.17770000000E+01 0.  1.
         15    1    3    3    0    0  0.63474614007E+02 -0.42408955676E+01 -0.34986219983E+02  0.72623722958E+02  0.17770000000E+01 0. -1.
</event>
<event>
 7    1  0.3234965E-006  0.4620728E+03  0.7546771E-02  0.9488918E-01
        -11   -1    0    0    0    0  0.00000000000E+00  0.00000000000E+00  0.50000000000E+03  0.50000000000E+03  0.00000000000E+00 0. -1.
         11   -1    0    0    0    0 -0.00000000000E+00 -0.00000000000E+00 -0.50000000000E+03  0.50000000000E+03  0.00000000000E+00 0.  1.
         23    2    1    2    0    0 -0.17937368128E+03 -0.10500857224E+03  0.36392268297E+03  0.42883969561E+03  0.90895806103E+02 0.  0.
        -11    1    1    2    0    0  0.24823187672E+01 -0.45210798402E+02  0.67500494649E+02  0.81280348034E+02  0.00000000000E+00 0. -1.
         11    1    1    2    0    0  0.17689136252E+03  0.15021937064E+03 -0.43142317762E+03  0.48987995636E+03  0.00000000000E+00 0.  1.
        -15    1    3    3    0    0 -0.41156827397E+02 -0.17000490072E+02  0.16603410429E+03  0.17191097295E+03  0.17770000000E+01 0. -1.
         15    1    3    3    0    0 -0.13821685389E+03 -0.88008082168E+02  0.19788857868E+03  0.25692872266E+03  0.17770000000E+01 0.  1.
</event>
<event>
 7    1  0.3234965E-006  0.5134481E+03  0.7546771E-02  0.9370211E-01
        -11   -1    0    0    0    0  0.00000000000E+00  0.00000000000E+00  0.50000000000E+03  0.50000000000E+03  0.00000000000E+00 0.  1.
         11   -1    0    0    0    0 -0.00000000000E+00 -0.00000000000E+00 -0.50000000000E+03  0.50000000000E+03  0.00000000000E+00 0. -1.
         23    2    1    2    0    0 -0.90946277582E+01  0.48688709953E+02 -0.18605074676E+03  0.21841204772E+03  0.10312923682E+03 0.  0.
        -11    1    1    2    0    0  0.44952842513E+02 -0.91462962770E+02  0.47575890265E+03  0.48655191404E+03  0.00000000000E+00 0.  1.
         11    1    1    2    0    0 -0.35858214755E+02  0.42774252818E+02 -0.28970815589E+03  0.29503603824E+03  0.00000000000E+00 0. -1.
        -15    1    3    3    0    0  0.30911577152E+02  0.99133076366E+01 -0.10407959425E+02  0.34136236153E+02  0.17770000000E+01 0.  1.
         15    1    3    3    0    0 -0.40006204910E+02  0.38775402316E+02 -0.17564278733E+03  0.18427581156E+03  0.17770000000E+01 0. -1.
</event>
<event>
 6    1  0.3917526E-006  0.4005699E+03  0.7546771E-02  0.9654719E-01
        -11   -1    0    0    0    0  0.00000000000E+00  0.00000000000E+00  0.50000000000E+03  0.50000000000E+03  0.00000000000E+00 0.  1.
         11   -1    0    0    0    0 -0.00000000000E+00 -0.00000000000E+00 -0.50000000000E+03  0.50000000000E+03  0.00000000000E+00 0. -1.
        -11    1    1    2    0    0 -0.32822098915E+02  0.77309290482E+02  0.43695104660E+03  0.44494969794E+03  0.00000000000E+00 0.  1.
         11    1    1    2    0    0 -0.71407240929E+02 -0.60581824268E+02 -0.35510924282E+03  0.36724886089E+03  0.00000000000E+00 0. -1.
        -15    1    1    2    0    0  0.97432195738E+01 -0.36400131337E+02  0.23875700102E+02  0.44644223293E+02  0.17770000000E+01 0.  1.
         15    1    1    2    0    0  0.94486120270E+02  0.19672665124E+02 -0.10571750388E+03  0.14315721789E+03  0.17770000000E+01 0. -1.
</event>
<event>
 7    1  0.3234965E-006  0.4169887E+03  0.7546771E-02  0.9607495E-01
        -11   -1    0    0    0    0  0.00000000000E+00  0.00000000000E+00  0.50000000000E+03  0.50000000000E+03  0.00000000000E+00 0. -1.
         11   -1    0    0    0    0 -0.00000000000E+00 -0.00000000000E+00 -0.50000000000E+03  0.50000000000E+03  0.00000000000E+00 0. -1.
         23    2    1    2    0    0  0.30820140914E+03 -0.20439669176E+03 -0.85360608832E+02  0.39033017934E+03  0.91132316807E+02 0.  0.
        -11    1    1    2    0    0  0.54045186092E+01 -0.11601687045E+03  0.11091533250E+03  0.16059680580E+03  0.00000000000E+00 0. -1.
         11    1    1    2    0    0 -0.31360592775E+03  0.32041356221E+03 -0.25554723669E+02  0.44907301485E+03  0.00000000000E+00 0. -1.
        -15    1    3    3    0    0  0.13044951726E+03 -0.14111044989E+03 -0.44732224845E+02  0.19731539547E+03  0.17770000000E+01 0.  1.
         15    1    3    3    0    0  0.17775189189E+03 -0.63286241865E+02 -0.40628383987E+02  0.19301478387E+03  0.17770000000E+01 0. -1.
</event>
<event>
 7    1  0.3234965E-006  0.5243291E+03  0.7546771E-02  0.9346959E-01
        -11   -1    0    0    0    0  0.00000000000E+00  0.00000000000E+00  0.50000000000E+03  0.50000000000E+03  0.00000000000E+00 0.  1.
         11   -1    0    0    0    0 -0.00000000000E+00 -0.00000000000E+00 -0.50000000000E+03  0.50000000000E+03  0.00000000000E+00 0.  1.
         23    2    1    2    0    0  0.12154672676E+03  0.74596719477E+02 -0.23923384657E+03  0.29251646468E+03  0.89413485673E+02 0.  0.
        -11    1    1    2    0    0 -0.69527888342E+02 -0.71410296210E+02  0.46511208989E+03  0.47567090916E+03  0.00000000000E+00 0.  1.
         11    1    1    2    0    0 -0.52018838414E+02 -0.31864232662E+01 -0.22587824331E+03  0.23181262616E+03  0.00000000000E+00 0.  1.
        -15    1    3    3    0    0  0.50382682974E+02  0.41220045646E+01 -0.25882266137E+02  0.56819495727E+02  0.17770000000E+01 0. -1.
         15    1    3    3    0    0  0.71164043782E+02  0.70474714912E+02 -0.21335158044E+03  0.23569696895E+03  0.17770000000E+01 0.  1.
</event>
<event>
 7    1  0.3234965E-006  0.3635444E+03  0.7546771E-02  0.9770706E-01
        -11   -1    0    0    0    0  0.00000000000E+00  0.00000000000E+00  0.50000000000E+03  0.50000000000E+03  0.00000000000E+00 0.  1.
         11   -1    0    0    0    0 -0.00000000000E+00 -0.00000000000E+00 -0.50000000000E+03  0.50000000000E+03  0.00000000000E+00 0. -1.
         23    2    1    2    0    0 -0.11901315931E+03  0.62576487456E+02 -0.17683687150E+03  0.23973073227E+03  0.90108800905E+02 0.  0.
        -11    1    1    2    0    0  0.51887491720E+02  0.69079878107E+02  0.44541587662E+03  0.45371758231E+03  0.00000000000E+00 0.  1.
         11    1    1    2    0    0  0.67125667593E+02 -0.13165636556E+03 -0.26857900512E+03  0.30655168542E+03  0.00000000000E+00 0. -1.
        -15    1    3    3    0    0 -0.11102620996E+03  0.30887118232E+02 -0.87859956823E+02  0.14492537084E+03  0.17770000000E+01 0. -1.
         15    1    3    3    0    0 -0.79869493545E+01  0.31689369224E+02 -0.88976914677E+02  0.94805361432E+02  0.17770000000E+01 0.  1.
</event>
<event>
 7    1  0.3234965E-006  0.5074797E+03  0.7546771E-02  0.9383227E-01
        -11   -1    0    0    0    0  0.00000000000E+00  0.00000000000E+00  0.50000000000E+03  0.50000000000E+03  0.00000000000E+00 0. -1.
         11   -1    0    0    0    0 -0.00000000000E+00 -0.00000000000E+00 -0.50000000000E+03  0.50000000000E+03  0.00000000000E+00 0. -1.
         23    2    1    2    0    0  0.24355798368E+03 -0.45292030390E+02  0.19241496369E+03  0.32662481614E+03  0.91040610921E+02 0.  0.
        -11    1    1    2    0    0  0.11773210038E+03 -0.41384512756E+02  0.13090055212E+03  0.18085485866E+03  0.00000000000E+00 0. -1.
         11    1    1    2    0    0 -0.36129008406E+03  0.86676543146E+02 -0.32331551581E+03  0.49252032520E+03  0.00000000000E+00 0. -1.
        -15    1    3    3    0    0  0.53526597792E+02 -0.50177601249E+02  0.62190310839E+02  0.96196054126E+02  0.17770000000E+01 0. -1.
         15    1    3    3    0    0  0.19003138588E+03  0.48855708583E+01  0.13022465285E+03  0.23042876201E+03  0.17770000000E+01 0.  1.
</event>
<event>
 7    1  0.3234965E-006  0.5185996E+03  0.7546771E-02  0.9359127E-01
        -11   -1    0    0    0    0  0.00000000000E+00  0.00000000000E+00  0.50000000000E+03  0.50000000000E+03  0.00000000000E+00 0.  1.
         11   -1    0    0    0    0 -0.00000000000E+00 -0.00000000000E+00 -0.50000000000E+03  0.50000000000E+03  0.00000000000E+00 0. -1.
         23    2    1    2    0    0 -0.12704651669E+02 -0.68642156209E+02 -0.41113808715E+03  0.42589391161E+03  0.86475103104E+02 0.  0.
        -11    1    1    2    0    0  0.79791051642E+02  0.10665159326E+03  0.46260693124E+03  0.48140040206E+03  0.00000000000E+00 0.  1.
         11    1    1    2    0    0 -0.67086399973E+02 -0.38009437049E+02 -0.51468844088E+02  0.92705686330E+02  0.00000000000E+00 0. -1.
        -15    1    3    3    0    0  0.30198003995E+02 -0.56039561082E+02 -0.19374848506E+03  0.20394603464E+03  0.17770000000E+01 0. -1.
         15    1    3    3    0    0 -0.42902655664E+02 -0.12602595127E+02 -0.21738960209E+03  0.22194787697E+03  0.17770000000E+01 0.  1.
</event>
<event>
 7    1  0.3234965E-006  0.3587626E+03  0.7546771E-02  0.9786762E-01
        -11   -1    0    0    0    0  0.00000000000E+00  0.00000000000E+00  0.50000000000E+03  0.50000000000E+03  0.00000000000E+00 0. -1.
         11   -1    0    0    0    0 -0.00000000000E+00 -0.00000000000E+00 -0.50000000000E+03  0.50000000000E+03  0.00000000000E+00 0.  1.
         23    2    1    2    0    0  0.63958384500E+02 -0.26252356521E+02  0.26946862432E+03  0.29261331029E+03  0.90715757706E+02 0.  0.
        -11    1    1    2    0    0 -0.81831289154E+02 -0.20081196227E+03  0.12616278299E+03  0.25087616843E+03  0.00000000000E+00 0. -1.
         11    1    1    2    0    0  0.17872904654E+02  0.22706431879E+03 -0.39563140731E+03  0.45651052128E+03  0.00000000000E+00 0.  1.
        -15    1    3    3    0    0  0.35012584096E+02 -0.59415793623E+02  0.18293389712E+03  0.19550981055E+03  0.17770000000E+01 0.  1.
         15    1    3    3    0    0  0.28945800404E+02  0.33163437102E+02  0.86534727200E+02  0.97103499741E+02  0.17770000000E+01 0. -1.
</event>
<event>
 7    1  0.3234965E-006  0.3376412E+03  0.7546771E-02  0.9861030E-01
        -11   -1    0    0    0    0  0.00000000000E+00  0.00000000000E+00  0.50000000000E+03  0.50000000000E+03  0.00000000000E+00 0.  1.
         11   -1    0    0    0    0 -0.00000000000E+00 -0.00000000000E+00 -0.50000000000E+03  0.50000000000E+03  0.00000000000E+00 0. -1.
         23    2    1    2    0    0 -0.26261641185E+02  0.23489888414E+03  0.11072099523E+03  0.27602988774E+03  0.89812029130E+02 0.  0.
        -11    1    1    2    0    0 -0.15065741018E+03 -0.88704319791E+02  0.24479068679E+03  0.30081321768E+03  0.00000000000E+00 0.  1.
         11    1    1    2    0    0  0.17691905137E+03 -0.14619456435E+03 -0.35551168201E+03  0.42315689458E+03  0.00000000000E+00 0. -1.
        -15    1    3    3    0    0 -0.72806786441E+01  0.22913309120E+03  0.87372874254E+02  0.24534090293E+03  0.17770000000E+01 0. -1.
         15    1    3    3    0    0 -0.18980962541E+02  0.57657929401E+01  0.23348120974E+02  0.30688984819E+02  0.17770000000E+01 0.  1.
</event>
<event>
 7    1  0.3234965E-006  0.3448064E+03  0.7546771E-02  0.9835197E-01
        -11   -1    0    0    0    0  0.00000000000E+00  0.00000000000E+00  0.50000000000E+03  0.50000000000E+03  0.00000000000E+00 0.  1.
         11   -1    0    0    0    0 -0.00000000000E+00 -0.00000000000E+00 -0.50000000000E+03  0.50000000000E+03  0.00000000000E+00 0. -1.
         23    2    1    2    0    0 -0.48319581595E+02 -0.17413752267E+03 -0.25973598209E+03  0.32917702979E+03  0.90752838996E+02 0.  0.
        -11    1    1    2    0    0 -0.14787066017E+03  0.24868997864E+02  0.37115041692E+03  0.40029592950E+03  0.00000000000E+00 0.  1.
         11    1    1    2    0    0  0.19619024177E+03  0.14926852480E+03 -0.11141443483E+03  0.27052704070E+03  0.00000000000E+00 0. -1.
        -15    1    3    3    0    0  0.11815131177E+02  0.51735692114E+01 -0.14677517224E+02  0.19620152497E+02  0.17770000000E+01 0. -1.
         15    1    3    3    0    0 -0.60134712772E+02 -0.17931109188E+03 -0.24505846486E+03  0.30955687730E+03  0.17770000000E+01 0.  1.
</event>
<event>
 7    1  0.3234965E-006  0.5363087E+03  0.7546771E-02  0.9322041E-01
        -11   -1    0    0    0    0  0.00000000000E+00  0.00000000000E+00  0.50000000000E+03  0.50000000000E+03  0.00000000000E+00 0.  1.
         11   -1    0    0    0    0 -0.00000000000E+00 -0.00000000000E+00 -0.50000000000E+03  0.50000000000E+03  0.00000000000E+00 0. -1.
         23    2    1    2    0    0  0.43143403555E+02  0.15201765044E+03  0.20024401857E+03  0.27087464669E+03  0.91130060526E+02 0.  0.
        -11    1    1    2    0    0  0.14099733148E+02 -0.76753261927E+02  0.25370327781E+03  0.26543401980E+03  0.00000000000E+00 0.  1.
         11    1    1    2    0    0 -0.57243136703E+02 -0.75264388510E+02 -0.45394729639E+03  0.46369133351E+03  0.00000000000E+00 0. -1.
        -15    1    3    3    0    0 -0.28772392389E+02  0.44712512221E+02  0.56259671756E+02  0.77429759835E+02  0.17770000000E+01 0.  1.
         15    1    3    3    0    0  0.71915795945E+02  0.10730513822E+03  0.14398434682E+03  0.19344488686E+03  0.17770000000E+01 0. -1.
</event>
<event>
 7    1  0.3234965E-006  0.5086189E+03  0.7546771E-02  0.9380728E-01
        -11   -1    0    0    0    0  0.00000000000E+00  0.00000000000E+00  0.50000000000E+03  0.50000000000E+03  0.00000000000E+00 0.  1.
         11   -1    0    0    0    0 -0.00000000000E+00 -0.00000000000E+00 -0.50000000000E+03  0.50000000000E+03  0.00000000000E+00 0. -1.
         23    2    1    2    0    0 -0.37793277886E+02 -0.59537146178E+02  0.30327428535E+03  0.32536651304E+03  0.94419659104E+02 0.  0.
        -11    1    1    2    0    0  0.21034074670E+02 -0.37300460575E+02  0.17817875208E+03  0.18325235156E+03  0.00000000000E+00 0.  1.
         11    1    1    2    0    0  0.16759203216E+02  0.96837606753E+02 -0.48145303744E+03  0.49138113540E+03  0.00000000000E+00 0. -1.
        -15    1    3    3    0    0  0.83089038324E+01 -0.64140565766E+02  0.22759907410E+03  0.23661687666E+03  0.17770000000E+01 0.  1.
         15    1    3    3    0    0 -0.46102181718E+02  0.46034195880E+01  0.75675211248E+02  0.88749636380E+02  0.17770000000E+01 0. -1.
</event>
<event>
 7    1  0.3234965E-006  0.3845901E+03  0.7546771E-02  0.9703061E-01
        -11   -1    0    0    0    0  0.00000000000E+00  0.00000000000E+00  0.50000000000E+03  0.50000000000E+03  0.00000000000E+00 0. -1.
         11   -1    0    0    0    0 -0.00000000000E+00 -0.00000000000E+00 -0.50000000000E+03  0.50000000000E+03  0.00000000000E+00 0. -1.
         23    2    1    2    0    0 -0.34568045472E+02 -0.70736279533E+02 -0.45170406211E+03  0.46731288999E+03  0.90256337212E+02 0.  0.
        -11    1    1    2    0    0 -0.65940835030E+01 -0.81682029139E+02  0.30964191645E+03  0.32030228261E+03  0.00000000000E+00 0. -1.
         11    1    1    2    0    0  0.41162128975E+02  0.15241830867E+03  0.14206214566E+03  0.21238482740E+03  0.00000000000E+00 0. -1.
        -15    1    3    3    0    0  0.19511781538E+02  0.74489468909E+01 -0.45002768817E+02  0.49644771716E+02  0.17770000000E+01 0.  1.
         15    1    3    3    0    0 -0.54079827011E+02 -0.78185226424E+02 -0.40670129330E+03  0.41766811827E+03  0.17770000000E+01 0. -1.
</event>
<event>
 7    1  0.3234965E-006  0.4139066E+03  0.7546771E-02  0.9616181E-01
        -11   -1    0    0    0    0  0.00000000000E+00  0.00000000000E+00  0.50000000000E+03  0.50000000000E+03  0.00000000000E+00 0.  1.
         11   -1    0    0    0    0 -0.00000000000E+00 -0.00000000000E+00 -0.50000000000E+03  0.50000000000E+03  0.00000000000E+00 0. -1.
         23    2    1    2    0    0  0.47628198731E+02  0.12233243916E+03  0.35189653681E+02  0.16110385274E+03  0.86501263905E+02 0.  0.
        -11    1    1    2    0    0 -0.10549632490E+03 -0.30966116200E+02  0.38739329532E+03  0.40269335751E+03  0.00000000000E+00 0.  1.
         11    1    1    2    0    0  0.57868126170E+02 -0.91366322959E+02 -0.42258294900E+03  0.43620278975E+03  0.00000000000E+00 0. -1.
        -15    1    3    3    0    0  0.12728304669E+02  0.74052865758E+02  0.60370591620E+02  0.96403333596E+02  0.17770000000E+01 0. -1.
         15    1    3    3    0    0  0.34899894062E+02  0.48279573401E+02 -0.25180937939E+02  0.64700519146E+02  0.17770000000E+01 0.  1.
</event>
<event>
 7    1  0.3234965E-006  0.4377977E+03  0.7546771E-02  0.9550874E-01
        -11   -1    0    0    0    0  0.00000000000E+00  0.00000000000E+00  0.50000000000E+03  0.50000000000E+03  0.00000000000E+00 0. -1.
         11   -1    0    0    0    0 -0.00000000000E+00 -0.00000000000E+00 -0.50000000000E+03  0.50000000000E+03  0.00000000000E+00 0. -1.
         23    2    1    2    0    0 -0.20021250745E+02  0.11695849948E+02 -0.42595982990E+03  0.43630512296E+03  0.91557305760E+02 0.  0.
        -11    1    1    2    0    0 -0.14929165494E+02  0.10841217186E+03  0.42472693402E+03  0.43859895972E+03  0.00000000000E+00 0. -1.
         11    1    1    2    0    0  0.34950416240E+02 -0.12010802181E+03  0.12328958847E+01  0.12509591732E+03  0.00000000000E+00 0. -1.
        -15    1    3    3    0    0  0.32265241199E+02 -0.10901677414E+02 -0.10729047176E+03  0.11258017330E+03  0.17770000000E+01 0.  1.
         15    1    3    3    0    0 -0.52286491944E+02  0.22597527362E+02 -0.31866935814E+03  0.32372494966E+03  0.17770000000E+01 0. -1.
</event>
<event>
 7    1  0.3234965E-006  0.5220010E+03  0.7546771E-02  0.9351883E-01
        -11   -1    0    0    0    0  0.00000000000E+00  0.00000000000E+00  0.50000000000E+03  0.50000000000E+03  0.00000000000E+00 0.  1.
         11   -1    0    0    0    0 -0.00000000000E+00 -0.00000000000E+00 -0.50000000000E+03  0.50000000000E+03  0.00000000000E+00 0. -1.
         23    2    1    2    0    0  0.31222541715E+02 -0.53932059747E+02 -0.27343262519E+03  0.29439970274E+03  0.89567127175E+02 0.  0.
        -11    1    1    2    0    0 -0.17598238179E+03  0.13019352671E+02  0.44423390844E+03  0.47799902474E+03  0.00000000000E+00 0.  1.
         11    1    1    2    0    0  0.14475984008E+03  0.40912707075E+02 -0.17080128324E+03  0.22760127253E+03  0.00000000000E+00 0. -1.
        -15    1    3    3    0    0 -0.62315990671E+01  0.14250839121E+02 -0.75801810815E+01  0.17393565386E+02  0.17770000000E+01 0.  1.
         15    1    3    3    0    0  0.37454140783E+02 -0.68182898868E+02 -0.26585244411E+03  0.27700613735E+03  0.17770000000E+01 0. -1.
</event>
<event>
 7    1  0.3234965E-006  0.5100541E+03  0.7546771E-02  0.9377590E-01
        -11   -1    0    0    0    0  0.00000000000E+00  0.00000000000E+00  0.50000000000E+03  0.50000000000E+03  0.00000000000E+00 0. -1.
         11   -1    0    0    0    0 -0.00000000000E+00 -0.00000000000E+00 -0.50000000000E+03  0.50000000000E+03  0.00000000000E+00 0.  1.
         23    2    1    2    0    0  0.26146297447E+02  0.11526605942E+03  0.24829267651E+03  0.28957016648E+03  0.90728908178E+02 0.  0.
        -11    1    1    2    0    0 -0.33512151478E+02  0.56763125132E+02  0.21039971336E+03  0.22048391337E+03  0.00000000000E+00 0. -1.
         11    1    1    2    0    0  0.73658540309E+01 -0.17202918455E+03 -0.45869238988E+03  0.48994592015E+03  0.00000000000E+00 0.  1.
        -15    1    3    3    0    0  0.66053694963E+01  0.41353568559E+02  0.15751379531E+02  0.44777362862E+02  0.17770000000E+01 0.  1.
         15    1    3    3    0    0  0.19540927950E+02  0.73912490859E+02  0.23254129698E+03  0.24479280361E+03  0.17770000000E+01 0. -1.
</event>
<event>
 7    1  0.3234965E-006  0.5322837E+03  0.7546771E-02  0.9330336E-01
        -11   -1    0    0    0    0  0.00000000000E+00  0.00000000000E+00  0.50000000000E+03  0.50000000000E+03  0.00000000000E+00 0.  1.
         11   -1    0    0    0    0 -0.00000000000E+00 -0.00000000000E+00 -0.50000000000E+03  0.50000000000E+03  0.00000000000E+00 0. -1.
         23    2    1    2    0    0  0.11077342320E+03 -0.36781044571E+02 -0.20832328003E+03  0.25524999322E+03  0.90168583826E+02 0.  0.
        -11    1    1    2    0    0 -0.21402332872E+03 -0.14550971900E+03  0.38958885408E+03  0.46771630160E+03  0.00000000000E+00 0.  1.
         11    1    1    2    0    0  0.10324990552E+03  0.18229076357E+03 -0.18126557405E+03  0.27703370518E+03  0.00000000000E+00 0. -1.
        -15    1    3    3    0    0  0.87516560054E+02 -0.24163369071E+02 -0.70673974553E+02  0.11506947943E+03  0.17770000000E+01 0. -1.
         15    1    3    3    0    0  0.23256863142E+02 -0.12617675500E+02 -0.13764930548E+03  0.14018051379E+03  0.17770000000E+01 0.  1.
</event>
<event>
 7    1  0.3234965E-006  0.5100274E+03  0.7546771E-02  0.9377648E-01
        -11   -1    0    0    0    0  0.00000000000E+00  0.00000000000E+00  0.50000000000E+03  0.50000000000E+03  0.00000000000E+00 0.  1.
         11   -1    0    0    0    0 -0.00000000000E+00 -0.00000000000E+00 -0.50000000000E+03  0.50000000000E+03  0.00000000000E+00 0. -1.
         23    2    1    2    0    0  0.63222070923E+02 -0.10939327446E+02  0.23490842013E+03  0.26046470685E+03  0.92429424597E+02 0.  0.
        -11    1    1    2    0    0  0.25166985931E+02 -0.50590944774E+02  0.24308170105E+03  0.24956268603E+03  0.00000000000E+00 0.  1.
         11    1    1    2    0    0 -0.88389056854E+02  0.61530272220E+02 -0.47799012118E+03  0.48997260711E+03  0.00000000000E+00 0. -1.
        -15    1    3    3    0    0  0.66166477013E+02  0.13647929377E+02  0.85386685188E+02  0.10889587868E+03  0.17770000000E+01 0.  1.
         15    1    3    3    0    0 -0.29444060901E+01 -0.24587256823E+02  0.14952173494E+03  0.15156882818E+03  0.17770000000E+01 0. -1.
</event>
<event>
 7    1  0.3234965E-006  0.4634005E+03  0.7546771E-02  0.9485647E-01
        -11   -1    0    0    0    0  0.00000000000E+00  0.00000000000E+00  0.50000000000E+03  0.50000000000E+03  0.00000000000E+00 0.  1.
         11   -1    0    0    0    0 -0.00000000000E+00 -0.00000000000E+00 -0.50000000000E+03  0.50000000000E+03  0.00000000000E+00 0. -1.
         23    2    1    2    0    0 -0.74784951350E+02  0.13129737458E+03  0.39182170446E+03  0.43080541818E+03  0.96110721214E+02 0.  0.
        -11    1    1    2    0    0 -0.98599937288E+01 -0.18914629104E+02  0.76904776604E+02  0.79808065601E+02  0.00000000000E+00 0.  1.
         11    1    1    2    0    0  0.84644945079E+02 -0.11238274548E+03 -0.46872648106E+03  0.48938651622E+03  0.00000000000E+00 0. -1.
        -15    1    3    3    0    0  0.22082222510E+01  0.50695443736E+02  0.22149222911E+03  0.22723747390E+03  0.17770000000E+01 0.  1.
         15    1    3    3    0    0 -0.76993173601E+02  0.80601930847E+02  0.17032947535E+03  0.20356794428E+03  0.17770000000E+01 0. -1.
</event>
<event>
 7    1  0.3234965E-006  0.3341090E+03  0.7546771E-02  0.9874020E-01
        -11   -1    0    0    0    0  0.00000000000E+00  0.00000000000E+00  0.50000000000E+03  0.50000000000E+03  0.00000000000E+00 0.  1.
         11   -1    0    0    0    0 -0.00000000000E+00 -0.00000000000E+00 -0.50000000000E+03  0.50000000000E+03  0.00000000000E+00 0. -1.
         23    2    1    2    0    0  0.78729820679E+01  0.26691037822E+02  0.31921061600E+03  0.33232075416E+03  0.88132122008E+02 0.  0.
        -11    1    1    2    0    0  0.18762366665E+03  0.17696428698E+03 -0.28327771672E+03  0.38309954834E+03  0.00000000000E+00 0. -1.
         11    1    1    2    0    0 -0.19549664871E+03 -0.20365532480E+03 -0.35932899289E+02  0.28457969750E+03  0.00000000000E+00 0.  1.
        -15    1    3    3    0    0  0.14736020575E+02  0.56848773875E+02  0.24411128263E+03  0.25108247535E+03  0.17770000000E+01 0. -1.
         15    1    3    3    0    0 -0.68630385073E+01 -0.30157736052E+02  0.75099333375E+02  0.81238278808E+02  0.17770000000E+01 0.  1.
</event>
<event>
 7    1  0.3234965E-006  0.5381052E+03  0.7546771E-02  0.9318364E-01
        -11   -1    0    0    0    0  0.00000000000E+00  0.00000000000E+00  0.50000000000E+03  0.50000000000E+03  0.00000000000E+00 0. -1.
         11   -1    0    0    0    0 -0.00000000000E+00 -0.00000000000E+00 -0.50000000000E+03  0.50000000000E+03  0.00000000000E+00 0.  1.
         23    2    1    2    0    0  0.14231313371E+02  0.46902028126E+02 -0.24232287524E+02  0.10664894278E+03  0.91566711825E+02 0.  0.
        -11    1    1    2    0    0 -0.31496840594E+03 -0.53865473335E+02  0.33352696577E+03  0.46189481795E+03  0.00000000000E+00 0. -1.
         11    1    1    2    0    0  0.30073709256E+03  0.69634452091E+01 -0.30929467825E+03  0.43145623927E+03  0.00000000000E+00 0.  1.
        -15    1    3    3    0    0 -0.96430181369E+01  0.69944829681E+02 -0.16825965688E+02  0.72605356883E+02  0.17770000000E+01 0. -1.
         15    1    3    3    0    0  0.23874331508E+02 -0.23042801555E+02 -0.74063218362E+01  0.34043585895E+02  0.17770000000E+01 0.  1.
</event>
<event>
 7    1  0.3896533E-006  0.5118158E+03  0.7546771E-02  0.9373752E-01
        -11   -1    0    0    0    0  0.00000000000E+00  0.00000000000E+00  0.50000000000E+03  0.50000000000E+03  0.00000000000E+00 0.  1.
         11   -1    0    0    0    0 -0.00000000000E+00 -0.00000000000E+00 -0.50000000000E+03  0.50000000000E+03  0.00000000000E+00 0.  1.
         23    2    1    2    0    0  0.27453887633E+02  0.29497883368E+01  0.39062989844E+03  0.40190728783E+03  0.90417549536E+02 0.  0.
        -11    1    1    2    0    0  0.55445038103E+02 -0.31161694513E+02  0.89636356058E+02  0.10990850642E+03  0.00000000000E+00 0.  1.
         11    1    1    2    0    0 -0.82898925735E+02  0.28211906177E+02 -0.48026625449E+03  0.48818420575E+03  0.00000000000E+00 0.  1.
        -15    1    3    3    0    0  0.30370844652E+02  0.43587028052E+02  0.19821436541E+03  0.20521771270E+03  0.17770000000E+01 0.  1.
         15    1    3    3    0    0 -0.29169570191E+01 -0.40637239716E+02  0.19241553302E+03  0.19668957514E+03  0.17770000000E+01 0. -1.
</event>
<event>
 7    1  0.3234965E-006  0.3422954E+03  0.7546771E-02  0.9844173E-01
        -11   -1    0    0    0    0  0.00000000000E+00  0.00000000000E+00  0.50000000000E+03  0.50000000000E+03  0.00000000000E+00 0. -1.
         11   -1    0    0    0    0 -0.00000000000E+00 -0.00000000000E+00 -0.50000000000E+03  0.50000000000E+03  0.00000000000E+00 0.  1.
         23    2    1    2    0    0 -0.99054337934E+02  0.15577631309E+03 -0.17522165106E+03  0.26962657097E+03  0.88982240851E+02 0.  0.
        -11    1    1    2    0    0 -0.14515711826E+02 -0.80727637471E+02  0.43201398710E+03  0.43973144349E+03  0.00000000000E+00 0. -1.
         11    1    1    2    0    0  0.11357004976E+03 -0.75048675618E+02 -0.25679233604E+03  0.29064198555E+03  0.00000000000E+00 0.  1.
        -15    1    3    3    0    0 -0.12812798595E+02  0.82113328536E+02 -0.37466853930E+02  0.91179435201E+02  0.17770000000E+01 0.  1.
         15    1    3    3    0    0 -0.86241539339E+02  0.73662984553E+02 -0.13775479713E+03  0.17844713577E+03  0.17770000000E+01 0. -1.
</event>
<event>
 7    1  0.3234965E-006  0.5164086E+03  0.7546771E-02  0.9363825E-01
        -11   -1    0    0    0    0  0.00000000000E+00  0.00000000000E+00  0.50000000000E+03  0.50000000000E+03  0.00000000000E+00 0. -1.
         11   -1    0    0    0    0 -0.00000000000E+00 -0.00000000000E+00 -0.50000000000E+03  0.50000000000E+03  0.00000000000E+00 0. -1.
         23    2    1    2    0    0  0.33655944660E+02 -0.38206979544E+02 -0.47202782362E+03  0.48359135992E+03  0.91966522321E+02 0.  0.
        -11    1    1    2    0    0  0.10596801406E+01  0.10336318274E+03  0.40046108446E+03  0.41358693238E+03  0.00000000000E+00 0. -1.
         11    1    1    2    0    0 -0.34715624801E+02 -0.65156203198E+02  0.71566739161E+02  0.10282170770E+03  0.00000000000E+00 0. -1.
        -15    1    3    3    0    0 -0.80036758613E+01  0.26625950624E+02 -0.11330045433E+03  0.11667540767E+03  0.17770000000E+01 0.  1.
         15    1    3    3    0    0  0.41659620522E+02 -0.64832930168E+02 -0.35872736928E+03  0.36691595225E+03  0.17770000000E+01 0. -1.
</event>
<event>
 7    1  0.3234965E-006  0.5096926E+03  0.7546771E-02  0.9378379E-01
        -11   -1    0    0    0    0  0.00000000000E+00  0.00000000000E+00  0.50000000000E+03  0.50000000000E+03  0.00000000000E+00 0.  1.
         11   -1    0    0    0    0 -0.00000000000E+00 -0.00000000000E+00 -0.50000000000E+03  0.50000000000E+03  0.00000000000E+00 0. -1.
         23    2    1    2    0    0  0.18000914797E+02  0.46089634592E+02 -0.30626235974E+03  0.32363383886E+03  0.92162580857E+02 0.  0.
        -11    1    1    2    0    0 -0.65558810681E+02 -0.11680764675E+03  0.47165601180E+03  0.49030743158E+03  0.00000000000E+00 0.  1.
         11    1    1    2    0    0  0.47557895884E+02  0.70718012159E+02 -0.16539365206E+03  0.18605872956E+03  0.00000000000E+00 0. -1.
        -15    1    3    3    0    0 -0.26128593059E+02 -0.12738652226E+02 -0.61329560039E+02  0.67892925253E+02  0.17770000000E+01 0. -1.
         15    1    3    3    0    0  0.44129507856E+02  0.58828286818E+02 -0.24493279970E+03  0.25574091360E+03  0.17770000000E+01 0.  1.
</event>
<event>
 7    1  0.3234965E-006  0.4090897E+03  0.7546771E-02  0.9629918E-01
        -11   -1    0    0    0    0  0.00000000000E+00  0.00000000000E+00  0.50000000000E+03  0.50000000000E+03  0.00000000000E+00 0. -1.
         11   -1    0    0    0    0 -0.00000000000E+00 -0.00000000000E+00 -0.50000000000E+03  0.50000000000E+03  0.00000000000E+00 0. -1.
         23    2    1    2    0    0  0.91679400442E+02 -0.14713463350E+02 -0.34127328215E+03  0.36486264256E+03  0.89642045689E+02 0.  0.
        -11    1    1    2    0    0 -0.11060145891E+02  0.12959894582E+03  0.44306327233E+03  0.46176106037E+03  0.00000000000E+00 0. -1.
         11    1    1    2    0    0 -0.80619254552E+02 -0.11488548247E+03 -0.10178999018E+03  0.17337629707E+03  0.00000000000E+00 0. -1.
        -15    1    3    3    0    0  0.85110149123E+02  0.19126745481E+02 -0.29160102315E+03  0.30437457894E+03  0.17770000000E+01 0. -1.
         15    1    3    3    0    0  0.65692513195E+01 -0.33840208831E+02 -0.49672259008E+02  0.60488063620E+02  0.17770000000E+01 0.  1.
</event>
<event>
 7    1  0.3234965E-006  0.5088337E+03  0.7546771E-02  0.9380258E-01
        -11   -1    0    0    0    0  0.00000000000E+00  0.00000000000E+00  0.50000000000E+03  0.50000000000E+03  0.00000000000E+00 0. -1.
         11   -1    0    0    0    0 -0.00000000000E+00 -0.00000000000E+00 -0.50000000000E+03  0.50000000000E+03  0.00000000000E+00 0.  1.
         23    2    1    2    0    0 -0.10964451410E+02  0.13202944370E+03  0.36756674651E+03  0.40043567656E+03  0.87700768121E+02 0.  0.
        -11    1    1    2    0    0 -0.22979845172E+02 -0.54517838211E+01  0.10579382355E+03  0.10839800890E+03  0.00000000000E+00 0. -1.
         11    1    1    2    0    0  0.33944296582E+02 -0.12657765988E+03 -0.47336057006E+03  0.49116631454E+03  0.00000000000E+00 0.  1.
        -15    1    3    3    0    0  0.32611459976E+01  0.65254100097E+02  0.72691466273E+02  0.97754486601E+02  0.17770000000E+01 0. -1.
         15    1    3    3    0    0 -0.14225597408E+02  0.66775343599E+02  0.29487528024E+03  0.30268118996E+03  0.17770000000E+01 0.  1.
</event>
<event>
 6    1  0.3234965E-006  0.4002601E+03  0.7546771E-02  0.9655632E-01
        -11   -1    0    0    0    0  0.00000000000E+00  0.00000000000E+00  0.50000000000E+03  0.50000000000E+03  0.00000000000E+00 0. -1.
         11   -1    0    0    0    0 -0.00000000000E+00 -0.00000000000E+00 -0.50000000000E+03  0.50000000000E+03  0.00000000000E+00 0. -1.
        -11    1    1    2    0    0 -0.64272733580E+02  0.50977872549E+02  0.24342519594E+03  0.25687653414E+03  0.00000000000E+00 0. -1.
         11    1    1    2    0    0  0.26435557205E+03 -0.14455137171E+03 -0.25604255167E+03  0.39539443066E+03  0.00000000000E+00 0. -1.
        -15    1    1    2    0    0 -0.22320967261E+03  0.95911224733E+02  0.95939586003E+02  0.26120697324E+03  0.17770000000E+01 0. -1.
         15    1    1    2    0    0  0.23126834141E+02 -0.23377255762E+01 -0.83322230280E+02  0.86522061962E+02  0.17770000000E+01 0.  1.
</event>
<event>
 7    1  0.3234965E-006  0.3453735E+03  0.7546771E-02  0.9833182E-01
        -11   -1    0    0    0    0  0.00000000000E+00  0.00000000000E+00  0.50000000000E+03  0.50000000000E+03  0.00000000000E+00 0.  1.
         11   -1    0    0    0    0 -0.00000000000E+00 -0.00000000000E+00 -0.50000000000E+03  0.50000000000E+03  0.00000000000E+00 0. -1.
         23    2    1    2    0    0  0.46429498994E+02  0.20456881103E+03  0.13489221386E+03  0.26560814293E+03  0.91365635822E+02 0.  0.
        -11    1    1    2    0    0  0.26923909696E+03 -0.82098889181E+01  0.10812068153E+03  0.29025363974E+03  0.00000000000E+00 0.  1.
         11    1    1    2    0    0 -0.31566859595E+03 -0.19635892211E+03 -0.24301289539E+03  0.44413821733E+03  0.00000000000E+00 0. -1.
        -15    1    3    3    0    0  0.18325907788E+02  0.10187243610E+03  0.13936667484E+02  0.10445678802E+03  0.17770000000E+01 0. -1.
         15    1    3    3    0    0  0.28103591206E+02  0.10269637493E+03  0.12095554638E+03  0.16115135491E+03  0.17770000000E+01 0.  1.
</event>
<event>
 7    1  0.3234965E-006  0.5169386E+03  0.7546771E-02  0.9362686E-01
        -11   -1    0    0    0    0  0.00000000000E+00  0.00000000000E+00  0.50000000000E+03  0.50000000000E+03  0.00000000000E+00 0. -1.
         11   -1    0    0    0    0 -0.00000000000E+00 -0.00000000000E+00 -0.50000000000E+03  0.50000000000E+03  0.00000000000E+00 0.  1.
         23    2    1    2    0    0  0.17826462051E+03  0.12085418069E+03  0.31202178808E+03  0.38969097235E+03  0.90096891045E+02 0.  0.
        -11    1    1    2    0    0 -0.25568840162E+02  0.61464460183E+02  0.10844493401E+03  0.12724759001E+03  0.00000000000E+00 0. -1.
         11    1    1    2    0    0 -0.15269578035E+03 -0.18231864088E+03 -0.42046672209E+03  0.48306143764E+03  0.00000000000E+00 0.  1.
        -15    1    3    3    0    0  0.12601612794E+03  0.11697741305E+03  0.18654885115E+03  0.25370733387E+03  0.17770000000E+01 0.  1.
         15    1    3    3    0    0  0.52248492568E+02  0.38767676458E+01  0.12547293693E+03  0.13598363848E+03  0.17770000000E+01 0. -1.
</event>
<event>
 7    1  0.3234965E-006  0.3381114E+03  0.7546771E-02  0.9859314E-01
        -11   -1    0    0    0    0  0.00000000000E+00  0.00000000000E+00  0.50000000000E+03  0.50000000000E+03  0.00000000000E+00 0.  1.
         11   -1    0    0    0    0 -0.00000000000E+00 -0.00000000000E+00 -0.50000000000E+03  0.50000000000E+03  0.00000000000E+00 0. -1.
         23    2    1    2    0    0 -0.89050423215E+02  0.10165812513E+03 -0.22106435779E+03  0.27583764859E+03  0.94618210801E+02 0.  0.
        -11    1    1    2    0    0 -0.63482738726E+02  0.33399857289E+02  0.42788081561E+03  0.43385204961E+03  0.00000000000E+00 0.  1.
         11    1    1    2    0    0  0.15253316194E+03 -0.13505798242E+03 -0.20681645783E+03  0.29031030180E+03  0.00000000000E+00 0. -1.
        -15    1    3    3    0    0  0.10599442441E+02 -0.77566911000E+01 -0.39086135636E+02  0.41272244485E+02  0.17770000000E+01 0. -1.
         15    1    3    3    0    0 -0.99649865656E+02  0.10941481623E+03 -0.18197822215E+03  0.23456540410E+03  0.17770000000E+01 0.  1.
</event>
<event>
 7    1  0.3234965E-006  0.5099632E+03  0.7546771E-02  0.9377788E-01
        -11   -1    0    0    0    0  0.00000000000E+00  0.00000000000E+00  0.50000000000E+03  0.50000000000E+03  0.00000000000E+00 0.  1.
         11   -1    0    0    0    0 -0.00000000000E+00 -0.00000000000E+00 -0.50000000000E+03  0.50000000000E+03  0.00000000000E+00 0. -1.
         23    2    1    2    0    0 -0.56364410033E+02 -0.88667691878E+01  0.23310227186E+03  0.25660434856E+03  0.90849084968E+02 0.  0.
        -11    1    1    2    0    0 -0.11447639119E+03 -0.80207838036E+01  0.22587949709E+03  0.25335888443E+03  0.00000000000E+00 0.  1.
         11    1    1    2    0    0  0.17084080122E+03  0.16887552991E+02 -0.45898176894E+03  0.49003676702E+03  0.00000000000E+00 0. -1.
        -15    1    3    3    0    0 -0.43122845237E+02  0.37077381689E+02  0.15377771675E+03  0.16396663048E+03  0.17770000000E+01 0. -1.
         15    1    3    3    0    0 -0.13241564797E+02 -0.45944150877E+02  0.79324555110E+02  0.92637718077E+02  0.17770000000E+01 0.  1.
</event>
<event>
 7    1  0.3234965E-006  0.4062289E+03  0.7546771E-02  0.9638173E-01
        -11   -1    0    0    0    0  0.00000000000E+00  0.00000000000E+00  0.50000000000E+03  0.50000000000E+03  0.00000000000E+00 0. -1.
         11   -1    0    0    0    0 -0.00000000000E+00 -0.00000000000E+00 -0.50000000000E+03  0.50000000000E+03  0.00000000000E+00 0.  1.
         23    2    1    2    0    0  0.16346825226E+02  0.14690802175E+03  0.14798982349E+02  0.17407276163E+03  0.90736601855E+02 0.  0.
        -11    1    1    2    0    0  0.12981257406E+03 -0.13515921911E+01  0.36847268199E+03  0.39067281522E+03  0.00000000000E+00 0. -1.
         11    1    1    2    0    0 -0.14615939928E+03 -0.14555642955E+03 -0.38327166433E+03  0.43525442314E+03  0.00000000000E+00 0.  1.
        -15    1    3    3    0    0 -0.67284628558E+00  0.12261871575E+03 -0.24247134878E+02  0.12500753358E+03  0.17770000000E+01 0.  1.
         15    1    3    3    0    0  0.17019671512E+02  0.24289305997E+02  0.39046117226E+02  0.49065228050E+02  0.17770000000E+01 0. -1.
</event>
<event>
 7    1  0.3234965E-006  0.5171394E+03  0.7546771E-02  0.9362255E-01
        -11   -1    0    0    0    0  0.00000000000E+00  0.00000000000E+00  0.50000000000E+03  0.50000000000E+03  0.00000000000E+00 0. -1.
         11   -1    0    0    0    0 -0.00000000000E+00 -0.00000000000E+00 -0.50000000000E+03  0.50000000000E+03  0.00000000000E+00 0.  1.
         23    2    1    2    0    0 -0.30476673234E+02 -0.26451361048E+02 -0.14338455676E+03  0.17480263296E+03  0.91478561750E+02 0.  0.
        -11    1    1    2    0    0  0.72091642197E+02 -0.47157805093E+02  0.47511393361E+03  0.48286055271E+03  0.00000000000E+00 0. -1.
         11    1    1    2    0    0 -0.41614968963E+02  0.73609166141E+02 -0.33172937685E+03  0.34233681433E+03  0.00000000000E+00 0.  1.
        -15    1    3    3    0    0 -0.16061002694E+02 -0.29516704294E+02 -0.15330076874E+03  0.15695054974E+03  0.17770000000E+01 0.  1.
         15    1    3    3    0    0 -0.14415670540E+02  0.30653432457E+01  0.99162119759E+01  0.17852083220E+02  0.17770000000E+01 0. -1.
</event>
<event>
 7    1  0.3234965E-006  0.5375479E+03  0.7546771E-02  0.9319503E-01
        -11   -1    0    0    0    0  0.00000000000E+00  0.00000000000E+00  0.50000000000E+03  0.50000000000E+03  0.00000000000E+00 0.  1.
         11   -1    0    0    0    0 -0.00000000000E+00 -0.00000000000E+00 -0.50000000000E+03  0.50000000000E+03  0.00000000000E+00 0. -1.
         23    2    1    2    0    0  0.20119443324E+02  0.33374209600E+02  0.91392617914E+01  0.10176818736E+03  0.93566062152E+02 0.  0.
        -11    1    1    2    0    0 -0.88658649888E+02  0.30732679349E+03  0.29596258749E+03  0.43577972347E+03  0.00000000000E+00 0.  1.
         11    1    1    2    0    0  0.68539206564E+02 -0.34070100309E+03 -0.30510184928E+03  0.46245208917E+03  0.00000000000E+00 0. -1.
        -15    1    3    3    0    0  0.42613718860E+02 -0.16349567341E+02 -0.31939891081E+01  0.45788608657E+02  0.17770000000E+01 0.  1.
         15    1    3    3    0    0 -0.22494275536E+02  0.49723776941E+02  0.12333250900E+02  0.55979578704E+02  0.17770000000E+01 0. -1.
</event>
<event>
 6    1  0.3234965E-006  0.5130397E+03  0.7546771E-02  0.9371096E-01
        -11   -1    0    0    0    0  0.00000000000E+00  0.00000000000E+00  0.50000000000E+03  0.50000000000E+03  0.00000000000E+00 0.  1.
         11   -1    0    0    0    0 -0.00000000000E+00 -0.00000000000E+00 -0.50000000000E+03  0.50000000000E+03  0.00000000000E+00 0. -1.
        -11    1    1    2    0    0 -0.18210772039E+02 -0.12460117950E+03  0.45380847641E+03  0.47095564485E+03  0.00000000000E+00 0.  1.
         11    1    1    2    0    0 -0.92140135792E+01  0.15110629585E+02 -0.19486884067E+02  0.26324282010E+02  0.00000000000E+00 0. -1.
        -15    1    1    2    0    0 -0.90685619876E+02 -0.20135341096E+01 -0.15535798515E+03  0.17990885818E+03  0.17770000000E+01 0.  1.
         15    1    1    2    0    0  0.11811040549E+03  0.11150408402E+03 -0.27896360719E+03  0.32281121497E+03  0.17770000000E+01 0. -1.
</event>
<event>
 7    1  0.3234965E-006  0.5158406E+03  0.7546771E-02  0.9365046E-01
        -11   -1    0    0    0    0  0.00000000000E+00  0.00000000000E+00  0.50000000000E+03  0.50000000000E+03  0.00000000000E+00 0.  1.
         11   -1    0    0    0    0 -0.00000000000E+00 -0.00000000000E+00 -0.50000000000E+03  0.50000000000E+03  0.00000000000E+00 0. -1.
         23    2    1    2    0    0  0.30206851156E+02  0.38732746327E+01 -0.21155916707E+03  0.22838870908E+03  0.80477730779E+02 0.  0.
        -11    1    1    2    0    0  0.70079691803E+02  0.39568680579E+02  0.47742379096E+03  0.48415939510E+03  0.00000000000E+00 0.  1.
         11    1    1    2    0    0 -0.10028654296E+03 -0.43441955212E+02 -0.26586462390E+03  0.28745189582E+03  0.00000000000E+00 0. -1.
        -15    1    3    3    0    0  0.23148253061E+02 -0.36751642672E+02 -0.12824671407E+03  0.13541381856E+03  0.17770000000E+01 0. -1.
         15    1    3    3    0    0  0.70585980950E+01  0.40624917305E+02 -0.83312452995E+02  0.92974890514E+02  0.17770000000E+01 0.  1.
</event>
<event>
 7    1  0.3234965E-006  0.5244093E+03  0.7546771E-02  0.9346790E-01
        -11   -1    0    0    0    0  0.00000000000E+00  0.00000000000E+00  0.50000000000E+03  0.50000000000E+03  0.00000000000E+00 0.  1.
         11   -1    0    0    0    0 -0.00000000000E+00 -0.00000000000E+00 -0.50000000000E+03  0.50000000000E+03  0.00000000000E+00 0. -1.
         23    2    1    2    0    0  0.64835288544E+02  0.60592889120E+02 -0.10324545612E+03  0.16355132895E+03  0.90632776286E+02 0.  0.
        -11    1    1    2    0    0 -0.12803438439E+02 -0.18474044795E+03  0.43805661433E+03  0.47559074687E+03  0.00000000000E+00 0.  1.
         11    1    1    2    0    0 -0.52031850105E+02  0.12414755883E+03 -0.33481115821E+03  0.36085792419E+03  0.00000000000E+00 0. -1.
        -15    1    3    3    0    0  0.20681041329E+02  0.63136098977E+01  0.14836465571E+02  0.26283941486E+02  0.17770000000E+01 0. -1.
         15    1    3    3    0    0  0.44154247215E+02  0.54279279223E+02 -0.11808192169E+03  0.13726738746E+03  0.17770000000E+01 0.  1.
</event>
<event>
 7    1  0.3234965E-006  0.3457977E+03  0.7546771E-02  0.9831677E-01
        -11   -1    0    0    0    0  0.00000000000E+00  0.00000000000E+00  0.50000000000E+03  0.50000000000E+03  0.00000000000E+00 0.  1.
         11   -1    0    0    0    0 -0.00000000000E+00 -0.00000000000E+00 -0.50000000000E+03  0.50000000000E+03  0.00000000000E+00 0. -1.
         23    2    1    2    0    0  0.26166332057E+03 -0.22656272178E+03 -0.12249943553E+03  0.37829829640E+03  0.91132481168E+02 0.  0.
        -11    1    1    2    0    0 -0.17475341133E+03  0.46285239237E+02  0.30258354263E+03  0.35247394005E+03  0.00000000000E+00 0.  1.
         11    1    1    2    0    0 -0.86909909235E+02  0.18027748255E+03 -0.18008410709E+03  0.26922776355E+03  0.00000000000E+00 0. -1.
        -15    1    3    3    0    0  0.37268292217E+02 -0.42236615029E+01  0.45217387964E+01  0.37820216446E+02  0.17770000000E+01 0.  1.
         15    1    3    3    0    0  0.22439502835E+03 -0.22233906028E+03 -0.12702117433E+03  0.34047807996E+03  0.17770000000E+01 0. -1.
</event>
<event>
 7    1  0.3234965E-006  0.4650042E+03  0.7546771E-02  0.9481711E-01
        -11   -1    0    0    0    0  0.00000000000E+00  0.00000000000E+00  0.50000000000E+03  0.50000000000E+03  0.00000000000E+00 0.  1.
         11   -1    0    0    0    0 -0.00000000000E+00 -0.00000000000E+00 -0.50000000000E+03  0.50000000000E+03  0.00000000000E+00 0.  1.
         23    2    1    2    0    0  0.14735373988E+03  0.33730487846E+02  0.39280302004E+03  0.43276658282E+03  0.10070666408E+03 0.  0.
        -11    1    1    2    0    0  0.60268412160E+02  0.11163645668E+01  0.49099359671E+02  0.77744934846E+02  0.00000000000E+00 0.  1.
         11    1    1    2    0    0 -0.20762215204E+03 -0.34846852413E+02 -0.44190237971E+03  0.48948848233E+03  0.00000000000E+00 0.  1.
        -15    1    3    3    0    0  0.61748563677E+02 -0.35737326992E+02  0.15185384237E+03  0.16778792814E+03  0.17770000000E+01 0.  1.
         15    1    3    3    0    0  0.85605176204E+02  0.69467814838E+02  0.24094917767E+03  0.26497865468E+03  0.17770000000E+01 0. -1.
</event>
<event>
 7    1  0.3234965E-006  0.3896499E+03  0.7546771E-02  0.9687486E-01
        -11   -1    0    0    0    0  0.00000000000E+00  0.00000000000E+00  0.50000000000E+03  0.50000000000E+03  0.00000000000E+00 0.  1.
         11   -1    0    0    0    0 -0.00000000000E+00 -0.00000000000E+00 -0.50000000000E+03  0.50000000000E+03  0.00000000000E+00 0.  1.
         23    2    1    2    0    0  0.27426726609E+03 -0.23518201754E+03 -0.22807084740E+03  0.43681892788E+03  0.90891967171E+02 0.  0.
        -11    1    1    2    0    0 -0.35507986896E+02 -0.30702783293E+02  0.19920923354E+03  0.20466508437E+03  0.00000000000E+00 0.  1.
         11    1    1    2    0    0 -0.23875927919E+03  0.26588480084E+03  0.28861613865E+02  0.35851598775E+03  0.00000000000E+00 0.  1.
        -15    1    3    3    0    0  0.24890182147E+03 -0.23276359784E+03 -0.23010390003E+03  0.41119578275E+03  0.17770000000E+01 0.  1.
         15    1    3    3    0    0  0.25365444614E+02 -0.24184197026E+01  0.20330526302E+01  0.25623145129E+02  0.17770000000E+01 0. -1.
</event>
<event>
 7    1  0.3234965E-006  0.4184629E+03  0.7546771E-02  0.9603369E-01
        -11   -1    0    0    0    0  0.00000000000E+00  0.00000000000E+00  0.50000000000E+03  0.50000000000E+03  0.00000000000E+00 0. -1.
         11   -1    0    0    0    0 -0.00000000000E+00 -0.00000000000E+00 -0.50000000000E+03  0.50000000000E+03  0.00000000000E+00 0.  1.
         23    2    1    2    0    0 -0.11000601576E+03 -0.34846323328E+02 -0.40608718574E+03  0.43228703058E+03  0.93003680709E+02 0.  0.
        -11    1    1    2    0    0 -0.38809224083E+02  0.88686969979E+02  0.39761593211E+03  0.40923094211E+03  0.00000000000E+00 0. -1.
         11    1    1    2    0    0  0.14881523985E+03 -0.53840646652E+02  0.84712536385E+01  0.15848202731E+03  0.00000000000E+00 0.  1.
        -15    1    3    3    0    0 -0.44911627085E+02  0.87060778928E+01 -0.50462290537E+02  0.68135530635E+02  0.17770000000E+01 0. -1.
         15    1    3    3    0    0 -0.65094388678E+02 -0.43552401220E+02 -0.35562489521E+03  0.36415149994E+03  0.17770000000E+01 0.  1.
</event>
<event>
 7    1  0.3234965E-006  0.3826423E+03  0.7546771E-02  0.9709125E-01
        -11   -1    0    0    0    0  0.00000000000E+00  0.00000000000E+00  0.50000000000E+03  0.50000000000E+03  0.00000000000E+00 0.  1.
         11   -1    0    0    0    0 -0.00000000000E+00 -0.00000000000E+00 -0.50000000000E+03  0.50000000000E+03  0.00000000000E+00 0. -1.
         23    2    1    2    0    0 -0.27323211478E+03  0.11926669973E+03 -0.20355487826E+03  0.37208092310E+03  0.90162579045E+02 0.  0.
        -11    1    1    2    0    0  0.16706230466E+03 -0.30583720661E+03  0.22081946357E+03  0.41256205118E+03  0.00000000000E+00 0.  1.
         11    1    1    2    0    0  0.10616981012E+03  0.18657050688E+03 -0.17264585310E+02  0.21535702571E+03  0.00000000000E+00 0. -1.
        -15    1    3    3    0    0 -0.22791308992E+03  0.13283985037E+03 -0.16641948166E+03  0.31191249415E+03  0.17770000000E+01 0. -1.
         15    1    3    3    0    0 -0.45319024866E+02 -0.13573150639E+02 -0.37135396596E+02  0.60168428951E+02  0.17770000000E+01 0.  1.
</event>
<event>
 7    1  0.3234965E-006  0.4674835E+03  0.7546771E-02  0.9475660E-01
        -11   -1    0    0    0    0  0.00000000000E+00  0.00000000000E+00  0.50000000000E+03  0.50000000000E+03  0.00000000000E+00 0.  1.
         11   -1    0    0    0    0 -0.00000000000E+00 -0.00000000000E+00 -0.50000000000E+03  0.50000000000E+03  0.00000000000E+00 0. -1.
         23    2    1    2    0    0 -0.25677565111E+01 -0.10975406160E+03  0.41229058031E+03  0.43634003662E+03  0.91414208603E+02 0.  0.
        -11    1    1    2    0    0  0.27197899602E+02 -0.57808093117E+01  0.65671739923E+02  0.71315642909E+02  0.00000000000E+00 0.  1.
         11    1    1    2    0    0 -0.24630143091E+02  0.11553487091E+03 -0.47796232023E+03  0.49234432047E+03  0.00000000000E+00 0. -1.
        -15    1    3    3    0    0 -0.42324912337E+02 -0.76137074616E+02  0.30283120100E+03  0.31511608395E+03  0.17770000000E+01 0.  1.
         15    1    3    3    0    0  0.39757155826E+02 -0.33616986981E+02  0.10945937930E+03  0.12122395267E+03  0.17770000000E+01 0. -1.
</event>
<event>
 7    1  0.3234965E-006  0.3838642E+03  0.7546771E-02  0.9705316E-01
        -11   -1    0    0    0    0  0.00000000000E+00  0.00000000000E+00  0.50000000000E+03  0.50000000000E+03  0.00000000000E+00 0.  1.
         11   -1    0    0    0    0 -0.00000000000E+00 -0.00000000000E+00 -0.50000000000E+03  0.50000000000E+03  0.00000000000E+00 0. -1.
         23    2    1    2    0    0  0.16732399362E+03 -0.58675094352E+02 -0.47760339102E+02  0.21061534815E+03  0.10313917465E+03 0.  0.
        -11    1    1    2    0    0 -0.14928314513E+03  0.20022208036E+03  0.36457689886E+03  0.44191702170E+03  0.00000000000E+00 0.  1.
         11    1    1    2    0    0 -0.18040848488E+02 -0.14154698601E+03 -0.31681655976E+03  0.34746763015E+03  0.00000000000E+00 0. -1.
        -15    1    3    3    0    0  0.45452100483E+02  0.20759837158E+02  0.14954645367E+02  0.52188728900E+02  0.17770000000E+01 0.  1.
         15    1    3    3    0    0  0.12187189314E+03 -0.79434931509E+02 -0.62714984469E+02  0.15842661925E+03  0.17770000000E+01 0. -1.
</event>
<event>
 7    1  0.3234965E-006  0.3543108E+03  0.7546771E-02  0.9801951E-01
        -11   -1    0    0    0    0  0.00000000000E+00  0.00000000000E+00  0.50000000000E+03  0.50000000000E+03  0.00000000000E+00 0.  1.
         11   -1    0    0    0    0 -0.00000000000E+00 -0.00000000000E+00 -0.50000000000E+03  0.50000000000E+03  0.00000000000E+00 0.  1.
         23    2    1    2    0    0 -0.13527932008E+03 -0.30398187956E+02 -0.39007079256E+03  0.42434078966E+03  0.93195162346E+02 0.  0.
        -11    1    1    2    0    0  0.22903148676E+02  0.20749169835E+03  0.15108673649E+03  0.25769082452E+03  0.00000000000E+00 0.  1.
         11    1    1    2    0    0  0.11237617140E+03 -0.17709351039E+03  0.23898405608E+03  0.31796838582E+03  0.00000000000E+00 0.  1.
        -15    1    3    3    0    0 -0.12268647874E+03 -0.53165642735E+02 -0.36255775248E+03  0.38643219230E+03  0.17770000000E+01 0. -1.
         15    1    3    3    0    0 -0.12592841340E+02  0.22767454779E+02 -0.27513040086E+02  0.37908597361E+02  0.17770000000E+01 0.  1.
</event>
<event>
 7    1  0.3234965E-006  0.4633057E+03  0.7546771E-02  0.9485880E-01
        -11   -1    0    0    0    0  0.00000000000E+00  0.00000000000E+00  0.50000000000E+03  0.50000000000E+03  0.00000000000E+00 0. -1.
         11   -1    0    0    0    0 -0.00000000000E+00 -0.00000000000E+00 -0.50000000000E+03  0.50000000000E+03  0.00000000000E+00 0.  1.
         23    2    1    2    0    0  0.39998715050E+02  0.48459964423E+01 -0.42416073366E+03  0.43599911230E+03  0.92517658118E+02 0.  0.
        -11    1    1    2    0    0 -0.89819680588E+02  0.29528687534E+02  0.47539104172E+03  0.48470213632E+03  0.00000000000E+00 0. -1.
         11    1    1    2    0    0  0.49820965537E+02 -0.34374683977E+02 -0.51230308064E+02  0.79298751377E+02  0.00000000000E+00 0.  1.
        -15    1    3    3    0    0  0.63405950562E+02 -0.15959839347E+02 -0.33883296699E+03  0.34508834852E+03  0.17770000000E+01 0.  1.
         15    1    3    3    0    0 -0.23407235512E+02  0.20805835790E+02 -0.85327766670E+02  0.90910763781E+02  0.17770000000E+01 0. -1.
</event>
<event>
 7    1  0.3234965E-006  0.5193931E+03  0.7546771E-02  0.9357432E-01
        -11   -1    0    0    0    0  0.00000000000E+00  0.00000000000E+00  0.50000000000E+03  0.50000000000E+03  0.00000000000E+00 0.  1.
         11   -1    0    0    0    0 -0.00000000000E+00 -0.00000000000E+00 -0.50000000000E+03  0.50000000000E+03  0.00000000000E+00 0.  1.
         23    2    1    2    0    0 -0.58361041877E+02  0.20523988254E+02  0.25679628333E+03  0.27957018117E+03  0.91585532506E+02 0.  0.
        -11    1    1    2    0    0  0.20393778414E+02 -0.10450343012E+03  0.21489104113E+03  0.23982291938E+03  0.00000000000E+00 0.  1.
         11    1    1    2    0    0  0.37967263462E+02  0.83979441862E+02 -0.47168732445E+03  0.48060689945E+03  0.00000000000E+00 0.  1.
        -15    1    3    3    0    0 -0.48112375873E+02  0.54932447894E+02  0.19274210649E+03  0.20611902360E+03  0.17770000000E+01 0.  1.
         15    1    3    3    0    0 -0.10248666004E+02 -0.34408459640E+02  0.64054176832E+02  0.73451157570E+02  0.17770000000E+01 0. -1.
</event>
<event>
 7    1  0.3234965E-006  0.3868056E+03  0.7546771E-02  0.9696210E-01
        -11   -1    0    0    0    0  0.00000000000E+00  0.00000000000E+00  0.50000000000E+03  0.50000000000E+03  0.00000000000E+00 0.  1.
         11   -1    0    0    0    0 -0.00000000000E+00 -0.00000000000E+00 -0.50000000000E+03  0.50000000000E+03  0.00000000000E+00 0. -1.
         23    2    1    2    0    0  0.13433448003E+03 -0.11199593789E+03  0.25477063091E+02  0.20645598420E+03  0.10670590442E+03 0.  0.
        -11    1    1    2    0    0 -0.16570076551E+03  0.11798587001E+01  0.35727942106E+03  0.39383590551E+03  0.00000000000E+00 0.  1.
         11    1    1    2    0    0  0.31366285472E+02  0.11081607919E+03 -0.38275648415E+03  0.39970811029E+03  0.00000000000E+00 0. -1.
        -15    1    3    3    0    0  0.81853519106E+02 -0.62618322662E+01 -0.11112023667E+02  0.82860388198E+02  0.17770000000E+01 0.  1.
         15    1    3    3    0    0  0.52480960929E+02 -0.10573410562E+03  0.36589086758E+02  0.12359559600E+03  0.17770000000E+01 0. -1.
</event>
<event>
 7    1  0.3234965E-006  0.5290466E+03  0.7546771E-02  0.9337063E-01
        -11   -1    0    0    0    0  0.00000000000E+00  0.00000000000E+00  0.50000000000E+03  0.50000000000E+03  0.00000000000E+00 0.  1.
         11   -1    0    0    0    0 -0.00000000000E+00 -0.00000000000E+00 -0.50000000000E+03  0.50000000000E+03  0.00000000000E+00 0. -1.
         23    2    1    2    0    0 -0.20301152383E+02  0.44553288077E+02 -0.19574787357E+03  0.22176982069E+03  0.92018971393E+02 0.  0.
        -11    1    1    2    0    0  0.15361667887E+03  0.94755662767E+02  0.43499466113E+03  0.47095336804E+03  0.00000000000E+00 0.  1.
         11    1    1    2    0    0 -0.13331552648E+03 -0.13930895084E+03 -0.23924678756E+03  0.30727681127E+03  0.00000000000E+00 0. -1.
        -15    1    3    3    0    0 -0.52482948054E+02  0.48765658190E+02 -0.13824207244E+03  0.15571312590E+03  0.17770000000E+01 0.  1.
         15    1    3    3    0    0  0.32181795672E+02 -0.42123701137E+01 -0.57505801128E+02  0.66056694793E+02  0.17770000000E+01 0. -1.
</event>
<event>
 7    1  0.3234965E-006  0.5131408E+03  0.7546771E-02  0.9370877E-01
        -11   -1    0    0    0    0  0.00000000000E+00  0.00000000000E+00  0.50000000000E+03  0.50000000000E+03  0.00000000000E+00 0.  1.
         11   -1    0    0    0    0 -0.00000000000E+00 -0.00000000000E+00 -0.50000000000E+03  0.50000000000E+03  0.00000000000E+00 0. -1.
         23    2    1    2    0    0  0.13594563227E+03  0.22637222670E+02  0.36544200351E+03  0.40196850783E+03  0.95064002526E+02 0.  0.
        -11    1    1    2    0    0 -0.25220914282E+02  0.16040431530E+02  0.10707886944E+03  0.11117227281E+03  0.00000000000E+00 0.  1.
         11    1    1    2    0    0 -0.11072471799E+03 -0.38677654200E+02 -0.47252087295E+03  0.48685921936E+03  0.00000000000E+00 0. -1.
        -15    1    3    3    0    0  0.39978020883E+02 -0.85535689526E+01  0.22691643739E+03  0.23057673990E+03  0.17770000000E+01 0.  1.
         15    1    3    3    0    0  0.95967611385E+02  0.31190791622E+02  0.13852556611E+03  0.17139176793E+03  0.17770000000E+01 0. -1.
</event>
<event>
 7    1  0.3234965E-006  0.4629678E+03  0.7546771E-02  0.9486712E-01
        -11   -1    0    0    0    0  0.00000000000E+00  0.00000000000E+00  0.50000000000E+03  0.50000000000E+03  0.00000000000E+00 0. -1.
         11   -1    0    0    0    0 -0.00000000000E+00 -0.00000000000E+00 -0.50000000000E+03  0.50000000000E+03  0.00000000000E+00 0. -1.
         23    2    1    2    0    0 -0.81944252871E+01 -0.73016790071E+02 -0.44534349354E+03  0.46163148047E+03  0.96820433237E+02 0.  0.
        -11    1    1    2    0    0 -0.60900990730E+02  0.11430496111E+03  0.43890971520E+03  0.45762024966E+03  0.00000000000E+00 0. -1.
         11    1    1    2    0    0  0.69095416017E+02 -0.41288171036E+02  0.64337783363E+01  0.80748269863E+02  0.00000000000E+00 0. -1.
        -15    1    3    3    0    0 -0.52453744753E+02 -0.40084083554E+02 -0.25882460391E+03  0.26711694520E+03  0.17770000000E+01 0.  1.
         15    1    3    3    0    0  0.44259319465E+02 -0.32932706517E+02 -0.18651888962E+03  0.19451453528E+03  0.17770000000E+01 0. -1.
</event>
<event>
 7    1  0.3234965E-006  0.4479451E+03  0.7546771E-02  0.9524467E-01
        -11   -1    0    0    0    0  0.00000000000E+00  0.00000000000E+00  0.50000000000E+03  0.50000000000E+03  0.00000000000E+00 0.  1.
         11   -1    0    0    0    0 -0.00000000000E+00 -0.00000000000E+00 -0.50000000000E+03  0.50000000000E+03  0.00000000000E+00 0. -1.
         23    2    1    2    0    0  0.29374996212E+02  0.37504466738E+02 -0.48735747161E+01  0.10283080009E+03  0.90999704881E+02 0.  0.
        -11    1    1    2    0    0  0.24194175051E+03  0.78748772621E+01  0.36869339643E+03  0.44105855042E+03  0.00000000000E+00 0.  1.
         11    1    1    2    0    0 -0.27131674672E+03 -0.45379344000E+02 -0.36381982171E+03  0.45611064949E+03  0.00000000000E+00 0. -1.
        -15    1    3    3    0    0 -0.20576838377E+02  0.43402283468E+02 -0.17134747466E+02  0.51028636936E+02  0.17770000000E+01 0.  1.
         15    1    3    3    0    0  0.49951834589E+02 -0.58978167293E+01  0.12261172750E+02  0.51802163152E+02  0.17770000000E+01 0. -1.
</event>
<event>
 7    1  0.3234965E-006  0.3583589E+03  0.7546771E-02  0.9788129E-01
        -11   -1    0    0    0    0  0.00000000000E+00  0.00000000000E+00  0.50000000000E+03  0.50000000000E+03  0.00000000000E+00 0. -1.
         11   -1    0    0    0    0 -0.00000000000E+00 -0.00000000000E+00 -0.50000000000E+03  0.50000000000E+03  0.00000000000E+00 0. -1.
         23    2    1    2    0    0 -0.21648987345E+02 -0.15986207772E+03 -0.39747167554E+03  0.43876777127E+03  0.92243491369E+02 0.  0.
        -11    1    1    2    0    0 -0.52710426556E+02 -0.59602213932E+02  0.29909004117E+03  0.30949259393E+03  0.00000000000E+00 0. -1.
         11    1    1    2    0    0  0.74359413901E+02  0.21946429165E+03  0.98381634376E+02  0.25173963480E+03  0.00000000000E+00 0. -1.
        -15    1    3    3    0    0  0.35361826136E+02 -0.62443119481E+02 -0.13117843295E+03  0.14953441383E+03  0.17770000000E+01 0. -1.
         15    1    3    3    0    0 -0.57010813481E+02 -0.97418958237E+02 -0.26629324259E+03  0.28923335744E+03  0.17770000000E+01 0.  1.
</event>
<event>
 7    1  0.3234965E-006  0.3539390E+03  0.7546771E-02  0.9803231E-01
        -11   -1    0    0    0    0  0.00000000000E+00  0.00000000000E+00  0.50000000000E+03  0.50000000000E+03  0.00000000000E+00 0. -1.
         11   -1    0    0    0    0 -0.00000000000E+00 -0.00000000000E+00 -0.50000000000E+03  0.50000000000E+03  0.00000000000E+00 0.  1.
         23    2    1    2    0    0  0.10730301918E+03  0.35730338293E+02 -0.30133383099E+03  0.33495500251E+03  0.92747943385E+02 0.  0.
        -11    1    1    2    0    0  0.11163986881E+03  0.72837299470E+02  0.38445881669E+03  0.40691192441E+03  0.00000000000E+00 0. -1.
         11    1    1    2    0    0 -0.21894288799E+03 -0.10856763776E+03 -0.83124985695E+02  0.25813307308E+03  0.00000000000E+00 0.  1.
        -15    1    3    3    0    0  0.39151796784E+02  0.59007159214E+02 -0.18529065992E+03  0.19836959044E+03  0.17770000000E+01 0.  1.
         15    1    3    3    0    0  0.68151222399E+02 -0.23276820921E+02 -0.11604317107E+03  0.13658541206E+03  0.17770000000E+01 0. -1.
</event>
<event>
 7    1  0.3234965E-006  0.4388898E+03  0.7546771E-02  0.9547996E-01
        -11   -1    0    0    0    0  0.00000000000E+00  0.00000000000E+00  0.50000000000E+03  0.50000000000E+03  0.00000000000E+00 0. -1.
         11   -1    0    0    0    0 -0.00000000000E+00 -0.00000000000E+00 -0.50000000000E+03  0.50000000000E+03  0.00000000000E+00 0. -1.
         23    2    1    2    0    0  0.48307874670E+02  0.29651103622E+02 -0.45727406938E+03  0.46978812350E+03  0.91588578680E+02 0.  0.
        -11    1    1    2    0    0 -0.86261408003E+01 -0.12331796357E+03  0.38779864688E+03  0.40702520925E+03  0.00000000000E+00 0. -1.
         11    1    1    2    0    0 -0.39681733869E+02  0.93666859953E+02  0.69475422505E+02  0.12318666725E+03  0.00000000000E+00 0. -1.
        -15    1    3    3    0    0 -0.24020837582E+02  0.14078996806E+02 -0.67299052932E+02  0.72852858858E+02  0.17770000000E+01 0.  1.
         15    1    3    3    0    0  0.72328712252E+02  0.15572106816E+02 -0.38997501645E+03  0.39693526464E+03  0.17770000000E+01 0. -1.
</event>
<event>
 7    1  0.3234965E-006  0.4139433E+03  0.7546771E-02  0.9616077E-01
        -11   -1    0    0    0    0  0.00000000000E+00  0.00000000000E+00  0.50000000000E+03  0.50000000000E+03  0.00000000000E+00 0. -1.
         11   -1    0    0    0    0 -0.00000000000E+00 -0.00000000000E+00 -0.50000000000E+03  0.50000000000E+03  0.00000000000E+00 0.  1.
         23    2    1    2    0    0  0.92892352440E+02 -0.15014496015E+02 -0.92969960736E+02  0.16161220292E+03  0.92847543330E+02 0.  0.
        -11    1    1    2    0    0  0.79270241823E+02  0.27059893755E+02  0.44154953877E+03  0.44942408066E+03  0.00000000000E+00 0. -1.
         11    1    1    2    0    0 -0.17216259426E+03 -0.12045397739E+02 -0.34857957803E+03  0.38896371642E+03  0.00000000000E+00 0.  1.
        -15    1    3    3    0    0  0.52740368959E+02 -0.45112363533E+02 -0.86608028414E+02  0.11099900980E+03  0.17770000000E+01 0.  1.
         15    1    3    3    0    0  0.40151983481E+02  0.30097867517E+02 -0.63619323215E+01  0.50613193126E+02  0.17770000000E+01 0. -1.
</event>
<event>
 7    1  0.3234965E-006  0.5131138E+03  0.7546771E-02  0.9370935E-01
        -11   -1    0    0    0    0  0.00000000000E+00  0.00000000000E+00  0.50000000000E+03  0.50000000000E+03  0.00000000000E+00 0.  1.
         11   -1    0    0    0    0 -0.00000000000E+00 -0.00000000000E+00 -0.50000000000E+03  0.50000000000E+03  0.00000000000E+00 0. -1.
         23    2    1    2    0    0  0.34914997506E+01 -0.32363331881E+03  0.22257823458E+03  0.40331867301E+03  0.91510468667E+02 0.  0.
        -11    1    1    2    0    0 -0.34298131243E+02 -0.10397781462E+03  0.81984448893E+01  0.10979509205E+03  0.00000000000E+00 0.  1.
         11    1    1    2    0    0  0.30806631493E+02  0.42761113344E+03 -0.23077667946E+03  0.48688623493E+03  0.00000000000E+00 0. -1.
        -15    1    3    3    0    0 -0.36546633336E+02 -0.79383069623E+02  0.74780750186E+02  0.11503324075E+03  0.17770000000E+01 0. -1.
         15    1    3    3    0    0  0.40038133086E+02 -0.24425024919E+03  0.14779748439E+03  0.28828543226E+03  0.17770000000E+01 0.  1.
</event>
<event>
 7    1  0.3234965E-006  0.3786892E+03  0.7546771E-02  0.9721552E-01
        -11   -1    0    0    0    0  0.00000000000E+00  0.00000000000E+00  0.50000000000E+03  0.50000000000E+03  0.00000000000E+00 0. -1.
         11   -1    0    0    0    0 -0.00000000000E+00 -0.00000000000E+00 -0.50000000000E+03  0.50000000000E+03  0.00000000000E+00 0. -1.
         23    2    1    2    0    0 -0.82520445390E+02  0.12206079149E+03 -0.13095137172E+03  0.21738986870E+03  0.91660419656E+02 0.  0.
        -11    1    1    2    0    0 -0.19445279288E+03  0.49638997330E+02  0.34045261675E+03  0.39520109181E+03  0.00000000000E+00 0. -1.
         11    1    1    2    0    0  0.27697323827E+03 -0.17169978882E+03 -0.20950124503E+03  0.38740903948E+03  0.00000000000E+00 0. -1.
        -15    1    3    3    0    0 -0.43119888510E+01 -0.14654529706E+02 -0.67321343667E+01  0.16787729176E+02  0.17770000000E+01 0.  1.
         15    1    3    3    0    0 -0.78208456539E+02  0.13671532120E+03 -0.12421923735E+03  0.20060213953E+03  0.17770000000E+01 0. -1.
</event>
<event>
 7    1  0.3234965E-006  0.3852840E+03  0.7546771E-02  0.9700910E-01
        -11   -1    0    0    0    0  0.00000000000E+00  0.00000000000E+00  0.50000000000E+03  0.50000000000E+03  0.00000000000E+00 0.  1.
         11   -1    0    0    0    0 -0.00000000000E+00 -0.00000000000E+00 -0.50000000000E+03  0.50000000000E+03  0.00000000000E+00 0.  1.
         23    2    1    2    0    0  0.10845496248E+03 -0.29890119286E+02 -0.30756845824E+03  0.33927570726E+03  0.88621390843E+02 0.  0.
        -11    1    1    2    0    0  0.27966356710E+01 -0.90440924355E+02  0.44050755593E+03  0.44970466842E+03  0.00000000000E+00 0.  1.
         11    1    1    2    0    0 -0.11125159815E+03  0.12033104364E+03 -0.13293909769E+03  0.21101962432E+03  0.00000000000E+00 0.  1.
        -15    1    3    3    0    0  0.94348022732E+02  0.84200796427E+01 -0.25911362766E+03  0.27589033492E+03  0.17770000000E+01 0.  1.
         15    1    3    3    0    0  0.14106939747E+02 -0.38310198929E+02 -0.48454830582E+02  0.63385372341E+02  0.17770000000E+01 0. -1.
</event>
<event>
 7    1  0.3234965E-006  0.4105744E+03  0.7546771E-02  0.9625663E-01
        -11   -1    0    0    0    0  0.00000000000E+00  0.00000000000E+00  0.50000000000E+03  0.50000000000E+03  0.00000000000E+00 0.  1.
         11   -1    0    0    0    0 -0.00000000000E+00 -0.00000000000E+00 -0.50000000000E+03  0.50000000000E+03  0.00000000000E+00 0. -1.
         23    2    1    2    0    0  0.20781016575E+02 -0.72054477243E+02 -0.36832878011E+03  0.38672648985E+03  0.90926285269E+02 0.  0.
        -11    1    1    2    0    0 -0.11524850380E+03 -0.59986685434E+02  0.42257403490E+03  0.44209663540E+03  0.00000000000E+00 0.  1.
         11    1    1    2    0    0  0.94467487224E+02  0.13204116268E+03 -0.54245254794E+02  0.17117687476E+03  0.00000000000E+00 0. -1.
        -15    1    3    3    0    0 -0.24322718692E+02 -0.11312133414E+02 -0.31091707390E+02  0.41102445236E+02  0.17770000000E+01 0.  1.
         15    1    3    3    0    0  0.45103735267E+02 -0.60742343829E+02 -0.33723707272E+03  0.34562404461E+03  0.17770000000E+01 0. -1.
</event>
<event>
 7    1  0.3234965E-006  0.4034988E+03  0.7546771E-02  0.9646119E-01
        -11   -1    0    0    0    0  0.00000000000E+00  0.00000000000E+00  0.50000000000E+03  0.50000000000E+03  0.00000000000E+00 0.  1.
         11   -1    0    0    0    0 -0.00000000000E+00 -0.00000000000E+00 -0.50000000000E+03  0.50000000000E+03  0.00000000000E+00 0.  1.
         23    2    1    2    0    0  0.51833880848E+02 -0.13148144146E+03 -0.31288510848E+03  0.35554132032E+03  0.92403564277E+02 0.  0.
        -11    1    1    2    0    0  0.62550891579E+02  0.87537869301E+02  0.44876859078E+03  0.46148536344E+03  0.00000000000E+00 0.  1.
         11    1    1    2    0    0 -0.11438477243E+03  0.43943572158E+02 -0.13588348229E+03  0.18297331624E+03  0.00000000000E+00 0.  1.
        -15    1    3    3    0    0  0.71097714426E+02 -0.12450440960E+03 -0.29612011491E+03  0.32900837860E+03  0.17770000000E+01 0.  1.
         15    1    3    3    0    0 -0.19263833578E+02 -0.69770318576E+01 -0.16764993575E+02  0.26532941718E+02  0.17770000000E+01 0. -1.
</event>
<event>
 7    1  0.3234965E-006  0.5313852E+03  0.7546771E-02  0.9332198E-01
        -11   -1    0    0    0    0  0.00000000000E+00  0.00000000000E+00  0.50000000000E+03  0.50000000000E+03  0.00000000000E+00 0.  1.
         11   -1    0    0    0    0 -0.00000000000E+00 -0.00000000000E+00 -0.50000000000E+03  0.50000000000E+03  0.00000000000E+00 0. -1.
         23    2    1    2    0    0 -0.11498454465E+02 -0.31837396413E+02 -0.25424669607E+03  0.27378303020E+03  0.95759756136E+02 0.  0.
        -11    1    1    2    0    0  0.17037087328E+03 -0.66825162231E+02  0.43140236178E+03  0.46861480399E+03  0.00000000000E+00 0.  1.
         11    1    1    2    0    0 -0.15887241882E+03  0.98662558643E+02 -0.17715566571E+03  0.25760216581E+03  0.00000000000E+00 0. -1.
        -15    1    3    3    0    0 -0.29828382134E+02  0.26161835611E+02 -0.82201905440E+02  0.91293400694E+02  0.17770000000E+01 0.  1.
         15    1    3    3    0    0  0.18329927669E+02 -0.57999232024E+02 -0.17204479063E+03  0.18248962950E+03  0.17770000000E+01 0. -1.
</event>
<event>
 7    1  0.3234965E-006  0.3726693E+03  0.7546771E-02  0.9740790E-01
        -11   -1    0    0    0    0  0.00000000000E+00  0.00000000000E+00  0.50000000000E+03  0.50000000000E+03  0.00000000000E+00 0.  1.
         11   -1    0    0    0    0 -0.00000000000E+00 -0.00000000000E+00 -0.50000000000E+03  0.50000000000E+03  0.00000000000E+00 0. -1.
         23    2    1    2    0    0  0.20334390264E+03 -0.49774294894E+01  0.42579819811E+02  0.22623252966E+03  0.89412520808E+02 0.  0.
        -11    1    1    2    0    0 -0.84770401574E+02 -0.20256950774E+01  0.35180718291E+03  0.36188177403E+03  0.00000000000E+00 0.  1.
         11    1    1    2    0    0 -0.11857350107E+03  0.70031245669E+01 -0.39438700272E+03  0.41188569631E+03  0.00000000000E+00 0. -1.
        -15    1    3    3    0    0  0.15406571807E+03 -0.42673341961E+02  0.35417572251E+02  0.16375231831E+03  0.17770000000E+01 0.  1.
         15    1    3    3    0    0  0.49278184568E+02  0.37695912472E+02  0.71622475593E+01  0.62480211352E+02  0.17770000000E+01 0. -1.
</event>
<event>
 7    1  0.3234965E-006  0.4189338E+03  0.7546771E-02  0.9602055E-01
        -11   -1    0    0    0    0  0.00000000000E+00  0.00000000000E+00  0.50000000000E+03  0.50000000000E+03  0.00000000000E+00 0.  1.
         11   -1    0    0    0    0 -0.00000000000E+00 -0.00000000000E+00 -0.50000000000E+03  0.50000000000E+03  0.00000000000E+00 0.  1.
         23    2    1    2    0    0 -0.14972450718E+03  0.16287240102E+03 -0.35263669435E+03  0.42591285563E+03  0.90023748682E+02 0.  0.
        -11    1    1    2    0    0  0.16848619168E+02 -0.97383646183E+02  0.40506354836E+03  0.41694595420E+03  0.00000000000E+00 0.  1.
         11    1    1    2    0    0  0.13287588801E+03 -0.65488754839E+02 -0.52426854016E+02  0.15714119017E+03  0.00000000000E+00 0.  1.
        -15    1    3    3    0    0 -0.13021981979E+03  0.13827162677E+03 -0.34455932928E+03  0.39344698926E+03  0.17770000000E+01 0.  1.
         15    1    3    3    0    0 -0.19504687387E+02  0.24600774253E+02 -0.80773650732E+01  0.32465866375E+02  0.17770000000E+01 0. -1.
</event>
<event>
 7    1  0.3234965E-006  0.5410376E+03  0.7546771E-02  0.9312395E-01
        -11   -1    0    0    0    0  0.00000000000E+00  0.00000000000E+00  0.50000000000E+03  0.50000000000E+03  0.00000000000E+00 0.  1.
         11   -1    0    0    0    0 -0.00000000000E+00 -0.00000000000E+00 -0.50000000000E+03  0.50000000000E+03  0.00000000000E+00 0.  1.
         23    2    1    2    0    0 -0.66260326395E+02 -0.86694072557E+02 -0.15079819140E+03  0.20718319847E+03  0.90986208458E+02 0.  0.
        -11    1    1    2    0    0  0.56165854846E+02 -0.57127958482E+02  0.45191623984E+03  0.45896241101E+03  0.00000000000E+00 0.  1.
         11    1    1    2    0    0  0.10094471549E+02  0.14382203104E+03 -0.30111804844E+03  0.33385439052E+03  0.00000000000E+00 0.  1.
        -15    1    3    3    0    0 -0.22982614529E+02 -0.14634409553E+02  0.71738909784E+01  0.28230992797E+02  0.17770000000E+01 0.  1.
         15    1    3    3    0    0 -0.43277711866E+02 -0.72059663005E+02 -0.15797208237E+03  0.17895220567E+03  0.17770000000E+01 0. -1.
</event>
<event>
 7    1  0.3234965E-006  0.3522398E+03  0.7546771E-02  0.9809100E-01
        -11   -1    0    0    0    0  0.00000000000E+00  0.00000000000E+00  0.50000000000E+03  0.50000000000E+03  0.00000000000E+00 0.  1.
         11   -1    0    0    0    0 -0.00000000000E+00 -0.00000000000E+00 -0.50000000000E+03  0.50000000000E+03  0.00000000000E+00 0. -1.
         23    2    1    2    0    0  0.82241772690E+02  0.63537172617E+02 -0.21553943660E+03  0.25599087609E+03  0.90958223566E+02 0.  0.
        -11    1    1    2    0    0  0.13145963665E+03  0.88959476246E+02  0.39520126117E+03  0.42588667661E+03  0.00000000000E+00 0.  1.
         11    1    1    2    0    0 -0.21370140934E+03 -0.15249664886E+03 -0.17966182457E+03  0.31812244730E+03  0.00000000000E+00 0. -1.
        -15    1    3    3    0    0  0.10190562607E+03  0.49188161049E+02 -0.18536387582E+03  0.21718000829E+03  0.17770000000E+01 0. -1.
         15    1    3    3    0    0 -0.19663853376E+02  0.14349011568E+02 -0.30175560774E+02  0.38810867803E+02  0.17770000000E+01 0.  1.
</event>
<event>
 7    1  0.3234965E-006  0.5106432E+03  0.7546771E-02  0.9376305E-01
        -11   -1    0    0    0    0  0.00000000000E+00  0.00000000000E+00  0.50000000000E+03  0.50000000000E+03  0.00000000000E+00 0. -1.
         11   -1    0    0    0    0 -0.00000000000E+00 -0.00000000000E+00 -0.50000000000E+03  0.50000000000E+03  0.00000000000E+00 0.  1.
         23    2    1    2    0    0  0.45979537581E+02 -0.16233765746E+02 -0.37395679355E+03  0.38812261597E+03  0.91748725101E+02 0.  0.
        -11    1    1    2    0    0 -0.10113150826E+03  0.57338412051E+02  0.47534699025E+03  0.48935675800E+03  0.00000000000E+00 0. -1.
         11    1    1    2    0    0  0.55151970681E+02 -0.41104646305E+02 -0.10139019669E+03  0.12252062603E+03  0.00000000000E+00 0.  1.
        -15    1    3    3    0    0  0.46744675059E+02  0.25162562222E+02 -0.28601677287E+03  0.29090715233E+03  0.17770000000E+01 0.  1.
         15    1    3    3    0    0 -0.76513747800E+00 -0.41396327968E+02 -0.87940020682E+02  0.97215463642E+02  0.17770000000E+01 0. -1.
</event>
<event>
 7    1  0.3234965E-006  0.5116129E+03  0.7546771E-02  0.9374193E-01
        -11   -1    0    0    0    0  0.00000000000E+00  0.00000000000E+00  0.50000000000E+03  0.50000000000E+03  0.00000000000E+00 0.  1.
         11   -1    0    0    0    0 -0.00000000000E+00 -0.00000000000E+00 -0.50000000000E+03  0.50000000000E+03  0.00000000000E+00 0. -1.
         23    2    1    2    0    0  0.57778785222E+02 -0.68977430300E+01 -0.35186103528E+03  0.36786387474E+03  0.90175802250E+02 0.  0.
        -11    1    1    2    0    0 -0.12063230590E+03 -0.42465250960E+02  0.47134541018E+03  0.48838708671E+03  0.00000000000E+00 0.  1.
         11    1    1    2    0    0  0.62853520677E+02  0.49362993990E+02 -0.11948437491E+03  0.14374903855E+03  0.00000000000E+00 0. -1.
        -15    1    3    3    0    0 -0.13779660698E+02 -0.15679418153E+02 -0.22677023623E+02  0.30872776551E+02  0.17770000000E+01 0.  1.
         15    1    3    3    0    0  0.71558445920E+02  0.87816751235E+01 -0.32918401165E+03  0.33699109819E+03  0.17770000000E+01 0. -1.
</event>
<event>
 7    1  0.3234965E-006  0.3066557E+03  0.7546771E-02  0.9981237E-01
        -11   -1    0    0    0    0  0.00000000000E+00  0.00000000000E+00  0.50000000000E+03  0.50000000000E+03  0.00000000000E+00 0.  1.
         11   -1    0    0    0    0 -0.00000000000E+00 -0.00000000000E+00 -0.50000000000E+03  0.50000000000E+03  0.00000000000E+00 0. -1.
         23    2    1    2    0    0  0.23411011398E+02  0.27301871143E+03 -0.20044661919E+03  0.35193001970E+03  0.92674696549E+02 0.  0.
        -11    1    1    2    0    0 -0.53257040942E+02  0.32480346873E+02  0.31448898569E+03  0.32061598130E+03  0.00000000000E+00 0.  1.
         11    1    1    2    0    0  0.29846029544E+02 -0.30549905830E+03 -0.11404236651E+03  0.32745399900E+03  0.00000000000E+00 0. -1.
        -15    1    3    3    0    0  0.36337019249E+02  0.67812882220E+02 -0.90379910456E+02  0.11870405177E+03  0.17770000000E+01 0. -1.
         15    1    3    3    0    0 -0.12926007851E+02  0.20520582921E+03 -0.11006670873E+03  0.23322596793E+03  0.17770000000E+01 0.  1.
</event>
<event>
 7    1  0.3234965E-006  0.5252324E+03  0.7546771E-02  0.9345056E-01
        -11   -1    0    0    0    0  0.00000000000E+00  0.00000000000E+00  0.50000000000E+03  0.50000000000E+03  0.00000000000E+00 0.  1.
         11   -1    0    0    0    0 -0.00000000000E+00 -0.00000000000E+00 -0.50000000000E+03  0.50000000000E+03  0.00000000000E+00 0. -1.
         23    2    1    2    0    0  0.28027691839E+03 -0.97793266421E+02  0.19570776331E+03  0.36763389192E+03  0.93458418206E+02 0.  0.
        -11    1    1    2    0    0  0.47012947757E+02  0.43693103396E+02  0.14393738921E+03  0.15759846622E+03  0.00000000000E+00 0.  1.
         11    1    1    2    0    0 -0.32728986614E+03  0.54100163025E+02 -0.33964515252E+03  0.47476764186E+03  0.00000000000E+00 0. -1.
        -15    1    3    3    0    0  0.26644037655E+03 -0.98338557908E+02  0.15279325848E+03  0.32250563374E+03  0.17770000000E+01 0.  1.
         15    1    3    3    0    0  0.13836541838E+02  0.54529148783E+00  0.42914504834E+02  0.45128258187E+02  0.17770000000E+01 0. -1.
</event>
<event>
 7    1  0.3234965E-006  0.4434731E+03  0.7546771E-02  0.9536012E-01
        -11   -1    0    0    0    0  0.00000000000E+00  0.00000000000E+00  0.50000000000E+03  0.50000000000E+03  0.00000000000E+00 0.  1.
         11   -1    0    0    0    0 -0.00000000000E+00 -0.00000000000E+00 -0.50000000000E+03  0.50000000000E+03  0.00000000000E+00 0. -1.
         23    2    1    2    0    0  0.61731959125E+02 -0.26908337572E+03  0.36973237723E+03  0.47003614029E+03  0.89527898112E+02 0.  0.
        -11    1    1    2    0    0  0.89583665531E+02  0.50814278101E+02 -0.50530901540E+02  0.11472007671E+03  0.00000000000E+00 0.  1.
         11    1    1    2    0    0 -0.15131562466E+03  0.21826909761E+03 -0.31920147569E+03  0.41524378300E+03  0.00000000000E+00 0. -1.
        -15    1    3    3    0    0  0.45778236938E+02 -0.23533431449E+03  0.25791184555E+03  0.35213571866E+03  0.17770000000E+01 0.  1.
         15    1    3    3    0    0  0.15953722187E+02 -0.33749061229E+02  0.11182053169E+03  0.11790042163E+03  0.17770000000E+01 0. -1.
</event>
<event>
 7    1  0.3234965E-006  0.3405015E+03  0.7546771E-02  0.9850636E-01
        -11   -1    0    0    0    0  0.00000000000E+00  0.00000000000E+00  0.50000000000E+03  0.50000000000E+03  0.00000000000E+00 0. -1.
         11   -1    0    0    0    0 -0.00000000000E+00 -0.00000000000E+00 -0.50000000000E+03  0.50000000000E+03  0.00000000000E+00 0.  1.
         23    2    1    2    0    0 -0.34441540575E+03  0.51595948198E+02 -0.18673625784E+03  0.40890283548E+03  0.10510463968E+03 0.  0.
        -11    1    1    2    0    0  0.44986268313E+02 -0.39442482634E+02  0.27281949815E+03  0.27930261786E+03  0.00000000000E+00 0. -1.
         11    1    1    2    0    0  0.29942913743E+03 -0.12153465564E+02 -0.86083240307E+02  0.31179454667E+03  0.00000000000E+00 0.  1.
        -15    1    3    3    0    0 -0.28055267582E+03  0.71536552250E+00 -0.15994178645E+03  0.32294712948E+03  0.17770000000E+01 0. -1.
         15    1    3    3    0    0 -0.63862729928E+02  0.50880582675E+02 -0.26794471388E+02  0.85955705996E+02  0.17770000000E+01 0.  1.
</event>
<event>
 7    1  0.3234965E-006  0.5219099E+03  0.7546771E-02  0.9352076E-01
        -11   -1    0    0    0    0  0.00000000000E+00  0.00000000000E+00  0.50000000000E+03  0.50000000000E+03  0.00000000000E+00 0.  1.
         11   -1    0    0    0    0 -0.00000000000E+00 -0.00000000000E+00 -0.50000000000E+03  0.50000000000E+03  0.00000000000E+00 0. -1.
         23    2    1    2    0    0 -0.28519372886E+01  0.20875322718E+01 -0.91071509991E+02  0.12807421880E+03  0.89980521507E+02 0.  0.
        -11    1    1    2    0    0 -0.64040544902E+02 -0.15599807640E+03  0.44736284461E+03  0.47809006052E+03  0.00000000000E+00 0.  1.
         11    1    1    2    0    0  0.66892482190E+02  0.15391054413E+03 -0.35629133461E+03  0.39383572069E+03  0.00000000000E+00 0. -1.
        -15    1    3    3    0    0  0.39491651600E+02  0.79590868189E+01 -0.69029004468E+02  0.79944348117E+02  0.17770000000E+01 0.  1.
         15    1    3    3    0    0 -0.42343588888E+02 -0.58715545470E+01 -0.22042505524E+02  0.48129870678E+02  0.17770000000E+01 0. -1.
</event>
<event>
 7    1  0.5861552E-006  0.5062206E+03  0.7546771E-02  0.9385997E-01
        -11   -1    0    0    0    0  0.00000000000E+00  0.00000000000E+00  0.50000000000E+03  0.50000000000E+03  0.00000000000E+00 0. -1.
         11   -1    0    0    0    0 -0.00000000000E+00 -0.00000000000E+00 -0.50000000000E+03  0.50000000000E+03  0.00000000000E+00 0.  1.
         23    2    1    2    0    0 -0.31390555362E+02 -0.78055693109E+02  0.38553806632E+03  0.40390200187E+03  0.86134594343E+02 0.  0.
        -11    1    1    2    0    0  0.19062235036E+02 -0.11918769044E+02  0.99818191179E+02  0.10231860608E+03  0.00000000000E+00 0. -1.
         11    1    1    2    0    0  0.12328320326E+02  0.89974462153E+02 -0.48535625750E+03  0.49377939205E+03  0.00000000000E+00 0.  1.
        -15    1    3    3    0    0  0.15819098924E+02 -0.53781135175E+02  0.11204725257E+03  0.12530123275E+03  0.17770000000E+01 0.  1.
         15    1    3    3    0    0 -0.47209654287E+02 -0.24274557934E+02  0.27349081375E+03  0.27860076912E+03  0.17770000000E+01 0. -1.
</event>
<event>
 7    1  0.3234965E-006  0.4573290E+03  0.7546771E-02  0.9500702E-01
        -11   -1    0    0    0    0  0.00000000000E+00  0.00000000000E+00  0.50000000000E+03  0.50000000000E+03  0.00000000000E+00 0. -1.
         11   -1    0    0    0    0 -0.00000000000E+00 -0.00000000000E+00 -0.50000000000E+03  0.50000000000E+03  0.00000000000E+00 0. -1.
         23    2    1    2    0    0  0.12358005694E+02 -0.81434814215E+02  0.40111323709E+03  0.41982349858E+03  0.92604490818E+02 0.  0.
        -11    1    1    2    0    0  0.35999468660E+02  0.13942391801E+02  0.81654743760E+02  0.90320812725E+02  0.00000000000E+00 0. -1.
         11    1    1    2    0    0 -0.48357474354E+02  0.67492422414E+02 -0.48276798085E+03  0.48985568869E+03  0.00000000000E+00 0. -1.
        -15    1    3    3    0    0  0.45767606128E+02 -0.16645960508E+02  0.12279420279E+03  0.13211107350E+03  0.17770000000E+01 0.  1.
         15    1    3    3    0    0 -0.33409600434E+02 -0.64788853707E+02  0.27831903430E+03  0.28771242508E+03  0.17770000000E+01 0. -1.
</event>
<event>
 7    1  0.3234965E-006  0.5167187E+03  0.7546771E-02  0.9363158E-01
        -11   -1    0    0    0    0  0.00000000000E+00  0.00000000000E+00  0.50000000000E+03  0.50000000000E+03  0.00000000000E+00 0.  1.
         11   -1    0    0    0    0 -0.00000000000E+00 -0.00000000000E+00 -0.50000000000E+03  0.50000000000E+03  0.00000000000E+00 0. -1.
         23    2    1    2    0    0 -0.42032592455E+02  0.22980874662E+01  0.21066133027E+03  0.23394591145E+03  0.92630844650E+02 0.  0.
        -11    1    1    2    0    0 -0.16253505331E+03  0.65652060045E+02  0.22188423751E+03  0.28277279112E+03  0.00000000000E+00 0.  1.
         11    1    1    2    0    0  0.20456764576E+03 -0.67950147511E+02 -0.43254556778E+03  0.48328129743E+03  0.00000000000E+00 0. -1.
        -15    1    3    3    0    0 -0.62721463666E+02 -0.76208198221E+01  0.19764784943E+03  0.20750876852E+03  0.17770000000E+01 0.  1.
         15    1    3    3    0    0  0.20688871211E+02  0.99189072882E+01  0.13013480833E+02  0.26437142928E+02  0.17770000000E+01 0. -1.
</event>
<event>
 7    1  0.3234965E-006  0.5137512E+03  0.7546771E-02  0.9369555E-01
        -11   -1    0    0    0    0  0.00000000000E+00  0.00000000000E+00  0.50000000000E+03  0.50000000000E+03  0.00000000000E+00 0.  1.
         11   -1    0    0    0    0 -0.00000000000E+00 -0.00000000000E+00 -0.50000000000E+03  0.50000000000E+03  0.00000000000E+00 0.  1.
         23    2    1    2    0    0  0.46105187977E+02  0.23531482751E+02 -0.34145440090E+03  0.34991989604E+03  0.56332998413E+02 0.  0.
        -11    1    1    2    0    0 -0.73178598197E+02 -0.13032876400E+03  0.46270642945E+03  0.48624883939E+03  0.00000000000E+00 0.  1.
         11    1    1    2    0    0  0.27073410219E+02  0.10679728125E+03 -0.12125202855E+03  0.16383126457E+03  0.00000000000E+00 0.  1.
        -15    1    3    3    0    0  0.52682970406E+02  0.34803180101E+02 -0.29079745795E+03  0.29757868875E+03  0.17770000000E+01 0.  1.
         15    1    3    3    0    0 -0.65777824289E+01 -0.11271697350E+02 -0.50656942946E+02  0.52341207289E+02  0.17770000000E+01 0. -1.
</event>
<event>
 7    1  0.3234965E-006  0.5284554E+03  0.7546771E-02  0.9338297E-01
        -11   -1    0    0    0    0  0.00000000000E+00  0.00000000000E+00  0.50000000000E+03  0.50000000000E+03  0.00000000000E+00 0.  1.
         11   -1    0    0    0    0 -0.00000000000E+00 -0.00000000000E+00 -0.50000000000E+03  0.50000000000E+03  0.00000000000E+00 0. -1.
         23    2    1    2    0    0 -0.87003006496E+02 -0.36882611022E+03 -0.26457883333E+03  0.47154463169E+03  0.93542278749E+02 0.  0.
        -11    1    1    2    0    0  0.42415409604E+01  0.60694127999E+02  0.19178375533E+03  0.20120332167E+03  0.00000000000E+00 0.  1.
         11    1    1    2    0    0  0.82761465535E+02  0.30813198222E+03  0.72795077997E+02  0.32725204663E+03  0.00000000000E+00 0. -1.
        -15    1    3    3    0    0 -0.38849617459E+02 -0.38893071836E+02 -0.22142273838E+02  0.59290824192E+02  0.17770000000E+01 0.  1.
         15    1    3    3    0    0 -0.48153389036E+02 -0.32993303839E+03 -0.24243655949E+03  0.41225380750E+03  0.17770000000E+01 0. -1.
</event>
<event>
 7    1  0.3234965E-006  0.5173516E+03  0.7546771E-02  0.9361800E-01
        -11   -1    0    0    0    0  0.00000000000E+00  0.00000000000E+00  0.50000000000E+03  0.50000000000E+03  0.00000000000E+00 0.  1.
         11   -1    0    0    0    0 -0.00000000000E+00 -0.00000000000E+00 -0.50000000000E+03  0.50000000000E+03  0.00000000000E+00 0. -1.
         23    2    1    2    0    0  0.40405035114E+02  0.25587094052E+03  0.32081079970E+03  0.42211631767E+03  0.90333334802E+02 0.  0.
        -11    1    1    2    0    0 -0.12837871749E+02 -0.10333460876E+02  0.93798528087E+02  0.95235262566E+02  0.00000000000E+00 0.  1.
         11    1    1    2    0    0 -0.27567163366E+02 -0.24553747964E+03 -0.41460932779E+03  0.48264841976E+03  0.00000000000E+00 0. -1.
        -15    1    3    3    0    0  0.24820600721E+02  0.16093036788E+03  0.12983284558E+03  0.20826514602E+03  0.17770000000E+01 0.  1.
         15    1    3    3    0    0  0.15584434393E+02  0.94940572637E+02  0.19097795412E+03  0.21385117165E+03  0.17770000000E+01 0. -1.
</event>
<event>
 7    1  0.3234965E-006  0.5204623E+03  0.7546771E-02  0.9355153E-01
        -11   -1    0    0    0    0  0.00000000000E+00  0.00000000000E+00  0.50000000000E+03  0.50000000000E+03  0.00000000000E+00 0. -1.
         11   -1    0    0    0    0 -0.00000000000E+00 -0.00000000000E+00 -0.50000000000E+03  0.50000000000E+03  0.00000000000E+00 0.  1.
         23    2    1    2    0    0 -0.60576929789E+01  0.10784863254E+02 -0.20776699619E+03  0.22624928253E+03  0.88705153302E+02 0.  0.
        -11    1    1    2    0    0 -0.50696357120E+02  0.13360386548E+03  0.45775134200E+03  0.47953769883E+03  0.00000000000E+00 0. -1.
         11    1    1    2    0    0  0.56754050099E+02 -0.14438872873E+03 -0.24998434581E+03  0.29421301864E+03  0.00000000000E+00 0.  1.
        -15    1    3    3    0    0 -0.47259308019E+02  0.43898897975E+01 -0.12029296906E+03  0.12933007949E+03  0.17770000000E+01 0.  1.
         15    1    3    3    0    0  0.41201615040E+02  0.63949734570E+01 -0.87474027129E+02  0.96919203043E+02  0.17770000000E+01 0. -1.
</event>
<event>
 7    1  0.3234965E-006  0.5390477E+03  0.7546771E-02  0.9316441E-01
        -11   -1    0    0    0    0  0.00000000000E+00  0.00000000000E+00  0.50000000000E+03  0.50000000000E+03  0.00000000000E+00 0.  1.
         11   -1    0    0    0    0 -0.00000000000E+00 -0.00000000000E+00 -0.50000000000E+03  0.50000000000E+03  0.00000000000E+00 0. -1.
         23    2    1    2    0    0  0.20851339474E+02 -0.69663936334E+02 -0.21488892880E+03  0.25901457374E+03  0.12499382108E+03 0.  0.
        -11    1    1    2    0    0 -0.30276854419E+02 -0.76530601249E+02  0.45354534214E+03  0.46095227325E+03  0.00000000000E+00 0.  1.
         11    1    1    2    0    0  0.94255149452E+01  0.14619453758E+03 -0.23865641334E+03  0.28003315300E+03  0.00000000000E+00 0. -1.
        -15    1    3    3    0    0 -0.17184848285E+02 -0.45839284572E+02 -0.20785590411E+03  0.21355044749E+03  0.17770000000E+01 0.  1.
         15    1    3    3    0    0  0.38036187759E+02 -0.23824651762E+02 -0.70330246893E+01  0.45464126254E+02  0.17770000000E+01 0.  1.
</event>
<event>
 7    1  0.3234965E-006  0.5249255E+03  0.7546771E-02  0.9345702E-01
        -11   -1    0    0    0    0  0.00000000000E+00  0.00000000000E+00  0.50000000000E+03  0.50000000000E+03  0.00000000000E+00 0. -1.
         11   -1    0    0    0    0 -0.00000000000E+00 -0.00000000000E+00 -0.50000000000E+03  0.50000000000E+03  0.00000000000E+00 0. -1.
         23    2    1    2    0    0  0.81722794424E+02 -0.22431464647E+03  0.28202287122E+03  0.37810747765E+03  0.80204046109E+02 0.  0.
        -11    1    1    2    0    0  0.89863782664E+01  0.32290159158E+02  0.14294094805E+03  0.14681799618E+03  0.00000000000E+00 0. -1.
         11    1    1    2    0    0 -0.90709172690E+02  0.19202448731E+03 -0.42496381927E+03  0.47507452618E+03  0.00000000000E+00 0. -1.
        -15    1    3    3    0    0  0.95346283179E+02 -0.21288814196E+03  0.25392958412E+03  0.34481250865E+03  0.17770000000E+01 0. -1.
         15    1    3    3    0    0 -0.13623488755E+02 -0.11426504506E+02  0.28093287101E+02  0.33294968992E+02  0.17770000000E+01 0.  1.
</event>
<event>
 7    1  0.3234965E-006  0.5213735E+03  0.7546771E-02  0.9353215E-01
        -11   -1    0    0    0    0  0.00000000000E+00  0.00000000000E+00  0.50000000000E+03  0.50000000000E+03  0.00000000000E+00 0. -1.
         11   -1    0    0    0    0 -0.00000000000E+00 -0.00000000000E+00 -0.50000000000E+03  0.50000000000E+03  0.00000000000E+00 0. -1.
         23    2    1    2    0    0 -0.36031051384E+02  0.59861519351E+02 -0.32335892125E+03  0.34622674982E+03  0.10212899772E+03 0.  0.
        -11    1    1    2    0    0  0.18594008100E+02 -0.19053159305E+03  0.43867445844E+03  0.47862647814E+03  0.00000000000E+00 0. -1.
         11    1    1    2    0    0  0.17437043284E+02  0.13067007370E+03 -0.11531553719E+03  0.17514677204E+03  0.00000000000E+00 0. -1.
        -15    1    3    3    0    0 -0.12919360165E+02 -0.20369534814E+02 -0.19404523497E+02  0.31008403325E+02  0.17770000000E+01 0.  1.
         15    1    3    3    0    0 -0.23111691219E+02  0.80231054165E+02 -0.30395439775E+03  0.31521834649E+03  0.17770000000E+01 0. -1.
</event>
<event>
 7    1  0.3234965E-006  0.3401701E+03  0.7546771E-02  0.9851835E-01
        -11   -1    0    0    0    0  0.00000000000E+00  0.00000000000E+00  0.50000000000E+03  0.50000000000E+03  0.00000000000E+00 0. -1.
         11   -1    0    0    0    0 -0.00000000000E+00 -0.00000000000E+00 -0.50000000000E+03  0.50000000000E+03  0.00000000000E+00 0.  1.
         23    2    1    2    0    0 -0.78818119619E+02  0.22926979158E+03 -0.13603005028E+03  0.29092539931E+03  0.85769925221E+02 0.  0.
        -11    1    1    2    0    0 -0.27966664294E+02 -0.19109839869E+03  0.38764081152E+03  0.43308905672E+03  0.00000000000E+00 0. -1.
         11    1    1    2    0    0  0.10678478391E+03 -0.38171392884E+02 -0.25161076124E+03  0.27598554397E+03  0.00000000000E+00 0.  1.
        -15    1    3    3    0    0  0.74575994368E+01  0.54905423097E+02 -0.35488675408E+01  0.55551538814E+02  0.17770000000E+01 0.  1.
         15    1    3    3    0    0 -0.86275719055E+02  0.17436436848E+03 -0.13248118274E+03  0.23537386049E+03  0.17770000000E+01 0. -1.
</event>
<event>
 7    1  0.3234965E-006  0.5246272E+03  0.7546771E-02  0.9346330E-01
        -11   -1    0    0    0    0  0.00000000000E+00  0.00000000000E+00  0.50000000000E+03  0.50000000000E+03  0.00000000000E+00 0. -1.
         11   -1    0    0    0    0 -0.00000000000E+00 -0.00000000000E+00 -0.50000000000E+03  0.50000000000E+03  0.00000000000E+00 0.  1.
         23    2    1    2    0    0 -0.28937593333E+02 -0.56287030243E+02 -0.18960259457E+03  0.21715520421E+03  0.84862387230E+02 0.  0.
        -11    1    1    2    0    0 -0.11049993553E+03  0.23985661551E+02  0.46172908560E+03  0.47537279707E+03  0.00000000000E+00 0. -1.
         11    1    1    2    0    0  0.13943752886E+03  0.32301368692E+02 -0.27212649102E+03  0.30747199871E+03  0.00000000000E+00 0.  1.
        -15    1    3    3    0    0  0.21138476150E+02 -0.42847494471E+02 -0.12788322473E+03  0.13652845804E+03  0.17770000000E+01 0.  1.
         15    1    3    3    0    0 -0.50076069484E+02 -0.13439535772E+02 -0.61719369839E+02  0.80626746177E+02  0.17770000000E+01 0. -1.
</event>
<event>
 7    1  0.3234965E-006  0.4047366E+03  0.7546771E-02  0.9642508E-01
        -11   -1    0    0    0    0  0.00000000000E+00  0.00000000000E+00  0.50000000000E+03  0.50000000000E+03  0.00000000000E+00 0. -1.
         11   -1    0    0    0    0 -0.00000000000E+00 -0.00000000000E+00 -0.50000000000E+03  0.50000000000E+03  0.00000000000E+00 0.  1.
         23    2    1    2    0    0  0.58165024562E+02 -0.80577795224E+01  0.13784457292E+03  0.17677693227E+03  0.93812896795E+02 0.  0.
        -11    1    1    2    0    0 -0.35745284741E+03 -0.68615647874E+02  0.15678020810E+03  0.39630881760E+03  0.00000000000E+00 0. -1.
         11    1    1    2    0    0  0.29928782285E+03  0.76673427396E+02 -0.29462478102E+03  0.42691425013E+03  0.00000000000E+00 0.  1.
        -15    1    3    3    0    0  0.47285246229E+02 -0.43927558188E+02  0.11755144933E+03  0.13411571812E+03  0.17770000000E+01 0.  1.
         15    1    3    3    0    0  0.10879778333E+02  0.35869778665E+02  0.20293123589E+02  0.42661214142E+02  0.17770000000E+01 0. -1.
</event>
<event>
 7    1  0.3234965E-006  0.5194737E+03  0.7546771E-02  0.9357260E-01
        -11   -1    0    0    0    0  0.00000000000E+00  0.00000000000E+00  0.50000000000E+03  0.50000000000E+03  0.00000000000E+00 0. -1.
         11   -1    0    0    0    0 -0.00000000000E+00 -0.00000000000E+00 -0.50000000000E+03  0.50000000000E+03  0.00000000000E+00 0. -1.
         23    2    1    2    0    0  0.79054801779E+01  0.64344413689E+02  0.88870554472E+02  0.13958122024E+03  0.85919970909E+02 0.  0.
        -11    1    1    2    0    0  0.57981595570E+02  0.59746486833E+02  0.37065727816E+03  0.37989251897E+03  0.00000000000E+00 0. -1.
         11    1    1    2    0    0 -0.65887075748E+02 -0.12409090052E+03 -0.45952783264E+03  0.48052626079E+03  0.00000000000E+00 0. -1.
        -15    1    3    3    0    0  0.33266713592E+02  0.13764053529E+02  0.71986481007E+02  0.80506736237E+02  0.17770000000E+01 0.  1.
         15    1    3    3    0    0 -0.25361233414E+02  0.50580360160E+02  0.16884073465E+02  0.59074484001E+02  0.17770000000E+01 0. -1.
</event>
<event>
 7    1  0.3234965E-006  0.4416237E+03  0.7546771E-02  0.9540829E-01
        -11   -1    0    0    0    0  0.00000000000E+00  0.00000000000E+00  0.50000000000E+03  0.50000000000E+03  0.00000000000E+00 0. -1.
         11   -1    0    0    0    0 -0.00000000000E+00 -0.00000000000E+00 -0.50000000000E+03  0.50000000000E+03  0.00000000000E+00 0.  1.
         23    2    1    2    0    0  0.12361435734E+03  0.99542969857E+02 -0.41127119717E+03  0.45049764015E+03  0.92816022156E+02 0.  0.
        -11    1    1    2    0    0 -0.19026456638E+03 -0.45964695098E+01  0.38659375516E+03  0.43090191956E+03  0.00000000000E+00 0. -1.
         11    1    1    2    0    0  0.66650209042E+02 -0.94946500348E+02  0.24677442005E+02  0.11860044029E+03  0.00000000000E+00 0.  1.
        -15    1    3    3    0    0  0.52574097623E+02  0.29463236911E+02 -0.27532130131E+03  0.28184587056E+03  0.17770000000E+01 0.  1.
         15    1    3    3    0    0  0.71040259715E+02  0.70079732946E+02 -0.13594989586E+03  0.16865176958E+03  0.17770000000E+01 0. -1.
</event>
<event>
 6    1  0.3234965E-006  0.5250707E+03  0.7546771E-02  0.9345396E-01
        -11   -1    0    0    0    0  0.00000000000E+00  0.00000000000E+00  0.50000000000E+03  0.50000000000E+03  0.00000000000E+00 0.  1.
         11   -1    0    0    0    0 -0.00000000000E+00 -0.00000000000E+00 -0.50000000000E+03  0.50000000000E+03  0.00000000000E+00 0.  1.
        -11    1    1    2    0    0  0.89857007949E+00 -0.23219882816E+02  0.12953988673E+03  0.13160757060E+03  0.00000000000E+00 0.  1.
         11    1    1    2    0    0 -0.24544561200E+03  0.64021834067E+02 -0.40151647176E+03  0.47492927977E+03  0.00000000000E+00 0.  1.
        -15    1    1    2    0    0  0.11148383427E+03  0.27188624487E+02  0.19273298004E+03  0.22431456914E+03  0.17770000000E+01 0.  1.
         15    1    1    2    0    0  0.13306320766E+03 -0.67990575738E+02  0.79243604986E+02  0.16914858049E+03  0.17770000000E+01 0. -1.
</event>
<event>
 7    1  0.3234965E-006  0.5103586E+03  0.7546771E-02  0.9376925E-01
        -11   -1    0    0    0    0  0.00000000000E+00  0.00000000000E+00  0.50000000000E+03  0.50000000000E+03  0.00000000000E+00 0. -1.
         11   -1    0    0    0    0 -0.00000000000E+00 -0.00000000000E+00 -0.50000000000E+03  0.50000000000E+03  0.00000000000E+00 0.  1.
         23    2    1    2    0    0 -0.71157979372E+01 -0.31075356011E+02 -0.27078203274E+03  0.28716683316E+03  0.90141935212E+02 0.  0.
        -11    1    1    2    0    0  0.49836568600E+02  0.11385048222E+03  0.47360649983E+03  0.48964143263E+03  0.00000000000E+00 0. -1.
         11    1    1    2    0    0 -0.42720770663E+02 -0.82775126214E+02 -0.20282446709E+03  0.22319173420E+03  0.00000000000E+00 0.  1.
        -15    1    3    3    0    0 -0.13267083363E+02 -0.56731883692E+02 -0.23807719270E+03  0.24510901563E+03  0.17770000000E+01 0.  1.
         15    1    3    3    0    0  0.61512854261E+01  0.25656527681E+02 -0.32704840035E+02  0.42057817535E+02  0.17770000000E+01 0. -1.
</event>
<event>
 7    1  0.3234965E-006  0.5208805E+03  0.7546771E-02  0.9354263E-01
        -11   -1    0    0    0    0  0.00000000000E+00  0.00000000000E+00  0.50000000000E+03  0.50000000000E+03  0.00000000000E+00 0.  1.
         11   -1    0    0    0    0 -0.00000000000E+00 -0.00000000000E+00 -0.50000000000E+03  0.50000000000E+03  0.00000000000E+00 0.  1.
         23    2    1    2    0    0 -0.38383185799E+01 -0.42662760380E+02 -0.39090772616E+03  0.40343823279E+03  0.90103903912E+02 0.  0.
        -11    1    1    2    0    0 -0.83448179951E+02  0.50158286893E+02  0.46912262845E+03  0.47911949762E+03  0.00000000000E+00 0.  1.
         11    1    1    2    0    0  0.87286498531E+02 -0.74955265129E+01 -0.78214902294E+02  0.11744226958E+03  0.00000000000E+00 0.  1.
        -15    1    3    3    0    0  0.18341920560E+02  0.13286032172E+02 -0.30474986609E+02  0.38010883159E+02  0.17770000000E+01 0.  1.
         15    1    3    3    0    0 -0.22180239140E+02 -0.55948792551E+02 -0.36043273955E+03  0.36542734964E+03  0.17770000000E+01 0. -1.
</event>
<event>
 7    1  0.3234965E-006  0.5076312E+03  0.7546771E-02  0.9382894E-01
        -11   -1    0    0    0    0  0.00000000000E+00  0.00000000000E+00  0.50000000000E+03  0.50000000000E+03  0.00000000000E+00 0.  1.
         11   -1    0    0    0    0 -0.00000000000E+00 -0.00000000000E+00 -0.50000000000E+03  0.50000000000E+03  0.00000000000E+00 0. -1.
         23    2    1    2    0    0 -0.58826833428E+02 -0.37153139451E+02 -0.29197046928E+03  0.31397298950E+03  0.92148418894E+02 0.  0.
        -11    1    1    2    0    0  0.10708399311E+03  0.88397538315E+02  0.47238323198E+03  0.49236878883E+03  0.00000000000E+00 0.  1.
         11    1    1    2    0    0 -0.48257159682E+02 -0.51244398865E+02 -0.18041276270E+03  0.19365822167E+03  0.00000000000E+00 0. -1.
        -15    1    3    3    0    0  0.12418073039E+02  0.12340474410E-01 -0.15553857071E+01  0.12640634635E+02  0.17770000000E+01 0.  1.
         15    1    3    3    0    0 -0.71244906467E+02 -0.37165479925E+02 -0.29041508357E+03  0.30133235486E+03  0.17770000000E+01 0. -1.
</event>
<event>
 7    1  0.3234965E-006  0.5164113E+03  0.7546771E-02  0.9363819E-01
        -11   -1    0    0    0    0  0.00000000000E+00  0.00000000000E+00  0.50000000000E+03  0.50000000000E+03  0.00000000000E+00 0.  1.
         11   -1    0    0    0    0 -0.00000000000E+00 -0.00000000000E+00 -0.50000000000E+03  0.50000000000E+03  0.00000000000E+00 0. -1.
         23    2    1    2    0    0 -0.96019646539E+02  0.86231652628E+02  0.27791801738E+03  0.32013629888E+03  0.92699272067E+02 0.  0.
        -11    1    1    2    0    0 -0.59803709740E+02 -0.54619315767E+02  0.17878513431E+03  0.19627500504E+03  0.00000000000E+00 0.  1.
         11    1    1    2    0    0  0.15582335628E+03 -0.31612336861E+02 -0.45670315169E+03  0.48358869607E+03  0.00000000000E+00 0. -1.
        -15    1    3    3    0    0  0.71417510688E+01 -0.13515458134E+02  0.27072219765E+02  0.31140568860E+02  0.17770000000E+01 0. -1.
         15    1    3    3    0    0 -0.10316139761E+03  0.99747110762E+02  0.25084579761E+03  0.28899573002E+03  0.17770000000E+01 0.  1.
</event>
<event>
 7    1  0.3234965E-006  0.5102675E+03  0.7546771E-02  0.9377124E-01
        -11   -1    0    0    0    0  0.00000000000E+00  0.00000000000E+00  0.50000000000E+03  0.50000000000E+03  0.00000000000E+00 0.  1.
         11   -1    0    0    0    0 -0.00000000000E+00 -0.00000000000E+00 -0.50000000000E+03  0.50000000000E+03  0.00000000000E+00 0.  1.
         23    2    1    2    0    0 -0.16755880049E+02  0.18626318867E+02  0.19850459846E+03  0.21978662009E+03  0.90963638277E+02 0.  0.
        -11    1    1    2    0    0 -0.56867721084E+02  0.36380525295E+02  0.28252731207E+03  0.29048091570E+03  0.00000000000E+00 0.  1.
         11    1    1    2    0    0  0.73623601132E+02 -0.55006844162E+02 -0.48103191053E+03  0.48973246421E+03  0.00000000000E+00 0.  1.
        -15    1    3    3    0    0 -0.10838327369E+02  0.50660401175E+02  0.69392885421E+02  0.86616833603E+02  0.17770000000E+01 0.  1.
         15    1    3    3    0    0 -0.59175526794E+01 -0.32034082309E+02  0.12911171304E+03  0.13316978649E+03  0.17770000000E+01 0. -1.
</event>
<event>
 7    1  0.3234965E-006  0.5215878E+03  0.7546771E-02  0.9352760E-01
        -11   -1    0    0    0    0  0.00000000000E+00  0.00000000000E+00  0.50000000000E+03  0.50000000000E+03  0.00000000000E+00 0.  1.
         11   -1    0    0    0    0 -0.00000000000E+00 -0.00000000000E+00 -0.50000000000E+03  0.50000000000E+03  0.00000000000E+00 0. -1.
         23    2    1    2    0    0 -0.90142741610E+00 -0.15179642273E+02 -0.20684124753E+03  0.22554923939E+03  0.88644929903E+02 0.  0.
        -11    1    1    2    0    0  0.12275527055E+03  0.16237415934E+03  0.43294800469E+03  0.47841216418E+03  0.00000000000E+00 0.  1.
         11    1    1    2    0    0 -0.12185384313E+03 -0.14719451707E+03 -0.22610675716E+03  0.29603859643E+03  0.00000000000E+00 0. -1.
        -15    1    3    3    0    0 -0.32709104743E+02 -0.38372309673E+02 -0.12087920522E+03  0.13098572313E+03  0.17770000000E+01 0. -1.
         15    1    3    3    0    0  0.31807677327E+02  0.23192667400E+02 -0.85962042319E+02  0.94563516256E+02  0.17770000000E+01 0.  1.
</event>
<event>
 7    1  0.3234965E-006  0.4346443E+03  0.7546771E-02  0.9559236E-01
        -11   -1    0    0    0    0  0.00000000000E+00  0.00000000000E+00  0.50000000000E+03  0.50000000000E+03  0.00000000000E+00 0.  1.
         11   -1    0    0    0    0 -0.00000000000E+00 -0.00000000000E+00 -0.50000000000E+03  0.50000000000E+03  0.00000000000E+00 0. -1.
         23    2    1    2    0    0  0.74458977397E+02  0.41172616286E+02  0.41762102513E+01  0.12654738061E+03  0.93581382550E+02 0.  0.
        -11    1    1    2    0    0 -0.10465521186E+03  0.58449957188E+02  0.41995776812E+03  0.43673062392E+03  0.00000000000E+00 0.  1.
         11    1    1    2    0    0  0.30196234464E+02 -0.99622573475E+02 -0.42413397837E+03  0.43672199547E+03  0.00000000000E+00 0. -1.
        -15    1    3    3    0    0 -0.13640267287E+02  0.13891107801E+02  0.25243697440E+02  0.31928384818E+02  0.17770000000E+01 0.  1.
         15    1    3    3    0    0  0.88099244684E+02  0.27281508485E+02 -0.21067487189E+02  0.94618995791E+02  0.17770000000E+01 0. -1.
</event>
<event>
 7    1  0.3234965E-006  0.5102573E+03  0.7546771E-02  0.9377146E-01
        -11   -1    0    0    0    0  0.00000000000E+00  0.00000000000E+00  0.50000000000E+03  0.50000000000E+03  0.00000000000E+00 0.  1.
         11   -1    0    0    0    0 -0.00000000000E+00 -0.00000000000E+00 -0.50000000000E+03  0.50000000000E+03  0.00000000000E+00 0. -1.
         23    2    1    2    0    0  0.12021319149E+03  0.46423488723E+02  0.20200161890E+03  0.25605764046E+03  0.90302322698E+02 0.  0.
        -11    1    1    2    0    0  0.87748948998E+02  0.10075485455E+03  0.21625455418E+03  0.25419962818E+03  0.00000000000E+00 0.  1.
         11    1    1    2    0    0 -0.20796214049E+03 -0.14717834327E+03 -0.41825617308E+03  0.48974273136E+03  0.00000000000E+00 0. -1.
        -15    1    3    3    0    0  0.33026921688E+02  0.51192445592E+02  0.42800383017E+02  0.74474657148E+02  0.17770000000E+01 0. -1.
         15    1    3    3    0    0  0.87186269802E+02 -0.47689568697E+01  0.15920123588E+03  0.18158298331E+03  0.17770000000E+01 0.  1.
</event>
<event>
 7    1  0.3234965E-006  0.4151816E+03  0.7546771E-02  0.9612578E-01
        -11   -1    0    0    0    0  0.00000000000E+00  0.00000000000E+00  0.50000000000E+03  0.50000000000E+03  0.00000000000E+00 0.  1.
         11   -1    0    0    0    0 -0.00000000000E+00 -0.00000000000E+00 -0.50000000000E+03  0.50000000000E+03  0.00000000000E+00 0. -1.
         23    2    1    2    0    0  0.68742923945E+02 -0.82205927217E+02 -0.75980287319E+02  0.15931006584E+03  0.90129290217E+02 0.  0.
        -11    1    1    2    0    0 -0.66160672728E+02 -0.63555268487E+02  0.43952850105E+03  0.44900090201E+03  0.00000000000E+00 0.  1.
         11    1    1    2    0    0 -0.25822512170E+01  0.14576119570E+03 -0.36354821374E+03  0.39168903215E+03  0.00000000000E+00 0. -1.
        -15    1    3    3    0    0  0.30235875105E+02 -0.54377228341E+01 -0.66010240533E+02  0.72830533138E+02  0.17770000000E+01 0.  1.
         15    1    3    3    0    0  0.38507048840E+02 -0.76768204383E+02 -0.99700467864E+01  0.86479532703E+02  0.17770000000E+01 0. -1.
</event>
<event>
 7    1  0.3234965E-006  0.4604880E+03  0.7546771E-02  0.9492838E-01
        -11   -1    0    0    0    0  0.00000000000E+00  0.00000000000E+00  0.50000000000E+03  0.50000000000E+03  0.00000000000E+00 0. -1.
         11   -1    0    0    0    0 -0.00000000000E+00 -0.00000000000E+00 -0.50000000000E+03  0.50000000000E+03  0.00000000000E+00 0.  1.
         23    2    1    2    0    0 -0.94200130657E+02 -0.23709858666E+02  0.40952944887E+03  0.43080628735E+03  0.91890509377E+02 0.  0.
        -11    1    1    2    0    0 -0.13279172825E+02  0.55531227084E+02  0.62139724263E+02  0.84388381569E+02  0.00000000000E+00 0. -1.
         11    1    1    2    0    0  0.10747930348E+03 -0.31821368418E+02 -0.47166917313E+03  0.48480533108E+03  0.00000000000E+00 0.  1.
        -15    1    3    3    0    0 -0.31865331375E+02 -0.51829014846E+02  0.13863591159E+03  0.15140911411E+03  0.17770000000E+01 0.  1.
         15    1    3    3    0    0 -0.62334799283E+02  0.28119156180E+02  0.27089353728E+03  0.27939717324E+03  0.17770000000E+01 0. -1.
</event>
<event>
 7    1  0.3234965E-006  0.3868309E+03  0.7546771E-02  0.9696132E-01
        -11   -1    0    0    0    0  0.00000000000E+00  0.00000000000E+00  0.50000000000E+03  0.50000000000E+03  0.00000000000E+00 0. -1.
         11   -1    0    0    0    0 -0.00000000000E+00 -0.00000000000E+00 -0.50000000000E+03  0.50000000000E+03  0.00000000000E+00 0.  1.
         23    2    1    2    0    0  0.13612530651E+03 -0.11122125341E+03 -0.52690657211E+02  0.20487167524E+03  0.91081456278E+02 0.  0.
        -11    1    1    2    0    0  0.83093580079E+02  0.39070702718E+02  0.38206667773E+03  0.39294530038E+03  0.00000000000E+00 0. -1.
         11    1    1    2    0    0 -0.21921888659E+03  0.72150550688E+02 -0.32937602052E+03  0.40218302437E+03  0.00000000000E+00 0.  1.
        -15    1    3    3    0    0  0.13616028459E+03 -0.12215383720E+03 -0.58890887716E+02  0.19217824390E+03  0.17770000000E+01 0. -1.
         15    1    3    3    0    0 -0.34978083327E-01  0.10932583796E+02  0.62002305051E+01  0.12693431342E+02  0.17770000000E+01 0.  1.
</event>
<event>
 7    1  0.3234965E-006  0.4287167E+03  0.7546771E-02  0.9575162E-01
        -11   -1    0    0    0    0  0.00000000000E+00  0.00000000000E+00  0.50000000000E+03  0.50000000000E+03  0.00000000000E+00 0. -1.
         11   -1    0    0    0    0 -0.00000000000E+00 -0.00000000000E+00 -0.50000000000E+03  0.50000000000E+03  0.00000000000E+00 0.  1.
         23    2    1    2    0    0  0.86987696187E+02  0.63850808980E+02 -0.42424899145E+03  0.44740156832E+03  0.92396815376E+02 0.  0.
        -11    1    1    2    0    0 -0.58644711931E+02  0.72282511396E+02  0.40094376840E+03  0.41160644931E+03  0.00000000000E+00 0. -1.
         11    1    1    2    0    0 -0.28342984256E+02 -0.13613332038E+03  0.23305223046E+02  0.14099198238E+03  0.00000000000E+00 0.  1.
        -15    1    3    3    0    0  0.10215478926E+03  0.33716278374E+02 -0.30302485853E+03  0.32155809897E+03  0.17770000000E+01 0.  1.
         15    1    3    3    0    0 -0.15167093069E+02  0.30134530605E+02 -0.12122413292E+03  0.12584346935E+03  0.17770000000E+01 0. -1.
</event>
<event>
 7    1  0.3234965E-006  0.4137842E+03  0.7546771E-02  0.9616527E-01
        -11   -1    0    0    0    0  0.00000000000E+00  0.00000000000E+00  0.50000000000E+03  0.50000000000E+03  0.00000000000E+00 0. -1.
         11   -1    0    0    0    0 -0.00000000000E+00 -0.00000000000E+00 -0.50000000000E+03  0.50000000000E+03  0.00000000000E+00 0.  1.
         23    2    1    2    0    0 -0.12382433153E+03 -0.12190236960E+03 -0.37367572404E+03  0.42213077346E+03  0.91477813513E+02 0.  0.
        -11    1    1    2    0    0  0.16703611131E+03 -0.38357795672E+02  0.37453371351E+03  0.41188333970E+03  0.00000000000E+00 0. -1.
         11    1    1    2    0    0 -0.43211779778E+02  0.16026016527E+03 -0.85798946314E+00  0.16598588684E+03  0.00000000000E+00 0.  1.
        -15    1    3    3    0    0 -0.45638477903E+02 -0.98283961275E+01 -0.17401993385E+03  0.18018202780E+03  0.17770000000E+01 0. -1.
         15    1    3    3    0    0 -0.78185853629E+02 -0.11207397347E+03 -0.19965579019E+03  0.24194874566E+03  0.17770000000E+01 0.  1.
</event>
<event>
 7    1  0.3234965E-006  0.5327140E+03  0.7546771E-02  0.9329445E-01
        -11   -1    0    0    0    0  0.00000000000E+00  0.00000000000E+00  0.50000000000E+03  0.50000000000E+03  0.00000000000E+00 0.  1.
         11   -1    0    0    0    0 -0.00000000000E+00 -0.00000000000E+00 -0.50000000000E+03  0.50000000000E+03  0.00000000000E+00 0.  1.
         23    2    1    2    0    0 -0.99643423682E+01 -0.16977024414E+03  0.22188242189E+03  0.29519657234E+03  0.94804974871E+02 0.  0.
        -11    1    1    2    0    0 -0.44199582607E+00  0.55184877520E+02  0.23101723913E+03  0.23751743271E+03  0.00000000000E+00 0.  1.
         11    1    1    2    0    0  0.10406338194E+02  0.11458536662E+03 -0.45289966102E+03  0.46728599495E+03  0.00000000000E+00 0.  1.
        -15    1    3    3    0    0 -0.48285127523E+02 -0.12781541157E+03  0.14113711287E+03  0.19644611306E+03  0.17770000000E+01 0. -1.
         15    1    3    3    0    0  0.38320785154E+02 -0.41954832566E+02  0.80745309021E+02  0.98750459281E+02  0.17770000000E+01 0.  1.
</event>
<event>
 7    1  0.3234965E-006  0.5176580E+03  0.7546771E-02  0.9361143E-01
        -11   -1    0    0    0    0  0.00000000000E+00  0.00000000000E+00  0.50000000000E+03  0.50000000000E+03  0.00000000000E+00 0. -1.
         11   -1    0    0    0    0 -0.00000000000E+00 -0.00000000000E+00 -0.50000000000E+03  0.50000000000E+03  0.00000000000E+00 0.  1.
         23    2    1    2    0    0  0.73612054081E+02  0.44384982113E+02 -0.36797443975E+03  0.38647163771E+03  0.81033186463E+02 0.  0.
        -11    1    1    2    0    0 -0.95994808520E+02  0.32961765120E+02  0.47154252163E+03  0.48234202691E+03  0.00000000000E+00 0. -1.
         11    1    1    2    0    0  0.22382754439E+02 -0.77346747233E+02 -0.10356808188E+03  0.13118633537E+03  0.00000000000E+00 0.  1.
        -15    1    3    3    0    0  0.57253085656E+02  0.57267952560E+02 -0.34889515790E+03  0.35817387278E+03  0.17770000000E+01 0.  1.
         15    1    3    3    0    0  0.16358968425E+02 -0.12882970447E+02 -0.19079281844E+02  0.28297764932E+02  0.17770000000E+01 0. -1.
</event>
<event>
 7    1  0.3234965E-006  0.5198042E+03  0.7546771E-02  0.9356555E-01
        -11   -1    0    0    0    0  0.00000000000E+00  0.00000000000E+00  0.50000000000E+03  0.50000000000E+03  0.00000000000E+00 0. -1.
         11   -1    0    0    0    0 -0.00000000000E+00 -0.00000000000E+00 -0.50000000000E+03  0.50000000000E+03  0.00000000000E+00 0.  1.
         23    2    1    2    0    0 -0.36716707405E+02  0.97621529643E+02 -0.27073726247E+03  0.30528915545E+03  0.94998544685E+02 0.  0.
        -11    1    1    2    0    0 -0.37797240641E+02 -0.83374139629E+02  0.47138961830E+03  0.48019584630E+03  0.00000000000E+00 0. -1.
         11    1    1    2    0    0  0.74513948046E+02 -0.14247390015E+02 -0.20065235583E+03  0.21451499826E+03  0.00000000000E+00 0.  1.
        -15    1    3    3    0    0  0.22700911130E+02 -0.16315614387E+01 -0.26102429164E+02  0.34676907246E+02  0.17770000000E+01 0. -1.
         15    1    3    3    0    0 -0.59417618535E+02  0.99253091082E+02 -0.24463483330E+03  0.27061224820E+03  0.17770000000E+01 0.  1.
</event>
<event>
 7    1  0.3234965E-006  0.5078906E+03  0.7546771E-02  0.9382325E-01
        -11   -1    0    0    0    0  0.00000000000E+00  0.00000000000E+00  0.50000000000E+03  0.50000000000E+03  0.00000000000E+00 0.  1.
         11   -1    0    0    0    0 -0.00000000000E+00 -0.00000000000E+00 -0.50000000000E+03  0.50000000000E+03  0.00000000000E+00 0. -1.
         23    2    1    2    0    0  0.33331605659E+01  0.30781841711E+02 -0.33303877311E+03  0.34683649086E+03  0.91771974223E+02 0.  0.
        -11    1    1    2    0    0 -0.68633996710E+01 -0.84928018004E+02  0.48467700137E+03  0.49210940872E+03  0.00000000000E+00 0.  1.
         11    1    1    2    0    0  0.35302391051E+01  0.54146176293E+02 -0.15163822825E+03  0.16105410042E+03  0.00000000000E+00 0. -1.
        -15    1    3    3    0    0  0.11140400150E+02 -0.26389357681E+02 -0.47311978691E+02  0.55336134405E+02  0.17770000000E+01 0.  1.
         15    1    3    3    0    0 -0.78072395838E+01  0.57171199391E+02 -0.28572679442E+03  0.29150035645E+03  0.17770000000E+01 0. -1.
</event>
<event>
 7    1  0.3234965E-006  0.5129159E+03  0.7546771E-02  0.9371364E-01
        -11   -1    0    0    0    0  0.00000000000E+00  0.00000000000E+00  0.50000000000E+03  0.50000000000E+03  0.00000000000E+00 0.  1.
         11   -1    0    0    0    0 -0.00000000000E+00 -0.00000000000E+00 -0.50000000000E+03  0.50000000000E+03  0.00000000000E+00 0. -1.
         23    2    1    2    0    0  0.52613267535E+02  0.49880273848E+02  0.19831529787E+03  0.23028383783E+03  0.91899352319E+02 0.  0.
        -11    1    1    2    0    0  0.10185077976E+03  0.14330857591E+03  0.22129151606E+03  0.28263202994E+03  0.00000000000E+00 0.  1.
         11    1    1    2    0    0 -0.15446404729E+03 -0.19318884976E+03 -0.41960681393E+03  0.48708413223E+03  0.00000000000E+00 0. -1.
        -15    1    3    3    0    0 -0.21597828743E+02  0.29484433071E+02  0.92110807678E+02  0.99112847906E+02  0.17770000000E+01 0.  1.
         15    1    3    3    0    0  0.74211096277E+02  0.20395840777E+02  0.10620449019E+03  0.13117098992E+03  0.17770000000E+01 0. -1.
</event>
<event>
 7    1  0.3234965E-006  0.5392290E+03  0.7546771E-02  0.9316072E-01
        -11   -1    0    0    0    0  0.00000000000E+00  0.00000000000E+00  0.50000000000E+03  0.50000000000E+03  0.00000000000E+00 0.  1.
         11   -1    0    0    0    0 -0.00000000000E+00 -0.00000000000E+00 -0.50000000000E+03  0.50000000000E+03  0.00000000000E+00 0. -1.
         23    2    1    2    0    0 -0.37364387576E+02 -0.37864569669E+02 -0.23498650450E+03  0.25705688572E+03  0.89608939864E+02 0.  0.
        -11    1    1    2    0    0 -0.36072962088E+02 -0.14686103656E+03  0.43524761403E+03  0.46077099320E+03  0.00000000000E+00 0.  1.
         11    1    1    2    0    0  0.73437349664E+02  0.18472560623E+03 -0.20026110953E+03  0.28217212108E+03  0.00000000000E+00 0. -1.
        -15    1    3    3    0    0 -0.57593915962E+02 -0.47920632348E+02 -0.21165627278E+03  0.22453280762E+03  0.17770000000E+01 0.  1.
         15    1    3    3    0    0  0.20229528386E+02  0.10056062679E+02 -0.23330231724E+02  0.32524078105E+02  0.17770000000E+01 0. -1.
</event>
<event>
 7    1  0.3234965E-006  0.4351887E+03  0.7546771E-02  0.9557787E-01
        -11   -1    0    0    0    0  0.00000000000E+00  0.00000000000E+00  0.50000000000E+03  0.50000000000E+03  0.00000000000E+00 0. -1.
         11   -1    0    0    0    0 -0.00000000000E+00 -0.00000000000E+00 -0.50000000000E+03  0.50000000000E+03  0.00000000000E+00 0. -1.
         23    2    1    2    0    0 -0.15743672549E+03  0.29184367217E+03 -0.32593044170E+03  0.47359369526E+03  0.90007132162E+02 0.  0.
        -11    1    1    2    0    0  0.15034579257E+03 -0.16271985654E+03  0.32948215847E+03  0.39703916910E+03  0.00000000000E+00 0. -1.
         11    1    1    2    0    0  0.70909329195E+01 -0.12912381563E+03 -0.35517167630E+01  0.12936713564E+03  0.00000000000E+00 0. -1.
        -15    1    3    3    0    0 -0.89965188261E+02  0.24569723685E+03 -0.25478189821E+03  0.36520931078E+03  0.17770000000E+01 0. -1.
         15    1    3    3    0    0 -0.67471537228E+02  0.46146435320E+02 -0.71148543490E+02  0.10838438448E+03  0.17770000000E+01 0.  1.
</event>
<event>
 7    1  0.3234965E-006  0.5111813E+03  0.7546771E-02  0.9375132E-01
        -11   -1    0    0    0    0  0.00000000000E+00  0.00000000000E+00  0.50000000000E+03  0.50000000000E+03  0.00000000000E+00 0. -1.
         11   -1    0    0    0    0 -0.00000000000E+00 -0.00000000000E+00 -0.50000000000E+03  0.50000000000E+03  0.00000000000E+00 0. -1.
         23    2    1    2    0    0 -0.45497063359E+01  0.10605252686E+02 -0.24064724080E+03  0.25787528735E+03  0.91953238690E+02 0.  0.
        -11    1    1    2    0    0 -0.53385081768E+02 -0.60806521548E+02  0.48207497381E+03  0.48881865798E+03  0.00000000000E+00 0. -1.
         11    1    1    2    0    0  0.57934788104E+02  0.50201268862E+02 -0.24142773301E+03  0.25330605467E+03  0.00000000000E+00 0. -1.
        -15    1    3    3    0    0  0.12808276774E+02  0.35009488855E+02 -0.21556248026E+03  0.21876941488E+03  0.17770000000E+01 0. -1.
         15    1    3    3    0    0 -0.17357983110E+02 -0.24404236170E+02 -0.25084760547E+02  0.39105872467E+02  0.17770000000E+01 0.  1.
</event>
<event>
 7    1  0.3234965E-006  0.5073402E+03  0.7546771E-02  0.9383534E-01
        -11   -1    0    0    0    0  0.00000000000E+00  0.00000000000E+00  0.50000000000E+03  0.50000000000E+03  0.00000000000E+00 0. -1.
         11   -1    0    0    0    0 -0.00000000000E+00 -0.00000000000E+00 -0.50000000000E+03  0.50000000000E+03  0.00000000000E+00 0. -1.
         23    2    1    2    0    0  0.40119325187E+02 -0.20539448879E+03 -0.43661670205E+03  0.49265976579E+03  0.91011230305E+02 0.  0.
        -11    1    1    2    0    0 -0.33485323686E+02  0.23469072500E+02  0.22280656021E+03  0.22652776329E+03  0.00000000000E+00 0. -1.
         11    1    1    2    0    0 -0.66340015010E+01  0.18192541629E+03  0.21381014184E+03  0.28081247092E+03  0.00000000000E+00 0. -1.
        -15    1    3    3    0    0  0.36691758742E+02 -0.12168146319E+03 -0.34896787394E+03  0.37139520516E+03  0.17770000000E+01 0. -1.
         15    1    3    3    0    0  0.34275664446E+01 -0.83713025604E+02 -0.87648828107E+02  0.12126456063E+03  0.17770000000E+01 0.  1.
</event>
<event>
 7    1  0.3234965E-006  0.3801873E+03  0.7546771E-02  0.9716823E-01
        -11   -1    0    0    0    0  0.00000000000E+00  0.00000000000E+00  0.50000000000E+03  0.50000000000E+03  0.00000000000E+00 0.  1.
         11   -1    0    0    0    0 -0.00000000000E+00 -0.00000000000E+00 -0.50000000000E+03  0.50000000000E+03  0.00000000000E+00 0. -1.
         23    2    1    2    0    0 -0.36956747957E+02 -0.10942014010E+03 -0.15829268103E+03  0.21478359304E+03  0.87959369561E+02 0.  0.
        -11    1    1    2    0    0 -0.12302348673E+03 -0.10268333730E+03  0.39695993495E+03  0.42808391234E+03  0.00000000000E+00 0.  1.
         11    1    1    2    0    0  0.15998023469E+03  0.21210347740E+03 -0.23866725393E+03  0.35713249462E+03  0.00000000000E+00 0. -1.
        -15    1    3    3    0    0  0.66069161848E+01 -0.99577187269E+02 -0.11855264381E+03  0.15497469035E+03  0.17770000000E+01 0.  1.
         15    1    3    3    0    0 -0.43563664142E+02 -0.98429528294E+01 -0.39740037215E+02  0.59808902688E+02  0.17770000000E+01 0. -1.
</event>
<event>
 7    1  0.3234965E-006  0.4617983E+03  0.7546771E-02  0.9489596E-01
        -11   -1    0    0    0    0  0.00000000000E+00  0.00000000000E+00  0.50000000000E+03  0.50000000000E+03  0.00000000000E+00 0.  1.
         11   -1    0    0    0    0 -0.00000000000E+00 -0.00000000000E+00 -0.50000000000E+03  0.50000000000E+03  0.00000000000E+00 0. -1.
         23    2    1    2    0    0  0.17454769618E+02  0.40523809899E+02 -0.45428893417E+03  0.46577323043E+03  0.92840822542E+02 0.  0.
        -11    1    1    2    0    0  0.24398437559E+02 -0.10930531334E+03  0.43798616306E+03  0.45207832763E+03  0.00000000000E+00 0.  1.
         11    1    1    2    0    0 -0.41853207177E+02  0.68781503442E+02  0.16302771101E+02  0.82148441935E+02  0.00000000000E+00 0. -1.
        -15    1    3    3    0    0  0.53289221842E+02  0.17779252213E+02 -0.32084889832E+03  0.32573457946E+03  0.17770000000E+01 0. -1.
         15    1    3    3    0    0 -0.35834452224E+02  0.22744557687E+02 -0.13344003585E+03  0.14003865097E+03  0.17770000000E+01 0.  1.
</event>
<event>
 7    1  0.3234965E-006  0.5213383E+03  0.7546771E-02  0.9353290E-01
        -11   -1    0    0    0    0  0.00000000000E+00  0.00000000000E+00  0.50000000000E+03  0.50000000000E+03  0.00000000000E+00 0.  1.
         11   -1    0    0    0    0 -0.00000000000E+00 -0.00000000000E+00 -0.50000000000E+03  0.50000000000E+03  0.00000000000E+00 0. -1.
         23    2    1    2    0    0 -0.36204181409E+01  0.29030651712E+02 -0.22061134386E+03  0.24073521696E+03  0.91805193112E+02 0.  0.
        -11    1    1    2    0    0  0.16787100760E+03 -0.97974433091E+02  0.43742131190E+03  0.47866174783E+03  0.00000000000E+00 0.  1.
         11    1    1    2    0    0 -0.16425058946E+03  0.68943781380E+02 -0.21680996804E+03  0.28060303521E+03  0.00000000000E+00 0. -1.
        -15    1    3    3    0    0  0.41441787421E+02  0.19374054632E+02 -0.73767229824E+02  0.86818993673E+02  0.17770000000E+01 0.  1.
         15    1    3    3    0    0 -0.45062205561E+02  0.96565970803E+01 -0.14684411403E+03  0.15391622329E+03  0.17770000000E+01 0. -1.
</event>
<event>
 7    1  0.3234965E-006  0.5069469E+03  0.7546771E-02  0.9384398E-01
        -11   -1    0    0    0    0  0.00000000000E+00  0.00000000000E+00  0.50000000000E+03  0.50000000000E+03  0.00000000000E+00 0.  1.
         11   -1    0    0    0    0 -0.00000000000E+00 -0.00000000000E+00 -0.50000000000E+03  0.50000000000E+03  0.00000000000E+00 0. -1.
         23    2    1    2    0    0 -0.69703897776E+02 -0.46608235908E+02  0.31718813766E+03  0.34108414779E+03  0.93269074113E+02 0.  0.
        -11    1    1    2    0    0 -0.40325094062E+02 -0.43332393909E+02  0.15494074876E+03  0.16586272999E+03  0.00000000000E+00 0.  1.
         11    1    1    2    0    0  0.11002899184E+03  0.89940629817E+02 -0.47212888642E+03  0.49305312222E+03  0.00000000000E+00 0. -1.
        -15    1    3    3    0    0 -0.23392674322E+02 -0.53638678641E+02  0.26298716670E+03  0.26942481816E+03  0.17770000000E+01 0. -1.
         15    1    3    3    0    0 -0.46311223454E+02  0.70304427333E+01  0.54200970953E+02  0.71659329637E+02  0.17770000000E+01 0.  1.
</event>
<event>
 7    1  0.3234965E-006  0.5207569E+03  0.7546771E-02  0.9354526E-01
        -11   -1    0    0    0    0  0.00000000000E+00  0.00000000000E+00  0.50000000000E+03  0.50000000000E+03  0.00000000000E+00 0. -1.
         11   -1    0    0    0    0 -0.00000000000E+00 -0.00000000000E+00 -0.50000000000E+03  0.50000000000E+03  0.00000000000E+00 0.  1.
         23    2    1    2    0    0 -0.55555090393E+02 -0.82776340347E+02  0.15457397028E+03  0.20516299556E+03  0.90887028071E+02 0.  0.
        -11    1    1    2    0    0 -0.11907716839E+03  0.39370435530E+02  0.28960333432E+03  0.31559387585E+03  0.00000000000E+00 0. -1.
         11    1    1    2    0    0  0.17463225878E+03  0.43405904816E+02 -0.44417730460E+03  0.47924312859E+03  0.00000000000E+00 0.  1.
        -15    1    3    3    0    0  0.11805546028E+02  0.61409859127E+01  0.51672578892E+02  0.53388161265E+02  0.17770000000E+01 0.  1.
         15    1    3    3    0    0 -0.67360636421E+02 -0.88917326259E+02  0.10290139139E+03  0.15177483430E+03  0.17770000000E+01 0. -1.
</event>
<event>
 7    1  0.3234965E-006  0.5201677E+03  0.7546771E-02  0.9355780E-01
        -11   -1    0    0    0    0  0.00000000000E+00  0.00000000000E+00  0.50000000000E+03  0.50000000000E+03  0.00000000000E+00 0.  1.
         11   -1    0    0    0    0 -0.00000000000E+00 -0.00000000000E+00 -0.50000000000E+03  0.50000000000E+03  0.00000000000E+00 0. -1.
         23    2    1    2    0    0 -0.42825463945E+02 -0.11243266901E+03 -0.27388933106E+03  0.31232928588E+03  0.89772444122E+02 0.  0.
        -11    1    1    2    0    0 -0.18885446761E+02  0.26724496377E+03  0.39807352165E+03  0.47983232426E+03  0.00000000000E+00 0.  1.
         11    1    1    2    0    0  0.61710910705E+02 -0.15481229476E+03 -0.12418419059E+03  0.20783838987E+03  0.00000000000E+00 0. -1.
        -15    1    3    3    0    0 -0.52421301890E+02 -0.10654432081E+03 -0.27624600452E+03  0.30069036887E+03  0.17770000000E+01 0. -1.
         15    1    3    3    0    0  0.95958379458E+01 -0.58883481979E+01  0.23566734540E+01  0.11638917009E+02  0.17770000000E+01 0.  1.
</event>
<event>
 7    1  0.3234965E-006  0.4716476E+03  0.7546771E-02  0.9465585E-01
        -11   -1    0    0    0    0  0.00000000000E+00  0.00000000000E+00  0.50000000000E+03  0.50000000000E+03  0.00000000000E+00 0.  1.
         11   -1    0    0    0    0 -0.00000000000E+00 -0.00000000000E+00 -0.50000000000E+03  0.50000000000E+03  0.00000000000E+00 0. -1.
         23    2    1    2    0    0 -0.31310225798E+03 -0.23085484206E+03  0.23123769064E+03  0.46164950055E+03  0.91227242258E+02 0.  0.
        -11    1    1    2    0    0  0.16375986645E+02 -0.61242779131E+02 -0.28644160791E+01  0.63459087716E+02  0.00000000000E+00 0.  1.
         11    1    1    2    0    0  0.29672627134E+03  0.29209762119E+03 -0.22837327456E+03  0.47489141173E+03  0.00000000000E+00 0. -1.
        -15    1    3    3    0    0 -0.27705520338E+03 -0.16233771040E+03  0.19890671714E+03  0.37773027121E+03  0.17770000000E+01 0.  1.
         15    1    3    3    0    0 -0.36047054601E+02 -0.68517131656E+02  0.32330973500E+02  0.83919229335E+02  0.17770000000E+01 0. -1.
</event>
<event>
 7    1  0.3234965E-006  0.5187239E+03  0.7546771E-02  0.9358861E-01
        -11   -1    0    0    0    0  0.00000000000E+00  0.00000000000E+00  0.50000000000E+03  0.50000000000E+03  0.00000000000E+00 0. -1.
         11   -1    0    0    0    0 -0.00000000000E+00 -0.00000000000E+00 -0.50000000000E+03  0.50000000000E+03  0.00000000000E+00 0. -1.
         23    2    1    2    0    0 -0.87983536699E+01  0.69489920237E+02 -0.26851815605E+03  0.29210276698E+03  0.91190823611E+02 0.  0.
        -11    1    1    2    0    0 -0.10510831665E+03 -0.69869287032E+02  0.46443210816E+03  0.48127607316E+03  0.00000000000E+00 0. -1.
         11    1    1    2    0    0  0.11390667032E+03  0.37936679471E+00 -0.19591395211E+03  0.22662115986E+03  0.00000000000E+00 0. -1.
        -15    1    3    3    0    0 -0.13918479652E+02 -0.14114105236E+02 -0.14496487329E+02  0.24621899120E+02  0.17770000000E+01 0.  1.
         15    1    3    3    0    0  0.51201259823E+01  0.83604025473E+02 -0.25402166872E+03  0.26748086786E+03  0.17770000000E+01 0. -1.
</event>
<event>
 7    1  0.3234965E-006  0.5197271E+03  0.7546771E-02  0.9356719E-01
        -11   -1    0    0    0    0  0.00000000000E+00  0.00000000000E+00  0.50000000000E+03  0.50000000000E+03  0.00000000000E+00 0.  1.
         11   -1    0    0    0    0 -0.00000000000E+00 -0.00000000000E+00 -0.50000000000E+03  0.50000000000E+03  0.00000000000E+00 0. -1.
         23    2    1    2    0    0  0.28192912391E+02  0.60917723148E+02  0.27159473241E+03  0.29387441009E+03  0.89959218153E+02 0.  0.
        -11    1    1    2    0    0  0.84981614834E+02 -0.76156817610E+02  0.19490432322E+03  0.22585267530E+03  0.00000000000E+00 0.  1.
         11    1    1    2    0    0 -0.11317452723E+03  0.15239094462E+02 -0.46649905563E+03  0.48027291462E+03  0.00000000000E+00 0. -1.
        -15    1    3    3    0    0 -0.15495854319E+02  0.52194210900E+02  0.21517601553E+03  0.22196448487E+03  0.17770000000E+01 0.  1.
         15    1    3    3    0    0  0.43688766710E+02  0.87235122481E+01  0.56418716872E+02  0.71909925220E+02  0.17770000000E+01 0. -1.
</event>
<event>
 7    1  0.3234965E-006  0.5268901E+03  0.7546771E-02  0.9341573E-01
        -11   -1    0    0    0    0  0.00000000000E+00  0.00000000000E+00  0.50000000000E+03  0.50000000000E+03  0.00000000000E+00 0. -1.
         11   -1    0    0    0    0 -0.00000000000E+00 -0.00000000000E+00 -0.50000000000E+03  0.50000000000E+03  0.00000000000E+00 0.  1.
         23    2    1    2    0    0  0.26994813563E+02 -0.11370131507E+03  0.18602039622E+03  0.24213655761E+03  0.10183229211E+03 0.  0.
        -11    1    1    2    0    0  0.27845640723E+02  0.48030163215E+02  0.27928894514E+03  0.28475356216E+03  0.00000000000E+00 0. -1.
         11    1    1    2    0    0 -0.54840454286E+02  0.65671151854E+02 -0.46530934136E+03  0.47310988023E+03  0.00000000000E+00 0.  1.
        -15    1    3    3    0    0  0.25280096343E+02 -0.12682676206E+03  0.18844946239E+03  0.22856173881E+03  0.17770000000E+01 0. -1.
         15    1    3    3    0    0  0.17147172201E+01  0.13125446994E+02 -0.24290661717E+01  0.13574818798E+02  0.17770000000E+01 0.  1.
</event>
<event>
 7    1  0.3234965E-006  0.3368679E+03  0.7546771E-02  0.9863860E-01
        -11   -1    0    0    0    0  0.00000000000E+00  0.00000000000E+00  0.50000000000E+03  0.50000000000E+03  0.00000000000E+00 0. -1.
         11   -1    0    0    0    0 -0.00000000000E+00 -0.00000000000E+00 -0.50000000000E+03  0.50000000000E+03  0.00000000000E+00 0. -1.
         23    2    1    2    0    0 -0.72746999481E+02  0.14643249849E+03 -0.31641045233E+03  0.36767582765E+03  0.91298068680E+02 0.  0.
        -11    1    1    2    0    0  0.38512414755E+02  0.13286734080E+03  0.32244739297E+03  0.35086928845E+03  0.00000000000E+00 0. -1.
         11    1    1    2    0    0  0.34234584726E+02 -0.27929983929E+03 -0.60369406427E+01  0.28145488390E+03  0.00000000000E+00 0. -1.
        -15    1    3    3    0    0  0.13903659813E+02  0.71971996113E+01 -0.65005948412E+01  0.17044849683E+02  0.17770000000E+01 0.  1.
         15    1    3    3    0    0 -0.86650659294E+02  0.13923529888E+03 -0.30990985749E+03  0.35063097796E+03  0.17770000000E+01 0. -1.
</event>
<event>
 7    1  0.3234965E-006  0.4070541E+03  0.7546771E-02  0.9635785E-01
        -11   -1    0    0    0    0  0.00000000000E+00  0.00000000000E+00  0.50000000000E+03  0.50000000000E+03  0.00000000000E+00 0. -1.
         11   -1    0    0    0    0 -0.00000000000E+00 -0.00000000000E+00 -0.50000000000E+03  0.50000000000E+03  0.00000000000E+00 0. -1.
         23    2    1    2    0    0 -0.11059620397E+03  0.32796850569E+02 -0.76039751681E+02  0.17425099103E+03  0.10618008428E+03 0.  0.
        -11    1    1    2    0    0  0.11203783413E+03  0.48569276503E+02  0.43802563205E+03  0.45472838621E+03  0.00000000000E+00 0. -1.
         11    1    1    2    0    0 -0.14416301562E+01 -0.81366127071E+02 -0.36198588037E+03  0.37102062276E+03  0.00000000000E+00 0. -1.
        -15    1    3    3    0    0 -0.69227001334E+02  0.37113922619E+02 -0.99251721042E+02  0.12658547636E+03  0.17770000000E+01 0.  1.
         15    1    3    3    0    0 -0.41369202637E+02 -0.43170720509E+01  0.23211969361E+02  0.47665514668E+02  0.17770000000E+01 0. -1.
</event>
<event>
 7    1  0.3234965E-006  0.5157140E+03  0.7546771E-02  0.9365319E-01
        -11   -1    0    0    0    0  0.00000000000E+00  0.00000000000E+00  0.50000000000E+03  0.50000000000E+03  0.00000000000E+00 0. -1.
         11   -1    0    0    0    0 -0.00000000000E+00 -0.00000000000E+00 -0.50000000000E+03  0.50000000000E+03  0.00000000000E+00 0. -1.
         23    2    1    2    0    0 -0.17277383519E+02 -0.93141330928E+01 -0.26752000416E+03  0.28306325799E+03  0.90402402324E+02 0.  0.
        -11    1    1    2    0    0 -0.21056901657E+02  0.11938895998E+03  0.46886647671E+03  0.48428595876E+03  0.00000000000E+00 0. -1.
         11    1    1    2    0    0  0.38334285175E+02 -0.11007482689E+03 -0.20134647255E+03  0.23265078324E+03  0.00000000000E+00 0. -1.
        -15    1    3    3    0    0  0.32180216696E+02 -0.14063137845E+02 -0.58875248939E+02  0.68576897416E+02  0.17770000000E+01 0. -1.
         15    1    3    3    0    0 -0.49457600215E+02  0.47490047517E+01 -0.20864475522E+03  0.21448636058E+03  0.17770000000E+01 0.  1.
</event>
<event>
 7    1  0.3234965E-006  0.5315587E+03  0.7546771E-02  0.9331838E-01
        -11   -1    0    0    0    0  0.00000000000E+00  0.00000000000E+00  0.50000000000E+03  0.50000000000E+03  0.00000000000E+00 0. -1.
         11   -1    0    0    0    0 -0.00000000000E+00 -0.00000000000E+00 -0.50000000000E+03  0.50000000000E+03  0.00000000000E+00 0.  1.
         23    2    1    2    0    0 -0.12582166361E+02 -0.31916971158E+02 -0.21809178153E+03  0.24029316948E+03  0.94867160630E+02 0.  0.
        -11    1    1    2    0    0 -0.16454339503E+03 -0.44456939576E+02  0.43633282320E+03  0.46844133136E+03  0.00000000000E+00 0. -1.
         11    1    1    2    0    0  0.17712556139E+03  0.76373910734E+02 -0.21824104166E+03  0.29126549917E+03  0.00000000000E+00 0.  1.
        -15    1    3    3    0    0  0.33249568297E+02  0.12943326617E+02 -0.94794833083E+02  0.10130292002E+03  0.17770000000E+01 0. -1.
         15    1    3    3    0    0 -0.45831734658E+02 -0.44860297775E+02 -0.12329694845E+03  0.13899024946E+03  0.17770000000E+01 0.  1.
</event>
<event>
 7    1  0.3234965E-006  0.5278264E+03  0.7546771E-02  0.9339612E-01
        -11   -1    0    0    0    0  0.00000000000E+00  0.00000000000E+00  0.50000000000E+03  0.50000000000E+03  0.00000000000E+00 0.  1.
         11   -1    0    0    0    0 -0.00000000000E+00 -0.00000000000E+00 -0.50000000000E+03  0.50000000000E+03  0.00000000000E+00 0. -1.
         23    2    1    2    0    0 -0.16785262859E+03 -0.24119397509E+02 -0.34122066972E+03  0.39181331547E+03  0.91268167928E+02 0.  0.
        -11    1    1    2    0    0  0.10459380818E+03  0.57922928997E+02  0.45678543481E+03  0.47217355269E+03  0.00000000000E+00 0.  1.
         11    1    1    2    0    0  0.63258820416E+02 -0.33803531488E+02 -0.11556476509E+03  0.13601313183E+03  0.00000000000E+00 0. -1.
        -15    1    3    3    0    0 -0.36821051292E+02 -0.36470618856E+02 -0.49123114516E+02  0.71429223479E+02  0.17770000000E+01 0.  1.
         15    1    3    3    0    0 -0.13103157730E+03  0.12351221347E+02 -0.29209755520E+03  0.32038409200E+03  0.17770000000E+01 0. -1.
</event>
<event>
 7    1  0.3234965E-006  0.5118141E+03  0.7546771E-02  0.9373756E-01
        -11   -1    0    0    0    0  0.00000000000E+00  0.00000000000E+00  0.50000000000E+03  0.50000000000E+03  0.00000000000E+00 0.  1.
         11   -1    0    0    0    0 -0.00000000000E+00 -0.00000000000E+00 -0.50000000000E+03  0.50000000000E+03  0.00000000000E+00 0. -1.
         23    2    1    2    0    0  0.83741284913E+02  0.48890944286E+02  0.29878601830E+03  0.32673674451E+03  0.89893760902E+02 0.  0.
        -11    1    1    2    0    0 -0.20181443885E+02  0.68181682867E+02  0.17087303254E+03  0.18507735087E+03  0.00000000000E+00 0.  1.
         11    1    1    2    0    0 -0.63559841028E+02 -0.11707262715E+03 -0.46965905085E+03  0.48818590461E+03  0.00000000000E+00 0. -1.
        -15    1    3    3    0    0 -0.15933697396E+02 -0.57335705505E+01  0.58334502784E+02  0.60768647245E+02  0.17770000000E+01 0.  1.
         15    1    3    3    0    0  0.99674982309E+02  0.54624514837E+02  0.24045151552E+03  0.26596809727E+03  0.17770000000E+01 0. -1.
</event>
<event>
 6    1  0.3234965E-006  0.3488352E+03  0.7546771E-02  0.9820966E-01
        -11   -1    0    0    0    0  0.00000000000E+00  0.00000000000E+00  0.50000000000E+03  0.50000000000E+03  0.00000000000E+00 0. -1.
         11   -1    0    0    0    0 -0.00000000000E+00 -0.00000000000E+00 -0.50000000000E+03  0.50000000000E+03  0.00000000000E+00 0. -1.
        -11    1    1    2    0    0 -0.74650433184E+02  0.21522699031E+03  0.32333736507E+03  0.39552799672E+03  0.00000000000E+00 0. -1.
         11    1    1    2    0    0  0.13892941156E+03 -0.23721557660E+03 -0.36750774229E+02  0.27735037513E+03  0.00000000000E+00 0. -1.
        -15    1    1    2    0    0 -0.49887826327E+02  0.68018462797E+02 -0.84716764878E+02  0.11956334922E+03  0.17770000000E+01 0.  1.
         15    1    1    2    0    0 -0.14391152049E+02 -0.46029876512E+02 -0.20186982597E+03  0.20755827893E+03  0.17770000000E+01 0. -1.
</event>
<event>
 7    1  0.3234965E-006  0.5170670E+03  0.7546771E-02  0.9362410E-01
        -11   -1    0    0    0    0  0.00000000000E+00  0.00000000000E+00  0.50000000000E+03  0.50000000000E+03  0.00000000000E+00 0.  1.
         11   -1    0    0    0    0 -0.00000000000E+00 -0.00000000000E+00 -0.50000000000E+03  0.50000000000E+03  0.00000000000E+00 0. -1.
         23    2    1    2    0    0  0.61847018549E+02  0.10395568848E+03 -0.37724934901E+03  0.40660002584E+03  0.91513227538E+02 0.  0.
        -11    1    1    2    0    0 -0.10899313741E+03 -0.59470372931E+02  0.46669908817E+03  0.48293298516E+03  0.00000000000E+00 0.  1.
         11    1    1    2    0    0  0.47146118863E+02 -0.44485315548E+02 -0.89449739153E+02  0.11046698900E+03  0.00000000000E+00 0. -1.
        -15    1    3    3    0    0  0.17449441688E+02  0.75964970049E+02 -0.31804475365E+03  0.32746111638E+03  0.17770000000E+01 0. -1.
         15    1    3    3    0    0  0.44397576861E+02  0.27990718431E+02 -0.59204595363E+02  0.79138909460E+02  0.17770000000E+01 0.  1.
</event>
<event>
 7    1  0.3234965E-006  0.5169960E+03  0.7546771E-02  0.9362563E-01
        -11   -1    0    0    0    0  0.00000000000E+00  0.00000000000E+00  0.50000000000E+03  0.50000000000E+03  0.00000000000E+00 0.  1.
         11   -1    0    0    0    0 -0.00000000000E+00 -0.00000000000E+00 -0.50000000000E+03  0.50000000000E+03  0.00000000000E+00 0. -1.
         23    2    1    2    0    0 -0.32219967834E+02 -0.25780104827E+02 -0.16161666711E+03  0.18030014956E+03  0.68450395981E+02 0.  0.
        -11    1    1    2    0    0 -0.69846693879E+02  0.18167748146E+03  0.44204934021E+03  0.48300402389E+03  0.00000000000E+00 0.  1.
         11    1    1    2    0    0  0.10206666171E+03 -0.15589737663E+03 -0.28043267310E+03  0.33669582655E+03  0.00000000000E+00 0. -1.
        -15    1    3    3    0    0  0.21370073410E+02 -0.93045566942E+01 -0.56702388322E+02  0.61331667051E+02  0.17770000000E+01 0. -1.
         15    1    3    3    0    0 -0.53590041245E+02 -0.16475548133E+02 -0.10491427879E+03  0.11896848251E+03  0.17770000000E+01 0.  1.
</event>
<event>
 7    1  0.3234965E-006  0.5221326E+03  0.7546771E-02  0.9351604E-01
        -11   -1    0    0    0    0  0.00000000000E+00  0.00000000000E+00  0.50000000000E+03  0.50000000000E+03  0.00000000000E+00 0. -1.
         11   -1    0    0    0    0 -0.00000000000E+00 -0.00000000000E+00 -0.50000000000E+03  0.50000000000E+03  0.00000000000E+00 0. -1.
         23    2    1    2    0    0 -0.21652272416E+02  0.13831352850E+02 -0.21369924923E+03  0.23555773943E+03  0.95707639521E+02 0.  0.
        -11    1    1    2    0    0  0.11538457368E+03  0.12390730856E+03  0.44686757528E+03  0.47786739876E+03  0.00000000000E+00 0. -1.
         11    1    1    2    0    0 -0.93732301268E+02 -0.13773866141E+03 -0.23316832605E+03  0.28657486181E+03  0.00000000000E+00 0. -1.
        -15    1    3    3    0    0 -0.39451874589E+02  0.46358130726E+02 -0.11540385933E+03  0.13048653253E+03  0.17770000000E+01 0.  1.
         15    1    3    3    0    0  0.17799602173E+02 -0.32526777876E+02 -0.98295389896E+02  0.10507120690E+03  0.17770000000E+01 0. -1.
</event>
<event>
 7    1  0.3234965E-006  0.5381628E+03  0.7546771E-02  0.9318246E-01
        -11   -1    0    0    0    0  0.00000000000E+00  0.00000000000E+00  0.50000000000E+03  0.50000000000E+03  0.00000000000E+00 0.  1.
         11   -1    0    0    0    0 -0.00000000000E+00 -0.00000000000E+00 -0.50000000000E+03  0.50000000000E+03  0.00000000000E+00 0. -1.
         23    2    1    2    0    0 -0.56937228064E+01  0.64094109056E+02 -0.11235033723E+03  0.15828848492E+03  0.91061368791E+02 0.  0.
        -11    1    1    2    0    0 -0.12697267151E+03  0.84050616014E+02  0.43601263040E+03  0.46183717827E+03  0.00000000000E+00 0.  1.
         11    1    1    2    0    0  0.13266639432E+03 -0.14814472507E+03 -0.32366229317E+03  0.37987433681E+03  0.00000000000E+00 0. -1.
        -15    1    3    3    0    0 -0.36483314076E+02 -0.35416961318E+01 -0.44114716292E+02  0.57383287985E+02  0.17770000000E+01 0.  1.
         15    1    3    3    0    0  0.30789591269E+02  0.67635805187E+02 -0.68235620942E+02  0.10090519693E+03  0.17770000000E+01 0. -1.
</event>
<event>
 7    1  0.3234965E-006  0.3878375E+03  0.7546771E-02  0.9693036E-01
        -11   -1    0    0    0    0  0.00000000000E+00  0.00000000000E+00  0.50000000000E+03  0.50000000000E+03  0.00000000000E+00 0. -1.
         11   -1    0    0    0    0 -0.00000000000E+00 -0.00000000000E+00 -0.50000000000E+03  0.50000000000E+03  0.00000000000E+00 0. -1.
         23    2    1    2    0    0 -0.11647133460E+03 -0.90396617683E+02 -0.37397277306E+03  0.41213788016E+03  0.90911368951E+02 0.  0.
        -11    1    1    2    0    0 -0.22873914076E+02 -0.63336083052E+02  0.37436652771E+03  0.38037477891E+03  0.00000000000E+00 0. -1.
         11    1    1    2    0    0  0.13934524867E+03  0.15373270074E+03 -0.39375465321E+00  0.20748734093E+03  0.00000000000E+00 0. -1.
        -15    1    3    3    0    0 -0.60439238564E+02 -0.21711886676E+02 -0.25957029371E+03  0.26740269761E+03  0.17770000000E+01 0. -1.
         15    1    3    3    0    0 -0.56032096031E+02 -0.68684731007E+02 -0.11440247934E+03  0.14473518255E+03  0.17770000000E+01 0.  1.
</event>
<event>
 7    1  0.3234965E-006  0.5121496E+03  0.7546771E-02  0.9373027E-01
        -11   -1    0    0    0    0  0.00000000000E+00  0.00000000000E+00  0.50000000000E+03  0.50000000000E+03  0.00000000000E+00 0. -1.
         11   -1    0    0    0    0 -0.00000000000E+00 -0.00000000000E+00 -0.50000000000E+03  0.50000000000E+03  0.00000000000E+00 0. -1.
         23    2    1    2    0    0  0.16491637090E+01  0.12865679972E+02 -0.22115469619E+03  0.23973305785E+03  0.91620379382E+02 0.  0.
        -11    1    1    2    0    0  0.80114692753E+02 -0.14609771272E+02  0.48100541784E+03  0.48785040884E+03  0.00000000000E+00 0. -1.
         11    1    1    2    0    0 -0.81763856462E+02  0.17440912999E+01 -0.25985072165E+03  0.27241653331E+03  0.00000000000E+00 0. -1.
        -15    1    3    3    0    0  0.32341722042E+02 -0.24146528971E+02 -0.13657527303E+03  0.14242543585E+03  0.17770000000E+01 0. -1.
         15    1    3    3    0    0 -0.30692558333E+02  0.37012208943E+02 -0.84579423164E+02  0.97307622001E+02  0.17770000000E+01 0.  1.
</event>
<event>
 7    1  0.3234965E-006  0.4712449E+03  0.7546771E-02  0.9466555E-01
        -11   -1    0    0    0    0  0.00000000000E+00  0.00000000000E+00  0.50000000000E+03  0.50000000000E+03  0.00000000000E+00 0.  1.
         11   -1    0    0    0    0 -0.00000000000E+00 -0.00000000000E+00 -0.50000000000E+03  0.50000000000E+03  0.00000000000E+00 0.  1.
         23    2    1    2    0    0 -0.58711877239E+02  0.11730349340E+03 -0.41994552596E+03  0.44903314033E+03  0.89829406411E+02 0.  0.
        -11    1    1    2    0    0  0.89524494731E+02 -0.91743484314E+02  0.46983093296E+03  0.48700370392E+03  0.00000000000E+00 0.  1.
         11    1    1    2    0    0 -0.30812617492E+02 -0.25560009082E+02 -0.49885407000E+02  0.63963155743E+02  0.00000000000E+00 0.  1.
        -15    1    3    3    0    0 -0.72601371870E+02  0.72230515491E+02 -0.20744576488E+03  0.23135494302E+03  0.17770000000E+01 0. -1.
         15    1    3    3    0    0  0.13889494631E+02  0.45072977905E+02 -0.21249976108E+03  0.21767819731E+03  0.17770000000E+01 0.  1.
</event>
<event>
 7    1  0.3234965E-006  0.5253476E+03  0.7546771E-02  0.9344813E-01
        -11   -1    0    0    0    0  0.00000000000E+00  0.00000000000E+00  0.50000000000E+03  0.50000000000E+03  0.00000000000E+00 0. -1.
         11   -1    0    0    0    0 -0.00000000000E+00 -0.00000000000E+00 -0.50000000000E+03  0.50000000000E+03  0.00000000000E+00 0.  1.
         23    2    1    2    0    0 -0.80273156416E+02  0.23366023118E+02 -0.26109705629E+03  0.28875123801E+03  0.90641348011E+02 0.  0.
        -11    1    1    2    0    0  0.37097431976E+02  0.89073895399E+02  0.46474130607E+03  0.47465235685E+03  0.00000000000E+00 0. -1.
         11    1    1    2    0    0  0.43175724440E+02 -0.11243991852E+03 -0.20364424978E+03  0.23659640514E+03  0.00000000000E+00 0.  1.
        -15    1    3    3    0    0 -0.30107178200E+02  0.97638017487E+01 -0.11388517011E+02  0.33684270105E+02  0.17770000000E+01 0. -1.
         15    1    3    3    0    0 -0.50165978216E+02  0.13602221369E+02 -0.24970853928E+03  0.25506696790E+03  0.17770000000E+01 0.  1.
</event>
<event>
 7    1  0.3234965E-006  0.4483728E+03  0.7546771E-02  0.9523371E-01
        -11   -1    0    0    0    0  0.00000000000E+00  0.00000000000E+00  0.50000000000E+03  0.50000000000E+03  0.00000000000E+00 0.  1.
         11   -1    0    0    0    0 -0.00000000000E+00 -0.00000000000E+00 -0.50000000000E+03  0.50000000000E+03  0.00000000000E+00 0. -1.
         23    2    1    2    0    0  0.23634138534E+02 -0.17074926188E+03 -0.37709437820E+03  0.42412143766E+03  0.89246517446E+02 0.  0.
        -11    1    1    2    0    0 -0.24400416452E+01  0.10563760133E+03  0.45791643903E+03  0.46994970130E+03  0.00000000000E+00 0.  1.
         11    1    1    2    0    0 -0.21194096889E+02  0.65111660550E+02 -0.80822060830E+02  0.10592886103E+03  0.00000000000E+00 0. -1.
        -15    1    3    3    0    0  0.47860639781E+02 -0.49873697907E+02 -0.10973499163E+03  0.12970332571E+03  0.17770000000E+01 0.  1.
         15    1    3    3    0    0 -0.24226501246E+02 -0.12087556398E+03 -0.26735938657E+03  0.29441811195E+03  0.17770000000E+01 0. -1.
</event>
<event>
 7    1  0.3234965E-006  0.5187016E+03  0.7546771E-02  0.9358909E-01
        -11   -1    0    0    0    0  0.00000000000E+00  0.00000000000E+00  0.50000000000E+03  0.50000000000E+03  0.00000000000E+00 0. -1.
         11   -1    0    0    0    0 -0.00000000000E+00 -0.00000000000E+00 -0.50000000000E+03  0.50000000000E+03  0.00000000000E+00 0. -1.
         23    2    1    2    0    0  0.31667402457E+02 -0.27480846960E+02 -0.30091727158E+03  0.31768597734E+03  0.92817856742E+02 0.  0.
        -11    1    1    2    0    0  0.68494137082E+02  0.48735450049E+02  0.47390041763E+03  0.48129844871E+03  0.00000000000E+00 0. -1.
         11    1    1    2    0    0 -0.10016153954E+03 -0.21254603089E+02 -0.17298314604E+03  0.20101557395E+03  0.00000000000E+00 0. -1.
        -15    1    3    3    0    0  0.44110455073E+02 -0.44449319656E+02 -0.28342274378E+03  0.29026381739E+03  0.17770000000E+01 0. -1.
         15    1    3    3    0    0 -0.12443052616E+02  0.16968472696E+02 -0.17494527804E+02  0.27422159947E+02  0.17770000000E+01 0.  1.
</event>
<event>
 7    1  0.3234965E-006  0.4588163E+03  0.7546771E-02  0.9496991E-01
        -11   -1    0    0    0    0  0.00000000000E+00  0.00000000000E+00  0.50000000000E+03  0.50000000000E+03  0.00000000000E+00 0. -1.
         11   -1    0    0    0    0 -0.00000000000E+00 -0.00000000000E+00 -0.50000000000E+03  0.50000000000E+03  0.00000000000E+00 0. -1.
         23    2    1    2    0    0 -0.10488848716E+03  0.18587969022E+03  0.37690712005E+03  0.44352916158E+03  0.95426862317E+02 0.  0.
        -11    1    1    2    0    0  0.73612806277E+02  0.97363508485E+01  0.47471937873E+02  0.88131870860E+02  0.00000000000E+00 0. -1.
         11    1    1    2    0    0  0.31275680884E+02 -0.19561604106E+03 -0.42437905792E+03  0.46833896756E+03  0.00000000000E+00 0. -1.
        -15    1    3    3    0    0 -0.77801376457E+02  0.12402283374E+03  0.33076588798E+03  0.36172357934E+03  0.17770000000E+01 0.  1.
         15    1    3    3    0    0 -0.27087110704E+02  0.61856856480E+02  0.46141232065E+02  0.81805582238E+02  0.17770000000E+01 0. -1.
</event>
<event>
 7    1  0.3234965E-006  0.5267451E+03  0.7546771E-02  0.9341877E-01
        -11   -1    0    0    0    0  0.00000000000E+00  0.00000000000E+00  0.50000000000E+03  0.50000000000E+03  0.00000000000E+00 0. -1.
         11   -1    0    0    0    0 -0.00000000000E+00 -0.00000000000E+00 -0.50000000000E+03  0.50000000000E+03  0.00000000000E+00 0. -1.
         23    2    1    2    0    0 -0.13069696365E+03 -0.23411713380E+02  0.23372656784E+03  0.28363981636E+03  0.90518684697E+02 0.  0.
        -11    1    1    2    0    0 -0.13322648735E+03 -0.17338037628E+03  0.10625502144E+03  0.24310528870E+03  0.00000000000E+00 0. -1.
         11    1    1    2    0    0  0.26392345100E+03  0.19679208966E+03 -0.33998158928E+03  0.47325489495E+03  0.00000000000E+00 0. -1.
        -15    1    3    3    0    0 -0.12833871581E+03  0.78690296535E+01  0.19764607024E+03  0.23579625615E+03  0.17770000000E+01 0.  1.
         15    1    3    3    0    0 -0.23582478422E+01 -0.31280743033E+02  0.36080497596E+02  0.47843560208E+02  0.17770000000E+01 0. -1.
</event>
<event>
 7    1  0.3234965E-006  0.3770580E+03  0.7546771E-02  0.9726727E-01
        -11   -1    0    0    0    0  0.00000000000E+00  0.00000000000E+00  0.50000000000E+03  0.50000000000E+03  0.00000000000E+00 0.  1.
         11   -1    0    0    0    0 -0.00000000000E+00 -0.00000000000E+00 -0.50000000000E+03  0.50000000000E+03  0.00000000000E+00 0. -1.
         23    2    1    2    0    0  0.24365271966E+02  0.12828875349E+02 -0.19841233855E+03  0.21973301933E+03  0.90315542260E+02 0.  0.
        -11    1    1    2    0    0  0.25272617785E+03 -0.68477379753E+02  0.36726299907E+03  0.45104521170E+03  0.00000000000E+00 0.  1.
         11    1    1    2    0    0 -0.27709144982E+03  0.55648504404E+02 -0.16885066052E+03  0.32922176897E+03  0.00000000000E+00 0. -1.
        -15    1    3    3    0    0  0.40256942677E+02 -0.16788183943E+02 -0.17052203149E+03  0.17602098030E+03  0.17770000000E+01 0.  1.
         15    1    3    3    0    0 -0.15891670711E+02  0.29617059292E+02 -0.27890307063E+02  0.43712039030E+02  0.17770000000E+01 0. -1.
</event>
<event>
 7    1  0.3234965E-006  0.5211059E+03  0.7546771E-02  0.9353784E-01
        -11   -1    0    0    0    0  0.00000000000E+00  0.00000000000E+00  0.50000000000E+03  0.50000000000E+03  0.00000000000E+00 0.  1.
         11   -1    0    0    0    0 -0.00000000000E+00 -0.00000000000E+00 -0.50000000000E+03  0.50000000000E+03  0.00000000000E+00 0.  1.
         23    2    1    2    0    0 -0.43067024657E+02  0.54865443967E+01 -0.28281801072E+03  0.29951164525E+03  0.88523034697E+02 0.  0.
        -11    1    1    2    0    0  0.67256371634E+02 -0.14860331634E+03  0.45025900841E+03  0.47889407995E+03  0.00000000000E+00 0.  1.
         11    1    1    2    0    0 -0.24189346977E+02  0.14311677194E+03 -0.16744099769E+03  0.22159427481E+03  0.00000000000E+00 0.  1.
        -15    1    3    3    0    0 -0.70277278924E+02  0.70277951401E+01 -0.21839898027E+03  0.22954206183E+03  0.17770000000E+01 0.  1.
         15    1    3    3    0    0  0.27210254267E+02 -0.15412507435E+01 -0.64419030450E+02  0.69969583422E+02  0.17770000000E+01 0. -1.
</event>
<event>
 7    1  0.3234965E-006  0.3728574E+03  0.7546771E-02  0.9740183E-01
        -11   -1    0    0    0    0  0.00000000000E+00  0.00000000000E+00  0.50000000000E+03  0.50000000000E+03  0.00000000000E+00 0. -1.
         11   -1    0    0    0    0 -0.00000000000E+00 -0.00000000000E+00 -0.50000000000E+03  0.50000000000E+03  0.00000000000E+00 0. -1.
         23    2    1    2    0    0 -0.99117913862E+02  0.52412136120E+01 -0.44228796152E+03  0.46255562991E+03  0.92126210656E+02 0.  0.
        -11    1    1    2    0    0  0.27995697811E+02  0.13536714306E+03  0.27404638009E+03  0.30693556483E+03  0.00000000000E+00 0. -1.
         11    1    1    2    0    0  0.71122216051E+02 -0.14060835667E+03  0.16824158142E+03  0.23050880526E+03  0.00000000000E+00 0. -1.
        -15    1    3    3    0    0  0.59115681410E+01  0.27348824446E+02 -0.87152402275E+02  0.91551099326E+02  0.17770000000E+01 0.  1.
         15    1    3    3    0    0 -0.10502948200E+03 -0.22107610834E+02 -0.35513555924E+03  0.37100453058E+03  0.17770000000E+01 0. -1.
</event>
<event>
 7    1  0.3234965E-006  0.3819667E+03  0.7546771E-02  0.9711237E-01
        -11   -1    0    0    0    0  0.00000000000E+00  0.00000000000E+00  0.50000000000E+03  0.50000000000E+03  0.00000000000E+00 0.  1.
         11   -1    0    0    0    0 -0.00000000000E+00 -0.00000000000E+00 -0.50000000000E+03  0.50000000000E+03  0.00000000000E+00 0. -1.
         23    2    1    2    0    0  0.12074932708E+03 -0.46670162786E+02 -0.14183601877E+03  0.21230064396E+03  0.90529570424E+02 0.  0.
        -11    1    1    2    0    0  0.12831968830E+03  0.12655928388E+03  0.38843756379E+03  0.42821365660E+03  0.00000000000E+00 0.  1.
         11    1    1    2    0    0 -0.24906901538E+03 -0.79889121095E+02 -0.24660154502E+03  0.35948569943E+03  0.00000000000E+00 0. -1.
        -15    1    3    3    0    0 -0.13225043030E+02 -0.13913462598E+02 -0.11046922506E+02  0.22218875545E+02  0.17770000000E+01 0.  1.
         15    1    3    3    0    0  0.13397437011E+03 -0.32756700187E+02 -0.13078909627E+03  0.19008176842E+03  0.17770000000E+01 0. -1.
</event>
<event>
 7    1  0.3234965E-006  0.4840558E+03  0.7546771E-02  0.9436210E-01
        -11   -1    0    0    0    0  0.00000000000E+00  0.00000000000E+00  0.50000000000E+03  0.50000000000E+03  0.00000000000E+00 0. -1.
         11   -1    0    0    0    0 -0.00000000000E+00 -0.00000000000E+00 -0.50000000000E+03  0.50000000000E+03  0.00000000000E+00 0.  1.
         23    2    1    2    0    0 -0.84590451382E+01  0.68480312201E+02 -0.45818852444E+03  0.47241454914E+03  0.92074283584E+02 0.  0.
        -11    1    1    2    0    0  0.21381009434E+02 -0.10146647988E+03  0.47653728760E+03  0.48768881531E+03  0.00000000000E+00 0. -1.
         11    1    1    2    0    0 -0.12921964296E+02  0.32986167681E+02 -0.18348763154E+02  0.39896635557E+02  0.00000000000E+00 0.  1.
        -15    1    3    3    0    0 -0.42904242925E+02  0.65296441811E+01 -0.20036664042E+03  0.20502038591E+03  0.17770000000E+01 0.  1.
         15    1    3    3    0    0  0.34445197787E+02  0.61950668020E+02 -0.25782188402E+03  0.26739416323E+03  0.17770000000E+01 0. -1.
</event>
<event>
 7    1  0.3234965E-006  0.3772383E+03  0.7546771E-02  0.9726153E-01
        -11   -1    0    0    0    0  0.00000000000E+00  0.00000000000E+00  0.50000000000E+03  0.50000000000E+03  0.00000000000E+00 0. -1.
         11   -1    0    0    0    0 -0.00000000000E+00 -0.00000000000E+00 -0.50000000000E+03  0.50000000000E+03  0.00000000000E+00 0.  1.
         23    2    1    2    0    0 -0.15438852969E+03 -0.40421145674E+02  0.12252895444E+03  0.21915555043E+03  0.86868426305E+02 0.  0.
        -11    1    1    2    0    0  0.50483185479E+02 -0.25019202000E+02  0.31829180840E+03  0.32324013949E+03  0.00000000000E+00 0. -1.
         11    1    1    2    0    0  0.10390534421E+03  0.65440347674E+02 -0.44082076284E+03  0.45760431008E+03  0.00000000000E+00 0.  1.
        -15    1    3    3    0    0 -0.53707227408E+02 -0.37471193261E+02  0.70170620749E+01  0.65885912678E+02  0.17770000000E+01 0. -1.
         15    1    3    3    0    0 -0.10068130228E+03 -0.29499524135E+01  0.11551189237E+03  0.15326963775E+03  0.17770000000E+01 0.  1.
</event>
<event>
 7    1  0.3234965E-006  0.5307345E+03  0.7546771E-02  0.9333549E-01
        -11   -1    0    0    0    0  0.00000000000E+00  0.00000000000E+00  0.50000000000E+03  0.50000000000E+03  0.00000000000E+00 0. -1.
         11   -1    0    0    0    0 -0.00000000000E+00 -0.00000000000E+00 -0.50000000000E+03  0.50000000000E+03  0.00000000000E+00 0.  1.
         23    2    1    2    0    0 -0.41950632478E+02  0.54642227297E+02 -0.35564668107E+03  0.37338350067E+03  0.90471256475E+02 0.  0.
        -11    1    1    2    0    0 -0.76785561971E+02 -0.76138072667E+02  0.45663669907E+03  0.46926549369E+03  0.00000000000E+00 0. -1.
         11    1    1    2    0    0  0.11873619445E+03  0.21495845370E+02 -0.10099001800E+03  0.15735100564E+03  0.00000000000E+00 0.  1.
        -15    1    3    3    0    0  0.14744767899E+02 -0.75101694969E+01 -0.14693970407E+02  0.22200930647E+02  0.17770000000E+01 0. -1.
         15    1    3    3    0    0 -0.56695400377E+02  0.62152396794E+02 -0.34095271066E+03  0.35118257002E+03  0.17770000000E+01 0.  1.
</event>
<event>
 7    1  0.3234965E-006  0.5371442E+03  0.7546771E-02  0.9320329E-01
        -11   -1    0    0    0    0  0.00000000000E+00  0.00000000000E+00  0.50000000000E+03  0.50000000000E+03  0.00000000000E+00 0.  1.
         11   -1    0    0    0    0 -0.00000000000E+00 -0.00000000000E+00 -0.50000000000E+03  0.50000000000E+03  0.00000000000E+00 0. -1.
         23    2    1    2    0    0  0.53652293661E+02  0.15388172288E+02 -0.31367808372E+03  0.33224298275E+03  0.94213029455E+02 0.  0.
        -11    1    1    2    0    0  0.95379712331E+02  0.43869299873E+01  0.45290061153E+03  0.46285580757E+03  0.00000000000E+00 0.  1.
         11    1    1    2    0    0 -0.14903200599E+03 -0.19775102275E+02 -0.13922252781E+03  0.20490120968E+03  0.00000000000E+00 0. -1.
        -15    1    3    3    0    0  0.52831287020E+02 -0.41008204507E+01 -0.30700613081E+03  0.31155077227E+03  0.17770000000E+01 0.  1.
         15    1    3    3    0    0  0.82100664108E+00  0.19488992739E+02 -0.66719529040E+01  0.20692210477E+02  0.17770000000E+01 0. -1.
</event>
<event>
 7    1  0.3234965E-006  0.5355002E+03  0.7546771E-02  0.9323701E-01
        -11   -1    0    0    0    0  0.00000000000E+00  0.00000000000E+00  0.50000000000E+03  0.50000000000E+03  0.00000000000E+00 0. -1.
         11   -1    0    0    0    0 -0.00000000000E+00 -0.00000000000E+00 -0.50000000000E+03  0.50000000000E+03  0.00000000000E+00 0.  1.
         23    2    1    2    0    0 -0.98445410031E+01 -0.15354493126E+03  0.11400411194E+03  0.21142317565E+03  0.89609490348E+02 0.  0.
        -11    1    1    2    0    0 -0.63022687255E+02 -0.11146953713E+01  0.31788804827E+03  0.32407701691E+03  0.00000000000E+00 0. -1.
         11    1    1    2    0    0  0.72867228258E+02  0.15465962663E+03 -0.43189216021E+03  0.46449980744E+03  0.00000000000E+00 0.  1.
        -15    1    3    3    0    0  0.26168949539E+02 -0.94007292471E+01  0.29109326992E+02  0.40295139623E+02  0.17770000000E+01 0.  1.
         15    1    3    3    0    0 -0.36013490542E+02 -0.14414420201E+03  0.84894784949E+02  0.17112803603E+03  0.17770000000E+01 0. -1.
</event>
<event>
 6    1  0.3234965E-006  0.4378877E+03  0.7546771E-02  0.9550637E-01
        -11   -1    0    0    0    0  0.00000000000E+00  0.00000000000E+00  0.50000000000E+03  0.50000000000E+03  0.00000000000E+00 0. -1.
         11   -1    0    0    0    0 -0.00000000000E+00 -0.00000000000E+00 -0.50000000000E+03  0.50000000000E+03  0.00000000000E+00 0. -1.
        -11    1    1    2    0    0 -0.39544463656E+02 -0.62344094090E+02  0.40865772251E+03  0.41527302446E+03  0.00000000000E+00 0. -1.
         11    1    1    2    0    0 -0.72783682995E+02 -0.53067313020E+02 -0.16932940981E+03  0.19179690625E+03  0.00000000000E+00 0. -1.
        -15    1    1    2    0    0  0.11051466678E+03  0.10106229410E+03 -0.29744080633E+03  0.33301842270E+03  0.17770000000E+01 0.  1.
         15    1    1    2    0    0  0.18134798699E+01  0.14349113009E+02  0.58112493619E+02  0.59911646589E+02  0.17770000000E+01 0. -1.
</event>
<event>
 7    1  0.3234965E-006  0.5250587E+03  0.7546771E-02  0.9345421E-01
        -11   -1    0    0    0    0  0.00000000000E+00  0.00000000000E+00  0.50000000000E+03  0.50000000000E+03  0.00000000000E+00 0. -1.
         11   -1    0    0    0    0 -0.00000000000E+00 -0.00000000000E+00 -0.50000000000E+03  0.50000000000E+03  0.00000000000E+00 0.  1.
         23    2    1    2    0    0 -0.52385161747E+02 -0.59230069984E+01 -0.16553382646E+03  0.19574694571E+03  0.90200509246E+02 0.  0.
        -11    1    1    2    0    0 -0.59249067057E+02  0.10212677745E+03  0.46003144668E+03  0.47494132538E+03  0.00000000000E+00 0. -1.
         11    1    1    2    0    0  0.11163422880E+03 -0.96203770450E+02 -0.29449762021E+03  0.32931172891E+03  0.00000000000E+00 0.  1.
        -15    1    3    3    0    0 -0.39392741297E+02 -0.90009461899E+01 -0.17478652003E+03  0.17940538011E+03  0.17770000000E+01 0.  1.
         15    1    3    3    0    0 -0.12992420450E+02  0.30779391915E+01  0.92526935711E+01  0.16341565596E+02  0.17770000000E+01 0. -1.
</event>
<event>
 7    1  0.3234965E-006  0.3853074E+03  0.7546771E-02  0.9700838E-01
        -11   -1    0    0    0    0  0.00000000000E+00  0.00000000000E+00  0.50000000000E+03  0.50000000000E+03  0.00000000000E+00 0. -1.
         11   -1    0    0    0    0 -0.00000000000E+00 -0.00000000000E+00 -0.50000000000E+03  0.50000000000E+03  0.00000000000E+00 0. -1.
         23    2    1    2    0    0 -0.10508349653E+03 -0.14420677523E+02 -0.31978367201E+03  0.34873573488E+03  0.90025100466E+02 0.  0.
        -11    1    1    2    0    0 -0.72768196747E+02  0.25514347922E+02  0.43321708652E+03  0.44002640428E+03  0.00000000000E+00 0. -1.
         11    1    1    2    0    0  0.17785169328E+03 -0.11093670399E+02 -0.11343341451E+03  0.21123786084E+03  0.00000000000E+00 0. -1.
        -15    1    3    3    0    0 -0.36580015574E+02 -0.48389425193E+02 -0.11306779306E+03  0.12832426726E+03  0.17770000000E+01 0. -1.
         15    1    3    3    0    0 -0.68503480958E+02  0.33968747669E+02 -0.20671587895E+03  0.22041146762E+03  0.17770000000E+01 0.  1.
</event>
<event>
 7    1  0.3234965E-006  0.3996863E+03  0.7546771E-02  0.9657328E-01
        -11   -1    0    0    0    0  0.00000000000E+00  0.00000000000E+00  0.50000000000E+03  0.50000000000E+03  0.00000000000E+00 0. -1.
         11   -1    0    0    0    0 -0.00000000000E+00 -0.00000000000E+00 -0.50000000000E+03  0.50000000000E+03  0.00000000000E+00 0.  1.
         23    2    1    2    0    0 -0.10926414110E+03 -0.15257287945E+03 -0.29236882682E+03  0.35866459894E+03  0.89127030496E+02 0.  0.
        -11    1    1    2    0    0  0.10053329659E+03  0.35805679634E+02  0.44008462729E+03  0.45283934193E+03  0.00000000000E+00 0. -1.
         11    1    1    2    0    0  0.87308445109E+01  0.11676719982E+03 -0.14771580048E+03  0.18849605913E+03  0.00000000000E+00 0.  1.
        -15    1    3    3    0    0 -0.90663844791E+02 -0.16135204960E+03 -0.27601226208E+03  0.33232565837E+03  0.17770000000E+01 0.  1.
         15    1    3    3    0    0 -0.18600296311E+02  0.87791701535E+01 -0.16356564738E+02  0.26338940573E+02  0.17770000000E+01 0. -1.
</event>
<event>
 7    1  0.3234965E-006  0.5283826E+03  0.7546771E-02  0.9338449E-01
        -11   -1    0    0    0    0  0.00000000000E+00  0.00000000000E+00  0.50000000000E+03  0.50000000000E+03  0.00000000000E+00 0.  1.
         11   -1    0    0    0    0 -0.00000000000E+00 -0.00000000000E+00 -0.50000000000E+03  0.50000000000E+03  0.00000000000E+00 0. -1.
         23    2    1    2    0    0  0.53712844571E+02 -0.68763795219E+02 -0.24166472218E+03  0.27241749977E+03  0.90531359367E+02 0.  0.
        -11    1    1    2    0    0  0.88837002468E+02  0.14878471058E+03  0.43862748026E+03  0.47161739742E+03  0.00000000000E+00 0.  1.
         11    1    1    2    0    0 -0.14254984704E+03 -0.80020915357E+02 -0.19696275808E+03  0.25596510281E+03  0.00000000000E+00 0. -1.
        -15    1    3    3    0    0  0.38844299301E+02 -0.60702538667E+02 -0.24473921726E+03  0.25513549338E+03  0.17770000000E+01 0. -1.
         15    1    3    3    0    0  0.14868545269E+02 -0.80612565526E+01  0.30744950835E+01  0.17282006384E+02  0.17770000000E+01 0.  1.
</event>
<event>
 7    1  0.3234965E-006  0.3712663E+03  0.7546771E-02  0.9745330E-01
        -11   -1    0    0    0    0  0.00000000000E+00  0.00000000000E+00  0.50000000000E+03  0.50000000000E+03  0.00000000000E+00 0. -1.
         11   -1    0    0    0    0 -0.00000000000E+00 -0.00000000000E+00 -0.50000000000E+03  0.50000000000E+03  0.00000000000E+00 0.  1.
         23    2    1    2    0    0  0.12137469581E+03  0.22088561204E+02 -0.16927756250E+03  0.22848896007E+03  0.91283023558E+02 0.  0.
        -11    1    1    2    0    0  0.31428970499E+02  0.76570480386E+02  0.43870024144E+03  0.44644005252E+03  0.00000000000E+00 0. -1.
         11    1    1    2    0    0 -0.15280366631E+03 -0.98659041590E+02 -0.26942267895E+03  0.32507098741E+03  0.00000000000E+00 0.  1.
        -15    1    3    3    0    0  0.52644844955E+02 -0.25097054535E+02 -0.11510781243E+03  0.12905157132E+03  0.17770000000E+01 0. -1.
         15    1    3    3    0    0  0.68729850855E+02  0.47185615740E+02 -0.54169750061E+02  0.99437388753E+02  0.17770000000E+01 0.  1.
</event>
<event>
 7    1  0.3234965E-006  0.3570559E+03  0.7546771E-02  0.9792557E-01
        -11   -1    0    0    0    0  0.00000000000E+00  0.00000000000E+00  0.50000000000E+03  0.50000000000E+03  0.00000000000E+00 0.  1.
         11   -1    0    0    0    0 -0.00000000000E+00 -0.00000000000E+00 -0.50000000000E+03  0.50000000000E+03  0.00000000000E+00 0. -1.
         23    2    1    2    0    0  0.41800777745E+02  0.49278932846E+02 -0.32665723998E+03  0.34451800986E+03  0.88385453814E+02 0.  0.
        -11    1    1    2    0    0 -0.18427910706E+03 -0.24698502762E+03  0.25906584357E+03  0.40258602121E+03  0.00000000000E+00 0.  1.
         11    1    1    2    0    0  0.14247832931E+03  0.19770609477E+03  0.67591396403E+02  0.25289596893E+03  0.00000000000E+00 0. -1.
        -15    1    3    3    0    0 -0.19280498413E+02 -0.19045903380E+01 -0.20954403382E+02  0.28593877553E+02  0.17770000000E+01 0.  1.
         15    1    3    3    0    0  0.61081276159E+02  0.51183523184E+02 -0.30570283659E+03  0.31592413231E+03  0.17770000000E+01 0. -1.
</event>
<event>
 7    1  0.3234965E-006  0.5319430E+03  0.7546771E-02  0.9331041E-01
        -11   -1    0    0    0    0  0.00000000000E+00  0.00000000000E+00  0.50000000000E+03  0.50000000000E+03  0.00000000000E+00 0.  1.
         11   -1    0    0    0    0 -0.00000000000E+00 -0.00000000000E+00 -0.50000000000E+03  0.50000000000E+03  0.00000000000E+00 0. -1.
         23    2    1    2    0    0 -0.23949693903E+02 -0.19930709402E+02 -0.64439451546E+02  0.11124567598E+03  0.85160651082E+02 0.  0.
        -11    1    1    2    0    0  0.22004153775E+02  0.40548575986E+03  0.23275401452E+03  0.46805695754E+03  0.00000000000E+00 0.  1.
         11    1    1    2    0    0  0.19455401284E+01 -0.38555505045E+03 -0.16831456297E+03  0.42069736648E+03  0.00000000000E+00 0. -1.
        -15    1    3    3    0    0 -0.10639358788E+02 -0.48477360826E+02 -0.62234707627E+02  0.79621398069E+02  0.17770000000E+01 0. -1.
         15    1    3    3    0    0 -0.13310335115E+02  0.28546651424E+02 -0.22047439190E+01  0.31624277907E+02  0.17770000000E+01 0.  1.
</event>
<event>
 7    1  0.3234965E-006  0.5134500E+03  0.7546771E-02  0.9370207E-01
        -11   -1    0    0    0    0  0.00000000000E+00  0.00000000000E+00  0.50000000000E+03  0.50000000000E+03  0.00000000000E+00 0.  1.
         11   -1    0    0    0    0 -0.00000000000E+00 -0.00000000000E+00 -0.50000000000E+03  0.50000000000E+03  0.00000000000E+00 0. -1.
         23    2    1    2    0    0  0.88633396754E+01  0.50548759616E+02 -0.22032100211E+03  0.24398084405E+03  0.91386937815E+02 0.  0.
        -11    1    1    2    0    0  0.82664459087E+02 -0.10294554838E+03  0.46829448972E+03  0.48655002603E+03  0.00000000000E+00 0.  1.
         11    1    1    2    0    0 -0.91527798762E+02  0.52396788769E+02 -0.24797348761E+03  0.26946912991E+03  0.00000000000E+00 0. -1.
        -15    1    3    3    0    0 -0.15426852413E+02  0.71088825786E+02 -0.15975810940E+03  0.17554891106E+03  0.17770000000E+01 0. -1.
         15    1    3    3    0    0  0.24290192088E+02 -0.20540066170E+02 -0.60562892712E+02  0.68431932989E+02  0.17770000000E+01 0.  1.
</event>
<event>
 7    1  0.3234965E-006  0.3874665E+03  0.7546771E-02  0.9694176E-01
        -11   -1    0    0    0    0  0.00000000000E+00  0.00000000000E+00  0.50000000000E+03  0.50000000000E+03  0.00000000000E+00 0.  1.
         11   -1    0    0    0    0 -0.00000000000E+00 -0.00000000000E+00 -0.50000000000E+03  0.50000000000E+03  0.00000000000E+00 0. -1.
         23    2    1    2    0    0  0.12612026128E+03  0.27648776252E+02 -0.40128334858E+03  0.43013848867E+03  0.85557106413E+02 0.  0.
        -11    1    1    2    0    0  0.74667670433E+02 -0.41763706736E+02  0.35252328215E+03  0.36275629928E+03  0.00000000000E+00 0.  1.
         11    1    1    2    0    0 -0.20078793171E+03  0.14114930485E+02  0.48760066428E+02  0.20710521206E+03  0.00000000000E+00 0. -1.
        -15    1    3    3    0    0 -0.54575998015E+01 -0.93637581976E+01 -0.74883185819E+01  0.13292780272E+02  0.17770000000E+01 0.  1.
         15    1    3    3    0    0  0.13157786108E+03  0.37012534449E+02 -0.39379502999E+03  0.41684570840E+03  0.17770000000E+01 0. -1.
</event>
<event>
 7    1  0.3234965E-006  0.5144562E+03  0.7546771E-02  0.9368031E-01
        -11   -1    0    0    0    0  0.00000000000E+00  0.00000000000E+00  0.50000000000E+03  0.50000000000E+03  0.00000000000E+00 0.  1.
         11   -1    0    0    0    0 -0.00000000000E+00 -0.00000000000E+00 -0.50000000000E+03  0.50000000000E+03  0.00000000000E+00 0. -1.
         23    2    1    2    0    0 -0.16798450351E+02  0.55812912568E+02  0.14770267360E+03  0.18272359089E+03  0.90413282961E+02 0.  0.
        -11    1    1    2    0    0 -0.82627530964E+02  0.28530899445E+02  0.32000811981E+03  0.33173259990E+03  0.00000000000E+00 0.  1.
         11    1    1    2    0    0  0.99425981315E+02 -0.84343812013E+02 -0.46771079341E+03  0.48554380920E+03  0.00000000000E+00 0. -1.
        -15    1    3    3    0    0 -0.36107171058E+02 -0.56962749217E+01  0.25686597235E+02  0.44711680312E+02  0.17770000000E+01 0.  1.
         15    1    3    3    0    0  0.19308720707E+02  0.61509187490E+02  0.12201607637E+03  0.13801191058E+03  0.17770000000E+01 0. -1.
</event>
<event>
 7    1  0.3234965E-006  0.5113417E+03  0.7546771E-02  0.9374783E-01
        -11   -1    0    0    0    0  0.00000000000E+00  0.00000000000E+00  0.50000000000E+03  0.50000000000E+03  0.00000000000E+00 0. -1.
         11   -1    0    0    0    0 -0.00000000000E+00 -0.00000000000E+00 -0.50000000000E+03  0.50000000000E+03  0.00000000000E+00 0.  1.
         23    2    1    2    0    0  0.36483440160E+02 -0.22119063649E+02 -0.47730753852E+03  0.48865830325E+03  0.95625083682E+02 0.  0.
        -11    1    1    2    0    0 -0.92175691286E+02 -0.18087024587E+02  0.38492962435E+03  0.39622508026E+03  0.00000000000E+00 0. -1.
         11    1    1    2    0    0  0.55692251126E+02  0.40206088236E+02  0.92377914165E+02  0.11511661649E+03  0.00000000000E+00 0.  1.
        -15    1    3    3    0    0  0.25552556346E+02 -0.59489278888E+02 -0.32897815405E+03  0.33529344016E+03  0.17770000000E+01 0. -1.
         15    1    3    3    0    0  0.10930883813E+02  0.37370215239E+02 -0.14832938446E+03  0.15336486309E+03  0.17770000000E+01 0.  1.
</event>
<event>
 7    1  0.3234965E-006  0.5135195E+03  0.7546771E-02  0.9370057E-01
        -11   -1    0    0    0    0  0.00000000000E+00  0.00000000000E+00  0.50000000000E+03  0.50000000000E+03  0.00000000000E+00 0. -1.
         11   -1    0    0    0    0 -0.00000000000E+00 -0.00000000000E+00 -0.50000000000E+03  0.50000000000E+03  0.00000000000E+00 0. -1.
         23    2    1    2    0    0  0.36425892424E+02  0.20563506792E+02 -0.31715642154E+03  0.33334078264E+03  0.93691932423E+02 0.  0.
        -11    1    1    2    0    0 -0.96418058274E+02  0.42449938532E+02  0.47493668208E+03  0.48648051475E+03  0.00000000000E+00 0. -1.
         11    1    1    2    0    0  0.59992165850E+02 -0.63013445323E+02 -0.15778026055E+03  0.18017870261E+03  0.00000000000E+00 0. -1.
        -15    1    3    3    0    0 -0.24327294221E+02 -0.81969234708E+01 -0.35971624793E+02  0.44228071604E+02  0.17770000000E+01 0.  1.
         15    1    3    3    0    0  0.60753186645E+02  0.28760430262E+02 -0.28118479674E+03  0.28911271104E+03  0.17770000000E+01 0. -1.
</event>
<event>
 7    1  0.3234965E-006  0.5205295E+03  0.7546771E-02  0.9355010E-01
        -11   -1    0    0    0    0  0.00000000000E+00  0.00000000000E+00  0.50000000000E+03  0.50000000000E+03  0.00000000000E+00 0. -1.
         11   -1    0    0    0    0 -0.00000000000E+00 -0.00000000000E+00 -0.50000000000E+03  0.50000000000E+03  0.00000000000E+00 0. -1.
         23    2    1    2    0    0  0.10021563286E+03 -0.22616446247E+02 -0.26566570333E+03  0.29921283369E+03  0.91626291058E+02 0.  0.
        -11    1    1    2    0    0 -0.19602990970E+03  0.16523230343E+03  0.40516979108E+03  0.47947054049E+03  0.00000000000E+00 0. -1.
         11    1    1    2    0    0  0.95814276838E+02 -0.14261585718E+03 -0.13950408775E+03  0.22131662582E+03  0.00000000000E+00 0. -1.
        -15    1    3    3    0    0  0.27130154340E+02  0.35151743113E+02 -0.82293952826E+02  0.93526160614E+02  0.17770000000E+01 0. -1.
         15    1    3    3    0    0  0.73085478519E+02 -0.57768189360E+02 -0.18337175050E+03  0.20568667308E+03  0.17770000000E+01 0.  1.
</event>
<event>
 7    1  0.3234965E-006  0.5328084E+03  0.7546771E-02  0.9329250E-01
        -11   -1    0    0    0    0  0.00000000000E+00  0.00000000000E+00  0.50000000000E+03  0.50000000000E+03  0.00000000000E+00 0.  1.
         11   -1    0    0    0    0 -0.00000000000E+00 -0.00000000000E+00 -0.50000000000E+03  0.50000000000E+03  0.00000000000E+00 0. -1.
         23    2    1    2    0    0  0.81570205594E+00 -0.17101635412E+02  0.23456903056E+03  0.25229101612E+03  0.91296196048E+02 0.  0.
        -11    1    1    2    0    0 -0.21000584455E+03 -0.60246080979E+02  0.17594871425E+03  0.28051737035E+03  0.00000000000E+00 0.  1.
         11    1    1    2    0    0  0.20919014250E+03  0.77347716391E+02 -0.41051774481E+03  0.46719161353E+03  0.00000000000E+00 0. -1.
        -15    1    3    3    0    0  0.42445458982E+02  0.88187369934E+01  0.98076258021E+02  0.10724503358E+03  0.17770000000E+01 0. -1.
         15    1    3    3    0    0 -0.41629756926E+02 -0.25920372405E+02  0.13649277254E+03  0.14504598255E+03  0.17770000000E+01 0.  1.
</event>
<event>
 7    1  0.3234965E-006  0.5223877E+03  0.7546771E-02  0.9351063E-01
        -11   -1    0    0    0    0  0.00000000000E+00  0.00000000000E+00  0.50000000000E+03  0.50000000000E+03  0.00000000000E+00 0.  1.
         11   -1    0    0    0    0 -0.00000000000E+00 -0.00000000000E+00 -0.50000000000E+03  0.50000000000E+03  0.00000000000E+00 0. -1.
         23    2    1    2    0    0  0.45827840372E+02 -0.24494796597E+01  0.71694213379E+02  0.12341620409E+03  0.89360552240E+02 0.  0.
        -11    1    1    2    0    0  0.80188556800E+02  0.83451369759E+02  0.38181660879E+03  0.39897150086E+03  0.00000000000E+00 0.  1.
         11    1    1    2    0    0 -0.12601639717E+03 -0.81001890099E+02 -0.45351082217E+03  0.47761229504E+03  0.00000000000E+00 0. -1.
        -15    1    3    3    0    0 -0.55400198926E+01  0.34365694090E+02  0.13158337660E+02  0.37255769080E+02  0.17770000000E+01 0. -1.
         15    1    3    3    0    0  0.51367860264E+02 -0.36815173750E+02  0.58535875718E+02  0.86160435012E+02  0.17770000000E+01 0.  1.
</event>
<event>
 7    1  0.3234965E-006  0.5146922E+03  0.7546771E-02  0.9367522E-01
        -11   -1    0    0    0    0  0.00000000000E+00  0.00000000000E+00  0.50000000000E+03  0.50000000000E+03  0.00000000000E+00 0. -1.
         11   -1    0    0    0    0 -0.00000000000E+00 -0.00000000000E+00 -0.50000000000E+03  0.50000000000E+03  0.00000000000E+00 0.  1.
         23    2    1    2    0    0  0.24302445474E+02 -0.11242671774E+02 -0.35861391810E+03  0.37061449405E+03  0.89633444756E+02 0.  0.
        -11    1    1    2    0    0 -0.84540446105E+02 -0.47624856507E+02  0.47550864158E+03  0.48530782211E+03  0.00000000000E+00 0. -1.
         11    1    1    2    0    0  0.60238000631E+02  0.58867528281E+02 -0.11689472348E+03  0.14407768385E+03  0.00000000000E+00 0.  1.
        -15    1    3    3    0    0  0.39540018971E+02  0.24941362407E+02 -0.26479863593E+03  0.26889953510E+03  0.17770000000E+01 0.  1.
         15    1    3    3    0    0 -0.15237573497E+02 -0.36184034180E+02 -0.93815282168E+02  0.10171495894E+03  0.17770000000E+01 0. -1.
</event>
<event>
 7    1  0.3234965E-006  0.5201563E+03  0.7546771E-02  0.9355805E-01
        -11   -1    0    0    0    0  0.00000000000E+00  0.00000000000E+00  0.50000000000E+03  0.50000000000E+03  0.00000000000E+00 0. -1.
         11   -1    0    0    0    0 -0.00000000000E+00 -0.00000000000E+00 -0.50000000000E+03  0.50000000000E+03  0.00000000000E+00 0. -1.
         23    2    1    2    0    0 -0.36639454468E+02 -0.82558879662E+01 -0.22635823685E+03  0.24717171275E+03  0.91897741465E+02 0.  0.
        -11    1    1    2    0    0 -0.54294284770E+02  0.10400923266E+03  0.46527860321E+03  0.47984369168E+03  0.00000000000E+00 0. -1.
         11    1    1    2    0    0  0.90933739238E+02 -0.95753344698E+02 -0.23892036636E+03  0.27298459556E+03  0.00000000000E+00 0. -1.
        -15    1    3    3    0    0 -0.55649426176E+02 -0.30375958551E+02 -0.19125948765E+03  0.20150162986E+03  0.17770000000E+01 0. -1.
         15    1    3    3    0    0  0.19009971708E+02  0.22120070585E+02 -0.35098749198E+02  0.45670082891E+02  0.17770000000E+01 0.  1.
</event>
<event>
 7    1  0.3234965E-006  0.5217937E+03  0.7546771E-02  0.9352323E-01
        -11   -1    0    0    0    0  0.00000000000E+00  0.00000000000E+00  0.50000000000E+03  0.50000000000E+03  0.00000000000E+00 0. -1.
         11   -1    0    0    0    0 -0.00000000000E+00 -0.00000000000E+00 -0.50000000000E+03  0.50000000000E+03  0.00000000000E+00 0.  1.
         23    2    1    2    0    0 -0.37935515696E+02  0.67929826510E+02 -0.12710030494E+03  0.16529224170E+03  0.71508551733E+02 0.  0.
        -11    1    1    2    0    0  0.79298077716E+02  0.14994523369E+02  0.47134727299E+03  0.47820630759E+03  0.00000000000E+00 0. -1.
         11    1    1    2    0    0 -0.41362562020E+02 -0.82924349879E+02 -0.34424696805E+03  0.35650145070E+03  0.00000000000E+00 0.  1.
        -15    1    3    3    0    0 -0.23440601999E+02  0.20846208925E+02 -0.27648999331E+01  0.31540904383E+02  0.17770000000E+01 0. -1.
         15    1    3    3    0    0 -0.14494913696E+02  0.47083617585E+02 -0.12433540501E+03  0.13375133732E+03  0.17770000000E+01 0.  1.
</event>
<event>
 7    1  0.3234965E-006  0.4463803E+03  0.7546771E-02  0.9528491E-01
        -11   -1    0    0    0    0  0.00000000000E+00  0.00000000000E+00  0.50000000000E+03  0.50000000000E+03  0.00000000000E+00 0.  1.
         11   -1    0    0    0    0 -0.00000000000E+00 -0.00000000000E+00 -0.50000000000E+03  0.50000000000E+03  0.00000000000E+00 0.  1.
         23    2    1    2    0    0 -0.13417681340E+03 -0.77798175949E+02 -0.41231114747E+03  0.44977427245E+03  0.90776871485E+02 0.  0.
        -11    1    1    2    0    0  0.26257264871E+02  0.81978123199E+02  0.43195905929E+03  0.44045259171E+03  0.00000000000E+00 0.  1.
         11    1    1    2    0    0  0.10791954853E+03 -0.41799472497E+01 -0.19647911821E+02  0.10977313584E+03  0.00000000000E+00 0.  1.
        -15    1    3    3    0    0 -0.11411211214E+03 -0.79590360351E+02 -0.40506003781E+03  0.42829077921E+03  0.17770000000E+01 0.  1.
         15    1    3    3    0    0 -0.20064701261E+02  0.17921844017E+01 -0.72511096635E+01  0.21483493244E+02  0.17770000000E+01 0. -1.
</event>
<event>
 7    1  0.3234965E-006  0.4029481E+03  0.7546771E-02  0.9647730E-01
        -11   -1    0    0    0    0  0.00000000000E+00  0.00000000000E+00  0.50000000000E+03  0.50000000000E+03  0.00000000000E+00 0.  1.
         11   -1    0    0    0    0 -0.00000000000E+00 -0.00000000000E+00 -0.50000000000E+03  0.50000000000E+03  0.00000000000E+00 0. -1.
         23    2    1    2    0    0 -0.53505796733E+02 -0.27910871262E+02 -0.34955188602E+03  0.36813273452E+03  0.98454569144E+02 0.  0.
        -11    1    1    2    0    0 -0.79836245674E+02  0.13645348176E+03  0.41793180797E+03  0.44683372178E+03  0.00000000000E+00 0.  1.
         11    1    1    2    0    0  0.13334204241E+03 -0.10854261049E+03 -0.68379921954E+02  0.18503354370E+03  0.00000000000E+00 0. -1.
        -15    1    3    3    0    0 -0.37887470750E+02 -0.63864463345E+02 -0.19473024527E+03  0.20841582538E+03  0.17770000000E+01 0. -1.
         15    1    3    3    0    0 -0.15618325983E+02  0.35953592083E+02 -0.15482164076E+03  0.15971690914E+03  0.17770000000E+01 0.  1.
</event>
<event>
 7    1  0.3234965E-006  0.4232961E+03  0.7546771E-02  0.9589967E-01
        -11   -1    0    0    0    0  0.00000000000E+00  0.00000000000E+00  0.50000000000E+03  0.50000000000E+03  0.00000000000E+00 0.  1.
         11   -1    0    0    0    0 -0.00000000000E+00 -0.00000000000E+00 -0.50000000000E+03  0.50000000000E+03  0.00000000000E+00 0. -1.
         23    2    1    2    0    0 -0.36135064900E+00 -0.40118632809E+02 -0.40425426150E+03  0.41580724567E+03  0.88682142132E+02 0.  0.
        -11    1    1    2    0    0  0.12361631965E+03 -0.43970573888E+02  0.41436739648E+03  0.43464323890E+03  0.00000000000E+00 0.  1.
         11    1    1    2    0    0 -0.12325496900E+03  0.84089206697E+02 -0.10113134980E+02  0.14954951543E+03  0.00000000000E+00 0. -1.
        -15    1    3    3    0    0 -0.10061702147E+02  0.27120919173E+02 -0.13865328540E+03  0.14164982665E+03  0.17770000000E+01 0. -1.
         15    1    3    3    0    0  0.97003514981E+01 -0.67239551982E+02 -0.26560097610E+03  0.27415741902E+03  0.17770000000E+01 0.  1.
</event>
<event>
 7    1  0.3234965E-006  0.4414476E+03  0.7546771E-02  0.9541289E-01
        -11   -1    0    0    0    0  0.00000000000E+00  0.00000000000E+00  0.50000000000E+03  0.50000000000E+03  0.00000000000E+00 0. -1.
         11   -1    0    0    0    0 -0.00000000000E+00 -0.00000000000E+00 -0.50000000000E+03  0.50000000000E+03  0.00000000000E+00 0.  1.
         23    2    1    2    0    0  0.52668441955E+02  0.19134705713E+02  0.34928015160E+02  0.11463913712E+03  0.93712666034E+02 0.  0.
        -11    1    1    2    0    0 -0.11543977528E+03  0.11836365723E+03  0.39576633571E+03  0.42891408179E+03  0.00000000000E+00 0. -1.
         11    1    1    2    0    0  0.62771333327E+02 -0.13749836294E+03 -0.43069435087E+03  0.45644678110E+03  0.00000000000E+00 0.  1.
        -15    1    3    3    0    0  0.48487967673E+02  0.34881934719E+02  0.60002531089E+02  0.84683492163E+02  0.17770000000E+01 0.  1.
         15    1    3    3    0    0  0.41804742820E+01 -0.15747229006E+02 -0.25074515929E+02  0.29955644955E+02  0.17770000000E+01 0. -1.
</event>
<event>
 7    1  0.3234965E-006  0.5327927E+03  0.7546771E-02  0.9329282E-01
        -11   -1    0    0    0    0  0.00000000000E+00  0.00000000000E+00  0.50000000000E+03  0.50000000000E+03  0.00000000000E+00 0.  1.
         11   -1    0    0    0    0 -0.00000000000E+00 -0.00000000000E+00 -0.50000000000E+03  0.50000000000E+03  0.00000000000E+00 0. -1.
         23    2    1    2    0    0 -0.27912091687E+02  0.99984793204E+01 -0.32327687235E+02  0.10107357312E+03  0.91058955470E+02 0.  0.
        -11    1    1    2    0    0  0.43081898162E+02 -0.16555034562E+03  0.43476392183E+03  0.46720727157E+03  0.00000000000E+00 0.  1.
         11    1    1    2    0    0 -0.15169806475E+02  0.15555186630E+03 -0.40243623460E+03  0.43171915530E+03  0.00000000000E+00 0. -1.
        -15    1    3    3    0    0 -0.14195107499E+02 -0.29246636696E+02  0.16844833392E+02  0.36657509134E+02  0.17770000000E+01 0.  1.
         15    1    3    3    0    0 -0.13716984189E+02  0.39245116016E+02 -0.49172520626E+02  0.64416063991E+02  0.17770000000E+01 0. -1.
</event>
<event>
 7    1  0.3234965E-006  0.5330292E+03  0.7546771E-02  0.9328794E-01
        -11   -1    0    0    0    0  0.00000000000E+00  0.00000000000E+00  0.50000000000E+03  0.50000000000E+03  0.00000000000E+00 0. -1.
         11   -1    0    0    0    0 -0.00000000000E+00 -0.00000000000E+00 -0.50000000000E+03  0.50000000000E+03  0.00000000000E+00 0.  1.
         23    2    1    2    0    0  0.80898562468E+02  0.12795321712E+03 -0.27284212903E+03  0.32579584272E+03  0.93720331733E+02 0.  0.
        -11    1    1    2    0    0  0.31892246707E+02 -0.13253114020E+03  0.44663200815E+03  0.46697084408E+03  0.00000000000E+00 0. -1.
         11    1    1    2    0    0 -0.11279080918E+03  0.45779230730E+01 -0.17378987912E+03  0.20723331320E+03  0.00000000000E+00 0.  1.
        -15    1    3    3    0    0  0.15460198462E+02  0.74988052745E+02 -0.61257258917E+02  0.98070562810E+02  0.17770000000E+01 0. -1.
         15    1    3    3    0    0  0.65438364006E+02  0.52965164378E+02 -0.21158487011E+03  0.22772527991E+03  0.17770000000E+01 0.  1.
</event>
<event>
 7    1  0.3234965E-006  0.5109209E+03  0.7546771E-02  0.9375700E-01
        -11   -1    0    0    0    0  0.00000000000E+00  0.00000000000E+00  0.50000000000E+03  0.50000000000E+03  0.00000000000E+00 0.  1.
         11   -1    0    0    0    0 -0.00000000000E+00 -0.00000000000E+00 -0.50000000000E+03  0.50000000000E+03  0.00000000000E+00 0. -1.
         23    2    1    2    0    0  0.48937575353E+01  0.14546971205E+02 -0.22950619146E+03  0.24634107740E+03  0.88177498610E+02 0.  0.
        -11    1    1    2    0    0  0.17487768889E+02 -0.10346540262E+03  0.47768971099E+03  0.48907910565E+03  0.00000000000E+00 0.  1.
         11    1    1    2    0    0 -0.22381526424E+02  0.88918431416E+02 -0.24818351953E+03  0.26457981695E+03  0.00000000000E+00 0. -1.
        -15    1    3    3    0    0 -0.39089841917E+02  0.14111351817E+02 -0.14765972080E+03  0.15340696486E+03  0.17770000000E+01 0.  1.
         15    1    3    3    0    0  0.43983599452E+02  0.43561938829E+00 -0.81846470655E+02  0.92934112535E+02  0.17770000000E+01 0. -1.
</event>
<event>
 7    1  0.3234965E-006  0.3422257E+03  0.7546771E-02  0.9844424E-01
        -11   -1    0    0    0    0  0.00000000000E+00  0.00000000000E+00  0.50000000000E+03  0.50000000000E+03  0.00000000000E+00 0. -1.
         11   -1    0    0    0    0 -0.00000000000E+00 -0.00000000000E+00 -0.50000000000E+03  0.50000000000E+03  0.00000000000E+00 0. -1.
         23    2    1    2    0    0  0.18830276740E+03  0.77307388209E+02 -0.15191578395E+03  0.26994084063E+03  0.91407261991E+02 0.  0.
        -11    1    1    2    0    0  0.59679176446E+02 -0.59531912518E+02  0.38207354512E+03  0.39126186447E+03  0.00000000000E+00 0. -1.
         11    1    1    2    0    0 -0.24798194384E+03 -0.17775475691E+02 -0.23015776117E+03  0.33879729490E+03  0.00000000000E+00 0. -1.
        -15    1    3    3    0    0  0.15863199977E+02  0.15151428051E+02 -0.61954453130E+02  0.65747386847E+02  0.17770000000E+01 0.  1.
         15    1    3    3    0    0  0.17243956742E+03  0.62155960158E+02 -0.89961330820E+02  0.20419345378E+03  0.17770000000E+01 0. -1.
</event>
<event>
 7    1  0.3234965E-006  0.5272704E+03  0.7546771E-02  0.9340776E-01
        -11   -1    0    0    0    0  0.00000000000E+00  0.00000000000E+00  0.50000000000E+03  0.50000000000E+03  0.00000000000E+00 0.  1.
         11   -1    0    0    0    0 -0.00000000000E+00 -0.00000000000E+00 -0.50000000000E+03  0.50000000000E+03  0.00000000000E+00 0. -1.
         23    2    1    2    0    0  0.59633599165E+01  0.15988434154E+03 -0.43557785521E+03  0.47272963554E+03  0.90258938819E+02 0.  0.
        -11    1    1    2    0    0 -0.12009588385E+03 -0.80968722534E+02  0.30067677922E+03  0.33374463428E+03  0.00000000000E+00 0.  1.
         11    1    1    2    0    0  0.11413252393E+03 -0.78915619001E+02  0.13490107599E+03  0.19352573019E+03  0.00000000000E+00 0. -1.
        -15    1    3    3    0    0 -0.20195685424E+02  0.72666882409E+02 -0.10153669443E+03  0.12649584797E+03  0.17770000000E+01 0.  1.
         15    1    3    3    0    0  0.26159045341E+02  0.87217459127E+02 -0.33404116078E+03  0.34623378757E+03  0.17770000000E+01 0. -1.
</event>
<event>
 7    1  0.3234965E-006  0.5397171E+03  0.7546771E-02  0.9315078E-01
        -11   -1    0    0    0    0  0.00000000000E+00  0.00000000000E+00  0.50000000000E+03  0.50000000000E+03  0.00000000000E+00 0.  1.
         11   -1    0    0    0    0 -0.00000000000E+00 -0.00000000000E+00 -0.50000000000E+03  0.50000000000E+03  0.00000000000E+00 0. -1.
         23    2    1    2    0    0  0.11014999369E+03 -0.13579413870E+03  0.11474901487E+03  0.22819011182E+03  0.91270594963E+02 0.  0.
        -11    1    1    2    0    0  0.62221039595E+02  0.44030155415E+02  0.30205784676E+03  0.31152697338E+03  0.00000000000E+00 0.  1.
         11    1    1    2    0    0 -0.17237103329E+03  0.91763983282E+02 -0.41680686163E+03  0.46028291479E+03  0.00000000000E+00 0. -1.
        -15    1    3    3    0    0  0.85659350871E+02 -0.14687159179E+03  0.10302192908E+03  0.19881012164E+03  0.17770000000E+01 0.  1.
         15    1    3    3    0    0  0.24490642823E+02  0.11077453094E+02  0.11727085792E+02  0.29379990182E+02  0.17770000000E+01 0. -1.
</event>
<event>
 7    1  0.3234965E-006  0.5375290E+03  0.7546771E-02  0.9319542E-01
        -11   -1    0    0    0    0  0.00000000000E+00  0.00000000000E+00  0.50000000000E+03  0.50000000000E+03  0.00000000000E+00 0. -1.
         11   -1    0    0    0    0 -0.00000000000E+00 -0.00000000000E+00 -0.50000000000E+03  0.50000000000E+03  0.00000000000E+00 0.  1.
         23    2    1    2    0    0  0.60245817484E+02 -0.49635809020E+01 -0.18602559292E+03  0.21565573120E+03  0.90816724894E+02 0.  0.
        -11    1    1    2    0    0  0.87133654990E+02 -0.14249056560E+03  0.43125811244E+03  0.46247096630E+03  0.00000000000E+00 0. -1.
         11    1    1    2    0    0 -0.14737947247E+03  0.14745414651E+03 -0.24523251952E+03  0.32187330250E+03  0.00000000000E+00 0.  1.
        -15    1    3    3    0    0  0.58988117804E+02  0.20155179697E+02 -0.57977981389E+02  0.85149476603E+02  0.17770000000E+01 0.  1.
         15    1    3    3    0    0  0.12576996794E+01 -0.25118760599E+02 -0.12804761153E+03  0.13050625460E+03  0.17770000000E+01 0. -1.
</event>
<event>
 7    1  0.3234965E-006  0.3681759E+03  0.7546771E-02  0.9755406E-01
        -11   -1    0    0    0    0  0.00000000000E+00  0.00000000000E+00  0.50000000000E+03  0.50000000000E+03  0.00000000000E+00 0.  1.
         11   -1    0    0    0    0 -0.00000000000E+00 -0.00000000000E+00 -0.50000000000E+03  0.50000000000E+03  0.00000000000E+00 0.  1.
         23    2    1    2    0    0  0.77609116406E+02 -0.74945689966E+02 -0.28005856528E+03  0.31391525390E+03  0.92032359806E+02 0.  0.
        -11    1    1    2    0    0 -0.21717494109E+02 -0.92929756879E+02  0.43838603579E+03  0.44865343600E+03  0.00000000000E+00 0.  1.
         11    1    1    2    0    0 -0.55891622297E+02  0.16787544684E+03 -0.15832747051E+03  0.23743131010E+03  0.00000000000E+00 0.  1.
        -15    1    3    3    0    0  0.97520934479E+02 -0.66028774521E+02 -0.21330478388E+03  0.24366415470E+03  0.17770000000E+01 0.  1.
         15    1    3    3    0    0 -0.19911818073E+02 -0.89169154454E+01 -0.66753781393E+02  0.70251099203E+02  0.17770000000E+01 0. -1.
</event>
<event>
 7    1  0.3234965E-006  0.5157003E+03  0.7546771E-02  0.9365349E-01
        -11   -1    0    0    0    0  0.00000000000E+00  0.00000000000E+00  0.50000000000E+03  0.50000000000E+03  0.00000000000E+00 0. -1.
         11   -1    0    0    0    0 -0.00000000000E+00 -0.00000000000E+00 -0.50000000000E+03  0.50000000000E+03  0.00000000000E+00 0.  1.
         23    2    1    2    0    0 -0.10410830434E+02  0.90208393461E+01 -0.16967295122E+03  0.19387427709E+03  0.92782347503E+02 0.  0.
        -11    1    1    2    0    0  0.22204124154E+01  0.89392893846E+02  0.47597287597E+03  0.48429969890E+03  0.00000000000E+00 0. -1.
         11    1    1    2    0    0  0.81904180183E+01 -0.98413733192E+02 -0.30629992475E+03  0.32182602401E+03  0.00000000000E+00 0.  1.
        -15    1    3    3    0    0 -0.37768434138E+01  0.39506980132E+02 -0.27522113403E+02  0.48328981786E+02  0.17770000000E+01 0. -1.
         15    1    3    3    0    0 -0.66339870199E+01 -0.30486140785E+02 -0.14215083782E+03  0.14554529530E+03  0.17770000000E+01 0.  1.
</event>
<event>
 7    1  0.3234965E-006  0.5318453E+03  0.7546771E-02  0.9331244E-01
        -11   -1    0    0    0    0  0.00000000000E+00  0.00000000000E+00  0.50000000000E+03  0.50000000000E+03  0.00000000000E+00 0.  1.
         11   -1    0    0    0    0 -0.00000000000E+00 -0.00000000000E+00 -0.50000000000E+03  0.50000000000E+03  0.00000000000E+00 0. -1.
         23    2    1    2    0    0 -0.16833502099E+01  0.16464161726E+03  0.15360001881E+03  0.24304752999E+03  0.91484644916E+02 0.  0.
        -11    1    1    2    0    0 -0.80302897630E+02 -0.12976646549E+01  0.27740563530E+03  0.28879772471E+03  0.00000000000E+00 0.  1.
         11    1    1    2    0    0  0.81986247840E+02 -0.16334395260E+03 -0.43100565410E+03  0.46815474531E+03  0.00000000000E+00 0. -1.
        -15    1    3    3    0    0  0.23008899642E+02  0.11156762219E+03  0.50812227954E+02  0.12474687981E+03  0.17770000000E+01 0.  1.
         15    1    3    3    0    0 -0.24692249851E+02  0.53073995065E+02  0.10278779085E+03  0.11830065018E+03  0.17770000000E+01 0. -1.
</event>
<event>
 7    1  0.3234965E-006  0.4275831E+03  0.7546771E-02  0.9578238E-01
        -11   -1    0    0    0    0  0.00000000000E+00  0.00000000000E+00  0.50000000000E+03  0.50000000000E+03  0.00000000000E+00 0. -1.
         11   -1    0    0    0    0 -0.00000000000E+00 -0.00000000000E+00 -0.50000000000E+03  0.50000000000E+03  0.00000000000E+00 0. -1.
         23    2    1    2    0    0 -0.89035119519E+02 -0.21786550258E+03 -0.33328361726E+03  0.41842328660E+03  0.92776330575E+02 0.  0.
        -11    1    1    2    0    0  0.22988898812E+03  0.20343963031E+03  0.31322325093E+03  0.43857204079E+03  0.00000000000E+00 0. -1.
         11    1    1    2    0    0 -0.14085386860E+03  0.14425872273E+02  0.20060366330E+02  0.14300467261E+03  0.00000000000E+00 0. -1.
        -15    1    3    3    0    0 -0.59865798517E+02 -0.17967374900E+03 -0.31382527750E+03  0.36654608501E+03  0.17770000000E+01 0. -1.
         15    1    3    3    0    0 -0.29169321002E+02 -0.38191753583E+02 -0.19458339756E+02  0.51877201587E+02  0.17770000000E+01 0.  1.
</event>
<event>
 7    1  0.3234965E-006  0.5019234E+03  0.7546771E-02  0.9395516E-01
        -11   -1    0    0    0    0  0.00000000000E+00  0.00000000000E+00  0.50000000000E+03  0.50000000000E+03  0.00000000000E+00 0.  1.
         11   -1    0    0    0    0 -0.00000000000E+00 -0.00000000000E+00 -0.50000000000E+03  0.50000000000E+03  0.00000000000E+00 0. -1.
         23    2    1    2    0    0 -0.18130420574E+03  0.27617025182E+02 -0.45395298131E+03  0.49807660081E+03  0.91504513189E+02 0.  0.
        -11    1    1    2    0    0  0.14111109851E+03  0.23118735381E+02  0.36420134914E+03  0.39126645750E+03  0.00000000000E+00 0.  1.
         11    1    1    2    0    0  0.40193107226E+02 -0.50735760563E+02  0.89751632168E+02  0.11065694169E+03  0.00000000000E+00 0. -1.
        -15    1    3    3    0    0 -0.51366437714E+02 -0.84652799814E+00 -0.45999172508E+02  0.68980498212E+02  0.17770000000E+01 0.  1.
         15    1    3    3    0    0 -0.12993776803E+03  0.28463553180E+02 -0.40795380880E+03  0.42909610259E+03  0.17770000000E+01 0. -1.
</event>
<event>
 7    1  0.3234965E-006  0.5385523E+03  0.7546771E-02  0.9317451E-01
        -11   -1    0    0    0    0  0.00000000000E+00  0.00000000000E+00  0.50000000000E+03  0.50000000000E+03  0.00000000000E+00 0. -1.
         11   -1    0    0    0    0 -0.00000000000E+00 -0.00000000000E+00 -0.50000000000E+03  0.50000000000E+03  0.00000000000E+00 0.  1.
         23    2    1    2    0    0 -0.94430002448E+02  0.92149695239E+02 -0.17898651673E+03  0.23999544276E+03  0.90294228394E+02 0.  0.
        -11    1    1    2    0    0  0.24629452079E+03  0.61007994338E+02  0.38542316034E+03  0.46144769895E+03  0.00000000000E+00 0. -1.
         11    1    1    2    0    0 -0.15186451834E+03 -0.15315768958E+03 -0.20643664360E+03  0.29855685829E+03  0.00000000000E+00 0.  1.
        -15    1    3    3    0    0 -0.34613332338E+02  0.98586785581E+01 -0.23020765621E+01  0.36107251404E+02  0.17770000000E+01 0. -1.
         15    1    3    3    0    0 -0.59816670110E+02  0.82291016681E+02 -0.17668444017E+03  0.20388819136E+03  0.17770000000E+01 0.  1.
</event>
<event>
 7    1  0.3234965E-006  0.5292034E+03  0.7546771E-02  0.9336736E-01
        -11   -1    0    0    0    0  0.00000000000E+00  0.00000000000E+00  0.50000000000E+03  0.50000000000E+03  0.00000000000E+00 0. -1.
         11   -1    0    0    0    0 -0.00000000000E+00 -0.00000000000E+00 -0.50000000000E+03  0.50000000000E+03  0.00000000000E+00 0. -1.
         23    2    1    2    0    0 -0.14794905278E+02  0.90031931730E+01 -0.36153287886E+03  0.37394484130E+03  0.93961561985E+02 0.  0.
        -11    1    1    2    0    0 -0.11561319944E+02  0.11008398360E+03  0.45759952898E+03  0.47079664027E+03  0.00000000000E+00 0. -1.
         11    1    1    2    0    0  0.26356225223E+02 -0.11908717678E+03 -0.96066650123E+02  0.15525851843E+03  0.00000000000E+00 0. -1.
        -15    1    3    3    0    0  0.36534595595E+02  0.21823197824E+02 -0.15790730234E+03  0.16355091714E+03  0.17770000000E+01 0.  1.
         15    1    3    3    0    0 -0.51329500873E+02 -0.12820004652E+02 -0.20362557652E+03  0.21039392416E+03  0.17770000000E+01 0. -1.
</event>
<event>
 7    1  0.3234965E-006  0.5231452E+03  0.7546771E-02  0.9349460E-01
        -11   -1    0    0    0    0  0.00000000000E+00  0.00000000000E+00  0.50000000000E+03  0.50000000000E+03  0.00000000000E+00 0.  1.
         11   -1    0    0    0    0 -0.00000000000E+00 -0.00000000000E+00 -0.50000000000E+03  0.50000000000E+03  0.00000000000E+00 0. -1.
         23    2    1    2    0    0  0.14874849310E+03  0.85648459327E+00  0.14062735127E+03  0.22348487772E+03  0.89680493299E+02 0.  0.
        -11    1    1    2    0    0  0.47028893954E+02  0.58390625280E+02  0.29012951683E+03  0.29966033859E+03  0.00000000000E+00 0.  1.
         11    1    1    2    0    0 -0.19577738706E+03 -0.59247109874E+02 -0.43075686810E+03  0.47685478369E+03  0.00000000000E+00 0. -1.
        -15    1    3    3    0    0  0.10621679281E+03  0.30387787066E+02  0.55050547238E+02  0.12344693255E+03  0.17770000000E+01 0. -1.
         15    1    3    3    0    0  0.42531700295E+02 -0.29531302473E+02  0.85576804030E+02  0.10003794516E+03  0.17770000000E+01 0.  1.
</event>
<event>
 7    1  0.3234965E-006  0.5258516E+03  0.7546771E-02  0.9343753E-01
        -11   -1    0    0    0    0  0.00000000000E+00  0.00000000000E+00  0.50000000000E+03  0.50000000000E+03  0.00000000000E+00 0. -1.
         11   -1    0    0    0    0 -0.00000000000E+00 -0.00000000000E+00 -0.50000000000E+03  0.50000000000E+03  0.00000000000E+00 0. -1.
         23    2    1    2    0    0 -0.71590608353E+02  0.36096003980E+02 -0.12493746406E+03  0.17580715090E+03  0.94184115823E+02 0.  0.
        -11    1    1    2    0    0  0.71141030756E+02  0.36597940574E+02  0.46735023829E+03  0.47414839528E+03  0.00000000000E+00 0. -1.
         11    1    1    2    0    0  0.44957759718E+00 -0.72693944554E+02 -0.34241277423E+03  0.35004445382E+03  0.00000000000E+00 0. -1.
        -15    1    3    3    0    0 -0.27539394145E+02  0.63787789844E+02 -0.87184454545E+02  0.11149702779E+03  0.17770000000E+01 0. -1.
         15    1    3    3    0    0 -0.44051214208E+02 -0.27691785864E+02 -0.37753009519E+02  0.64310123109E+02  0.17770000000E+01 0.  1.
</event>
<event>
 7    1  0.3234965E-006  0.5227536E+03  0.7546771E-02  0.9350288E-01
        -11   -1    0    0    0    0  0.00000000000E+00  0.00000000000E+00  0.50000000000E+03  0.50000000000E+03  0.00000000000E+00 0.  1.
         11   -1    0    0    0    0 -0.00000000000E+00 -0.00000000000E+00 -0.50000000000E+03  0.50000000000E+03  0.00000000000E+00 0. -1.
         23    2    1    2    0    0 -0.18783901286E+02  0.52574503018E+02  0.26170066239E+03  0.28285758431E+03  0.91674767461E+02 0.  0.
        -11    1    1    2    0    0 -0.64063110082E+02 -0.10648997402E+03  0.20519721635E+03  0.23989600713E+03  0.00000000000E+00 0.  1.
         11    1    1    2    0    0  0.82847011368E+02  0.53915470999E+02 -0.46689787875E+03  0.47724640856E+03  0.00000000000E+00 0. -1.
        -15    1    3    3    0    0  0.21688215492E+02 -0.86433016841E+01  0.12989469527E+03  0.13198816214E+03  0.17770000000E+01 0.  1.
         15    1    3    3    0    0 -0.40472116778E+02  0.61217804702E+02  0.13180596712E+03  0.15086942217E+03  0.17770000000E+01 0. -1.
</event>
<event>
 7    1  0.3234965E-006  0.5130470E+03  0.7546771E-02  0.9371080E-01
        -11   -1    0    0    0    0  0.00000000000E+00  0.00000000000E+00  0.50000000000E+03  0.50000000000E+03  0.00000000000E+00 0.  1.
         11   -1    0    0    0    0 -0.00000000000E+00 -0.00000000000E+00 -0.50000000000E+03  0.50000000000E+03  0.00000000000E+00 0. -1.
         23    2    1    2    0    0  0.45087192294E+01 -0.52938527707E+02 -0.35075277656E+03  0.36555572718E+03  0.88208067353E+02 0.  0.
        -11    1    1    2    0    0  0.32845803004E+02  0.13680565574E+03  0.46618512270E+03  0.48695297806E+03  0.00000000000E+00 0.  1.
         11    1    1    2    0    0 -0.37354522234E+02 -0.83867128033E+02 -0.11543234614E+03  0.14749129476E+03  0.00000000000E+00 0. -1.
        -15    1    3    3    0    0 -0.10016310171E+02 -0.74284166299E+02 -0.28967917654E+03  0.29922507730E+03  0.17770000000E+01 0. -1.
         15    1    3    3    0    0  0.14525029400E+02  0.21345638592E+02 -0.61073600012E+02  0.66330649879E+02  0.17770000000E+01 0.  1.
</event>
<event>
 7    1  0.3234965E-006  0.5293320E+03  0.7546771E-02  0.9336468E-01
        -11   -1    0    0    0    0  0.00000000000E+00  0.00000000000E+00  0.50000000000E+03  0.50000000000E+03  0.00000000000E+00 0. -1.
         11   -1    0    0    0    0 -0.00000000000E+00 -0.00000000000E+00 -0.50000000000E+03  0.50000000000E+03  0.00000000000E+00 0.  1.
         23    2    1    2    0    0  0.25008088669E+02 -0.58879022254E+02 -0.31500571266E+03  0.33440834736E+03  0.92239904656E+02 0.  0.
        -11    1    1    2    0    0 -0.65466299139E+02 -0.62757966315E+02  0.46184846103E+03  0.47066803547E+03  0.00000000000E+00 0. -1.
         11    1    1    2    0    0  0.40458210470E+02  0.12163698857E+03 -0.14684274837E+03  0.19492361717E+03  0.00000000000E+00 0.  1.
        -15    1    3    3    0    0  0.12187364657E+02 -0.73104395565E+02 -0.30253689671E+03  0.31148758580E+03  0.17770000000E+01 0.  1.
         15    1    3    3    0    0  0.12820724012E+02  0.14225373311E+02 -0.12468815953E+02  0.22920761556E+02  0.17770000000E+01 0. -1.
</event>
<event>
 7    1  0.3234965E-006  0.4417784E+03  0.7546771E-02  0.9540425E-01
        -11   -1    0    0    0    0  0.00000000000E+00  0.00000000000E+00  0.50000000000E+03  0.50000000000E+03  0.00000000000E+00 0.  1.
         11   -1    0    0    0    0 -0.00000000000E+00 -0.00000000000E+00 -0.50000000000E+03  0.50000000000E+03  0.00000000000E+00 0. -1.
         23    2    1    2    0    0  0.55749664200E+02  0.25541898428E+02 -0.40738737726E+03  0.42152673442E+03  0.89218266293E+02 0.  0.
        -11    1    1    2    0    0 -0.96007556874E+02 -0.13368137185E+03  0.43041382753E+03  0.46080822810E+03  0.00000000000E+00 0.  1.
         11    1    1    2    0    0  0.40257892675E+02  0.10813947342E+03 -0.23026450264E+02  0.11766503749E+03  0.00000000000E+00 0. -1.
        -15    1    3    3    0    0  0.71152990178E+02 -0.55304015858E+01 -0.31058593288E+03  0.31868497421E+03  0.17770000000E+01 0. -1.
         15    1    3    3    0    0 -0.15403325978E+02  0.31072300013E+02 -0.96801444378E+02  0.10284176020E+03  0.17770000000E+01 0.  1.
</event>
<event>
 7    1  0.3234965E-006  0.4620443E+03  0.7546771E-02  0.9488988E-01
        -11   -1    0    0    0    0  0.00000000000E+00  0.00000000000E+00  0.50000000000E+03  0.50000000000E+03  0.00000000000E+00 0.  1.
         11   -1    0    0    0    0 -0.00000000000E+00 -0.00000000000E+00 -0.50000000000E+03  0.50000000000E+03  0.00000000000E+00 0.  1.
         23    2    1    2    0    0 -0.35949537047E+02 -0.93868923144E+02 -0.44718631360E+03  0.46736582786E+03  0.91386399593E+02 0.  0.
        -11    1    1    2    0    0 -0.42742013988E+02  0.11103585980E+03  0.43524191793E+03  0.45121100279E+03  0.00000000000E+00 0.  1.
         11    1    1    2    0    0  0.78691551035E+02 -0.17166936656E+02  0.11944395679E+02  0.81423169347E+02  0.00000000000E+00 0.  1.
        -15    1    3    3    0    0 -0.62061396603E+02 -0.51530433646E+02 -0.33590948736E+03  0.34546395466E+03  0.17770000000E+01 0.  1.
         15    1    3    3    0    0  0.26111859555E+02 -0.42338489498E+02 -0.11127682624E+03  0.12190187320E+03  0.17770000000E+01 0. -1.
</event>
<event>
 7    1  0.3234965E-006  0.4242737E+03  0.7546771E-02  0.9587279E-01
        -11   -1    0    0    0    0  0.00000000000E+00  0.00000000000E+00  0.50000000000E+03  0.50000000000E+03  0.00000000000E+00 0.  1.
         11   -1    0    0    0    0 -0.00000000000E+00 -0.00000000000E+00 -0.50000000000E+03  0.50000000000E+03  0.00000000000E+00 0. -1.
         23    2    1    2    0    0 -0.11024609561E+03 -0.96066760559E+01  0.62200832754E+00  0.14426661673E+03  0.92552579576E+02 0.  0.
        -11    1    1    2    0    0  0.35509312347E+02  0.12810683013E+03  0.40517858007E+03  0.42642930591E+03  0.00000000000E+00 0.  1.
         11    1    1    2    0    0  0.74736783261E+02 -0.11850015408E+03 -0.40580058840E+03  0.42930407736E+03  0.00000000000E+00 0. -1.
        -15    1    3    3    0    0 -0.67096296759E+02  0.18045021469E+02  0.39473823403E+02  0.79930446650E+02  0.17770000000E+01 0.  1.
         15    1    3    3    0    0 -0.43149798848E+02 -0.27651697525E+02 -0.38851815075E+02  0.64336170078E+02  0.17770000000E+01 0. -1.
</event>
<event>
 7    1  0.3333710E-006  0.4806653E+03  0.7546771E-02  0.9444143E-01
        -11   -1    0    0    0    0  0.00000000000E+00  0.00000000000E+00  0.50000000000E+03  0.50000000000E+03  0.00000000000E+00 0. -1.
         11   -1    0    0    0    0 -0.00000000000E+00 -0.00000000000E+00 -0.50000000000E+03  0.50000000000E+03  0.00000000000E+00 0.  1.
         23    2    1    2    0    0 -0.62265000081E+02 -0.64359181312E+02  0.44028855149E+03  0.45859881409E+03  0.91868543366E+02 0.  0.
        -11    1    1    2    0    0 -0.11480748450E+02  0.15100398384E+00  0.44957922157E+02  0.46400917576E+02  0.00000000000E+00 0. -1.
         11    1    1    2    0    0  0.73745748531E+02  0.64208177328E+02 -0.48524647365E+03  0.49500026833E+03  0.00000000000E+00 0.  1.
        -15    1    3    3    0    0 -0.94480077976E+01 -0.59999498416E+02  0.12621821941E+03  0.14008355115E+03  0.17770000000E+01 0. -1.
         15    1    3    3    0    0 -0.52816992283E+02 -0.43596828963E+01  0.31407033208E+03  0.31851526295E+03  0.17770000000E+01 0.  1.
</event>
<event>
 7    1  0.3234965E-006  0.4105411E+03  0.7546771E-02  0.9625758E-01
        -11   -1    0    0    0    0  0.00000000000E+00  0.00000000000E+00  0.50000000000E+03  0.50000000000E+03  0.00000000000E+00 0. -1.
         11   -1    0    0    0    0 -0.00000000000E+00 -0.00000000000E+00 -0.50000000000E+03  0.50000000000E+03  0.00000000000E+00 0.  1.
         23    2    1    2    0    0 -0.19917062460E+03  0.24399312772E+03  0.20672151759E+03  0.38762929414E+03  0.91220062258E+02 0.  0.
        -11    1    1    2    0    0 -0.15364766002E+03 -0.14811343815E+02 -0.74241709221E+02  0.17128575751E+03  0.00000000000E+00 0. -1.
         11    1    1    2    0    0  0.35281828463E+03 -0.22918178391E+03 -0.13247980836E+03  0.44108494836E+03  0.00000000000E+00 0.  1.
        -15    1    3    3    0    0 -0.12186458496E+03  0.20390178843E+03  0.12611016330E+03  0.26894952577E+03  0.17770000000E+01 0.  1.
         15    1    3    3    0    0 -0.77306039639E+02  0.40091339289E+02  0.80611354286E+02  0.11867976837E+03  0.17770000000E+01 0. -1.
</event>
<event>
 7    1  0.3234965E-006  0.4661714E+03  0.7546771E-02  0.9478857E-01
        -11   -1    0    0    0    0  0.00000000000E+00  0.00000000000E+00  0.50000000000E+03  0.50000000000E+03  0.00000000000E+00 0.  1.
         11   -1    0    0    0    0 -0.00000000000E+00 -0.00000000000E+00 -0.50000000000E+03  0.50000000000E+03  0.00000000000E+00 0. -1.
         23    2    1    2    0    0  0.28161884339E+03  0.12260859211E+03 -0.32302069313E+03  0.45535032702E+03  0.93056500648E+02 0.  0.
        -11    1    1    2    0    0 -0.24531190691E+03 -0.17421126660E+03  0.36182303732E+03  0.47057773791E+03  0.00000000000E+00 0.  1.
         11    1    1    2    0    0 -0.36306936485E+02  0.51602674487E+02 -0.38802344185E+02  0.74071935073E+02  0.00000000000E+00 0. -1.
        -15    1    3    3    0    0  0.38797908915E+02 -0.15170894330E+02 -0.44708392533E+02  0.61134539033E+02  0.17770000000E+01 0.  1.
         15    1    3    3    0    0  0.24282093448E+03  0.13777948644E+03 -0.27831230060E+03  0.39421578799E+03  0.17770000000E+01 0. -1.
</event>
<event>
 7    1  0.3234965E-006  0.3453421E+03  0.7546771E-02  0.9833293E-01
        -11   -1    0    0    0    0  0.00000000000E+00  0.00000000000E+00  0.50000000000E+03  0.50000000000E+03  0.00000000000E+00 0. -1.
         11   -1    0    0    0    0 -0.00000000000E+00 -0.00000000000E+00 -0.50000000000E+03  0.50000000000E+03  0.00000000000E+00 0. -1.
         23    2    1    2    0    0  0.24760681762E+02  0.10493969466E+03 -0.40510560720E+03  0.42952242884E+03  0.93560317502E+02 0.  0.
        -11    1    1    2    0    0  0.18098210314E+03 -0.63281758173E+02  0.19055412195E+03  0.27031458705E+03  0.00000000000E+00 0. -1.
         11    1    1    2    0    0 -0.20574278491E+03 -0.41657936482E+02  0.21455148525E+03  0.30016298412E+03  0.00000000000E+00 0. -1.
        -15    1    3    3    0    0 -0.10500707680E+02 -0.13409186185E+02 -0.29227169698E+02  0.33874124541E+02  0.17770000000E+01 0.  1.
         15    1    3    3    0    0  0.35261389442E+02  0.11834888084E+03 -0.37587843750E+03  0.39564830429E+03  0.17770000000E+01 0. -1.
</event>
<event>
 7    1  0.3234965E-006  0.4347261E+03  0.7546771E-02  0.9559019E-01
        -11   -1    0    0    0    0  0.00000000000E+00  0.00000000000E+00  0.50000000000E+03  0.50000000000E+03  0.00000000000E+00 0.  1.
         11   -1    0    0    0    0 -0.00000000000E+00 -0.00000000000E+00 -0.50000000000E+03  0.50000000000E+03  0.00000000000E+00 0. -1.
         23    2    1    2    0    0  0.38369565028E+02  0.75414443280E+02  0.27356692167E+02  0.12601200090E+03  0.89280871344E+02 0.  0.
        -11    1    1    2    0    0 -0.15044978451E+03 -0.13340358497E+03  0.38955908894E+03  0.43839244737E+03  0.00000000000E+00 0.  1.
         11    1    1    2    0    0  0.11208021948E+03  0.57989141686E+02 -0.41691578110E+03  0.43559555173E+03  0.00000000000E+00 0. -1.
        -15    1    3    3    0    0  0.15947496523E+02  0.65418256292E+02 -0.21999367273E+02  0.70859020534E+02  0.17770000000E+01 0. -1.
         15    1    3    3    0    0  0.22422068506E+02  0.99961869881E+01  0.49356059441E+02  0.55152980363E+02  0.17770000000E+01 0.  1.
</event>
<event>
 7    1  0.3234965E-006  0.5425472E+03  0.7546771E-02  0.9309337E-01
        -11   -1    0    0    0    0  0.00000000000E+00  0.00000000000E+00  0.50000000000E+03  0.50000000000E+03  0.00000000000E+00 0.  1.
         11   -1    0    0    0    0 -0.00000000000E+00 -0.00000000000E+00 -0.50000000000E+03  0.50000000000E+03  0.00000000000E+00 0. -1.
         23    2    1    2    0    0  0.61769359761E+02  0.95371378285E+02 -0.20047097095E+03  0.24786014869E+03  0.91295616070E+02 0.  0.
        -11    1    1    2    0    0  0.13930365732E+03 -0.15229746014E+03  0.40824379750E+03  0.45745275549E+03  0.00000000000E+00 0.  1.
         11    1    1    2    0    0 -0.20107301708E+03  0.56926081858E+02 -0.20777282655E+03  0.29468709582E+03  0.00000000000E+00 0. -1.
        -15    1    3    3    0    0  0.69364552834E+02  0.57784282068E+02 -0.77363704674E+02  0.11890653882E+03  0.17770000000E+01 0.  1.
         15    1    3    3    0    0 -0.75951930731E+01  0.37587096218E+02 -0.12310726627E+03  0.12895360987E+03  0.17770000000E+01 0. -1.
</event>
<event>
 7    1  0.3234965E-006  0.5345473E+03  0.7546771E-02  0.9325661E-01
        -11   -1    0    0    0    0  0.00000000000E+00  0.00000000000E+00  0.50000000000E+03  0.50000000000E+03  0.00000000000E+00 0.  1.
         11   -1    0    0    0    0 -0.00000000000E+00 -0.00000000000E+00 -0.50000000000E+03  0.50000000000E+03  0.00000000000E+00 0.  1.
         23    2    1    2    0    0 -0.83426286517E+01 -0.82772066415E+02 -0.12820301746E+03  0.17840629086E+03  0.92043340349E+02 0.  0.
        -11    1    1    2    0    0 -0.75501833913E+02 -0.19520223549E+02  0.45887325132E+03  0.46545271170E+03  0.00000000000E+00 0.  1.
         11    1    1    2    0    0  0.83844462564E+02  0.10229228996E+03 -0.33067023387E+03  0.35614099743E+03  0.00000000000E+00 0.  1.
        -15    1    3    3    0    0  0.13606753454E+02 -0.32618448821E+02 -0.11734575830E+03  0.12256545869E+03  0.17770000000E+01 0.  1.
         15    1    3    3    0    0 -0.21949382105E+02 -0.50153617595E+02 -0.10857259157E+02  0.55840832175E+02  0.17770000000E+01 0. -1.
</event>
<event>
 7    1  0.3234965E-006  0.3408264E+03  0.7546771E-02  0.9849463E-01
        -11   -1    0    0    0    0  0.00000000000E+00  0.00000000000E+00  0.50000000000E+03  0.50000000000E+03  0.00000000000E+00 0.  1.
         11   -1    0    0    0    0 -0.00000000000E+00 -0.00000000000E+00 -0.50000000000E+03  0.50000000000E+03  0.00000000000E+00 0. -1.
         23    2    1    2    0    0  0.11827994300E+03 -0.59369483241E+02 -0.32506249227E+03  0.36251070619E+03  0.90738678413E+02 0.  0.
        -11    1    1    2    0    0 -0.65672755804E+02  0.29712379497E+03  0.19516833487E+03  0.36150537939E+03  0.00000000000E+00 0. -1.
         11    1    1    2    0    0 -0.52607187194E+02 -0.23775431173E+03  0.12989415741E+03  0.27598391442E+03  0.00000000000E+00 0.  1.
        -15    1    3    3    0    0  0.83786558698E+02  0.85711384812E+01 -0.16930911677E+03  0.18910945662E+03  0.17770000000E+01 0.  1.
         15    1    3    3    0    0  0.34493384299E+02 -0.67940621723E+02 -0.15575337550E+03  0.17340124956E+03  0.17770000000E+01 0. -1.
</event>
<event>
 7    1  0.3234965E-006  0.4596533E+03  0.7546771E-02  0.9494909E-01
        -11   -1    0    0    0    0  0.00000000000E+00  0.00000000000E+00  0.50000000000E+03  0.50000000000E+03  0.00000000000E+00 0. -1.
         11   -1    0    0    0    0 -0.00000000000E+00 -0.00000000000E+00 -0.50000000000E+03  0.50000000000E+03  0.00000000000E+00 0.  1.
         23    2    1    2    0    0 -0.95069490658E+02 -0.34144986649E+01 -0.40211021364E+03  0.42308512290E+03  0.90876457060E+02 0.  0.
        -11    1    1    2    0    0  0.12534226314E+03 -0.32578577235E+02  0.47379669746E+03  0.49117752101E+03  0.00000000000E+00 0. -1.
         11    1    1    2    0    0 -0.30272772481E+02  0.35993075900E+02 -0.71686483820E+02  0.85737356087E+02  0.00000000000E+00 0.  1.
        -15    1    3    3    0    0 -0.11001777444E+02  0.55663504406E+01 -0.28762209744E+00  0.12460490344E+02  0.17770000000E+01 0. -1.
         15    1    3    3    0    0 -0.84067713214E+02 -0.89808491056E+01 -0.40182259154E+03  0.41062463255E+03  0.17770000000E+01 0.  1.
</event>
<event>
 7    1  0.3234965E-006  0.3535035E+03  0.7546771E-02  0.9804732E-01
        -11   -1    0    0    0    0  0.00000000000E+00  0.00000000000E+00  0.50000000000E+03  0.50000000000E+03  0.00000000000E+00 0.  1.
         11   -1    0    0    0    0 -0.00000000000E+00 -0.00000000000E+00 -0.50000000000E+03  0.50000000000E+03  0.00000000000E+00 0. -1.
         23    2    1    2    0    0 -0.19812752511E+03 -0.23065377359E+03 -0.23526995599E+02  0.31808798194E+03  0.90392285367E+02 0.  0.
        -11    1    1    2    0    0  0.98386854302E+02 -0.14647074601E+03  0.18865479584E+03  0.25831044216E+03  0.00000000000E+00 0.  1.
         11    1    1    2    0    0  0.99740670804E+02  0.37712451960E+03 -0.16512780024E+03  0.42360157590E+03  0.00000000000E+00 0. -1.
        -15    1    3    3    0    0 -0.13441337338E+03 -0.14890046319E+03  0.27615595723E+02  0.20249464619E+03  0.17770000000E+01 0.  1.
         15    1    3    3    0    0 -0.63714151727E+02 -0.81753310407E+02 -0.51142591321E+02  0.11559333575E+03  0.17770000000E+01 0. -1.
</event>
<event>
 7    1  0.3234965E-006  0.3533629E+03  0.7546771E-02  0.9805217E-01
        -11   -1    0    0    0    0  0.00000000000E+00  0.00000000000E+00  0.50000000000E+03  0.50000000000E+03  0.00000000000E+00 0.  1.
         11   -1    0    0    0    0 -0.00000000000E+00 -0.00000000000E+00 -0.50000000000E+03  0.50000000000E+03  0.00000000000E+00 0. -1.
         23    2    1    2    0    0  0.19349356480E+03 -0.13502367355E+03 -0.37174675298E+02  0.25400106224E+03  0.86391151753E+02 0.  0.
        -11    1    1    2    0    0 -0.58563454110E+02 -0.34522031488E+02  0.35493723961E+03  0.36138883890E+03  0.00000000000E+00 0.  1.
         11    1    1    2    0    0 -0.13493011069E+03  0.16954570504E+03 -0.31776256431E+03  0.38461009886E+03  0.00000000000E+00 0. -1.
        -15    1    3    3    0    0  0.12525101286E+03 -0.62846230986E+02 -0.59375244284E+02  0.15220394980E+03  0.17770000000E+01 0.  1.
         15    1    3    3    0    0  0.68242551933E+02 -0.72177442563E+02  0.22200568987E+02  0.10179711244E+03  0.17770000000E+01 0. -1.
</event>
<event>
 7    1  0.3234965E-006  0.3104154E+03  0.7546771E-02  0.9965855E-01
        -11   -1    0    0    0    0  0.00000000000E+00  0.00000000000E+00  0.50000000000E+03  0.50000000000E+03  0.00000000000E+00 0. -1.
         11   -1    0    0    0    0 -0.00000000000E+00 -0.00000000000E+00 -0.50000000000E+03  0.50000000000E+03  0.00000000000E+00 0. -1.
         23    2    1    2    0    0 -0.22324848091E+03  0.18231122856E+03 -0.19600061713E+03  0.36046673446E+03  0.91884473379E+02 0.  0.
        -11    1    1    2    0    0  0.42579098384E+02  0.46463110111E+02  0.31751504674E+03  0.32370913661E+03  0.00000000000E+00 0. -1.
         11    1    1    2    0    0  0.18066938253E+03 -0.22877433867E+03 -0.12151442960E+03  0.31582412893E+03  0.00000000000E+00 0. -1.
        -15    1    3    3    0    0  0.89841366435E+01  0.68861639665E+01 -0.81468188721E+01  0.14059244366E+02  0.17770000000E+01 0.  1.
         15    1    3    3    0    0 -0.23223261755E+03  0.17542506459E+03 -0.18785379826E+03  0.34640749009E+03  0.17770000000E+01 0. -1.
</event>
<event>
 7    1  0.3234965E-006  0.5102241E+03  0.7546771E-02  0.9377219E-01
        -11   -1    0    0    0    0  0.00000000000E+00  0.00000000000E+00  0.50000000000E+03  0.50000000000E+03  0.00000000000E+00 0.  1.
         11   -1    0    0    0    0 -0.00000000000E+00 -0.00000000000E+00 -0.50000000000E+03  0.50000000000E+03  0.00000000000E+00 0. -1.
         23    2    1    2    0    0  0.39335137891E+02  0.25804041213E+02 -0.27940933107E+03  0.29816672971E+03  0.92847847593E+02 0.  0.
        -11    1    1    2    0    0 -0.81859562912E+02  0.17649017769E+02  0.48256398632E+03  0.48977594547E+03  0.00000000000E+00 0.  1.
         11    1    1    2    0    0  0.42524425020E+02 -0.43453058982E+02 -0.20315465525E+03  0.21205732482E+03  0.00000000000E+00 0. -1.
        -15    1    3    3    0    0  0.69604848380E+02  0.23023614358E+02 -0.18677327088E+03  0.20065476367E+03  0.17770000000E+01 0.  1.
         15    1    3    3    0    0 -0.30269710488E+02  0.27804268541E+01 -0.92636060185E+02  0.97511966046E+02  0.17770000000E+01 0. -1.
</event>
<event>
 7    1  0.3234965E-006  0.3981856E+03  0.7546771E-02  0.9661777E-01
        -11   -1    0    0    0    0  0.00000000000E+00  0.00000000000E+00  0.50000000000E+03  0.50000000000E+03  0.00000000000E+00 0. -1.
         11   -1    0    0    0    0 -0.00000000000E+00 -0.00000000000E+00 -0.50000000000E+03  0.50000000000E+03  0.00000000000E+00 0.  1.
         23    2    1    2    0    0 -0.88743246476E+02  0.71987394294E+02 -0.11806999278E+03  0.18685467822E+03  0.88975270974E+02 0.  0.
        -11    1    1    2    0    0 -0.45052380096E+02  0.90004360076E+02  0.42746584322E+03  0.43915549513E+03  0.00000000000E+00 0. -1.
         11    1    1    2    0    0  0.13379562657E+03 -0.16199175437E+03 -0.30939585044E+03  0.37398982665E+03  0.00000000000E+00 0.  1.
        -15    1    3    3    0    0 -0.85670890945E+02  0.46956845002E+02 -0.41393457552E+02  0.10611796693E+03  0.17770000000E+01 0.  1.
         15    1    3    3    0    0 -0.30723555306E+01  0.25030549292E+02 -0.76676535229E+02  0.80736711291E+02  0.17770000000E+01 0. -1.
</event>
<event>
 7    1  0.3234965E-006  0.3336399E+03  0.7546771E-02  0.9875758E-01
        -11   -1    0    0    0    0  0.00000000000E+00  0.00000000000E+00  0.50000000000E+03  0.50000000000E+03  0.00000000000E+00 0.  1.
         11   -1    0    0    0    0 -0.00000000000E+00 -0.00000000000E+00 -0.50000000000E+03  0.50000000000E+03  0.00000000000E+00 0.  1.
         23    2    1    2    0    0  0.17914017249E+02 -0.39693146119E+01 -0.26382603886E+03  0.28222353169E+03  0.98535656417E+02 0.  0.
        -11    1    1    2    0    0 -0.42423063683E+02 -0.28605667819E+03  0.30902161859E+03  0.42322866187E+03  0.00000000000E+00 0.  1.
         11    1    1    2    0    0  0.24509046434E+02  0.29002599280E+03 -0.45195579734E+02  0.29454780645E+03  0.00000000000E+00 0.  1.
        -15    1    3    3    0    0 -0.25269503621E+02 -0.36629722853E+02 -0.14379863113E+03  0.15053733242E+03  0.17770000000E+01 0. -1.
         15    1    3    3    0    0  0.43183520870E+02  0.32660408241E+02 -0.12002740773E+03  0.13168619926E+03  0.17770000000E+01 0.  1.
</event>
<event>
 7    1  0.3234965E-006  0.4485880E+03  0.7546771E-02  0.9522819E-01
        -11   -1    0    0    0    0  0.00000000000E+00  0.00000000000E+00  0.50000000000E+03  0.50000000000E+03  0.00000000000E+00 0. -1.
         11   -1    0    0    0    0 -0.00000000000E+00 -0.00000000000E+00 -0.50000000000E+03  0.50000000000E+03  0.00000000000E+00 0.  1.
         23    2    1    2    0    0 -0.67738657605E+02 -0.97353269100E+01 -0.41746650237E+03  0.42963357092E+03  0.74989481512E+02 0.  0.
        -11    1    1    2    0    0  0.13321255637E+03  0.86413480457E+02  0.43937389065E+03  0.46718549910E+03  0.00000000000E+00 0. -1.
         11    1    1    2    0    0 -0.65473898766E+02 -0.76678153547E+02 -0.21907388282E+02  0.10318092998E+03  0.00000000000E+00 0.  1.
        -15    1    3    3    0    0 -0.50963706778E+02  0.29380741993E+02 -0.23422585472E+03  0.24150659651E+03  0.17770000000E+01 0.  1.
         15    1    3    3    0    0 -0.16774950827E+02 -0.39116068903E+02 -0.18324064765E+03  0.18812697441E+03  0.17770000000E+01 0. -1.
</event>
<event>
 7    1  0.3234965E-006  0.3452071E+03  0.7546771E-02  0.9833773E-01
        -11   -1    0    0    0    0  0.00000000000E+00  0.00000000000E+00  0.50000000000E+03  0.50000000000E+03  0.00000000000E+00 0.  1.
         11   -1    0    0    0    0 -0.00000000000E+00 -0.00000000000E+00 -0.50000000000E+03  0.50000000000E+03  0.00000000000E+00 0.  1.
         23    2    1    2    0    0  0.48472392838E+02 -0.51754786314E+02 -0.41565164692E+03  0.43156357363E+03  0.91938543203E+02 0.  0.
        -11    1    1    2    0    0  0.70239726214E+02 -0.13258292184E+03  0.25775256757E+03  0.29824190918E+03  0.00000000000E+00 0.  1.
         11    1    1    2    0    0 -0.11871211905E+03  0.18433770816E+03  0.15789907935E+03  0.27019451719E+03  0.00000000000E+00 0.  1.
        -15    1    3    3    0    0  0.26014835991E+02 -0.65918521686E+02 -0.38269413812E+03  0.38920429632E+03  0.17770000000E+01 0.  1.
         15    1    3    3    0    0  0.22457556848E+02  0.14163735372E+02 -0.32957508797E+02  0.42359277312E+02  0.17770000000E+01 0. -1.
</event>
<event>
 7    1  0.3234965E-006  0.5418411E+03  0.7546771E-02  0.9310766E-01
        -11   -1    0    0    0    0  0.00000000000E+00  0.00000000000E+00  0.50000000000E+03  0.50000000000E+03  0.00000000000E+00 0.  1.
         11   -1    0    0    0    0 -0.00000000000E+00 -0.00000000000E+00 -0.50000000000E+03  0.50000000000E+03  0.00000000000E+00 0. -1.
         23    2    1    2    0    0 -0.98095417653E+02 -0.79027676350E+01 -0.21798859323E+03  0.25644424661E+03  0.92517350477E+02 0.  0.
        -11    1    1    2    0    0 -0.55484551566E+02  0.78390707678E+02  0.44797987438E+03  0.45815893133E+03  0.00000000000E+00 0.  1.
         11    1    1    2    0    0  0.15357996922E+03 -0.70487940043E+02 -0.22999128115E+03  0.28539682206E+03  0.00000000000E+00 0. -1.
        -15    1    3    3    0    0  0.11386839047E+02 -0.15804935417E+02 -0.66781378215E+02  0.69587112976E+02  0.17770000000E+01 0. -1.
         15    1    3    3    0    0 -0.10948225670E+03  0.79021677822E+01 -0.15120721501E+03  0.18685713363E+03  0.17770000000E+01 0.  1.
</event>
<event>
 7    1  0.3234965E-006  0.4629991E+03  0.7546771E-02  0.9486634E-01
        -11   -1    0    0    0    0  0.00000000000E+00  0.00000000000E+00  0.50000000000E+03  0.50000000000E+03  0.00000000000E+00 0.  1.
         11   -1    0    0    0    0 -0.00000000000E+00 -0.00000000000E+00 -0.50000000000E+03  0.50000000000E+03  0.00000000000E+00 0.  1.
         23    2    1    2    0    0  0.26313270819E+03  0.35885822353E+03 -0.11221754878E+03  0.46769514237E+03  0.90154984462E+02 0.  0.
        -11    1    1    2    0    0 -0.10148089983E+02  0.15140723275E+02  0.77311272404E+02  0.79430838295E+02  0.00000000000E+00 0.  1.
         11    1    1    2    0    0 -0.25298461821E+03 -0.37399894680E+03  0.34906276377E+02  0.45287401934E+03  0.00000000000E+00 0.  1.
        -15    1    3    3    0    0  0.21092861080E+03  0.22231114034E+03 -0.58816946481E+02  0.31205081781E+03  0.17770000000E+01 0.  1.
         15    1    3    3    0    0  0.52204097394E+02  0.13654708319E+03 -0.53400602299E+02  0.15564432455E+03  0.17770000000E+01 0. -1.
</event>
<event>
 7    1  0.3234965E-006  0.5093705E+03  0.7546771E-02  0.9379083E-01
        -11   -1    0    0    0    0  0.00000000000E+00  0.00000000000E+00  0.50000000000E+03  0.50000000000E+03  0.00000000000E+00 0.  1.
         11   -1    0    0    0    0 -0.00000000000E+00 -0.00000000000E+00 -0.50000000000E+03  0.50000000000E+03  0.00000000000E+00 0. -1.
         23    2    1    2    0    0  0.88764436181E+02  0.29930531009E+02 -0.34226575308E+03  0.36699936564E+03  0.93636140607E+02 0.  0.
        -11    1    1    2    0    0 -0.92564593220E+02 -0.19796048413E+01  0.48181447008E+03  0.49062950006E+03  0.00000000000E+00 0.  1.
         11    1    1    2    0    0  0.38001570392E+01 -0.27950926167E+02 -0.13954871699E+03  0.14237113430E+03  0.00000000000E+00 0. -1.
        -15    1    3    3    0    0  0.18283621436E+01 -0.18607780919E+02 -0.12589189123E+02  0.22610569003E+02  0.17770000000E+01 0.  1.
         15    1    3    3    0    0  0.86936074037E+02  0.48538311928E+02 -0.32967656396E+03  0.34438879663E+03  0.17770000000E+01 0. -1.
</event>
