<event>
 7    1  0.4378490E-007  0.1000000E+04  0.7546771E-02  0.8684367E-01
        -11   -1    0    0    0    0  0.00000000000E+00  0.00000000000E+00  0.50000000000E+03  0.50000000000E+03  0.00000000000E+00 0.  1.
         11   -1    0    0    0    0 -0.00000000000E+00 -0.00000000000E+00 -0.50000000000E+03  0.50000000000E+03  0.00000000000E+00 0. -1.
         23    2    1    2    0    0  0.65624893392E+02 -0.28827178267E+02  0.11436522491E+01  0.11652972314E+03  0.91870754839E+02 0.  0.
        -11    1    3    3    0    0  0.79463167768E+02 -0.38599639762E+01  0.20357244845E+02  0.82120105768E+02  0.00000000000E+00 0.  1.
         11    1    3    3    0    0 -0.13838274376E+02 -0.24967214291E+02 -0.19213592596E+02  0.34409617371E+02  0.00000000000E+00 0. -1.
        -15    1    1    2    0    0  0.35037120785E+03  0.17505214457E+03 -0.14800994182E+03  0.41870435539E+03  0.17770000000E+01 0.  1.
         15    1    1    2    0    0 -0.41599610125E+03 -0.14622496631E+03  0.14686628957E+03  0.46476592147E+03  0.17770000000E+01 0. -1.
</event>
<event>
 7    1  0.4378490E-007  0.1000000E+04  0.7546771E-02  0.8684367E-01
        -11   -1    0    0    0    0  0.00000000000E+00  0.00000000000E+00  0.50000000000E+03  0.50000000000E+03  0.00000000000E+00 0. -1.
         11   -1    0    0    0    0 -0.00000000000E+00 -0.00000000000E+00 -0.50000000000E+03  0.50000000000E+03  0.00000000000E+00 0.  1.
         23    2    1    2    0    0  0.54158820614E+02 -0.60023285383E+01 -0.13237692464E+01  0.10520610750E+03  0.89985370437E+02 0.  0.
        -11    1    3    3    0    0  0.77411064210E+02 -0.70707111718E+01 -0.13562999140E+02  0.78907685077E+02  0.00000000000E+00 0.  1.
         11    1    3    3    0    0 -0.23252243596E+02  0.10683826335E+01  0.12239229894E+02  0.26298422426E+02  0.00000000000E+00 0. -1.
        -15    1    1    2    0    0 -0.32091706001E+03  0.33795387285E+03 -0.35162746912E+02  0.46737581889E+03  0.17770000000E+01 0. -1.
         15    1    1    2    0    0  0.26675823940E+03 -0.33195154431E+03  0.36486516158E+02  0.42741807361E+03  0.17770000000E+01 0.  1.
</event>
<event>
 7    1  0.4378490E-007  0.8436114E+03  0.7546771E-02  0.8849453E-01
        -11   -1    0    0    0    0  0.00000000000E+00  0.00000000000E+00  0.50000000000E+03  0.50000000000E+03  0.00000000000E+00 0.  1.
         11   -1    0    0    0    0 -0.00000000000E+00 -0.00000000000E+00 -0.50000000000E+03  0.50000000000E+03  0.00000000000E+00 0. -1.
         23    2    1    2    0    0  0.86062520754E+02  0.72480717191E+02 -0.62154076315E+02  0.15638860704E+03  0.89073314550E+02 0.  0.
        -11    1    3    3    0    0  0.97640329063E+01  0.11503932911E+02 -0.56581351252E+02  0.58558740769E+02  0.00000000000E+00 0.  1.
         11    1    3    3    0    0  0.76298487848E+02  0.60976784281E+02 -0.55727250634E+01  0.97829866267E+02  0.00000000000E+00 0. -1.
        -15    1    1    2    0    0 -0.29846366674E+03  0.29026167754E+03 -0.13244717012E+02  0.41654649449E+03  0.17770000000E+01 0.  1.
         15    1    1    2    0    0  0.21240114599E+03 -0.36274239473E+03  0.75398793327E+02  0.42706489848E+03  0.17770000000E+01 0. -1.
</event>
<event>
 7    1  0.4378490E-007  0.1000000E+04  0.7546771E-02  0.8684367E-01
        -11   -1    0    0    0    0  0.00000000000E+00  0.00000000000E+00  0.50000000000E+03  0.50000000000E+03  0.00000000000E+00 0.  1.
         11   -1    0    0    0    0 -0.00000000000E+00 -0.00000000000E+00 -0.50000000000E+03  0.50000000000E+03  0.00000000000E+00 0. -1.
         23    2    1    2    0    0  0.35358146636E+02 -0.50577693204E+02  0.61627483677E+02  0.12606970464E+03  0.91034730192E+02 0.  0.
        -11    1    3    3    0    0  0.12752268211E+02 -0.30189200483E+02 -0.20381490377E+02  0.38592918007E+02  0.00000000000E+00 0. -1.
         11    1    3    3    0    0  0.22605878424E+02 -0.20388492721E+02  0.82008974054E+02  0.87476786636E+02  0.00000000000E+00 0.  1.
        -15    1    1    2    0    0  0.33341178953E+02 -0.30380958269E+03  0.25169041197E+03  0.39593322411E+03  0.17770000000E+01 0.  1.
         15    1    1    2    0    0 -0.68699325589E+02  0.35438727590E+03 -0.31331789565E+03  0.47799707124E+03  0.17770000000E+01 0. -1.
</event>
<event>
 7    1  0.4378490E-007  0.1000000E+04  0.7546771E-02  0.8684367E-01
        -11   -1    0    0    0    0  0.00000000000E+00  0.00000000000E+00  0.50000000000E+03  0.50000000000E+03  0.00000000000E+00 0.  1.
         11   -1    0    0    0    0 -0.00000000000E+00 -0.00000000000E+00 -0.50000000000E+03  0.50000000000E+03  0.00000000000E+00 0. -1.
         23    2    1    2    0    0 -0.12577570526E+03 -0.14197731919E+03 -0.15489203613E+03  0.26114489771E+03  0.90708475581E+02 0.  0.
        -11    1    3    3    0    0 -0.10562331674E+03 -0.75232587215E+02 -0.13807913002E+03  0.18942564072E+03  0.00000000000E+00 0. -1.
         11    1    3    3    0    0 -0.20152388520E+02 -0.66744731979E+02 -0.16812906116E+02  0.71719256982E+02  0.00000000000E+00 0.  1.
        -15    1    1    2    0    0  0.24103305476E+03  0.30874813673E+03  0.29675743254E+03  0.49141680570E+03  0.17770000000E+01 0.  1.
         15    1    1    2    0    0 -0.11525734951E+03 -0.16677081754E+03 -0.14186539641E+03  0.24743829660E+03  0.17770000000E+01 0. -1.
</event>
<event>
 7    1  0.4378490E-007  0.1000000E+04  0.7546771E-02  0.8684367E-01
        -11   -1    0    0    0    0  0.00000000000E+00  0.00000000000E+00  0.50000000000E+03  0.50000000000E+03  0.00000000000E+00 0.  1.
         11   -1    0    0    0    0 -0.00000000000E+00 -0.00000000000E+00 -0.50000000000E+03  0.50000000000E+03  0.00000000000E+00 0. -1.
         23    2    1    2    0    0 -0.11874613601E+03  0.56927291162E+02 -0.31527337726E+03  0.35407307507E+03  0.92892834940E+02 0.  0.
        -11    1    3    3    0    0 -0.13202579344E+03  0.61223363385E+02 -0.27034840889E+03  0.30702992125E+03  0.00000000000E+00 0. -1.
         11    1    3    3    0    0  0.13279657422E+02 -0.42960722227E+01 -0.44924968375E+02  0.47043153819E+02  0.00000000000E+00 0.  1.
        -15    1    1    2    0    0  0.92626110685E+02 -0.21803284160E+03  0.39782591502E+03  0.46301893351E+03  0.17770000000E+01 0.  1.
         15    1    1    2    0    0  0.26120025330E+02  0.16110555044E+03 -0.82552537756E+02  0.18290799142E+03  0.17770000000E+01 0. -1.
</event>
<event>
 7    1  0.4378490E-007  0.7402861E+03  0.7546771E-02  0.8980687E-01
        -11   -1    0    0    0    0  0.00000000000E+00  0.00000000000E+00  0.50000000000E+03  0.50000000000E+03  0.00000000000E+00 0.  1.
         11   -1    0    0    0    0 -0.00000000000E+00 -0.00000000000E+00 -0.50000000000E+03  0.50000000000E+03  0.00000000000E+00 0. -1.
         23    2    1    2    0    0  0.69904384975E+02 -0.53539010418E+02  0.22597599873E+03  0.25971393774E+03  0.92914631675E+02 0.  0.
        -11    1    3    3    0    0  0.24225071436E+02  0.24930960607E+02  0.41745000194E+02  0.54323585338E+02  0.00000000000E+00 0. -1.
         11    1    3    3    0    0  0.45679313539E+02 -0.78469971025E+02  0.18423099854E+03  0.20539035240E+03  0.00000000000E+00 0.  1.
        -15    1    1    2    0    0  0.23870923545E+03 -0.19485696830E+03 -0.83228728699E+02  0.31918884096E+03  0.17770000000E+01 0.  1.
         15    1    1    2    0    0 -0.30861362042E+03  0.24839597872E+03 -0.14274727003E+03  0.42109722130E+03  0.17770000000E+01 0. -1.
</event>
<event>
 7    1  0.4378490E-007  0.6941982E+03  0.7546771E-02  0.9046716E-01
        -11   -1    0    0    0    0  0.00000000000E+00  0.00000000000E+00  0.50000000000E+03  0.50000000000E+03  0.00000000000E+00 0.  1.
         11   -1    0    0    0    0 -0.00000000000E+00 -0.00000000000E+00 -0.50000000000E+03  0.50000000000E+03  0.00000000000E+00 0. -1.
         23    2    1    2    0    0 -0.11872318693E+03 -0.41503764169E+02 -0.26320857954E+03  0.30580176670E+03  0.91750785388E+02 0.  0.
        -11    1    3    3    0    0  0.14063345720E+02 -0.10145968663E+02 -0.16819499530E+02  0.24158102934E+02  0.00000000000E+00 0.  1.
         11    1    3    3    0    0 -0.13278653265E+03 -0.31357795506E+02 -0.24638908001E+03  0.28164366376E+03  0.00000000000E+00 0. -1.
        -15    1    1    2    0    0  0.28663998306E+03 -0.19390143809E+03  0.19451684406E+03  0.39698892671E+03  0.17770000000E+01 0.  1.
         15    1    1    2    0    0 -0.16791679613E+03  0.23540520226E+03  0.68691735478E+02  0.29720930659E+03  0.17770000000E+01 0. -1.
</event>
<event>
 7    1  0.4378490E-007  0.1000000E+04  0.7546771E-02  0.8684367E-01
        -11   -1    0    0    0    0  0.00000000000E+00  0.00000000000E+00  0.50000000000E+03  0.50000000000E+03  0.00000000000E+00 0.  1.
         11   -1    0    0    0    0 -0.00000000000E+00 -0.00000000000E+00 -0.50000000000E+03  0.50000000000E+03  0.00000000000E+00 0. -1.
         23    2    1    2    0    0 -0.56124425021E+02  0.11863843605E+03  0.23601265775E+03  0.28546592565E+03  0.92540750476E+02 0.  0.
        -11    1    3    3    0    0  0.24925407722E+02  0.43124983823E+02  0.73984246249E+02  0.89189174639E+02  0.00000000000E+00 0.  1.
         11    1    3    3    0    0 -0.81049832744E+02  0.75513452228E+02  0.16202841150E+03  0.19627675101E+03  0.00000000000E+00 0. -1.
        -15    1    1    2    0    0  0.31141121537E+03 -0.14786559384E+03 -0.29172206194E+03  0.45160391722E+03  0.17770000000E+01 0. -1.
         15    1    1    2    0    0 -0.25528679035E+03  0.29227157784E+02  0.55709404193E+02  0.26293015712E+03  0.17770000000E+01 0.  1.
</event>
<event>
 7    1  0.4378490E-007  0.1000000E+04  0.7546771E-02  0.8684367E-01
        -11   -1    0    0    0    0  0.00000000000E+00  0.00000000000E+00  0.50000000000E+03  0.50000000000E+03  0.00000000000E+00 0.  1.
         11   -1    0    0    0    0 -0.00000000000E+00 -0.00000000000E+00 -0.50000000000E+03  0.50000000000E+03  0.00000000000E+00 0. -1.
         23    2    1    2    0    0  0.20874296923E+03 -0.75610388631E+02 -0.10574418981E+02  0.24065410049E+03  0.92260607374E+02 0.  0.
        -11    1    3    3    0    0  0.15329706413E+03 -0.24678435133E+02 -0.39141648719E+02  0.16012833508E+03  0.00000000000E+00 0. -1.
         11    1    3    3    0    0  0.55445905103E+02 -0.50931953498E+02  0.28567229738E+02  0.80525765409E+02  0.00000000000E+00 0.  1.
        -15    1    1    2    0    0  0.25542193117E+03  0.13327705353E+03 -0.30969478285E+02  0.28976784196E+03  0.17770000000E+01 0.  1.
         15    1    1    2    0    0 -0.46416490040E+03 -0.57666664904E+02  0.41543897266E+02  0.46957805755E+03  0.17770000000E+01 0. -1.
</event>
<event>
 7    1  0.4496306E-007  0.1000000E+04  0.7546771E-02  0.8684367E-01
        -11   -1    0    0    0    0  0.00000000000E+00  0.00000000000E+00  0.50000000000E+03  0.50000000000E+03  0.00000000000E+00 0. -1.
         11   -1    0    0    0    0 -0.00000000000E+00 -0.00000000000E+00 -0.50000000000E+03  0.50000000000E+03  0.00000000000E+00 0.  1.
         23    2    1    2    0    0  0.46134987893E+02 -0.23742319269E+02  0.39522448936E+02  0.11257529616E+03  0.91755318668E+02 0.  0.
        -11    1    3    3    0    0  0.28872633385E+01 -0.14367858192E+02 -0.28139715281E+02  0.31727199919E+02  0.00000000000E+00 0.  1.
         11    1    3    3    0    0  0.43247724555E+02 -0.93744610763E+01  0.67662164217E+02  0.80848096243E+02  0.00000000000E+00 0. -1.
        -15    1    1    2    0    0  0.35634235768E+03 -0.75560413613E+02  0.19287038370E+03  0.41217883815E+03  0.17770000000E+01 0. -1.
         15    1    1    2    0    0 -0.40247734558E+03  0.99302732882E+02 -0.23239283264E+03  0.47524586568E+03  0.17770000000E+01 0.  1.
</event>
<event>
 7    1  0.4378490E-007  0.1000000E+04  0.7546771E-02  0.8684367E-01
        -11   -1    0    0    0    0  0.00000000000E+00  0.00000000000E+00  0.50000000000E+03  0.50000000000E+03  0.00000000000E+00 0. -1.
         11   -1    0    0    0    0 -0.00000000000E+00 -0.00000000000E+00 -0.50000000000E+03  0.50000000000E+03  0.00000000000E+00 0.  1.
         23    2    1    2    0    0  0.24101105115E+02  0.45163338865E+01 -0.80979943507E+02  0.12434316304E+03  0.91116466151E+02 0.  0.
        -11    1    3    3    0    0 -0.25782255997E+02 -0.10307800500E+02  0.37404327908E+00  0.27768964400E+02  0.00000000000E+00 0.  1.
         11    1    3    3    0    0  0.49883361112E+02  0.14824134387E+02 -0.81353986786E+02  0.96574198636E+02  0.00000000000E+00 0. -1.
        -15    1    1    2    0    0  0.17405721053E+03 -0.16080519404E+03  0.40239896182E+03  0.46699283203E+03  0.17770000000E+01 0. -1.
         15    1    1    2    0    0 -0.19815831564E+03  0.15628886016E+03 -0.32141901831E+03  0.40866400493E+03  0.17770000000E+01 0.  1.
</event>
<event>
 7    1  0.4378490E-007  0.1000000E+04  0.7546771E-02  0.8684367E-01
        -11   -1    0    0    0    0  0.00000000000E+00  0.00000000000E+00  0.50000000000E+03  0.50000000000E+03  0.00000000000E+00 0. -1.
         11   -1    0    0    0    0 -0.00000000000E+00 -0.00000000000E+00 -0.50000000000E+03  0.50000000000E+03  0.00000000000E+00 0.  1.
         23    2    1    2    0    0 -0.18723686995E+03 -0.21606497697E+02 -0.42472391395E+02  0.21367840808E+03  0.91269227225E+02 0.  0.
        -11    1    3    3    0    0 -0.14805988695E+03  0.71621460831E+01  0.13434948144E+01  0.14823910226E+03  0.00000000000E+00 0.  1.
         11    1    3    3    0    0 -0.39176982992E+02 -0.28768643780E+02 -0.43815886210E+02  0.65439305815E+02  0.00000000000E+00 0. -1.
        -15    1    1    2    0    0  0.42074559286E+03  0.22280668410E+03  0.43463241949E+02  0.47808146118E+03  0.17770000000E+01 0.  1.
         15    1    1    2    0    0 -0.23350872292E+03 -0.20120018640E+03 -0.99085055344E+00  0.30824013074E+03  0.17770000000E+01 0. -1.
</event>
<event>
 7    1  0.4378490E-007  0.7819078E+03  0.7546771E-02  0.8925266E-01
        -11   -1    0    0    0    0  0.00000000000E+00  0.00000000000E+00  0.50000000000E+03  0.50000000000E+03  0.00000000000E+00 0.  1.
         11   -1    0    0    0    0 -0.00000000000E+00 -0.00000000000E+00 -0.50000000000E+03  0.50000000000E+03  0.00000000000E+00 0. -1.
         23    2    1    2    0    0 -0.50428211198E+02  0.14437939351E+03  0.12420763189E+03  0.21809220705E+03  0.93532139940E+02 0.  0.
        -11    1    3    3    0    0 -0.19983249378E+02  0.14704825522E+03  0.98061859160E+02  0.17787256067E+03  0.00000000000E+00 0.  1.
         11    1    3    3    0    0 -0.30444961820E+02 -0.26688617094E+01  0.26145772732E+02  0.40219646379E+02  0.00000000000E+00 0. -1.
        -15    1    1    2    0    0 -0.33860358865E+03  0.31166567768E+02 -0.99887823956E+02  0.35440722382E+03  0.17770000000E+01 0.  1.
         15    1    1    2    0    0  0.38903179985E+03 -0.17554596128E+03 -0.24319807936E+02  0.42750056913E+03  0.17770000000E+01 0. -1.
</event>
<event>
 7    1  0.4378490E-007  0.1000000E+04  0.7546771E-02  0.8684367E-01
        -11   -1    0    0    0    0  0.00000000000E+00  0.00000000000E+00  0.50000000000E+03  0.50000000000E+03  0.00000000000E+00 0. -1.
         11   -1    0    0    0    0 -0.00000000000E+00 -0.00000000000E+00 -0.50000000000E+03  0.50000000000E+03  0.00000000000E+00 0.  1.
         23    2    1    2    0    0 -0.20069835412E+02  0.54493012163E+02 -0.29093868369E+02  0.11117236235E+03  0.90225020402E+02 0.  0.
        -11    1    3    3    0    0 -0.52001153464E+02  0.20732085258E+02  0.67461434934E+00  0.55985662675E+02  0.00000000000E+00 0.  1.
         11    1    3    3    0    0  0.31931318052E+02  0.33760926905E+02 -0.29768482718E+02  0.55186699678E+02  0.00000000000E+00 0. -1.
        -15    1    1    2    0    0 -0.84366000222E+02  0.40369351635E+03 -0.37807417361E+02  0.41414808423E+03  0.17770000000E+01 0. -1.
         15    1    1    2    0    0  0.10443583563E+03 -0.45818652851E+03  0.66901285730E+02  0.47467955342E+03  0.17770000000E+01 0.  1.
</event>
<event>
 7    1  0.4378490E-007  0.7607975E+03  0.7546771E-02  0.8952909E-01
        -11   -1    0    0    0    0  0.00000000000E+00  0.00000000000E+00  0.50000000000E+03  0.50000000000E+03  0.00000000000E+00 0.  1.
         11   -1    0    0    0    0 -0.00000000000E+00 -0.00000000000E+00 -0.50000000000E+03  0.50000000000E+03  0.00000000000E+00 0. -1.
         23    2    1    2    0    0  0.92050965324E+01 -0.46699585326E+02  0.21558891702E+03  0.23920251126E+03  0.92052567499E+02 0.  0.
        -11    1    3    3    0    0  0.24388129910E+01 -0.71937540269E+02  0.11839889089E+03  0.13856137584E+03  0.00000000000E+00 0. -1.
         11    1    3    3    0    0  0.67662835414E+01  0.25237954942E+02  0.97190026122E+02  0.10064113543E+03  0.00000000000E+00 0.  1.
        -15    1    1    2    0    0  0.33992954116E+03  0.13913056989E+03 -0.12996365145E+03  0.38961919468E+03  0.17770000000E+01 0.  1.
         15    1    1    2    0    0 -0.34913463770E+03 -0.92430984568E+02 -0.85625265563E+02  0.37117829406E+03  0.17770000000E+01 0. -1.
</event>
<event>
 7    1  0.4378490E-007  0.1000000E+04  0.7546771E-02  0.8684367E-01
        -11   -1    0    0    0    0  0.00000000000E+00  0.00000000000E+00  0.50000000000E+03  0.50000000000E+03  0.00000000000E+00 0.  1.
         11   -1    0    0    0    0 -0.00000000000E+00 -0.00000000000E+00 -0.50000000000E+03  0.50000000000E+03  0.00000000000E+00 0. -1.
         23    2    1    2    0    0 -0.20104074711E+03  0.19155364173E+03  0.46399514659E+02  0.29822896320E+03  0.98373877998E+02 0.  0.
        -11    1    3    3    0    0 -0.20231214039E+03  0.15951696715E+03  0.58088944979E+02  0.26410261356E+03  0.00000000000E+00 0.  1.
         11    1    3    3    0    0  0.12713932787E+01  0.32036674577E+02 -0.11689430319E+02  0.34126349644E+02  0.00000000000E+00 0. -1.
        -15    1    1    2    0    0 -0.22697995073E+03 -0.11345538375E+02 -0.66879040166E+02  0.23690627475E+03  0.17770000000E+01 0.  1.
         15    1    1    2    0    0  0.42802069784E+03 -0.18020810335E+03  0.20479525506E+02  0.46486476205E+03  0.17770000000E+01 0. -1.
</event>
<event>
 7    1  0.4378490E-007  0.8251944E+03  0.7546771E-02  0.8871349E-01
        -11   -1    0    0    0    0  0.00000000000E+00  0.00000000000E+00  0.50000000000E+03  0.50000000000E+03  0.00000000000E+00 0. -1.
         11   -1    0    0    0    0 -0.00000000000E+00 -0.00000000000E+00 -0.50000000000E+03  0.50000000000E+03  0.00000000000E+00 0.  1.
         23    2    1    2    0    0  0.51212819604E+02  0.94429858127E+02  0.10574490820E+03  0.17480561723E+03  0.88517044732E+02 0.  0.
        -11    1    3    3    0    0 -0.20663048411E+02  0.45345712742E+02  0.23644480751E+02  0.55156656023E+02  0.00000000000E+00 0. -1.
         11    1    3    3    0    0  0.71875868015E+02  0.49084145385E+02  0.82100427447E+02  0.11964896121E+03  0.00000000000E+00 0.  1.
        -15    1    1    2    0    0  0.32946487856E+03 -0.21329243240E+03  0.52816833498E+02  0.39602215033E+03  0.17770000000E+01 0. -1.
         15    1    1    2    0    0 -0.38067769816E+03  0.11886257427E+03 -0.15856174170E+03  0.42917223244E+03  0.17770000000E+01 0.  1.
</event>
<event>
 7    1  0.4378490E-007  0.1000000E+04  0.7546771E-02  0.8684367E-01
        -11   -1    0    0    0    0  0.00000000000E+00  0.00000000000E+00  0.50000000000E+03  0.50000000000E+03  0.00000000000E+00 0.  1.
         11   -1    0    0    0    0 -0.00000000000E+00 -0.00000000000E+00 -0.50000000000E+03  0.50000000000E+03  0.00000000000E+00 0. -1.
         23    2    1    2    0    0  0.89065164490E+02  0.21218230543E+03  0.72294213572E+02  0.25774686744E+03  0.90846354322E+02 0.  0.
        -11    1    3    3    0    0  0.25060154960E+02  0.80398173231E+02  0.72682688575E+02  0.11124140796E+03  0.00000000000E+00 0. -1.
         11    1    3    3    0    0  0.64005009530E+02  0.13178413220E+03 -0.38847500314E+00  0.14650545948E+03  0.00000000000E+00 0.  1.
        -15    1    1    2    0    0  0.23986535201E+03  0.11048296470E+03  0.42263902309E+02  0.26745330013E+03  0.17770000000E+01 0.  1.
         15    1    1    2    0    0 -0.32893051650E+03 -0.32266527014E+03 -0.11455811588E+03  0.47479983243E+03  0.17770000000E+01 0. -1.
</event>
<event>
 7    1  0.4378490E-007  0.1000000E+04  0.7546771E-02  0.8684367E-01
        -11   -1    0    0    0    0  0.00000000000E+00  0.00000000000E+00  0.50000000000E+03  0.50000000000E+03  0.00000000000E+00 0.  1.
         11   -1    0    0    0    0 -0.00000000000E+00 -0.00000000000E+00 -0.50000000000E+03  0.50000000000E+03  0.00000000000E+00 0. -1.
         23    2    1    2    0    0  0.55090738996E+02 -0.45425937242E+02 -0.50785715660E+02  0.12734684135E+03  0.92409543825E+02 0.  0.
        -11    1    3    3    0    0 -0.47813630690E+01 -0.19111774900E+02 -0.58279554582E+02  0.61519329116E+02  0.00000000000E+00 0. -1.
         11    1    3    3    0    0  0.59872102065E+02 -0.26314162342E+02  0.74938389220E+01  0.65827512236E+02  0.00000000000E+00 0.  1.
        -15    1    1    2    0    0 -0.16560168353E+03  0.42497552757E+03  0.11929173098E+03  0.47144648841E+03  0.17770000000E+01 0.  1.
         15    1    1    2    0    0  0.11051094454E+03 -0.37954959033E+03 -0.68506015324E+02  0.40120667024E+03  0.17770000000E+01 0. -1.
</event>
<event>
 7    1  0.4378490E-007  0.8691979E+03  0.7546771E-02  0.8819988E-01
        -11   -1    0    0    0    0  0.00000000000E+00  0.00000000000E+00  0.50000000000E+03  0.50000000000E+03  0.00000000000E+00 0. -1.
         11   -1    0    0    0    0 -0.00000000000E+00 -0.00000000000E+00 -0.50000000000E+03  0.50000000000E+03  0.00000000000E+00 0.  1.
         23    2    1    2    0    0 -0.53828359366E+02  0.33158063281E+02  0.66825702842E+02  0.13080207249E+03  0.92986870979E+02 0.  0.
        -11    1    3    3    0    0  0.25278867747E+02  0.20020008719E+02  0.19792979677E+02  0.37836278202E+02  0.00000000000E+00 0. -1.
         11    1    3    3    0    0 -0.79107227112E+02  0.13138054562E+02  0.47032723165E+02  0.92965794287E+02  0.00000000000E+00 0.  1.
        -15    1    1    2    0    0 -0.98575782694E+02 -0.26017548376E+03  0.30163634599E+03  0.41036095115E+03  0.17770000000E+01 0. -1.
         15    1    1    2    0    0  0.15240414206E+03  0.22701742047E+03 -0.36846204883E+03  0.45883697636E+03  0.17770000000E+01 0.  1.
</event>
<event>
 7    1  0.4378490E-007  0.7833644E+03  0.7546771E-02  0.8923392E-01
        -11   -1    0    0    0    0  0.00000000000E+00  0.00000000000E+00  0.50000000000E+03  0.50000000000E+03  0.00000000000E+00 0.  1.
         11   -1    0    0    0    0 -0.00000000000E+00 -0.00000000000E+00 -0.50000000000E+03  0.50000000000E+03  0.00000000000E+00 0. -1.
         23    2    1    2    0    0 -0.99666264703E+02  0.64326312570E+01 -0.16924487640E+03  0.21663560498E+03  0.91172441532E+02 0.  0.
        -11    1    3    3    0    0 -0.92299485374E+02  0.33137282033E+02 -0.15956317127E+03  0.18729036304E+03  0.00000000000E+00 0.  1.
         11    1    3    3    0    0 -0.73667793292E+01 -0.26704650776E+02 -0.96817051280E+01  0.29345241947E+02  0.00000000000E+00 0. -1.
        -15    1    1    2    0    0 -0.88533240365E+02 -0.35364010736E+03  0.12757274763E+03  0.38623493349E+03  0.17770000000E+01 0. -1.
         15    1    1    2    0    0  0.18819950507E+03  0.34720747610E+03  0.41672128763E+02  0.39712946153E+03  0.17770000000E+01 0.  1.
</event>
<event>
 7    1  0.4378490E-007  0.1000000E+04  0.7546771E-02  0.8684367E-01
        -11   -1    0    0    0    0  0.00000000000E+00  0.00000000000E+00  0.50000000000E+03  0.50000000000E+03  0.00000000000E+00 0. -1.
         11   -1    0    0    0    0 -0.00000000000E+00 -0.00000000000E+00 -0.50000000000E+03  0.50000000000E+03  0.00000000000E+00 0.  1.
         23    2    1    2    0    0 -0.35797547251E+01  0.17971751891E+01 -0.76092984141E+02  0.11936700370E+03  0.91881961533E+02 0.  0.
        -11    1    3    3    0    0  0.31992576031E+02  0.21439233406E+02 -0.69010140136E+01  0.39125306958E+02  0.00000000000E+00 0. -1.
         11    1    3    3    0    0 -0.35572330756E+02 -0.19642058217E+02 -0.69191970127E+02  0.80241696745E+02  0.00000000000E+00 0.  1.
        -15    1    1    2    0    0  0.26802181190E+03 -0.21481033201E+02  0.38747691573E+03  0.47163401531E+03  0.17770000000E+01 0. -1.
         15    1    1    2    0    0 -0.26444205717E+03  0.19683858011E+02 -0.31138393159E+03  0.40899898099E+03  0.17770000000E+01 0.  1.
</event>
<event>
 7    1  0.4378490E-007  0.8287155E+03  0.7546771E-02  0.8867117E-01
        -11   -1    0    0    0    0  0.00000000000E+00  0.00000000000E+00  0.50000000000E+03  0.50000000000E+03  0.00000000000E+00 0. -1.
         11   -1    0    0    0    0 -0.00000000000E+00 -0.00000000000E+00 -0.50000000000E+03  0.50000000000E+03  0.00000000000E+00 0.  1.
         23    2    1    2    0    0  0.82443495104E+02 -0.52961412620E+02  0.10669370204E+03  0.17128452124E+03  0.91394748475E+02 0.  0.
        -11    1    3    3    0    0  0.55810415164E+02 -0.58823864823E+02  0.24533708398E+02  0.84716895371E+02  0.00000000000E+00 0.  1.
         11    1    3    3    0    0  0.26633079940E+02  0.58624522031E+01  0.82159993641E+02  0.86567625866E+02  0.00000000000E+00 0. -1.
        -15    1    1    2    0    0 -0.27621371245E+03 -0.30424175047E+03 -0.10275095254E+02  0.41105448907E+03  0.17770000000E+01 0. -1.
         15    1    1    2    0    0  0.19377021735E+03  0.35720316309E+03 -0.96418606785E+02  0.41766098969E+03  0.17770000000E+01 0.  1.
</event>
<event>
 7    1  0.4378490E-007  0.8298858E+03  0.7546771E-02  0.8865715E-01
        -11   -1    0    0    0    0  0.00000000000E+00  0.00000000000E+00  0.50000000000E+03  0.50000000000E+03  0.00000000000E+00 0. -1.
         11   -1    0    0    0    0 -0.00000000000E+00 -0.00000000000E+00 -0.50000000000E+03  0.50000000000E+03  0.00000000000E+00 0.  1.
         23    2    1    2    0    0  0.12401495038E+03  0.93153781010E+02 -0.33528316852E+02  0.17011417092E+03  0.61297212696E+02 0.  0.
        -11    1    3    3    0    0 -0.11456301034E+01  0.16139476843E+02  0.70626269231E+01  0.17654344513E+02  0.00000000000E+00 0.  1.
         11    1    3    3    0    0  0.12516058048E+03  0.77014304166E+02 -0.40590943775E+02  0.15245982641E+03  0.00000000000E+00 0. -1.
        -15    1    1    2    0    0 -0.42025861725E+03  0.13784411954E+03  0.86000952515E+02  0.45057477540E+03  0.17770000000E+01 0. -1.
         15    1    1    2    0    0  0.29624366687E+03 -0.23099790055E+03 -0.52472635664E+02  0.37931105368E+03  0.17770000000E+01 0.  1.
</event>
<event>
 7    1  0.4378490E-007  0.8967754E+03  0.7546771E-02  0.8789398E-01
        -11   -1    0    0    0    0  0.00000000000E+00  0.00000000000E+00  0.50000000000E+03  0.50000000000E+03  0.00000000000E+00 0. -1.
         11   -1    0    0    0    0 -0.00000000000E+00 -0.00000000000E+00 -0.50000000000E+03  0.50000000000E+03  0.00000000000E+00 0.  1.
         23    2    1    2    0    0 -0.36718483923E+02 -0.13967136441E+02  0.27379242524E+02  0.10322455208E+03  0.91445925385E+02 0.  0.
        -11    1    3    3    0    0 -0.14382682305E+02  0.33580263697E+02 -0.11017170057E+02  0.38155912993E+02  0.00000000000E+00 0. -1.
         11    1    3    3    0    0 -0.22335801618E+02 -0.47547400139E+02  0.38396412581E+02  0.65068639090E+02  0.00000000000E+00 0.  1.
        -15    1    1    2    0    0  0.16076437302E+03 -0.27816867564E+03 -0.32834029478E+03  0.45938382933E+03  0.17770000000E+01 0.  1.
         15    1    1    2    0    0 -0.12404588910E+03  0.29213581209E+03  0.30096105226E+03  0.43739161859E+03  0.17770000000E+01 0. -1.
</event>
<event>
 7    1  0.4378490E-007  0.7571270E+03  0.7546771E-02  0.8957812E-01
        -11   -1    0    0    0    0  0.00000000000E+00  0.00000000000E+00  0.50000000000E+03  0.50000000000E+03  0.00000000000E+00 0. -1.
         11   -1    0    0    0    0 -0.00000000000E+00 -0.00000000000E+00 -0.50000000000E+03  0.50000000000E+03  0.00000000000E+00 0.  1.
         23    2    1    2    0    0 -0.87928522611E+02 -0.20651447395E+03 -0.26892194045E+02  0.24287298696E+03  0.88794395417E+02 0.  0.
        -11    1    3    3    0    0  0.49275468599E+01  0.57353943433E+01 -0.70732849386E+01  0.10354072926E+02  0.00000000000E+00 0. -1.
         11    1    3    3    0    0 -0.92856069471E+02 -0.21224986829E+03 -0.19818909107E+02  0.23251891404E+03  0.00000000000E+00 0.  1.
        -15    1    1    2    0    0  0.84845319970E+02  0.25944815768E+03  0.34200048868E+03  0.43758378265E+03  0.17770000000E+01 0. -1.
         15    1    1    2    0    0  0.30832026411E+01 -0.52933683739E+02 -0.31510829464E+03  0.31954323039E+03  0.17770000000E+01 0.  1.
</event>
<event>
 7    1  0.4378490E-007  0.1000000E+04  0.7546771E-02  0.8684367E-01
        -11   -1    0    0    0    0  0.00000000000E+00  0.00000000000E+00  0.50000000000E+03  0.50000000000E+03  0.00000000000E+00 0. -1.
         11   -1    0    0    0    0 -0.00000000000E+00 -0.00000000000E+00 -0.50000000000E+03  0.50000000000E+03  0.00000000000E+00 0.  1.
         23    2    1    2    0    0  0.15485355607E+03  0.25082221513E+02  0.99773413473E+02  0.20599444947E+03  0.88714359102E+02 0.  0.
        -11    1    3    3    0    0  0.25732493936E+01  0.18573682102E+02 -0.68718517395E+01  0.19970619059E+02  0.00000000000E+00 0.  1.
         11    1    3    3    0    0  0.15228030668E+03  0.65085394112E+01  0.10664526521E+03  0.18602383041E+03  0.00000000000E+00 0. -1.
        -15    1    1    2    0    0  0.24409324118E+03 -0.19242385037E+03  0.87021534651E+02  0.32277601181E+03  0.17770000000E+01 0. -1.
         15    1    1    2    0    0 -0.39894679726E+03  0.16734162885E+03 -0.18679494812E+03  0.47122953872E+03  0.17770000000E+01 0.  1.
</event>
<event>
 7    1  0.4378490E-007  0.7719535E+03  0.7546771E-02  0.8938185E-01
        -11   -1    0    0    0    0  0.00000000000E+00  0.00000000000E+00  0.50000000000E+03  0.50000000000E+03  0.00000000000E+00 0.  1.
         11   -1    0    0    0    0 -0.00000000000E+00 -0.00000000000E+00 -0.50000000000E+03  0.50000000000E+03  0.00000000000E+00 0. -1.
         23    2    1    2    0    0 -0.15955224170E+02  0.17141453835E+03  0.12019248503E+03  0.22804654698E+03  0.89002702208E+02 0.  0.
        -11    1    3    3    0    0  0.16432217984E+02  0.12742545820E+02 -0.71959709597E+01  0.22003914649E+02  0.00000000000E+00 0. -1.
         11    1    3    3    0    0 -0.32387442154E+02  0.15867199253E+03  0.12738845599E+03  0.20604263234E+03  0.00000000000E+00 0.  1.
        -15    1    1    2    0    0 -0.29744990643E+03 -0.17982173843E+03  0.12973143970E+03  0.37100634580E+03  0.17770000000E+01 0.  1.
         15    1    1    2    0    0  0.31340513060E+03  0.84072000825E+01 -0.24992392473E+03  0.40094710721E+03  0.17770000000E+01 0. -1.
</event>
<event>
 7    1  0.4378490E-007  0.1000000E+04  0.7546771E-02  0.8684367E-01
        -11   -1    0    0    0    0  0.00000000000E+00  0.00000000000E+00  0.50000000000E+03  0.50000000000E+03  0.00000000000E+00 0. -1.
         11   -1    0    0    0    0 -0.00000000000E+00 -0.00000000000E+00 -0.50000000000E+03  0.50000000000E+03  0.00000000000E+00 0.  1.
         23    2    1    2    0    0 -0.21023803166E+03  0.98146256107E+02  0.67466538310E+02  0.25862305474E+03  0.92203216352E+02 0.  0.
        -11    1    3    3    0    0 -0.21696854425E+03  0.85297921305E+02  0.55084952904E+02  0.23955257588E+03  0.00000000000E+00 0. -1.
         11    1    3    3    0    0  0.67305125868E+01  0.12848334802E+02  0.12381585406E+02  0.19070478862E+02  0.00000000000E+00 0.  1.
        -15    1    1    2    0    0 -0.21031249631E+03  0.12063305762E+03 -0.10833307853E+03  0.26556146996E+03  0.17770000000E+01 0. -1.
         15    1    1    2    0    0  0.42055052798E+03 -0.21877931373E+03  0.40866540217E+02  0.47581547530E+03  0.17770000000E+01 0.  1.
</event>
<event>
 7    1  0.4378490E-007  0.1000000E+04  0.7546771E-02  0.8684367E-01
        -11   -1    0    0    0    0  0.00000000000E+00  0.00000000000E+00  0.50000000000E+03  0.50000000000E+03  0.00000000000E+00 0.  1.
         11   -1    0    0    0    0 -0.00000000000E+00 -0.00000000000E+00 -0.50000000000E+03  0.50000000000E+03  0.00000000000E+00 0. -1.
         23    2    1    2    0    0 -0.28902191830E+03 -0.12335907552E+03 -0.13721431118E+03  0.35503516550E+03  0.92038420091E+02 0.  0.
        -11    1    3    3    0    0 -0.22365756243E+03 -0.94497669359E+02 -0.60553413366E+02  0.25023834762E+03  0.00000000000E+00 0.  1.
         11    1    3    3    0    0 -0.65364355868E+02 -0.28861406165E+02 -0.76660897812E+02  0.10479681788E+03  0.00000000000E+00 0. -1.
        -15    1    1    2    0    0  0.87599182772E+02 -0.12260217544E+03 -0.15282419847E+03  0.21462363246E+03  0.17770000000E+01 0. -1.
         15    1    1    2    0    0  0.20142273553E+03  0.24596125097E+03  0.29003850965E+03  0.43034120204E+03  0.17770000000E+01 0.  1.
</event>
<event>
 7    1  0.4378490E-007  0.6579597E+03  0.7546771E-02  0.9102549E-01
        -11   -1    0    0    0    0  0.00000000000E+00  0.00000000000E+00  0.50000000000E+03  0.50000000000E+03  0.00000000000E+00 0. -1.
         11   -1    0    0    0    0 -0.00000000000E+00 -0.00000000000E+00 -0.50000000000E+03  0.50000000000E+03  0.00000000000E+00 0.  1.
         23    2    1    2    0    0 -0.30057638280E+02  0.11232497043E+03 -0.30842714207E+03  0.34204030266E+03  0.91344983895E+02 0.  0.
        -11    1    3    3    0    0 -0.24166567108E+02 -0.92422679531E+01 -0.62496552743E+02  0.67640679975E+02  0.00000000000E+00 0. -1.
         11    1    3    3    0    0 -0.58910711720E+01  0.12156723838E+03 -0.24593058932E+03  0.27439962269E+03  0.00000000000E+00 0.  1.
        -15    1    1    2    0    0 -0.25243424851E+03  0.27650816223E+02  0.20432083344E+03  0.32594137228E+03  0.17770000000E+01 0. -1.
         15    1    1    2    0    0  0.28249188679E+03 -0.13997578665E+03  0.10410630863E+03  0.33201832506E+03  0.17770000000E+01 0.  1.
</event>
<event>
 7    1  0.4378490E-007  0.1000000E+04  0.7546771E-02  0.8684367E-01
        -11   -1    0    0    0    0  0.00000000000E+00  0.00000000000E+00  0.50000000000E+03  0.50000000000E+03  0.00000000000E+00 0.  1.
         11   -1    0    0    0    0 -0.00000000000E+00 -0.00000000000E+00 -0.50000000000E+03  0.50000000000E+03  0.00000000000E+00 0. -1.
         23    2    1    2    0    0 -0.24306129934E+03 -0.27397281705E+02 -0.19551180901E+03  0.32618957074E+03  0.91352954601E+02 0.  0.
        -11    1    3    3    0    0 -0.18219402381E+03 -0.33390693528E+02 -0.18908094616E+03  0.26469077227E+03  0.00000000000E+00 0.  1.
         11    1    3    3    0    0 -0.60867275532E+02  0.59934118232E+01 -0.64308628539E+01  0.61498798469E+02  0.00000000000E+00 0. -1.
        -15    1    1    2    0    0  0.38563228658E+03  0.10741794301E+03  0.28120392697E+03  0.48921332894E+03  0.17770000000E+01 0.  1.
         15    1    1    2    0    0 -0.14257098725E+03 -0.80020661301E+02 -0.85692117961E+02  0.18459710033E+03  0.17770000000E+01 0. -1.
</event>
<event>
 7    1  0.4378490E-007  0.1000000E+04  0.7546771E-02  0.8684367E-01
        -11   -1    0    0    0    0  0.00000000000E+00  0.00000000000E+00  0.50000000000E+03  0.50000000000E+03  0.00000000000E+00 0.  1.
         11   -1    0    0    0    0 -0.00000000000E+00 -0.00000000000E+00 -0.50000000000E+03  0.50000000000E+03  0.00000000000E+00 0. -1.
         23    2    1    2    0    0 -0.17410641974E+03 -0.34980338391E+02 -0.34201260097E+03  0.39583251985E+03  0.90410702241E+02 0.  0.
        -11    1    3    3    0    0  0.14556801623E+01  0.78594080669E+01 -0.62370384491E+02  0.62880475201E+02  0.00000000000E+00 0.  1.
         11    1    3    3    0    0 -0.17556209990E+03 -0.42839746458E+02 -0.27964221648E+03  0.33295204465E+03  0.00000000000E+00 0. -1.
        -15    1    1    2    0    0 -0.13906991531E+03 -0.48098802301E+02  0.22063711084E+02  0.14880826994E+03  0.17770000000E+01 0. -1.
         15    1    1    2    0    0  0.31317633505E+03  0.83079140693E+02  0.31994888989E+03  0.45535921021E+03  0.17770000000E+01 0.  1.
</event>
<event>
 7    1  0.4378490E-007  0.1000000E+04  0.7546771E-02  0.8684367E-01
        -11   -1    0    0    0    0  0.00000000000E+00  0.00000000000E+00  0.50000000000E+03  0.50000000000E+03  0.00000000000E+00 0.  1.
         11   -1    0    0    0    0 -0.00000000000E+00 -0.00000000000E+00 -0.50000000000E+03  0.50000000000E+03  0.00000000000E+00 0. -1.
         23    2    1    2    0    0  0.19489995139E+03 -0.37871830608E+03  0.32457562192E+02  0.43676632361E+03  0.91092160425E+02 0.  0.
        -11    1    3    3    0    0  0.81092577745E+02 -0.20779206239E+03  0.56266845698E+02  0.23004239888E+03  0.00000000000E+00 0. -1.
         11    1    3    3    0    0  0.11380737364E+03 -0.17092624369E+03 -0.23809283506E+02  0.20672392474E+03  0.00000000000E+00 0.  1.
        -15    1    1    2    0    0 -0.43493683382E+02  0.11348898342E+02  0.12726609599E+03  0.13498264668E+03  0.17770000000E+01 0.  1.
         15    1    1    2    0    0 -0.15140626801E+03  0.36736940773E+03 -0.15972365818E+03  0.42825102970E+03  0.17770000000E+01 0. -1.
</event>
<event>
 7    1  0.4378490E-007  0.8686705E+03  0.7546771E-02  0.8820585E-01
        -11   -1    0    0    0    0  0.00000000000E+00  0.00000000000E+00  0.50000000000E+03  0.50000000000E+03  0.00000000000E+00 0.  1.
         11   -1    0    0    0    0 -0.00000000000E+00 -0.00000000000E+00 -0.50000000000E+03  0.50000000000E+03  0.00000000000E+00 0. -1.
         23    2    1    2    0    0  0.15326418111E+02  0.43045476906E+02  0.83395990412E+02  0.13132950960E+03  0.90580001655E+02 0.  0.
        -11    1    3    3    0    0 -0.23776742674E+02  0.45785659966E+02  0.75339651133E+02  0.91311133952E+02  0.00000000000E+00 0.  1.
         11    1    3    3    0    0  0.39103160785E+02 -0.27401830597E+01  0.80563392786E+01  0.40018375644E+02  0.00000000000E+00 0. -1.
        -15    1    1    2    0    0 -0.31091357546E+03  0.65197725083E+02  0.25436138171E+03  0.40696543464E+03  0.17770000000E+01 0.  1.
         15    1    1    2    0    0  0.29558715735E+03 -0.10824320199E+03 -0.33775737212E+03  0.46170505576E+03  0.17770000000E+01 0. -1.
</event>
<event>
 7    1  0.4378490E-007  0.1000000E+04  0.7546771E-02  0.8684367E-01
        -11   -1    0    0    0    0  0.00000000000E+00  0.00000000000E+00  0.50000000000E+03  0.50000000000E+03  0.00000000000E+00 0. -1.
         11   -1    0    0    0    0 -0.00000000000E+00 -0.00000000000E+00 -0.50000000000E+03  0.50000000000E+03  0.00000000000E+00 0. -1.
         23    2    1    2    0    0  0.51004848539E+02  0.23163740463E+02  0.26312246170E+03  0.28143978834E+03  0.82685374555E+02 0.  0.
        -11    1    3    3    0    0  0.17298128837E+02 -0.30955483682E+02  0.10997564212E+03  0.11555132666E+03  0.00000000000E+00 0. -1.
         11    1    3    3    0    0  0.33706719702E+02  0.54119224145E+02  0.15314681958E+03  0.16588846169E+03  0.00000000000E+00 0. -1.
        -15    1    1    2    0    0 -0.98940347644E+02 -0.86703983516E+02  0.20507027846E+03  0.24364677299E+03  0.17770000000E+01 0.  1.
         15    1    1    2    0    0  0.47935499105E+02  0.63540243053E+02 -0.46819274016E+03  0.47491343867E+03  0.17770000000E+01 0. -1.
</event>
<event>
 7    1  0.4378490E-007  0.6523974E+03  0.7546771E-02  0.9111454E-01
        -11   -1    0    0    0    0  0.00000000000E+00  0.00000000000E+00  0.50000000000E+03  0.50000000000E+03  0.00000000000E+00 0.  1.
         11   -1    0    0    0    0 -0.00000000000E+00 -0.00000000000E+00 -0.50000000000E+03  0.50000000000E+03  0.00000000000E+00 0. -1.
         23    2    1    2    0    0  0.59396960782E+02  0.68034905156E+02 -0.32327845220E+03  0.34760256314E+03  0.90342885565E+02 0.  0.
        -11    1    3    3    0    0 -0.14819203600E+02 -0.88283527319E+01 -0.22110177837E+02  0.28042977219E+02  0.00000000000E+00 0.  1.
         11    1    3    3    0    0  0.74216164382E+02  0.76863257888E+02 -0.30116827436E+03  0.31955958592E+03  0.00000000000E+00 0. -1.
        -15    1    1    2    0    0  0.18995569343E+03  0.13740707637E+03  0.79163054799E+02  0.24745467681E+03  0.17770000000E+01 0.  1.
         15    1    1    2    0    0 -0.24935265421E+03 -0.20544198153E+03  0.24411539740E+03  0.40494276005E+03  0.17770000000E+01 0. -1.
</event>
<event>
 7    1  0.4378490E-007  0.8580364E+03  0.7546771E-02  0.8832709E-01
        -11   -1    0    0    0    0  0.00000000000E+00  0.00000000000E+00  0.50000000000E+03  0.50000000000E+03  0.00000000000E+00 0.  1.
         11   -1    0    0    0    0 -0.00000000000E+00 -0.00000000000E+00 -0.50000000000E+03  0.50000000000E+03  0.00000000000E+00 0. -1.
         23    2    1    2    0    0 -0.36685609154E+02 -0.60303136347E+02  0.81134151599E+02  0.14196358731E+03  0.92674739787E+02 0.  0.
        -11    1    3    3    0    0 -0.40980194863E+02 -0.82333161849E+02  0.75063227250E+02  0.11871231611E+03  0.00000000000E+00 0.  1.
         11    1    3    3    0    0  0.42945857088E+01  0.22030025503E+02  0.60709243497E+01  0.23251271202E+02  0.00000000000E+00 0. -1.
        -15    1    1    2    0    0  0.12513393918E+03 -0.36543191136E+03 -0.15642209024E+03  0.41673734248E+03  0.17770000000E+01 0.  1.
         15    1    1    2    0    0 -0.88448330028E+02  0.42573504771E+03  0.75287938639E+02  0.44129907021E+03  0.17770000000E+01 0. -1.
</event>
<event>
 7    1  0.4378490E-007  0.7299689E+03  0.7546771E-02  0.8995020E-01
        -11   -1    0    0    0    0  0.00000000000E+00  0.00000000000E+00  0.50000000000E+03  0.50000000000E+03  0.00000000000E+00 0. -1.
         11   -1    0    0    0    0 -0.00000000000E+00 -0.00000000000E+00 -0.50000000000E+03  0.50000000000E+03  0.00000000000E+00 0.  1.
         23    2    1    2    0    0 -0.26912035880E+02 -0.22327899042E+02  0.25549907204E+03  0.27003108561E+03  0.80088817129E+02 0.  0.
        -11    1    3    3    0    0  0.23763181030E+02 -0.19693074145E+02  0.53575281180E+02  0.61828930893E+02  0.00000000000E+00 0.  1.
         11    1    3    3    0    0 -0.50675216910E+02 -0.26348248968E+01  0.20192379086E+03  0.20820215472E+03  0.00000000000E+00 0. -1.
        -15    1    1    2    0    0 -0.19452606343E+03 -0.25685414572E+03 -0.16647865687E+03  0.36267443037E+03  0.17770000000E+01 0.  1.
         15    1    1    2    0    0  0.22143809931E+03  0.27918204476E+03 -0.89020415176E+02  0.36729448402E+03  0.17770000000E+01 0. -1.
</event>
<event>
 6    1  0.4378490E-007  0.4256330E+03  0.7546771E-02  0.9583555E-01
        -11   -1    0    0    0    0  0.00000000000E+00  0.00000000000E+00  0.50000000000E+03  0.50000000000E+03  0.00000000000E+00 0.  1.
         11   -1    0    0    0    0 -0.00000000000E+00 -0.00000000000E+00 -0.50000000000E+03  0.50000000000E+03  0.00000000000E+00 0. -1.
        -11    1    1    2    0    0 -0.12598162298E+03 -0.30350522745E+03  0.25700392431E+03  0.41717839053E+03  0.00000000000E+00 0.  1.
         11    1    1    2    0    0  0.19675811115E+01 -0.20604730283E+02 -0.20434896636E+02  0.29086273154E+02  0.00000000000E+00 0. -1.
        -15    1    1    2    0    0 -0.67282441034E+02  0.67523310082E+02  0.63874907515E+02  0.11475838015E+03  0.17770000000E+01 0.  1.
         15    1    1    2    0    0  0.19129648290E+03  0.25658664765E+03 -0.30044393519E+03  0.43897695616E+03  0.17770000000E+01 0. -1.
</event>
<event>
 7    1  0.4378490E-007  0.7573638E+03  0.7546771E-02  0.8957494E-01
        -11   -1    0    0    0    0  0.00000000000E+00  0.00000000000E+00  0.50000000000E+03  0.50000000000E+03  0.00000000000E+00 0. -1.
         11   -1    0    0    0    0 -0.00000000000E+00 -0.00000000000E+00 -0.50000000000E+03  0.50000000000E+03  0.00000000000E+00 0.  1.
         23    2    1    2    0    0  0.18178616259E+03 -0.38675042454E+02  0.12806645605E+03  0.24263617199E+03  0.89046768486E+02 0.  0.
        -11    1    3    3    0    0  0.71297018321E+02 -0.37678090905E+02  0.10031840674E+03  0.12871163928E+03  0.00000000000E+00 0. -1.
         11    1    3    3    0    0  0.11048914427E+03 -0.99695154906E+00  0.27748049308E+02  0.11392453271E+03  0.00000000000E+00 0.  1.
        -15    1    1    2    0    0  0.27062439296E+01 -0.33217005618E+03 -0.61990430843E+02  0.33792046582E+03  0.17770000000E+01 0. -1.
         15    1    1    2    0    0 -0.18449240652E+03  0.37084509863E+03 -0.66076025206E+02  0.41944336218E+03  0.17770000000E+01 0.  1.
</event>
<event>
 7    1  0.4378490E-007  0.7991237E+03  0.7546771E-02  0.8903393E-01
        -11   -1    0    0    0    0  0.00000000000E+00  0.00000000000E+00  0.50000000000E+03  0.50000000000E+03  0.00000000000E+00 0. -1.
         11   -1    0    0    0    0 -0.00000000000E+00 -0.00000000000E+00 -0.50000000000E+03  0.50000000000E+03  0.00000000000E+00 0.  1.
         23    2    1    2    0    0 -0.17674201838E+02 -0.31973570733E-01  0.17778394122E+03  0.20087632822E+03  0.91824784509E+02 0.  0.
        -11    1    3    3    0    0 -0.33151306564E+02 -0.27650419106E+02  0.15742323860E+03  0.16323489472E+03  0.00000000000E+00 0. -1.
         11    1    3    3    0    0  0.15477104726E+02  0.27618445536E+02  0.20360702620E+02  0.37641433497E+02  0.00000000000E+00 0.  1.
        -15    1    1    2    0    0 -0.27614075056E+03  0.25716983780E+03 -0.15520737833E+03  0.40802270477E+03  0.17770000000E+01 0. -1.
         15    1    1    2    0    0  0.29381495240E+03 -0.25713786423E+03 -0.22576562889E+02  0.39110096701E+03  0.17770000000E+01 0.  1.
</event>
<event>
 7    1  0.4378490E-007  0.1000000E+04  0.7546771E-02  0.8684367E-01
        -11   -1    0    0    0    0  0.00000000000E+00  0.00000000000E+00  0.50000000000E+03  0.50000000000E+03  0.00000000000E+00 0. -1.
         11   -1    0    0    0    0 -0.00000000000E+00 -0.00000000000E+00 -0.50000000000E+03  0.50000000000E+03  0.00000000000E+00 0.  1.
         23    2    1    2    0    0  0.10968432046E+03  0.16728884465E+03  0.20419020680E+03  0.30066955535E+03  0.93232683453E+02 0.  0.
        -11    1    3    3    0    0  0.11157124969E+03  0.14913902628E+03  0.13745133365E+03  0.23148101874E+03  0.00000000000E+00 0. -1.
         11    1    3    3    0    0 -0.18869292306E+01  0.18149818374E+02  0.66738873149E+02  0.69188536609E+02  0.00000000000E+00 0.  1.
        -15    1    1    2    0    0 -0.18915776624E+03  0.10814248663E+03  0.13414311485E+03  0.25587690582E+03  0.17770000000E+01 0. -1.
         15    1    1    2    0    0  0.79473445782E+02 -0.27543133128E+03 -0.33833332165E+03  0.44345353883E+03  0.17770000000E+01 0.  1.
</event>
<event>
 7    1  0.4378490E-007  0.8138907E+03  0.7546771E-02  0.8885088E-01
        -11   -1    0    0    0    0  0.00000000000E+00  0.00000000000E+00  0.50000000000E+03  0.50000000000E+03  0.00000000000E+00 0.  1.
         11   -1    0    0    0    0 -0.00000000000E+00 -0.00000000000E+00 -0.50000000000E+03  0.50000000000E+03  0.00000000000E+00 0. -1.
         23    2    1    2    0    0 -0.12823612274E+03 -0.68207548432E+02 -0.74485797650E+02  0.18610927050E+03  0.89396608856E+02 0.  0.
        -11    1    3    3    0    0 -0.12587833270E+03 -0.30127268669E+02 -0.71426704647E+02  0.14783362641E+03  0.00000000000E+00 0. -1.
         11    1    3    3    0    0 -0.23577900472E+01 -0.38080279763E+02 -0.30590930034E+01  0.38275644093E+02  0.00000000000E+00 0.  1.
        -15    1    1    2    0    0  0.13273402013E+03 -0.35813686782E+03  0.64827747613E+02  0.38740951302E+03  0.17770000000E+01 0.  1.
         15    1    1    2    0    0 -0.44978973890E+01  0.42634441625E+03  0.96580500372E+01  0.42648121648E+03  0.17770000000E+01 0. -1.
</event>
<event>
 7    1  0.4378490E-007  0.1000000E+04  0.7546771E-02  0.8684367E-01
        -11   -1    0    0    0    0  0.00000000000E+00  0.00000000000E+00  0.50000000000E+03  0.50000000000E+03  0.00000000000E+00 0.  1.
         11   -1    0    0    0    0 -0.00000000000E+00 -0.00000000000E+00 -0.50000000000E+03  0.50000000000E+03  0.00000000000E+00 0. -1.
         23    2    1    2    0    0  0.11626381748E+03  0.81989373644E+02 -0.27925494449E+03  0.32657237555E+03  0.91796839866E+02 0.  0.
        -11    1    3    3    0    0 -0.14386405067E+02  0.17242136566E+02 -0.50907374015E+02  0.55640099328E+02  0.00000000000E+00 0.  1.
         11    1    3    3    0    0  0.13065022255E+03  0.64747237078E+02 -0.22834757047E+03  0.27093227623E+03  0.00000000000E+00 0. -1.
        -15    1    1    2    0    0 -0.11701828075E+03 -0.27993498473E+03  0.35000429215E+03  0.46320949467E+03  0.17770000000E+01 0.  1.
         15    1    1    2    0    0  0.75446326596E+00  0.19794561108E+03 -0.70749347663E+02  0.21021812977E+03  0.17770000000E+01 0. -1.
</event>
<event>
 7    1  0.4378490E-007  0.8508677E+03  0.7546771E-02  0.8840986E-01
        -11   -1    0    0    0    0  0.00000000000E+00  0.00000000000E+00  0.50000000000E+03  0.50000000000E+03  0.00000000000E+00 0.  1.
         11   -1    0    0    0    0 -0.00000000000E+00 -0.00000000000E+00 -0.50000000000E+03  0.50000000000E+03  0.00000000000E+00 0. -1.
         23    2    1    2    0    0 -0.33621331174E+01 -0.98567329267E+02 -0.65264457290E+02  0.14913228919E+03  0.90852451573E+02 0.  0.
        -11    1    3    3    0    0 -0.46564658795E+02 -0.42248864921E+02 -0.26230678722E+02  0.68126958996E+02  0.00000000000E+00 0.  1.
         11    1    3    3    0    0  0.43202525677E+02 -0.56318464346E+02 -0.39033778568E+02  0.81005330198E+02  0.00000000000E+00 0. -1.
        -15    1    1    2    0    0  0.30533716454E+03  0.16622796594E+03 -0.23503303995E+03  0.41965010224E+03  0.17770000000E+01 0. -1.
         15    1    1    2    0    0 -0.30197503143E+03 -0.67660636669E+02  0.30029749724E+03  0.43121760857E+03  0.17770000000E+01 0.  1.
</event>
<event>
 7    1  0.4378490E-007  0.8759467E+03  0.7546771E-02  0.8812393E-01
        -11   -1    0    0    0    0  0.00000000000E+00  0.00000000000E+00  0.50000000000E+03  0.50000000000E+03  0.00000000000E+00 0. -1.
         11   -1    0    0    0    0 -0.00000000000E+00 -0.00000000000E+00 -0.50000000000E+03  0.50000000000E+03  0.00000000000E+00 0.  1.
         23    2    1    2    0    0  0.41984748428E+02 -0.74017709946E+02  0.72171174785E+01  0.12405325602E+03  0.89976569495E+02 0.  0.
        -11    1    3    3    0    0 -0.41329252090E+01  0.11925191931E+02 -0.19225125126E+02  0.22997754444E+02  0.00000000000E+00 0.  1.
         11    1    3    3    0    0  0.46117673637E+02 -0.85942901877E+02  0.26442242604E+02  0.10105550158E+03  0.00000000000E+00 0. -1.
        -15    1    1    2    0    0 -0.23378689547E+03 -0.19521190436E+03  0.29793408540E+03  0.42606557837E+03  0.17770000000E+01 0. -1.
         15    1    1    2    0    0  0.19180214704E+03  0.26922961431E+03 -0.30515120288E+03  0.44988116562E+03  0.17770000000E+01 0.  1.
</event>
<event>
 7    1  0.4378490E-007  0.7923183E+03  0.7546771E-02  0.8911969E-01
        -11   -1    0    0    0    0  0.00000000000E+00  0.00000000000E+00  0.50000000000E+03  0.50000000000E+03  0.00000000000E+00 0. -1.
         11   -1    0    0    0    0 -0.00000000000E+00 -0.00000000000E+00 -0.50000000000E+03  0.50000000000E+03  0.00000000000E+00 0.  1.
         23    2    1    2    0    0 -0.14800814626E+03 -0.58976341878E+02  0.97991106226E+02  0.20768167115E+03  0.90248542199E+02 0.  0.
        -11    1    3    3    0    0 -0.69944899510E+01 -0.94112163610E+01 -0.15906184314E+02  0.19761087584E+02  0.00000000000E+00 0.  1.
         11    1    3    3    0    0 -0.14101365631E+03 -0.49565125517E+02  0.11389729054E+03  0.18792058356E+03  0.00000000000E+00 0. -1.
        -15    1    1    2    0    0  0.55759979138E+01  0.38484747604E+03 -0.18371561863E+03  0.42648945804E+03  0.17770000000E+01 0.  1.
         15    1    1    2    0    0  0.14243214835E+03 -0.32587113416E+03  0.85724512409E+02  0.36582887081E+03  0.17770000000E+01 0. -1.
</event>
<event>
 7    1  0.4378490E-007  0.8046268E+03  0.7546771E-02  0.8896523E-01
        -11   -1    0    0    0    0  0.00000000000E+00  0.00000000000E+00  0.50000000000E+03  0.50000000000E+03  0.00000000000E+00 0.  1.
         11   -1    0    0    0    0 -0.00000000000E+00 -0.00000000000E+00 -0.50000000000E+03  0.50000000000E+03  0.00000000000E+00 0. -1.
         23    2    1    2    0    0 -0.13035893773E+03  0.27292963598E+02 -0.10943619196E+03  0.19537323947E+03  0.91956859896E+02 0.  0.
        -11    1    3    3    0    0 -0.21611111926E+02 -0.29040564326E+02 -0.42412914816E+02  0.55760648116E+02  0.00000000000E+00 0.  1.
         11    1    3    3    0    0 -0.10874782581E+03  0.56333527924E+02 -0.67023277148E+02  0.13961259136E+03  0.00000000000E+00 0. -1.
        -15    1    1    2    0    0  0.30586901401E+03  0.19882382309E+03 -0.17188747861E+03  0.40328058395E+03  0.17770000000E+01 0.  1.
         15    1    1    2    0    0 -0.17551007627E+03 -0.22611678669E+03  0.28132367058E+03  0.40134617658E+03  0.17770000000E+01 0. -1.
</event>
<event>
 7    1  0.4378490E-007  0.7392215E+03  0.7546771E-02  0.8982155E-01
        -11   -1    0    0    0    0  0.00000000000E+00  0.00000000000E+00  0.50000000000E+03  0.50000000000E+03  0.00000000000E+00 0. -1.
         11   -1    0    0    0    0 -0.00000000000E+00 -0.00000000000E+00 -0.50000000000E+03  0.50000000000E+03  0.00000000000E+00 0.  1.
         23    2    1    2    0    0 -0.77232025792E+02 -0.75249190631E+02 -0.21911875945E+03  0.26077845495E+03  0.91461168398E+02 0.  0.
        -11    1    3    3    0    0  0.12215063115E+02 -0.36887224720E+02 -0.97856898352E+02  0.10528935212E+03  0.00000000000E+00 0. -1.
         11    1    3    3    0    0 -0.89447088907E+02 -0.38361965911E+02 -0.12126186110E+03  0.15548910283E+03  0.00000000000E+00 0.  1.
        -15    1    1    2    0    0  0.23978243839E+03  0.16688388509E+03 -0.14792751387E+03  0.32746229700E+03  0.17770000000E+01 0. -1.
         15    1    1    2    0    0 -0.16255041260E+03 -0.91634694463E+02  0.36704627332E+03  0.41175924805E+03  0.17770000000E+01 0.  1.
</event>
<event>
 7    1  0.4378490E-007  0.8609928E+03  0.7546771E-02  0.8829320E-01
        -11   -1    0    0    0    0  0.00000000000E+00  0.00000000000E+00  0.50000000000E+03  0.50000000000E+03  0.00000000000E+00 0. -1.
         11   -1    0    0    0    0 -0.00000000000E+00 -0.00000000000E+00 -0.50000000000E+03  0.50000000000E+03  0.00000000000E+00 0.  1.
         23    2    1    2    0    0 -0.36228597142E+02 -0.49613541590E+02 -0.85481034633E+02  0.13900719084E+03  0.90785335061E+02 0.  0.
        -11    1    3    3    0    0  0.11206714466E+02  0.97695967313E+01  0.92850512680E+01  0.17528481008E+02  0.00000000000E+00 0. -1.
         11    1    3    3    0    0 -0.47435311608E+02 -0.59383138321E+02 -0.94766085901E+02  0.12147870983E+03  0.00000000000E+00 0.  1.
        -15    1    1    2    0    0  0.10588595662E+03 -0.39309401184E+03  0.15499635195E+02  0.40740414133E+03  0.17770000000E+01 0.  1.
         15    1    1    2    0    0 -0.69657359479E+02  0.44270755343E+03  0.69981399439E+02  0.45358866783E+03  0.17770000000E+01 0. -1.
</event>
<event>
 7    1  0.4378490E-007  0.8696487E+03  0.7546771E-02  0.8819478E-01
        -11   -1    0    0    0    0  0.00000000000E+00  0.00000000000E+00  0.50000000000E+03  0.50000000000E+03  0.00000000000E+00 0.  1.
         11   -1    0    0    0    0 -0.00000000000E+00 -0.00000000000E+00 -0.50000000000E+03  0.50000000000E+03  0.00000000000E+00 0. -1.
         23    2    1    2    0    0 -0.63570767745E+02 -0.17139864118E+02 -0.66787503507E+02  0.13035127573E+03  0.90531027861E+02 0.  0.
        -11    1    3    3    0    0  0.16993023871E+02  0.91041921967E+01  0.42973972513E+01  0.19751374610E+02  0.00000000000E+00 0.  1.
         11    1    3    3    0    0 -0.80563791617E+02 -0.26244056315E+02 -0.71084900758E+02  0.11059990112E+03  0.00000000000E+00 0. -1.
        -15    1    1    2    0    0  0.37861888015E+03 -0.11462956280E+03 -0.19338572162E+03  0.44033326939E+03  0.17770000000E+01 0.  1.
         15    1    1    2    0    0 -0.31504811241E+03  0.13176942691E+03  0.26017322512E+03  0.42931545488E+03  0.17770000000E+01 0. -1.
</event>
<event>
 7    1  0.4378490E-007  0.1000000E+04  0.7546771E-02  0.8684367E-01
        -11   -1    0    0    0    0  0.00000000000E+00  0.00000000000E+00  0.50000000000E+03  0.50000000000E+03  0.00000000000E+00 0.  1.
         11   -1    0    0    0    0 -0.00000000000E+00 -0.00000000000E+00 -0.50000000000E+03  0.50000000000E+03  0.00000000000E+00 0. -1.
         23    2    1    2    0    0  0.30880315327E+03  0.99806122768E+02 -0.29735126341E+03  0.44950066711E+03  0.91172508301E+02 0.  0.
        -11    1    3    3    0    0  0.65185968224E+02  0.56323011350E+02 -0.49978842273E+02  0.99596067873E+02  0.00000000000E+00 0.  1.
         11    1    3    3    0    0  0.24361718505E+03  0.43483111418E+02 -0.24737242113E+03  0.34990459924E+03  0.00000000000E+00 0. -1.
        -15    1    1    2    0    0 -0.30126046695E+03 -0.13696780567E+03  0.35252771927E+03  0.48352559324E+03  0.17770000000E+01 0.  1.
         15    1    1    2    0    0 -0.75426863193E+01  0.37161682898E+02 -0.55176455858E+02  0.66973739650E+02  0.17770000000E+01 0. -1.
</event>
<event>
 7    1  0.4378490E-007  0.1000000E+04  0.7546771E-02  0.8684367E-01
        -11   -1    0    0    0    0  0.00000000000E+00  0.00000000000E+00  0.50000000000E+03  0.50000000000E+03  0.00000000000E+00 0.  1.
         11   -1    0    0    0    0 -0.00000000000E+00 -0.00000000000E+00 -0.50000000000E+03  0.50000000000E+03  0.00000000000E+00 0. -1.
         23    2    1    2    0    0 -0.19154750047E+02  0.19481752048E+02  0.23003164977E+03  0.24761177664E+03  0.87467644989E+02 0.  0.
        -11    1    3    3    0    0 -0.49653302997E+01 -0.99230927255E+01 -0.36341389690E+01  0.11676011317E+02  0.00000000000E+00 0. -1.
         11    1    3    3    0    0 -0.14189419747E+02  0.29404844774E+02  0.23366578874E+03  0.23593576532E+03  0.00000000000E+00 0.  1.
        -15    1    1    2    0    0 -0.11072214456E+03 -0.88868322914E+01  0.24008560565E+03  0.26454229313E+03  0.17770000000E+01 0.  1.
         15    1    1    2    0    0  0.12987689460E+03 -0.10594919757E+02 -0.47011725542E+03  0.48784593024E+03  0.17770000000E+01 0. -1.
</event>
<event>
 7    1  0.4378490E-007  0.6666348E+03  0.7546771E-02  0.9088843E-01
        -11   -1    0    0    0    0  0.00000000000E+00  0.00000000000E+00  0.50000000000E+03  0.50000000000E+03  0.00000000000E+00 0.  1.
         11   -1    0    0    0    0 -0.00000000000E+00 -0.00000000000E+00 -0.50000000000E+03  0.50000000000E+03  0.00000000000E+00 0. -1.
         23    2    1    2    0    0 -0.26221088590E+02  0.29777227290E+03 -0.11587789040E+03  0.33336516190E+03  0.91371624105E+02 0.  0.
        -11    1    3    3    0    0 -0.43391677718E+02  0.90242361780E+02 -0.12600436014E+02  0.10092221035E+03  0.00000000000E+00 0. -1.
         11    1    3    3    0    0  0.17170589128E+02  0.20752991112E+03 -0.10327745439E+03  0.23244295155E+03  0.00000000000E+00 0.  1.
        -15    1    1    2    0    0  0.20097912522E+03  0.13749565499E+02  0.21630534853E+03  0.29558893900E+03  0.17770000000E+01 0.  1.
         15    1    1    2    0    0 -0.17475803663E+03 -0.31152183840E+03 -0.10042745813E+03  0.37104589910E+03  0.17770000000E+01 0. -1.
</event>
<event>
 7    1  0.4378490E-007  0.1000000E+04  0.7546771E-02  0.8684367E-01
        -11   -1    0    0    0    0  0.00000000000E+00  0.00000000000E+00  0.50000000000E+03  0.50000000000E+03  0.00000000000E+00 0. -1.
         11   -1    0    0    0    0 -0.00000000000E+00 -0.00000000000E+00 -0.50000000000E+03  0.50000000000E+03  0.00000000000E+00 0.  1.
         23    2    1    2    0    0  0.12776173738E+03  0.78151247330E+02 -0.15227610731E+03  0.23257312390E+03  0.92041110964E+02 0.  0.
        -11    1    3    3    0    0 -0.54815855898E+00 -0.13103423113E+02  0.58141213147E+00  0.13127765048E+02  0.00000000000E+00 0. -1.
         11    1    3    3    0    0  0.12830989594E+03  0.91254670444E+02 -0.15285751944E+03  0.21944535885E+03  0.00000000000E+00 0.  1.
        -15    1    1    2    0    0 -0.35603151465E+03 -0.19388916585E+03  0.26857811774E+03  0.48630115270E+03  0.17770000000E+01 0. -1.
         15    1    1    2    0    0  0.22826977727E+03  0.11573791852E+03 -0.11630201043E+03  0.28112572340E+03  0.17770000000E+01 0.  1.
</event>
<event>
 7    1  0.4378490E-007  0.1000000E+04  0.7546771E-02  0.8684367E-01
        -11   -1    0    0    0    0  0.00000000000E+00  0.00000000000E+00  0.50000000000E+03  0.50000000000E+03  0.00000000000E+00 0.  1.
         11   -1    0    0    0    0 -0.00000000000E+00 -0.00000000000E+00 -0.50000000000E+03  0.50000000000E+03  0.00000000000E+00 0. -1.
         23    2    1    2    0    0  0.73463511415E+02  0.55899646699E+02 -0.25487077622E+02  0.13265916368E+03  0.91799807040E+02 0.  0.
        -11    1    3    3    0    0 -0.47654383991E+01 -0.16980056142E+02  0.96663885644E+01  0.20111458863E+02  0.00000000000E+00 0. -1.
         11    1    3    3    0    0  0.78228949814E+02  0.72879702841E+02 -0.35153466187E+02  0.11254770482E+03  0.00000000000E+00 0.  1.
        -15    1    1    2    0    0 -0.44375185159E+03  0.29885070651E+02  0.14678434873E+03  0.46835630240E+03  0.17770000000E+01 0.  1.
         15    1    1    2    0    0  0.37028834017E+03 -0.85784717350E+02 -0.12129727111E+03  0.39898453392E+03  0.17770000000E+01 0. -1.
</event>
<event>
 7    1  0.4378490E-007  0.8388033E+03  0.7546771E-02  0.8855112E-01
        -11   -1    0    0    0    0  0.00000000000E+00  0.00000000000E+00  0.50000000000E+03  0.50000000000E+03  0.00000000000E+00 0. -1.
         11   -1    0    0    0    0 -0.00000000000E+00 -0.00000000000E+00 -0.50000000000E+03  0.50000000000E+03  0.00000000000E+00 0.  1.
         23    2    1    2    0    0 -0.11939421817E+03  0.33864393640E+02 -0.41876522836E+02  0.16119666316E+03  0.93962463573E+02 0.  0.
        -11    1    3    3    0    0 -0.11047749429E+03  0.18367300095E+02 -0.66891043848E+02  0.13044940093E+03  0.00000000000E+00 0.  1.
         11    1    3    3    0    0 -0.89167238831E+01  0.15497093545E+02  0.25014521012E+02  0.30747262229E+02  0.00000000000E+00 0. -1.
        -15    1    1    2    0    0  0.67436200409E+02  0.26001659028E+03  0.32895334290E+03  0.42469957368E+03  0.17770000000E+01 0. -1.
         15    1    1    2    0    0  0.51958017760E+02 -0.29388098392E+03 -0.28707682006E+03  0.41410376316E+03  0.17770000000E+01 0.  1.
</event>
<event>
 7    1  0.4378490E-007  0.7771226E+03  0.7546771E-02  0.8931451E-01
        -11   -1    0    0    0    0  0.00000000000E+00  0.00000000000E+00  0.50000000000E+03  0.50000000000E+03  0.00000000000E+00 0. -1.
         11   -1    0    0    0    0 -0.00000000000E+00 -0.00000000000E+00 -0.50000000000E+03  0.50000000000E+03  0.00000000000E+00 0.  1.
         23    2    1    2    0    0  0.17966530127E+02 -0.18310055127E+03  0.26320098577E+02  0.22287742851E+03  0.12301622848E+03 0.  0.
        -11    1    3    3    0    0 -0.46807863214E+02 -0.78657909051E+02 -0.15954149006E+02  0.92911665497E+02  0.00000000000E+00 0.  1.
         11    1    3    3    0    0  0.64774393341E+02 -0.10444264222E+03  0.42274247583E+02  0.12996576301E+03  0.00000000000E+00 0. -1.
        -15    1    1    2    0    0  0.32694660222E+03  0.29119822563E+01 -0.16213308253E+03  0.36495596245E+03  0.17770000000E+01 0.  1.
         15    1    1    2    0    0 -0.34491313235E+03  0.18018856902E+03  0.13581298395E+03  0.41216660904E+03  0.17770000000E+01 0. -1.
</event>
<event>
 7    1  0.4378490E-007  0.1000000E+04  0.7546771E-02  0.8684367E-01
        -11   -1    0    0    0    0  0.00000000000E+00  0.00000000000E+00  0.50000000000E+03  0.50000000000E+03  0.00000000000E+00 0. -1.
         11   -1    0    0    0    0 -0.00000000000E+00 -0.00000000000E+00 -0.50000000000E+03  0.50000000000E+03  0.00000000000E+00 0.  1.
         23    2    1    2    0    0 -0.20659176174E+02 -0.11954721469E+03  0.17540202640E+03  0.23135426217E+03  0.89669312812E+02 0.  0.
        -11    1    3    3    0    0 -0.47285544293E+02 -0.60330861652E+02  0.54274007822E+02  0.93922326908E+02  0.00000000000E+00 0.  1.
         11    1    3    3    0    0  0.26626368119E+02 -0.59216353041E+02  0.12112801858E+03  0.13743193526E+03  0.00000000000E+00 0. -1.
        -15    1    1    2    0    0 -0.40551669253E+02  0.31188552525E+03 -0.37181951982E+03  0.48700095666E+03  0.17770000000E+01 0.  1.
         15    1    1    2    0    0  0.61210845427E+02 -0.19233831056E+03  0.19641749342E+03  0.28164478117E+03  0.17770000000E+01 0. -1.
</event>
<event>
 7    1  0.4378490E-007  0.1000000E+04  0.7546771E-02  0.8684367E-01
        -11   -1    0    0    0    0  0.00000000000E+00  0.00000000000E+00  0.50000000000E+03  0.50000000000E+03  0.00000000000E+00 0. -1.
         11   -1    0    0    0    0 -0.00000000000E+00 -0.00000000000E+00 -0.50000000000E+03  0.50000000000E+03  0.00000000000E+00 0.  1.
         23    2    1    2    0    0 -0.10967243041E+03  0.27029263918E+02 -0.11039582616E+03  0.18238324416E+03  0.91201898101E+02 0.  0.
        -11    1    3    3    0    0 -0.97475500662E+02 -0.11748885490E+02 -0.10059740846E+03  0.14056794844E+03  0.00000000000E+00 0.  1.
         11    1    3    3    0    0 -0.12196929750E+02  0.38778149408E+02 -0.97984176960E+01  0.41815295721E+02  0.00000000000E+00 0. -1.
        -15    1    1    2    0    0  0.45088012891E+03  0.55336209373E+02  0.10649391460E+03  0.46658235960E+03  0.17770000000E+01 0. -1.
         15    1    1    2    0    0 -0.34120769849E+03 -0.82365473291E+02  0.39019115529E+01  0.35103439624E+03  0.17770000000E+01 0.  1.
</event>
<event>
 7    1  0.4378490E-007  0.1000000E+04  0.7546771E-02  0.8684367E-01
        -11   -1    0    0    0    0  0.00000000000E+00  0.00000000000E+00  0.50000000000E+03  0.50000000000E+03  0.00000000000E+00 0. -1.
         11   -1    0    0    0    0 -0.00000000000E+00 -0.00000000000E+00 -0.50000000000E+03  0.50000000000E+03  0.00000000000E+00 0.  1.
         23    2    1    2    0    0  0.27025674514E+03  0.11288388777E+03  0.62982894772E+02  0.31369396296E+03  0.93035353240E+02 0.  0.
        -11    1    3    3    0    0 -0.72965503669E+00 -0.97435014021E+01  0.65384342814E+00  0.97926363802E+01  0.00000000000E+00 0. -1.
         11    1    3    3    0    0  0.27098640018E+03  0.12262738918E+03  0.62329051344E+02  0.30390132658E+03  0.00000000000E+00 0.  1.
        -15    1    1    2    0    0 -0.40886806482E+03 -0.28637340119E+02 -0.21600212815E+03  0.46330688402E+03  0.17770000000E+01 0. -1.
         15    1    1    2    0    0  0.13861131968E+03 -0.84246547656E+02  0.15301923338E+03  0.22299915302E+03  0.17770000000E+01 0.  1.
</event>
<event>
 7    1  0.4378490E-007  0.1000000E+04  0.7546771E-02  0.8684367E-01
        -11   -1    0    0    0    0  0.00000000000E+00  0.00000000000E+00  0.50000000000E+03  0.50000000000E+03  0.00000000000E+00 0.  1.
         11   -1    0    0    0    0 -0.00000000000E+00 -0.00000000000E+00 -0.50000000000E+03  0.50000000000E+03  0.00000000000E+00 0. -1.
         23    2    1    2    0    0 -0.27331865283E+02  0.15853456143E+03 -0.18194851252E+03  0.25798330385E+03  0.87005090835E+02 0.  0.
        -11    1    3    3    0    0 -0.38341087124E+02  0.11792753050E+03 -0.17628572008E+03  0.21553096418E+03  0.00000000000E+00 0. -1.
         11    1    3    3    0    0  0.11009221841E+02  0.40607030923E+02 -0.56627924375E+01  0.42452339678E+02  0.00000000000E+00 0.  1.
        -15    1    1    2    0    0  0.25566749466E+02 -0.37080738805E+03  0.31859817960E+03  0.48955054436E+03  0.17770000000E+01 0.  1.
         15    1    1    2    0    0  0.17651158171E+01  0.21227282662E+03 -0.13664966708E+03  0.25246615179E+03  0.17770000000E+01 0. -1.
</event>
<event>
 7    1  0.4378490E-007  0.1000000E+04  0.7546771E-02  0.8684367E-01
        -11   -1    0    0    0    0  0.00000000000E+00  0.00000000000E+00  0.50000000000E+03  0.50000000000E+03  0.00000000000E+00 0.  1.
         11   -1    0    0    0    0 -0.00000000000E+00 -0.00000000000E+00 -0.50000000000E+03  0.50000000000E+03  0.00000000000E+00 0. -1.
         23    2    1    2    0    0 -0.12318195000E+03  0.97529819768E+02  0.49848944320E+02  0.18844390733E+03  0.91325409432E+02 0.  0.
        -11    1    3    3    0    0 -0.55342191404E+01  0.45527803263E+02 -0.94155951302E+01  0.46819460517E+02  0.00000000000E+00 0.  1.
         11    1    3    3    0    0 -0.11764773086E+03  0.52002016505E+02  0.59264539450E+02  0.14162444681E+03  0.00000000000E+00 0. -1.
        -15    1    1    2    0    0 -0.34021332708E+03 -0.55605463576E+02 -0.21543218089E+02  0.34540460836E+03  0.17770000000E+01 0.  1.
         15    1    1    2    0    0  0.46339527708E+03 -0.41924356192E+02 -0.28305726231E+02  0.46615148432E+03  0.17770000000E+01 0. -1.
</event>
<event>
 7    1  0.4378490E-007  0.1000000E+04  0.7546771E-02  0.8684367E-01
        -11   -1    0    0    0    0  0.00000000000E+00  0.00000000000E+00  0.50000000000E+03  0.50000000000E+03  0.00000000000E+00 0.  1.
         11   -1    0    0    0    0 -0.00000000000E+00 -0.00000000000E+00 -0.50000000000E+03  0.50000000000E+03  0.00000000000E+00 0. -1.
         23    2    1    2    0    0 -0.18721341352E+03 -0.11614260018E+03 -0.21316234826E+03  0.31953485740E+03  0.90146395366E+02 0.  0.
        -11    1    3    3    0    0 -0.23569054677E+02 -0.54948629857E+02 -0.79934772957E+02  0.99821942424E+02  0.00000000000E+00 0.  1.
         11    1    3    3    0    0 -0.16364435884E+03 -0.61193970326E+02 -0.13322757530E+03  0.21971291497E+03  0.00000000000E+00 0. -1.
        -15    1    1    2    0    0  0.33031122128E+03 -0.77751862012E+02  0.26907416102E+03  0.43307610972E+03  0.17770000000E+01 0.  1.
         15    1    1    2    0    0 -0.14309780777E+03  0.19389446219E+03 -0.55911812757E+02  0.24738903288E+03  0.17770000000E+01 0. -1.
</event>
<event>
 7    1  0.4378490E-007  0.7925311E+03  0.7546771E-02  0.8911700E-01
        -11   -1    0    0    0    0  0.00000000000E+00  0.00000000000E+00  0.50000000000E+03  0.50000000000E+03  0.00000000000E+00 0.  1.
         11   -1    0    0    0    0 -0.00000000000E+00 -0.00000000000E+00 -0.50000000000E+03  0.50000000000E+03  0.00000000000E+00 0. -1.
         23    2    1    2    0    0  0.94474060114E+01 -0.85321889437E+02  0.16732155976E+03  0.20746886538E+03  0.87622756425E+02 0.  0.
        -11    1    3    3    0    0 -0.16537737566E+02 -0.91909353494E+02  0.11074682257E+03  0.14486436668E+03  0.00000000000E+00 0. -1.
         11    1    3    3    0    0  0.25985143577E+02  0.65874640577E+01  0.56574737191E+02  0.62604498702E+02  0.00000000000E+00 0.  1.
        -15    1    1    2    0    0  0.10415276482E+03 -0.26475603208E+03 -0.28835664815E+03  0.40508797712E+03  0.17770000000E+01 0. -1.
         15    1    1    2    0    0 -0.11360017083E+03  0.35007792152E+03  0.12103508839E+03  0.38744315750E+03  0.17770000000E+01 0.  1.
</event>
<event>
 7    1  0.4378490E-007  0.1000000E+04  0.7546771E-02  0.8684367E-01
        -11   -1    0    0    0    0  0.00000000000E+00  0.00000000000E+00  0.50000000000E+03  0.50000000000E+03  0.00000000000E+00 0.  1.
         11   -1    0    0    0    0 -0.00000000000E+00 -0.00000000000E+00 -0.50000000000E+03  0.50000000000E+03  0.00000000000E+00 0. -1.
         23    2    1    2    0    0 -0.14378181002E+03  0.12732811278E+03 -0.31272096681E+03  0.37840727951E+03  0.92260549038E+02 0.  0.
        -11    1    3    3    0    0 -0.67920330473E+01 -0.49986108549E+01 -0.66921647806E+02  0.67450906358E+02  0.00000000000E+00 0.  1.
         11    1    3    3    0    0 -0.13698977697E+03  0.13232672363E+03 -0.24579931900E+03  0.31095637316E+03  0.00000000000E+00 0. -1.
        -15    1    1    2    0    0  0.27921187286E+03 -0.23437374602E+03  0.20986554037E+03  0.42063883027E+03  0.17770000000E+01 0.  1.
         15    1    1    2    0    0 -0.13543006284E+03  0.10704563324E+03  0.10285542644E+03  0.20095389022E+03  0.17770000000E+01 0. -1.
</event>
<event>
 7    1  0.4378490E-007  0.1000000E+04  0.7546771E-02  0.8684367E-01
        -11   -1    0    0    0    0  0.00000000000E+00  0.00000000000E+00  0.50000000000E+03  0.50000000000E+03  0.00000000000E+00 0.  1.
         11   -1    0    0    0    0 -0.00000000000E+00 -0.00000000000E+00 -0.50000000000E+03  0.50000000000E+03  0.00000000000E+00 0. -1.
         23    2    1    2    0    0 -0.18449312102E+03 -0.30701199918E+03 -0.72963172725E+01  0.36963256990E+03  0.90999566720E+02 0.  0.
        -11    1    3    3    0    0 -0.17902477546E+03 -0.24599284281E+03 -0.26595844742E+02  0.30540086428E+03  0.00000000000E+00 0. -1.
         11    1    3    3    0    0 -0.54683455579E+01 -0.61019156369E+02  0.19299527469E+02  0.64231705627E+02  0.00000000000E+00 0.  1.
        -15    1    1    2    0    0  0.22489930661E+03  0.41985262514E+03 -0.78814050861E+02  0.48277400230E+03  0.17770000000E+01 0.  1.
         15    1    1    2    0    0 -0.40406185595E+02 -0.11284062596E+03  0.86110368134E+02  0.14759342780E+03  0.17770000000E+01 0. -1.
</event>
<event>
 7    1  0.4378490E-007  0.1000000E+04  0.7546771E-02  0.8684367E-01
        -11   -1    0    0    0    0  0.00000000000E+00  0.00000000000E+00  0.50000000000E+03  0.50000000000E+03  0.00000000000E+00 0.  1.
         11   -1    0    0    0    0 -0.00000000000E+00 -0.00000000000E+00 -0.50000000000E+03  0.50000000000E+03  0.00000000000E+00 0. -1.
         23    2    1    2    0    0  0.56046379783E+02 -0.19192686258E+00  0.80488089901E+02  0.13425267094E+03  0.91674497626E+02 0.  0.
        -11    1    3    3    0    0  0.74219983310E+02  0.33906150832E+01  0.29387172784E+02  0.79898110851E+02  0.00000000000E+00 0.  1.
         11    1    3    3    0    0 -0.18173603527E+02 -0.35825419458E+01  0.51100917117E+02  0.54354560086E+02  0.00000000000E+00 0. -1.
        -15    1    1    2    0    0  0.13477554626E+03  0.18539177767E+03  0.31475743936E+03  0.38937123990E+03  0.17770000000E+01 0.  1.
         15    1    1    2    0    0 -0.19082192604E+03 -0.18519985081E+03 -0.39524552926E+03  0.47637608917E+03  0.17770000000E+01 0. -1.
</event>
<event>
 7    1  0.4378490E-007  0.1000000E+04  0.7546771E-02  0.8684367E-01
        -11   -1    0    0    0    0  0.00000000000E+00  0.00000000000E+00  0.50000000000E+03  0.50000000000E+03  0.00000000000E+00 0. -1.
         11   -1    0    0    0    0 -0.00000000000E+00 -0.00000000000E+00 -0.50000000000E+03  0.50000000000E+03  0.00000000000E+00 0.  1.
         23    2    1    2    0    0  0.11331939174E+03  0.24475775166E+02  0.24048549868E+03  0.28192115813E+03  0.90586512319E+02 0.  0.
        -11    1    3    3    0    0  0.38666925912E+02  0.77183277685E+01  0.12382073872E+02  0.41328192514E+02  0.00000000000E+00 0.  1.
         11    1    3    3    0    0  0.74652465831E+02  0.16757447398E+02  0.22810342480E+03  0.24059296562E+03  0.00000000000E+00 0. -1.
        -15    1    1    2    0    0  0.16549963989E+03  0.45355245892E+02  0.15359590134E+03  0.23030867932E+03  0.17770000000E+01 0. -1.
         15    1    1    2    0    0 -0.27881903164E+03 -0.69831021058E+02 -0.39408140001E+03  0.48777016255E+03  0.17770000000E+01 0.  1.
</event>
<event>
 7    1  0.4378490E-007  0.6595481E+03  0.7546771E-02  0.9100023E-01
        -11   -1    0    0    0    0  0.00000000000E+00  0.00000000000E+00  0.50000000000E+03  0.50000000000E+03  0.00000000000E+00 0.  1.
         11   -1    0    0    0    0 -0.00000000000E+00 -0.00000000000E+00 -0.50000000000E+03  0.50000000000E+03  0.00000000000E+00 0. -1.
         23    2    1    2    0    0 -0.47980619772E+01  0.32358164044E+03  0.53320839174E+02  0.34045193789E+03  0.91303399138E+02 0.  0.
        -11    1    3    3    0    0  0.31514868635E+02  0.21215931113E+03  0.61051826275E+02  0.22300691859E+03  0.00000000000E+00 0.  1.
         11    1    3    3    0    0 -0.36312930612E+02  0.11142232931E+03 -0.77309871002E+01  0.11744501931E+03  0.00000000000E+00 0. -1.
        -15    1    1    2    0    0  0.24776659466E+03 -0.44641967705E+02  0.83324057363E+02  0.26519284865E+03  0.17770000000E+01 0.  1.
         15    1    1    2    0    0 -0.24296853268E+03 -0.27893967274E+03 -0.13664489654E+03  0.39435521346E+03  0.17770000000E+01 0. -1.
</event>
<event>
 7    1  0.4378490E-007  0.8278329E+03  0.7546771E-02  0.8868176E-01
        -11   -1    0    0    0    0  0.00000000000E+00  0.00000000000E+00  0.50000000000E+03  0.50000000000E+03  0.00000000000E+00 0.  1.
         11   -1    0    0    0    0 -0.00000000000E+00 -0.00000000000E+00 -0.50000000000E+03  0.50000000000E+03  0.00000000000E+00 0. -1.
         23    2    1    2    0    0 -0.45800514963E+02  0.71042909512E+02 -0.12001238059E+03  0.17216708331E+03  0.89965276185E+02 0.  0.
        -11    1    3    3    0    0  0.19137705635E+02  0.32080247185E+02 -0.75725999572E+02  0.84438267673E+02  0.00000000000E+00 0.  1.
         11    1    3    3    0    0 -0.64938220599E+02  0.38962662327E+02 -0.44286381018E+02  0.87728815641E+02  0.00000000000E+00 0. -1.
        -15    1    1    2    0    0  0.13621390901E+03 -0.37430000153E+03 -0.13588679856E+03  0.42085995284E+03  0.17770000000E+01 0.  1.
         15    1    1    2    0    0 -0.90413394043E+02  0.30325709202E+03  0.25589917915E+03  0.40697296385E+03  0.17770000000E+01 0. -1.
</event>
<event>
 7    1  0.4378490E-007  0.8792821E+03  0.7546771E-02  0.8808666E-01
        -11   -1    0    0    0    0  0.00000000000E+00  0.00000000000E+00  0.50000000000E+03  0.50000000000E+03  0.00000000000E+00 0.  1.
         11   -1    0    0    0    0 -0.00000000000E+00 -0.00000000000E+00 -0.50000000000E+03  0.50000000000E+03  0.00000000000E+00 0. -1.
         23    2    1    2    0    0  0.68024485040E+02  0.28094901485E+02 -0.21667576067E+02  0.12071794206E+03  0.93202379946E+02 0.  0.
        -11    1    3    3    0    0  0.37795264783E+02  0.16758111990E+02  0.35873887156E+02  0.54738031908E+02  0.00000000000E+00 0.  1.
         11    1    3    3    0    0  0.30229220257E+02  0.11336789495E+02 -0.57541463223E+02  0.65979910149E+02  0.00000000000E+00 0. -1.
        -15    1    1    2    0    0 -0.70788931735E+02 -0.40503262153E+03  0.20575244427E+03  0.45978225652E+03  0.17770000000E+01 0. -1.
         15    1    1    2    0    0  0.27644466947E+01  0.37693772005E+03 -0.18408486821E+03  0.41949980142E+03  0.17770000000E+01 0.  1.
</event>
<event>
 7    1  0.6080357E-007  0.8628330E+03  0.7546771E-02  0.8827217E-01
        -11   -1    0    0    0    0  0.00000000000E+00  0.00000000000E+00  0.50000000000E+03  0.50000000000E+03  0.00000000000E+00 0.  1.
         11   -1    0    0    0    0 -0.00000000000E+00 -0.00000000000E+00 -0.50000000000E+03  0.50000000000E+03  0.00000000000E+00 0. -1.
         23    2    1    2    0    0  0.85005070234E+02 -0.35940501772E+02  0.10397556434E+01  0.13716697708E+03  0.10146978307E+03 0.  0.
        -11    1    3    3    0    0  0.30195117777E+02  0.16889917649E+02 -0.38186520213E+02  0.51528873282E+02  0.00000000000E+00 0. -1.
         11    1    3    3    0    0  0.54809952457E+02 -0.52830419421E+02  0.39226275856E+02  0.85638103798E+02  0.00000000000E+00 0.  1.
        -15    1    1    2    0    0 -0.10901257398E+03 -0.38973247594E+03  0.11547152017E+03  0.42084673432E+03  0.17770000000E+01 0.  1.
         15    1    1    2    0    0  0.24007503748E+02  0.42567297771E+03 -0.11651127581E+03  0.44198628860E+03  0.17770000000E+01 0. -1.
</event>
<event>
 7    1  0.4378490E-007  0.1000000E+04  0.7546771E-02  0.8684367E-01
        -11   -1    0    0    0    0  0.00000000000E+00  0.00000000000E+00  0.50000000000E+03  0.50000000000E+03  0.00000000000E+00 0. -1.
         11   -1    0    0    0    0 -0.00000000000E+00 -0.00000000000E+00 -0.50000000000E+03  0.50000000000E+03  0.00000000000E+00 0.  1.
         23    2    1    2    0    0  0.24810999010E+03  0.39059535639E+02 -0.21878316670E+03  0.34558664291E+03  0.92086042434E+02 0.  0.
        -11    1    3    3    0    0  0.23325628037E+03  0.59354931632E+02 -0.20841191774E+03  0.31838188971E+03  0.00000000000E+00 0.  1.
         11    1    3    3    0    0  0.14853709730E+02 -0.20295395993E+02 -0.10371248962E+02  0.27204753193E+02  0.00000000000E+00 0. -1.
        -15    1    1    2    0    0 -0.37069586003E+03 -0.90130432735E+01  0.32219670885E+03  0.49123368422E+03  0.17770000000E+01 0. -1.
         15    1    1    2    0    0  0.12258586992E+03 -0.30046492365E+02 -0.10341354215E+03  0.16317967287E+03  0.17770000000E+01 0.  1.
</event>
<event>
 7    1  0.4378490E-007  0.8813492E+03  0.7546771E-02  0.8806365E-01
        -11   -1    0    0    0    0  0.00000000000E+00  0.00000000000E+00  0.50000000000E+03  0.50000000000E+03  0.00000000000E+00 0.  1.
         11   -1    0    0    0    0 -0.00000000000E+00 -0.00000000000E+00 -0.50000000000E+03  0.50000000000E+03  0.00000000000E+00 0. -1.
         23    2    1    2    0    0 -0.53116231877E+02 -0.54242120517E+02 -0.14983934954E+02  0.11865075616E+03  0.89944104332E+02 0.  0.
        -11    1    3    3    0    0 -0.32117156778E+02  0.15980550852E+02  0.15742702453E+02  0.39175533762E+02  0.00000000000E+00 0.  1.
         11    1    3    3    0    0 -0.20999075099E+02 -0.70222671369E+02 -0.30726637406E+02  0.79475222400E+02  0.00000000000E+00 0. -1.
        -15    1    1    2    0    0 -0.33378160811E+03  0.96501333735E+02 -0.23437656265E+03  0.41911597461E+03  0.17770000000E+01 0. -1.
         15    1    1    2    0    0  0.38689783999E+03 -0.42259213218E+02  0.24936049760E+03  0.46223326923E+03  0.17770000000E+01 0.  1.
</event>
<event>
 7    1  0.4378490E-007  0.1000000E+04  0.7546771E-02  0.8684367E-01
        -11   -1    0    0    0    0  0.00000000000E+00  0.00000000000E+00  0.50000000000E+03  0.50000000000E+03  0.00000000000E+00 0.  1.
         11   -1    0    0    0    0 -0.00000000000E+00 -0.00000000000E+00 -0.50000000000E+03  0.50000000000E+03  0.00000000000E+00 0. -1.
         23    2    1    2    0    0 -0.53058089694E+02 -0.20546019813E+02  0.13262476819E+03  0.17028286669E+03  0.90385981976E+02 0.  0.
        -11    1    3    3    0    0  0.22540792160E+02  0.10733928217E+02  0.29542161236E+02  0.38678725634E+02  0.00000000000E+00 0.  1.
         11    1    3    3    0    0 -0.75598881853E+02 -0.31279948030E+02  0.10308260695E+03  0.13160414105E+03  0.00000000000E+00 0. -1.
        -15    1    1    2    0    0  0.22837561974E+02  0.18411518272E+03  0.30753829544E+03  0.35916975880E+03  0.17770000000E+01 0.  1.
         15    1    1    2    0    0  0.30220527719E+02 -0.16356916291E+03 -0.44016306363E+03  0.47054737451E+03  0.17770000000E+01 0. -1.
</event>
<event>
 7    1  0.4378490E-007  0.8850371E+03  0.7546771E-02  0.8802276E-01
        -11   -1    0    0    0    0  0.00000000000E+00  0.00000000000E+00  0.50000000000E+03  0.50000000000E+03  0.00000000000E+00 0.  1.
         11   -1    0    0    0    0 -0.00000000000E+00 -0.00000000000E+00 -0.50000000000E+03  0.50000000000E+03  0.00000000000E+00 0. -1.
         23    2    1    2    0    0  0.50027578047E+02 -0.22732550994E+02  0.42391227152E+02  0.11496292933E+03  0.91651140421E+02 0.  0.
        -11    1    3    3    0    0 -0.14248623600E+02 -0.18993974184E+02  0.44614664820E+02  0.50539713561E+02  0.00000000000E+00 0. -1.
         11    1    3    3    0    0  0.64276201647E+02 -0.37385768101E+01 -0.22234376689E+01  0.64423215767E+02  0.00000000000E+00 0.  1.
        -15    1    1    2    0    0  0.45518732723E+02 -0.42128527649E+03  0.31373789355E+02  0.42490082561E+03  0.17770000000E+01 0.  1.
         15    1    1    2    0    0 -0.95546310770E+02  0.44401782749E+03 -0.73765016507E+02  0.46013624506E+03  0.17770000000E+01 0. -1.
</event>
<event>
 7    1  0.4378490E-007  0.8663820E+03  0.7546771E-02  0.8823178E-01
        -11   -1    0    0    0    0  0.00000000000E+00  0.00000000000E+00  0.50000000000E+03  0.50000000000E+03  0.00000000000E+00 0.  1.
         11   -1    0    0    0    0 -0.00000000000E+00 -0.00000000000E+00 -0.50000000000E+03  0.50000000000E+03  0.00000000000E+00 0. -1.
         23    2    1    2    0    0 -0.51737558245E+02 -0.36956476120E+02 -0.74599982518E+02  0.13361802635E+03  0.90807838387E+02 0.  0.
        -11    1    3    3    0    0 -0.29626970629E+02 -0.55664681358E+02 -0.82269836539E+02  0.10365635602E+03  0.00000000000E+00 0. -1.
         11    1    3    3    0    0 -0.22110587616E+02  0.18708205238E+02  0.76698540217E+01  0.29961670325E+02  0.00000000000E+00 0.  1.
        -15    1    1    2    0    0 -0.11624151708E+03  0.40479119646E+03  0.16448156481E+03  0.45213421228E+03  0.17770000000E+01 0.  1.
         15    1    1    2    0    0  0.16797907532E+03 -0.36783472034E+03 -0.89881582292E+02  0.41424776137E+03  0.17770000000E+01 0. -1.
</event>
<event>
 7    1  0.4378490E-007  0.1000000E+04  0.7546771E-02  0.8684367E-01
        -11   -1    0    0    0    0  0.00000000000E+00  0.00000000000E+00  0.50000000000E+03  0.50000000000E+03  0.00000000000E+00 0. -1.
         11   -1    0    0    0    0 -0.00000000000E+00 -0.00000000000E+00 -0.50000000000E+03  0.50000000000E+03  0.00000000000E+00 0.  1.
         23    2    1    2    0    0 -0.30688960291E+02  0.36479657028E+01 -0.19945513420E+03  0.22138784601E+03  0.90967619861E+02 0.  0.
        -11    1    3    3    0    0 -0.27233529771E+01 -0.38007849948E+02 -0.44883657769E+02  0.58877466351E+02  0.00000000000E+00 0. -1.
         11    1    3    3    0    0 -0.27965607313E+02  0.41655815651E+02 -0.15457147643E+03  0.16251037966E+03  0.00000000000E+00 0.  1.
        -15    1    1    2    0    0 -0.11193246809E+03 -0.25785811388E+03 -0.15395014095E+03  0.32050505134E+03  0.17770000000E+01 0. -1.
         15    1    1    2    0    0  0.14262142838E+03  0.25421014818E+03  0.35340527515E+03  0.45810710265E+03  0.17770000000E+01 0.  1.
</event>
<event>
 7    1  0.4378490E-007  0.1000000E+04  0.7546771E-02  0.8684367E-01
        -11   -1    0    0    0    0  0.00000000000E+00  0.00000000000E+00  0.50000000000E+03  0.50000000000E+03  0.00000000000E+00 0.  1.
         11   -1    0    0    0    0 -0.00000000000E+00 -0.00000000000E+00 -0.50000000000E+03  0.50000000000E+03  0.00000000000E+00 0. -1.
         23    2    1    2    0    0 -0.33336771328E+03  0.15223398084E+03 -0.22321810088E+03  0.43876408203E+03  0.91533501774E+02 0.  0.
        -11    1    3    3    0    0 -0.22605185814E+02  0.24125290173E+00  0.64711265291E+01  0.23514423387E+02  0.00000000000E+00 0.  1.
         11    1    3    3    0    0 -0.31076252746E+03  0.15199272794E+03 -0.22968922741E+03  0.41524965865E+03  0.00000000000E+00 0. -1.
        -15    1    1    2    0    0  0.39463738290E+03 -0.17911427831E+03  0.23542344492E+03  0.49320172833E+03  0.17770000000E+01 0.  1.
         15    1    1    2    0    0 -0.61269669623E+02  0.26880297465E+02 -0.12205344048E+02  0.68034189639E+02  0.17770000000E+01 0. -1.
</event>
<event>
 7    1  0.4378490E-007  0.8947208E+03  0.7546771E-02  0.8791637E-01
        -11   -1    0    0    0    0  0.00000000000E+00  0.00000000000E+00  0.50000000000E+03  0.50000000000E+03  0.00000000000E+00 0. -1.
         11   -1    0    0    0    0 -0.00000000000E+00 -0.00000000000E+00 -0.50000000000E+03  0.50000000000E+03  0.00000000000E+00 0.  1.
         23    2    1    2    0    0 -0.11462974720E+02  0.46824924642E+02 -0.15031914330E+02  0.10527917492E+03  0.92378422080E+02 0.  0.
        -11    1    3    3    0    0 -0.42399122261E+02  0.55004032286E+01  0.15295861465E+02  0.45408186290E+02  0.00000000000E+00 0. -1.
         11    1    3    3    0    0  0.30936147541E+02  0.41324521413E+02 -0.30327775795E+02  0.59870988628E+02  0.00000000000E+00 0.  1.
        -15    1    1    2    0    0 -0.35282091219E+03 -0.73634915382E+02 -0.25411171787E+03  0.44099956886E+03  0.17770000000E+01 0. -1.
         15    1    1    2    0    0  0.36428388691E+03  0.26809990741E+02  0.26914363220E+03  0.45372125623E+03  0.17770000000E+01 0.  1.
</event>
<event>
 7    1  0.4378490E-007  0.7998195E+03  0.7546771E-02  0.8902521E-01
        -11   -1    0    0    0    0  0.00000000000E+00  0.00000000000E+00  0.50000000000E+03  0.50000000000E+03  0.00000000000E+00 0.  1.
         11   -1    0    0    0    0 -0.00000000000E+00 -0.00000000000E+00 -0.50000000000E+03  0.50000000000E+03  0.00000000000E+00 0. -1.
         23    2    1    2    0    0  0.96705266148E+02  0.14291990349E+03 -0.41226439706E+02  0.20018048213E+03  0.92707058946E+02 0.  0.
        -11    1    3    3    0    0  0.76470725087E+02  0.11391145902E+03  0.10408996461E+02  0.13759338465E+03  0.00000000000E+00 0.  1.
         11    1    3    3    0    0  0.20234541061E+02  0.29008444472E+02 -0.51635436167E+02  0.62587097479E+02  0.00000000000E+00 0. -1.
        -15    1    1    2    0    0 -0.65512591259E+02  0.29472572450E+03  0.16482322505E+03  0.34398401931E+03  0.17770000000E+01 0.  1.
         15    1    1    2    0    0 -0.31192674889E+02 -0.43764562800E+03 -0.12359678534E+03  0.45583549856E+03  0.17770000000E+01 0. -1.
</event>
<event>
 7    1  0.4378490E-007  0.1000000E+04  0.7546771E-02  0.8684367E-01
        -11   -1    0    0    0    0  0.00000000000E+00  0.00000000000E+00  0.50000000000E+03  0.50000000000E+03  0.00000000000E+00 0.  1.
         11   -1    0    0    0    0 -0.00000000000E+00 -0.00000000000E+00 -0.50000000000E+03  0.50000000000E+03  0.00000000000E+00 0. -1.
         23    2    1    2    0    0  0.11239937981E+02  0.90920137358E+02  0.60331832974E+02  0.14242088148E+03  0.90834849197E+02 0.  0.
        -11    1    3    3    0    0  0.18456799147E+02  0.19775486019E+02 -0.20910199129E+02  0.34190052788E+02  0.00000000000E+00 0.  1.
         11    1    3    3    0    0 -0.72168611661E+01  0.71144651338E+02  0.81242032103E+02  0.10823082869E+03  0.00000000000E+00 0. -1.
        -15    1    1    2    0    0 -0.12920415944E+03 -0.43886532691E+03 -0.14618161517E+03  0.48027982710E+03  0.17770000000E+01 0.  1.
         15    1    1    2    0    0  0.11796422146E+03  0.34794518955E+03  0.85849782191E+02  0.37729929142E+03  0.17770000000E+01 0. -1.
</event>
<event>
 7    1  0.4378490E-007  0.1000000E+04  0.7546771E-02  0.8684367E-01
        -11   -1    0    0    0    0  0.00000000000E+00  0.00000000000E+00  0.50000000000E+03  0.50000000000E+03  0.00000000000E+00 0. -1.
         11   -1    0    0    0    0 -0.00000000000E+00 -0.00000000000E+00 -0.50000000000E+03  0.50000000000E+03  0.00000000000E+00 0.  1.
         23    2    1    2    0    0 -0.17789823407E+03  0.15085925663E+03 -0.67834870156E+02  0.25807622051E+03  0.87151987859E+02 0.  0.
        -11    1    3    3    0    0 -0.16232908145E+03  0.93548175818E+02 -0.36316503062E+02  0.19084255364E+03  0.00000000000E+00 0. -1.
         11    1    3    3    0    0 -0.15569152618E+02  0.57311080810E+02 -0.31518367094E+02  0.67233666872E+02  0.00000000000E+00 0.  1.
        -15    1    1    2    0    0  0.31147635903E+03 -0.36722946290E+03  0.76037010946E+02  0.48750362606E+03  0.17770000000E+01 0. -1.
         15    1    1    2    0    0 -0.13357812496E+03  0.21637020627E+03 -0.82021407900E+01  0.25442015343E+03  0.17770000000E+01 0.  1.
</event>
<event>
 7    1  0.4378490E-007  0.1000000E+04  0.7546771E-02  0.8684367E-01
        -11   -1    0    0    0    0  0.00000000000E+00  0.00000000000E+00  0.50000000000E+03  0.50000000000E+03  0.00000000000E+00 0. -1.
         11   -1    0    0    0    0 -0.00000000000E+00 -0.00000000000E+00 -0.50000000000E+03  0.50000000000E+03  0.00000000000E+00 0.  1.
         23    2    1    2    0    0  0.27012263925E+03  0.60990811915E+02  0.26740112424E+03  0.39353394964E+03  0.81728140175E+02 0.  0.
        -11    1    3    3    0    0  0.46709869295E+02  0.34574631472E+02  0.89555011939E+02  0.10675821839E+03  0.00000000000E+00 0.  1.
         11    1    3    3    0    0  0.22341276996E+03  0.26416180443E+02  0.17784611230E+03  0.28677573124E+03  0.00000000000E+00 0. -1.
        -15    1    1    2    0    0  0.11732230647E+03 -0.86567214485E+02 -0.22883583812E+02  0.14759817870E+03  0.17770000000E+01 0. -1.
         15    1    1    2    0    0 -0.38744494572E+03  0.25576402570E+02 -0.24451754043E+03  0.45886787166E+03  0.17770000000E+01 0.  1.
</event>
<event>
 7    1  0.4378490E-007  0.1000000E+04  0.7546771E-02  0.8684367E-01
        -11   -1    0    0    0    0  0.00000000000E+00  0.00000000000E+00  0.50000000000E+03  0.50000000000E+03  0.00000000000E+00 0.  1.
         11   -1    0    0    0    0 -0.00000000000E+00 -0.00000000000E+00 -0.50000000000E+03  0.50000000000E+03  0.00000000000E+00 0. -1.
         23    2    1    2    0    0 -0.30983014787E+02 -0.75959938106E+02 -0.60056761210E+02  0.13621363686E+03  0.90650322107E+02 0.  0.
        -11    1    3    3    0    0 -0.31013927180E+02  0.31865246023E+01  0.76005417028E+01  0.32090276601E+02  0.00000000000E+00 0.  1.
         11    1    3    3    0    0  0.30912392774E-01 -0.79146462709E+02 -0.67657302913E+02  0.10412336026E+03  0.00000000000E+00 0. -1.
        -15    1    1    2    0    0  0.38220767588E+03  0.11368515773E+03  0.24198575326E+03  0.46644108428E+03  0.17770000000E+01 0.  1.
         15    1    1    2    0    0 -0.35122466109E+03 -0.37725219621E+02 -0.18192899205E+03  0.39734527886E+03  0.17770000000E+01 0. -1.
</event>
<event>
 7    1  0.4378490E-007  0.1000000E+04  0.7546771E-02  0.8684367E-01
        -11   -1    0    0    0    0  0.00000000000E+00  0.00000000000E+00  0.50000000000E+03  0.50000000000E+03  0.00000000000E+00 0. -1.
         11   -1    0    0    0    0 -0.00000000000E+00 -0.00000000000E+00 -0.50000000000E+03  0.50000000000E+03  0.00000000000E+00 0.  1.
         23    2    1    2    0    0 -0.10221018446E+01  0.54264509634E+02  0.85991130219E+02  0.13715245249E+03  0.92036074725E+02 0.  0.
        -11    1    3    3    0    0  0.24801623921E+02  0.17289384682E+01  0.73097773721E+02  0.77210066055E+02  0.00000000000E+00 0.  1.
         11    1    3    3    0    0 -0.25823725766E+02  0.52535571166E+02  0.12893356498E+02  0.59942386439E+02  0.00000000000E+00 0. -1.
        -15    1    1    2    0    0  0.13911749043E+03  0.34343247097E+03  0.12614365253E+03  0.39142677101E+03  0.17770000000E+01 0. -1.
         15    1    1    2    0    0 -0.13809538858E+03 -0.39769698060E+03 -0.21213478275E+03  0.47142077650E+03  0.17770000000E+01 0.  1.
</event>
<event>
 7    1  0.4378490E-007  0.7289772E+03  0.7546771E-02  0.8996411E-01
        -11   -1    0    0    0    0  0.00000000000E+00  0.00000000000E+00  0.50000000000E+03  0.50000000000E+03  0.00000000000E+00 0.  1.
         11   -1    0    0    0    0 -0.00000000000E+00 -0.00000000000E+00 -0.50000000000E+03  0.50000000000E+03  0.00000000000E+00 0. -1.
         23    2    1    2    0    0 -0.97189127787E+02 -0.10760653003E+03  0.20892490997E+03  0.27102275539E+03  0.93695379119E+02 0.  0.
        -11    1    3    3    0    0 -0.32426066447E+02 -0.10081040395E+03  0.14691215300E+03  0.18110043630E+03  0.00000000000E+00 0.  1.
         11    1    3    3    0    0 -0.64763061339E+02 -0.67961260862E+01  0.62012756978E+02  0.89922319097E+02  0.00000000000E+00 0. -1.
        -15    1    1    2    0    0  0.18089440770E+03 -0.15251206509E+03  0.14828023542E+03  0.27923628468E+03  0.17770000000E+01 0.  1.
         15    1    1    2    0    0 -0.83705279915E+02  0.26011859512E+03 -0.35720514539E+03  0.44974095993E+03  0.17770000000E+01 0. -1.
</event>
<event>
 7    1  0.4378490E-007  0.8743157E+03  0.7546771E-02  0.8814222E-01
        -11   -1    0    0    0    0  0.00000000000E+00  0.00000000000E+00  0.50000000000E+03  0.50000000000E+03  0.00000000000E+00 0.  1.
         11   -1    0    0    0    0 -0.00000000000E+00 -0.00000000000E+00 -0.50000000000E+03  0.50000000000E+03  0.00000000000E+00 0. -1.
         23    2    1    2    0    0  0.38588704241E+01 -0.16584064398E+02 -0.84044698398E+02  0.12568428059E+03  0.91886369969E+02 0.  0.
        -11    1    3    3    0    0 -0.20204077602E+02  0.23333945529E+01 -0.91867320242E+02  0.94091731892E+02  0.00000000000E+00 0.  1.
         11    1    3    3    0    0  0.24062948026E+02 -0.18917458951E+02  0.78226218442E+01  0.31592548700E+02  0.00000000000E+00 0. -1.
        -15    1    1    2    0    0  0.33809183436E+03 -0.30032289703E+02  0.31173309427E+03  0.46085649250E+03  0.17770000000E+01 0.  1.
         15    1    1    2    0    0 -0.34195070479E+03  0.46616354101E+02 -0.22768839587E+03  0.41345922691E+03  0.17770000000E+01 0. -1.
</event>
<event>
 7    1  0.4378490E-007  0.1000000E+04  0.7546771E-02  0.8684367E-01
        -11   -1    0    0    0    0  0.00000000000E+00  0.00000000000E+00  0.50000000000E+03  0.50000000000E+03  0.00000000000E+00 0. -1.
         11   -1    0    0    0    0 -0.00000000000E+00 -0.00000000000E+00 -0.50000000000E+03  0.50000000000E+03  0.00000000000E+00 0.  1.
         23    2    1    2    0    0  0.27245895607E+02 -0.87767684634E+01 -0.14249908777E+02  0.96496932655E+02  0.91045195478E+02 0.  0.
        -11    1    3    3    0    0  0.22554905710E+02  0.40115247930E+02 -0.30666317632E+01  0.46123325101E+02  0.00000000000E+00 0. -1.
         11    1    3    3    0    0  0.46909898973E+01 -0.48892016393E+02 -0.11183277014E+02  0.50373607554E+02  0.00000000000E+00 0.  1.
        -15    1    1    2    0    0 -0.31766034856E+02  0.14968410324E+03  0.43427396413E+03  0.46044700605E+03  0.17770000000E+01 0. -1.
         15    1    1    2    0    0  0.45201392490E+01 -0.14090733477E+03 -0.42002405535E+03  0.44305606130E+03  0.17770000000E+01 0.  1.
</event>
<event>
 7    1  0.4378490E-007  0.7372759E+03  0.7546771E-02  0.8984843E-01
        -11   -1    0    0    0    0  0.00000000000E+00  0.00000000000E+00  0.50000000000E+03  0.50000000000E+03  0.00000000000E+00 0.  1.
         11   -1    0    0    0    0 -0.00000000000E+00 -0.00000000000E+00 -0.50000000000E+03  0.50000000000E+03  0.00000000000E+00 0. -1.
         23    2    1    2    0    0  0.15919250065E+03 -0.69760900036E+02 -0.17425397696E+03  0.26272414351E+03  0.91927643593E+02 0.  0.
        -11    1    3    3    0    0  0.62896846451E+02 -0.40655498702E+02 -0.18227521962E+02  0.77078696312E+02  0.00000000000E+00 0. -1.
         11    1    3    3    0    0  0.96295654203E+02 -0.29105401334E+02 -0.15602645500E+03  0.18564544720E+03  0.00000000000E+00 0.  1.
        -15    1    1    2    0    0 -0.19371957726E+03 -0.27647272846E+03 -0.21067647231E+02  0.33824761298E+03  0.17770000000E+01 0.  1.
         15    1    1    2    0    0  0.34527076609E+02  0.34623362849E+03  0.19532162419E+03  0.39902824352E+03  0.17770000000E+01 0. -1.
</event>
<event>
 7    1  0.4378490E-007  0.8318192E+03  0.7546771E-02  0.8863404E-01
        -11   -1    0    0    0    0  0.00000000000E+00  0.00000000000E+00  0.50000000000E+03  0.50000000000E+03  0.00000000000E+00 0. -1.
         11   -1    0    0    0    0 -0.00000000000E+00 -0.00000000000E+00 -0.50000000000E+03  0.50000000000E+03  0.00000000000E+00 0.  1.
         23    2    1    2    0    0  0.92171778403E+02 -0.37714424941E+02  0.99661599159E+02  0.16818079516E+03  0.91838613509E+02 0.  0.
        -11    1    3    3    0    0  0.14406194646E+02  0.24059190449E+02  0.80813742342E+00  0.28054165027E+02  0.00000000000E+00 0. -1.
         11    1    3    3    0    0  0.77765583757E+02 -0.61773615390E+02  0.98853461736E+02  0.14012663013E+03  0.00000000000E+00 0.  1.
        -15    1    1    2    0    0 -0.37870820148E+03  0.29249833554E+02  0.18963532143E+03  0.42454701447E+03  0.17770000000E+01 0.  1.
         15    1    1    2    0    0  0.28653642308E+03  0.84645913867E+01 -0.28929692059E+03  0.40727219037E+03  0.17770000000E+01 0. -1.
</event>
<event>
 7    1  0.4378490E-007  0.1000000E+04  0.7546771E-02  0.8684367E-01
        -11   -1    0    0    0    0  0.00000000000E+00  0.00000000000E+00  0.50000000000E+03  0.50000000000E+03  0.00000000000E+00 0.  1.
         11   -1    0    0    0    0 -0.00000000000E+00 -0.00000000000E+00 -0.50000000000E+03  0.50000000000E+03  0.00000000000E+00 0. -1.
         23    2    1    2    0    0  0.76279542614E+02 -0.69603760015E+02  0.84789977961E+02  0.17078548919E+03  0.10637241618E+03 0.  0.
        -11    1    3    3    0    0  0.68694398249E+02 -0.79445904526E+02  0.22683532869E+02  0.10744819570E+03  0.00000000000E+00 0.  1.
         11    1    3    3    0    0  0.75851443651E+01  0.98421445110E+01  0.62106445092E+02  0.63337293482E+02  0.00000000000E+00 0. -1.
        -15    1    1    2    0    0  0.36850700355E+03  0.12324312256E+02  0.17874114967E+02  0.36915029737E+03  0.17770000000E+01 0.  1.
         15    1    1    2    0    0 -0.44478654616E+03  0.57279447760E+02 -0.10266409293E+03  0.46006421344E+03  0.17770000000E+01 0. -1.
</event>
<event>
 7    1  0.4378490E-007  0.8530553E+03  0.7546771E-02  0.8838451E-01
        -11   -1    0    0    0    0  0.00000000000E+00  0.00000000000E+00  0.50000000000E+03  0.50000000000E+03  0.00000000000E+00 0.  1.
         11   -1    0    0    0    0 -0.00000000000E+00 -0.00000000000E+00 -0.50000000000E+03  0.50000000000E+03  0.00000000000E+00 0. -1.
         23    2    1    2    0    0 -0.10311995126E+03  0.34705550841E+02  0.37509908060E+02  0.14694471731E+03  0.91364966666E+02 0.  0.
        -11    1    3    3    0    0 -0.84585705875E+02  0.61255564695E+02  0.44986250050E+02  0.11371344924E+03  0.00000000000E+00 0.  1.
         11    1    3    3    0    0 -0.18534245386E+02 -0.26550013854E+02 -0.74763419904E+01  0.33231268065E+02  0.00000000000E+00 0. -1.
        -15    1    1    2    0    0  0.33088971656E+03  0.24584764851E+03 -0.19839390627E+03  0.45748483099E+03  0.17770000000E+01 0.  1.
         15    1    1    2    0    0 -0.22776976530E+03 -0.28055319936E+03  0.16088399821E+03  0.39557045171E+03  0.17770000000E+01 0. -1.
</event>
<event>
 7    1  0.4378490E-007  0.1000000E+04  0.7546771E-02  0.8684367E-01
        -11   -1    0    0    0    0  0.00000000000E+00  0.00000000000E+00  0.50000000000E+03  0.50000000000E+03  0.00000000000E+00 0.  1.
         11   -1    0    0    0    0 -0.00000000000E+00 -0.00000000000E+00 -0.50000000000E+03  0.50000000000E+03  0.00000000000E+00 0. -1.
         23    2    1    2    0    0  0.53765101721E+02 -0.14074853017E+01  0.76517994442E+01  0.10639285939E+03  0.91477993617E+02 0.  0.
        -11    1    3    3    0    0  0.57184462825E+02 -0.14988798523E+02  0.39841349561E+02  0.71288568541E+02  0.00000000000E+00 0.  1.
         11    1    3    3    0    0 -0.34193611037E+01  0.13581313222E+02 -0.32189550117E+02  0.35104290848E+02  0.00000000000E+00 0. -1.
        -15    1    1    2    0    0  0.38755664408E+03  0.79625365074E+02 -0.15031451693E+03  0.42324692894E+03  0.17770000000E+01 0.  1.
         15    1    1    2    0    0 -0.44132174580E+03 -0.78217879772E+02  0.14266271748E+03  0.47036021167E+03  0.17770000000E+01 0. -1.
</event>
<event>
 7    1  0.4378490E-007  0.6395289E+03  0.7546771E-02  0.9132422E-01
        -11   -1    0    0    0    0  0.00000000000E+00  0.00000000000E+00  0.50000000000E+03  0.50000000000E+03  0.00000000000E+00 0.  1.
         11   -1    0    0    0    0 -0.00000000000E+00 -0.00000000000E+00 -0.50000000000E+03  0.50000000000E+03  0.00000000000E+00 0. -1.
         23    2    1    2    0    0 -0.21863988032E+03  0.27483890050E+03 -0.32609199001E+02  0.36047111646E+03  0.74405963805E+02 0.  0.
        -11    1    3    3    0    0 -0.12827565137E+03  0.21105575757E+03 -0.37213787925E+02  0.24976797543E+03  0.00000000000E+00 0.  1.
         11    1    3    3    0    0 -0.90364228946E+02  0.63783142928E+02  0.46045889239E+01  0.11070314103E+03  0.00000000000E+00 0. -1.
        -15    1    1    2    0    0  0.65757404115E+02 -0.18280155933E+03  0.27612574965E+03  0.33762262015E+03  0.17770000000E+01 0.  1.
         15    1    1    2    0    0  0.15288247620E+03 -0.92037341175E+02 -0.24351655065E+03  0.30190626339E+03  0.17770000000E+01 0. -1.
</event>
<event>
 7    1  0.4378490E-007  0.5902341E+03  0.7546771E-02  0.9217848E-01
        -11   -1    0    0    0    0  0.00000000000E+00  0.00000000000E+00  0.50000000000E+03  0.50000000000E+03  0.00000000000E+00 0.  1.
         11   -1    0    0    0    0 -0.00000000000E+00 -0.00000000000E+00 -0.50000000000E+03  0.50000000000E+03  0.00000000000E+00 0. -1.
         23    2    1    2    0    0 -0.10750055952E+03  0.28234288496E+03  0.26149076596E+03  0.40976594698E+03  0.90867131771E+02 0.  0.
        -11    1    3    3    0    0 -0.86657246574E+02  0.16424183970E+03  0.10745331635E+03  0.21454853877E+03  0.00000000000E+00 0. -1.
         11    1    3    3    0    0 -0.20843312949E+02  0.11810104525E+03  0.15403744962E+03  0.19521740821E+03  0.00000000000E+00 0.  1.
        -15    1    1    2    0    0  0.12127493251E+03  0.86136519638E+02 -0.13358925735E+03  0.19994088296E+03  0.17770000000E+01 0.  1.
         15    1    1    2    0    0 -0.13774372988E+02 -0.36847940459E+03 -0.12790150862E+03  0.39029317006E+03  0.17770000000E+01 0. -1.
</event>
<event>
 7    1  0.4378490E-007  0.1000000E+04  0.7546771E-02  0.8684367E-01
        -11   -1    0    0    0    0  0.00000000000E+00  0.00000000000E+00  0.50000000000E+03  0.50000000000E+03  0.00000000000E+00 0. -1.
         11   -1    0    0    0    0 -0.00000000000E+00 -0.00000000000E+00 -0.50000000000E+03  0.50000000000E+03  0.00000000000E+00 0.  1.
         23    2    1    2    0    0 -0.13193392625E+02  0.16971766683E+03 -0.19618881120E+03  0.27512105745E+03  0.90682934272E+02 0.  0.
        -11    1    3    3    0    0 -0.24843497272E+02  0.21494573460E+02 -0.54827348076E+01  0.33305801686E+02  0.00000000000E+00 0. -1.
         11    1    3    3    0    0  0.11650104648E+02  0.14822309337E+03 -0.19070607640E+03  0.24181525577E+03  0.00000000000E+00 0.  1.
        -15    1    1    2    0    0 -0.94837553150E+02 -0.36489813201E+03  0.29710993688E+03  0.48002320835E+03  0.17770000000E+01 0. -1.
         15    1    1    2    0    0  0.10803094577E+03  0.19518046518E+03 -0.10092112568E+03  0.24485573420E+03  0.17770000000E+01 0.  1.
</event>
<event>
 7    1  0.4378490E-007  0.1000000E+04  0.7546771E-02  0.8684367E-01
        -11   -1    0    0    0    0  0.00000000000E+00  0.00000000000E+00  0.50000000000E+03  0.50000000000E+03  0.00000000000E+00 0.  1.
         11   -1    0    0    0    0 -0.00000000000E+00 -0.00000000000E+00 -0.50000000000E+03  0.50000000000E+03  0.00000000000E+00 0. -1.
         23    2    1    2    0    0  0.41770364787E+02 -0.10322244967E+02  0.15625922451E+02  0.10136686288E+03  0.90442021885E+02 0.  0.
        -11    1    3    3    0    0  0.31253212400E+02 -0.38769855492E+02 -0.20799657249E+02  0.53967496902E+02  0.00000000000E+00 0.  1.
         11    1    3    3    0    0  0.10517152387E+02  0.28447610525E+02  0.36425579700E+02  0.47399365981E+02  0.00000000000E+00 0. -1.
        -15    1    1    2    0    0  0.42715401707E+03  0.41449154543E+01 -0.39898075519E+02  0.42903700165E+03  0.17770000000E+01 0.  1.
         15    1    1    2    0    0 -0.46892438186E+03  0.61773295123E+01  0.24272153068E+02  0.46959613547E+03  0.17770000000E+01 0. -1.
</event>
<event>
 7    1  0.4378490E-007  0.1000000E+04  0.7546771E-02  0.8684367E-01
        -11   -1    0    0    0    0  0.00000000000E+00  0.00000000000E+00  0.50000000000E+03  0.50000000000E+03  0.00000000000E+00 0. -1.
         11   -1    0    0    0    0 -0.00000000000E+00 -0.00000000000E+00 -0.50000000000E+03  0.50000000000E+03  0.00000000000E+00 0.  1.
         23    2    1    2    0    0  0.10825822887E+01 -0.91778703861E+02 -0.14263294024E+02  0.13285760654E+03  0.94990523697E+02 0.  0.
        -11    1    3    3    0    0 -0.29346787224E+02 -0.87573075693E+02 -0.31561565822E+02  0.97603329574E+02  0.00000000000E+00 0. -1.
         11    1    3    3    0    0  0.30429369513E+02 -0.42056281682E+01  0.17298271798E+02  0.35254276966E+02  0.00000000000E+00 0.  1.
        -15    1    1    2    0    0  0.28222436464E+03  0.35709172958E+03  0.10809329138E+03  0.46781664432E+03  0.17770000000E+01 0. -1.
         15    1    1    2    0    0 -0.28330694693E+03 -0.26531302572E+03 -0.93829997353E+02  0.39932574914E+03  0.17770000000E+01 0.  1.
</event>
<event>
 7    1  0.4378490E-007  0.1000000E+04  0.7546771E-02  0.8684367E-01
        -11   -1    0    0    0    0  0.00000000000E+00  0.00000000000E+00  0.50000000000E+03  0.50000000000E+03  0.00000000000E+00 0. -1.
         11   -1    0    0    0    0 -0.00000000000E+00 -0.00000000000E+00 -0.50000000000E+03  0.50000000000E+03  0.00000000000E+00 0.  1.
         23    2    1    2    0    0  0.11176869036E+03 -0.14035672103E+03  0.23504253724E+03  0.30118128301E+03  0.57209454126E+02 0.  0.
        -11    1    3    3    0    0  0.10321565731E+03 -0.14280057144E+03  0.20738607450E+03  0.27212948943E+03  0.00000000000E+00 0. -1.
         11    1    3    3    0    0  0.85530330526E+01  0.24438504173E+01  0.27656462739E+02  0.29051793584E+02  0.00000000000E+00 0.  1.
        -15    1    1    2    0    0 -0.10728515146E+03  0.96229682393E+02  0.20827615205E+03  0.25328317895E+03  0.17770000000E+01 0. -1.
         15    1    1    2    0    0 -0.44835388994E+01  0.44127038634E+02 -0.44331868929E+03  0.44553553804E+03  0.17770000000E+01 0.  1.
</event>
<event>
 7    1  0.4378490E-007  0.5433081E+03  0.7546771E-02  0.9307800E-01
        -11   -1    0    0    0    0  0.00000000000E+00  0.00000000000E+00  0.50000000000E+03  0.50000000000E+03  0.00000000000E+00 0.  1.
         11   -1    0    0    0    0 -0.00000000000E+00 -0.00000000000E+00 -0.50000000000E+03  0.50000000000E+03  0.00000000000E+00 0. -1.
         23    2    1    2    0    0 -0.27860958399E+03  0.30578827412E+02  0.34952188920E+03  0.45669189571E+03  0.88563940758E+02 0.  0.
        -11    1    3    3    0    0 -0.12592011477E+03 -0.20185496002E+02  0.19899739959E+03  0.23635417195E+03  0.00000000000E+00 0.  1.
         11    1    3    3    0    0 -0.15268946922E+03  0.50764323414E+02  0.15052448961E+03  0.22033772376E+03  0.00000000000E+00 0. -1.
        -15    1    1    2    0    0  0.15649009451E+03  0.95646606546E+01 -0.38009326272E+03  0.41116259376E+03  0.17770000000E+01 0. -1.
         15    1    1    2    0    0  0.12211948948E+03 -0.40143488067E+02  0.30571373518E+02  0.13214551053E+03  0.17770000000E+01 0.  1.
</event>
<event>
 7    1  0.4378490E-007  0.1000000E+04  0.7546771E-02  0.8684367E-01
        -11   -1    0    0    0    0  0.00000000000E+00  0.00000000000E+00  0.50000000000E+03  0.50000000000E+03  0.00000000000E+00 0. -1.
         11   -1    0    0    0    0 -0.00000000000E+00 -0.00000000000E+00 -0.50000000000E+03  0.50000000000E+03  0.00000000000E+00 0.  1.
         23    2    1    2    0    0  0.16957313715E+03  0.16226878132E+03  0.59214921202E+02  0.25905404978E+03  0.92284275916E+02 0.  0.
        -11    1    3    3    0    0  0.24189742232E+01  0.45666233432E+02  0.25864573687E+02  0.52537914730E+02  0.00000000000E+00 0. -1.
         11    1    3    3    0    0  0.16715416292E+03  0.11660254789E+03  0.33350347515E+02  0.20651613505E+03  0.00000000000E+00 0.  1.
        -15    1    1    2    0    0 -0.28948992163E+03 -0.30864434305E+03 -0.23381881165E+03  0.48346679269E+03  0.17770000000E+01 0. -1.
         15    1    1    2    0    0  0.11991678448E+03  0.14637556173E+03  0.17460389045E+03  0.25747915753E+03  0.17770000000E+01 0.  1.
</event>
<event>
 7    1  0.4378490E-007  0.1000000E+04  0.7546771E-02  0.8684367E-01
        -11   -1    0    0    0    0  0.00000000000E+00  0.00000000000E+00  0.50000000000E+03  0.50000000000E+03  0.00000000000E+00 0.  1.
         11   -1    0    0    0    0 -0.00000000000E+00 -0.00000000000E+00 -0.50000000000E+03  0.50000000000E+03  0.00000000000E+00 0. -1.
         23    2    1    2    0    0  0.13255975879E+03  0.34435714455E+02  0.48098113076E+02  0.17129760846E+03  0.90947974700E+02 0.  0.
        -11    1    3    3    0    0  0.47286577966E+02  0.47471486808E+02 -0.93526869682E+01  0.67653789761E+02  0.00000000000E+00 0.  1.
         11    1    3    3    0    0  0.85273180827E+02 -0.13035772353E+02  0.57450800044E+02  0.10364381870E+03  0.00000000000E+00 0. -1.
        -15    1    1    2    0    0  0.17871466884E+03  0.29710955263E+03  0.80808318489E+02  0.35601427105E+03  0.17770000000E+01 0.  1.
         15    1    1    2    0    0 -0.31127442763E+03 -0.33154526709E+03 -0.12890643157E+03  0.47268812049E+03  0.17770000000E+01 0. -1.
</event>
<event>
 7    1  0.4378490E-007  0.1000000E+04  0.7546771E-02  0.8684367E-01
        -11   -1    0    0    0    0  0.00000000000E+00  0.00000000000E+00  0.50000000000E+03  0.50000000000E+03  0.00000000000E+00 0. -1.
         11   -1    0    0    0    0 -0.00000000000E+00 -0.00000000000E+00 -0.50000000000E+03  0.50000000000E+03  0.00000000000E+00 0.  1.
         23    2    1    2    0    0  0.80102908367E+01  0.66514789417E+02  0.24184897644E+03  0.26765428432E+03  0.93056469622E+02 0.  0.
        -11    1    3    3    0    0 -0.42214435259E+02  0.38539211329E+02  0.11854617398E+03  0.13160746453E+03  0.00000000000E+00 0.  1.
         11    1    3    3    0    0  0.50224726095E+02  0.27975578088E+02  0.12330280246E+03  0.13604681979E+03  0.00000000000E+00 0. -1.
        -15    1    1    2    0    0 -0.17414342592E+03 -0.14480624759E+02  0.19514048434E+03  0.26195149864E+03  0.17770000000E+01 0. -1.
         15    1    1    2    0    0  0.16613313509E+03 -0.52034164657E+02 -0.43698946078E+03  0.47039421704E+03  0.17770000000E+01 0.  1.
</event>
<event>
 7    1  0.4378490E-007  0.7952904E+03  0.7546771E-02  0.8908213E-01
        -11   -1    0    0    0    0  0.00000000000E+00  0.00000000000E+00  0.50000000000E+03  0.50000000000E+03  0.00000000000E+00 0. -1.
         11   -1    0    0    0    0 -0.00000000000E+00 -0.00000000000E+00 -0.50000000000E+03  0.50000000000E+03  0.00000000000E+00 0.  1.
         23    2    1    2    0    0 -0.56714770387E+02  0.12794151560E+03  0.11593426465E+03  0.20470958296E+03  0.94231964008E+02 0.  0.
        -11    1    3    3    0    0 -0.16248658734E+02 -0.85465513265E+01 -0.37324172646E+01  0.18734817556E+02  0.00000000000E+00 0.  1.
         11    1    3    3    0    0 -0.40466111653E+02  0.13648806693E+03  0.11966668191E+03  0.18597476540E+03  0.00000000000E+00 0. -1.
        -15    1    1    2    0    0 -0.27112881765E+03  0.14487740547E+03 -0.19143119267E+03  0.36214549235E+03  0.17770000000E+01 0. -1.
         15    1    1    2    0    0  0.32784358803E+03 -0.27281892108E+03  0.75496928022E+02  0.43314492469E+03  0.17770000000E+01 0.  1.
</event>
<event>
 7    1  0.4378490E-007  0.1000000E+04  0.7546771E-02  0.8684367E-01
        -11   -1    0    0    0    0  0.00000000000E+00  0.00000000000E+00  0.50000000000E+03  0.50000000000E+03  0.00000000000E+00 0.  1.
         11   -1    0    0    0    0 -0.00000000000E+00 -0.00000000000E+00 -0.50000000000E+03  0.50000000000E+03  0.00000000000E+00 0. -1.
         23    2    1    2    0    0 -0.95367016663E+02  0.84006418122E+02 -0.83861746034E+02  0.17585742833E+03  0.87983501289E+02 0.  0.
        -11    1    3    3    0    0 -0.10450889241E+03  0.48568494565E+02 -0.77057689567E+02  0.13863222850E+03  0.00000000000E+00 0. -1.
         11    1    3    3    0    0  0.91418757480E+01  0.35437923557E+02 -0.68040564667E+01  0.37225199833E+02  0.00000000000E+00 0.  1.
        -15    1    1    2    0    0  0.20686273265E+03 -0.31505721718E+03  0.30545662331E+03  0.48513930650E+03  0.17770000000E+01 0.  1.
         15    1    1    2    0    0 -0.11149571599E+03  0.23105079906E+03 -0.22159487728E+03  0.33900326517E+03  0.17770000000E+01 0. -1.
</event>
<event>
 7    1  0.4378490E-007  0.1000000E+04  0.7546771E-02  0.8684367E-01
        -11   -1    0    0    0    0  0.00000000000E+00  0.00000000000E+00  0.50000000000E+03  0.50000000000E+03  0.00000000000E+00 0. -1.
         11   -1    0    0    0    0 -0.00000000000E+00 -0.00000000000E+00 -0.50000000000E+03  0.50000000000E+03  0.00000000000E+00 0.  1.
         23    2    1    2    0    0 -0.69592230404E+02  0.85490645162E+02  0.78378473592E+02  0.16339963807E+03  0.91676210964E+02 0.  0.
        -11    1    3    3    0    0 -0.69016984221E+02  0.10399496735E+03  0.69656686647E+02  0.14293478002E+03  0.00000000000E+00 0.  1.
         11    1    3    3    0    0 -0.57524618344E+00 -0.18504322184E+02  0.87217869450E+01  0.20464858054E+02  0.00000000000E+00 0. -1.
        -15    1    1    2    0    0  0.27388938854E+03 -0.11196087311E+03 -0.37361389551E+03  0.47659325940E+03  0.17770000000E+01 0.  1.
         15    1    1    2    0    0 -0.20429715813E+03  0.26470227946E+02  0.29523542191E+03  0.36000710253E+03  0.17770000000E+01 0. -1.
</event>
<event>
 7    1  0.6080863E-007  0.1000000E+04  0.7546771E-02  0.8684367E-01
        -11   -1    0    0    0    0  0.00000000000E+00  0.00000000000E+00  0.50000000000E+03  0.50000000000E+03  0.00000000000E+00 0.  1.
         11   -1    0    0    0    0 -0.00000000000E+00 -0.00000000000E+00 -0.50000000000E+03  0.50000000000E+03  0.00000000000E+00 0. -1.
         23    2    1    2    0    0 -0.63434261407E+02  0.13259126919E+02  0.30585799287E+03  0.32505407818E+03  0.88945668669E+02 0.  0.
        -11    1    3    3    0    0 -0.16897494755E+01 -0.30269626382E+02  0.13295427296E+03  0.13636694699E+03  0.00000000000E+00 0.  1.
         11    1    3    3    0    0 -0.61744511931E+02  0.43528753301E+02  0.17290371991E+03  0.18868713119E+03  0.00000000000E+00 0. -1.
        -15    1    1    2    0    0 -0.22738995989E+03  0.13797581707E+02  0.30071632014E+02  0.22979127029E+03  0.17770000000E+01 0.  1.
         15    1    1    2    0    0  0.29082422130E+03 -0.27056708626E+02 -0.33592962488E+03  0.44515465153E+03  0.17770000000E+01 0. -1.
</event>
<event>
 7    1  0.4378490E-007  0.8369232E+03  0.7546771E-02  0.8857336E-01
        -11   -1    0    0    0    0  0.00000000000E+00  0.00000000000E+00  0.50000000000E+03  0.50000000000E+03  0.00000000000E+00 0.  1.
         11   -1    0    0    0    0 -0.00000000000E+00 -0.00000000000E+00 -0.50000000000E+03  0.50000000000E+03  0.00000000000E+00 0. -1.
         23    2    1    2    0    0 -0.35589492902E+02  0.23421328341E+02 -0.12826856570E+03  0.16307684318E+03  0.91247253158E+02 0.  0.
        -11    1    3    3    0    0 -0.54534979045E+02  0.38461149977E+01 -0.12398100065E+03  0.13549961278E+03  0.00000000000E+00 0.  1.
         11    1    3    3    0    0  0.18945486143E+02  0.19575213343E+02 -0.42875650449E+01  0.27577230402E+02  0.00000000000E+00 0. -1.
        -15    1    1    2    0    0  0.27297655603E+02  0.28697874123E+03  0.35142463437E+03  0.45453755763E+03  0.17770000000E+01 0.  1.
         15    1    1    2    0    0  0.82918372987E+01 -0.31040006957E+03 -0.22315606868E+03  0.38238559919E+03  0.17770000000E+01 0. -1.
</event>
<event>
 7    1  0.4378490E-007  0.1000000E+04  0.7546771E-02  0.8684367E-01
        -11   -1    0    0    0    0  0.00000000000E+00  0.00000000000E+00  0.50000000000E+03  0.50000000000E+03  0.00000000000E+00 0.  1.
         11   -1    0    0    0    0 -0.00000000000E+00 -0.00000000000E+00 -0.50000000000E+03  0.50000000000E+03  0.00000000000E+00 0. -1.
         23    2    1    2    0    0 -0.16848398738E+03  0.24632686034E+03  0.20326339608E+03  0.37227898673E+03  0.90619311655E+02 0.  0.
        -11    1    3    3    0    0 -0.17579269061E+03  0.24831008626E+03  0.19698412345E+03  0.36244132478E+03  0.00000000000E+00 0.  1.
         11    1    3    3    0    0  0.73087032305E+01 -0.19832259236E+01  0.62792726222E+01  0.98376619499E+01  0.00000000000E+00 0. -1.
        -15    1    1    2    0    0 -0.16377904449E+03 -0.28140190595E+02 -0.15508566507E+03  0.22731072782E+03  0.17770000000E+01 0.  1.
         15    1    1    2    0    0  0.33226303187E+03 -0.21818666975E+03 -0.48177731001E+02  0.40041028545E+03  0.17770000000E+01 0. -1.
</event>
<event>
 7    1  0.6762544E-007  0.1000000E+04  0.7546771E-02  0.8684367E-01
        -11   -1    0    0    0    0  0.00000000000E+00  0.00000000000E+00  0.50000000000E+03  0.50000000000E+03  0.00000000000E+00 0.  1.
         11   -1    0    0    0    0 -0.00000000000E+00 -0.00000000000E+00 -0.50000000000E+03  0.50000000000E+03  0.00000000000E+00 0. -1.
         23    2    1    2    0    0  0.19083735577E+01  0.38961495298E+02 -0.15029463669E+03  0.18120043035E+03  0.93399561759E+02 0.  0.
        -11    1    3    3    0    0  0.45514263798E+02  0.19838228705E+02 -0.51530156321E+02  0.71557393313E+02  0.00000000000E+00 0.  1.
         11    1    3    3    0    0 -0.43605890240E+02  0.19123266594E+02 -0.98764480371E+02  0.10964303704E+03  0.00000000000E+00 0. -1.
        -15    1    1    2    0    0  0.16564924908E+03 -0.15123607638E+03  0.42348059096E+03  0.47921914942E+03  0.17770000000E+01 0.  1.
         15    1    1    2    0    0 -0.16755762263E+03  0.11227458108E+03 -0.27318595427E+03  0.33958042023E+03  0.17770000000E+01 0. -1.
</event>
<event>
 7    1  0.4378490E-007  0.8287311E+03  0.7546771E-02  0.8867098E-01
        -11   -1    0    0    0    0  0.00000000000E+00  0.00000000000E+00  0.50000000000E+03  0.50000000000E+03  0.00000000000E+00 0.  1.
         11   -1    0    0    0    0 -0.00000000000E+00 -0.00000000000E+00 -0.50000000000E+03  0.50000000000E+03  0.00000000000E+00 0. -1.
         23    2    1    2    0    0  0.10812615145E+03 -0.42059117629E+02  0.87276817850E+02  0.17126892000E+03  0.90860145397E+02 0.  0.
        -11    1    3    3    0    0  0.89713625053E+02 -0.53816604306E+01  0.19392301320E+02  0.91943233245E+02  0.00000000000E+00 0. -1.
         11    1    3    3    0    0  0.18412526396E+02 -0.36677457198E+02  0.67884516530E+02  0.79325686756E+02  0.00000000000E+00 0.  1.
        -15    1    1    2    0    0 -0.97505399723E+02  0.42373292169E+03 -0.10202868641E+03  0.44662053522E+03  0.17770000000E+01 0. -1.
         15    1    1    2    0    0 -0.10620751726E+02 -0.38167380406E+03  0.14751868561E+02  0.38211054478E+03  0.17770000000E+01 0.  1.
</event>
<event>
 7    1  0.4378490E-007  0.1000000E+04  0.7546771E-02  0.8684367E-01
        -11   -1    0    0    0    0  0.00000000000E+00  0.00000000000E+00  0.50000000000E+03  0.50000000000E+03  0.00000000000E+00 0.  1.
         11   -1    0    0    0    0 -0.00000000000E+00 -0.00000000000E+00 -0.50000000000E+03  0.50000000000E+03  0.00000000000E+00 0. -1.
         23    2    1    2    0    0 -0.20374752038E+02  0.33797504415E+02 -0.12726328500E+02  0.10090382259E+03  0.91990326400E+02 0.  0.
        -11    1    3    3    0    0 -0.52085004227E+01 -0.24001810723E+02 -0.29933337676E+02  0.38719763675E+02  0.00000000000E+00 0. -1.
         11    1    3    3    0    0 -0.15166251615E+02  0.57799315138E+02  0.17207009177E+02  0.62184058916E+02  0.00000000000E+00 0.  1.
        -15    1    1    2    0    0  0.32734140208E+03 -0.29878161932E+02  0.32425240040E+03  0.46172272521E+03  0.17770000000E+01 0.  1.
         15    1    1    2    0    0 -0.30696665004E+03 -0.39193424836E+01 -0.31152607190E+03  0.43737345220E+03  0.17770000000E+01 0. -1.
</event>
<event>
 7    1  0.4378490E-007  0.8800414E+03  0.7546771E-02  0.8807820E-01
        -11   -1    0    0    0    0  0.00000000000E+00  0.00000000000E+00  0.50000000000E+03  0.50000000000E+03  0.00000000000E+00 0. -1.
         11   -1    0    0    0    0 -0.00000000000E+00 -0.00000000000E+00 -0.50000000000E+03  0.50000000000E+03  0.00000000000E+00 0.  1.
         23    2    1    2    0    0 -0.12953874110E+01 -0.78059221344E+02 -0.61314244243E+01  0.11995862210E+03  0.90871098735E+02 0.  0.
        -11    1    3    3    0    0 -0.33800649733E+00 -0.72541182872E+02 -0.41887273810E+02  0.83766826178E+02  0.00000000000E+00 0.  1.
         11    1    3    3    0    0 -0.95738091370E+00 -0.55180384728E+01  0.35755849385E+02  0.36191795922E+02  0.00000000000E+00 0. -1.
        -15    1    1    2    0    0 -0.26371218738E+03  0.59024339924E+02  0.35207938906E+03  0.44383673170E+03  0.17770000000E+01 0. -1.
         15    1    1    2    0    0  0.26500757479E+03  0.19034881420E+02 -0.34594796463E+03  0.43620464620E+03  0.17770000000E+01 0.  1.
</event>
<event>
 7    1  0.4378490E-007  0.1000000E+04  0.7546771E-02  0.8684367E-01
        -11   -1    0    0    0    0  0.00000000000E+00  0.00000000000E+00  0.50000000000E+03  0.50000000000E+03  0.00000000000E+00 0. -1.
         11   -1    0    0    0    0 -0.00000000000E+00 -0.00000000000E+00 -0.50000000000E+03  0.50000000000E+03  0.00000000000E+00 0.  1.
         23    2    1    2    0    0 -0.59310613276E+02 -0.58109329476E+02 -0.39101036886E+03  0.41040737882E+03  0.93008951251E+02 0.  0.
        -11    1    3    3    0    0 -0.36864137355E+01  0.14578871910E+02 -0.88708496209E+01  0.17459241833E+02  0.00000000000E+00 0. -1.
         11    1    3    3    0    0 -0.55624199540E+02 -0.72688201386E+02 -0.38213951924E+03  0.39294813698E+03  0.00000000000E+00 0.  1.
        -15    1    1    2    0    0  0.13132590797E+03 -0.16806071792E+02 -0.46170527854E+02  0.14022772024E+03  0.17770000000E+01 0.  1.
         15    1    1    2    0    0 -0.72015294694E+02  0.74915401268E+02  0.43718089671E+03  0.44936490094E+03  0.17770000000E+01 0. -1.
</event>
<event>
 7    1  0.4378490E-007  0.8624114E+03  0.7546771E-02  0.8827698E-01
        -11   -1    0    0    0    0  0.00000000000E+00  0.00000000000E+00  0.50000000000E+03  0.50000000000E+03  0.00000000000E+00 0.  1.
         11   -1    0    0    0    0 -0.00000000000E+00 -0.00000000000E+00 -0.50000000000E+03  0.50000000000E+03  0.00000000000E+00 0. -1.
         23    2    1    2    0    0  0.70753351779E+02 -0.70400670542E+02  0.61114951524E+01  0.13758861125E+03  0.94503885480E+02 0.  0.
        -11    1    3    3    0    0 -0.23236439744E+02 -0.79857080313E+01  0.26054890243E+01  0.24708141124E+02  0.00000000000E+00 0. -1.
         11    1    3    3    0    0  0.93989791523E+02 -0.62414962511E+02  0.35060061282E+01  0.11288047012E+03  0.00000000000E+00 0.  1.
        -15    1    1    2    0    0  0.22593313597E+03  0.25993283647E+03 -0.25731827793E+03  0.42991477677E+03  0.17770000000E+01 0.  1.
         15    1    1    2    0    0 -0.29668648774E+03 -0.18953216593E+03  0.25120678278E+03  0.43249661198E+03  0.17770000000E+01 0. -1.
</event>
<event>
 7    1  0.4378490E-007  0.7505138E+03  0.7546771E-02  0.8966719E-01
        -11   -1    0    0    0    0  0.00000000000E+00  0.00000000000E+00  0.50000000000E+03  0.50000000000E+03  0.00000000000E+00 0.  1.
         11   -1    0    0    0    0 -0.00000000000E+00 -0.00000000000E+00 -0.50000000000E+03  0.50000000000E+03  0.00000000000E+00 0. -1.
         23    2    1    2    0    0  0.34796344592E+02 -0.15858375661E+03 -0.16559354909E+03  0.24948621548E+03  0.91992145077E+02 0.  0.
        -11    1    3    3    0    0 -0.30989607687E+02 -0.38135785407E+02 -0.49150064276E+02  0.69501242662E+02  0.00000000000E+00 0.  1.
         11    1    3    3    0    0  0.65785952279E+02 -0.12044797120E+03 -0.11644348482E+03  0.17998497282E+03  0.00000000000E+00 0. -1.
        -15    1    1    2    0    0 -0.21170372701E+03  0.24137392016E+03 -0.16918823785E+03  0.36291549281E+03  0.17770000000E+01 0. -1.
         15    1    1    2    0    0  0.17690738242E+03 -0.82790163552E+02  0.33478178695E+03  0.38759829171E+03  0.17770000000E+01 0.  1.
</event>
<event>
 7    1  0.4378490E-007  0.8344281E+03  0.7546771E-02  0.8860297E-01
        -11   -1    0    0    0    0  0.00000000000E+00  0.00000000000E+00  0.50000000000E+03  0.50000000000E+03  0.00000000000E+00 0.  1.
         11   -1    0    0    0    0 -0.00000000000E+00 -0.00000000000E+00 -0.50000000000E+03  0.50000000000E+03  0.00000000000E+00 0. -1.
         23    2    1    2    0    0  0.88862421272E+01 -0.48423789882E+02 -0.12936542031E+03  0.16557190284E+03  0.90856008673E+02 0.  0.
        -11    1    3    3    0    0 -0.24348248129E+02 -0.21690617233E+02 -0.11656552987E+03  0.12104066596E+03  0.00000000000E+00 0. -1.
         11    1    3    3    0    0  0.33234490256E+02 -0.26733172649E+02 -0.12799890441E+02  0.44531236876E+02  0.00000000000E+00 0.  1.
        -15    1    1    2    0    0 -0.80344182375E+02  0.39974216938E+03 -0.85287480300E+02  0.41656464282E+03  0.17770000000E+01 0. -1.
         15    1    1    2    0    0  0.71457940247E+02 -0.35131837950E+03  0.21465290061E+03  0.41786345434E+03  0.17770000000E+01 0.  1.
</event>
<event>
 7    1  0.4378490E-007  0.8730590E+03  0.7546771E-02  0.8815634E-01
        -11   -1    0    0    0    0  0.00000000000E+00  0.00000000000E+00  0.50000000000E+03  0.50000000000E+03  0.00000000000E+00 0.  1.
         11   -1    0    0    0    0 -0.00000000000E+00 -0.00000000000E+00 -0.50000000000E+03  0.50000000000E+03  0.00000000000E+00 0. -1.
         23    2    1    2    0    0 -0.87123607263E+01  0.11110443153E+02  0.87311552766E+02  0.12694101599E+03  0.91056944365E+02 0.  0.
        -11    1    3    3    0    0  0.36410646162E+02 -0.13251271273E+02  0.51261238757E+02  0.64257652799E+02  0.00000000000E+00 0.  1.
         11    1    3    3    0    0 -0.45123006889E+02  0.24361714427E+02  0.36050314009E+02  0.62683363188E+02  0.00000000000E+00 0. -1.
        -15    1    1    2    0    0  0.28459231449E+03 -0.29014772048E+03  0.12718855890E+03  0.42586215189E+03  0.17770000000E+01 0.  1.
         15    1    1    2    0    0 -0.27587995377E+03  0.27903727733E+03 -0.21450011166E+03  0.44719683212E+03  0.17770000000E+01 0. -1.
</event>
<event>
 7    1  0.4378490E-007  0.1000000E+04  0.7546771E-02  0.8684367E-01
        -11   -1    0    0    0    0  0.00000000000E+00  0.00000000000E+00  0.50000000000E+03  0.50000000000E+03  0.00000000000E+00 0.  1.
         11   -1    0    0    0    0 -0.00000000000E+00 -0.00000000000E+00 -0.50000000000E+03  0.50000000000E+03  0.00000000000E+00 0. -1.
         23    2    1    2    0    0  0.80118549579E+02 -0.14111918120E+03 -0.25237559914E+03  0.31374506455E+03  0.91700148282E+02 0.  0.
        -11    1    3    3    0    0  0.47991237846E+02 -0.13589073562E+03 -0.15770952069E+03  0.21363928443E+03  0.00000000000E+00 0. -1.
         11    1    3    3    0    0  0.32127311733E+02 -0.52284455807E+01 -0.94666078451E+02  0.10010578011E+03  0.00000000000E+00 0.  1.
        -15    1    1    2    0    0 -0.12757847037E+03  0.36284757879E+03  0.25139192390E+03  0.45949503661E+03  0.17770000000E+01 0.  1.
         15    1    1    2    0    0  0.47459920791E+02 -0.22172839759E+03  0.98367524086E+00  0.22675989885E+03  0.17770000000E+01 0. -1.
</event>
<event>
 7    1  0.4378490E-007  0.6226408E+03  0.7546771E-02  0.9160744E-01
        -11   -1    0    0    0    0  0.00000000000E+00  0.00000000000E+00  0.50000000000E+03  0.50000000000E+03  0.00000000000E+00 0. -1.
         11   -1    0    0    0    0 -0.00000000000E+00 -0.00000000000E+00 -0.50000000000E+03  0.50000000000E+03  0.00000000000E+00 0.  1.
         23    2    1    2    0    0  0.70292297008E+02  0.35909986268E+03 -0.18851880715E+01  0.37735915363E+03  0.92209861176E+02 0.  0.
        -11    1    3    3    0    0  0.76602268506E+02  0.18748156140E+03  0.23008991030E+02  0.20382997099E+03  0.00000000000E+00 0. -1.
         11    1    3    3    0    0 -0.63099714976E+01  0.17161830128E+03 -0.24894179101E+02  0.17352918264E+03  0.00000000000E+00 0.  1.
        -15    1    1    2    0    0  0.13849324562E+03 -0.21296137635E+03  0.18031932131E+03  0.31153032319E+03  0.17770000000E+01 0. -1.
         15    1    1    2    0    0 -0.20878554263E+03 -0.14613848633E+03 -0.17843413324E+03  0.31111052318E+03  0.17770000000E+01 0.  1.
</event>
<event>
 7    1  0.4378490E-007  0.1000000E+04  0.7546771E-02  0.8684367E-01
        -11   -1    0    0    0    0  0.00000000000E+00  0.00000000000E+00  0.50000000000E+03  0.50000000000E+03  0.00000000000E+00 0. -1.
         11   -1    0    0    0    0 -0.00000000000E+00 -0.00000000000E+00 -0.50000000000E+03  0.50000000000E+03  0.00000000000E+00 0.  1.
         23    2    1    2    0    0  0.19710145238E+03 -0.25126131680E+02 -0.11283487166E+03  0.24639971466E+03  0.92199816164E+02 0.  0.
        -11    1    3    3    0    0  0.18235811256E+03  0.52890022979E+01 -0.79756993410E+02  0.19910708867E+03  0.00000000000E+00 0. -1.
         11    1    3    3    0    0  0.14743339821E+02 -0.30415133978E+02 -0.33077878245E+02  0.47292625991E+02  0.00000000000E+00 0.  1.
        -15    1    1    2    0    0 -0.43547230101E+03  0.12752341026E+03  0.17580122163E+03  0.48662878293E+03  0.17770000000E+01 0.  1.
         15    1    1    2    0    0  0.23837084864E+03 -0.10239727858E+03 -0.62966349979E+02  0.26697150241E+03  0.17770000000E+01 0. -1.
</event>
<event>
 7    1  0.4378490E-007  0.1000000E+04  0.7546771E-02  0.8684367E-01
        -11   -1    0    0    0    0  0.00000000000E+00  0.00000000000E+00  0.50000000000E+03  0.50000000000E+03  0.00000000000E+00 0.  1.
         11   -1    0    0    0    0 -0.00000000000E+00 -0.00000000000E+00 -0.50000000000E+03  0.50000000000E+03  0.00000000000E+00 0. -1.
         23    2    1    2    0    0 -0.17330876221E+03  0.10426059122E+03  0.11105016368E+03  0.24787258246E+03  0.90567545733E+02 0.  0.
        -11    1    3    3    0    0 -0.13205471533E+03  0.28520011803E+02  0.61914076072E+02  0.14861087353E+03  0.00000000000E+00 0.  1.
         11    1    3    3    0    0 -0.41254046878E+02  0.75740579416E+02  0.49136087606E+02  0.99261708928E+02  0.00000000000E+00 0. -1.
        -15    1    1    2    0    0 -0.80036732626E+02  0.13662921357E+03  0.21973053076E+03  0.27084697607E+03  0.17770000000E+01 0.  1.
         15    1    1    2    0    0  0.25334549484E+03 -0.24088980479E+03 -0.33078069444E+03  0.48128044147E+03  0.17770000000E+01 0. -1.
</event>
<event>
 7    1  0.4378490E-007  0.8236120E+03  0.7546771E-02  0.8873259E-01
        -11   -1    0    0    0    0  0.00000000000E+00  0.00000000000E+00  0.50000000000E+03  0.50000000000E+03  0.00000000000E+00 0.  1.
         11   -1    0    0    0    0 -0.00000000000E+00 -0.00000000000E+00 -0.50000000000E+03  0.50000000000E+03  0.00000000000E+00 0. -1.
         23    2    1    2    0    0  0.46637084883E+02  0.97117951497E+02  0.10605682574E+03  0.17638802331E+03  0.90872274604E+02 0.  0.
        -11    1    3    3    0    0  0.21642915356E+02  0.97431487503E+02  0.11268323670E+03  0.15052847696E+03  0.00000000000E+00 0. -1.
         11    1    3    3    0    0  0.24994169527E+02 -0.31353600699E+00 -0.66264109617E+01  0.25859546350E+02  0.00000000000E+00 0.  1.
        -15    1    1    2    0    0  0.25867565713E+03  0.24455775418E+03 -0.78705697006E+02  0.36458104063E+03  0.17770000000E+01 0.  1.
         15    1    1    2    0    0 -0.30531274201E+03 -0.34167570568E+03 -0.27351128734E+02  0.45903093606E+03  0.17770000000E+01 0. -1.
</event>
<event>
 6    1  0.4378490E-007  0.7983529E+03  0.7546771E-02  0.8904360E-01
        -11   -1    0    0    0    0  0.00000000000E+00  0.00000000000E+00  0.50000000000E+03  0.50000000000E+03  0.00000000000E+00 0.  1.
         11   -1    0    0    0    0 -0.00000000000E+00 -0.00000000000E+00 -0.50000000000E+03  0.50000000000E+03  0.00000000000E+00 0. -1.
        -11    1    1    2    0    0 -0.41432461861E+02 -0.10533276618E+03 -0.73725212107E+02  0.13508163246E+03  0.00000000000E+00 0.  1.
         11    1    1    2    0    0 -0.64315811709E+01 -0.28509761171E+02  0.58125981410E+02  0.65059983348E+02  0.00000000000E+00 0. -1.
        -15    1    1    2    0    0  0.40959651020E+02 -0.17616804980E+03  0.31856413403E+03  0.36633200788E+03  0.17770000000E+01 0.  1.
         15    1    1    2    0    0  0.69043920120E+01  0.31001057715E+03 -0.30296490333E+03  0.43352637631E+03  0.17770000000E+01 0. -1.
</event>
<event>
 7    1  0.4378490E-007  0.6203527E+03  0.7546771E-02  0.9164654E-01
        -11   -1    0    0    0    0  0.00000000000E+00  0.00000000000E+00  0.50000000000E+03  0.50000000000E+03  0.00000000000E+00 0. -1.
         11   -1    0    0    0    0 -0.00000000000E+00 -0.00000000000E+00 -0.50000000000E+03  0.50000000000E+03  0.00000000000E+00 0.  1.
         23    2    1    2    0    0  0.10523643095E+03 -0.12021420781E+03  0.33117083041E+03  0.37964732487E+03  0.94508254732E+02 0.  0.
        -11    1    3    3    0    0  0.50050420496E+02 -0.11215989945E+03  0.27140455747E+03  0.29790152979E+03  0.00000000000E+00 0. -1.
         11    1    3    3    0    0  0.55186010454E+02 -0.80543083595E+01  0.59766272943E+02  0.81745795087E+02  0.00000000000E+00 0.  1.
        -15    1    1    2    0    0  0.16849933736E+02 -0.17392700482E+03 -0.22448042258E+03  0.28448047582E+03  0.17770000000E+01 0.  1.
         15    1    1    2    0    0 -0.12208636469E+03  0.29414121263E+03 -0.10669040783E+03  0.33587219930E+03  0.17770000000E+01 0. -1.
</event>
<event>
 7    1  0.4378490E-007  0.8824651E+03  0.7546771E-02  0.8805125E-01
        -11   -1    0    0    0    0  0.00000000000E+00  0.00000000000E+00  0.50000000000E+03  0.50000000000E+03  0.00000000000E+00 0. -1.
         11   -1    0    0    0    0 -0.00000000000E+00 -0.00000000000E+00 -0.50000000000E+03  0.50000000000E+03  0.00000000000E+00 0.  1.
         23    2    1    2    0    0  0.40362594950E+02  0.12184871909E+02 -0.61827460854E+02  0.11753486416E+03  0.90632219451E+02 0.  0.
        -11    1    3    3    0    0  0.73768197018E+01  0.99279040216E+01 -0.79217701095E+02  0.80177458890E+02  0.00000000000E+00 0.  1.
         11    1    3    3    0    0  0.32985775248E+02  0.22569678874E+01  0.17390240241E+02  0.37357405269E+02  0.00000000000E+00 0. -1.
        -15    1    1    2    0    0 -0.30336685052E+03 -0.34244307039E+03  0.48573668250E+02  0.46006658369E+03  0.17770000000E+01 0. -1.
         15    1    1    2    0    0  0.26300425557E+03  0.33025819848E+03  0.13253792604E+02  0.42239855215E+03  0.17770000000E+01 0.  1.
</event>
<event>
 7    1  0.4378490E-007  0.9027797E+03  0.7546771E-02  0.8782891E-01
        -11   -1    0    0    0    0  0.00000000000E+00  0.00000000000E+00  0.50000000000E+03  0.50000000000E+03  0.00000000000E+00 0. -1.
         11   -1    0    0    0    0 -0.00000000000E+00 -0.00000000000E+00 -0.50000000000E+03  0.50000000000E+03  0.00000000000E+00 0.  1.
         23    2    1    2    0    0  0.65141700474E+01 -0.23300323945E+02 -0.35799579195E+02  0.97220347255E+02  0.87091024466E+02 0.  0.
        -11    1    3    3    0    0  0.37185383466E+01  0.40459689494E+01 -0.60208369508E+02  0.60458623462E+02  0.00000000000E+00 0.  1.
         11    1    3    3    0    0  0.27956317008E+01 -0.27346292894E+02  0.24408790313E+02  0.36761723793E+02  0.00000000000E+00 0. -1.
        -15    1    1    2    0    0 -0.30955394145E+03 -0.26283484143E+03  0.20264044462E+03  0.45384149663E+03  0.17770000000E+01 0. -1.
         15    1    1    2    0    0  0.30303977140E+03  0.28613516538E+03 -0.16684086543E+03  0.44893815612E+03  0.17770000000E+01 0.  1.
</event>
<event>
 7    1  0.4378490E-007  0.7104548E+03  0.7546771E-02  0.9022824E-01
        -11   -1    0    0    0    0  0.00000000000E+00  0.00000000000E+00  0.50000000000E+03  0.50000000000E+03  0.00000000000E+00 0. -1.
         11   -1    0    0    0    0 -0.00000000000E+00 -0.00000000000E+00 -0.50000000000E+03  0.50000000000E+03  0.00000000000E+00 0.  1.
         23    2    1    2    0    0  0.13761784967E+03 -0.65857296822E+02  0.22773453562E+03  0.28954515552E+03  0.93260507603E+02 0.  0.
        -11    1    3    3    0    0  0.56233543248E+02  0.19237672567E+02  0.58633940282E+02  0.83487953532E+02  0.00000000000E+00 0.  1.
         11    1    3    3    0    0  0.81384306421E+02 -0.85094969389E+02  0.16910059534E+03  0.20605720199E+03  0.00000000000E+00 0. -1.
        -15    1    1    2    0    0 -0.27775269074E+02  0.32627321270E+03 -0.27032737594E+03  0.42462421364E+03  0.17770000000E+01 0.  1.
         15    1    1    2    0    0 -0.10984258059E+03 -0.26041591587E+03  0.42592840323E+02  0.28583063084E+03  0.17770000000E+01 0. -1.
</event>
<event>
 7    1  0.4378490E-007  0.1000000E+04  0.7546771E-02  0.8684367E-01
        -11   -1    0    0    0    0  0.00000000000E+00  0.00000000000E+00  0.50000000000E+03  0.50000000000E+03  0.00000000000E+00 0.  1.
         11   -1    0    0    0    0 -0.00000000000E+00 -0.00000000000E+00 -0.50000000000E+03  0.50000000000E+03  0.00000000000E+00 0. -1.
         23    2    1    2    0    0 -0.39322519536E+02 -0.36291552492E+02  0.17058337051E+03  0.20048720644E+03  0.90736411239E+02 0.  0.
        -11    1    3    3    0    0  0.26466369841E+02  0.11080100398E+01  0.68261273598E+02  0.73220884262E+02  0.00000000000E+00 0.  1.
         11    1    3    3    0    0 -0.65788889377E+02 -0.37399562531E+02  0.10232209692E+03  0.12726632218E+03  0.00000000000E+00 0. -1.
        -15    1    1    2    0    0  0.32991541727E+03  0.11200484732E+03 -0.31189805509E+03  0.46762466025E+03  0.17770000000E+01 0.  1.
         15    1    1    2    0    0 -0.29059289773E+03 -0.75713294831E+02  0.14131468458E+03  0.33188813331E+03  0.17770000000E+01 0. -1.
</event>
<event>
 7    1  0.4743846E-007  0.7371595E+03  0.7546771E-02  0.8985005E-01
        -11   -1    0    0    0    0  0.00000000000E+00  0.00000000000E+00  0.50000000000E+03  0.50000000000E+03  0.00000000000E+00 0. -1.
         11   -1    0    0    0    0 -0.00000000000E+00 -0.00000000000E+00 -0.50000000000E+03  0.50000000000E+03  0.00000000000E+00 0.  1.
         23    2    1    2    0    0  0.20634972358E+02 -0.56112434393E+01  0.24628458311E+03  0.26284053711E+03  0.89284735164E+02 0.  0.
        -11    1    3    3    0    0 -0.28406711678E+02  0.19949813525E+02  0.70866650114E+02  0.78911459412E+02  0.00000000000E+00 0.  1.
         11    1    3    3    0    0  0.49041684036E+02 -0.25561056965E+02  0.17541793300E+03  0.18392907770E+03  0.00000000000E+00 0. -1.
        -15    1    1    2    0    0  0.21402223762E+03  0.26303172099E+03 -0.17504262435E+03  0.38162060021E+03  0.17770000000E+01 0.  1.
         15    1    1    2    0    0 -0.23465720998E+03 -0.25742047755E+03 -0.71241958764E+02  0.35553886268E+03  0.17770000000E+01 0. -1.
</event>
<event>
 7    1  0.4378490E-007  0.1000000E+04  0.7546771E-02  0.8684367E-01
        -11   -1    0    0    0    0  0.00000000000E+00  0.00000000000E+00  0.50000000000E+03  0.50000000000E+03  0.00000000000E+00 0. -1.
         11   -1    0    0    0    0 -0.00000000000E+00 -0.00000000000E+00 -0.50000000000E+03  0.50000000000E+03  0.00000000000E+00 0.  1.
         23    2    1    2    0    0  0.29302699249E+03 -0.12868726855E+03  0.13337684160E+03  0.35801447774E+03  0.89217447735E+02 0.  0.
        -11    1    3    3    0    0  0.29720519735E+03 -0.12265029442E+03  0.12082193382E+03  0.34347046997E+03  0.00000000000E+00 0. -1.
         11    1    3    3    0    0 -0.41782048560E+01 -0.60369741343E+01  0.12554907785E+02  0.14544007770E+02  0.00000000000E+00 0.  1.
        -15    1    1    2    0    0  0.12694170872E+03 -0.25966722904E+02 -0.14477519499E+03  0.19429740843E+03  0.17770000000E+01 0. -1.
         15    1    1    2    0    0 -0.41996870121E+03  0.15465399146E+03  0.11398353385E+02  0.44768811382E+03  0.17770000000E+01 0.  1.
</event>
<event>
 7    1  0.4378490E-007  0.7401269E+03  0.7546771E-02  0.8980906E-01
        -11   -1    0    0    0    0  0.00000000000E+00  0.00000000000E+00  0.50000000000E+03  0.50000000000E+03  0.00000000000E+00 0.  1.
         11   -1    0    0    0    0 -0.00000000000E+00 -0.00000000000E+00 -0.50000000000E+03  0.50000000000E+03  0.00000000000E+00 0. -1.
         23    2    1    2    0    0  0.90731808413E+02  0.20855817775E+03 -0.88048312891E+02  0.25987311023E+03  0.89737135319E+02 0.  0.
        -11    1    3    3    0    0  0.57435977417E+02  0.55007266667E+02 -0.61485003838E+02  0.10052410947E+03  0.00000000000E+00 0.  1.
         11    1    3    3    0    0  0.33295830995E+02  0.15355091108E+03 -0.26563309053E+02  0.15934900076E+03  0.00000000000E+00 0. -1.
        -15    1    1    2    0    0  0.26311939293E+02  0.12798787330E+02  0.36533578204E+03  0.36650991593E+03  0.17770000000E+01 0.  1.
         15    1    1    2    0    0 -0.11704374771E+03 -0.22135696508E+03 -0.27728746915E+03  0.37361697384E+03  0.17770000000E+01 0. -1.
</event>
<event>
 7    1  0.4378490E-007  0.7843653E+03  0.7546771E-02  0.8922107E-01
        -11   -1    0    0    0    0  0.00000000000E+00  0.00000000000E+00  0.50000000000E+03  0.50000000000E+03  0.00000000000E+00 0. -1.
         11   -1    0    0    0    0 -0.00000000000E+00 -0.00000000000E+00 -0.50000000000E+03  0.50000000000E+03  0.00000000000E+00 0.  1.
         23    2    1    2    0    0 -0.43804005058E+02 -0.53943746885E+02  0.18347927256E+03  0.21563467239E+03  0.89470384988E+02 0.  0.
        -11    1    3    3    0    0 -0.25674629979E+02  0.17563906600E+02  0.21994307833E+02  0.38097598568E+02  0.00000000000E+00 0.  1.
         11    1    3    3    0    0 -0.18129375079E+02 -0.71507653485E+02  0.16148496473E+03  0.17753707382E+03  0.00000000000E+00 0. -1.
        -15    1    1    2    0    0 -0.31415172484E+03  0.68430427410E+02 -0.26534733217E+03  0.41687695311E+03  0.17770000000E+01 0. -1.
         15    1    1    2    0    0  0.35795572990E+03 -0.14486680525E+02  0.81868059613E+02  0.36748837450E+03  0.17770000000E+01 0.  1.
</event>
<event>
 7    1  0.4378490E-007  0.8662019E+03  0.7546771E-02  0.8823383E-01
        -11   -1    0    0    0    0  0.00000000000E+00  0.00000000000E+00  0.50000000000E+03  0.50000000000E+03  0.00000000000E+00 0.  1.
         11   -1    0    0    0    0 -0.00000000000E+00 -0.00000000000E+00 -0.50000000000E+03  0.50000000000E+03  0.00000000000E+00 0. -1.
         23    2    1    2    0    0  0.20439275968E+02  0.66049311725E+02 -0.39230806360E+02  0.13379806895E+03  0.10762244890E+03 0.  0.
        -11    1    3    3    0    0 -0.29542908907E+02  0.19977817158E+02  0.22339558946E+02  0.42082686927E+02  0.00000000000E+00 0. -1.
         11    1    3    3    0    0  0.49982184875E+02  0.46071494567E+02 -0.61570365306E+02  0.91715382028E+02  0.00000000000E+00 0.  1.
        -15    1    1    2    0    0 -0.59982054909E+02 -0.38690300005E+03 -0.22242379733E+03  0.45029688174E+03  0.17770000000E+01 0. -1.
         15    1    1    2    0    0  0.39542778941E+02  0.32085368832E+03  0.26165460369E+03  0.41590504931E+03  0.17770000000E+01 0.  1.
</event>
<event>
 7    1  0.4378490E-007  0.6971684E+03  0.7546771E-02  0.9042299E-01
        -11   -1    0    0    0    0  0.00000000000E+00  0.00000000000E+00  0.50000000000E+03  0.50000000000E+03  0.00000000000E+00 0.  1.
         11   -1    0    0    0    0 -0.00000000000E+00 -0.00000000000E+00 -0.50000000000E+03  0.50000000000E+03  0.00000000000E+00 0. -1.
         23    2    1    2    0    0  0.13932544210E+02 -0.14499694972E+03 -0.24875859547E+03  0.30283155365E+03  0.92778660511E+02 0.  0.
        -11    1    3    3    0    0 -0.13729765243E+02 -0.37949242179E+02 -0.14744678550E+03  0.15286989890E+03  0.00000000000E+00 0. -1.
         11    1    3    3    0    0  0.27662309453E+02 -0.10704770754E+03 -0.10131180997E+03  0.14996165474E+03  0.00000000000E+00 0.  1.
        -15    1    1    2    0    0  0.26942254979E+03  0.83095835999E+02  0.28969334219E+03  0.40425093511E+03  0.17770000000E+01 0.  1.
         15    1    1    2    0    0 -0.28335509400E+03  0.61901113720E+02 -0.40934746716E+02  0.29291751125E+03  0.17770000000E+01 0. -1.
</event>
<event>
 7    1  0.4378490E-007  0.1000000E+04  0.7546771E-02  0.8684367E-01
        -11   -1    0    0    0    0  0.00000000000E+00  0.00000000000E+00  0.50000000000E+03  0.50000000000E+03  0.00000000000E+00 0.  1.
         11   -1    0    0    0    0 -0.00000000000E+00 -0.00000000000E+00 -0.50000000000E+03  0.50000000000E+03  0.00000000000E+00 0. -1.
         23    2    1    2    0    0  0.86193284941E+02 -0.19792365432E+02 -0.17475912356E+03  0.20531985139E+03  0.61599269567E+02 0.  0.
        -11    1    3    3    0    0 -0.31577722624E+01  0.12387331286E+02 -0.22118437149E+02  0.25546873859E+02  0.00000000000E+00 0.  1.
         11    1    3    3    0    0  0.89351057203E+02 -0.32179696718E+02 -0.15264068641E+03  0.17977297753E+03  0.00000000000E+00 0. -1.
        -15    1    1    2    0    0  0.34760466747E+02  0.19324843005E+02 -0.30108251629E+03  0.30370310988E+03  0.17770000000E+01 0. -1.
         15    1    1    2    0    0 -0.12095375169E+03  0.46752242624E+00  0.47584163984E+03  0.49097703873E+03  0.17770000000E+01 0.  1.
</event>
