<event>
 7    1  0.2808731E-007  0.3650000E+03  0.7546771E-02  0.9765871E-01
        -11   -1    0    0    0    0  0.00000000000E+00  0.00000000000E+00  0.18250000000E+03  0.18250000000E+03  0.00000000000E+00 0. -1.
         11   -1    0    0    0    0 -0.00000000000E+00 -0.00000000000E+00 -0.18250000000E+03  0.18250000000E+03  0.00000000000E+00 0.  1.
         23    2    1    2    0    0 -0.57062450460E+01  0.17375681068E+02 -0.66893554400E+01  0.94306501650E+02  0.92274011792E+02 0.  0.
        -11    1    3    3    0    0  0.96490144507E+01 -0.36624463877E+02 -0.11303858923E+01  0.37891062356E+02  0.00000000000E+00 0. -1.
         11    1    3    3    0    0 -0.15355259497E+02  0.54000144945E+02 -0.55589695478E+01  0.56415439294E+02  0.00000000000E+00 0.  1.
        -15    1    1    2    0    0  0.60567009203E+01  0.51324569332E+02 -0.11771292706E+03  0.12857054861E+03  0.17770000000E+01 0.  1.
         15    1    1    2    0    0 -0.35045587426E+00 -0.68700250400E+02  0.12440228250E+03  0.14212294974E+03  0.17770000000E+01 0. -1.
</event>
<event>
 7    1  0.2808731E-007  0.2690919E+03  0.7546771E-02  0.1014928E+00
        -11   -1    0    0    0    0  0.00000000000E+00  0.00000000000E+00  0.18250000000E+03  0.18250000000E+03  0.00000000000E+00 0.  1.
         11   -1    0    0    0    0 -0.00000000000E+00 -0.00000000000E+00 -0.18250000000E+03  0.18250000000E+03  0.00000000000E+00 0. -1.
         23    2    1    2    0    0 -0.25289212735E+00  0.24671388381E+02 -0.17630374880E+02  0.95908068475E+02  0.90987835017E+02 0.  0.
        -11    1    3    3    0    0 -0.82676878187E+01  0.45517765066E+02  0.21374421770E+02  0.50961627765E+02  0.00000000000E+00 0.  1.
         11    1    3    3    0    0  0.80147956913E+01 -0.20846376685E+02 -0.39004796649E+02  0.44946440710E+02  0.00000000000E+00 0. -1.
        -15    1    1    2    0    0  0.13053336761E+03  0.14452775205E+02 -0.36712701131E+01  0.13139436337E+03  0.17770000000E+01 0.  1.
         15    1    1    2    0    0 -0.13028047548E+03 -0.39124163587E+02  0.21301644993E+02  0.13769756816E+03  0.17770000000E+01 0. -1.
</event>
<event>
 7    1  0.2808731E-007  0.1917530E+03  0.7546771E-02  0.1061319E+00
        -11   -1    0    0    0    0  0.00000000000E+00  0.00000000000E+00  0.18250000000E+03  0.18250000000E+03  0.00000000000E+00 0. -1.
         11   -1    0    0    0    0 -0.00000000000E+00 -0.00000000000E+00 -0.18250000000E+03  0.18250000000E+03  0.00000000000E+00 0.  1.
         23    2    1    2    0    0 -0.50061915224E+02 -0.59915044117E+02 -0.12513225914E+03  0.17324697625E+03  0.90886878236E+02 0.  0.
        -11    1    3    3    0    0 -0.20044041272E+02  0.35535345606E+01  0.86833898295E+01  0.22131255213E+02  0.00000000000E+00 0. -1.
         11    1    3    3    0    0 -0.30017873952E+02 -0.63468578678E+02 -0.13381564897E+03  0.15111572104E+03  0.00000000000E+00 0.  1.
        -15    1    1    2    0    0  0.72639433529E+02  0.48922823782E+02  0.13802102900E+03  0.16347138026E+03  0.17770000000E+01 0. -1.
         15    1    1    2    0    0 -0.22577518305E+02  0.10992220335E+02 -0.12888769862E+02  0.28281643486E+02  0.17770000000E+01 0.  1.
</event>
<event>
 7    1  0.2808731E-007  0.3650000E+03  0.7546771E-02  0.9765871E-01
        -11   -1    0    0    0    0  0.00000000000E+00  0.00000000000E+00  0.18250000000E+03  0.18250000000E+03  0.00000000000E+00 0.  1.
         11   -1    0    0    0    0 -0.00000000000E+00 -0.00000000000E+00 -0.18250000000E+03  0.18250000000E+03  0.00000000000E+00 0. -1.
         23    2    1    2    0    0 -0.62702691041E+02 -0.21169955313E+02  0.26429432771E+02  0.11741760327E+03  0.93319795159E+02 0.  0.
        -11    1    3    3    0    0 -0.30138399405E+02  0.14121107902E+02 -0.28954829039E+02  0.44114747328E+02  0.00000000000E+00 0. -1.
         11    1    3    3    0    0 -0.32564291635E+02 -0.35291063214E+02  0.55384261810E+02  0.73302855939E+02  0.00000000000E+00 0.  1.
        -15    1    1    2    0    0 -0.37866280576E+02  0.53679688411E+02  0.75943067276E+02  0.10042843894E+03  0.17770000000E+01 0.  1.
         15    1    1    2    0    0  0.10056897162E+03 -0.32509733098E+02 -0.10237250005E+03  0.14715395779E+03  0.17770000000E+01 0. -1.
</event>
<event>
 7    1  0.2808731E-007  0.2523739E+03  0.7546771E-02  0.1023390E+00
        -11   -1    0    0    0    0  0.00000000000E+00  0.00000000000E+00  0.18250000000E+03  0.18250000000E+03  0.00000000000E+00 0.  1.
         11   -1    0    0    0    0 -0.00000000000E+00 -0.00000000000E+00 -0.18250000000E+03  0.18250000000E+03  0.00000000000E+00 0. -1.
         23    2    1    2    0    0  0.22749234580E+02 -0.22761718995E+02  0.57985862889E+02  0.11262612194E+03  0.91031090968E+02 0.  0.
        -11    1    3    3    0    0  0.45007700073E+01  0.43868123214E+01 -0.23760532538E+02  0.24577712658E+02  0.00000000000E+00 0. -1.
         11    1    3    3    0    0  0.18248464573E+02 -0.27148531316E+02  0.81746395427E+02  0.88048409282E+02  0.00000000000E+00 0.  1.
        -15    1    1    2    0    0  0.20926476852E+01  0.12771992317E+03 -0.66766193960E+02  0.14414451198E+03  0.17770000000E+01 0.  1.
         15    1    1    2    0    0 -0.24841882265E+02 -0.10495820418E+03  0.87803310715E+01  0.10822936608E+03  0.17770000000E+01 0. -1.
</event>
<event>
 7    1  0.2808731E-007  0.3650000E+03  0.7546771E-02  0.9765871E-01
        -11   -1    0    0    0    0  0.00000000000E+00  0.00000000000E+00  0.18250000000E+03  0.18250000000E+03  0.00000000000E+00 0.  1.
         11   -1    0    0    0    0 -0.00000000000E+00 -0.00000000000E+00 -0.18250000000E+03  0.18250000000E+03  0.00000000000E+00 0. -1.
         23    2    1    2    0    0 -0.50793894691E+01 -0.66311782205E+02  0.77183223717E+02  0.13676410567E+03  0.91236604059E+02 0.  0.
        -11    1    3    3    0    0 -0.78044215811E+01  0.22606989702E+02  0.17578192345E+02  0.29681270622E+02  0.00000000000E+00 0. -1.
         11    1    3    3    0    0  0.27250321119E+01 -0.88918771907E+02  0.59605031373E+02  0.10708283505E+03  0.00000000000E+00 0.  1.
        -15    1    1    2    0    0 -0.74502211155E+02 -0.37557241085E+02 -0.37480082938E+02  0.91482458269E+02  0.17770000000E+01 0.  1.
         15    1    1    2    0    0  0.79581600625E+02  0.10386902329E+03 -0.39703140780E+02  0.13675343606E+03  0.17770000000E+01 0. -1.
</event>
<event>
 7    1  0.2808731E-007  0.2604784E+03  0.7546771E-02  0.1019202E+00
        -11   -1    0    0    0    0  0.00000000000E+00  0.00000000000E+00  0.18250000000E+03  0.18250000000E+03  0.00000000000E+00 0.  1.
         11   -1    0    0    0    0 -0.00000000000E+00 -0.00000000000E+00 -0.18250000000E+03  0.18250000000E+03  0.00000000000E+00 0. -1.
         23    2    1    2    0    0  0.28081254733E+02 -0.38051464634E+02 -0.26366470851E+02  0.10452164086E+03  0.89404204575E+02 0.  0.
        -11    1    3    3    0    0  0.59288553694E+02 -0.29952757284E+02 -0.67150850158E+01  0.66763707468E+02  0.00000000000E+00 0.  1.
         11    1    3    3    0    0 -0.31207298961E+02 -0.80987073501E+01 -0.19651385835E+02  0.37757933397E+02  0.00000000000E+00 0. -1.
        -15    1    1    2    0    0  0.76623656531E+02  0.81560089662E+02 -0.51212729793E+02  0.12308181989E+03  0.17770000000E+01 0.  1.
         15    1    1    2    0    0 -0.10470491126E+03 -0.43508625028E+02  0.77579200644E+02  0.13739653924E+03  0.17770000000E+01 0. -1.
</event>
<event>
 7    1  0.2808731E-007  0.2020910E+03  0.7546771E-02  0.1053849E+00
        -11   -1    0    0    0    0  0.00000000000E+00  0.00000000000E+00  0.18250000000E+03  0.18250000000E+03  0.00000000000E+00 0. -1.
         11   -1    0    0    0    0 -0.00000000000E+00 -0.00000000000E+00 -0.18250000000E+03  0.18250000000E+03  0.00000000000E+00 0.  1.
         23    2    1    2    0    0  0.47556088419E+01  0.13184876118E+03  0.24572794558E+02  0.16290897978E+03  0.92351512284E+02 0.  0.
        -11    1    3    3    0    0 -0.13783374604E+02 -0.75096573464E+01 -0.93739233276E+01  0.18282417988E+02  0.00000000000E+00 0. -1.
         11    1    3    3    0    0  0.18538983446E+02  0.13935841852E+03  0.33946717885E+02  0.14462656179E+03  0.00000000000E+00 0.  1.
        -15    1    1    2    0    0  0.19129092551E+01 -0.12350414986E+03  0.45156114932E+02  0.13152629660E+03  0.17770000000E+01 0. -1.
         15    1    1    2    0    0 -0.66685180971E+01 -0.83446113208E+01 -0.69728909490E+02  0.70564723618E+02  0.17770000000E+01 0.  1.
</event>
<event>
 7    1  0.2808731E-007  0.1841320E+03  0.7546771E-02  0.1067163E+00
        -11   -1    0    0    0    0  0.00000000000E+00  0.00000000000E+00  0.18250000000E+03  0.18250000000E+03  0.00000000000E+00 0. -1.
         11   -1    0    0    0    0 -0.00000000000E+00 -0.00000000000E+00 -0.18250000000E+03  0.18250000000E+03  0.00000000000E+00 0.  1.
         23    2    1    2    0    0 -0.11935484367E+03  0.97466199083E+02 -0.42367520503E+02  0.18413197973E+03  0.91456768456E+02 0.  0.
        -11    1    3    3    0    0 -0.81574104386E+02  0.68640392162E+02 -0.71522586771E+02  0.12837958701E+03  0.00000000000E+00 0.  1.
         11    1    3    3    0    0 -0.37780739281E+02  0.28825806921E+02  0.29155066267E+02  0.55752392723E+02  0.00000000000E+00 0. -1.
        -15    1    1    2    0    0  0.82784546165E+02 -0.13637131747E+02  0.13882427948E+02  0.85059579006E+02  0.17770000000E+01 0.  1.
         15    1    1    2    0    0  0.36570297502E+02 -0.83829067336E+02  0.28485092556E+02  0.95808441261E+02  0.17770000000E+01 0. -1.
</event>
<event>
 7    1  0.2808731E-007  0.2274699E+03  0.7546771E-02  0.1037405E+00
        -11   -1    0    0    0    0  0.00000000000E+00  0.00000000000E+00  0.18250000000E+03  0.18250000000E+03  0.00000000000E+00 0.  1.
         11   -1    0    0    0    0 -0.00000000000E+00 -0.00000000000E+00 -0.18250000000E+03  0.18250000000E+03  0.00000000000E+00 0. -1.
         23    2    1    2    0    0  0.28601488127E+02  0.68681216370E+02 -0.71560886704E+02  0.13753009255E+03  0.90875801213E+02 0.  0.
        -11    1    3    3    0    0  0.53886787993E+02  0.43390266310E+02 -0.15286252588E+02  0.70853162589E+02  0.00000000000E+00 0.  1.
         11    1    3    3    0    0 -0.25285299866E+02  0.25290950060E+02 -0.56274634116E+02  0.66676929962E+02  0.00000000000E+00 0. -1.
        -15    1    1    2    0    0 -0.12745825945E+02  0.52694531932E+01  0.13070480957E+03  0.13144249005E+03  0.17770000000E+01 0.  1.
         15    1    1    2    0    0 -0.15855662182E+02 -0.73950669563E+02 -0.59143922865E+02  0.96027417402E+02  0.17770000000E+01 0. -1.
</event>
<event>
 7    1  0.2808731E-007  0.2139750E+03  0.7546771E-02  0.1045840E+00
        -11   -1    0    0    0    0  0.00000000000E+00  0.00000000000E+00  0.18250000000E+03  0.18250000000E+03  0.00000000000E+00 0.  1.
         11   -1    0    0    0    0 -0.00000000000E+00 -0.00000000000E+00 -0.18250000000E+03  0.18250000000E+03  0.00000000000E+00 0. -1.
         23    2    1    2    0    0  0.25019255866E+02  0.26729781415E+02  0.11311430669E+03  0.15102495853E+03  0.93130270820E+02 0.  0.
        -11    1    3    3    0    0  0.58290499174E+02  0.71139331601E+01  0.84744850186E+02  0.10310227918E+03  0.00000000000E+00 0.  1.
         11    1    3    3    0    0 -0.33271243307E+02  0.19615848255E+02  0.28369456502E+02  0.47922679351E+02  0.00000000000E+00 0. -1.
        -15    1    1    2    0    0  0.69360603172E+02 -0.47411386420E+02 -0.63625200957E+02  0.10540425400E+03  0.17770000000E+01 0.  1.
         15    1    1    2    0    0 -0.94379859038E+02  0.20681605005E+02 -0.49489105731E+02  0.10857078747E+03  0.17770000000E+01 0. -1.
</event>
<event>
 7    1  0.2808731E-007  0.3650000E+03  0.7546771E-02  0.9765871E-01
        -11   -1    0    0    0    0  0.00000000000E+00  0.00000000000E+00  0.18250000000E+03  0.18250000000E+03  0.00000000000E+00 0.  1.
         11   -1    0    0    0    0 -0.00000000000E+00 -0.00000000000E+00 -0.18250000000E+03  0.18250000000E+03  0.00000000000E+00 0. -1.
         23    2    1    2    0    0 -0.60860989633E+02 -0.17068231947E+02 -0.63417535678E+02  0.13836967121E+03  0.10549406371E+03 0.  0.
        -11    1    3    3    0    0 -0.14909828649E+02 -0.44894865857E+02  0.90484309344E+01  0.48163534682E+02  0.00000000000E+00 0.  1.
         11    1    3    3    0    0 -0.45951160984E+02  0.27826633910E+02 -0.72465966612E+02  0.90206136529E+02  0.00000000000E+00 0. -1.
        -15    1    1    2    0    0 -0.74958555711E+02  0.55413656708E+01  0.48562355587E+02  0.89503921238E+02  0.17770000000E+01 0.  1.
         15    1    1    2    0    0  0.13581954534E+03  0.11526866276E+02  0.14855180090E+02  0.13712640755E+03  0.17770000000E+01 0. -1.
</event>
<event>
 7    1  0.2808731E-007  0.3650000E+03  0.7546771E-02  0.9765871E-01
        -11   -1    0    0    0    0  0.00000000000E+00  0.00000000000E+00  0.18250000000E+03  0.18250000000E+03  0.00000000000E+00 0.  1.
         11   -1    0    0    0    0 -0.00000000000E+00 -0.00000000000E+00 -0.18250000000E+03  0.18250000000E+03  0.00000000000E+00 0. -1.
         23    2    1    2    0    0  0.42640955624E+02 -0.38578638052E+01 -0.89333322499E+02  0.13701811085E+03  0.94659315348E+02 0.  0.
        -11    1    3    3    0    0 -0.21871266759E+02 -0.25525284709E+02 -0.16873668911E+02  0.37611343657E+02  0.00000000000E+00 0.  1.
         11    1    3    3    0    0  0.64512222383E+02  0.21667420904E+02 -0.72459653588E+02  0.99406767192E+02  0.00000000000E+00 0. -1.
        -15    1    1    2    0    0  0.64810437958E+02 -0.39415696975E+02 -0.84963410194E+01  0.76350085632E+02  0.17770000000E+01 0.  1.
         15    1    1    2    0    0 -0.10745139358E+03  0.43273560780E+02  0.97829663519E+02  0.15163180352E+03  0.17770000000E+01 0. -1.
</event>
<event>
 7    1  0.2808731E-007  0.3650000E+03  0.7546771E-02  0.9765871E-01
        -11   -1    0    0    0    0  0.00000000000E+00  0.00000000000E+00  0.18250000000E+03  0.18250000000E+03  0.00000000000E+00 0.  1.
         11   -1    0    0    0    0 -0.00000000000E+00 -0.00000000000E+00 -0.18250000000E+03  0.18250000000E+03  0.00000000000E+00 0. -1.
         23    2    1    2    0    0 -0.38186017062E+02  0.30760602148E+02  0.12555846782E+01  0.10363731107E+03  0.91294738128E+02 0.  0.
        -11    1    3    3    0    0 -0.36845209496E+00  0.56457517480E+02 -0.78967574701E+01  0.57008296024E+02  0.00000000000E+00 0. -1.
         11    1    3    3    0    0 -0.37817564967E+02 -0.25696915332E+02  0.91523421483E+01  0.46629015049E+02  0.00000000000E+00 0.  1.
        -15    1    1    2    0    0  0.14848716523E+03 -0.26787539783E+02 -0.38815427770E+01  0.15094447532E+03  0.17770000000E+01 0. -1.
         15    1    1    2    0    0 -0.11030114817E+03 -0.39730623651E+01  0.26259580989E+01  0.11041821361E+03  0.17770000000E+01 0.  1.
</event>
<event>
 7    1  0.2808731E-007  0.1882710E+03  0.7546771E-02  0.1063952E+00
        -11   -1    0    0    0    0  0.00000000000E+00  0.00000000000E+00  0.18250000000E+03  0.18250000000E+03  0.00000000000E+00 0.  1.
         11   -1    0    0    0    0 -0.00000000000E+00 -0.00000000000E+00 -0.18250000000E+03  0.18250000000E+03  0.00000000000E+00 0. -1.
         23    2    1    2    0    0  0.88311471697E+02 -0.29721481099E+02 -0.11887791671E+03  0.17672899434E+03  0.91754541506E+02 0.  0.
        -11    1    3    3    0    0  0.64868971566E+02 -0.17115254124E+02 -0.13123065174E+03  0.14738520737E+03  0.00000000000E+00 0. -1.
         11    1    3    3    0    0  0.23442500131E+02 -0.12606226975E+02  0.12352735029E+02  0.29343786968E+02  0.00000000000E+00 0.  1.
        -15    1    1    2    0    0 -0.10913707851E+03  0.34460978911E+02  0.12120858678E+03  0.16671274760E+03  0.17770000000E+01 0.  1.
         15    1    1    2    0    0  0.20825606814E+02 -0.47394978117E+01 -0.23306700647E+01  0.21558258061E+02  0.17770000000E+01 0. -1.
</event>
<event>
 7    1  0.2808731E-007  0.2514900E+03  0.7546771E-02  0.1023857E+00
        -11   -1    0    0    0    0  0.00000000000E+00  0.00000000000E+00  0.18250000000E+03  0.18250000000E+03  0.00000000000E+00 0.  1.
         11   -1    0    0    0    0 -0.00000000000E+00 -0.00000000000E+00 -0.18250000000E+03  0.18250000000E+03  0.00000000000E+00 0. -1.
         23    2    1    2    0    0  0.13980467296E+02 -0.52544386055E+02  0.40605672041E+02  0.11351002010E+03  0.90990868161E+02 0.  0.
        -11    1    3    3    0    0 -0.14565040331E+02  0.18772737888E+01  0.49303192289E+02  0.51443846344E+02  0.00000000000E+00 0.  1.
         11    1    3    3    0    0  0.28545507627E+02 -0.54421659844E+02 -0.86975202477E+01  0.62066173753E+02  0.00000000000E+00 0. -1.
        -15    1    1    2    0    0 -0.11354225578E+03  0.72309231302E+02  0.15473815959E+02  0.13551038886E+03  0.17770000000E+01 0.  1.
         15    1    1    2    0    0  0.99561788489E+02 -0.19764845247E+02 -0.56079488000E+02  0.11597959104E+03  0.17770000000E+01 0. -1.
</event>
<event>
 7    1  0.2808731E-007  0.1844224E+03  0.7546771E-02  0.1066935E+00
        -11   -1    0    0    0    0  0.00000000000E+00  0.00000000000E+00  0.18250000000E+03  0.18250000000E+03  0.00000000000E+00 0. -1.
         11   -1    0    0    0    0 -0.00000000000E+00 -0.00000000000E+00 -0.18250000000E+03  0.18250000000E+03  0.00000000000E+00 0.  1.
         23    2    1    2    0    0 -0.10717042111E+03  0.65638981131E+02  0.93896465273E+02  0.18057764601E+03  0.89430224435E+02 0.  0.
        -11    1    3    3    0    0 -0.23613680013E+02  0.20806076796E+02 -0.16099359328E+02  0.35350927656E+02  0.00000000000E+00 0.  1.
         11    1    3    3    0    0 -0.83556741092E+02  0.44832904336E+02  0.10999582460E+03  0.14522671835E+03  0.00000000000E+00 0. -1.
        -15    1    1    2    0    0 -0.15580770500E+02  0.26240389142E+01 -0.20478026552E+02  0.25925919271E+02  0.17770000000E+01 0. -1.
         15    1    1    2    0    0  0.12275119161E+03 -0.68263020046E+02 -0.73418438721E+02  0.15849643472E+03  0.17770000000E+01 0.  1.
</event>
<event>
 7    1  0.2808731E-007  0.1965514E+03  0.7546771E-02  0.1057789E+00
        -11   -1    0    0    0    0  0.00000000000E+00  0.00000000000E+00  0.18250000000E+03  0.18250000000E+03  0.00000000000E+00 0.  1.
         11   -1    0    0    0    0 -0.00000000000E+00 -0.00000000000E+00 -0.18250000000E+03  0.18250000000E+03  0.00000000000E+00 0. -1.
         23    2    1    2    0    0 -0.61139257052E+02 -0.10106999945E+01 -0.12895556411E+03  0.16844862083E+03  0.89478321828E+02 0.  0.
        -11    1    3    3    0    0 -0.17434217132E+01  0.22875143375E+02  0.16460037609E+01  0.23000457214E+02  0.00000000000E+00 0.  1.
         11    1    3    3    0    0 -0.59395835338E+02 -0.23885843369E+02 -0.13060156787E+03  0.14544816361E+03  0.00000000000E+00 0. -1.
        -15    1    1    2    0    0  0.26203916235E+02  0.63793721145E+02  0.94085843475E+02  0.11666870941E+03  0.17770000000E+01 0.  1.
         15    1    1    2    0    0  0.34935340816E+02 -0.62783021151E+02  0.34869720631E+02  0.79882669764E+02  0.17770000000E+01 0. -1.
</event>
<event>
 7    1  0.2808731E-007  0.3650000E+03  0.7546771E-02  0.9765871E-01
        -11   -1    0    0    0    0  0.00000000000E+00  0.00000000000E+00  0.18250000000E+03  0.18250000000E+03  0.00000000000E+00 0. -1.
         11   -1    0    0    0    0 -0.00000000000E+00 -0.00000000000E+00 -0.18250000000E+03  0.18250000000E+03  0.00000000000E+00 0.  1.
         23    2    1    2    0    0  0.77530644280E+02 -0.76695466836E+02 -0.54444140171E+02  0.15218906057E+03  0.91127110800E+02 0.  0.
        -11    1    3    3    0    0  0.32427033569E+02  0.12612050590E+02  0.59861721894E+01  0.35304540552E+02  0.00000000000E+00 0. -1.
         11    1    3    3    0    0  0.45103610711E+02 -0.89307517425E+02 -0.60430312360E+02  0.11688452002E+03  0.00000000000E+00 0.  1.
        -15    1    1    2    0    0  0.41541047574E+02 -0.24054644933E+02  0.24698652032E+02  0.54013569754E+02  0.17770000000E+01 0. -1.
         15    1    1    2    0    0 -0.11907169185E+03  0.10075011177E+03  0.29745488139E+02  0.15879736968E+03  0.17770000000E+01 0.  1.
</event>
<event>
 7    1  0.2808731E-007  0.3650000E+03  0.7546771E-02  0.9765871E-01
        -11   -1    0    0    0    0  0.00000000000E+00  0.00000000000E+00  0.18250000000E+03  0.18250000000E+03  0.00000000000E+00 0. -1.
         11   -1    0    0    0    0 -0.00000000000E+00 -0.00000000000E+00 -0.18250000000E+03  0.18250000000E+03  0.00000000000E+00 0.  1.
         23    2    1    2    0    0 -0.34335137580E+02 -0.25974771951E+02  0.69522302800E+00  0.10358637048E+03  0.94212856682E+02 0.  0.
        -11    1    3    3    0    0 -0.16333112283E+02  0.23663450041E+02 -0.30775651686E+02  0.42117338014E+02  0.00000000000E+00 0.  1.
         11    1    3    3    0    0 -0.18002025297E+02 -0.49638221992E+02  0.31470874714E+02  0.61469032469E+02  0.00000000000E+00 0. -1.
        -15    1    1    2    0    0  0.92550283238E+01 -0.11440478639E+03 -0.22979274609E+02  0.11706970355E+03  0.17770000000E+01 0. -1.
         15    1    1    2    0    0  0.25080109256E+02  0.14037955834E+03  0.22284051581E+02  0.14434392597E+03  0.17770000000E+01 0.  1.
</event>
<event>
 7    1  0.2808731E-007  0.2601375E+03  0.7546771E-02  0.1019375E+00
        -11   -1    0    0    0    0  0.00000000000E+00  0.00000000000E+00  0.18250000000E+03  0.18250000000E+03  0.00000000000E+00 0. -1.
         11   -1    0    0    0    0 -0.00000000000E+00 -0.00000000000E+00 -0.18250000000E+03  0.18250000000E+03  0.00000000000E+00 0.  1.
         23    2    1    2    0    0  0.24382243220E+02  0.40061275122E+02  0.19067939459E+02  0.10486251589E+03  0.91832245839E+02 0.  0.
        -11    1    3    3    0    0 -0.65290172780E+01  0.25620663550E+02  0.51436026281E+02  0.57833478772E+02  0.00000000000E+00 0.  1.
         11    1    3    3    0    0  0.30911260498E+02  0.14440611572E+02 -0.32368086822E+02  0.47029037123E+02  0.00000000000E+00 0. -1.
        -15    1    1    2    0    0  0.10457886527E+02  0.85316053649E+02 -0.79093793629E+02  0.11682115528E+03  0.17770000000E+01 0.  1.
         15    1    1    2    0    0 -0.34840129747E+02 -0.12537732877E+03  0.60025854170E+02  0.14331632883E+03  0.17770000000E+01 0. -1.
</event>
<event>
 7    1  0.2808731E-007  0.3650000E+03  0.7546771E-02  0.9765871E-01
        -11   -1    0    0    0    0  0.00000000000E+00  0.00000000000E+00  0.18250000000E+03  0.18250000000E+03  0.00000000000E+00 0.  1.
         11   -1    0    0    0    0 -0.00000000000E+00 -0.00000000000E+00 -0.18250000000E+03  0.18250000000E+03  0.00000000000E+00 0. -1.
         23    2    1    2    0    0  0.32442106348E+02  0.30191151134E+02  0.67501127763E+02  0.12265113616E+03  0.92319570414E+02 0.  0.
        -11    1    3    3    0    0 -0.18513830968E+02 -0.25838466707E+01  0.58482259145E+02  0.61397172862E+02  0.00000000000E+00 0.  1.
         11    1    3    3    0    0  0.50955937316E+02  0.32774997805E+02  0.90188686177E+01  0.61253963300E+02  0.00000000000E+00 0. -1.
        -15    1    1    2    0    0 -0.13930549370E+02 -0.12744896628E+03 -0.63906787975E+02  0.14326386317E+03  0.17770000000E+01 0.  1.
         15    1    1    2    0    0 -0.18511556979E+02  0.97257815150E+02 -0.35943397877E+01  0.99085000666E+02  0.17770000000E+01 0. -1.
</event>
<event>
 7    1  0.2808731E-007  0.3650000E+03  0.7546771E-02  0.9765871E-01
        -11   -1    0    0    0    0  0.00000000000E+00  0.00000000000E+00  0.18250000000E+03  0.18250000000E+03  0.00000000000E+00 0.  1.
         11   -1    0    0    0    0 -0.00000000000E+00 -0.00000000000E+00 -0.18250000000E+03  0.18250000000E+03  0.00000000000E+00 0. -1.
         23    2    1    2    0    0  0.48123712041E+02  0.21404687578E+02 -0.16112900797E+02  0.10796279715E+03  0.92856274341E+02 0.  0.
        -11    1    3    3    0    0  0.44988898052E+02  0.51148585448E+02  0.92550365509E+01  0.68744704834E+02  0.00000000000E+00 0.  1.
         11    1    3    3    0    0  0.31348139892E+01 -0.29743897870E+02 -0.25367937348E+02  0.39218092311E+02  0.00000000000E+00 0. -1.
        -15    1    1    2    0    0 -0.10821833563E+03  0.64440785622E+01  0.10179741701E+03  0.14872325358E+03  0.17770000000E+01 0.  1.
         15    1    1    2    0    0  0.60094623592E+02 -0.27848766140E+02 -0.85684516214E+02  0.10831394928E+03  0.17770000000E+01 0. -1.
</event>
<event>
 7    1  0.2808731E-007  0.2380486E+03  0.7546771E-02  0.1031225E+00
        -11   -1    0    0    0    0  0.00000000000E+00  0.00000000000E+00  0.18250000000E+03  0.18250000000E+03  0.00000000000E+00 0.  1.
         11   -1    0    0    0    0 -0.00000000000E+00 -0.00000000000E+00 -0.18250000000E+03  0.18250000000E+03  0.00000000000E+00 0. -1.
         23    2    1    2    0    0  0.81494264505E+02  0.19571958057E+02  0.26755052503E+02  0.12695140819E+03  0.91522950772E+02 0.  0.
        -11    1    3    3    0    0  0.71496358173E+02  0.16540987486E+02 -0.22377172274E+02  0.76720736037E+02  0.00000000000E+00 0.  1.
         11    1    3    3    0    0  0.99979063317E+01  0.30309705718E+01  0.49132224777E+02  0.50230672155E+02  0.00000000000E+00 0. -1.
        -15    1    1    2    0    0 -0.18830314299E+02 -0.11806799208E+03 -0.84832950128E+01  0.11987391506E+03  0.17770000000E+01 0.  1.
         15    1    1    2    0    0 -0.62663950206E+02  0.98496034019E+02 -0.18271757490E+02  0.11817467674E+03  0.17770000000E+01 0. -1.
</event>
<event>
 7    1  0.2808731E-007  0.2623947E+03  0.7546771E-02  0.1018236E+00
        -11   -1    0    0    0    0  0.00000000000E+00  0.00000000000E+00  0.18250000000E+03  0.18250000000E+03  0.00000000000E+00 0.  1.
         11   -1    0    0    0    0 -0.00000000000E+00 -0.00000000000E+00 -0.18250000000E+03  0.18250000000E+03  0.00000000000E+00 0. -1.
         23    2    1    2    0    0  0.40437069327E+02 -0.29000615224E+02  0.67834352213E+01  0.10260529130E+03  0.89474233999E+02 0.  0.
        -11    1    3    3    0    0  0.22594563087E+02  0.17401256768E+02 -0.29520972501E+02  0.41046386390E+02  0.00000000000E+00 0.  1.
         11    1    3    3    0    0  0.17842506239E+02 -0.46401871993E+02  0.36304407723E+02  0.61558904908E+02  0.00000000000E+00 0. -1.
        -15    1    1    2    0    0 -0.13514379339E+01  0.13728036464E+03  0.31867421427E+02  0.14094827128E+03  0.17770000000E+01 0.  1.
         15    1    1    2    0    0 -0.39085631393E+02 -0.10827974941E+03 -0.38650856648E+02  0.12144643742E+03  0.17770000000E+01 0. -1.
</event>
<event>
 7    1  0.2808731E-007  0.1912752E+03  0.7546771E-02  0.1061677E+00
        -11   -1    0    0    0    0  0.00000000000E+00  0.00000000000E+00  0.18250000000E+03  0.18250000000E+03  0.00000000000E+00 0. -1.
         11   -1    0    0    0    0 -0.00000000000E+00 -0.00000000000E+00 -0.18250000000E+03  0.18250000000E+03  0.00000000000E+00 0.  1.
         23    2    1    2    0    0 -0.47780329691E+02 -0.84556800867E+01 -0.13998389403E+03  0.17372476555E+03  0.90721249710E+02 0.  0.
        -11    1    3    3    0    0 -0.19742225839E+02  0.15796268399E+02 -0.13376711576E+03  0.13613566334E+03  0.00000000000E+00 0.  1.
         11    1    3    3    0    0 -0.28038103851E+02 -0.24251948486E+02 -0.62167782708E+01  0.37589102211E+02  0.00000000000E+00 0. -1.
        -15    1    1    2    0    0  0.27868516597E+02  0.49321632527E+02  0.13386827973E+03  0.14537245853E+03  0.17770000000E+01 0. -1.
         15    1    1    2    0    0  0.19911813093E+02 -0.40865952441E+02  0.61156142989E+01  0.45902775916E+02  0.17770000000E+01 0.  1.
</event>
<event>
 7    1  0.2808731E-007  0.2660989E+03  0.7546771E-02  0.1016394E+00
        -11   -1    0    0    0    0  0.00000000000E+00  0.00000000000E+00  0.18250000000E+03  0.18250000000E+03  0.00000000000E+00 0. -1.
         11   -1    0    0    0    0 -0.00000000000E+00 -0.00000000000E+00 -0.18250000000E+03  0.18250000000E+03  0.00000000000E+00 0.  1.
         23    2    1    2    0    0  0.18492785855E+02 -0.12405344040E+02  0.31904935452E+02  0.98901082377E+02  0.90926473041E+02 0.  0.
        -11    1    3    3    0    0  0.12607977120E+01  0.75231180441E+01 -0.30353780332E+02  0.31297586111E+02  0.00000000000E+00 0.  1.
         11    1    3    3    0    0  0.17231988143E+02 -0.19928462084E+02  0.62258715783E+02  0.67603496266E+02  0.00000000000E+00 0. -1.
        -15    1    1    2    0    0  0.83678452539E+02  0.92825791671E+02  0.19058214199E+02  0.12643213308E+03  0.17770000000E+01 0. -1.
         15    1    1    2    0    0 -0.10217123839E+03 -0.80420447632E+02 -0.50963149650E+02  0.13966678454E+03  0.17770000000E+01 0.  1.
</event>
<event>
 7    1  0.2808731E-007  0.2517710E+03  0.7546771E-02  0.1023708E+00
        -11   -1    0    0    0    0  0.00000000000E+00  0.00000000000E+00  0.18250000000E+03  0.18250000000E+03  0.00000000000E+00 0.  1.
         11   -1    0    0    0    0 -0.00000000000E+00 -0.00000000000E+00 -0.18250000000E+03  0.18250000000E+03  0.00000000000E+00 0. -1.
         23    2    1    2    0    0 -0.18252536177E+02  0.77115096695E+02  0.14370550079E+02  0.11322897737E+03  0.79588915007E+02 0.  0.
        -11    1    3    3    0    0 -0.28741773325E+02  0.89622521832E+01 -0.20038124365E+02  0.36165424457E+02  0.00000000000E+00 0. -1.
         11    1    3    3    0    0  0.10489237148E+02  0.68152844511E+02  0.34408674444E+02  0.77063552915E+02  0.00000000000E+00 0.  1.
        -15    1    1    2    0    0 -0.86948916854E+02 -0.89066151789E+01  0.59956118711E+02  0.10600630093E+03  0.17770000000E+01 0.  1.
         15    1    1    2    0    0  0.10520145303E+03 -0.68208481516E+02 -0.74326668791E+02  0.14576472170E+03  0.17770000000E+01 0. -1.
</event>
<event>
 7    1  0.2808731E-007  0.3650000E+03  0.7546771E-02  0.9765871E-01
        -11   -1    0    0    0    0  0.00000000000E+00  0.00000000000E+00  0.18250000000E+03  0.18250000000E+03  0.00000000000E+00 0. -1.
         11   -1    0    0    0    0 -0.00000000000E+00 -0.00000000000E+00 -0.18250000000E+03  0.18250000000E+03  0.00000000000E+00 0.  1.
         23    2    1    2    0    0 -0.26315854697E+02 -0.10903130081E+03  0.54084917597E+02  0.14791144682E+03  0.79826493250E+02 0.  0.
        -11    1    3    3    0    0 -0.28600637432E+02 -0.63014159143E+01  0.30898732296E+02  0.42572713814E+02  0.00000000000E+00 0.  1.
         11    1    3    3    0    0  0.22847827355E+01 -0.10272988489E+03  0.23186185301E+02  0.10533873300E+03  0.00000000000E+00 0. -1.
        -15    1    1    2    0    0  0.80031399460E+02 -0.54101296023E+01 -0.17528711524E+01  0.80252879625E+02  0.17770000000E+01 0. -1.
         15    1    1    2    0    0 -0.53715544763E+02  0.11444143041E+03 -0.52332046444E+02  0.13683567356E+03  0.17770000000E+01 0.  1.
</event>
<event>
 7    1  0.2808731E-007  0.2392789E+03  0.7546771E-02  0.1030529E+00
        -11   -1    0    0    0    0  0.00000000000E+00  0.00000000000E+00  0.18250000000E+03  0.18250000000E+03  0.00000000000E+00 0.  1.
         11   -1    0    0    0    0 -0.00000000000E+00 -0.00000000000E+00 -0.18250000000E+03  0.18250000000E+03  0.00000000000E+00 0. -1.
         23    2    1    2    0    0  0.23044017967E+02  0.26563338504E+02 -0.80404480729E+02  0.12572112414E+03  0.90023790278E+02 0.  0.
        -11    1    3    3    0    0 -0.17305406173E+02 -0.25319565749E+02 -0.29901167331E+02  0.42832666276E+02  0.00000000000E+00 0.  1.
         11    1    3    3    0    0  0.40349424140E+02  0.51882904253E+02 -0.50503313398E+02  0.82888457860E+02  0.00000000000E+00 0. -1.
        -15    1    1    2    0    0 -0.81379939092E+02 -0.10095400822E+03  0.34617897623E+02  0.13422355541E+03  0.17770000000E+01 0.  1.
         15    1    1    2    0    0  0.58335921124E+02  0.74390669716E+02  0.45786583106E+02  0.10505532045E+03  0.17770000000E+01 0. -1.
</event>
<event>
 7    1  0.2808731E-007  0.3650000E+03  0.7546771E-02  0.9765871E-01
        -11   -1    0    0    0    0  0.00000000000E+00  0.00000000000E+00  0.18250000000E+03  0.18250000000E+03  0.00000000000E+00 0.  1.
         11   -1    0    0    0    0 -0.00000000000E+00 -0.00000000000E+00 -0.18250000000E+03  0.18250000000E+03  0.00000000000E+00 0.  1.
         23    2    1    2    0    0 -0.13152064780E+02  0.72848687309E+02 -0.74176852589E+02  0.13868834453E+03  0.90842409680E+02 0.  0.
        -11    1    3    3    0    0 -0.13884633618E+02 -0.81880234973E+01  0.12223324523E+02  0.20229593221E+02  0.00000000000E+00 0.  1.
         11    1    3    3    0    0  0.73256883786E+00  0.81036710806E+02 -0.86400177112E+02  0.11845875130E+03  0.00000000000E+00 0.  1.
        -15    1    1    2    0    0  0.76954400687E+01 -0.33798361912E+02  0.14290314379E+03  0.14705786378E+03  0.17770000000E+01 0.  1.
         15    1    1    2    0    0  0.54566247118E+01 -0.39050325397E+02 -0.68726291200E+02  0.79253791695E+02  0.17770000000E+01 0. -1.
</event>
<event>
 7    1  0.2808731E-007  0.1928927E+03  0.7546771E-02  0.1060471E+00
        -11   -1    0    0    0    0  0.00000000000E+00  0.00000000000E+00  0.18250000000E+03  0.18250000000E+03  0.00000000000E+00 0.  1.
         11   -1    0    0    0    0 -0.00000000000E+00 -0.00000000000E+00 -0.18250000000E+03  0.18250000000E+03  0.00000000000E+00 0. -1.
         23    2    1    2    0    0 -0.12520288801E+03 -0.14627680422E+02 -0.73402103332E+02  0.17210726351E+03  0.91341716528E+02 0.  0.
        -11    1    3    3    0    0 -0.16600413173E+02 -0.29685550958E+02  0.87305815166E+01  0.35114508495E+02  0.00000000000E+00 0.  1.
         11    1    3    3    0    0 -0.10860247484E+03  0.15057870537E+02 -0.82132684848E+02  0.13699275502E+03  0.00000000000E+00 0. -1.
        -15    1    1    2    0    0  0.13716455998E+03 -0.18630957832E+02  0.75040782060E+02  0.15746588775E+03  0.17770000000E+01 0.  1.
         15    1    1    2    0    0 -0.11961671965E+02  0.33258638254E+02 -0.16386787277E+01  0.35426848740E+02  0.17770000000E+01 0. -1.
</event>
<event>
 7    1  0.2808731E-007  0.1837715E+03  0.7546771E-02  0.1067447E+00
        -11   -1    0    0    0    0  0.00000000000E+00  0.00000000000E+00  0.18250000000E+03  0.18250000000E+03  0.00000000000E+00 0. -1.
         11   -1    0    0    0    0 -0.00000000000E+00 -0.00000000000E+00 -0.18250000000E+03  0.18250000000E+03  0.00000000000E+00 0.  1.
         23    2    1    2    0    0 -0.12292073103E+02 -0.12994508621E+03 -0.86141231268E+02  0.18122847144E+03  0.91578527215E+02 0.  0.
        -11    1    3    3    0    0  0.13998396043E+02  0.98948153910E+01 -0.10041222870E+02  0.19866771759E+02  0.00000000000E+00 0. -1.
         11    1    3    3    0    0 -0.26290469146E+02 -0.13983990160E+03 -0.76100008397E+02  0.16136169968E+03  0.00000000000E+00 0.  1.
        -15    1    1    2    0    0  0.19040285944E+02  0.14412862121E+03  0.70685281470E+02  0.16166372100E+03  0.17770000000E+01 0. -1.
         15    1    1    2    0    0 -0.67482128412E+01 -0.14183535009E+02  0.15455949797E+02  0.22107807558E+02  0.17770000000E+01 0.  1.
</event>
<event>
 7    1  0.2808731E-007  0.3650000E+03  0.7546771E-02  0.9765871E-01
        -11   -1    0    0    0    0  0.00000000000E+00  0.00000000000E+00  0.18250000000E+03  0.18250000000E+03  0.00000000000E+00 0.  1.
         11   -1    0    0    0    0 -0.00000000000E+00 -0.00000000000E+00 -0.18250000000E+03  0.18250000000E+03  0.00000000000E+00 0. -1.
         23    2    1    2    0    0 -0.23516002337E+02 -0.10864364187E+03  0.42723856657E+02  0.15202071977E+03  0.94490888588E+02 0.  0.
        -11    1    3    3    0    0 -0.47447332616E+02 -0.71983716801E+02 -0.61162497879E+01  0.86430974589E+02  0.00000000000E+00 0.  1.
         11    1    3    3    0    0  0.23931330279E+02 -0.36659925071E+02  0.48840106445E+02  0.65589745180E+02  0.00000000000E+00 0. -1.
        -15    1    1    2    0    0  0.15644241783E+01  0.15155685797E+03 -0.58136597970E+02  0.16234207826E+03  0.17770000000E+01 0.  1.
         15    1    1    2    0    0  0.21951578158E+02 -0.42913216100E+02  0.15412741313E+02  0.50637201971E+02  0.17770000000E+01 0. -1.
</event>
<event>
 7    1  0.2808731E-007  0.2083785E+03  0.7546771E-02  0.1049539E+00
        -11   -1    0    0    0    0  0.00000000000E+00  0.00000000000E+00  0.18250000000E+03  0.18250000000E+03  0.00000000000E+00 0.  1.
         11   -1    0    0    0    0 -0.00000000000E+00 -0.00000000000E+00 -0.18250000000E+03  0.18250000000E+03  0.00000000000E+00 0. -1.
         23    2    1    2    0    0  0.11792357772E+02  0.12660974643E+03  0.11430750510E+02  0.15662149289E+03  0.90722336751E+02 0.  0.
        -11    1    3    3    0    0  0.28034616806E+02  0.10865830659E+03  0.40038281178E+02  0.11914542077E+03  0.00000000000E+00 0.  1.
         11    1    3    3    0    0 -0.16242259034E+02  0.17951439840E+02 -0.28607530668E+02  0.37476072123E+02  0.00000000000E+00 0. -1.
        -15    1    1    2    0    0 -0.30707015246E+01  0.38028486559E+02 -0.20315727645E+02  0.43260623165E+02  0.17770000000E+01 0.  1.
         15    1    1    2    0    0 -0.87216562478E+01 -0.16463823299E+03  0.88849771348E+01  0.16511788394E+03  0.17770000000E+01 0. -1.
</event>
<event>
 7    1  0.2808731E-007  0.2666911E+03  0.7546771E-02  0.1016102E+00
        -11   -1    0    0    0    0  0.00000000000E+00  0.00000000000E+00  0.18250000000E+03  0.18250000000E+03  0.00000000000E+00 0. -1.
         11   -1    0    0    0    0 -0.00000000000E+00 -0.00000000000E+00 -0.18250000000E+03  0.18250000000E+03  0.00000000000E+00 0.  1.
         23    2    1    2    0    0  0.73220196812E+01  0.13079411723E+02 -0.33741635023E+02  0.98308918487E+02  0.91112362151E+02 0.  0.
        -11    1    3    3    0    0 -0.27348753987E+02 -0.27615532922E+02 -0.14899368122E+02  0.41624069643E+02  0.00000000000E+00 0.  1.
         11    1    3    3    0    0  0.34670773669E+02  0.40694944645E+02 -0.18842266901E+02  0.56684848844E+02  0.00000000000E+00 0. -1.
        -15    1    1    2    0    0  0.11684888965E+03  0.25401041874E+02 -0.27910213132E+02  0.12280477868E+03  0.17770000000E+01 0. -1.
         15    1    1    2    0    0 -0.12417090933E+03 -0.38480453598E+02  0.61651848155E+02  0.14388630283E+03  0.17770000000E+01 0.  1.
</event>
<event>
 7    1  0.2808731E-007  0.2432652E+03  0.7546771E-02  0.1028304E+00
        -11   -1    0    0    0    0  0.00000000000E+00  0.00000000000E+00  0.18250000000E+03  0.18250000000E+03  0.00000000000E+00 0. -1.
         11   -1    0    0    0    0 -0.00000000000E+00 -0.00000000000E+00 -0.18250000000E+03  0.18250000000E+03  0.00000000000E+00 0.  1.
         23    2    1    2    0    0 -0.13529593003E+02  0.66140098666E+02  0.44338309806E+02  0.12173479463E+03  0.91081897042E+02 0.  0.
        -11    1    3    3    0    0 -0.28706799512E+02  0.54566218085E+02  0.67699093639E+02  0.91568115488E+02  0.00000000000E+00 0. -1.
         11    1    3    3    0    0  0.15177206509E+02  0.11573880580E+02 -0.23360783834E+02  0.30166679142E+02  0.00000000000E+00 0.  1.
        -15    1    1    2    0    0  0.84456446745E+01 -0.43575221807E+02  0.93485415329E+02  0.10350270276E+03  0.17770000000E+01 0. -1.
         15    1    1    2    0    0  0.50839483280E+01 -0.22564876859E+02 -0.13782372513E+03  0.13976250262E+03  0.17770000000E+01 0.  1.
</event>
<event>
 7    1  0.2808731E-007  0.2261579E+03  0.7546771E-02  0.1038197E+00
        -11   -1    0    0    0    0  0.00000000000E+00  0.00000000000E+00  0.18250000000E+03  0.18250000000E+03  0.00000000000E+00 0.  1.
         11   -1    0    0    0    0 -0.00000000000E+00 -0.00000000000E+00 -0.18250000000E+03  0.18250000000E+03  0.00000000000E+00 0. -1.
         23    2    1    2    0    0 -0.62866771211E+02 -0.63653881858E+02 -0.26341094359E+02  0.13884212736E+03  0.10285541055E+03 0.  0.
        -11    1    3    3    0    0  0.27443095454E+02 -0.32089595514E+01 -0.44074389881E+01  0.27979392916E+02  0.00000000000E+00 0.  1.
         11    1    3    3    0    0 -0.90309866666E+02 -0.60444922307E+02 -0.21933655371E+02  0.11086273444E+03  0.00000000000E+00 0. -1.
        -15    1    1    2    0    0  0.20993834832E+02  0.50276334412E+02 -0.88072336871E+02  0.10357772518E+03  0.17770000000E+01 0. -1.
         15    1    1    2    0    0  0.41872936379E+02  0.13377547446E+02  0.11441343123E+03  0.12258014746E+03  0.17770000000E+01 0.  1.
</event>
<event>
 7    1  0.2808731E-007  0.2538290E+03  0.7546771E-02  0.1022626E+00
        -11   -1    0    0    0    0  0.00000000000E+00  0.00000000000E+00  0.18250000000E+03  0.18250000000E+03  0.00000000000E+00 0. -1.
         11   -1    0    0    0    0 -0.00000000000E+00 -0.00000000000E+00 -0.18250000000E+03  0.18250000000E+03  0.00000000000E+00 0.  1.
         23    2    1    2    0    0 -0.52934037359E+02  0.33720937747E+02  0.25108861990E+02  0.11117102495E+03  0.88257735544E+02 0.  0.
        -11    1    3    3    0    0 -0.11426204982E+02 -0.26363590139E+02  0.25086110886E+02  0.38143282563E+02  0.00000000000E+00 0.  1.
         11    1    3    3    0    0 -0.41507832377E+02  0.60084527886E+02  0.22751104409E-01  0.73027742383E+02  0.00000000000E+00 0. -1.
        -15    1    1    2    0    0  0.49449966233E+02 -0.13883647663E+03 -0.13861583997E+02  0.14804110119E+03  0.17770000000E+01 0. -1.
         15    1    1    2    0    0  0.34840711258E+01  0.10511553888E+03 -0.11247277994E+02  0.10578787386E+03  0.17770000000E+01 0.  1.
</event>
<event>
 7    1  0.2808731E-007  0.3650000E+03  0.7546771E-02  0.9765871E-01
        -11   -1    0    0    0    0  0.00000000000E+00  0.00000000000E+00  0.18250000000E+03  0.18250000000E+03  0.00000000000E+00 0.  1.
         11   -1    0    0    0    0 -0.00000000000E+00 -0.00000000000E+00 -0.18250000000E+03  0.18250000000E+03  0.00000000000E+00 0. -1.
         23    2    1    2    0    0 -0.40821290026E+02 -0.39095841858E+01 -0.90868359841E+02  0.13561624099E+03  0.91940434152E+02 0.  0.
        -11    1    3    3    0    0 -0.25447685777E+02  0.28675597683E+02 -0.51315715389E+00  0.38342377914E+02  0.00000000000E+00 0.  1.
         11    1    3    3    0    0 -0.15373604250E+02 -0.32585181868E+02 -0.90355202687E+02  0.97273863076E+02  0.00000000000E+00 0. -1.
        -15    1    1    2    0    0  0.12171044999E+03 -0.59270529526E+01  0.83113408924E+02  0.14751122013E+03  0.17770000000E+01 0.  1.
         15    1    1    2    0    0 -0.80889159962E+02  0.98366371384E+01  0.77549509169E+01  0.81872538877E+02  0.17770000000E+01 0. -1.
</event>
<event>
 7    1  0.2808731E-007  0.2337226E+03  0.7546771E-02  0.1033710E+00
        -11   -1    0    0    0    0  0.00000000000E+00  0.00000000000E+00  0.18250000000E+03  0.18250000000E+03  0.00000000000E+00 0. -1.
         11   -1    0    0    0    0 -0.00000000000E+00 -0.00000000000E+00 -0.18250000000E+03  0.18250000000E+03  0.00000000000E+00 0.  1.
         23    2    1    2    0    0  0.13084108493E+01 -0.74874898178E+02  0.58804677628E+02  0.13127744805E+03  0.90375969923E+02 0.  0.
        -11    1    3    3    0    0  0.30384092399E+02 -0.46410373655E+02 -0.48992296620E+01  0.55687685397E+02  0.00000000000E+00 0.  1.
         11    1    3    3    0    0 -0.29075681549E+02 -0.28464524524E+02  0.63703907290E+02  0.75589762653E+02  0.00000000000E+00 0. -1.
        -15    1    1    2    0    0 -0.10202006600E+03  0.14823814392E+02 -0.53912706167E+02  0.11635109349E+03  0.17770000000E+01 0. -1.
         15    1    1    2    0    0  0.10071165515E+03  0.60051083787E+02 -0.48919714605E+01  0.11737145846E+03  0.17770000000E+01 0.  1.
</event>
<event>
 7    1  0.2808731E-007  0.1838115E+03  0.7546771E-02  0.1067416E+00
        -11   -1    0    0    0    0  0.00000000000E+00  0.00000000000E+00  0.18250000000E+03  0.18250000000E+03  0.00000000000E+00 0.  1.
         11   -1    0    0    0    0 -0.00000000000E+00 -0.00000000000E+00 -0.18250000000E+03  0.18250000000E+03  0.00000000000E+00 0. -1.
         23    2    1    2    0    0  0.43811847224E+02 -0.10778250668E+03 -0.10968624130E+03  0.18381147715E+03  0.90658926198E+02 0.  0.
        -11    1    3    3    0    0  0.32081631012E+02 -0.94828733602E+02 -0.33375913063E+02  0.10552569042E+03  0.00000000000E+00 0.  1.
         11    1    3    3    0    0  0.11730216212E+02 -0.12953773078E+02 -0.76310328238E+02  0.78285786738E+02  0.00000000000E+00 0. -1.
        -15    1    1    2    0    0  0.22235811077E+02  0.23859059813E+02  0.78105222723E+01  0.33583448551E+02  0.17770000000E+01 0. -1.
         15    1    1    2    0    0 -0.66047658301E+02  0.83923446867E+02  0.10187571903E+03  0.14760507429E+03  0.17770000000E+01 0.  1.
</event>
<event>
 7    1  0.2808731E-007  0.1933378E+03  0.7546771E-02  0.1060141E+00
        -11   -1    0    0    0    0  0.00000000000E+00  0.00000000000E+00  0.18250000000E+03  0.18250000000E+03  0.00000000000E+00 0.  1.
         11   -1    0    0    0    0 -0.00000000000E+00 -0.00000000000E+00 -0.18250000000E+03  0.18250000000E+03  0.00000000000E+00 0. -1.
         23    2    1    2    0    0 -0.28145331628E+02 -0.16266671879E+02  0.14184833627E+03  0.17166218691E+03  0.91050489310E+02 0.  0.
        -11    1    3    3    0    0 -0.48738313652E+02  0.14070340121E+02  0.11656171323E+03  0.12712210933E+03  0.00000000000E+00 0.  1.
         11    1    3    3    0    0  0.20592982024E+02 -0.30337012000E+02  0.25286623042E+02  0.44540077577E+02  0.00000000000E+00 0. -1.
        -15    1    1    2    0    0  0.61375859166E+02 -0.20511396333E+02 -0.30746367488E+02  0.71667358753E+02  0.17770000000E+01 0. -1.
         15    1    1    2    0    0 -0.33230527538E+02  0.36778068212E+02 -0.11110196879E+03  0.12167045434E+03  0.17770000000E+01 0.  1.
</event>
<event>
 7    1  0.2808731E-007  0.3650000E+03  0.7546771E-02  0.9765871E-01
        -11   -1    0    0    0    0  0.00000000000E+00  0.00000000000E+00  0.18250000000E+03  0.18250000000E+03  0.00000000000E+00 0.  1.
         11   -1    0    0    0    0 -0.00000000000E+00 -0.00000000000E+00 -0.18250000000E+03  0.18250000000E+03  0.00000000000E+00 0. -1.
         23    2    1    2    0    0  0.27208243733E+02  0.48725965020E+02 -0.63156617125E+02  0.12358941395E+03  0.90394008432E+02 0.  0.
        -11    1    3    3    0    0  0.32331884370E+02 -0.68779718778E+01  0.71360598007E+01  0.33816868477E+02  0.00000000000E+00 0.  1.
         11    1    3    3    0    0 -0.51236406369E+01  0.55603936898E+02 -0.70292676926E+02  0.89772545477E+02  0.00000000000E+00 0. -1.
        -15    1    1    2    0    0 -0.65326153517E+02 -0.12851200476E+03  0.45875911505E+02  0.15129639350E+03  0.17770000000E+01 0.  1.
         15    1    1    2    0    0  0.38117909783E+02  0.79786039736E+02  0.17280705620E+02  0.90114192549E+02  0.17770000000E+01 0. -1.
</event>
<event>
 7    1  0.2808731E-007  0.3650000E+03  0.7546771E-02  0.9765871E-01
        -11   -1    0    0    0    0  0.00000000000E+00  0.00000000000E+00  0.18250000000E+03  0.18250000000E+03  0.00000000000E+00 0.  1.
         11   -1    0    0    0    0 -0.00000000000E+00 -0.00000000000E+00 -0.18250000000E+03  0.18250000000E+03  0.00000000000E+00 0. -1.
         23    2    1    2    0    0  0.57269460922E+02 -0.72188371735E+02  0.51764035655E+02  0.13212181672E+03  0.79282450130E+02 0.  0.
        -11    1    3    3    0    0  0.59852656511E+02 -0.42941887502E+02  0.66527587455E+02  0.99258581927E+02  0.00000000000E+00 0.  1.
         11    1    3    3    0    0 -0.25831955890E+01 -0.29246484233E+02 -0.14763551800E+02  0.32863234795E+02  0.00000000000E+00 0. -1.
        -15    1    1    2    0    0 -0.20968359965E+02 -0.10870725395E+02  0.74081348242E+02  0.77775630352E+02  0.17770000000E+01 0.  1.
         15    1    1    2    0    0 -0.36301100958E+02  0.83059097131E+02 -0.12584538390E+03  0.15510255293E+03  0.17770000000E+01 0. -1.
</event>
<event>
 7    1  0.2808731E-007  0.3650000E+03  0.7546771E-02  0.9765871E-01
        -11   -1    0    0    0    0  0.00000000000E+00  0.00000000000E+00  0.18250000000E+03  0.18250000000E+03  0.00000000000E+00 0.  1.
         11   -1    0    0    0    0 -0.00000000000E+00 -0.00000000000E+00 -0.18250000000E+03  0.18250000000E+03  0.00000000000E+00 0. -1.
         23    2    1    2    0    0 -0.55694390933E+02 -0.60026044050E+02  0.10292527205E+02  0.12197215906E+03  0.89812473096E+02 0.  0.
        -11    1    3    3    0    0 -0.12799373225E+02 -0.68404949391E+02 -0.15397810103E+02  0.71275196331E+02  0.00000000000E+00 0.  1.
         11    1    3    3    0    0 -0.42895017708E+02  0.83789053405E+01  0.25690337307E+02  0.50696962728E+02  0.00000000000E+00 0. -1.
        -15    1    1    2    0    0 -0.38528891253E+02 -0.70495100571E+02  0.91272057535E+01  0.80873347152E+02  0.17770000000E+01 0.  1.
         15    1    1    2    0    0  0.94223282186E+02  0.13052114462E+03 -0.19419732958E+02  0.16215449379E+03  0.17770000000E+01 0. -1.
</event>
<event>
 7    1  0.2808731E-007  0.3650000E+03  0.7546771E-02  0.9765871E-01
        -11   -1    0    0    0    0  0.00000000000E+00  0.00000000000E+00  0.18250000000E+03  0.18250000000E+03  0.00000000000E+00 0.  1.
         11   -1    0    0    0    0 -0.00000000000E+00 -0.00000000000E+00 -0.18250000000E+03  0.18250000000E+03  0.00000000000E+00 0. -1.
         23    2    1    2    0    0 -0.11538116714E+02  0.68941404399E+02 -0.46063687222E+02  0.12375849153E+03  0.91149632848E+02 0.  0.
        -11    1    3    3    0    0 -0.20779237037E+02 -0.14010393558E+02 -0.29425447529E+02  0.38651323156E+02  0.00000000000E+00 0.  1.
         11    1    3    3    0    0  0.92411203223E+01  0.82951797957E+02 -0.16638239693E+02  0.85107168378E+02  0.00000000000E+00 0. -1.
        -15    1    1    2    0    0 -0.22041877629E+02  0.80549121292E+02  0.13945220724E+02  0.84685490023E+02  0.17770000000E+01 0. -1.
         15    1    1    2    0    0  0.33579994343E+02 -0.14949052569E+03  0.32118466498E+02  0.15655601844E+03  0.17770000000E+01 0.  1.
</event>
<event>
 7    1  0.2808731E-007  0.3650000E+03  0.7546771E-02  0.9765871E-01
        -11   -1    0    0    0    0  0.00000000000E+00  0.00000000000E+00  0.18250000000E+03  0.18250000000E+03  0.00000000000E+00 0. -1.
         11   -1    0    0    0    0 -0.00000000000E+00 -0.00000000000E+00 -0.18250000000E+03  0.18250000000E+03  0.00000000000E+00 0.  1.
         23    2    1    2    0    0  0.24555802298E+02  0.59444902915E+02 -0.17371410980E+01  0.11136299854E+03  0.90895631768E+02 0.  0.
        -11    1    3    3    0    0 -0.15078383764E+02 -0.14971262879E+02 -0.15005395413E+02  0.26012655778E+02  0.00000000000E+00 0.  1.
         11    1    3    3    0    0  0.39634186062E+02  0.74416165794E+02  0.13268254315E+02  0.85350342758E+02  0.00000000000E+00 0. -1.
        -15    1    1    2    0    0  0.81317790463E+02  0.43934212699E+02 -0.38713106542E+02  0.10022305343E+03  0.17770000000E+01 0. -1.
         15    1    1    2    0    0 -0.10587359276E+03 -0.10337911561E+03  0.40450247640E+02  0.15341394804E+03  0.17770000000E+01 0.  1.
</event>
<event>
 7    1  0.2808731E-007  0.2655504E+03  0.7546771E-02  0.1016664E+00
        -11   -1    0    0    0    0  0.00000000000E+00  0.00000000000E+00  0.18250000000E+03  0.18250000000E+03  0.00000000000E+00 0.  1.
         11   -1    0    0    0    0 -0.00000000000E+00 -0.00000000000E+00 -0.18250000000E+03  0.18250000000E+03  0.00000000000E+00 0. -1.
         23    2    1    2    0    0 -0.89322494515E+01  0.26881855558E+02  0.19371161188E+02  0.99449594617E+02  0.93341098907E+02 0.  0.
        -11    1    3    3    0    0  0.32910325418E+02 -0.83017014613E+01 -0.12498808136E+02  0.36169434211E+02  0.00000000000E+00 0. -1.
         11    1    3    3    0    0 -0.41842574870E+02  0.35183557020E+02  0.31869969324E+02  0.63280160406E+02  0.00000000000E+00 0.  1.
        -15    1    1    2    0    0 -0.62493032341E+02  0.48886401797E+02 -0.10437556744E+03  0.13112084571E+03  0.17770000000E+01 0.  1.
         15    1    1    2    0    0  0.71425281792E+02 -0.75768257356E+02  0.85004406256E+02  0.13442955967E+03  0.17770000000E+01 0. -1.
</event>
<event>
 7    1  0.2808731E-007  0.3650000E+03  0.7546771E-02  0.9765871E-01
        -11   -1    0    0    0    0  0.00000000000E+00  0.00000000000E+00  0.18250000000E+03  0.18250000000E+03  0.00000000000E+00 0. -1.
         11   -1    0    0    0    0 -0.00000000000E+00 -0.00000000000E+00 -0.18250000000E+03  0.18250000000E+03  0.00000000000E+00 0.  1.
         23    2    1    2    0    0 -0.33662182451E+02  0.41959028165E+02 -0.65991801142E+01  0.10232719526E+03  0.86796331378E+02 0.  0.
        -11    1    3    3    0    0  0.27883860679E+02  0.20606675369E+02 -0.12637334829E+02  0.36903211076E+02  0.00000000000E+00 0. -1.
         11    1    3    3    0    0 -0.61546043129E+02  0.21352352795E+02  0.60381547150E+01  0.65423984189E+02  0.00000000000E+00 0.  1.
        -15    1    1    2    0    0  0.17652239064E+02 -0.14513757165E+03  0.42460924632E+02  0.15225834657E+03  0.17770000000E+01 0. -1.
         15    1    1    2    0    0  0.16009943386E+02  0.10317854349E+03 -0.35861744518E+02  0.11041445817E+03  0.17770000000E+01 0.  1.
</event>
<event>
 7    1  0.2808731E-007  0.2498970E+03  0.7546771E-02  0.1024704E+00
        -11   -1    0    0    0    0  0.00000000000E+00  0.00000000000E+00  0.18250000000E+03  0.18250000000E+03  0.00000000000E+00 0.  1.
         11   -1    0    0    0    0 -0.00000000000E+00 -0.00000000000E+00 -0.18250000000E+03  0.18250000000E+03  0.00000000000E+00 0. -1.
         23    2    1    2    0    0  0.40543045368E+02  0.28245133990E+02 -0.50639051875E+02  0.11510297321E+03  0.90790168771E+02 0.  0.
        -11    1    3    3    0    0 -0.29363010110E+02  0.11067749254E+02 -0.15445394947E+02  0.34974871856E+02  0.00000000000E+00 0.  1.
         11    1    3    3    0    0  0.69906055478E+02  0.17177384736E+02 -0.35193656927E+02  0.80128101355E+02  0.00000000000E+00 0. -1.
        -15    1    1    2    0    0 -0.98854578909E+01  0.88352677414E+02  0.86550289522E+02  0.12408879172E+03  0.17770000000E+01 0.  1.
         15    1    1    2    0    0 -0.30657587477E+02 -0.11659781140E+03 -0.35911237647E+02  0.12580823507E+03  0.17770000000E+01 0. -1.
</event>
<event>
 7    1  0.2808731E-007  0.2177795E+03  0.7546771E-02  0.1043395E+00
        -11   -1    0    0    0    0  0.00000000000E+00  0.00000000000E+00  0.18250000000E+03  0.18250000000E+03  0.00000000000E+00 0.  1.
         11   -1    0    0    0    0 -0.00000000000E+00 -0.00000000000E+00 -0.18250000000E+03  0.18250000000E+03  0.00000000000E+00 0. -1.
         23    2    1    2    0    0  0.16882540547E+02 -0.15488615557E+02 -0.11372919733E+03  0.14722050845E+03  0.90634598237E+02 0.  0.
        -11    1    3    3    0    0  0.13062289485E+02 -0.43718447319E+02 -0.10923421214E+03  0.11838090701E+03  0.00000000000E+00 0. -1.
         11    1    3    3    0    0  0.38202510612E+01  0.28229831762E+02 -0.44949851828E+01  0.28839601441E+02  0.00000000000E+00 0.  1.
        -15    1    1    2    0    0 -0.53235828275E+02  0.88801681541E+02  0.69864383134E+02  0.12491589897E+03  0.17770000000E+01 0.  1.
         15    1    1    2    0    0  0.36353287728E+02 -0.73313065984E+02  0.43864814192E+02  0.92863592574E+02  0.17770000000E+01 0. -1.
</event>
<event>
 7    1  0.2808731E-007  0.2048660E+03  0.7546771E-02  0.1051926E+00
        -11   -1    0    0    0    0  0.00000000000E+00  0.00000000000E+00  0.18250000000E+03  0.18250000000E+03  0.00000000000E+00 0.  1.
         11   -1    0    0    0    0 -0.00000000000E+00 -0.00000000000E+00 -0.18250000000E+03  0.18250000000E+03  0.00000000000E+00 0. -1.
         23    2    1    2    0    0  0.38525364895E+02 -0.12517871427E+03  0.17215908072E+02  0.16013400345E+03  0.90512967717E+02 0.  0.
        -11    1    3    3    0    0 -0.81156432912E+01  0.11022048382E+02 -0.47795554834E+01  0.14498047013E+02  0.00000000000E+00 0.  1.
         11    1    3    3    0    0  0.46641008186E+02 -0.13620076265E+03  0.21995463556E+02  0.14563595644E+03  0.00000000000E+00 0. -1.
        -15    1    1    2    0    0 -0.67655466532E+01 -0.26954833050E+02 -0.39001646400E+02  0.47923082092E+02  0.17770000000E+01 0. -1.
         15    1    1    2    0    0 -0.31759818242E+02  0.15213354732E+03  0.21785738328E+02  0.15694291446E+03  0.17770000000E+01 0.  1.
</event>
<event>
 7    1  0.2808731E-007  0.3650000E+03  0.7546771E-02  0.9765871E-01
        -11   -1    0    0    0    0  0.00000000000E+00  0.00000000000E+00  0.18250000000E+03  0.18250000000E+03  0.00000000000E+00 0.  1.
         11   -1    0    0    0    0 -0.00000000000E+00 -0.00000000000E+00 -0.18250000000E+03  0.18250000000E+03  0.00000000000E+00 0. -1.
         23    2    1    2    0    0  0.74800560873E+01 -0.41228065101E+02 -0.60780051523E+02  0.11660761003E+03  0.90263034861E+02 0.  0.
        -11    1    3    3    0    0  0.28984694605E+02 -0.60764555104E+02 -0.28301327366E+02  0.73030191078E+02  0.00000000000E+00 0.  1.
         11    1    3    3    0    0 -0.21504638518E+02  0.19536490003E+02 -0.32478724157E+02  0.43577418949E+02  0.00000000000E+00 0. -1.
        -15    1    1    2    0    0  0.44755321526E+02  0.89872586447E+02  0.11939968640E+03  0.15601142087E+03  0.17770000000E+01 0.  1.
         15    1    1    2    0    0 -0.52235377613E+02 -0.48644521345E+02 -0.58619634875E+02  0.92380969107E+02  0.17770000000E+01 0. -1.
</event>
<event>
 7    1  0.2808731E-007  0.3650000E+03  0.7546771E-02  0.9765871E-01
        -11   -1    0    0    0    0  0.00000000000E+00  0.00000000000E+00  0.18250000000E+03  0.18250000000E+03  0.00000000000E+00 0.  1.
         11   -1    0    0    0    0 -0.00000000000E+00 -0.00000000000E+00 -0.18250000000E+03  0.18250000000E+03  0.00000000000E+00 0. -1.
         23    2    1    2    0    0 -0.37603677515E+02 -0.60688902834E+01  0.10242108597E+03  0.14408216183E+03  0.93908053505E+02 0.  0.
        -11    1    3    3    0    0 -0.42100723128E+02  0.30210905489E+02  0.23084362778E+02  0.56727925251E+02  0.00000000000E+00 0. -1.
         11    1    3    3    0    0  0.44970456130E+01 -0.36279795773E+02  0.79336723195E+02  0.87354236577E+02  0.00000000000E+00 0.  1.
        -15    1    1    2    0    0  0.59782742088E+02 -0.46461169830E+02  0.26259812220E+02  0.80158293522E+02  0.17770000000E+01 0.  1.
         15    1    1    2    0    0 -0.22179064573E+02  0.52530060113E+02 -0.12868089819E+03  0.14075954465E+03  0.17770000000E+01 0. -1.
</event>
<event>
 7    1  0.2808731E-007  0.2141259E+03  0.7546771E-02  0.1045742E+00
        -11   -1    0    0    0    0  0.00000000000E+00  0.00000000000E+00  0.18250000000E+03  0.18250000000E+03  0.00000000000E+00 0.  1.
         11   -1    0    0    0    0 -0.00000000000E+00 -0.00000000000E+00 -0.18250000000E+03  0.18250000000E+03  0.00000000000E+00 0.  1.
         23    2    1    2    0    0 -0.74285042053E+01  0.11254801843E+03  0.41754513523E+02  0.15087411243E+03  0.91089622225E+02 0.  0.
        -11    1    3    3    0    0 -0.18738493828E+02  0.10550606635E+03  0.64094480001E+02  0.12486297911E+03  0.00000000000E+00 0.  1.
         11    1    3    3    0    0  0.11309989622E+02  0.70419520810E+01 -0.22339966479E+02  0.26011133321E+02  0.00000000000E+00 0.  1.
        -15    1    1    2    0    0  0.86428564022E+02 -0.46357528914E+02  0.10330728289E+02  0.98634673629E+02  0.17770000000E+01 0. -1.
         15    1    1    2    0    0 -0.79000059817E+02 -0.66190489512E+02 -0.52085241812E+02  0.11549121394E+03  0.17770000000E+01 0.  1.
</event>
<event>
 7    1  0.2808731E-007  0.2443771E+03  0.7546771E-02  0.1027692E+00
        -11   -1    0    0    0    0  0.00000000000E+00  0.00000000000E+00  0.18250000000E+03  0.18250000000E+03  0.00000000000E+00 0.  1.
         11   -1    0    0    0    0 -0.00000000000E+00 -0.00000000000E+00 -0.18250000000E+03  0.18250000000E+03  0.00000000000E+00 0. -1.
         23    2    1    2    0    0 -0.10775895231E+02 -0.53282258760E+02  0.55087236747E+02  0.12062285601E+03  0.92521082585E+02 0.  0.
        -11    1    3    3    0    0 -0.47002755047E+02 -0.57578421660E+01  0.20731592567E+02  0.51693429551E+02  0.00000000000E+00 0.  1.
         11    1    3    3    0    0  0.36226859816E+02 -0.47524416594E+02  0.34355644180E+02  0.68929426457E+02  0.00000000000E+00 0. -1.
        -15    1    1    2    0    0 -0.86071970990E+02 -0.47443431825E+02 -0.25112940596E+02  0.10145482210E+03  0.17770000000E+01 0.  1.
         15    1    1    2    0    0  0.96847866221E+02  0.10072569058E+03 -0.29974296151E+02  0.14292232189E+03  0.17770000000E+01 0. -1.
</event>
<event>
 7    1  0.2808731E-007  0.2028388E+03  0.7546771E-02  0.1053327E+00
        -11   -1    0    0    0    0  0.00000000000E+00  0.00000000000E+00  0.18250000000E+03  0.18250000000E+03  0.00000000000E+00 0. -1.
         11   -1    0    0    0    0 -0.00000000000E+00 -0.00000000000E+00 -0.18250000000E+03  0.18250000000E+03  0.00000000000E+00 0.  1.
         23    2    1    2    0    0 -0.41459332504E+02 -0.45358102892E+02 -0.11665476133E+03  0.16216123820E+03  0.94401801274E+02 0.  0.
        -11    1    3    3    0    0 -0.19736743796E+02  0.20314633234E+02 -0.21758705519E+01  0.28407002513E+02  0.00000000000E+00 0. -1.
         11    1    3    3    0    0 -0.21722588708E+02 -0.65672736125E+02 -0.11447889078E+03  0.13375423569E+03  0.00000000000E+00 0.  1.
        -15    1    1    2    0    0  0.85952622868E+02  0.59010247973E+02  0.11638309942E+03  0.15626338760E+03  0.17770000000E+01 0. -1.
         15    1    1    2    0    0 -0.44493290364E+02 -0.13652145081E+02  0.27166190870E+00  0.46575374200E+02  0.17770000000E+01 0.  1.
</event>
<event>
 7    1  0.2808731E-007  0.1965423E+03  0.7546771E-02  0.1057796E+00
        -11   -1    0    0    0    0  0.00000000000E+00  0.00000000000E+00  0.18250000000E+03  0.18250000000E+03  0.00000000000E+00 0. -1.
         11   -1    0    0    0    0 -0.00000000000E+00 -0.00000000000E+00 -0.18250000000E+03  0.18250000000E+03  0.00000000000E+00 0.  1.
         23    2    1    2    0    0  0.40837005598E+02  0.94976593253E+02  0.98653821427E+02  0.16845774746E+03  0.89203261731E+02 0.  0.
        -11    1    3    3    0    0 -0.16758190857E+02  0.21992919938E+02  0.63148521059E+02  0.68936646279E+02  0.00000000000E+00 0. -1.
         11    1    3    3    0    0  0.57595196455E+02  0.72983673315E+02  0.35505300368E+02  0.99521101177E+02  0.00000000000E+00 0.  1.
        -15    1    1    2    0    0 -0.14239060465E+02 -0.90169970790E+02 -0.12759789598E+03  0.15690046291E+03  0.17770000000E+01 0. -1.
         15    1    1    2    0    0 -0.26597945134E+02 -0.48066224626E+01  0.28944074549E+02  0.39641789633E+02  0.17770000000E+01 0.  1.
</event>
<event>
 7    1  0.2808731E-007  0.1847158E+03  0.7546771E-02  0.1066705E+00
        -11   -1    0    0    0    0  0.00000000000E+00  0.00000000000E+00  0.18250000000E+03  0.18250000000E+03  0.00000000000E+00 0.  1.
         11   -1    0    0    0    0 -0.00000000000E+00 -0.00000000000E+00 -0.18250000000E+03  0.18250000000E+03  0.00000000000E+00 0. -1.
         23    2    1    2    0    0  0.10563480609E+03 -0.47356825832E+02  0.10208190398E+03  0.18028416118E+03  0.93168033369E+02 0.  0.
        -11    1    3    3    0    0  0.76329776898E+02 -0.71307298810E+02  0.96157359260E+02  0.14197606645E+03  0.00000000000E+00 0.  1.
         11    1    3    3    0    0  0.29305029191E+02  0.23950472978E+02  0.59245447225E+01  0.38308094731E+02  0.00000000000E+00 0. -1.
        -15    1    1    2    0    0  0.79420492854E+01  0.70544084843E+01 -0.53814635797E+02  0.54881814665E+02  0.17770000000E+01 0.  1.
         15    1    1    2    0    0 -0.11357685537E+03  0.40302417347E+02 -0.48267268186E+02  0.12983402415E+03  0.17770000000E+01 0. -1.
</event>
<event>
 7    1  0.2808731E-007  0.3650000E+03  0.7546771E-02  0.9765871E-01
        -11   -1    0    0    0    0  0.00000000000E+00  0.00000000000E+00  0.18250000000E+03  0.18250000000E+03  0.00000000000E+00 0.  1.
         11   -1    0    0    0    0 -0.00000000000E+00 -0.00000000000E+00 -0.18250000000E+03  0.18250000000E+03  0.00000000000E+00 0. -1.
         23    2    1    2    0    0  0.13829664197E+02 -0.82584824239E+02 -0.98558107182E+02  0.15862177153E+03  0.91845811590E+02 0.  0.
        -11    1    3    3    0    0 -0.80537848935E+01  0.18576922824E+02 -0.10941693015E+02  0.23014911661E+02  0.00000000000E+00 0.  1.
         11    1    3    3    0    0  0.21883449091E+02 -0.10116174706E+03 -0.87616414167E+02  0.13560685987E+03  0.00000000000E+00 0. -1.
        -15    1    1    2    0    0 -0.65001731719E+01  0.13157817317E+03  0.72107682063E+02  0.15019235483E+03  0.17770000000E+01 0.  1.
         15    1    1    2    0    0 -0.73294910252E+01 -0.48993348935E+02  0.26450425119E+02  0.56185873639E+02  0.17770000000E+01 0. -1.
</event>
<event>
 7    1  0.2808731E-007  0.3650000E+03  0.7546771E-02  0.9765871E-01
        -11   -1    0    0    0    0  0.00000000000E+00  0.00000000000E+00  0.18250000000E+03  0.18250000000E+03  0.00000000000E+00 0. -1.
         11   -1    0    0    0    0 -0.00000000000E+00 -0.00000000000E+00 -0.18250000000E+03  0.18250000000E+03  0.00000000000E+00 0.  1.
         23    2    1    2    0    0  0.17488617976E+02 -0.80145719094E+02  0.86906402699E+02  0.15071858267E+03  0.91837793335E+02 0.  0.
        -11    1    3    3    0    0 -0.38465980928E+01 -0.65527850430E+02  0.61571996191E+01  0.65928799519E+02  0.00000000000E+00 0.  1.
         11    1    3    3    0    0  0.21335216069E+02 -0.14617868664E+02  0.80749203079E+02  0.84789783152E+02  0.00000000000E+00 0. -1.
        -15    1    1    2    0    0  0.25424695382E+02 -0.42998400326E+02  0.11026642292E+02  0.51186151790E+02  0.17770000000E+01 0. -1.
         15    1    1    2    0    0 -0.42913313358E+02  0.12314411942E+03 -0.97933044991E+02  0.16309526554E+03  0.17770000000E+01 0.  1.
</event>
<event>
 7    1  0.2808731E-007  0.2476125E+03  0.7546771E-02  0.1025930E+00
        -11   -1    0    0    0    0  0.00000000000E+00  0.00000000000E+00  0.18250000000E+03  0.18250000000E+03  0.00000000000E+00 0.  1.
         11   -1    0    0    0    0 -0.00000000000E+00 -0.00000000000E+00 -0.18250000000E+03  0.18250000000E+03  0.00000000000E+00 0. -1.
         23    2    1    2    0    0  0.74636601838E+02 -0.16277434546E+01 -0.48071040526E+02  0.11738750034E+03  0.76783646794E+02 0.  0.
        -11    1    3    3    0    0  0.73002271649E+02  0.26731132667E+02 -0.28105164659E+02  0.82666712769E+02  0.00000000000E+00 0.  1.
         11    1    3    3    0    0  0.16343301894E+01 -0.28358876122E+02 -0.19965875867E+02  0.34720787566E+02  0.00000000000E+00 0. -1.
        -15    1    1    2    0    0  0.45099138908E+02  0.16861031812E+02  0.10396465282E+03  0.11458635821E+03  0.17770000000E+01 0.  1.
         15    1    1    2    0    0 -0.11973574075E+03 -0.15233288357E+02 -0.55893612290E+02  0.13302614145E+03  0.17770000000E+01 0. -1.
</event>
<event>
 7    1  0.3020657E-007  0.2658673E+03  0.7546771E-02  0.1016508E+00
        -11   -1    0    0    0    0  0.00000000000E+00  0.00000000000E+00  0.18250000000E+03  0.18250000000E+03  0.00000000000E+00 0. -1.
         11   -1    0    0    0    0 -0.00000000000E+00 -0.00000000000E+00 -0.18250000000E+03  0.18250000000E+03  0.00000000000E+00 0.  1.
         23    2    1    2    0    0 -0.27801649379E+01  0.12753774587E+02 -0.38485382712E+02  0.99132735704E+02  0.90420055974E+02 0.  0.
        -11    1    3    3    0    0 -0.35176488849E+02 -0.52074573107E+01 -0.49077238138E+02  0.60605926134E+02  0.00000000000E+00 0.  1.
         11    1    3    3    0    0  0.32396323911E+02  0.17961231898E+02  0.10591855426E+02  0.38526809569E+02  0.00000000000E+00 0. -1.
        -15    1    1    2    0    0  0.11356431497E+03 -0.74498399340E+02  0.12621319480E+02  0.13641598357E+03  0.17770000000E+01 0. -1.
         15    1    1    2    0    0 -0.11078415004E+03  0.61744624753E+02  0.25864063232E+02  0.12945128072E+03  0.17770000000E+01 0.  1.
</event>
<event>
 7    1  0.4010359E-007  0.1957643E+03  0.7546771E-02  0.1058361E+00
        -11   -1    0    0    0    0  0.00000000000E+00  0.00000000000E+00  0.18250000000E+03  0.18250000000E+03  0.00000000000E+00 0. -1.
         11   -1    0    0    0    0 -0.00000000000E+00 -0.00000000000E+00 -0.18250000000E+03  0.18250000000E+03  0.00000000000E+00 0.  1.
         23    2    1    2    0    0 -0.12266854682E+01  0.92431580547E+01  0.14149151840E+03  0.16923570008E+03  0.92379281644E+02 0.  0.
        -11    1    3    3    0    0 -0.39962365368E+02  0.28986863723E+02  0.74538064667E+02  0.89404429413E+02  0.00000000000E+00 0. -1.
         11    1    3    3    0    0  0.38735679900E+02 -0.19743705669E+02  0.66953453728E+02  0.79831270671E+02  0.00000000000E+00 0.  1.
        -15    1    1    2    0    0 -0.47915966072E+02 -0.15757379698E+02 -0.52148047065E+01  0.50740385658E+02  0.17770000000E+01 0. -1.
         15    1    1    2    0    0  0.49142651540E+02  0.65142216438E+01 -0.13627671369E+03  0.14502391426E+03  0.17770000000E+01 0.  1.
</event>
<event>
 7    1  0.2808731E-007  0.1998792E+03  0.7546771E-02  0.1055405E+00
        -11   -1    0    0    0    0  0.00000000000E+00  0.00000000000E+00  0.18250000000E+03  0.18250000000E+03  0.00000000000E+00 0. -1.
         11   -1    0    0    0    0 -0.00000000000E+00 -0.00000000000E+00 -0.18250000000E+03  0.18250000000E+03  0.00000000000E+00 0.  1.
         23    2    1    2    0    0  0.39673152919E+02 -0.24741233219E+02 -0.12962097728E+03  0.16512075323E+03  0.90978996008E+02 0.  0.
        -11    1    3    3    0    0  0.24557215221E+01 -0.39063398789E+02 -0.11687567923E+03  0.12325544243E+03  0.00000000000E+00 0.  1.
         11    1    3    3    0    0  0.37217431397E+02  0.14322165571E+02 -0.12745298047E+02  0.41865310804E+02  0.00000000000E+00 0. -1.
        -15    1    1    2    0    0  0.51914873754E+01  0.17633405140E+02  0.14923218731E+03  0.15037051565E+03  0.17770000000E+01 0. -1.
         15    1    1    2    0    0 -0.44864640295E+02  0.71078280782E+01 -0.19611210034E+02  0.49508731117E+02  0.17770000000E+01 0.  1.
</event>
<event>
 7    1  0.2808731E-007  0.3650000E+03  0.7546771E-02  0.9765871E-01
        -11   -1    0    0    0    0  0.00000000000E+00  0.00000000000E+00  0.18250000000E+03  0.18250000000E+03  0.00000000000E+00 0.  1.
         11   -1    0    0    0    0 -0.00000000000E+00 -0.00000000000E+00 -0.18250000000E+03  0.18250000000E+03  0.00000000000E+00 0. -1.
         23    2    1    2    0    0  0.49181879414E+02 -0.11368687088E+02 -0.39890741761E+02  0.11170029659E+03  0.91310353586E+02 0.  0.
        -11    1    3    3    0    0 -0.13199755560E+02 -0.25331557421E+02  0.10363866240E+02  0.30386363252E+02  0.00000000000E+00 0.  1.
         11    1    3    3    0    0  0.62381634975E+02  0.13962870334E+02 -0.50254608002E+02  0.81313933342E+02  0.00000000000E+00 0. -1.
        -15    1    1    2    0    0 -0.13352713509E+03  0.35202672273E+02  0.76984265604E+02  0.15810900930E+03  0.17770000000E+01 0.  1.
         15    1    1    2    0    0  0.84345255678E+02 -0.23833985185E+02 -0.37093523842E+02  0.95190694110E+02  0.17770000000E+01 0. -1.
</event>
<event>
 7    1  0.2808731E-007  0.3650000E+03  0.7546771E-02  0.9765871E-01
        -11   -1    0    0    0    0  0.00000000000E+00  0.00000000000E+00  0.18250000000E+03  0.18250000000E+03  0.00000000000E+00 0. -1.
         11   -1    0    0    0    0 -0.00000000000E+00 -0.00000000000E+00 -0.18250000000E+03  0.18250000000E+03  0.00000000000E+00 0.  1.
         23    2    1    2    0    0  0.85731351623E+02  0.88274583840E+01  0.29674609132E+02  0.12644336531E+03  0.87633061859E+02 0.  0.
        -11    1    3    3    0    0  0.93051574928E+02  0.13030510388E+02 -0.16778466042E+01  0.93974491043E+02  0.00000000000E+00 0.  1.
         11    1    3    3    0    0 -0.73202233051E+01 -0.42030520042E+01  0.31352455736E+02  0.32468874265E+02  0.00000000000E+00 0. -1.
        -15    1    1    2    0    0 -0.99259193556E+02 -0.95847099128E+02 -0.52370223117E+02  0.14759692380E+03  0.17770000000E+01 0. -1.
         15    1    1    2    0    0  0.13527841933E+02  0.87019640744E+02  0.22695613986E+02  0.90959710893E+02  0.17770000000E+01 0.  1.
</event>
<event>
 7    1  0.2808731E-007  0.2485967E+03  0.7546771E-02  0.1025400E+00
        -11   -1    0    0    0    0  0.00000000000E+00  0.00000000000E+00  0.18250000000E+03  0.18250000000E+03  0.00000000000E+00 0.  1.
         11   -1    0    0    0    0 -0.00000000000E+00 -0.00000000000E+00 -0.18250000000E+03  0.18250000000E+03  0.00000000000E+00 0. -1.
         23    2    1    2    0    0  0.21256527872E+02 -0.98287970365E+01 -0.75313790213E+02  0.11640331958E+03  0.85610283168E+02 0.  0.
        -11    1    3    3    0    0  0.34481661760E+02  0.29165084146E+02 -0.52782093285E+02  0.69466081670E+02  0.00000000000E+00 0.  1.
         11    1    3    3    0    0 -0.13225133888E+02 -0.38993881182E+02 -0.22531696928E+02  0.46937237908E+02  0.00000000000E+00 0. -1.
        -15    1    1    2    0    0  0.10578359238E+03  0.23758574766E+02  0.43871153043E+02  0.11697210817E+03  0.17770000000E+01 0.  1.
         15    1    1    2    0    0 -0.12704012025E+03 -0.13929777730E+02  0.31442637170E+02  0.13162457225E+03  0.17770000000E+01 0. -1.
</event>
<event>
 7    1  0.2808731E-007  0.2574836E+03  0.7546771E-02  0.1020730E+00
        -11   -1    0    0    0    0  0.00000000000E+00  0.00000000000E+00  0.18250000000E+03  0.18250000000E+03  0.00000000000E+00 0. -1.
         11   -1    0    0    0    0 -0.00000000000E+00 -0.00000000000E+00 -0.18250000000E+03  0.18250000000E+03  0.00000000000E+00 0.  1.
         23    2    1    2    0    0  0.45748750815E+02 -0.34696402159E+02 -0.12315312774E+02  0.10751638426E+03  0.90062852677E+02 0.  0.
        -11    1    3    3    0    0  0.53518249958E+02 -0.39600558620E+02 -0.40462382753E+02  0.77907712966E+02  0.00000000000E+00 0.  1.
         11    1    3    3    0    0 -0.77694991432E+01  0.49041564605E+01  0.28147069979E+02  0.29608671296E+02  0.00000000000E+00 0. -1.
        -15    1    1    2    0    0 -0.10804513867E+03 -0.66601066447E+02  0.44097052455E+02  0.13437693927E+03  0.17770000000E+01 0. -1.
         15    1    1    2    0    0  0.62296387855E+02  0.10129746861E+03 -0.31781739681E+02  0.12310667647E+03  0.17770000000E+01 0.  1.
</event>
<event>
 7    1  0.2808731E-007  0.3650000E+03  0.7546771E-02  0.9765871E-01
        -11   -1    0    0    0    0  0.00000000000E+00  0.00000000000E+00  0.18250000000E+03  0.18250000000E+03  0.00000000000E+00 0.  1.
         11   -1    0    0    0    0 -0.00000000000E+00 -0.00000000000E+00 -0.18250000000E+03  0.18250000000E+03  0.00000000000E+00 0. -1.
         23    2    1    2    0    0 -0.30487981288E+02  0.68672261104E+02  0.68765912058E+01  0.11995505871E+03  0.93255199079E+02 0.  0.
        -11    1    3    3    0    0 -0.53071318232E+02  0.22494974012E+02 -0.21159363132E+02  0.61402828297E+02  0.00000000000E+00 0. -1.
         11    1    3    3    0    0  0.22583336944E+02  0.46177287092E+02  0.28035954338E+02  0.58552230413E+02  0.00000000000E+00 0.  1.
        -15    1    1    2    0    0  0.80304931174E+02 -0.13280413058E+03 -0.34970149467E+02  0.15909710290E+03  0.17770000000E+01 0.  1.
         15    1    1    2    0    0 -0.49816949885E+02  0.64131869476E+02  0.28093558261E+02  0.85947838386E+02  0.17770000000E+01 0. -1.
</event>
<event>
 7    1  0.2808731E-007  0.2170433E+03  0.7546771E-02  0.1043864E+00
        -11   -1    0    0    0    0  0.00000000000E+00  0.00000000000E+00  0.18250000000E+03  0.18250000000E+03  0.00000000000E+00 0.  1.
         11   -1    0    0    0    0 -0.00000000000E+00 -0.00000000000E+00 -0.18250000000E+03  0.18250000000E+03  0.00000000000E+00 0. -1.
         23    2    1    2    0    0  0.48752814437E+02  0.10642774708E+03 -0.18856138811E+02  0.14795668701E+03  0.88498163793E+02 0.  0.
        -11    1    3    3    0    0  0.19834404083E+02  0.26136289465E+01  0.24643704142E+02  0.31741877629E+02  0.00000000000E+00 0.  1.
         11    1    3    3    0    0  0.28918410354E+02  0.10381411814E+03 -0.43499842953E+02  0.11621480938E+03  0.00000000000E+00 0. -1.
        -15    1    1    2    0    0  0.31420922420E+02 -0.93395106251E+02  0.70140187643E+02  0.12096579636E+03  0.17770000000E+01 0.  1.
         15    1    1    2    0    0 -0.80173736857E+02 -0.13032640832E+02 -0.51284048832E+02  0.96077516632E+02  0.17770000000E+01 0. -1.
</event>
<event>
 7    1  0.2808731E-007  0.2088545E+03  0.7546771E-02  0.1049220E+00
        -11   -1    0    0    0    0  0.00000000000E+00  0.00000000000E+00  0.18250000000E+03  0.18250000000E+03  0.00000000000E+00 0. -1.
         11   -1    0    0    0    0 -0.00000000000E+00 -0.00000000000E+00 -0.18250000000E+03  0.18250000000E+03  0.00000000000E+00 0.  1.
         23    2    1    2    0    0  0.67742812076E+01  0.12299333402E+02  0.12725528476E+03  0.15614554527E+03  0.89388809827E+02 0.  0.
        -11    1    3    3    0    0  0.32013520013E+00 -0.37643115195E+02  0.72916021904E+02  0.82060056413E+02  0.00000000000E+00 0.  1.
         11    1    3    3    0    0  0.64541460074E+01  0.49942448596E+02  0.54339262851E+02  0.74085488860E+02  0.00000000000E+00 0. -1.
        -15    1    1    2    0    0  0.65768836766E+02 -0.48135551827E+02 -0.84139689961E+02  0.11715466869E+03  0.17770000000E+01 0. -1.
         15    1    1    2    0    0 -0.72543117974E+02  0.35836218426E+02 -0.43115594795E+02  0.91699786041E+02  0.17770000000E+01 0.  1.
</event>
<event>
 7    1  0.2808731E-007  0.3650000E+03  0.7546771E-02  0.9765871E-01
        -11   -1    0    0    0    0  0.00000000000E+00  0.00000000000E+00  0.18250000000E+03  0.18250000000E+03  0.00000000000E+00 0.  1.
         11   -1    0    0    0    0 -0.00000000000E+00 -0.00000000000E+00 -0.18250000000E+03  0.18250000000E+03  0.00000000000E+00 0. -1.
         23    2    1    2    0    0 -0.60036257944E+02 -0.22707958689E+01  0.94792943421E+02  0.14408631329E+03  0.90364012604E+02 0.  0.
        -11    1    3    3    0    0 -0.66022196559E+02 -0.19233873065E+02  0.10337301111E+03  0.12415656140E+03  0.00000000000E+00 0.  1.
         11    1    3    3    0    0  0.59859386147E+01  0.16963077196E+02 -0.85800676904E+01  0.19929751896E+02  0.00000000000E+00 0. -1.
        -15    1    1    2    0    0 -0.59474983474E+02 -0.39714991046E+02 -0.46574179167E+02  0.85363142322E+02  0.17770000000E+01 0.  1.
         15    1    1    2    0    0  0.11951124142E+03  0.41985786915E+02 -0.48218764254E+02  0.13555054439E+03  0.17770000000E+01 0. -1.
</event>
<event>
 7    1  0.2808731E-007  0.2610222E+03  0.7546771E-02  0.1018927E+00
        -11   -1    0    0    0    0  0.00000000000E+00  0.00000000000E+00  0.18250000000E+03  0.18250000000E+03  0.00000000000E+00 0.  1.
         11   -1    0    0    0    0 -0.00000000000E+00 -0.00000000000E+00 -0.18250000000E+03  0.18250000000E+03  0.00000000000E+00 0. -1.
         23    2    1    2    0    0  0.90129792470E+01  0.22946823139E+02  0.42123442235E+02  0.10397776654E+03  0.91810680539E+02 0.  0.
        -11    1    3    3    0    0 -0.30895917077E+02  0.26029340605E+02  0.48847695906E+02  0.63389128876E+02  0.00000000000E+00 0. -1.
         11    1    3    3    0    0  0.39908896324E+02 -0.30825174655E+01 -0.67242536702E+01  0.40588637661E+02  0.00000000000E+00 0.  1.
        -15    1    1    2    0    0  0.25684593898E+01  0.94450567021E+02 -0.92955334478E+02  0.13255700106E+03  0.17770000000E+01 0.  1.
         15    1    1    2    0    0 -0.11581438637E+02 -0.11739739016E+03  0.50831892243E+02  0.12846523240E+03  0.17770000000E+01 0. -1.
</event>
<event>
 7    1  0.2808731E-007  0.2372026E+03  0.7546771E-02  0.1031706E+00
        -11   -1    0    0    0    0  0.00000000000E+00  0.00000000000E+00  0.18250000000E+03  0.18250000000E+03  0.00000000000E+00 0.  1.
         11   -1    0    0    0    0 -0.00000000000E+00 -0.00000000000E+00 -0.18250000000E+03  0.18250000000E+03  0.00000000000E+00 0. -1.
         23    2    1    2    0    0 -0.86085902386E+02  0.20957805885E+02  0.87173234907E+01  0.12779735566E+03  0.91685114216E+02 0.  0.
        -11    1    3    3    0    0 -0.70741068296E-01  0.37425713699E+02  0.14246432884E+02  0.40045597762E+02  0.00000000000E+00 0. -1.
         11    1    3    3    0    0 -0.86015161318E+02 -0.16467907814E+02 -0.55291093929E+01  0.87751757903E+02  0.00000000000E+00 0.  1.
        -15    1    1    2    0    0  0.93062201820E+02 -0.20899602632E+02  0.94180039306E+02  0.13405373673E+03  0.17770000000E+01 0.  1.
         15    1    1    2    0    0 -0.69762994337E+01 -0.58203253120E-01 -0.10289736280E+03  0.10314890761E+03  0.17770000000E+01 0. -1.
</event>
<event>
 7    1  0.2808731E-007  0.1993313E+03  0.7546771E-02  0.1055794E+00
        -11   -1    0    0    0    0  0.00000000000E+00  0.00000000000E+00  0.18250000000E+03  0.18250000000E+03  0.00000000000E+00 0.  1.
         11   -1    0    0    0    0 -0.00000000000E+00 -0.00000000000E+00 -0.18250000000E+03  0.18250000000E+03  0.00000000000E+00 0. -1.
         23    2    1    2    0    0  0.59801880959E+02  0.30688156624E+02 -0.12357864021E+03  0.16566874426E+03  0.87500997628E+02 0.  0.
        -11    1    3    3    0    0  0.34749750399E+02  0.55397745858E+02 -0.10996288897E+03  0.12793862728E+03  0.00000000000E+00 0. -1.
         11    1    3    3    0    0  0.25052130560E+02 -0.24709589234E+02 -0.13615751236E+02  0.37730116981E+02  0.00000000000E+00 0.  1.
        -15    1    1    2    0    0 -0.99925325016E+02 -0.17017228023E+02  0.11949969047E+03  0.15670989241E+03  0.17770000000E+01 0.  1.
         15    1    1    2    0    0  0.40123444057E+02 -0.13670928601E+02  0.40789497398E+01  0.42621363326E+02  0.17770000000E+01 0. -1.
</event>
<event>
 7    1  0.2808731E-007  0.2473008E+03  0.7546771E-02  0.1026099E+00
        -11   -1    0    0    0    0  0.00000000000E+00  0.00000000000E+00  0.18250000000E+03  0.18250000000E+03  0.00000000000E+00 0.  1.
         11   -1    0    0    0    0 -0.00000000000E+00 -0.00000000000E+00 -0.18250000000E+03  0.18250000000E+03  0.00000000000E+00 0. -1.
         23    2    1    2    0    0 -0.23167666015E+02  0.68796969718E+02 -0.31294123272E+02  0.11769922250E+03  0.87201038043E+02 0.  0.
        -11    1    3    3    0    0 -0.40228030338E+02  0.35871516534E+02 -0.52281371525E+02  0.75089293057E+02  0.00000000000E+00 0.  1.
         11    1    3    3    0    0  0.17060364323E+02  0.32925453184E+02  0.20987248254E+02  0.42609929447E+02  0.00000000000E+00 0. -1.
        -15    1    1    2    0    0 -0.10098322115E+03 -0.28094729312E+02 -0.20367577145E+02  0.10679382331E+03  0.17770000000E+01 0. -1.
         15    1    1    2    0    0  0.12415088716E+03 -0.40702240405E+02  0.51661700416E+02  0.14050695419E+03  0.17770000000E+01 0.  1.
</event>
<event>
 7    1  0.2808731E-007  0.1898804E+03  0.7546771E-02  0.1062727E+00
        -11   -1    0    0    0    0  0.00000000000E+00  0.00000000000E+00  0.18250000000E+03  0.18250000000E+03  0.00000000000E+00 0.  1.
         11   -1    0    0    0    0 -0.00000000000E+00 -0.00000000000E+00 -0.18250000000E+03  0.18250000000E+03  0.00000000000E+00 0. -1.
         23    2    1    2    0    0 -0.20268656229E+02 -0.18129172166E+02  0.16472068755E+03  0.18988043937E+03  0.90455464399E+02 0.  0.
        -11    1    3    3    0    0 -0.27410801442E+01 -0.37299207849E+02  0.19163246067E+02  0.42023498502E+02  0.00000000000E+00 0. -1.
         11    1    3    3    0    0 -0.17527576084E+02  0.19170035683E+02  0.14555744149E+03  0.14785694087E+03  0.00000000000E+00 0.  1.
        -15    1    1    2    0    0 -0.90433067621E+01  0.22106448091E+02 -0.11300487953E+03  0.11551509412E+03  0.17770000000E+01 0. -1.
         15    1    1    2    0    0  0.29311962991E+02 -0.39772759247E+01 -0.51715808029E+02  0.59604466504E+02  0.17770000000E+01 0.  1.
</event>
<event>
 7    1  0.2808731E-007  0.2571464E+03  0.7546771E-02  0.1020904E+00
        -11   -1    0    0    0    0  0.00000000000E+00  0.00000000000E+00  0.18250000000E+03  0.18250000000E+03  0.00000000000E+00 0.  1.
         11   -1    0    0    0    0 -0.00000000000E+00 -0.00000000000E+00 -0.18250000000E+03  0.18250000000E+03  0.00000000000E+00 0. -1.
         23    2    1    2    0    0  0.15131626568E+02 -0.20978039686E+02 -0.51152536169E+02  0.10785355964E+03  0.91360626638E+02 0.  0.
        -11    1    3    3    0    0  0.41294627431E+01  0.35321601965E+02 -0.90474002466E+01  0.36695006188E+02  0.00000000000E+00 0.  1.
         11    1    3    3    0    0  0.11002163825E+02 -0.56299641651E+02 -0.42105135922E+02  0.71158553455E+02  0.00000000000E+00 0. -1.
        -15    1    1    2    0    0  0.11050385904E+03  0.16326285449E+02 -0.18761206434E+02  0.11328190965E+03  0.17770000000E+01 0.  1.
         15    1    1    2    0    0 -0.12563548561E+03  0.46517542372E+01  0.69913742603E+02  0.14386453070E+03  0.17770000000E+01 0. -1.
</event>
<event>
 7    1  0.2808731E-007  0.1967363E+03  0.7546771E-02  0.1057656E+00
        -11   -1    0    0    0    0  0.00000000000E+00  0.00000000000E+00  0.18250000000E+03  0.18250000000E+03  0.00000000000E+00 0.  1.
         11   -1    0    0    0    0 -0.00000000000E+00 -0.00000000000E+00 -0.18250000000E+03  0.18250000000E+03  0.00000000000E+00 0. -1.
         23    2    1    2    0    0  0.36672589697E+02 -0.53442721056E+02  0.12410272947E+03  0.16826371167E+03  0.93328376892E+02 0.  0.
        -11    1    3    3    0    0 -0.28419457960E+02 -0.28726088693E+02  0.26318774387E+02  0.48223766419E+02  0.00000000000E+00 0. -1.
         11    1    3    3    0    0  0.65092047658E+02 -0.24716632363E+02  0.97783955086E+02  0.12003994525E+03  0.00000000000E+00 0.  1.
        -15    1    1    2    0    0 -0.55170023691E+02  0.75206762007E+02 -0.29413075783E+02  0.97816539101E+02  0.17770000000E+01 0.  1.
         15    1    1    2    0    0  0.18497433994E+02 -0.21764040951E+02 -0.94689653689E+02  0.98919749230E+02  0.17770000000E+01 0. -1.
</event>
<event>
 7    1  0.2808731E-007  0.3650000E+03  0.7546771E-02  0.9765871E-01
        -11   -1    0    0    0    0  0.00000000000E+00  0.00000000000E+00  0.18250000000E+03  0.18250000000E+03  0.00000000000E+00 0.  1.
         11   -1    0    0    0    0 -0.00000000000E+00 -0.00000000000E+00 -0.18250000000E+03  0.18250000000E+03  0.00000000000E+00 0. -1.
         23    2    1    2    0    0  0.45616022794E+02  0.37901759829E+02 -0.55194371760E+02  0.12253517422E+03  0.91929784688E+02 0.  0.
        -11    1    3    3    0    0  0.13650354182E+02 -0.23239316633E+02 -0.45473733181E+02  0.52860745513E+02  0.00000000000E+00 0.  1.
         11    1    3    3    0    0  0.31965668613E+02  0.61141076462E+02 -0.97206385793E+01  0.69674428704E+02  0.00000000000E+00 0. -1.
        -15    1    1    2    0    0  0.93393790170E+02 -0.76245410912E+01  0.18510267397E+02  0.95531782131E+02  0.17770000000E+01 0.  1.
         15    1    1    2    0    0 -0.13900981296E+03 -0.30277218738E+02  0.36684104363E+02  0.14693304365E+03  0.17770000000E+01 0. -1.
</event>
<event>
 7    1  0.2808731E-007  0.2574209E+03  0.7546771E-02  0.1020762E+00
        -11   -1    0    0    0    0  0.00000000000E+00  0.00000000000E+00  0.18250000000E+03  0.18250000000E+03  0.00000000000E+00 0.  1.
         11   -1    0    0    0    0 -0.00000000000E+00 -0.00000000000E+00 -0.18250000000E+03  0.18250000000E+03  0.00000000000E+00 0. -1.
         23    2    1    2    0    0  0.40057378356E+02 -0.30306080148E+02 -0.24546869518E+02  0.10757912613E+03  0.91911193661E+02 0.  0.
        -11    1    3    3    0    0  0.18543529108E+02  0.18320364152E+02  0.24107109383E+02  0.35505646554E+02  0.00000000000E+00 0.  1.
         11    1    3    3    0    0  0.21513849248E+02 -0.48626444300E+02 -0.48653978900E+02  0.72073479572E+02  0.00000000000E+00 0. -1.
        -15    1    1    2    0    0  0.80829319417E+01  0.11025371611E+03  0.90707702626E+02  0.14301140076E+03  0.17770000000E+01 0.  1.
         15    1    1    2    0    0 -0.48140310297E+02 -0.79947635957E+02 -0.66160833108E+02  0.11440947311E+03  0.17770000000E+01 0. -1.
</event>
<event>
 7    1  0.2808731E-007  0.3650000E+03  0.7546771E-02  0.9765871E-01
        -11   -1    0    0    0    0  0.00000000000E+00  0.00000000000E+00  0.18250000000E+03  0.18250000000E+03  0.00000000000E+00 0.  1.
         11   -1    0    0    0    0 -0.00000000000E+00 -0.00000000000E+00 -0.18250000000E+03  0.18250000000E+03  0.00000000000E+00 0. -1.
         23    2    1    2    0    0 -0.51114479814E+02 -0.35444035265E+02 -0.36268678637E+02  0.11350717342E+03  0.87746747432E+02 0.  0.
        -11    1    3    3    0    0 -0.62737454365E+02 -0.50516721292E+02 -0.45329741885E+02  0.92426797032E+02  0.00000000000E+00 0. -1.
         11    1    3    3    0    0  0.11622974550E+02  0.15072686026E+02  0.90610632480E+01  0.21080376387E+02  0.00000000000E+00 0.  1.
        -15    1    1    2    0    0  0.13505720350E+03  0.57274426286E+02  0.64498281460E+02  0.16026226681E+03  0.17770000000E+01 0.  1.
         15    1    1    2    0    0 -0.83942723683E+02 -0.21830391021E+02 -0.28229602822E+02  0.91230559770E+02  0.17770000000E+01 0. -1.
</event>
<event>
 7    1  0.2808731E-007  0.2453183E+03  0.7546771E-02  0.1027177E+00
        -11   -1    0    0    0    0  0.00000000000E+00  0.00000000000E+00  0.18250000000E+03  0.18250000000E+03  0.00000000000E+00 0. -1.
         11   -1    0    0    0    0 -0.00000000000E+00 -0.00000000000E+00 -0.18250000000E+03  0.18250000000E+03  0.00000000000E+00 0.  1.
         23    2    1    2    0    0  0.51855392189E+02  0.50496390694E+02  0.35803096541E+02  0.11968174511E+03  0.88334541485E+02 0.  0.
        -11    1    3    3    0    0  0.16126964863E+02  0.36635288756E+02  0.61615953106E+02  0.73476180188E+02  0.00000000000E+00 0. -1.
         11    1    3    3    0    0  0.35728427326E+02  0.13861101938E+02 -0.25812856564E+02  0.46205564926E+02  0.00000000000E+00 0.  1.
        -15    1    1    2    0    0 -0.26225826703E+02  0.52764440048E+00  0.97132449528E+02  0.10062774406E+03  0.17770000000E+01 0. -1.
         15    1    1    2    0    0 -0.25629565486E+02 -0.51024035094E+02 -0.13293554607E+03  0.14469051082E+03  0.17770000000E+01 0.  1.
</event>
<event>
 7    1  0.2808731E-007  0.1885652E+03  0.7546771E-02  0.1063727E+00
        -11   -1    0    0    0    0  0.00000000000E+00  0.00000000000E+00  0.18250000000E+03  0.18250000000E+03  0.00000000000E+00 0.  1.
         11   -1    0    0    0    0 -0.00000000000E+00 -0.00000000000E+00 -0.18250000000E+03  0.18250000000E+03  0.00000000000E+00 0. -1.
         23    2    1    2    0    0 -0.10192862028E+03 -0.36851813168E+02 -0.12916142103E+03  0.18856517153E+03  0.84419496952E+02 0.  0.
        -11    1    3    3    0    0  0.32377099529E+01 -0.16732485167E+02 -0.56878797970E+02  0.59377238772E+02  0.00000000000E+00 0. -1.
         11    1    3    3    0    0 -0.10516633023E+03 -0.20119328001E+02 -0.72282623058E+02  0.12918793276E+03  0.00000000000E+00 0.  1.
        -15    1    1    2    0    0  0.22816790915E+02 -0.13333782796E+02  0.28989955369E+02  0.39267937972E+02  0.17770000000E+01 0. -1.
         15    1    1    2    0    0  0.79111829365E+02  0.50185595964E+02  0.10017146566E+03  0.13716689050E+03  0.17770000000E+01 0.  1.
</event>
<event>
 7    1  0.2808731E-007  0.3650000E+03  0.7546771E-02  0.9765871E-01
        -11   -1    0    0    0    0  0.00000000000E+00  0.00000000000E+00  0.18250000000E+03  0.18250000000E+03  0.00000000000E+00 0. -1.
         11   -1    0    0    0    0 -0.00000000000E+00 -0.00000000000E+00 -0.18250000000E+03  0.18250000000E+03  0.00000000000E+00 0.  1.
         23    2    1    2    0    0  0.26835881371E+02  0.51924100966E+02 -0.52618880901E+02  0.12106274878E+03  0.92038935924E+02 0.  0.
        -11    1    3    3    0    0  0.50229440247E+01  0.30592333243E+02 -0.76353971340E+02  0.82407825838E+02  0.00000000000E+00 0.  1.
         11    1    3    3    0    0  0.21812937346E+02  0.21331767723E+02  0.23735090439E+02  0.38654922947E+02  0.00000000000E+00 0. -1.
        -15    1    1    2    0    0  0.87351686663E+02 -0.78609763401E+01 -0.33895106355E+02  0.94043330841E+02  0.17770000000E+01 0. -1.
         15    1    1    2    0    0 -0.11418756803E+03 -0.44063124626E+02  0.86513987255E+02  0.14989392037E+03  0.17770000000E+01 0.  1.
</event>
<event>
 7    1  0.2808731E-007  0.2362210E+03  0.7546771E-02  0.1032268E+00
        -11   -1    0    0    0    0  0.00000000000E+00  0.00000000000E+00  0.18250000000E+03  0.18250000000E+03  0.00000000000E+00 0. -1.
         11   -1    0    0    0    0 -0.00000000000E+00 -0.00000000000E+00 -0.18250000000E+03  0.18250000000E+03  0.00000000000E+00 0.  1.
         23    2    1    2    0    0 -0.65545852623E+01 -0.40639083189E+02 -0.81842299926E+02  0.12877904861E+03  0.90506262950E+02 0.  0.
        -11    1    3    3    0    0  0.39271343039E+02 -0.35845092181E+02 -0.47711414118E+02  0.71438701379E+02  0.00000000000E+00 0. -1.
         11    1    3    3    0    0 -0.45825928301E+02 -0.47939910078E+01 -0.34130885807E+02  0.57340347230E+02  0.00000000000E+00 0.  1.
        -15    1    1    2    0    0  0.97378495946E+02 -0.27718155794E+02  0.10042714866E+02  0.10175893810E+03  0.17770000000E+01 0. -1.
         15    1    1    2    0    0 -0.90823910683E+02  0.68357238983E+02  0.71799585060E+02  0.13446201329E+03  0.17770000000E+01 0.  1.
</event>
<event>
 7    1  0.2808731E-007  0.3650000E+03  0.7546771E-02  0.9765871E-01
        -11   -1    0    0    0    0  0.00000000000E+00  0.00000000000E+00  0.18250000000E+03  0.18250000000E+03  0.00000000000E+00 0. -1.
         11   -1    0    0    0    0 -0.00000000000E+00 -0.00000000000E+00 -0.18250000000E+03  0.18250000000E+03  0.00000000000E+00 0.  1.
         23    2    1    2    0    0 -0.13024301669E+02  0.73121658990E+02 -0.20256696880E+02  0.11964915127E+03  0.91592446100E+02 0.  0.
        -11    1    3    3    0    0 -0.91472452259E+00  0.92200601294E+02 -0.49153483186E+01  0.92336061477E+02  0.00000000000E+00 0. -1.
         11    1    3    3    0    0 -0.12109577146E+02 -0.19078942305E+02 -0.15341348561E+02  0.27313089788E+02  0.00000000000E+00 0.  1.
        -15    1    1    2    0    0 -0.40743393092E+02  0.59255404454E+02  0.63614133915E+02  0.96026781683E+02  0.17770000000E+01 0. -1.
         15    1    1    2    0    0  0.53767694760E+02 -0.13237706344E+03 -0.43357437035E+02  0.14932406705E+03  0.17770000000E+01 0.  1.
</event>
<event>
 7    1  0.2808731E-007  0.2358350E+03  0.7546771E-02  0.1032489E+00
        -11   -1    0    0    0    0  0.00000000000E+00  0.00000000000E+00  0.18250000000E+03  0.18250000000E+03  0.00000000000E+00 0. -1.
         11   -1    0    0    0    0 -0.00000000000E+00 -0.00000000000E+00 -0.18250000000E+03  0.18250000000E+03  0.00000000000E+00 0.  1.
         23    2    1    2    0    0 -0.92244666625E+01  0.69695962171E+00 -0.93129639393E+02  0.12916498927E+03  0.89021841041E+02 0.  0.
        -11    1    3    3    0    0  0.13201847452E+02  0.18603004639E+02 -0.97502947445E+02  0.10013583434E+03  0.00000000000E+00 0.  1.
         11    1    3    3    0    0 -0.22426314115E+02 -0.17906045018E+02  0.43733080525E+01  0.29029154936E+02  0.00000000000E+00 0. -1.
        -15    1    1    2    0    0 -0.35774793917E+02 -0.10060705808E+03  0.52001247579E+02  0.11878090542E+03  0.17770000000E+01 0. -1.
         15    1    1    2    0    0  0.44999260580E+02  0.99910098456E+02  0.41128391814E+02  0.11705410530E+03  0.17770000000E+01 0.  1.
</event>
<event>
 7    1  0.2808731E-007  0.3650000E+03  0.7546771E-02  0.9765871E-01
        -11   -1    0    0    0    0  0.00000000000E+00  0.00000000000E+00  0.18250000000E+03  0.18250000000E+03  0.00000000000E+00 0.  1.
         11   -1    0    0    0    0 -0.00000000000E+00 -0.00000000000E+00 -0.18250000000E+03  0.18250000000E+03  0.00000000000E+00 0. -1.
         23    2    1    2    0    0  0.31596023710E+02 -0.10009390843E+03  0.17732087942E+02  0.14166284701E+03  0.93471043961E+02 0.  0.
        -11    1    3    3    0    0  0.35585911174E+01 -0.52035707440E+02  0.54135251198E+02  0.75173159052E+02  0.00000000000E+00 0.  1.
         11    1    3    3    0    0  0.28037432593E+02 -0.48058200994E+02 -0.36403163256E+02  0.66489687954E+02  0.00000000000E+00 0. -1.
        -15    1    1    2    0    0  0.40836959081E+02 -0.12359406749E+02 -0.68111544348E+02  0.80391245572E+02  0.17770000000E+01 0.  1.
         15    1    1    2    0    0 -0.72432982791E+02  0.11245331518E+03  0.50379456407E+02  0.14294590742E+03  0.17770000000E+01 0. -1.
</event>
<event>
 7    1  0.2808731E-007  0.3650000E+03  0.7546771E-02  0.9765871E-01
        -11   -1    0    0    0    0  0.00000000000E+00  0.00000000000E+00  0.18250000000E+03  0.18250000000E+03  0.00000000000E+00 0. -1.
         11   -1    0    0    0    0 -0.00000000000E+00 -0.00000000000E+00 -0.18250000000E+03  0.18250000000E+03  0.00000000000E+00 0.  1.
         23    2    1    2    0    0  0.85410793789E+01  0.89084517315E+02 -0.84485305675E+02  0.15250930115E+03  0.90068411770E+02 0.  0.
        -11    1    3    3    0    0  0.17391650511E+02  0.10600437998E+03 -0.76148636939E+02  0.13167388880E+03  0.00000000000E+00 0.  1.
         11    1    3    3    0    0 -0.88505711323E+01 -0.16919862669E+02 -0.83366687357E+01  0.20835412348E+02  0.00000000000E+00 0. -1.
        -15    1    1    2    0    0  0.45462482003E+02  0.21784149287E+02 -0.16514658875E+02  0.53078037989E+02  0.17770000000E+01 0.  1.
         15    1    1    2    0    0 -0.54003561382E+02 -0.11086866660E+03  0.10099996455E+03  0.15941266087E+03  0.17770000000E+01 0. -1.
</event>
<event>
 7    1  0.2808731E-007  0.2032068E+03  0.7546771E-02  0.1053071E+00
        -11   -1    0    0    0    0  0.00000000000E+00  0.00000000000E+00  0.18250000000E+03  0.18250000000E+03  0.00000000000E+00 0.  1.
         11   -1    0    0    0    0 -0.00000000000E+00 -0.00000000000E+00 -0.18250000000E+03  0.18250000000E+03  0.00000000000E+00 0. -1.
         23    2    1    2    0    0  0.70187990685E+02 -0.85771032879E+02 -0.69296175917E+02  0.16179321982E+03  0.95352303933E+02 0.  0.
        -11    1    3    3    0    0  0.52568238035E+02 -0.10663529096E+03 -0.56858496313E+02  0.13178540713E+03  0.00000000000E+00 0. -1.
         11    1    3    3    0    0  0.17619752650E+02  0.20864258081E+02 -0.12437679603E+02  0.30007812693E+02  0.00000000000E+00 0.  1.
        -15    1    1    2    0    0 -0.82923479365E+02  0.79123471002E+02  0.11069328755E+03  0.15935177668E+03  0.17770000000E+01 0.  1.
         15    1    1    2    0    0  0.12735488681E+02  0.66475618776E+01 -0.41397111637E+02  0.43855003498E+02  0.17770000000E+01 0. -1.
</event>
<event>
 7    1  0.2808731E-007  0.1953660E+03  0.7546771E-02  0.1058651E+00
        -11   -1    0    0    0    0  0.00000000000E+00  0.00000000000E+00  0.18250000000E+03  0.18250000000E+03  0.00000000000E+00 0.  1.
         11   -1    0    0    0    0 -0.00000000000E+00 -0.00000000000E+00 -0.18250000000E+03  0.18250000000E+03  0.00000000000E+00 0. -1.
         23    2    1    2    0    0  0.24236340153E+02  0.91171602971E-01 -0.14175900684E+03  0.16963395739E+03  0.89959185090E+02 0.  0.
        -11    1    3    3    0    0  0.37231077327E+02 -0.37172243874E+02 -0.67948588640E+02  0.85935670892E+02  0.00000000000E+00 0.  1.
         11    1    3    3    0    0 -0.12994737174E+02  0.37263415477E+02 -0.73810418199E+02  0.83698286493E+02  0.00000000000E+00 0. -1.
        -15    1    1    2    0    0 -0.59681879151E+02 -0.46241478363E+02  0.89785769775E+02  0.11732366856E+03  0.17770000000E+01 0.  1.
         15    1    1    2    0    0  0.35445538998E+02  0.46150306760E+02  0.51973237064E+02  0.78042374060E+02  0.17770000000E+01 0. -1.
</event>
<event>
 7    1  0.2808731E-007  0.2459859E+03  0.7546771E-02  0.1026812E+00
        -11   -1    0    0    0    0  0.00000000000E+00  0.00000000000E+00  0.18250000000E+03  0.18250000000E+03  0.00000000000E+00 0.  1.
         11   -1    0    0    0    0 -0.00000000000E+00 -0.00000000000E+00 -0.18250000000E+03  0.18250000000E+03  0.00000000000E+00 0. -1.
         23    2    1    2    0    0 -0.27971705127E+02 -0.33178909873E+02 -0.59507624507E+02  0.11901413181E+03  0.93487698910E+02 0.  0.
        -11    1    3    3    0    0 -0.55430730446E+02 -0.84915941906E+01 -0.59945910122E+02  0.82086449491E+02  0.00000000000E+00 0. -1.
         11    1    3    3    0    0  0.27459025319E+02 -0.24687315682E+02  0.43828561471E+00  0.36927682318E+02  0.00000000000E+00 0.  1.
        -15    1    1    2    0    0  0.18430871132E+02  0.13498585115E+03  0.29514804873E+02  0.13941003714E+03  0.17770000000E+01 0.  1.
         15    1    1    2    0    0  0.95408339947E+01 -0.10180694127E+03  0.29992819635E+02  0.10657583105E+03  0.17770000000E+01 0. -1.
</event>
<event>
 7    1  0.2808731E-007  0.2091198E+03  0.7546771E-02  0.1049042E+00
        -11   -1    0    0    0    0  0.00000000000E+00  0.00000000000E+00  0.18250000000E+03  0.18250000000E+03  0.00000000000E+00 0.  1.
         11   -1    0    0    0    0 -0.00000000000E+00 -0.00000000000E+00 -0.18250000000E+03  0.18250000000E+03  0.00000000000E+00 0. -1.
         23    2    1    2    0    0  0.51034708285E+02 -0.26499612481E+02 -0.11225951236E+03  0.15588019525E+03  0.91595121291E+02 0.  0.
        -11    1    3    3    0    0  0.28338685379E+02  0.25105806985E+02 -0.10077904827E+02  0.39178397097E+02  0.00000000000E+00 0.  1.
         11    1    3    3    0    0  0.22696022907E+02 -0.51605419466E+02 -0.10218160753E+03  0.11670179815E+03  0.00000000000E+00 0. -1.
        -15    1    1    2    0    0  0.25373964701E+02 -0.13332882731E+02  0.11924158138E+03  0.12265119773E+03  0.17770000000E+01 0.  1.
         15    1    1    2    0    0 -0.76408672987E+02  0.39832495212E+02 -0.69820690192E+01  0.86468607016E+02  0.17770000000E+01 0. -1.
</event>
<event>
 7    1  0.2808731E-007  0.2523521E+03  0.7546771E-02  0.1023401E+00
        -11   -1    0    0    0    0  0.00000000000E+00  0.00000000000E+00  0.18250000000E+03  0.18250000000E+03  0.00000000000E+00 0.  1.
         11   -1    0    0    0    0 -0.00000000000E+00 -0.00000000000E+00 -0.18250000000E+03  0.18250000000E+03  0.00000000000E+00 0. -1.
         23    2    1    2    0    0 -0.37317087394E+02 -0.54820201810E+02  0.66045278609E+01  0.11264793542E+03  0.90819150119E+02 0.  0.
        -11    1    3    3    0    0 -0.15299211471E+01  0.23534951443E+02  0.11757901334E+02  0.26353042366E+02  0.00000000000E+00 0.  1.
         11    1    3    3    0    0 -0.35787166247E+02 -0.78355153253E+02 -0.51533734728E+01  0.86294893055E+02  0.00000000000E+00 0. -1.
        -15    1    1    2    0    0 -0.53098667395E+02  0.83628755671E+02  0.77304790700E+02  0.12566791814E+03  0.17770000000E+01 0.  1.
         15    1    1    2    0    0  0.90415754790E+02 -0.28808553861E+02 -0.83909318561E+02  0.12668414644E+03  0.17770000000E+01 0. -1.
</event>
<event>
 7    1  0.2808731E-007  0.2585896E+03  0.7546771E-02  0.1020163E+00
        -11   -1    0    0    0    0  0.00000000000E+00  0.00000000000E+00  0.18250000000E+03  0.18250000000E+03  0.00000000000E+00 0.  1.
         11   -1    0    0    0    0 -0.00000000000E+00 -0.00000000000E+00 -0.18250000000E+03  0.18250000000E+03  0.00000000000E+00 0. -1.
         23    2    1    2    0    0  0.39875469716E+02 -0.18236480703E+02  0.35206756937E+02  0.10641035462E+03  0.90338394513E+02 0.  0.
        -11    1    3    3    0    0  0.14065511862E+02 -0.53831734900E+02  0.26333390257E+02  0.61556004977E+02  0.00000000000E+00 0.  1.
         11    1    3    3    0    0  0.25809957854E+02  0.35595254197E+02  0.88733666808E+01  0.44854349645E+02  0.00000000000E+00 0. -1.
        -15    1    1    2    0    0 -0.12834429638E+03 -0.51111882896E+02  0.74154710397E+01  0.13835761607E+03  0.17770000000E+01 0.  1.
         15    1    1    2    0    0  0.88468826660E+02  0.69348363599E+02 -0.42622227977E+02  0.12023202931E+03  0.17770000000E+01 0. -1.
</event>
<event>
 6    1  0.2808731E-007  0.1638604E+03  0.7546771E-02  0.1084343E+00
        -11   -1    0    0    0    0  0.00000000000E+00  0.00000000000E+00  0.18250000000E+03  0.18250000000E+03  0.00000000000E+00 0. -1.
         11   -1    0    0    0    0 -0.00000000000E+00 -0.00000000000E+00 -0.18250000000E+03  0.18250000000E+03  0.00000000000E+00 0. -1.
        -11    1    1    2    0    0 -0.83137590040E+02  0.12089073736E+01  0.85743244344E+02  0.11943711435E+03  0.00000000000E+00 0. -1.
         11    1    1    2    0    0  0.22147405699E+02  0.71683227959E+02 -0.43116664106E+01  0.75150403971E+02  0.00000000000E+00 0. -1.
        -15    1    1    2    0    0  0.71059948719E+01 -0.35022369062E+02  0.26109774242E+02  0.44293786673E+02  0.17770000000E+01 0.  1.
         15    1    1    2    0    0  0.53884189469E+02 -0.37869766270E+02 -0.10754135218E+03  0.12611869500E+03  0.17770000000E+01 0. -1.
</event>
<event>
 7    1  0.2808731E-007  0.1880043E+03  0.7546771E-02  0.1064156E+00
        -11   -1    0    0    0    0  0.00000000000E+00  0.00000000000E+00  0.18250000000E+03  0.18250000000E+03  0.00000000000E+00 0. -1.
         11   -1    0    0    0    0 -0.00000000000E+00 -0.00000000000E+00 -0.18250000000E+03  0.18250000000E+03  0.00000000000E+00 0.  1.
         23    2    1    2    0    0  0.12524371212E+02  0.16243358708E+02  0.15097782390E+03  0.17699567898E+03  0.90069198352E+02 0.  0.
        -11    1    3    3    0    0  0.13750852801E+01  0.41552511386E+02  0.26092665572E+02  0.49084918852E+02  0.00000000000E+00 0. -1.
         11    1    3    3    0    0  0.11149285932E+02 -0.25309152678E+02  0.12488515833E+03  0.12791076013E+03  0.00000000000E+00 0.  1.
        -15    1    1    2    0    0  0.15257885271E+02  0.21204071720E+02  0.36980794678E+01  0.26443321297E+02  0.17770000000E+01 0. -1.
         15    1    1    2    0    0 -0.27782256483E+02 -0.37447430428E+02 -0.15467590337E+03  0.16156099972E+03  0.17770000000E+01 0.  1.
</event>
<event>
 7    1  0.2808731E-007  0.3650000E+03  0.7546771E-02  0.9765871E-01
        -11   -1    0    0    0    0  0.00000000000E+00  0.00000000000E+00  0.18250000000E+03  0.18250000000E+03  0.00000000000E+00 0.  1.
         11   -1    0    0    0    0 -0.00000000000E+00 -0.00000000000E+00 -0.18250000000E+03  0.18250000000E+03  0.00000000000E+00 0. -1.
         23    2    1    2    0    0 -0.95218991686E+02  0.28421496232E+02 -0.78943189153E+02  0.15622113749E+03  0.91096535939E+02 0.  0.
        -11    1    3    3    0    0 -0.38257889684E+02 -0.32868370854E+02 -0.37480108249E+02  0.62839115525E+02  0.00000000000E+00 0.  1.
         11    1    3    3    0    0 -0.56961102002E+02  0.61289867086E+02 -0.41463080904E+02  0.93382021968E+02  0.00000000000E+00 0. -1.
        -15    1    1    2    0    0  0.10589624138E+03  0.54863565226E+01  0.11615347830E+03  0.15728605246E+03  0.17770000000E+01 0.  1.
         15    1    1    2    0    0 -0.10677249696E+02 -0.33907852755E+02 -0.37210289148E+02  0.51492810051E+02  0.17770000000E+01 0. -1.
</event>
<event>
 7    1  0.2808731E-007  0.1966833E+03  0.7546771E-02  0.1057694E+00
        -11   -1    0    0    0    0  0.00000000000E+00  0.00000000000E+00  0.18250000000E+03  0.18250000000E+03  0.00000000000E+00 0.  1.
         11   -1    0    0    0    0 -0.00000000000E+00 -0.00000000000E+00 -0.18250000000E+03  0.18250000000E+03  0.00000000000E+00 0. -1.
         23    2    1    2    0    0  0.12727462195E+03  0.52248367240E+02  0.34923712092E+02  0.16831671264E+03  0.90455120445E+02 0.  0.
        -11    1    3    3    0    0 -0.12642332583E+02  0.19529092897E+01  0.12622454710E+02  0.17971332470E+02  0.00000000000E+00 0.  1.
         11    1    3    3    0    0  0.13991695454E+03  0.50295457951E+02  0.22301257382E+02  0.15034538017E+03  0.00000000000E+00 0. -1.
        -15    1    1    2    0    0 -0.55362790430E+02 -0.27592566868E+02  0.52259197477E+02  0.80997344157E+02  0.17770000000E+01 0.  1.
         15    1    1    2    0    0 -0.71911831523E+02 -0.24655800373E+02 -0.87182909569E+02  0.11568594320E+03  0.17770000000E+01 0. -1.
</event>
<event>
 7    1  0.2808731E-007  0.2488343E+03  0.7546771E-02  0.1025273E+00
        -11   -1    0    0    0    0  0.00000000000E+00  0.00000000000E+00  0.18250000000E+03  0.18250000000E+03  0.00000000000E+00 0.  1.
         11   -1    0    0    0    0 -0.00000000000E+00 -0.00000000000E+00 -0.18250000000E+03  0.18250000000E+03  0.00000000000E+00 0. -1.
         23    2    1    2    0    0  0.33481958829E+02 -0.43497695066E+02  0.44794180691E+02  0.11616569586E+03  0.92058998631E+02 0.  0.
        -11    1    3    3    0    0 -0.23104222475E+02  0.10001369494E+02 -0.21000569596E+01  0.25263466254E+02  0.00000000000E+00 0. -1.
         11    1    3    3    0    0  0.56586181304E+02 -0.53499064560E+02  0.46894237650E+02  0.90902229611E+02  0.00000000000E+00 0.  1.
        -15    1    1    2    0    0  0.83363089210E+02  0.83384135712E+02 -0.13274207783E+01  0.11792895533E+03  0.17770000000E+01 0.  1.
         15    1    1    2    0    0 -0.11684504804E+03 -0.39886440646E+02 -0.43466759912E+02  0.13090534880E+03  0.17770000000E+01 0. -1.
</event>
<event>
 7    1  0.2808731E-007  0.3650000E+03  0.7546771E-02  0.9765871E-01
        -11   -1    0    0    0    0  0.00000000000E+00  0.00000000000E+00  0.18250000000E+03  0.18250000000E+03  0.00000000000E+00 0. -1.
         11   -1    0    0    0    0 -0.00000000000E+00 -0.00000000000E+00 -0.18250000000E+03  0.18250000000E+03  0.00000000000E+00 0.  1.
         23    2    1    2    0    0 -0.77460335811E+00  0.82637912569E+02 -0.44887631851E+02  0.13106840102E+03  0.91292944132E+02 0.  0.
        -11    1    3    3    0    0 -0.32439721334E+02 -0.15425836237E+01 -0.18320856778E+02  0.37287650470E+02  0.00000000000E+00 0.  1.
         11    1    3    3    0    0  0.31665117976E+02  0.84180496193E+02 -0.26566775073E+02  0.93780750549E+02  0.00000000000E+00 0. -1.
        -15    1    1    2    0    0 -0.16516712802E+02  0.69360601323E+02  0.37938184749E+02  0.80784642159E+02  0.17770000000E+01 0. -1.
         15    1    1    2    0    0  0.17291316160E+02 -0.15199851389E+03  0.69494471013E+01  0.15314695682E+03  0.17770000000E+01 0.  1.
</event>
<event>
 7    1  0.2808731E-007  0.1863387E+03  0.7546771E-02  0.1065440E+00
        -11   -1    0    0    0    0  0.00000000000E+00  0.00000000000E+00  0.18250000000E+03  0.18250000000E+03  0.00000000000E+00 0. -1.
         11   -1    0    0    0    0 -0.00000000000E+00 -0.00000000000E+00 -0.18250000000E+03  0.18250000000E+03  0.00000000000E+00 0.  1.
         23    2    1    2    0    0 -0.25336568643E+02 -0.76105093836E+02  0.13121918040E+03  0.17866130230E+03  0.90925577337E+02 0.  0.
        -11    1    3    3    0    0  0.23012248024E+02  0.78416138658E+01  0.24054491965E+02  0.34200483196E+02  0.00000000000E+00 0.  1.
         11    1    3    3    0    0 -0.48348816666E+02 -0.83946707702E+02  0.10716468844E+03  0.14446081910E+03  0.00000000000E+00 0. -1.
        -15    1    1    2    0    0 -0.23948883866E+02 -0.14963784932E+02 -0.34656507365E+02  0.44740307662E+02  0.17770000000E+01 0. -1.
         15    1    1    2    0    0  0.49285452508E+02  0.91068878768E+02 -0.96562673039E+02  0.14159839004E+03  0.17770000000E+01 0.  1.
</event>
<event>
 7    1  0.2808731E-007  0.2502977E+03  0.7546771E-02  0.1024490E+00
        -11   -1    0    0    0    0  0.00000000000E+00  0.00000000000E+00  0.18250000000E+03  0.18250000000E+03  0.00000000000E+00 0.  1.
         11   -1    0    0    0    0 -0.00000000000E+00 -0.00000000000E+00 -0.18250000000E+03  0.18250000000E+03  0.00000000000E+00 0. -1.
         23    2    1    2    0    0  0.57351000775E+02  0.31529148403E+02  0.24550606575E+02  0.11470225663E+03  0.90943119051E+02 0.  0.
        -11    1    3    3    0    0  0.72354100023E+02  0.46418825125E+02  0.32804106406E+02  0.92010502190E+02  0.00000000000E+00 0.  1.
         11    1    3    3    0    0 -0.15003099248E+02 -0.14889676721E+02 -0.82534998300E+01  0.22691754435E+02  0.00000000000E+00 0. -1.
        -15    1    1    2    0    0 -0.79329430813E+02  0.88224534346E+02  0.20592373394E+02  0.12043226571E+03  0.17770000000E+01 0.  1.
         15    1    1    2    0    0  0.21978430038E+02 -0.11975368275E+03 -0.45142979970E+02  0.12986547766E+03  0.17770000000E+01 0. -1.
</event>
<event>
 7    1  0.2808731E-007  0.2398268E+03  0.7546771E-02  0.1030221E+00
        -11   -1    0    0    0    0  0.00000000000E+00  0.00000000000E+00  0.18250000000E+03  0.18250000000E+03  0.00000000000E+00 0. -1.
         11   -1    0    0    0    0 -0.00000000000E+00 -0.00000000000E+00 -0.18250000000E+03  0.18250000000E+03  0.00000000000E+00 0.  1.
         23    2    1    2    0    0 -0.28388557006E+02 -0.81555980122E+02  0.29552886594E+01  0.12517321661E+03  0.90566618367E+02 0.  0.
        -11    1    3    3    0    0 -0.16672516255E+02 -0.87707361120E+02  0.30720760830E+02  0.94415672104E+02  0.00000000000E+00 0. -1.
         11    1    3    3    0    0 -0.11716040751E+02  0.61513809980E+01 -0.27765472170E+02  0.30757544504E+02  0.00000000000E+00 0.  1.
        -15    1    1    2    0    0  0.35535154093E+02  0.26146772395E+02  0.10740038286E+03  0.11612235293E+03  0.17770000000E+01 0. -1.
         15    1    1    2    0    0 -0.71465970873E+01  0.55409207727E+02 -0.11035567152E+03  0.12370443046E+03  0.17770000000E+01 0.  1.
</event>
<event>
 7    1  0.2808731E-007  0.2656807E+03  0.7546771E-02  0.1016600E+00
        -11   -1    0    0    0    0  0.00000000000E+00  0.00000000000E+00  0.18250000000E+03  0.18250000000E+03  0.00000000000E+00 0.  1.
         11   -1    0    0    0    0 -0.00000000000E+00 -0.00000000000E+00 -0.18250000000E+03  0.18250000000E+03  0.00000000000E+00 0. -1.
         23    2    1    2    0    0 -0.29048579475E+02  0.15253899408E+02 -0.20082550160E+02  0.99319296869E+02  0.91566983641E+02 0.  0.
        -11    1    3    3    0    0 -0.48500628805E+02  0.92437632633E+01 -0.45233073866E+02  0.66961101582E+02  0.00000000000E+00 0.  1.
         11    1    3    3    0    0  0.19452049330E+02  0.60101361443E+01  0.25150523706E+02  0.32358195287E+02  0.00000000000E+00 0. -1.
        -15    1    1    2    0    0  0.81106199041E+02 -0.11688120526E+03 -0.22016011552E+02  0.14396976822E+03  0.17770000000E+01 0. -1.
         15    1    1    2    0    0 -0.52057619566E+02  0.10162730586E+03  0.42098561712E+02  0.12171093491E+03  0.17770000000E+01 0.  1.
</event>
<event>
 7    1  0.2808731E-007  0.2283245E+03  0.7546771E-02  0.1036893E+00
        -11   -1    0    0    0    0  0.00000000000E+00  0.00000000000E+00  0.18250000000E+03  0.18250000000E+03  0.00000000000E+00 0.  1.
         11   -1    0    0    0    0 -0.00000000000E+00 -0.00000000000E+00 -0.18250000000E+03  0.18250000000E+03  0.00000000000E+00 0. -1.
         23    2    1    2    0    0  0.18327699735E+02  0.27073751105E+02  0.94884122546E+02  0.13667545796E+03  0.92780879071E+02 0.  0.
        -11    1    3    3    0    0  0.25219609889E+02 -0.11044361660E+02 -0.63747502686E+01  0.28260291725E+02  0.00000000000E+00 0.  1.
         11    1    3    3    0    0 -0.68919101532E+01  0.38118112765E+02  0.10125887281E+03  0.10841516624E+03  0.00000000000E+00 0. -1.
        -15    1    1    2    0    0  0.58430876610E+02 -0.78660750089E+02 -0.31569787970E+01  0.98055113023E+02  0.17770000000E+01 0.  1.
         15    1    1    2    0    0 -0.76758576345E+02  0.51586998984E+02 -0.91727143749E+02  0.13026942902E+03  0.17770000000E+01 0. -1.
</event>
<event>
 7    1  0.2808731E-007  0.3650000E+03  0.7546771E-02  0.9765871E-01
        -11   -1    0    0    0    0  0.00000000000E+00  0.00000000000E+00  0.18250000000E+03  0.18250000000E+03  0.00000000000E+00 0.  1.
         11   -1    0    0    0    0 -0.00000000000E+00 -0.00000000000E+00 -0.18250000000E+03  0.18250000000E+03  0.00000000000E+00 0. -1.
         23    2    1    2    0    0  0.27773810946E+02  0.68016292658E+02 -0.80956804579E+02  0.14380507877E+03  0.93425348968E+02 0.  0.
        -11    1    3    3    0    0  0.61154581116E+02  0.54770372505E+02 -0.63977325263E+02  0.10408061608E+03  0.00000000000E+00 0.  1.
         11    1    3    3    0    0 -0.33380770170E+02  0.13245920152E+02 -0.16979479316E+02  0.39724462686E+02  0.00000000000E+00 0. -1.
        -15    1    1    2    0    0  0.48979250506E+02  0.43662115569E+02  0.49120056406E+02  0.81983443368E+02  0.17770000000E+01 0.  1.
         15    1    1    2    0    0 -0.76753061452E+02 -0.11167840823E+03  0.31836748173E+02  0.13921147787E+03  0.17770000000E+01 0. -1.
</event>
<event>
 7    1  0.2808731E-007  0.2505048E+03  0.7546771E-02  0.1024380E+00
        -11   -1    0    0    0    0  0.00000000000E+00  0.00000000000E+00  0.18250000000E+03  0.18250000000E+03  0.00000000000E+00 0.  1.
         11   -1    0    0    0    0 -0.00000000000E+00 -0.00000000000E+00 -0.18250000000E+03  0.18250000000E+03  0.00000000000E+00 0. -1.
         23    2    1    2    0    0  0.18698115721E+02  0.67246223329E+02  0.78373824389E+01  0.11449519181E+03  0.90421514590E+02 0.  0.
        -11    1    3    3    0    0 -0.38715685526E+01  0.69948947917E+02  0.35625715657E+02  0.78594121751E+02  0.00000000000E+00 0. -1.
         11    1    3    3    0    0  0.22569684274E+02 -0.27027245874E+01 -0.27788333218E+02  0.35901070060E+02  0.00000000000E+00 0.  1.
        -15    1    1    2    0    0 -0.80580223486E+02 -0.21667749746E+02  0.92184021002E+02  0.12435318755E+03  0.17770000000E+01 0.  1.
         15    1    1    2    0    0  0.61882107765E+02 -0.45578473583E+02 -0.10002140344E+03  0.12615162064E+03  0.17770000000E+01 0. -1.
</event>
<event>
 7    1  0.2808731E-007  0.2086273E+03  0.7546771E-02  0.1049372E+00
        -11   -1    0    0    0    0  0.00000000000E+00  0.00000000000E+00  0.18250000000E+03  0.18250000000E+03  0.00000000000E+00 0.  1.
         11   -1    0    0    0    0 -0.00000000000E+00 -0.00000000000E+00 -0.18250000000E+03  0.18250000000E+03  0.00000000000E+00 0. -1.
         23    2    1    2    0    0 -0.26522652476E+02 -0.44979399246E+02  0.11819903950E+03  0.15637267501E+03  0.88061359852E+02 0.  0.
        -11    1    3    3    0    0  0.29531352295E+01  0.10569161145E+02 -0.91861064610E+01  0.14311279709E+02  0.00000000000E+00 0. -1.
         11    1    3    3    0    0 -0.29475787706E+02 -0.55548560391E+02  0.12738514596E+03  0.14206139530E+03  0.00000000000E+00 0.  1.
        -15    1    1    2    0    0 -0.59921029558E+02  0.59240860339E+02 -0.58590374724E+02  0.10264501477E+03  0.17770000000E+01 0. -1.
         15    1    1    2    0    0  0.86443682034E+02 -0.14261461092E+02 -0.59608664775E+02  0.10598231023E+03  0.17770000000E+01 0.  1.
</event>
<event>
 7    1  0.2808731E-007  0.2442172E+03  0.7546771E-02  0.1027780E+00
        -11   -1    0    0    0    0  0.00000000000E+00  0.00000000000E+00  0.18250000000E+03  0.18250000000E+03  0.00000000000E+00 0.  1.
         11   -1    0    0    0    0 -0.00000000000E+00 -0.00000000000E+00 -0.18250000000E+03  0.18250000000E+03  0.00000000000E+00 0. -1.
         23    2    1    2    0    0 -0.77935760827E+02 -0.11970648546E+02 -0.11321549425E+02  0.12078284933E+03  0.90791188821E+02 0.  0.
        -11    1    3    3    0    0 -0.97598703470E+02 -0.18876130814E+02 -0.90116564703E+01  0.99814954720E+02  0.00000000000E+00 0.  1.
         11    1    3    3    0    0  0.19662942643E+02  0.69054822678E+01 -0.23098929548E+01  0.20967894605E+02  0.00000000000E+00 0. -1.
        -15    1    1    2    0    0  0.47611191547E+02  0.10527929939E+03  0.64774485571E+02  0.13247433016E+03  0.17770000000E+01 0.  1.
         15    1    1    2    0    0  0.30324569280E+02 -0.93308650847E+02 -0.53452936146E+02  0.11174282051E+03  0.17770000000E+01 0. -1.
</event>
<event>
 7    1  0.3229380E-007  0.3650000E+03  0.7546771E-02  0.9765871E-01
        -11   -1    0    0    0    0  0.00000000000E+00  0.00000000000E+00  0.18250000000E+03  0.18250000000E+03  0.00000000000E+00 0.  1.
         11   -1    0    0    0    0 -0.00000000000E+00 -0.00000000000E+00 -0.18250000000E+03  0.18250000000E+03  0.00000000000E+00 0. -1.
         23    2    1    2    0    0 -0.37196907125E+02 -0.39557663429E+02 -0.15156356649E+02  0.10790375399E+03  0.92005903841E+02 0.  0.
        -11    1    3    3    0    0 -0.23749141106E+01 -0.58780878466E+02  0.11606182355E+02  0.59962783117E+02  0.00000000000E+00 0.  1.
         11    1    3    3    0    0 -0.34821993015E+02  0.19223215037E+02 -0.26762539004E+02  0.47940970869E+02  0.00000000000E+00 0. -1.
        -15    1    1    2    0    0  0.93002459041E+02  0.11184462598E+03  0.57495845632E+02  0.15642125093E+03  0.17770000000E+01 0.  1.
         15    1    1    2    0    0 -0.55805551915E+02 -0.72286962550E+02 -0.42339488983E+02  0.10067499509E+03  0.17770000000E+01 0. -1.
</event>
<event>
 7    1  0.2808731E-007  0.3650000E+03  0.7546771E-02  0.9765871E-01
        -11   -1    0    0    0    0  0.00000000000E+00  0.00000000000E+00  0.18250000000E+03  0.18250000000E+03  0.00000000000E+00 0. -1.
         11   -1    0    0    0    0 -0.00000000000E+00 -0.00000000000E+00 -0.18250000000E+03  0.18250000000E+03  0.00000000000E+00 0.  1.
         23    2    1    2    0    0 -0.20620542733E+02 -0.50048123303E+01  0.93186968994E+01  0.93970234123E+02  0.91067622458E+02 0.  0.
        -11    1    3    3    0    0 -0.10642850053E+02 -0.22366086891E+02  0.45962753049E+02  0.52211940855E+02  0.00000000000E+00 0. -1.
         11    1    3    3    0    0 -0.99776926803E+01  0.17361274561E+02 -0.36644056149E+02  0.41758293268E+02  0.00000000000E+00 0.  1.
        -15    1    1    2    0    0 -0.67107592302E+02  0.31032761231E+02  0.10258457518E+03  0.12646427957E+03  0.17770000000E+01 0. -1.
         15    1    1    2    0    0  0.87728135035E+02 -0.26027948901E+02 -0.11190327208E+03  0.14456548631E+03  0.17770000000E+01 0.  1.
</event>
<event>
 7    1  0.2808731E-007  0.2521435E+03  0.7546771E-02  0.1023511E+00
        -11   -1    0    0    0    0  0.00000000000E+00  0.00000000000E+00  0.18250000000E+03  0.18250000000E+03  0.00000000000E+00 0. -1.
         11   -1    0    0    0    0 -0.00000000000E+00 -0.00000000000E+00 -0.18250000000E+03  0.18250000000E+03  0.00000000000E+00 0.  1.
         23    2    1    2    0    0  0.63137423672E+02  0.35014183038E+02  0.55306911577E+01  0.11285652955E+03  0.86566046665E+02 0.  0.
        -11    1    3    3    0    0  0.75692552575E+02  0.43748224140E+02 -0.13478292261E+02  0.88458656970E+02  0.00000000000E+00 0. -1.
         11    1    3    3    0    0 -0.12555128902E+02 -0.87340411016E+01  0.19008983419E+02  0.24397872578E+02  0.00000000000E+00 0.  1.
        -15    1    1    2    0    0 -0.46144019034E+02 -0.69237922100E+01  0.11663290647E+03  0.12563280619E+03  0.17770000000E+01 0. -1.
         15    1    1    2    0    0 -0.16993404639E+02 -0.28090390828E+02 -0.12216359763E+03  0.12651066426E+03  0.17770000000E+01 0.  1.
</event>
<event>
 7    1  0.2808731E-007  0.2436383E+03  0.7546771E-02  0.1028099E+00
        -11   -1    0    0    0    0  0.00000000000E+00  0.00000000000E+00  0.18250000000E+03  0.18250000000E+03  0.00000000000E+00 0. -1.
         11   -1    0    0    0    0 -0.00000000000E+00 -0.00000000000E+00 -0.18250000000E+03  0.18250000000E+03  0.00000000000E+00 0.  1.
         23    2    1    2    0    0  0.62346583088E+02  0.62206604131E+01 -0.50144080749E+02  0.12136165003E+03  0.91040805276E+02 0.  0.
        -11    1    3    3    0    0 -0.15421458575E+02 -0.20329445760E+02 -0.24253455541E+02  0.35204230643E+02  0.00000000000E+00 0. -1.
         11    1    3    3    0    0  0.77768041663E+02  0.26550106173E+02 -0.25890625208E+02  0.86157419388E+02  0.00000000000E+00 0.  1.
        -15    1    1    2    0    0 -0.98880291890E+01  0.10900064767E+03  0.40289449873E+02  0.11664180989E+03  0.17770000000E+01 0. -1.
         15    1    1    2    0    0 -0.52458553899E+02 -0.11522130808E+03  0.98546308757E+01  0.12699654008E+03  0.17770000000E+01 0.  1.
</event>
<event>
 7    1  0.2808731E-007  0.2475090E+03  0.7546771E-02  0.1025986E+00
        -11   -1    0    0    0    0  0.00000000000E+00  0.00000000000E+00  0.18250000000E+03  0.18250000000E+03  0.00000000000E+00 0. -1.
         11   -1    0    0    0    0 -0.00000000000E+00 -0.00000000000E+00 -0.18250000000E+03  0.18250000000E+03  0.00000000000E+00 0.  1.
         23    2    1    2    0    0  0.22510733064E+02 -0.28161879627E+02 -0.63846571239E+02  0.11749100355E+03  0.91803740054E+02 0.  0.
        -11    1    3    3    0    0 -0.25502312248E+02 -0.78706256994E+01 -0.59468238040E+02  0.65182712543E+02  0.00000000000E+00 0.  1.
         11    1    3    3    0    0  0.48013045312E+02 -0.20291253927E+02 -0.43783331998E+01  0.52308291003E+02  0.00000000000E+00 0. -1.
        -15    1    1    2    0    0  0.10432189565E+03  0.39575825295E+02  0.34666699083E+02  0.11685136548E+03  0.17770000000E+01 0. -1.
         15    1    1    2    0    0 -0.12683262872E+03 -0.11413945668E+02  0.29179872156E+02  0.13065763097E+03  0.17770000000E+01 0.  1.
</event>
<event>
 7    1  0.2808731E-007  0.3650000E+03  0.7546771E-02  0.9765871E-01
        -11   -1    0    0    0    0  0.00000000000E+00  0.00000000000E+00  0.18250000000E+03  0.18250000000E+03  0.00000000000E+00 0.  1.
         11   -1    0    0    0    0 -0.00000000000E+00 -0.00000000000E+00 -0.18250000000E+03  0.18250000000E+03  0.00000000000E+00 0. -1.
         23    2    1    2    0    0 -0.68348412517E+02  0.56843412390E+01 -0.42811197494E+02  0.12206036198E+03  0.91444606762E+02 0.  0.
        -11    1    3    3    0    0  0.78331541215E+01  0.21780503364E+02  0.12731547655E+02  0.26416679125E+02  0.00000000000E+00 0.  1.
         11    1    3    3    0    0 -0.76181566638E+02 -0.16096162125E+02 -0.55542745149E+02  0.95643682851E+02  0.00000000000E+00 0. -1.
        -15    1    1    2    0    0  0.11376740647E+03 -0.88801195849E+02  0.28755510483E+02  0.14716899222E+03  0.17770000000E+01 0.  1.
         15    1    1    2    0    0 -0.45418993950E+02  0.83116854610E+02  0.14055687011E+02  0.95770645806E+02  0.17770000000E+01 0. -1.
</event>
<event>
 7    1  0.2808731E-007  0.1889149E+03  0.7546771E-02  0.1063460E+00
        -11   -1    0    0    0    0  0.00000000000E+00  0.00000000000E+00  0.18250000000E+03  0.18250000000E+03  0.00000000000E+00 0.  1.
         11   -1    0    0    0    0 -0.00000000000E+00 -0.00000000000E+00 -0.18250000000E+03  0.18250000000E+03  0.00000000000E+00 0.  1.
         23    2    1    2    0    0  0.39675116341E+02 -0.70629648198E+02  0.15039760889E+03  0.18891493830E+03  0.80664435103E+02 0.  0.
        -11    1    3    3    0    0 -0.18699768168E+02 -0.30506722899E+02  0.21246739248E+02  0.41614485462E+02  0.00000000000E+00 0.  1.
         11    1    3    3    0    0  0.58374884509E+02 -0.40122925299E+02  0.12915086965E+03  0.14730045284E+03  0.00000000000E+00 0.  1.
        -15    1    1    2    0    0 -0.21840815180E+02  0.23565866544E+02 -0.99120357393E+02  0.10421311939E+03  0.17770000000E+01 0.  1.
         15    1    1    2    0    0 -0.17834301161E+02  0.47063781654E+02 -0.51277251501E+02  0.71871942314E+02  0.17770000000E+01 0.  1.
</event>
<event>
 7    1  0.2808731E-007  0.3650000E+03  0.7546771E-02  0.9765871E-01
        -11   -1    0    0    0    0  0.00000000000E+00  0.00000000000E+00  0.18250000000E+03  0.18250000000E+03  0.00000000000E+00 0. -1.
         11   -1    0    0    0    0 -0.00000000000E+00 -0.00000000000E+00 -0.18250000000E+03  0.18250000000E+03  0.00000000000E+00 0.  1.
         23    2    1    2    0    0  0.57728461372E+02  0.73323786320E+01 -0.12978617922E+02  0.10857297253E+03  0.90737571117E+02 0.  0.
        -11    1    3    3    0    0  0.42346561436E+02 -0.37702575153E+02  0.66648529628E+01  0.57088840447E+02  0.00000000000E+00 0.  1.
         11    1    3    3    0    0  0.15381899936E+02  0.45034953785E+02 -0.19643470884E+02  0.51484132084E+02  0.00000000000E+00 0. -1.
        -15    1    1    2    0    0  0.83196668092E+02  0.49935340895E+02 -0.23785578684E+02  0.99920645186E+02  0.17770000000E+01 0. -1.
         15    1    1    2    0    0 -0.14092512946E+03 -0.57267719527E+02  0.36764196606E+02  0.15650638228E+03  0.17770000000E+01 0.  1.
</event>
<event>
 7    1  0.2808731E-007  0.2437217E+03  0.7546771E-02  0.1028053E+00
        -11   -1    0    0    0    0  0.00000000000E+00  0.00000000000E+00  0.18250000000E+03  0.18250000000E+03  0.00000000000E+00 0.  1.
         11   -1    0    0    0    0 -0.00000000000E+00 -0.00000000000E+00 -0.18250000000E+03  0.18250000000E+03  0.00000000000E+00 0. -1.
         23    2    1    2    0    0  0.40254036393E+02  0.68156522719E+02  0.87478918932E+01  0.12127829077E+03  0.91466929343E+02 0.  0.
        -11    1    3    3    0    0  0.49737145175E+02  0.77831657150E+02  0.29088977047E+02  0.96838623754E+02  0.00000000000E+00 0.  1.
         11    1    3    3    0    0 -0.94831087817E+01 -0.96751344313E+01 -0.20341085154E+02  0.24439667012E+02  0.00000000000E+00 0. -1.
        -15    1    1    2    0    0 -0.10598879366E+03  0.13673232300E+02  0.55714913373E+02  0.12053170107E+03  0.17770000000E+01 0.  1.
         15    1    1    2    0    0  0.65734757264E+02 -0.81829755019E+02 -0.64462805266E+02  0.12319000816E+03  0.17770000000E+01 0. -1.
</event>
<event>
 7    1  0.2808731E-007  0.2168013E+03  0.7546771E-02  0.1044019E+00
        -11   -1    0    0    0    0  0.00000000000E+00  0.00000000000E+00  0.18250000000E+03  0.18250000000E+03  0.00000000000E+00 0. -1.
         11   -1    0    0    0    0 -0.00000000000E+00 -0.00000000000E+00 -0.18250000000E+03  0.18250000000E+03  0.00000000000E+00 0.  1.
         23    2    1    2    0    0 -0.36290305228E+02 -0.43139610440E+02 -0.10107308925E+03  0.14819867503E+03  0.92569247967E+02 0.  0.
        -11    1    3    3    0    0 -0.40323211692E+02 -0.30709458542E+02 -0.11705307192E+03  0.12755568937E+03  0.00000000000E+00 0.  1.
         11    1    3    3    0    0  0.40329064641E+01 -0.12430151898E+02  0.15979982674E+02  0.20642985661E+02  0.00000000000E+00 0. -1.
        -15    1    1    2    0    0  0.88562516772E+02 -0.36541251887E+02  0.59689116845E+02  0.11289167757E+03  0.17770000000E+01 0. -1.
         15    1    1    2    0    0 -0.52272211545E+02  0.79680862327E+02  0.41383972401E+02  0.10390964739E+03  0.17770000000E+01 0.  1.
</event>
<event>
 7    1  0.2808731E-007  0.2499379E+03  0.7546771E-02  0.1024682E+00
        -11   -1    0    0    0    0  0.00000000000E+00  0.00000000000E+00  0.18250000000E+03  0.18250000000E+03  0.00000000000E+00 0.  1.
         11   -1    0    0    0    0 -0.00000000000E+00 -0.00000000000E+00 -0.18250000000E+03  0.18250000000E+03  0.00000000000E+00 0. -1.
         23    2    1    2    0    0  0.13420628756E+02 -0.15539923451E+02  0.64002216211E+02  0.11506208880E+03  0.93388425954E+02 0.  0.
        -11    1    3    3    0    0 -0.16400689988E+02 -0.44496782315E+02  0.12816684025E+02  0.49124471070E+02  0.00000000000E+00 0.  1.
         11    1    3    3    0    0  0.29821318743E+02  0.28956858864E+02  0.51185532186E+02  0.65937617731E+02  0.00000000000E+00 0. -1.
        -15    1    1    2    0    0  0.11032217084E+03  0.35851314646E+02 -0.35552644690E+02  0.12134020938E+03  0.17770000000E+01 0.  1.
         15    1    1    2    0    0 -0.12374279959E+03 -0.20311391194E+02 -0.28449571521E+02  0.12859770181E+03  0.17770000000E+01 0. -1.
</event>
<event>
 7    1  0.2808731E-007  0.2450122E+03  0.7546771E-02  0.1027344E+00
        -11   -1    0    0    0    0  0.00000000000E+00  0.00000000000E+00  0.18250000000E+03  0.18250000000E+03  0.00000000000E+00 0.  1.
         11   -1    0    0    0    0 -0.00000000000E+00 -0.00000000000E+00 -0.18250000000E+03  0.18250000000E+03  0.00000000000E+00 0. -1.
         23    2    1    2    0    0 -0.47329408236E+02  0.61191255175E+02  0.16102890278E+02  0.11998783545E+03  0.90295819324E+02 0.  0.
        -11    1    3    3    0    0 -0.52612603513E+02  0.65247779253E+02 -0.17589655480E+02  0.85643182599E+02  0.00000000000E+00 0.  1.
         11    1    3    3    0    0  0.52831952778E+01 -0.40565240777E+01  0.33692545758E+02  0.34344652853E+02  0.00000000000E+00 0. -1.
        -15    1    1    2    0    0  0.16209215892E+01 -0.11473461975E+03  0.69500250654E+02  0.13416446223E+03  0.17770000000E+01 0.  1.
         15    1    1    2    0    0  0.45708486646E+02  0.53543364578E+02 -0.85603140932E+02  0.11084770231E+03  0.17770000000E+01 0. -1.
</event>
<event>
 7    1  0.2808731E-007  0.3650000E+03  0.7546771E-02  0.9765871E-01
        -11   -1    0    0    0    0  0.00000000000E+00  0.00000000000E+00  0.18250000000E+03  0.18250000000E+03  0.00000000000E+00 0. -1.
         11   -1    0    0    0    0 -0.00000000000E+00 -0.00000000000E+00 -0.18250000000E+03  0.18250000000E+03  0.00000000000E+00 0.  1.
         23    2    1    2    0    0 -0.40960683163E+00  0.75665015173E+02 -0.79231733647E+02  0.14398986052E+03  0.93434736675E+02 0.  0.
        -11    1    3    3    0    0  0.40665914170E+02  0.43721528570E+02 -0.15452382249E+02  0.61677100717E+02  0.00000000000E+00 0. -1.
         11    1    3    3    0    0 -0.41075521001E+02  0.31943486604E+02 -0.63779351398E+02  0.82312759805E+02  0.00000000000E+00 0.  1.
        -15    1    1    2    0    0 -0.30094587515E+02  0.57508629055E+02  0.40497777382E+01  0.65057551769E+02  0.17770000000E+01 0.  1.
         15    1    1    2    0    0  0.30504194347E+02 -0.13317364423E+03  0.75181955909E+02  0.15595258771E+03  0.17770000000E+01 0. -1.
</event>
<event>
 7    1  0.2808731E-007  0.3650000E+03  0.7546771E-02  0.9765871E-01
        -11   -1    0    0    0    0  0.00000000000E+00  0.00000000000E+00  0.18250000000E+03  0.18250000000E+03  0.00000000000E+00 0.  1.
         11   -1    0    0    0    0 -0.00000000000E+00 -0.00000000000E+00 -0.18250000000E+03  0.18250000000E+03  0.00000000000E+00 0. -1.
         23    2    1    2    0    0 -0.21884053832E+02  0.28156840096E+02  0.90691350265E+02  0.13359312028E+03  0.91380968022E+02 0.  0.
        -11    1    3    3    0    0 -0.36262396482E+02  0.47791836845E+02  0.27727371873E+02  0.66089546969E+02  0.00000000000E+00 0. -1.
         11    1    3    3    0    0  0.14378342650E+02 -0.19634996748E+02  0.62963978391E+02  0.67503573309E+02  0.00000000000E+00 0.  1.
        -15    1    1    2    0    0  0.25297033945E+02 -0.93540286839E+02 -0.12443874763E+03  0.15772724821E+03  0.17770000000E+01 0.  1.
         15    1    1    2    0    0 -0.34129801138E+01  0.65383446743E+02  0.33747397365E+02  0.73679631508E+02  0.17770000000E+01 0. -1.
</event>
<event>
 7    1  0.2808731E-007  0.1916491E+03  0.7546771E-02  0.1061397E+00
        -11   -1    0    0    0    0  0.00000000000E+00  0.00000000000E+00  0.18250000000E+03  0.18250000000E+03  0.00000000000E+00 0.  1.
         11   -1    0    0    0    0 -0.00000000000E+00 -0.00000000000E+00 -0.18250000000E+03  0.18250000000E+03  0.00000000000E+00 0. -1.
         23    2    1    2    0    0  0.89743763938E+02  0.93907361636E+02 -0.64845957463E+02  0.17335090255E+03  0.94725928237E+02 0.  0.
        -11    1    3    3    0    0  0.65023037027E+02  0.93628460248E+02 -0.84394693730E+02  0.14183352298E+03  0.00000000000E+00 0.  1.
         11    1    3    3    0    0  0.24720726911E+02  0.27890138789E+00  0.19548736267E+02  0.31517379565E+02  0.00000000000E+00 0. -1.
        -15    1    1    2    0    0 -0.24965866863E+02 -0.24411937919E+02  0.87274503987E+02  0.94017200535E+02  0.17770000000E+01 0.  1.
         15    1    1    2    0    0 -0.64777897074E+02 -0.69495423717E+02 -0.22428546525E+02  0.97631896915E+02  0.17770000000E+01 0.  1.
</event>
<event>
 7    1  0.2808731E-007  0.3650000E+03  0.7546771E-02  0.9765871E-01
        -11   -1    0    0    0    0  0.00000000000E+00  0.00000000000E+00  0.18250000000E+03  0.18250000000E+03  0.00000000000E+00 0.  1.
         11   -1    0    0    0    0 -0.00000000000E+00 -0.00000000000E+00 -0.18250000000E+03  0.18250000000E+03  0.00000000000E+00 0. -1.
         23    2    1    2    0    0 -0.53623828080E+02 -0.40081857489E+02  0.57787200336E+02  0.12865193566E+03  0.93433879234E+02 0.  0.
        -11    1    3    3    0    0 -0.30225699554E+02 -0.58049981950E+02  0.70793192912E+02  0.96410940668E+02  0.00000000000E+00 0.  1.
         11    1    3    3    0    0 -0.23398128526E+02  0.17968124461E+02 -0.13005992576E+02  0.32240994992E+02  0.00000000000E+00 0. -1.
        -15    1    1    2    0    0 -0.15276098365E+01  0.62801334254E+02  0.70751808632E+02  0.94632538429E+02  0.17770000000E+01 0.  1.
         15    1    1    2    0    0  0.55151437916E+02 -0.22719476765E+02 -0.12853900897E+03  0.14171552591E+03  0.17770000000E+01 0. -1.
</event>
<event>
 7    1  0.2808731E-007  0.3650000E+03  0.7546771E-02  0.9765871E-01
        -11   -1    0    0    0    0  0.00000000000E+00  0.00000000000E+00  0.18250000000E+03  0.18250000000E+03  0.00000000000E+00 0.  1.
         11   -1    0    0    0    0 -0.00000000000E+00 -0.00000000000E+00 -0.18250000000E+03  0.18250000000E+03  0.00000000000E+00 0. -1.
         23    2    1    2    0    0 -0.69947351357E+02 -0.15749970912E+02  0.83851196965E+02  0.13961988476E+03  0.85568659232E+02 0.  0.
        -11    1    3    3    0    0 -0.71794531813E+02  0.12902001729E+02  0.30562135221E+02  0.79088308593E+02  0.00000000000E+00 0. -1.
         11    1    3    3    0    0  0.18471804562E+01 -0.28651972641E+02  0.53289061744E+02  0.60531576168E+02  0.00000000000E+00 0.  1.
        -15    1    1    2    0    0 -0.12763234637E+02 -0.43222941166E+02  0.43368526448E+02  0.62570836791E+02  0.17770000000E+01 0.  1.
         15    1    1    2    0    0  0.82710585994E+02  0.58972912077E+02 -0.12721972341E+03  0.16280927845E+03  0.17770000000E+01 0. -1.
</event>
<event>
 7    1  0.2808731E-007  0.3650000E+03  0.7546771E-02  0.9765871E-01
        -11   -1    0    0    0    0  0.00000000000E+00  0.00000000000E+00  0.18250000000E+03  0.18250000000E+03  0.00000000000E+00 0. -1.
         11   -1    0    0    0    0 -0.00000000000E+00 -0.00000000000E+00 -0.18250000000E+03  0.18250000000E+03  0.00000000000E+00 0.  1.
         23    2    1    2    0    0 -0.11004571096E+02 -0.10781189286E+03 -0.15160750835E+02  0.14275244839E+03  0.91672833095E+02 0.  0.
        -11    1    3    3    0    0 -0.22312912934E+02 -0.52751247066E+02 -0.50497322655E+02  0.76357971070E+02  0.00000000000E+00 0.  1.
         11    1    3    3    0    0  0.11308341837E+02 -0.55060645793E+02  0.35336571820E+02  0.66394477317E+02  0.00000000000E+00 0. -1.
        -15    1    1    2    0    0 -0.64326384229E+02 -0.21666922289E+02 -0.14744405292E+02  0.69483051501E+02  0.17770000000E+01 0.  1.
         15    1    1    2    0    0  0.75330955325E+02  0.12947881515E+03  0.29905156127E+02  0.15276450011E+03  0.17770000000E+01 0. -1.
</event>
<event>
 7    1  0.2808731E-007  0.2113178E+03  0.7546771E-02  0.1047581E+00
        -11   -1    0    0    0    0  0.00000000000E+00  0.00000000000E+00  0.18250000000E+03  0.18250000000E+03  0.00000000000E+00 0.  1.
         11   -1    0    0    0    0 -0.00000000000E+00 -0.00000000000E+00 -0.18250000000E+03  0.18250000000E+03  0.00000000000E+00 0. -1.
         23    2    1    2    0    0 -0.28781535505E+02 -0.68263315057E+02  0.98175078425E+02  0.15368217897E+03  0.92149927519E+02 0.  0.
        -11    1    3    3    0    0 -0.23276348895E+02 -0.88714782864E+02  0.95372907192E+02  0.13231814895E+03  0.00000000000E+00 0.  1.
         11    1    3    3    0    0 -0.55051866101E+01  0.20451467806E+02  0.28021712326E+01  0.21364030019E+02  0.00000000000E+00 0. -1.
        -15    1    1    2    0    0  0.15679518000E+02 -0.20229951893E+02  0.39512440195E+02  0.47111451872E+02  0.17770000000E+01 0.  1.
         15    1    1    2    0    0  0.13102017506E+02  0.88493266951E+02 -0.13768751862E+03  0.16420636915E+03  0.17770000000E+01 0. -1.
</event>
<event>
 7    1  0.2808731E-007  0.3650000E+03  0.7546771E-02  0.9765871E-01
        -11   -1    0    0    0    0  0.00000000000E+00  0.00000000000E+00  0.18250000000E+03  0.18250000000E+03  0.00000000000E+00 0.  1.
         11   -1    0    0    0    0 -0.00000000000E+00 -0.00000000000E+00 -0.18250000000E+03  0.18250000000E+03  0.00000000000E+00 0. -1.
         23    2    1    2    0    0  0.88165034113E+02 -0.31131318976E+01  0.45539755617E+02  0.13221635848E+03  0.87318562046E+02 0.  0.
        -11    1    3    3    0    0  0.84688320485E+02  0.28711016235E+02  0.45208812431E+02  0.10020115170E+03  0.00000000000E+00 0.  1.
         11    1    3    3    0    0  0.34767136276E+01 -0.31824148133E+02  0.33094318593E+00  0.32015206784E+02  0.00000000000E+00 0. -1.
        -15    1    1    2    0    0 -0.90249774687E+02  0.56521416520E+02 -0.10723512048E+03  0.15113643224E+03  0.17770000000E+01 0. -1.
         15    1    1    2    0    0  0.20847405740E+01 -0.53408284623E+02  0.61695364860E+02  0.81647209284E+02  0.17770000000E+01 0.  1.
</event>
<event>
 7    1  0.2808731E-007  0.3650000E+03  0.7546771E-02  0.9765871E-01
        -11   -1    0    0    0    0  0.00000000000E+00  0.00000000000E+00  0.18250000000E+03  0.18250000000E+03  0.00000000000E+00 0.  1.
         11   -1    0    0    0    0 -0.00000000000E+00 -0.00000000000E+00 -0.18250000000E+03  0.18250000000E+03  0.00000000000E+00 0. -1.
         23    2    1    2    0    0  0.25962378901E+02 -0.26650826654E+01 -0.21318892399E+02  0.97952570108E+02  0.91973164749E+02 0.  0.
        -11    1    3    3    0    0  0.57176242761E+02  0.45500211314E+01  0.34450984315E+01  0.57460370097E+02  0.00000000000E+00 0. -1.
         11    1    3    3    0    0 -0.31213863860E+02 -0.72151037968E+01 -0.24763990830E+02  0.40492200011E+02  0.00000000000E+00 0.  1.
        -15    1    1    2    0    0 -0.13380218820E+03  0.54194551722E+02  0.29051052691E+02  0.14726573395E+03  0.17770000000E+01 0.  1.
         15    1    1    2    0    0  0.10783980930E+03 -0.51529469057E+02 -0.77321602920E+01  0.11978169594E+03  0.17770000000E+01 0. -1.
</event>
<event>
 7    1  0.2808731E-007  0.2341267E+03  0.7546771E-02  0.1033475E+00
        -11   -1    0    0    0    0  0.00000000000E+00  0.00000000000E+00  0.18250000000E+03  0.18250000000E+03  0.00000000000E+00 0.  1.
         11   -1    0    0    0    0 -0.00000000000E+00 -0.00000000000E+00 -0.18250000000E+03  0.18250000000E+03  0.00000000000E+00 0. -1.
         23    2    1    2    0    0 -0.71718307095E+02  0.58016308916E+02 -0.18837585828E+02  0.13087327421E+03  0.90904079055E+02 0.  0.
        -11    1    3    3    0    0 -0.78069029718E+02  0.25833428748E+02 -0.40397172924E+02  0.91619162964E+02  0.00000000000E+00 0.  1.
         11    1    3    3    0    0  0.63507226223E+01  0.32182880168E+02  0.21559587096E+02  0.39254111243E+02  0.00000000000E+00 0. -1.
        -15    1    1    2    0    0  0.76607071380E+02  0.70856973618E+02  0.10033201719E+02  0.10484835221E+03  0.17770000000E+01 0.  1.
         15    1    1    2    0    0 -0.48887642846E+01 -0.12887328253E+03  0.88043841087E+01  0.12927837358E+03  0.17770000000E+01 0. -1.
</event>
<event>
 7    1  0.2808731E-007  0.2700373E+03  0.7546771E-02  0.1014470E+00
        -11   -1    0    0    0    0  0.00000000000E+00  0.00000000000E+00  0.18250000000E+03  0.18250000000E+03  0.00000000000E+00 0.  1.
         11   -1    0    0    0    0 -0.00000000000E+00 -0.00000000000E+00 -0.18250000000E+03  0.18250000000E+03  0.00000000000E+00 0. -1.
         23    2    1    2    0    0  0.25344853671E+02  0.91514918691E+01 -0.12074383103E+02  0.94962688469E+02  0.90255249503E+02 0.  0.
        -11    1    3    3    0    0  0.74700152765E+01  0.19542232450E+02 -0.48644428158E+02  0.52952623808E+02  0.00000000000E+00 0. -1.
         11    1    3    3    0    0  0.17874838395E+02 -0.10390740581E+02  0.36570045055E+02  0.42010064661E+02  0.00000000000E+00 0.  1.
        -15    1    1    2    0    0 -0.89059702918E+01  0.11878494636E+03 -0.47109902327E+02  0.12810808099E+03  0.17770000000E+01 0.  1.
         15    1    1    2    0    0 -0.16438883379E+02 -0.12793643822E+03  0.59184285430E+02  0.14192923055E+03  0.17770000000E+01 0. -1.
</event>
<event>
 7    1  0.4011045E-007  0.3650000E+03  0.7546771E-02  0.9765871E-01
        -11   -1    0    0    0    0  0.00000000000E+00  0.00000000000E+00  0.18250000000E+03  0.18250000000E+03  0.00000000000E+00 0. -1.
         11   -1    0    0    0    0 -0.00000000000E+00 -0.00000000000E+00 -0.18250000000E+03  0.18250000000E+03  0.00000000000E+00 0.  1.
         23    2    1    2    0    0 -0.88297685618E+01 -0.17618285193E+02  0.12731417794E+03  0.15734885572E+03  0.90340432287E+02 0.  0.
        -11    1    3    3    0    0  0.65994492575E+01  0.34366833147E+02  0.71085362425E+02  0.79232321071E+02  0.00000000000E+00 0.  1.
         11    1    3    3    0    0 -0.15429217819E+02 -0.51985118340E+02  0.56228815510E+02  0.78116534645E+02  0.00000000000E+00 0. -1.
        -15    1    1    2    0    0  0.12951371092E+02  0.42114155011E+02  0.26757569050E+02  0.51579698486E+02  0.17770000000E+01 0. -1.
         15    1    1    2    0    0 -0.41216025297E+01 -0.24495869819E+02 -0.15407174698E+03  0.15607144580E+03  0.17770000000E+01 0.  1.
</event>
<event>
 7    1  0.2808731E-007  0.3650000E+03  0.7546771E-02  0.9765871E-01
        -11   -1    0    0    0    0  0.00000000000E+00  0.00000000000E+00  0.18250000000E+03  0.18250000000E+03  0.00000000000E+00 0.  1.
         11   -1    0    0    0    0 -0.00000000000E+00 -0.00000000000E+00 -0.18250000000E+03  0.18250000000E+03  0.00000000000E+00 0.  1.
         23    2    1    2    0    0  0.18742127561E+02 -0.43302192030E+02 -0.11804917337E+02  0.10400542038E+03  0.91931627936E+02 0.  0.
        -11    1    3    3    0    0  0.35854775321E+02 -0.58807118117E+02  0.13025923884E+02  0.70096481706E+02  0.00000000000E+00 0.  1.
         11    1    3    3    0    0 -0.17112647760E+02  0.15504926086E+02 -0.24830841221E+02  0.33908938675E+02  0.00000000000E+00 0.  1.
        -15    1    1    2    0    0  0.84810018505E+02 -0.39213167854E+02 -0.59311797586E+02  0.11068630825E+03  0.17770000000E+01 0.  1.
         15    1    1    2    0    0 -0.10355214607E+03  0.82515359884E+02  0.71116714924E+02  0.15030827137E+03  0.17770000000E+01 0. -1.
</event>
<event>
 7    1  0.2808731E-007  0.2159716E+03  0.7546771E-02  0.1044550E+00
        -11   -1    0    0    0    0  0.00000000000E+00  0.00000000000E+00  0.18250000000E+03  0.18250000000E+03  0.00000000000E+00 0.  1.
         11   -1    0    0    0    0 -0.00000000000E+00 -0.00000000000E+00 -0.18250000000E+03  0.18250000000E+03  0.00000000000E+00 0. -1.
         23    2    1    2    0    0  0.95779171512E+02 -0.72853892669E+02 -0.11453277817E+02  0.14902841359E+03  0.87160490538E+02 0.  0.
        -11    1    3    3    0    0  0.15949722850E+02 -0.41349702514E+02  0.30202671893E+02  0.53632014194E+02  0.00000000000E+00 0.  1.
         11    1    3    3    0    0  0.79829448661E+02 -0.31504190155E+02 -0.41655949710E+02  0.95396399393E+02  0.00000000000E+00 0. -1.
        -15    1    1    2    0    0 -0.41930029345E+02 -0.10373052646E+02  0.83084057395E+02  0.93658133145E+02  0.17770000000E+01 0.  1.
         15    1    1    2    0    0 -0.53849142167E+02  0.83226945315E+02 -0.71630779577E+02  0.12231345327E+03  0.17770000000E+01 0. -1.
</event>
<event>
 7    1  0.2808731E-007  0.3650000E+03  0.7546771E-02  0.9765871E-01
        -11   -1    0    0    0    0  0.00000000000E+00  0.00000000000E+00  0.18250000000E+03  0.18250000000E+03  0.00000000000E+00 0.  1.
         11   -1    0    0    0    0 -0.00000000000E+00 -0.00000000000E+00 -0.18250000000E+03  0.18250000000E+03  0.00000000000E+00 0. -1.
         23    2    1    2    0    0 -0.74181893813E+02 -0.36440286755E+02  0.97774249699E+02  0.15593241301E+03  0.89018344481E+02 0.  0.
        -11    1    3    3    0    0  0.82207353199E+01 -0.30433182439E+02  0.53709848881E+01  0.31978220107E+02  0.00000000000E+00 0. -1.
         11    1    3    3    0    0 -0.82402629133E+02 -0.60071043158E+01  0.92403264811E+02  0.12395419290E+03  0.00000000000E+00 0.  1.
        -15    1    1    2    0    0 -0.51041228643E+02  0.11565176923E+01 -0.46947010589E+02  0.69381006671E+02  0.17770000000E+01 0.  1.
         15    1    1    2    0    0  0.12522312246E+03  0.35283769062E+02 -0.50827239110E+02  0.13968658032E+03  0.17770000000E+01 0. -1.
</event>
<event>
 7    1  0.2808731E-007  0.2259237E+03  0.7546771E-02  0.1038339E+00
        -11   -1    0    0    0    0  0.00000000000E+00  0.00000000000E+00  0.18250000000E+03  0.18250000000E+03  0.00000000000E+00 0.  1.
         11   -1    0    0    0    0 -0.00000000000E+00 -0.00000000000E+00 -0.18250000000E+03  0.18250000000E+03  0.00000000000E+00 0. -1.
         23    2    1    2    0    0  0.19800083828E+02  0.33242780151E+02 -0.95962015187E+02  0.13907633907E+03  0.92932200978E+02 0.  0.
        -11    1    3    3    0    0  0.19276011735E+02 -0.22247219303E+02 -0.73562718205E+02  0.79233685417E+02  0.00000000000E+00 0.  1.
         11    1    3    3    0    0  0.52407209266E+00  0.55489999454E+02 -0.22399296983E+02  0.59842653653E+02  0.00000000000E+00 0. -1.
        -15    1    1    2    0    0  0.80450473448E+02  0.29478303399E+02  0.48633451821E+02  0.98537401094E+02  0.17770000000E+01 0.  1.
         15    1    1    2    0    0 -0.10025055728E+03 -0.62721083549E+02  0.47328563367E+02  0.12738625984E+03  0.17770000000E+01 0. -1.
</event>
<event>
 7    1  0.2808731E-007  0.2151026E+03  0.7546771E-02  0.1045110E+00
        -11   -1    0    0    0    0  0.00000000000E+00  0.00000000000E+00  0.18250000000E+03  0.18250000000E+03  0.00000000000E+00 0.  1.
         11   -1    0    0    0    0 -0.00000000000E+00 -0.00000000000E+00 -0.18250000000E+03  0.18250000000E+03  0.00000000000E+00 0. -1.
         23    2    1    2    0    0 -0.47534404273E+02  0.35167340426E+02 -0.10482595806E+03  0.14989740547E+03  0.89355969370E+02 0.  0.
        -11    1    3    3    0    0 -0.18171086013E+02  0.58523881539E+02 -0.34847759793E+02  0.70495385948E+02  0.00000000000E+00 0.  1.
         11    1    3    3    0    0 -0.29363318260E+02 -0.23356541113E+02 -0.69978198267E+02  0.79402019526E+02  0.00000000000E+00 0. -1.
        -15    1    1    2    0    0 -0.65033531781E+02 -0.23685637120E+02  0.65470711510E+02  0.95288726806E+02  0.17770000000E+01 0.  1.
         15    1    1    2    0    0  0.11256793605E+03 -0.11481703306E+02  0.39355246551E+02  0.11981386772E+03  0.17770000000E+01 0. -1.
</event>
<event>
 7    1  0.2808731E-007  0.3650000E+03  0.7546771E-02  0.9765871E-01
        -11   -1    0    0    0    0  0.00000000000E+00  0.00000000000E+00  0.18250000000E+03  0.18250000000E+03  0.00000000000E+00 0.  1.
         11   -1    0    0    0    0 -0.00000000000E+00 -0.00000000000E+00 -0.18250000000E+03  0.18250000000E+03  0.00000000000E+00 0. -1.
         23    2    1    2    0    0  0.10321119063E+02  0.81258794177E+02  0.57040309612E+02  0.13685578882E+03  0.93629017318E+02 0.  0.
        -11    1    3    3    0    0  0.45356457557E+02  0.71799445740E+02  0.53548640930E+02  0.10039833463E+03  0.00000000000E+00 0. -1.
         11    1    3    3    0    0 -0.35035338493E+02  0.94593484363E+01  0.34916686822E+01  0.36457454195E+02  0.00000000000E+00 0.  1.
        -15    1    1    2    0    0 -0.63847359092E+01  0.37891955636E+02  0.53273955466E+02  0.65710251975E+02  0.17770000000E+01 0.  1.
         15    1    1    2    0    0 -0.39363831541E+01 -0.11915074981E+03 -0.11031426508E+03  0.16243395920E+03  0.17770000000E+01 0. -1.
</event>
<event>
 7    1  0.2808731E-007  0.1849494E+03  0.7546771E-02  0.1066522E+00
        -11   -1    0    0    0    0  0.00000000000E+00  0.00000000000E+00  0.18250000000E+03  0.18250000000E+03  0.00000000000E+00 0. -1.
         11   -1    0    0    0    0 -0.00000000000E+00 -0.00000000000E+00 -0.18250000000E+03  0.18250000000E+03  0.00000000000E+00 0.  1.
         23    2    1    2    0    0  0.65883316857E+02  0.40175253757E+01 -0.14683446680E+03  0.18494944790E+03  0.91044965192E+02 0.  0.
        -11    1    3    3    0    0  0.59035358163E+02  0.11760857417E+02 -0.15839134619E+03  0.16944412008E+03  0.00000000000E+00 0.  1.
         11    1    3    3    0    0  0.68479586939E+01 -0.77433320411E+01  0.11556879394E+02  0.15505327817E+02  0.00000000000E+00 0. -1.
        -15    1    1    2    0    0  0.74357788700E+00 -0.50176103865E+01  0.96179175138E+02  0.96329231188E+02  0.17770000000E+01 0.  1.
         15    1    1    2    0    0 -0.66626894744E+02  0.10000850108E+01  0.50655291662E+02  0.83721320914E+02  0.17770000000E+01 0. -1.
</event>
<event>
 7    1  0.2808731E-007  0.2514383E+03  0.7546771E-02  0.1023884E+00
        -11   -1    0    0    0    0  0.00000000000E+00  0.00000000000E+00  0.18250000000E+03  0.18250000000E+03  0.00000000000E+00 0. -1.
         11   -1    0    0    0    0 -0.00000000000E+00 -0.00000000000E+00 -0.18250000000E+03  0.18250000000E+03  0.00000000000E+00 0.  1.
         23    2    1    2    0    0  0.48173248112E+02  0.14874629432E+01  0.49341091263E+02  0.11356174611E+03  0.90215589085E+02 0.  0.
        -11    1    3    3    0    0  0.29646016583E+02  0.23253081887E+02 -0.16992423277E+02  0.41332004129E+02  0.00000000000E+00 0.  1.
         11    1    3    3    0    0  0.18527231530E+02 -0.21765618944E+02  0.66333514539E+02  0.72229741986E+02  0.00000000000E+00 0. -1.
        -15    1    1    2    0    0 -0.38354255242E+02 -0.10314316695E+03  0.38622762128E+02  0.11663806097E+03  0.17770000000E+01 0. -1.
         15    1    1    2    0    0 -0.98189928704E+01  0.10165570401E+03 -0.87963853391E+02  0.13480019292E+03  0.17770000000E+01 0.  1.
</event>
<event>
 7    1  0.2808731E-007  0.3650000E+03  0.7546771E-02  0.9765871E-01
        -11   -1    0    0    0    0  0.00000000000E+00  0.00000000000E+00  0.18250000000E+03  0.18250000000E+03  0.00000000000E+00 0.  1.
         11   -1    0    0    0    0 -0.00000000000E+00 -0.00000000000E+00 -0.18250000000E+03  0.18250000000E+03  0.00000000000E+00 0. -1.
         23    2    1    2    0    0  0.95675255344E+01  0.29925749239E+01  0.66444241223E+01  0.91342653619E+02  0.90547440321E+02 0.  0.
        -11    1    3    3    0    0  0.82324752418E+01 -0.40342565000E+02  0.20274396461E+02  0.45894959976E+02  0.00000000000E+00 0.  1.
         11    1    3    3    0    0  0.13350502926E+01  0.43335139924E+02 -0.13629972339E+02  0.45447693643E+02  0.00000000000E+00 0. -1.
        -15    1    1    2    0    0  0.13075766354E+03 -0.56427059027E+01 -0.20993696843E+02  0.13256432303E+03  0.17770000000E+01 0.  1.
         15    1    1    2    0    0 -0.14032518907E+03  0.26501309788E+01  0.14349272721E+02  0.14109302335E+03  0.17770000000E+01 0. -1.
</event>
<event>
 7    1  0.2808731E-007  0.3650000E+03  0.7546771E-02  0.9765871E-01
        -11   -1    0    0    0    0  0.00000000000E+00  0.00000000000E+00  0.18250000000E+03  0.18250000000E+03  0.00000000000E+00 0. -1.
         11   -1    0    0    0    0 -0.00000000000E+00 -0.00000000000E+00 -0.18250000000E+03  0.18250000000E+03  0.00000000000E+00 0.  1.
         23    2    1    2    0    0  0.20391906097E+02 -0.57342612636E+02 -0.26613367745E+02  0.11325327219E+03  0.91728006963E+02 0.  0.
        -11    1    3    3    0    0  0.75006377082E+01 -0.16404463466E+01 -0.50652224056E+02  0.51230834778E+02  0.00000000000E+00 0.  1.
         11    1    3    3    0    0  0.12891268389E+02 -0.55702166290E+02  0.24038856311E+02  0.62022437414E+02  0.00000000000E+00 0. -1.
        -15    1    1    2    0    0  0.16709023400E+02 -0.86448967956E+02 -0.29665859161E+02  0.92929201290E+02  0.17770000000E+01 0. -1.
         15    1    1    2    0    0 -0.37100929498E+02  0.14379158059E+03  0.56279226906E+02  0.15881752652E+03  0.17770000000E+01 0.  1.
</event>
<event>
 7    1  0.2808731E-007  0.2096810E+03  0.7546771E-02  0.1048667E+00
        -11   -1    0    0    0    0  0.00000000000E+00  0.00000000000E+00  0.18250000000E+03  0.18250000000E+03  0.00000000000E+00 0.  1.
         11   -1    0    0    0    0 -0.00000000000E+00 -0.00000000000E+00 -0.18250000000E+03  0.18250000000E+03  0.00000000000E+00 0.  1.
         23    2    1    2    0    0 -0.46787602928E+02  0.15281991623E+02  0.11970515565E+03  0.15531895833E+03  0.85860558300E+02 0.  0.
        -11    1    3    3    0    0 -0.61966660942E+02 -0.12460539524E+02  0.99212365379E+02  0.11763598751E+03  0.00000000000E+00 0.  1.
         11    1    3    3    0    0  0.15179058014E+02  0.27742531147E+02  0.20492790270E+02  0.37682970818E+02  0.00000000000E+00 0.  1.
        -15    1    1    2    0    0  0.54265705195E+02 -0.72173988755E+02 -0.16829027191E+02  0.91870698802E+02  0.17770000000E+01 0. -1.
         15    1    1    2    0    0 -0.74781022671E+01  0.56891997132E+02 -0.10287612846E+03  0.11781034287E+03  0.17770000000E+01 0.  1.
</event>
<event>
 7    1  0.2808731E-007  0.2445346E+03  0.7546771E-02  0.1027606E+00
        -11   -1    0    0    0    0  0.00000000000E+00  0.00000000000E+00  0.18250000000E+03  0.18250000000E+03  0.00000000000E+00 0. -1.
         11   -1    0    0    0    0 -0.00000000000E+00 -0.00000000000E+00 -0.18250000000E+03  0.18250000000E+03  0.00000000000E+00 0.  1.
         23    2    1    2    0    0  0.73477114405E+02 -0.80780208198E+01 -0.15136556622E+02  0.12046537156E+03  0.93907665489E+02 0.  0.
        -11    1    3    3    0    0  0.41553825068E+02  0.26893961941E+02  0.27606697897E+02  0.56675703220E+02  0.00000000000E+00 0. -1.
         11    1    3    3    0    0  0.31923289337E+02 -0.34971982761E+02 -0.42743254519E+02  0.63789668342E+02  0.00000000000E+00 0.  1.
        -15    1    1    2    0    0  0.41244711597E+02 -0.31392253634E+02  0.88621662980E+02  0.10268182264E+03  0.17770000000E+01 0. -1.
         15    1    1    2    0    0 -0.11472182600E+03  0.39470274454E+02 -0.73485106358E+02  0.14185280580E+03  0.17770000000E+01 0.  1.
</event>
<event>
 7    1  0.3204122E-007  0.3650000E+03  0.7546771E-02  0.9765871E-01
        -11   -1    0    0    0    0  0.00000000000E+00  0.00000000000E+00  0.18250000000E+03  0.18250000000E+03  0.00000000000E+00 0. -1.
         11   -1    0    0    0    0 -0.00000000000E+00 -0.00000000000E+00 -0.18250000000E+03  0.18250000000E+03  0.00000000000E+00 0.  1.
         23    2    1    2    0    0  0.42752273109E+02  0.15019755443E+02  0.92688023496E+02  0.12923477996E+03  0.77828071689E+02 0.  0.
        -11    1    3    3    0    0  0.56745190378E+02  0.49113088686E+01  0.30325654814E+02  0.64527381209E+02  0.00000000000E+00 0.  1.
         11    1    3    3    0    0 -0.13992917268E+02  0.10108446575E+02  0.62362368682E+02  0.64707398754E+02  0.00000000000E+00 0. -1.
        -15    1    1    2    0    0 -0.58876226922E+01  0.90164698412E+02  0.64976191037E+00  0.90376528259E+02  0.17770000000E+01 0. -1.
         15    1    1    2    0    0 -0.36864650417E+02 -0.10518445386E+03 -0.93337785407E+02  0.14538869178E+03  0.17770000000E+01 0.  1.
</event>
<event>
 7    1  0.2808731E-007  0.3650000E+03  0.7546771E-02  0.9765871E-01
        -11   -1    0    0    0    0  0.00000000000E+00  0.00000000000E+00  0.18250000000E+03  0.18250000000E+03  0.00000000000E+00 0. -1.
         11   -1    0    0    0    0 -0.00000000000E+00 -0.00000000000E+00 -0.18250000000E+03  0.18250000000E+03  0.00000000000E+00 0.  1.
         23    2    1    2    0    0 -0.10588619598E+03 -0.37250663510E+02 -0.78597755887E+02  0.16232277335E+03  0.87014809578E+02 0.  0.
        -11    1    3    3    0    0 -0.63513522082E+02  0.17207179339E+02 -0.64002570126E+02  0.91795334798E+02  0.00000000000E+00 0.  1.
         11    1    3    3    0    0 -0.42372673894E+02 -0.54457842848E+02 -0.14595185762E+02  0.70527438547E+02  0.00000000000E+00 0. -1.
        -15    1    1    2    0    0  0.40523205559E+02  0.28510475829E+02 -0.42155905330E+02  0.65078840678E+02  0.17770000000E+01 0. -1.
         15    1    1    2    0    0  0.65362990417E+02  0.87401876805E+01  0.12075366122E+03  0.13759838598E+03  0.17770000000E+01 0.  1.
</event>
<event>
 7    1  0.2808731E-007  0.2429425E+03  0.7546771E-02  0.1028483E+00
        -11   -1    0    0    0    0  0.00000000000E+00  0.00000000000E+00  0.18250000000E+03  0.18250000000E+03  0.00000000000E+00 0. -1.
         11   -1    0    0    0    0 -0.00000000000E+00 -0.00000000000E+00 -0.18250000000E+03  0.18250000000E+03  0.00000000000E+00 0.  1.
         23    2    1    2    0    0  0.59457731888E+02 -0.18837100335E+02  0.53380114842E+02  0.12205753157E+03  0.90324670621E+02 0.  0.
        -11    1    3    3    0    0  0.26962063363E+02  0.14975561507E+02 -0.18697295258E+02  0.36066731946E+02  0.00000000000E+00 0.  1.
         11    1    3    3    0    0  0.32495668524E+02 -0.33812661842E+02  0.72077410101E+02  0.85990799627E+02  0.00000000000E+00 0. -1.
        -15    1    1    2    0    0 -0.61103092822E+02 -0.10032511383E+03 -0.32976432421E+02  0.12202179822E+03  0.17770000000E+01 0. -1.
         15    1    1    2    0    0  0.16453609343E+01  0.11916221416E+03 -0.20403682421E+02  0.12092067020E+03  0.17770000000E+01 0.  1.
</event>
<event>
 7    1  0.2808731E-007  0.3650000E+03  0.7546771E-02  0.9765871E-01
        -11   -1    0    0    0    0  0.00000000000E+00  0.00000000000E+00  0.18250000000E+03  0.18250000000E+03  0.00000000000E+00 0. -1.
         11   -1    0    0    0    0 -0.00000000000E+00 -0.00000000000E+00 -0.18250000000E+03  0.18250000000E+03  0.00000000000E+00 0.  1.
         23    2    1    2    0    0 -0.26684998082E+01 -0.42166935551E+02  0.33310181221E+01  0.99982360260E+02  0.90554985155E+02 0.  0.
        -11    1    3    3    0    0 -0.25922518382E+02  0.20467636560E+02 -0.84967302703E+00  0.33039719276E+02  0.00000000000E+00 0. -1.
         11    1    3    3    0    0  0.23254018574E+02 -0.62634572111E+02  0.41806911491E+01  0.66942640983E+02  0.00000000000E+00 0.  1.
        -15    1    1    2    0    0  0.38781078528E+02  0.14045180389E+03  0.40879236014E+02  0.15134381696E+03  0.17770000000E+01 0. -1.
         15    1    1    2    0    0 -0.36112578720E+02 -0.98284868334E+02 -0.44210254136E+02  0.11367382278E+03  0.17770000000E+01 0.  1.
</event>
<event>
 7    1  0.2808731E-007  0.1864010E+03  0.7546771E-02  0.1065391E+00
        -11   -1    0    0    0    0  0.00000000000E+00  0.00000000000E+00  0.18250000000E+03  0.18250000000E+03  0.00000000000E+00 0.  1.
         11   -1    0    0    0    0 -0.00000000000E+00 -0.00000000000E+00 -0.18250000000E+03  0.18250000000E+03  0.00000000000E+00 0. -1.
         23    2    1    2    0    0  0.35892817337E+01  0.13657239414E+03  0.87789451680E+02  0.18640101293E+03  0.91506546265E+02 0.  0.
        -11    1    3    3    0    0  0.17579737888E+02  0.13999731855E+03  0.56561774989E+02  0.15201161395E+03  0.00000000000E+00 0.  1.
         11    1    3    3    0    0 -0.13990456154E+02 -0.34249244089E+01  0.31227676691E+02  0.34389398979E+02  0.00000000000E+00 0. -1.
        -15    1    1    2    0    0  0.11313624896E+02 -0.13965335164E+03 -0.77285837576E+02  0.16002285822E+03  0.17770000000E+01 0. -1.
         15    1    1    2    0    0 -0.14902906629E+02  0.30809574997E+01 -0.10503614103E+02  0.18576128858E+02  0.17770000000E+01 0.  1.
</event>
<event>
 7    1  0.2808731E-007  0.1958040E+03  0.7546771E-02  0.1058332E+00
        -11   -1    0    0    0    0  0.00000000000E+00  0.00000000000E+00  0.18250000000E+03  0.18250000000E+03  0.00000000000E+00 0.  1.
         11   -1    0    0    0    0 -0.00000000000E+00 -0.00000000000E+00 -0.18250000000E+03  0.18250000000E+03  0.00000000000E+00 0. -1.
         23    2    1    2    0    0 -0.11047021983E+03  0.14249799951E+02  0.88933028678E+02  0.16919599487E+03  0.91167290316E+02 0.  0.
        -11    1    3    3    0    0 -0.10701722515E+03 -0.18186465851E+02  0.81497480756E+02  0.13573972664E+03  0.00000000000E+00 0.  1.
         11    1    3    3    0    0 -0.34529946843E+01  0.32436265801E+02  0.74355479223E+01  0.33456268237E+02  0.00000000000E+00 0. -1.
        -15    1    1    2    0    0  0.28643910258E+02 -0.34993692061E+01  0.35931948421E+02  0.46119213198E+02  0.17770000000E+01 0.  1.
         15    1    1    2    0    0  0.81826309572E+02 -0.10750430744E+02 -0.12486497710E+03  0.14968479193E+03  0.17770000000E+01 0. -1.
</event>
<event>
 7    1  0.2808731E-007  0.2080233E+03  0.7546771E-02  0.1049778E+00
        -11   -1    0    0    0    0  0.00000000000E+00  0.00000000000E+00  0.18250000000E+03  0.18250000000E+03  0.00000000000E+00 0. -1.
         11   -1    0    0    0    0 -0.00000000000E+00 -0.00000000000E+00 -0.18250000000E+03  0.18250000000E+03  0.00000000000E+00 0.  1.
         23    2    1    2    0    0 -0.43942303625E+02  0.79050137551E+01  0.11756990820E+03  0.15697673608E+03  0.93944648940E+02 0.  0.
        -11    1    3    3    0    0 -0.31739929400E+02  0.44208412887E+02  0.31770302375E+02  0.63017132601E+02  0.00000000000E+00 0.  1.
         11    1    3    3    0    0 -0.12202374225E+02 -0.36303399132E+02  0.85799605829E+02  0.93959603477E+02  0.00000000000E+00 0. -1.
        -15    1    1    2    0    0 -0.60411713953E+02 -0.23536485990E+02 -0.56981920576E+02  0.86334456372E+02  0.17770000000E+01 0. -1.
         15    1    1    2    0    0  0.10435401758E+03  0.15631472235E+02 -0.60587987628E+02  0.12168880755E+03  0.17770000000E+01 0.  1.
</event>
<event>
 7    1  0.4545859E-007  0.3650000E+03  0.7546771E-02  0.9765871E-01
        -11   -1    0    0    0    0  0.00000000000E+00  0.00000000000E+00  0.18250000000E+03  0.18250000000E+03  0.00000000000E+00 0.  1.
         11   -1    0    0    0    0 -0.00000000000E+00 -0.00000000000E+00 -0.18250000000E+03  0.18250000000E+03  0.00000000000E+00 0. -1.
         23    2    1    2    0    0 -0.25868515981E+01  0.24488438171E+02 -0.10989664839E+03  0.14369968650E+03  0.89252177380E+02 0.  0.
        -11    1    3    3    0    0 -0.86505721098E+01  0.57166505345E+02 -0.56739232333E+02  0.81007297307E+02  0.00000000000E+00 0.  1.
         11    1    3    3    0    0  0.60637205117E+01 -0.32678067174E+02 -0.53157416057E+02  0.62692389191E+02  0.00000000000E+00 0. -1.
        -15    1    1    2    0    0 -0.60912062355E+02  0.11344230170E+02  0.13138059178E+03  0.14526867702E+03  0.17770000000E+01 0.  1.
         15    1    1    2    0    0  0.63498913953E+02 -0.35832668341E+02 -0.21483943387E+02  0.76031636482E+02  0.17770000000E+01 0. -1.
</event>
<event>
 7    1  0.2808731E-007  0.1903348E+03  0.7546771E-02  0.1062384E+00
        -11   -1    0    0    0    0  0.00000000000E+00  0.00000000000E+00  0.18250000000E+03  0.18250000000E+03  0.00000000000E+00 0. -1.
         11   -1    0    0    0    0 -0.00000000000E+00 -0.00000000000E+00 -0.18250000000E+03  0.18250000000E+03  0.00000000000E+00 0.  1.
         23    2    1    2    0    0 -0.72514801069E+02 -0.80966741779E+02 -0.10280900935E+03  0.17466520292E+03  0.90134516463E+02 0.  0.
        -11    1    3    3    0    0 -0.78420786179E+02 -0.95093255610E+02 -0.10079148628E+03  0.15922145167E+03  0.00000000000E+00 0.  1.
         11    1    3    3    0    0  0.59059851097E+01  0.14126513831E+02 -0.20175230765E+01  0.15443751244E+02  0.00000000000E+00 0. -1.
        -15    1    1    2    0    0  0.81977203928E+02  0.46208759013E+02  0.11822182960E+03  0.15111277277E+03  0.17770000000E+01 0. -1.
         15    1    1    2    0    0 -0.94624028586E+01  0.34757982766E+02 -0.15412820244E+02  0.39222024307E+02  0.17770000000E+01 0.  1.
</event>
<event>
 7    1  0.2808731E-007  0.3650000E+03  0.7546771E-02  0.9765871E-01
        -11   -1    0    0    0    0  0.00000000000E+00  0.00000000000E+00  0.18250000000E+03  0.18250000000E+03  0.00000000000E+00 0.  1.
         11   -1    0    0    0    0 -0.00000000000E+00 -0.00000000000E+00 -0.18250000000E+03  0.18250000000E+03  0.00000000000E+00 0. -1.
         23    2    1    2    0    0  0.50874215456E+02 -0.22172669111E+02  0.17580719269E+01  0.10678166098E+03  0.91210850507E+02 0.  0.
        -11    1    3    3    0    0  0.12027232025E+01  0.53954967581E+01 -0.37385948529E+02  0.37792420877E+02  0.00000000000E+00 0. -1.
         11    1    3    3    0    0  0.49671492253E+02 -0.27568165869E+02  0.39144020456E+02  0.68989240099E+02  0.00000000000E+00 0.  1.
        -15    1    1    2    0    0  0.23914800659E+02 -0.10659777672E+03 -0.25675301823E+01  0.10929205658E+03  0.17770000000E+01 0.  1.
         15    1    1    2    0    0 -0.74789016114E+02  0.12877044583E+03  0.80945825538E+00  0.14892628244E+03  0.17770000000E+01 0. -1.
</event>
<event>
 7    1  0.2808731E-007  0.3650000E+03  0.7546771E-02  0.9765871E-01
        -11   -1    0    0    0    0  0.00000000000E+00  0.00000000000E+00  0.18250000000E+03  0.18250000000E+03  0.00000000000E+00 0. -1.
         11   -1    0    0    0    0 -0.00000000000E+00 -0.00000000000E+00 -0.18250000000E+03  0.18250000000E+03  0.00000000000E+00 0.  1.
         23    2    1    2    0    0 -0.65572647040E+02 -0.49315561779E+02  0.44013013876E+02  0.12802526370E+03  0.87872214507E+02 0.  0.
        -11    1    3    3    0    0 -0.64898176941E+02 -0.72046658272E+01  0.54009287892E+02  0.84738915255E+02  0.00000000000E+00 0. -1.
         11    1    3    3    0    0 -0.67447009856E+00 -0.42110895952E+02 -0.99962740157E+01  0.43286348448E+02  0.00000000000E+00 0.  1.
        -15    1    1    2    0    0  0.92871749569E+02  0.12206996801E+03 -0.42742243385E+02  0.15923660401E+03  0.17770000000E+01 0. -1.
         15    1    1    2    0    0 -0.27299102529E+02 -0.72754406231E+02 -0.12707704916E+01  0.77738132287E+02  0.17770000000E+01 0.  1.
</event>
<event>
 7    1  0.2808731E-007  0.3650000E+03  0.7546771E-02  0.9765871E-01
        -11   -1    0    0    0    0  0.00000000000E+00  0.00000000000E+00  0.18250000000E+03  0.18250000000E+03  0.00000000000E+00 0.  1.
         11   -1    0    0    0    0 -0.00000000000E+00 -0.00000000000E+00 -0.18250000000E+03  0.18250000000E+03  0.00000000000E+00 0. -1.
         23    2    1    2    0    0 -0.40816477820E+02  0.71417829157E+01  0.61435035605E+02  0.11746295526E+03  0.91138862919E+02 0.  0.
        -11    1    3    3    0    0  0.12170724587E+02  0.37168515701E+02  0.26628816355E+02  0.47315102841E+02  0.00000000000E+00 0. -1.
         11    1    3    3    0    0 -0.52987202407E+02 -0.30026732785E+02  0.34806219250E+02  0.70147852420E+02  0.00000000000E+00 0.  1.
        -15    1    1    2    0    0 -0.97374910414E+02 -0.27381720071E+01 -0.31461906379E+01  0.97480392944E+02  0.17770000000E+01 0.  1.
         15    1    1    2    0    0  0.13819138823E+03 -0.44036109086E+01 -0.58288844968E+02  0.15005665179E+03  0.17770000000E+01 0. -1.
</event>
<event>
 7    1  0.2808731E-007  0.2448457E+03  0.7546771E-02  0.1027435E+00
        -11   -1    0    0    0    0  0.00000000000E+00  0.00000000000E+00  0.18250000000E+03  0.18250000000E+03  0.00000000000E+00 0. -1.
         11   -1    0    0    0    0 -0.00000000000E+00 -0.00000000000E+00 -0.18250000000E+03  0.18250000000E+03  0.00000000000E+00 0.  1.
         23    2    1    2    0    0 -0.13272558438E+02 -0.46031773911E+02 -0.62302327947E+02  0.12015428904E+03  0.90886677193E+02 0.  0.
        -11    1    3    3    0    0  0.34708579863E+02 -0.25666708925E+02 -0.51003995492E+02  0.66819705322E+02  0.00000000000E+00 0. -1.
         11    1    3    3    0    0 -0.47981138301E+02 -0.20365064986E+02 -0.11298332456E+02  0.53334583722E+02  0.00000000000E+00 0.  1.
        -15    1    1    2    0    0  0.92429970095E+02 -0.50637488370E+02  0.56874346416E+02  0.11977188155E+03  0.17770000000E+01 0. -1.
         15    1    1    2    0    0 -0.79157411658E+02  0.96669262281E+02  0.54279815313E+01  0.12507382941E+03  0.17770000000E+01 0.  1.
</event>
<event>
 7    1  0.2808731E-007  0.2049605E+03  0.7546771E-02  0.1051861E+00
        -11   -1    0    0    0    0  0.00000000000E+00  0.00000000000E+00  0.18250000000E+03  0.18250000000E+03  0.00000000000E+00 0. -1.
         11   -1    0    0    0    0 -0.00000000000E+00 -0.00000000000E+00 -0.18250000000E+03  0.18250000000E+03  0.00000000000E+00 0.  1.
         23    2    1    2    0    0 -0.57485618601E+02 -0.10363505039E+03 -0.52855275173E+02  0.16003952123E+03  0.93670423435E+02 0.  0.
        -11    1    3    3    0    0 -0.19301815287E+02 -0.32107067124E+02 -0.67923497283E+02  0.77569487015E+02  0.00000000000E+00 0.  1.
         11    1    3    3    0    0 -0.38183803314E+02 -0.71527983267E+02  0.15068222111E+02  0.82470034215E+02  0.00000000000E+00 0. -1.
        -15    1    1    2    0    0 -0.26150754592E+02  0.11090918589E+03  0.27327038750E+02  0.11719485593E+03  0.17770000000E+01 0. -1.
         15    1    1    2    0    0  0.83636373193E+02 -0.72741355021E+01  0.25528236423E+02  0.87765622837E+02  0.17770000000E+01 0.  1.
</event>
<event>
 7    1  0.2808731E-007  0.3650000E+03  0.7546771E-02  0.9765871E-01
        -11   -1    0    0    0    0  0.00000000000E+00  0.00000000000E+00  0.18250000000E+03  0.18250000000E+03  0.00000000000E+00 0. -1.
         11   -1    0    0    0    0 -0.00000000000E+00 -0.00000000000E+00 -0.18250000000E+03  0.18250000000E+03  0.00000000000E+00 0.  1.
         23    2    1    2    0    0 -0.61290615569E+02  0.15402821115E+02 -0.90252836343E+02  0.14318258185E+03  0.91443374944E+02 0.  0.
        -11    1    3    3    0    0 -0.51754563563E+01 -0.33292093663E+02 -0.13317200702E+02  0.36228396093E+02  0.00000000000E+00 0. -1.
         11    1    3    3    0    0 -0.56115159212E+02  0.48694914777E+02 -0.76935635641E+02  0.10695418575E+03  0.00000000000E+00 0.  1.
        -15    1    1    2    0    0  0.10404388508E+03 -0.74339644534E+02  0.42656485278E+02  0.13481189205E+03  0.17770000000E+01 0. -1.
         15    1    1    2    0    0 -0.42753269515E+02  0.58936823419E+02  0.47596351065E+02  0.87005526104E+02  0.17770000000E+01 0.  1.
</event>
<event>
 7    1  0.2808731E-007  0.2019111E+03  0.7546771E-02  0.1053974E+00
        -11   -1    0    0    0    0  0.00000000000E+00  0.00000000000E+00  0.18250000000E+03  0.18250000000E+03  0.00000000000E+00 0.  1.
         11   -1    0    0    0    0 -0.00000000000E+00 -0.00000000000E+00 -0.18250000000E+03  0.18250000000E+03  0.00000000000E+00 0. -1.
         23    2    1    2    0    0  0.18896090985E+02  0.57259069760E+01 -0.13360062037E+03  0.16308886992E+03  0.91427596845E+02 0.  0.
        -11    1    3    3    0    0  0.29264030686E+02 -0.27477882309E+02 -0.11859652230E+03  0.12520604063E+03  0.00000000000E+00 0.  1.
         11    1    3    3    0    0 -0.10367939701E+02  0.33203789285E+02 -0.15004098067E+02  0.37882829294E+02  0.00000000000E+00 0. -1.
        -15    1    1    2    0    0 -0.72619486687E+02 -0.72717292317E+01  0.12863498373E+03  0.14790735161E+03  0.17770000000E+01 0.  1.
         15    1    1    2    0    0  0.53723395702E+02  0.15458222556E+01  0.49656366368E+01  0.54003778464E+02  0.17770000000E+01 0. -1.
</event>
<event>
 7    1  0.2808731E-007  0.3650000E+03  0.7546771E-02  0.9765871E-01
        -11   -1    0    0    0    0  0.00000000000E+00  0.00000000000E+00  0.18250000000E+03  0.18250000000E+03  0.00000000000E+00 0.  1.
         11   -1    0    0    0    0 -0.00000000000E+00 -0.00000000000E+00 -0.18250000000E+03  0.18250000000E+03  0.00000000000E+00 0. -1.
         23    2    1    2    0    0  0.33633397568E+02  0.14763440721E+02  0.43861405402E+02  0.10607889554E+03  0.89329416098E+02 0.  0.
        -11    1    3    3    0    0  0.51104660608E+01  0.23755567924E+02  0.65041162502E+02  0.69431957270E+02  0.00000000000E+00 0.  1.
         11    1    3    3    0    0  0.28522931507E+02 -0.89921272035E+01 -0.21179757101E+02  0.36646938265E+02  0.00000000000E+00 0. -1.
        -15    1    1    2    0    0 -0.32205217066E+02  0.33228502359E+02  0.98407168341E+02  0.10875862212E+03  0.17770000000E+01 0.  1.
         15    1    1    2    0    0 -0.14281805022E+01 -0.47991943080E+02 -0.14226857374E+03  0.15016248234E+03  0.17770000000E+01 0. -1.
</event>
<event>
 7    1  0.2808731E-007  0.3650000E+03  0.7546771E-02  0.9765871E-01
        -11   -1    0    0    0    0  0.00000000000E+00  0.00000000000E+00  0.18250000000E+03  0.18250000000E+03  0.00000000000E+00 0. -1.
         11   -1    0    0    0    0 -0.00000000000E+00 -0.00000000000E+00 -0.18250000000E+03  0.18250000000E+03  0.00000000000E+00 0.  1.
         23    2    1    2    0    0  0.50307568096E+02  0.82105431309E+02 -0.83092851087E+02  0.15684315361E+03  0.91777991224E+02 0.  0.
        -11    1    3    3    0    0 -0.26301491227E+02  0.18864267053E+02 -0.30347326671E+02  0.44368786869E+02  0.00000000000E+00 0. -1.
         11    1    3    3    0    0  0.76609059323E+02  0.63241164256E+02 -0.52745524416E+02  0.11247436674E+03  0.00000000000E+00 0.  1.
        -15    1    1    2    0    0 -0.56859145552E+02 -0.26972792669E+02  0.12406980326E+03  0.13912932037E+03  0.17770000000E+01 0. -1.
         15    1    1    2    0    0  0.65515774562E+01 -0.55132638639E+02 -0.40976952172E+02  0.69027526023E+02  0.17770000000E+01 0.  1.
</event>
<event>
 7    1  0.2808731E-007  0.2529915E+03  0.7546771E-02  0.1023065E+00
        -11   -1    0    0    0    0  0.00000000000E+00  0.00000000000E+00  0.18250000000E+03  0.18250000000E+03  0.00000000000E+00 0. -1.
         11   -1    0    0    0    0 -0.00000000000E+00 -0.00000000000E+00 -0.18250000000E+03  0.18250000000E+03  0.00000000000E+00 0.  1.
         23    2    1    2    0    0 -0.19223270685E+02 -0.60523892560E+02  0.14786464944E+02  0.11200846061E+03  0.91074584793E+02 0.  0.
        -11    1    3    3    0    0 -0.23129828544E+02 -0.53199419781E+02  0.49535330765E+02  0.76281821082E+02  0.00000000000E+00 0. -1.
         11    1    3    3    0    0  0.39065578589E+01 -0.73244727792E+01 -0.34748865821E+02  0.35726639524E+02  0.00000000000E+00 0.  1.
        -15    1    1    2    0    0  0.26702538345E+02  0.66426257129E+02  0.10812934913E+03  0.12969420597E+03  0.17770000000E+01 0. -1.
         15    1    1    2    0    0 -0.74792676602E+01 -0.59023645687E+01 -0.12291581407E+03  0.12329733343E+03  0.17770000000E+01 0.  1.
</event>
<event>
 7    1  0.2808731E-007  0.3650000E+03  0.7546771E-02  0.9765871E-01
        -11   -1    0    0    0    0  0.00000000000E+00  0.00000000000E+00  0.18250000000E+03  0.18250000000E+03  0.00000000000E+00 0.  1.
         11   -1    0    0    0    0 -0.00000000000E+00 -0.00000000000E+00 -0.18250000000E+03  0.18250000000E+03  0.00000000000E+00 0. -1.
         23    2    1    2    0    0  0.51231227644E+02  0.90082305000E+02  0.43289036906E+02  0.14519135572E+03  0.92017002233E+02 0.  0.
        -11    1    3    3    0    0  0.80360522736E+01 -0.56108427482E+01 -0.20231763268E+02  0.22480745927E+02  0.00000000000E+00 0. -1.
         11    1    3    3    0    0  0.43195175371E+02  0.95693147748E+02  0.63520800175E+02  0.12271060979E+03  0.00000000000E+00 0.  1.
        -15    1    1    2    0    0 -0.88222731861E+02  0.24876612724E+02 -0.51696734052E+00  0.91681629904E+02  0.17770000000E+01 0.  1.
         15    1    1    2    0    0  0.36991504216E+02 -0.11495891772E+03 -0.42772069566E+02  0.12812701437E+03  0.17770000000E+01 0. -1.
</event>
<event>
 7    1  0.2808731E-007  0.2610659E+03  0.7546771E-02  0.1018905E+00
        -11   -1    0    0    0    0  0.00000000000E+00  0.00000000000E+00  0.18250000000E+03  0.18250000000E+03  0.00000000000E+00 0. -1.
         11   -1    0    0    0    0 -0.00000000000E+00 -0.00000000000E+00 -0.18250000000E+03  0.18250000000E+03  0.00000000000E+00 0.  1.
         23    2    1    2    0    0 -0.17173019852E+02  0.46803165147E+02 -0.10037511082E+02  0.10393409619E+03  0.90642682235E+02 0.  0.
        -11    1    3    3    0    0 -0.33007648110E+02  0.59831627409E+02  0.16598276647E+02  0.70319494167E+02  0.00000000000E+00 0.  1.
         11    1    3    3    0    0  0.15834628258E+02 -0.13028462263E+02 -0.26635787729E+02  0.33614602020E+02  0.00000000000E+00 0. -1.
        -15    1    1    2    0    0  0.47696717470E+02  0.44620472594E+01  0.12371052753E+03  0.13267380703E+03  0.17770000000E+01 0. -1.
         15    1    1    2    0    0 -0.30523697618E+02 -0.51265212406E+02 -0.11367301644E+03  0.12839209678E+03  0.17770000000E+01 0.  1.
</event>
<event>
 7    1  0.2808731E-007  0.3650000E+03  0.7546771E-02  0.9765871E-01
        -11   -1    0    0    0    0  0.00000000000E+00  0.00000000000E+00  0.18250000000E+03  0.18250000000E+03  0.00000000000E+00 0. -1.
         11   -1    0    0    0    0 -0.00000000000E+00 -0.00000000000E+00 -0.18250000000E+03  0.18250000000E+03  0.00000000000E+00 0.  1.
         23    2    1    2    0    0 -0.52140576091E+02 -0.86654815993E+02 -0.87335926983E+01  0.13453467568E+03  0.88292731921E+02 0.  0.
        -11    1    3    3    0    0  0.16651847911E+02 -0.24356740845E+02  0.21962306190E+02  0.36781486601E+02  0.00000000000E+00 0. -1.
         11    1    3    3    0    0 -0.68792424002E+02 -0.62298075149E+02 -0.30695898888E+02  0.97753189083E+02  0.00000000000E+00 0.  1.
        -15    1    1    2    0    0  0.92723375249E+02  0.11521168786E+03 -0.47600038089E+02  0.15537142173E+03  0.17770000000E+01 0. -1.
         15    1    1    2    0    0 -0.40582799158E+02 -0.28556871864E+02  0.56333630788E+02  0.75093902582E+02  0.17770000000E+01 0.  1.
</event>
<event>
 7    1  0.2808731E-007  0.3650000E+03  0.7546771E-02  0.9765871E-01
        -11   -1    0    0    0    0  0.00000000000E+00  0.00000000000E+00  0.18250000000E+03  0.18250000000E+03  0.00000000000E+00 0. -1.
         11   -1    0    0    0    0 -0.00000000000E+00 -0.00000000000E+00 -0.18250000000E+03  0.18250000000E+03  0.00000000000E+00 0.  1.
         23    2    1    2    0    0  0.43704130869E+02 -0.34197238399E+02 -0.19472274815E+02  0.11067267798E+03  0.93753773230E+02 0.  0.
        -11    1    3    3    0    0  0.31618174359E+02  0.16511863480E+02 -0.40936796811E+02  0.54297070994E+02  0.00000000000E+00 0.  1.
         11    1    3    3    0    0  0.12085956510E+02 -0.50709101879E+02  0.21464521996E+02  0.56375606983E+02  0.00000000000E+00 0. -1.
        -15    1    1    2    0    0 -0.13265382929E+03  0.42078581584E+02  0.65531217316E+02  0.15383479328E+03  0.17770000000E+01 0. -1.
         15    1    1    2    0    0  0.88949698419E+02 -0.78813431849E+01 -0.46058942500E+02  0.10049252874E+03  0.17770000000E+01 0.  1.
</event>
<event>
 7    1  0.2808731E-007  0.2043652E+03  0.7546771E-02  0.1052270E+00
        -11   -1    0    0    0    0  0.00000000000E+00  0.00000000000E+00  0.18250000000E+03  0.18250000000E+03  0.00000000000E+00 0.  1.
         11   -1    0    0    0    0 -0.00000000000E+00 -0.00000000000E+00 -0.18250000000E+03  0.18250000000E+03  0.00000000000E+00 0. -1.
         23    2    1    2    0    0 -0.33025596756E+02 -0.12622385822E+03  0.21323714022E+02  0.16063477760E+03  0.91245156427E+02 0.  0.
        -11    1    3    3    0    0  0.27502433448E+02 -0.57893856194E+02  0.26151031560E+02  0.69223976209E+02  0.00000000000E+00 0. -1.
         11    1    3    3    0    0 -0.60528030204E+02 -0.68330002025E+02 -0.48273175375E+01  0.91410801395E+02  0.00000000000E+00 0.  1.
        -15    1    1    2    0    0  0.78555274306E+01 -0.36256242385E+02 -0.14267336241E+02  0.39786166383E+02  0.17770000000E+01 0.  1.
         15    1    1    2    0    0  0.25170069325E+02  0.16248010060E+03 -0.70563777811E+01  0.16457905601E+03  0.17770000000E+01 0. -1.
</event>
<event>
 7    1  0.2808731E-007  0.1913100E+03  0.7546771E-02  0.1061651E+00
        -11   -1    0    0    0    0  0.00000000000E+00  0.00000000000E+00  0.18250000000E+03  0.18250000000E+03  0.00000000000E+00 0. -1.
         11   -1    0    0    0    0 -0.00000000000E+00 -0.00000000000E+00 -0.18250000000E+03  0.18250000000E+03  0.00000000000E+00 0.  1.
         23    2    1    2    0    0  0.12562607270E+03  0.17327912396E+02  0.76091467633E+02  0.17368995072E+03  0.91083043671E+02 0.  0.
        -11    1    3    3    0    0  0.91538763867E+01 -0.29274649736E+02  0.14043710612E+02  0.33734616907E+02  0.00000000000E+00 0.  1.
         11    1    3    3    0    0  0.11647219631E+03  0.46602562133E+02  0.62047757020E+02  0.13995533381E+03  0.00000000000E+00 0. -1.
        -15    1    1    2    0    0 -0.78699799651E+02 -0.61324214200E+02 -0.12030681387E+02  0.10050976438E+03  0.17770000000E+01 0. -1.
         15    1    1    2    0    0 -0.46926273047E+02  0.43996301804E+02 -0.64060786246E+02  0.90800284900E+02  0.17770000000E+01 0.  1.
</event>
<event>
 7    1  0.2808731E-007  0.2042296E+03  0.7546771E-02  0.1052364E+00
        -11   -1    0    0    0    0  0.00000000000E+00  0.00000000000E+00  0.18250000000E+03  0.18250000000E+03  0.00000000000E+00 0.  1.
         11   -1    0    0    0    0 -0.00000000000E+00 -0.00000000000E+00 -0.18250000000E+03  0.18250000000E+03  0.00000000000E+00 0. -1.
         23    2    1    2    0    0 -0.46823175971E+01 -0.37594888651E+01 -0.13088141955E+03  0.16077036396E+03  0.93172453493E+02 0.  0.
        -11    1    3    3    0    0  0.21100492662E+02  0.88274418142E+01 -0.13007205691E+03  0.13206776484E+03  0.00000000000E+00 0.  1.
         11    1    3    3    0    0 -0.25782810259E+02 -0.12586930679E+02 -0.80936264187E+00  0.28702599127E+02  0.00000000000E+00 0. -1.
        -15    1    1    2    0    0  0.54835387599E+02  0.56777348361E+02  0.92963211261E+02  0.12196681269E+03  0.17770000000E+01 0.  1.
         15    1    1    2    0    0 -0.50153070002E+02 -0.53017859496E+02  0.37918208293E+02  0.82262823349E+02  0.17770000000E+01 0. -1.
</event>
<event>
 7    1  0.2808731E-007  0.3650000E+03  0.7546771E-02  0.9765871E-01
        -11   -1    0    0    0    0  0.00000000000E+00  0.00000000000E+00  0.18250000000E+03  0.18250000000E+03  0.00000000000E+00 0.  1.
         11   -1    0    0    0    0 -0.00000000000E+00 -0.00000000000E+00 -0.18250000000E+03  0.18250000000E+03  0.00000000000E+00 0. -1.
         23    2    1    2    0    0 -0.43571657845E+02  0.47502147280E+02  0.76091423981E+01  0.11220924146E+03  0.91531805713E+02 0.  0.
        -11    1    3    3    0    0 -0.32109413041E+02  0.64652499710E+02  0.33102960503E+02  0.79415150435E+02  0.00000000000E+00 0.  1.
         11    1    3    3    0    0 -0.11462244804E+02 -0.17150352430E+02 -0.25493818105E+02  0.32794091023E+02  0.00000000000E+00 0. -1.
        -15    1    1    2    0    0  0.11635077832E+03 -0.10413343003E+03  0.17680145952E+02  0.15715285602E+03  0.17770000000E+01 0.  1.
         15    1    1    2    0    0 -0.72779120480E+02  0.56631282750E+02 -0.25289288351E+02  0.95637902518E+02  0.17770000000E+01 0. -1.
</event>
<event>
 7    1  0.2808731E-007  0.3650000E+03  0.7546771E-02  0.9765871E-01
        -11   -1    0    0    0    0  0.00000000000E+00  0.00000000000E+00  0.18250000000E+03  0.18250000000E+03  0.00000000000E+00 0. -1.
         11   -1    0    0    0    0 -0.00000000000E+00 -0.00000000000E+00 -0.18250000000E+03  0.18250000000E+03  0.00000000000E+00 0.  1.
         23    2    1    2    0    0  0.26228529323E+02 -0.98050137088E+01 -0.87449398646E+02  0.13078862418E+03  0.93135346930E+02 0.  0.
        -11    1    3    3    0    0  0.44889794041E+02  0.49948634924E+00 -0.97411612644E+02  0.10725840468E+03  0.00000000000E+00 0.  1.
         11    1    3    3    0    0 -0.18661264717E+02 -0.10304500058E+02  0.99622139984E+01  0.23530219507E+02  0.00000000000E+00 0. -1.
        -15    1    1    2    0    0 -0.29378317142E+02  0.98223093894E+02  0.10188513188E+03  0.14454964379E+03  0.17770000000E+01 0. -1.
         15    1    1    2    0    0  0.31497878181E+01 -0.88418080185E+02 -0.14435733238E+02  0.89661732027E+02  0.17770000000E+01 0.  1.
</event>
<event>
 7    1  0.2808731E-007  0.2577161E+03  0.7546771E-02  0.1020611E+00
        -11   -1    0    0    0    0  0.00000000000E+00  0.00000000000E+00  0.18250000000E+03  0.18250000000E+03  0.00000000000E+00 0.  1.
         11   -1    0    0    0    0 -0.00000000000E+00 -0.00000000000E+00 -0.18250000000E+03  0.18250000000E+03  0.00000000000E+00 0. -1.
         23    2    1    2    0    0 -0.37608172848E+02  0.21241640484E+02  0.39280527817E+02  0.10728390749E+03  0.90007194077E+02 0.  0.
        -11    1    3    3    0    0 -0.48787043753E+02  0.23511243648E+02 -0.11393166750E+02  0.55342194252E+02  0.00000000000E+00 0. -1.
         11    1    3    3    0    0  0.11178870904E+02 -0.22696031643E+01  0.50673694567E+02  0.51941713240E+02  0.00000000000E+00 0.  1.
        -15    1    1    2    0    0 -0.55220534988E+02 -0.99278738462E+02  0.30698006780E+02  0.11769069948E+03  0.17770000000E+01 0. -1.
         15    1    1    2    0    0  0.92828707836E+02  0.78037097978E+02 -0.69978534597E+02  0.14002539303E+03  0.17770000000E+01 0.  1.
</event>
<event>
 7    1  0.2808731E-007  0.2495534E+03  0.7546771E-02  0.1024887E+00
        -11   -1    0    0    0    0  0.00000000000E+00  0.00000000000E+00  0.18250000000E+03  0.18250000000E+03  0.00000000000E+00 0.  1.
         11   -1    0    0    0    0 -0.00000000000E+00 -0.00000000000E+00 -0.18250000000E+03  0.18250000000E+03  0.00000000000E+00 0. -1.
         23    2    1    2    0    0 -0.25095889079E+02  0.33814702252E+02 -0.56994236056E+02  0.11544657918E+03  0.91139080333E+02 0.  0.
        -11    1    3    3    0    0 -0.55893704125E+02  0.45238273395E+01 -0.21445125026E+02  0.60037193155E+02  0.00000000000E+00 0. -1.
         11    1    3    3    0    0  0.30797815046E+02  0.29290874912E+02 -0.35549111030E+02  0.55409386026E+02  0.00000000000E+00 0.  1.
        -15    1    1    2    0    0  0.41096737348E+02 -0.12661649720E+03 -0.10703635253E+02  0.13356049086E+03  0.17770000000E+01 0.  1.
         15    1    1    2    0    0 -0.16000848269E+02  0.92801794947E+02  0.67697871309E+02  0.11599292995E+03  0.17770000000E+01 0. -1.
</event>
<event>
 7    1  0.2808731E-007  0.3650000E+03  0.7546771E-02  0.9765871E-01
        -11   -1    0    0    0    0  0.00000000000E+00  0.00000000000E+00  0.18250000000E+03  0.18250000000E+03  0.00000000000E+00 0. -1.
         11   -1    0    0    0    0 -0.00000000000E+00 -0.00000000000E+00 -0.18250000000E+03  0.18250000000E+03  0.00000000000E+00 0.  1.
         23    2    1    2    0    0 -0.46242256588E+01  0.60573964263E+02 -0.80239032704E+02  0.13710781055E+03  0.93111012961E+02 0.  0.
        -11    1    3    3    0    0  0.17201642513E+02 -0.16402737129E+02  0.35433019349E-01  0.23768625243E+02  0.00000000000E+00 0. -1.
         11    1    3    3    0    0 -0.21825868171E+02  0.76976701391E+02 -0.80274465724E+02  0.11333918531E+03  0.00000000000E+00 0.  1.
        -15    1    1    2    0    0 -0.40448959483E+02 -0.42451403040E+02  0.13944718032E+03  0.15128421521E+03  0.17770000000E+01 0. -1.
         15    1    1    2    0    0  0.45073185141E+02 -0.18122561223E+02 -0.59208147617E+02  0.76607974241E+02  0.17770000000E+01 0.  1.
</event>
<event>
 7    1  0.2808731E-007  0.2619106E+03  0.7546771E-02  0.1018479E+00
        -11   -1    0    0    0    0  0.00000000000E+00  0.00000000000E+00  0.18250000000E+03  0.18250000000E+03  0.00000000000E+00 0.  1.
         11   -1    0    0    0    0 -0.00000000000E+00 -0.00000000000E+00 -0.18250000000E+03  0.18250000000E+03  0.00000000000E+00 0. -1.
         23    2    1    2    0    0  0.35237289305E+02 -0.24492976713E+02  0.25951263053E+02  0.10308939848E+03  0.90068771276E+02 0.  0.
        -11    1    3    3    0    0  0.57543551014E+02  0.67420651440E+01  0.28608076419E+02  0.64615305788E+02  0.00000000000E+00 0. -1.
         11    1    3    3    0    0 -0.22306261709E+02 -0.31235041857E+02 -0.26568133664E+01  0.38474092692E+02  0.00000000000E+00 0.  1.
        -15    1    1    2    0    0 -0.19339126889E+02  0.32557882951E+02  0.11434992178E+03  0.12047024492E+03  0.17770000000E+01 0.  1.
         15    1    1    2    0    0 -0.15898162416E+02 -0.80649062380E+01 -0.14030118483E+03  0.14144035660E+03  0.17770000000E+01 0. -1.
</event>
<event>
 7    1  0.2808731E-007  0.3650000E+03  0.7546771E-02  0.9765871E-01
        -11   -1    0    0    0    0  0.00000000000E+00  0.00000000000E+00  0.18250000000E+03  0.18250000000E+03  0.00000000000E+00 0.  1.
         11   -1    0    0    0    0 -0.00000000000E+00 -0.00000000000E+00 -0.18250000000E+03  0.18250000000E+03  0.00000000000E+00 0. -1.
         23    2    1    2    0    0  0.63082587599E+01 -0.47223261005E+02  0.71340288571E+02  0.12649295141E+03  0.92958052231E+02 0.  0.
        -11    1    3    3    0    0 -0.37102337290E+02 -0.88392052276E+01  0.53803121976E+02  0.65950670321E+02  0.00000000000E+00 0.  1.
         11    1    3    3    0    0  0.43410596050E+02 -0.38384055778E+02  0.17537166595E+02  0.60542281089E+02  0.00000000000E+00 0. -1.
        -15    1    1    2    0    0  0.30641144227E+02 -0.17165547182E+02  0.70286444286E+02  0.78593114896E+02  0.17770000000E+01 0.  1.
         15    1    1    2    0    0 -0.36949402987E+02  0.64388808187E+02 -0.14162673286E+03  0.15991393369E+03  0.17770000000E+01 0. -1.
</event>
<event>
 7    1  0.2808731E-007  0.2423997E+03  0.7546771E-02  0.1028784E+00
        -11   -1    0    0    0    0  0.00000000000E+00  0.00000000000E+00  0.18250000000E+03  0.18250000000E+03  0.00000000000E+00 0.  1.
         11   -1    0    0    0    0 -0.00000000000E+00 -0.00000000000E+00 -0.18250000000E+03  0.18250000000E+03  0.00000000000E+00 0. -1.
         23    2    1    2    0    0 -0.82316084023E+01  0.73673691501E+02  0.30154420897E+02  0.12260033661E+03  0.92876160775E+02 0.  0.
        -11    1    3    3    0    0  0.26519684175E+02  0.77267984037E+02  0.10092948970E+02  0.82313441337E+02  0.00000000000E+00 0.  1.
         11    1    3    3    0    0 -0.34751292577E+02 -0.35942925358E+01  0.20061471927E+02  0.40286895270E+02  0.00000000000E+00 0. -1.
        -15    1    1    2    0    0 -0.10602411652E+03 -0.56658604743E+02  0.86243294842E+01  0.12053566926E+03  0.17770000000E+01 0.  1.
         15    1    1    2    0    0  0.11425572493E+03 -0.17015086758E+02 -0.38778750381E+02  0.12186399413E+03  0.17770000000E+01 0. -1.
</event>
<event>
 7    1  0.2808731E-007  0.3650000E+03  0.7546771E-02  0.9765871E-01
        -11   -1    0    0    0    0  0.00000000000E+00  0.00000000000E+00  0.18250000000E+03  0.18250000000E+03  0.00000000000E+00 0.  1.
         11   -1    0    0    0    0 -0.00000000000E+00 -0.00000000000E+00 -0.18250000000E+03  0.18250000000E+03  0.00000000000E+00 0. -1.
         23    2    1    2    0    0  0.92967189881E+02 -0.40460854882E+02  0.45864763113E+02  0.14398342600E+03  0.91365591421E+02 0.  0.
        -11    1    3    3    0    0  0.46496967755E+02 -0.24008099400E+02  0.71354727535E+02  0.88486462178E+02  0.00000000000E+00 0.  1.
         11    1    3    3    0    0  0.46470222125E+02 -0.16452755482E+02 -0.25489964423E+02  0.55496963823E+02  0.00000000000E+00 0. -1.
        -15    1    1    2    0    0  0.24578901692E+02 -0.55080311786E+02  0.65999462695E+01  0.60701566492E+02  0.17770000000E+01 0.  1.
         15    1    1    2    0    0 -0.11754609157E+03  0.95541166668E+02 -0.52464709382E+02  0.16031500751E+03  0.17770000000E+01 0. -1.
</event>
<event>
 7    1  0.2808731E-007  0.2429421E+03  0.7546771E-02  0.1028483E+00
        -11   -1    0    0    0    0  0.00000000000E+00  0.00000000000E+00  0.18250000000E+03  0.18250000000E+03  0.00000000000E+00 0.  1.
         11   -1    0    0    0    0 -0.00000000000E+00 -0.00000000000E+00 -0.18250000000E+03  0.18250000000E+03  0.00000000000E+00 0. -1.
         23    2    1    2    0    0  0.56636769865E+02  0.45924982744E+02  0.32382296240E+02  0.12205786508E+03  0.92372515270E+02 0.  0.
        -11    1    3    3    0    0 -0.30206962546E+01  0.49951704889E+02  0.36776803094E+02  0.62103386969E+02  0.00000000000E+00 0. -1.
         11    1    3    3    0    0  0.59657466120E+02 -0.40267221456E+01 -0.43945068543E+01  0.59954478111E+02  0.00000000000E+00 0.  1.
        -15    1    1    2    0    0 -0.11644406899E+03  0.42533215854E+02 -0.51852395973E+02  0.13438796208E+03  0.17770000000E+01 0.  1.
         15    1    1    2    0    0  0.59807299130E+02 -0.88458198598E+02  0.19470099733E+02  0.10855417284E+03  0.17770000000E+01 0. -1.
</event>
<event>
 7    1  0.2808731E-007  0.2354976E+03  0.7546771E-02  0.1032683E+00
        -11   -1    0    0    0    0  0.00000000000E+00  0.00000000000E+00  0.18250000000E+03  0.18250000000E+03  0.00000000000E+00 0.  1.
         11   -1    0    0    0    0 -0.00000000000E+00 -0.00000000000E+00 -0.18250000000E+03  0.18250000000E+03  0.00000000000E+00 0. -1.
         23    2    1    2    0    0 -0.80505989425E+02 -0.46600115679E+02 -0.14916151814E+00  0.12950239780E+03  0.90100297844E+02 0.  0.
        -11    1    3    3    0    0  0.17173374113E+02 -0.15016174530E+02 -0.12650493163E+02  0.26085345564E+02  0.00000000000E+00 0. -1.
         11    1    3    3    0    0 -0.97679363538E+02 -0.31583941148E+02  0.12501331645E+02  0.10341705223E+03  0.00000000000E+00 0.  1.
        -15    1    1    2    0    0  0.60799821456E+02 -0.69256919450E+02  0.53330401486E+02  0.10649144863E+03  0.17770000000E+01 0.  1.
         15    1    1    2    0    0  0.19706167970E+02  0.11585703513E+03 -0.53181239968E+02  0.12900615357E+03  0.17770000000E+01 0. -1.
</event>
<event>
 7    1  0.2808731E-007  0.2283258E+03  0.7546771E-02  0.1036892E+00
        -11   -1    0    0    0    0  0.00000000000E+00  0.00000000000E+00  0.18250000000E+03  0.18250000000E+03  0.00000000000E+00 0.  1.
         11   -1    0    0    0    0 -0.00000000000E+00 -0.00000000000E+00 -0.18250000000E+03  0.18250000000E+03  0.00000000000E+00 0. -1.
         23    2    1    2    0    0  0.95268331210E+02  0.93930502618E+01 -0.32723409530E+02  0.13667417931E+03  0.91895187218E+02 0.  0.
        -11    1    3    3    0    0  0.99738366851E+02  0.18057239598E+02 -0.52849962498E+02  0.11431064806E+03  0.00000000000E+00 0. -1.
         11    1    3    3    0    0 -0.44700356412E+01 -0.86641893365E+01  0.20126552968E+02  0.22363531248E+02  0.00000000000E+00 0.  1.
        -15    1    1    2    0    0 -0.59921238056E+02  0.88296885886E+02  0.57896106516E+02  0.12141668628E+03  0.17770000000E+01 0.  1.
         15    1    1    2    0    0 -0.35347093154E+02 -0.97689936148E+02 -0.25172696986E+02  0.10690913442E+03  0.17770000000E+01 0. -1.
</event>
<event>
 7    1  0.2808731E-007  0.3650000E+03  0.7546771E-02  0.9765871E-01
        -11   -1    0    0    0    0  0.00000000000E+00  0.00000000000E+00  0.18250000000E+03  0.18250000000E+03  0.00000000000E+00 0.  1.
         11   -1    0    0    0    0 -0.00000000000E+00 -0.00000000000E+00 -0.18250000000E+03  0.18250000000E+03  0.00000000000E+00 0. -1.
         23    2    1    2    0    0 -0.11664194553E+02 -0.70607135491E+02 -0.14305238026E+02  0.11672869948E+03  0.91101747686E+02 0.  0.
        -11    1    3    3    0    0  0.29523306447E+02 -0.34263728601E+02 -0.35861684554E+02  0.57720786032E+02  0.00000000000E+00 0. -1.
         11    1    3    3    0    0 -0.41187501000E+02 -0.36343406891E+02  0.21556446527E+02  0.59007913452E+02  0.00000000000E+00 0.  1.
        -15    1    1    2    0    0  0.19164008884E+02  0.14756179378E+03  0.57679731129E+02  0.15959903299E+03  0.17770000000E+01 0.  1.
         15    1    1    2    0    0 -0.74998143315E+01 -0.76954658287E+02 -0.43374493103E+02  0.88672267525E+02  0.17770000000E+01 0. -1.
</event>
<event>
 7    1  0.2808731E-007  0.3650000E+03  0.7546771E-02  0.9765871E-01
        -11   -1    0    0    0    0  0.00000000000E+00  0.00000000000E+00  0.18250000000E+03  0.18250000000E+03  0.00000000000E+00 0.  1.
         11   -1    0    0    0    0 -0.00000000000E+00 -0.00000000000E+00 -0.18250000000E+03  0.18250000000E+03  0.00000000000E+00 0. -1.
         23    2    1    2    0    0  0.12242905127E+02  0.94396372125E+02  0.69759846892E+02  0.14932068150E+03  0.91485878092E+02 0.  0.
        -11    1    3    3    0    0 -0.79422137902E+00  0.70692217805E+02  0.90780278793E+02  0.11506119878E+03  0.00000000000E+00 0.  1.
         11    1    3    3    0    0  0.13037126506E+02  0.23704154321E+02 -0.21020431901E+02  0.34259482730E+02  0.00000000000E+00 0. -1.
        -15    1    1    2    0    0  0.48492583056E+02  0.12367103668E+02  0.29170435602E+02  0.57952980138E+02  0.17770000000E+01 0.  1.
         15    1    1    2    0    0 -0.60735488183E+02 -0.10676347579E+03 -0.98930282494E+02  0.15772633836E+03  0.17770000000E+01 0. -1.
</event>
<event>
 7    1  0.2808731E-007  0.3650000E+03  0.7546771E-02  0.9765871E-01
        -11   -1    0    0    0    0  0.00000000000E+00  0.00000000000E+00  0.18250000000E+03  0.18250000000E+03  0.00000000000E+00 0. -1.
         11   -1    0    0    0    0 -0.00000000000E+00 -0.00000000000E+00 -0.18250000000E+03  0.18250000000E+03  0.00000000000E+00 0.  1.
         23    2    1    2    0    0  0.71194591463E+02 -0.58667667294E+02  0.66431978343E+02  0.14641875101E+03  0.92275012125E+02 0.  0.
        -11    1    3    3    0    0 -0.20042868713E+02 -0.58498024629E+01 -0.16160086369E+01  0.20941543854E+02  0.00000000000E+00 0.  1.
         11    1    3    3    0    0  0.91237460176E+02 -0.52817864831E+02  0.68047986980E+02  0.12547720716E+03  0.00000000000E+00 0. -1.
        -15    1    1    2    0    0  0.20579274836E+02 -0.56884785959E+02 -0.15584754252E+02  0.62493421417E+02  0.17770000000E+01 0. -1.
         15    1    1    2    0    0 -0.91773866299E+02  0.11555245325E+03 -0.50847224091E+02  0.15608782757E+03  0.17770000000E+01 0.  1.
</event>
<event>
 7    1  0.2808731E-007  0.2335082E+03  0.7546771E-02  0.1033834E+00
        -11   -1    0    0    0    0  0.00000000000E+00  0.00000000000E+00  0.18250000000E+03  0.18250000000E+03  0.00000000000E+00 0.  1.
         11   -1    0    0    0    0 -0.00000000000E+00 -0.00000000000E+00 -0.18250000000E+03  0.18250000000E+03  0.00000000000E+00 0. -1.
         23    2    1    2    0    0  0.53055037490E+01  0.25386743751E+02  0.89440791398E+02  0.13149184718E+03  0.92832190428E+02 0.  0.
        -11    1    3    3    0    0 -0.83356650930E+01 -0.33640544562E+02  0.42570975988E+02  0.54894968326E+02  0.00000000000E+00 0. -1.
         11    1    3    3    0    0  0.13641168842E+02  0.59027288314E+02  0.46869815411E+02  0.76596878851E+02  0.00000000000E+00 0.  1.
        -15    1    1    2    0    0  0.87094813671E+02  0.17061743364E+02 -0.97050535818E+02  0.13152404300E+03  0.17770000000E+01 0.  1.
         15    1    1    2    0    0 -0.92400317420E+02 -0.42448487115E+02  0.76097444193E+01  0.10198410983E+03  0.17770000000E+01 0. -1.
</event>
<event>
 7    1  0.2808731E-007  0.2586903E+03  0.7546771E-02  0.1020112E+00
        -11   -1    0    0    0    0  0.00000000000E+00  0.00000000000E+00  0.18250000000E+03  0.18250000000E+03  0.00000000000E+00 0.  1.
         11   -1    0    0    0    0 -0.00000000000E+00 -0.00000000000E+00 -0.18250000000E+03  0.18250000000E+03  0.00000000000E+00 0. -1.
         23    2    1    2    0    0  0.47248419546E+02 -0.21307383749E+02  0.20449621891E+02  0.10630969923E+03  0.90538098958E+02 0.  0.
        -11    1    3    3    0    0  0.57183210295E+01 -0.51600614386E+02  0.29205320597E+01  0.51998577941E+02  0.00000000000E+00 0.  1.
         11    1    3    3    0    0  0.41530098516E+02  0.30293230637E+02  0.17529089831E+02  0.54311121288E+02  0.00000000000E+00 0. -1.
        -15    1    1    2    0    0 -0.10067502678E+03 -0.44267222590E+02 -0.95447840137E+02  0.14563137000E+03  0.17770000000E+01 0.  1.
         15    1    1    2    0    0  0.53426607235E+02  0.65574606339E+02  0.74998218246E+02  0.11305893077E+03  0.17770000000E+01 0. -1.
</event>
<event>
 7    1  0.2808731E-007  0.2031417E+03  0.7546771E-02  0.1053117E+00
        -11   -1    0    0    0    0  0.00000000000E+00  0.00000000000E+00  0.18250000000E+03  0.18250000000E+03  0.00000000000E+00 0.  1.
         11   -1    0    0    0    0 -0.00000000000E+00 -0.00000000000E+00 -0.18250000000E+03  0.18250000000E+03  0.00000000000E+00 0. -1.
         23    2    1    2    0    0 -0.33027802312E+02 -0.88276891913E+02  0.95520746997E+02  0.16185834109E+03  0.90500077913E+02 0.  0.
        -11    1    3    3    0    0 -0.37006770204E+02  0.43532904013E+01  0.35117206637E+02  0.51202249758E+02  0.00000000000E+00 0. -1.
         11    1    3    3    0    0  0.39789678914E+01 -0.92630182315E+02  0.60403540360E+02  0.11065609133E+03  0.00000000000E+00 0.  1.
        -15    1    1    2    0    0 -0.39869179577E+02 -0.83044486232E+01  0.10673268462E+02  0.42137770892E+02  0.17770000000E+01 0.  1.
         15    1    1    2    0    0  0.72896981889E+02  0.96581340536E+02 -0.10619401546E+03  0.16100388802E+03  0.17770000000E+01 0. -1.
</event>
<event>
 7    1  0.2808731E-007  0.2432169E+03  0.7546771E-02  0.1028331E+00
        -11   -1    0    0    0    0  0.00000000000E+00  0.00000000000E+00  0.18250000000E+03  0.18250000000E+03  0.00000000000E+00 0.  1.
         11   -1    0    0    0    0 -0.00000000000E+00 -0.00000000000E+00 -0.18250000000E+03  0.18250000000E+03  0.00000000000E+00 0. -1.
         23    2    1    2    0    0  0.33085195925E+02  0.57835259941E+02 -0.44214648342E+02  0.12178305576E+03  0.91851129883E+02 0.  0.
        -11    1    3    3    0    0  0.24078452059E+02 -0.15461039051E+02 -0.38147033861E+02  0.47686599527E+02  0.00000000000E+00 0. -1.
         11    1    3    3    0    0  0.90067438664E+01  0.73296298993E+02 -0.60676144815E+01  0.74096456235E+02  0.00000000000E+00 0.  1.
        -15    1    1    2    0    0 -0.94356401623E+02  0.24598066284E+02 -0.44768340068E+02  0.10731056515E+03  0.17770000000E+01 0.  1.
         15    1    1    2    0    0  0.61271205698E+02 -0.82433326225E+02  0.88982988411E+02  0.13590637908E+03  0.17770000000E+01 0. -1.
</event>
<event>
 7    1  0.2808731E-007  0.2558573E+03  0.7546771E-02  0.1021569E+00
        -11   -1    0    0    0    0  0.00000000000E+00  0.00000000000E+00  0.18250000000E+03  0.18250000000E+03  0.00000000000E+00 0. -1.
         11   -1    0    0    0    0 -0.00000000000E+00 -0.00000000000E+00 -0.18250000000E+03  0.18250000000E+03  0.00000000000E+00 0.  1.
         23    2    1    2    0    0 -0.19622935045E+02  0.28795253593E+02 -0.52535005393E+02  0.10914267667E+03  0.89095290951E+02 0.  0.
        -11    1    3    3    0    0 -0.14192402915E+02  0.60586176800E+02 -0.42542018663E+02  0.75378594253E+02  0.00000000000E+00 0.  1.
         11    1    3    3    0    0 -0.54305321300E+01 -0.31790923207E+02 -0.99929867304E+01  0.33764082416E+02  0.00000000000E+00 0. -1.
        -15    1    1    2    0    0 -0.11213798252E+03 -0.30795983406E+02  0.73388358764E+01  0.11653469852E+03  0.17770000000E+01 0. -1.
         15    1    1    2    0    0  0.13176091756E+03  0.20007298138E+01  0.45196169517E+02  0.13932262481E+03  0.17770000000E+01 0.  1.
</event>
<event>
 7    1  0.2808731E-007  0.2058494E+03  0.7546771E-02  0.1051252E+00
        -11   -1    0    0    0    0  0.00000000000E+00  0.00000000000E+00  0.18250000000E+03  0.18250000000E+03  0.00000000000E+00 0.  1.
         11   -1    0    0    0    0 -0.00000000000E+00 -0.00000000000E+00 -0.18250000000E+03  0.18250000000E+03  0.00000000000E+00 0. -1.
         23    2    1    2    0    0  0.24829131114E+02 -0.60582304189E+02  0.11145141210E+03  0.15915058264E+03  0.92848206027E+02 0.  0.
        -11    1    3    3    0    0  0.55693521471E+02 -0.28228073573E+02  0.37802829795E+02  0.72990728260E+02  0.00000000000E+00 0.  1.
         11    1    3    3    0    0 -0.30864390357E+02 -0.32354230616E+02  0.73648582307E+02  0.86159854379E+02  0.00000000000E+00 0. -1.
        -15    1    1    2    0    0 -0.22744490703E+02  0.32688570798E+01  0.38736447843E+02  0.45074021392E+02  0.17770000000E+01 0.  1.
         15    1    1    2    0    0 -0.20846404115E+01  0.57313447109E+02 -0.15018785994E+03  0.16077539597E+03  0.17770000000E+01 0. -1.
</event>
<event>
 7    1  0.2808731E-007  0.3650000E+03  0.7546771E-02  0.9765871E-01
        -11   -1    0    0    0    0  0.00000000000E+00  0.00000000000E+00  0.18250000000E+03  0.18250000000E+03  0.00000000000E+00 0.  1.
         11   -1    0    0    0    0 -0.00000000000E+00 -0.00000000000E+00 -0.18250000000E+03  0.18250000000E+03  0.00000000000E+00 0. -1.
         23    2    1    2    0    0 -0.67828839088E+02  0.13107153452E+02 -0.11309954349E+03  0.16076831848E+03  0.91007673337E+02 0.  0.
        -11    1    3    3    0    0 -0.53239585988E+02 -0.25872328620E+02 -0.10160493721E+03  0.11758994077E+03  0.00000000000E+00 0. -1.
         11    1    3    3    0    0 -0.14589253099E+02  0.38979482073E+02 -0.11494606285E+02  0.43178377718E+02  0.00000000000E+00 0.  1.
        -15    1    1    2    0    0  0.11455563947E+03  0.85961854707E+01  0.96595682456E+02  0.15010254008E+03  0.17770000000E+01 0.  1.
         15    1    1    2    0    0 -0.46726800385E+02 -0.21703338923E+02  0.16503861037E+02  0.54129141438E+02  0.17770000000E+01 0. -1.
</event>
<event>
 7    1  0.2808731E-007  0.3650000E+03  0.7546771E-02  0.9765871E-01
        -11   -1    0    0    0    0  0.00000000000E+00  0.00000000000E+00  0.18250000000E+03  0.18250000000E+03  0.00000000000E+00 0.  1.
         11   -1    0    0    0    0 -0.00000000000E+00 -0.00000000000E+00 -0.18250000000E+03  0.18250000000E+03  0.00000000000E+00 0. -1.
         23    2    1    2    0    0 -0.89309554655E+01 -0.61365979571E+01 -0.11816203429E+03  0.14961599049E+03  0.91133190791E+02 0.  0.
        -11    1    3    3    0    0  0.19390041314E+01 -0.16657323631E+02 -0.12958155083E+03  0.13066217694E+03  0.00000000000E+00 0. -1.
         11    1    3    3    0    0 -0.10869959597E+02  0.10520725674E+02  0.11419516537E+02  0.18953813555E+02  0.00000000000E+00 0.  1.
        -15    1    1    2    0    0 -0.11258885601E+02  0.31600359560E+02 -0.40956593751E+02  0.52971176408E+02  0.17770000000E+01 0.  1.
         15    1    1    2    0    0  0.20189841067E+02 -0.25463761603E+02  0.15911862804E+03  0.16241283310E+03  0.17770000000E+01 0. -1.
</event>
<event>
 7    1  0.2808731E-007  0.3650000E+03  0.7546771E-02  0.9765871E-01
        -11   -1    0    0    0    0  0.00000000000E+00  0.00000000000E+00  0.18250000000E+03  0.18250000000E+03  0.00000000000E+00 0.  1.
         11   -1    0    0    0    0 -0.00000000000E+00 -0.00000000000E+00 -0.18250000000E+03  0.18250000000E+03  0.00000000000E+00 0. -1.
         23    2    1    2    0    0 -0.76931609122E+02 -0.74651216538E+02 -0.63734413824E+02  0.14905561800E+03  0.81634705478E+02 0.  0.
        -11    1    3    3    0    0 -0.78297253032E+02 -0.51075544702E+02 -0.77753521296E+02  0.12159268552E+03  0.00000000000E+00 0. -1.
         11    1    3    3    0    0  0.13656439091E+01 -0.23575671836E+02  0.14019107472E+02  0.27462932475E+02  0.00000000000E+00 0.  1.
        -15    1    1    2    0    0  0.13338974250E+03  0.47936448620E+02  0.29843777913E+02  0.14486039942E+03  0.17770000000E+01 0.  1.
         15    1    1    2    0    0 -0.56458133374E+02  0.26714767917E+02  0.33890635911E+02  0.71083982587E+02  0.17770000000E+01 0. -1.
</event>
<event>
 7    1  0.2808731E-007  0.2553263E+03  0.7546771E-02  0.1021845E+00
        -11   -1    0    0    0    0  0.00000000000E+00  0.00000000000E+00  0.18250000000E+03  0.18250000000E+03  0.00000000000E+00 0.  1.
         11   -1    0    0    0    0 -0.00000000000E+00 -0.00000000000E+00 -0.18250000000E+03  0.18250000000E+03  0.00000000000E+00 0. -1.
         23    2    1    2    0    0  0.19300204954E+02 -0.57053073133E+02 -0.43211982252E+01  0.10967367476E+03  0.91553760803E+02 0.  0.
        -11    1    3    3    0    0  0.37914815447E+02 -0.68023241737E+02  0.16569353668E+02  0.79619332626E+02  0.00000000000E+00 0.  1.
         11    1    3    3    0    0 -0.18614610493E+02  0.10970168604E+02 -0.20890551893E+02  0.30054342139E+02  0.00000000000E+00 0. -1.
        -15    1    1    2    0    0  0.12341832191E+02  0.79614679779E+02  0.11362813672E+03  0.13930301232E+03  0.17770000000E+01 0.  1.
         15    1    1    2    0    0 -0.31642037146E+02 -0.22561606646E+02 -0.10930693849E+03  0.11602331292E+03  0.17770000000E+01 0. -1.
</event>
<event>
 7    1  0.2808731E-007  0.1963077E+03  0.7546771E-02  0.1057966E+00
        -11   -1    0    0    0    0  0.00000000000E+00  0.00000000000E+00  0.18250000000E+03  0.18250000000E+03  0.00000000000E+00 0.  1.
         11   -1    0    0    0    0 -0.00000000000E+00 -0.00000000000E+00 -0.18250000000E+03  0.18250000000E+03  0.00000000000E+00 0. -1.
         23    2    1    2    0    0 -0.11726585954E+02 -0.14999981418E+02  0.14102705123E+03  0.16869225582E+03  0.90586620060E+02 0.  0.
        -11    1    3    3    0    0 -0.15936635866E+02  0.35082018874E+01 -0.82001858672E+01  0.18262718622E+02  0.00000000000E+00 0. -1.
         11    1    3    3    0    0  0.42100499118E+01 -0.18508183305E+02  0.14922723710E+03  0.15042953720E+03  0.00000000000E+00 0.  1.
        -15    1    1    2    0    0  0.34323635705E+02 -0.49175881181E+02 -0.10063864734E+03  0.11716515833E+03  0.17770000000E+01 0.  1.
         15    1    1    2    0    0 -0.22597049751E+02  0.64175862599E+02 -0.40388403888E+02  0.79142585852E+02  0.17770000000E+01 0. -1.
</event>
<event>
 7    1  0.2808731E-007  0.3650000E+03  0.7546771E-02  0.9765871E-01
        -11   -1    0    0    0    0  0.00000000000E+00  0.00000000000E+00  0.18250000000E+03  0.18250000000E+03  0.00000000000E+00 0.  1.
         11   -1    0    0    0    0 -0.00000000000E+00 -0.00000000000E+00 -0.18250000000E+03  0.18250000000E+03  0.00000000000E+00 0. -1.
         23    2    1    2    0    0 -0.41943783928E+02  0.59937555986E+01 -0.96303672545E+02  0.13960085555E+03  0.91753993966E+02 0.  0.
        -11    1    3    3    0    0  0.24198690703E+02  0.76912152224E+00 -0.58327572508E+02  0.63152782158E+02  0.00000000000E+00 0.  1.
         11    1    3    3    0    0 -0.66142474631E+02  0.52246340763E+01 -0.37976100038E+02  0.76448073394E+02  0.00000000000E+00 0. -1.
        -15    1    1    2    0    0  0.84883650706E+02 -0.61771823710E+02  0.11172197883E+03  0.15331650480E+03  0.17770000000E+01 0.  1.
         15    1    1    2    0    0 -0.42939866778E+02  0.55778068111E+02 -0.15418306282E+02  0.72082639649E+02  0.17770000000E+01 0. -1.
</event>
<event>
 7    1  0.2808731E-007  0.3650000E+03  0.7546771E-02  0.9765871E-01
        -11   -1    0    0    0    0  0.00000000000E+00  0.00000000000E+00  0.18250000000E+03  0.18250000000E+03  0.00000000000E+00 0. -1.
         11   -1    0    0    0    0 -0.00000000000E+00 -0.00000000000E+00 -0.18250000000E+03  0.18250000000E+03  0.00000000000E+00 0.  1.
         23    2    1    2    0    0  0.30097075391E+02  0.27652715982E+02 -0.79597730675E+02  0.12710251088E+03  0.90270387698E+02 0.  0.
        -11    1    3    3    0    0  0.52995692887E+01  0.19340773785E+02 -0.94768812581E+02  0.96867325778E+02  0.00000000000E+00 0.  1.
         11    1    3    3    0    0  0.24797506102E+02  0.83119421967E+01  0.15171081906E+02  0.30235185102E+02  0.00000000000E+00 0. -1.
        -15    1    1    2    0    0  0.56773381391E+02 -0.70126568709E+02 -0.26773047477E+02  0.94132386954E+02  0.17770000000E+01 0. -1.
         15    1    1    2    0    0 -0.86870456782E+02  0.42473852727E+02  0.10637077815E+03  0.14376510217E+03  0.17770000000E+01 0.  1.
</event>
<event>
 7    1  0.2808731E-007  0.3650000E+03  0.7546771E-02  0.9765871E-01
        -11   -1    0    0    0    0  0.00000000000E+00  0.00000000000E+00  0.18250000000E+03  0.18250000000E+03  0.00000000000E+00 0.  1.
         11   -1    0    0    0    0 -0.00000000000E+00 -0.00000000000E+00 -0.18250000000E+03  0.18250000000E+03  0.00000000000E+00 0. -1.
         23    2    1    2    0    0  0.56221660037E+02  0.13701442324E+02  0.78848330591E+02  0.13287398727E+03  0.89943497135E+02 0.  0.
        -11    1    3    3    0    0  0.28863823868E+02  0.52227335150E+02  0.42528492002E+02  0.73276786891E+02  0.00000000000E+00 0. -1.
         11    1    3    3    0    0  0.27357836169E+02 -0.38525892825E+02  0.36319838589E+02  0.59597200379E+02  0.00000000000E+00 0.  1.
        -15    1    1    2    0    0 -0.90207735879E+01 -0.81306510561E+02  0.37097225893E+02  0.89841443186E+02  0.17770000000E+01 0.  1.
         15    1    1    2    0    0 -0.47200886449E+02  0.67605068237E+02 -0.11594555648E+03  0.14228456954E+03  0.17770000000E+01 0. -1.
</event>
<event>
 7    1  0.2808731E-007  0.3650000E+03  0.7546771E-02  0.9765871E-01
        -11   -1    0    0    0    0  0.00000000000E+00  0.00000000000E+00  0.18250000000E+03  0.18250000000E+03  0.00000000000E+00 0.  1.
         11   -1    0    0    0    0 -0.00000000000E+00 -0.00000000000E+00 -0.18250000000E+03  0.18250000000E+03  0.00000000000E+00 0. -1.
         23    2    1    2    0    0 -0.32704296301E+02  0.43671274138E+02  0.77600772572E+01  0.10508997923E+03  0.89481471570E+02 0.  0.
        -11    1    3    3    0    0 -0.44279744111E+02  0.53948958269E+01 -0.26968954222E+02  0.52126050410E+02  0.00000000000E+00 0.  1.
         11    1    3    3    0    0  0.11575447810E+02  0.38276378311E+02  0.34729031480E+02  0.52963928820E+02  0.00000000000E+00 0. -1.
        -15    1    1    2    0    0 -0.70101579165E+02  0.33355861545E+02 -0.80849623054E+02  0.11210113370E+03  0.17770000000E+01 0. -1.
         15    1    1    2    0    0  0.10280587547E+03 -0.77027135683E+02  0.73089545797E+02  0.14780888707E+03  0.17770000000E+01 0.  1.
</event>
<event>
 7    1  0.2808731E-007  0.3650000E+03  0.7546771E-02  0.9765871E-01
        -11   -1    0    0    0    0  0.00000000000E+00  0.00000000000E+00  0.18250000000E+03  0.18250000000E+03  0.00000000000E+00 0.  1.
         11   -1    0    0    0    0 -0.00000000000E+00 -0.00000000000E+00 -0.18250000000E+03  0.18250000000E+03  0.00000000000E+00 0. -1.
         23    2    1    2    0    0  0.11182988411E+03 -0.15324648473E+02  0.18635608935E+02  0.14520614430E+03  0.89424664338E+02 0.  0.
        -11    1    3    3    0    0  0.78181034005E+02 -0.44070640185E+02 -0.13168388511E+02  0.90707782800E+02  0.00000000000E+00 0. -1.
         11    1    3    3    0    0  0.33648850102E+02  0.28745991712E+02  0.31803997446E+02  0.54498361501E+02  0.00000000000E+00 0.  1.
        -15    1    1    2    0    0 -0.14180505651E+03  0.50376009996E+02 -0.55827753320E+02  0.16051888427E+03  0.17770000000E+01 0.  1.
         15    1    1    2    0    0  0.29975172407E+02 -0.35051361523E+02  0.37192144385E+02  0.59274971433E+02  0.17770000000E+01 0. -1.
</event>
<event>
 7    1  0.2808731E-007  0.3650000E+03  0.7546771E-02  0.9765871E-01
        -11   -1    0    0    0    0  0.00000000000E+00  0.00000000000E+00  0.18250000000E+03  0.18250000000E+03  0.00000000000E+00 0.  1.
         11   -1    0    0    0    0 -0.00000000000E+00 -0.00000000000E+00 -0.18250000000E+03  0.18250000000E+03  0.00000000000E+00 0. -1.
         23    2    1    2    0    0  0.52623893982E+02  0.10935007320E+03 -0.42566031443E+02  0.15509519505E+03  0.86694519825E+02 0.  0.
        -11    1    3    3    0    0  0.12092046052E+02  0.17356175022E+02 -0.50003101962E+02  0.54293319984E+02  0.00000000000E+00 0. -1.
         11    1    3    3    0    0  0.40531847930E+02  0.91993898176E+02  0.74370705188E+01  0.10080187506E+03  0.00000000000E+00 0.  1.
        -15    1    1    2    0    0 -0.10993459061E+03 -0.92298951068E+02  0.43750496632E+02  0.15007322967E+03  0.17770000000E+01 0.  1.
         15    1    1    2    0    0  0.57310696625E+02 -0.17051122130E+02 -0.11844651890E+01  0.59831575278E+02  0.17770000000E+01 0. -1.
</event>
<event>
 7    1  0.2808731E-007  0.3650000E+03  0.7546771E-02  0.9765871E-01
        -11   -1    0    0    0    0  0.00000000000E+00  0.00000000000E+00  0.18250000000E+03  0.18250000000E+03  0.00000000000E+00 0.  1.
         11   -1    0    0    0    0 -0.00000000000E+00 -0.00000000000E+00 -0.18250000000E+03  0.18250000000E+03  0.00000000000E+00 0. -1.
         23    2    1    2    0    0  0.35552784248E+01  0.59279966001E+02 -0.54207160077E+02  0.12142222855E+03  0.90984542684E+02 0.  0.
        -11    1    3    3    0    0  0.28258347787E+01  0.73442488570E+02 -0.69084702441E+02  0.10086863031E+03  0.00000000000E+00 0. -1.
         11    1    3    3    0    0  0.72944364605E+00 -0.14162522568E+02  0.14877542365E+02  0.20553598234E+02  0.00000000000E+00 0.  1.
        -15    1    1    2    0    0 -0.11362984201E+01 -0.14449518741E+03  0.38744810366E+01  0.14456251136E+03  0.17770000000E+01 0.  1.
         15    1    1    2    0    0 -0.24189800047E+01  0.85215221406E+02  0.50332679040E+02  0.99015260096E+02  0.17770000000E+01 0. -1.
</event>
<event>
 7    1  0.2808731E-007  0.2031759E+03  0.7546771E-02  0.1053093E+00
        -11   -1    0    0    0    0  0.00000000000E+00  0.00000000000E+00  0.18250000000E+03  0.18250000000E+03  0.00000000000E+00 0.  1.
         11   -1    0    0    0    0 -0.00000000000E+00 -0.00000000000E+00 -0.18250000000E+03  0.18250000000E+03  0.00000000000E+00 0. -1.
         23    2    1    2    0    0  0.14307067294E+02  0.70662149171E+01 -0.13243720253E+03  0.16182413695E+03  0.91612308763E+02 0.  0.
        -11    1    3    3    0    0  0.10304533135E+02  0.47618900031E+02 -0.49707720605E+02  0.69603164662E+02  0.00000000000E+00 0.  1.
         11    1    3    3    0    0  0.40025341588E+01 -0.40552685114E+02 -0.82729481923E+02  0.92220972283E+02  0.00000000000E+00 0. -1.
        -15    1    1    2    0    0 -0.44681027801E+02 -0.50895674498E+02  0.13361319053E+03  0.14980789812E+03  0.17770000000E+01 0.  1.
         15    1    1    2    0    0  0.30373960508E+02  0.43829459580E+02 -0.11759880013E+01  0.53367964930E+02  0.17770000000E+01 0. -1.
</event>
<event>
 7    1  0.2808731E-007  0.2491378E+03  0.7546771E-02  0.1025110E+00
        -11   -1    0    0    0    0  0.00000000000E+00  0.00000000000E+00  0.18250000000E+03  0.18250000000E+03  0.00000000000E+00 0. -1.
         11   -1    0    0    0    0 -0.00000000000E+00 -0.00000000000E+00 -0.18250000000E+03  0.18250000000E+03  0.00000000000E+00 0.  1.
         23    2    1    2    0    0 -0.76262554107E+01  0.70780981179E+01  0.70403167624E+02  0.11586219606E+03  0.91428568949E+02 0.  0.
        -11    1    3    3    0    0 -0.29629012486E+02  0.19480438512E+02 -0.54851553864E+01  0.35881092446E+02  0.00000000000E+00 0.  1.
         11    1    3    3    0    0  0.22002757075E+02 -0.12402340394E+02  0.75888323011E+02  0.79981103615E+02  0.00000000000E+00 0. -1.
        -15    1    1    2    0    0  0.10238155613E+03 -0.46217258338E+02 -0.90973231656E+02  0.14455900045E+03  0.17770000000E+01 0. -1.
         15    1    1    2    0    0 -0.94755300716E+02  0.39139160220E+02  0.20570064032E+02  0.10457880349E+03  0.17770000000E+01 0.  1.
</event>
<event>
 7    1  0.2808731E-007  0.1825581E+03  0.7546771E-02  0.1068409E+00
        -11   -1    0    0    0    0  0.00000000000E+00  0.00000000000E+00  0.18250000000E+03  0.18250000000E+03  0.00000000000E+00 0.  1.
         11   -1    0    0    0    0 -0.00000000000E+00 -0.00000000000E+00 -0.18250000000E+03  0.18250000000E+03  0.00000000000E+00 0. -1.
         23    2    1    2    0    0 -0.10445997819E+03  0.14433452111E+02  0.11385572292E+03  0.18244193997E+03  0.95925618242E+02 0.  0.
        -11    1    3    3    0    0  0.50992421001E+01  0.26189543374E+02  0.42391621059E+01  0.27016012798E+02  0.00000000000E+00 0. -1.
         11    1    3    3    0    0 -0.10955922029E+03 -0.11756091263E+02  0.10961656082E+03  0.15542592718E+03  0.00000000000E+00 0.  1.
        -15    1    1    2    0    0  0.37045802256E+02 -0.36807457643E+02 -0.48998084787E+01  0.52481865964E+02  0.17770000000E+01 0.  1.
         15    1    1    2    0    0  0.67414175938E+02  0.22374005532E+02 -0.10895591444E+03  0.13007619406E+03  0.17770000000E+01 0. -1.
</event>
<event>
 7    1  0.2808731E-007  0.1933712E+03  0.7546771E-02  0.1060116E+00
        -11   -1    0    0    0    0  0.00000000000E+00  0.00000000000E+00  0.18250000000E+03  0.18250000000E+03  0.00000000000E+00 0.  1.
         11   -1    0    0    0    0 -0.00000000000E+00 -0.00000000000E+00 -0.18250000000E+03  0.18250000000E+03  0.00000000000E+00 0. -1.
         23    2    1    2    0    0 -0.32172831690E+02  0.83681714765E+02 -0.11466698810E+03  0.17162881318E+03  0.90940699735E+02 0.  0.
        -11    1    3    3    0    0  0.65387085569E+01 -0.17169594394E+02 -0.87821674255E+01  0.20363598550E+02  0.00000000000E+00 0.  1.
         11    1    3    3    0    0 -0.38711540247E+02  0.10085130916E+03 -0.10588482068E+03  0.15126521463E+03  0.00000000000E+00 0. -1.
        -15    1    1    2    0    0  0.54109957974E+02 -0.10761661266E+03  0.74301507540E+02  0.14153831504E+03  0.17770000000E+01 0.  1.
         15    1    1    2    0    0 -0.21937126284E+02  0.23934897898E+02  0.40365480561E+02  0.51832871779E+02  0.17770000000E+01 0. -1.
</event>
<event>
 7    1  0.2808731E-007  0.3650000E+03  0.7546771E-02  0.9765871E-01
        -11   -1    0    0    0    0  0.00000000000E+00  0.00000000000E+00  0.18250000000E+03  0.18250000000E+03  0.00000000000E+00 0. -1.
         11   -1    0    0    0    0 -0.00000000000E+00 -0.00000000000E+00 -0.18250000000E+03  0.18250000000E+03  0.00000000000E+00 0.  1.
         23    2    1    2    0    0 -0.10445216307E+01  0.76376035552E+02  0.62918994248E+02  0.12939334270E+03  0.83363346060E+02 0.  0.
        -11    1    3    3    0    0 -0.41486217935E+02  0.47520732030E+02  0.30477161252E+02  0.70058429965E+02  0.00000000000E+00 0. -1.
         11    1    3    3    0    0  0.40441696304E+02  0.28855303522E+02  0.32441832996E+02  0.59334912737E+02  0.00000000000E+00 0.  1.
        -15    1    1    2    0    0  0.10548781703E+02 -0.20327694940E+02  0.79234577421E+02  0.82497078525E+02  0.17770000000E+01 0. -1.
         15    1    1    2    0    0 -0.95042600724E+01 -0.56048340612E+02 -0.14215357167E+03  0.15310957877E+03  0.17770000000E+01 0.  1.
</event>
<event>
 7    1  0.2808731E-007  0.2645755E+03  0.7546771E-02  0.1017147E+00
        -11   -1    0    0    0    0  0.00000000000E+00  0.00000000000E+00  0.18250000000E+03  0.18250000000E+03  0.00000000000E+00 0.  1.
         11   -1    0    0    0    0 -0.00000000000E+00 -0.00000000000E+00 -0.18250000000E+03  0.18250000000E+03  0.00000000000E+00 0. -1.
         23    2    1    2    0    0 -0.10607321456E+02 -0.25590723326E+02  0.34855007211E+01  0.10042445442E+03  0.96465133294E+02 0.  0.
        -11    1    3    3    0    0 -0.53304437573E+02 -0.88144565125E+01  0.66747159191E+01  0.54439044272E+02  0.00000000000E+00 0.  1.
         11    1    3    3    0    0  0.42697116117E+02 -0.16776266813E+02 -0.31892151980E+01  0.45985410148E+02  0.00000000000E+00 0. -1.
        -15    1    1    2    0    0  0.98897179826E+02  0.65193744171E+02  0.74792884466E+02  0.14009999912E+03  0.17770000000E+01 0.  1.
         15    1    1    2    0    0 -0.88289858370E+02 -0.39603020846E+02 -0.78278385187E+02  0.12447554646E+03  0.17770000000E+01 0. -1.
</event>
<event>
 7    1  0.2808731E-007  0.3650000E+03  0.7546771E-02  0.9765871E-01
        -11   -1    0    0    0    0  0.00000000000E+00  0.00000000000E+00  0.18250000000E+03  0.18250000000E+03  0.00000000000E+00 0.  1.
         11   -1    0    0    0    0 -0.00000000000E+00 -0.00000000000E+00 -0.18250000000E+03  0.18250000000E+03  0.00000000000E+00 0. -1.
         23    2    1    2    0    0 -0.35832898047E+02  0.62141782416E+02  0.74372127023E+02  0.13751544247E+03  0.90739660216E+02 0.  0.
        -11    1    3    3    0    0 -0.60438530715E+02  0.48808059350E+02  0.26533219855E+02  0.82091743850E+02  0.00000000000E+00 0. -1.
         11    1    3    3    0    0  0.24605632668E+02  0.13333723066E+02  0.47838907169E+02  0.55423698622E+02  0.00000000000E+00 0.  1.
        -15    1    1    2    0    0  0.65407922069E+02 -0.12371897464E+03 -0.22636982790E+02  0.14177507424E+03  0.17770000000E+01 0.  1.
         15    1    1    2    0    0 -0.29575024022E+02  0.61577192226E+02 -0.51735144233E+02  0.85709483292E+02  0.17770000000E+01 0. -1.
</event>
<event>
 6    1  0.2808731E-007  0.1301707E+03  0.7546771E-02  0.1119958E+00
        -11   -1    0    0    0    0  0.00000000000E+00  0.00000000000E+00  0.18250000000E+03  0.18250000000E+03  0.00000000000E+00 0.  1.
         11   -1    0    0    0    0 -0.00000000000E+00 -0.00000000000E+00 -0.18250000000E+03  0.18250000000E+03  0.00000000000E+00 0. -1.
        -11    1    1    2    0    0 -0.71456919883E+01 -0.26198498721E+01 -0.14653824674E+00  0.76122270593E+01  0.00000000000E+00 0.  1.
         11    1    1    2    0    0 -0.52408054382E+02  0.28647812602E+02 -0.57530000551E+02  0.82927693170E+02  0.00000000000E+00 0. -1.
        -15    1    1    2    0    0 -0.98740424601E+02  0.11913092668E+02 -0.60204365027E+01  0.99654385814E+02  0.17770000000E+01 0.  1.
         15    1    1    2    0    0  0.15829417097E+03 -0.37941055398E+02  0.63696975301E+02  0.17480569396E+03  0.17770000000E+01 0. -1.
</event>
<event>
 7    1  0.2808731E-007  0.2535141E+03  0.7546771E-02  0.1022791E+00
        -11   -1    0    0    0    0  0.00000000000E+00  0.00000000000E+00  0.18250000000E+03  0.18250000000E+03  0.00000000000E+00 0. -1.
         11   -1    0    0    0    0 -0.00000000000E+00 -0.00000000000E+00 -0.18250000000E+03  0.18250000000E+03  0.00000000000E+00 0.  1.
         23    2    1    2    0    0 -0.46987241563E+02 -0.36724281367E+02  0.12743274575E+02  0.11148585022E+03  0.93328613192E+02 0.  0.
        -11    1    3    3    0    0 -0.66753130027E+02 -0.48687964395E+02 -0.43632420740E+01  0.82737755147E+02  0.00000000000E+00 0. -1.
         11    1    3    3    0    0  0.19765888464E+02  0.11963683028E+02  0.17106516649E+02  0.28748095071E+02  0.00000000000E+00 0.  1.
        -15    1    1    2    0    0  0.73480108830E+02 -0.85486957889E+02 -0.49548254085E+02  0.12314842092E+03  0.17770000000E+01 0.  1.
         15    1    1    2    0    0 -0.26492867267E+02  0.12221123926E+03  0.36804979511E+02  0.13036572886E+03  0.17770000000E+01 0. -1.
</event>
<event>
 7    1  0.2808731E-007  0.2371639E+03  0.7546771E-02  0.1031729E+00
        -11   -1    0    0    0    0  0.00000000000E+00  0.00000000000E+00  0.18250000000E+03  0.18250000000E+03  0.00000000000E+00 0. -1.
         11   -1    0    0    0    0 -0.00000000000E+00 -0.00000000000E+00 -0.18250000000E+03  0.18250000000E+03  0.00000000000E+00 0. -1.
         23    2    1    2    0    0 -0.83525176806E+02  0.39929692383E+02  0.27567741957E+01  0.12783612637E+03  0.88111519720E+02 0.  0.
        -11    1    3    3    0    0 -0.13102820895E+02  0.82379895233E+01  0.39420385252E+02  0.42349913343E+02  0.00000000000E+00 0. -1.
         11    1    3    3    0    0 -0.70422355911E+02  0.31691702860E+02 -0.36663611056E+02  0.85486213028E+02  0.00000000000E+00 0. -1.
        -15    1    1    2    0    0  0.11264355960E+03  0.62919640413E+02  0.10375520216E+02  0.12945370531E+03  0.17770000000E+01 0. -1.
         15    1    1    2    0    0 -0.29118382798E+02 -0.10284933280E+03 -0.13132294412E+02  0.10771016832E+03  0.17770000000E+01 0.  1.
</event>
<event>
 7    1  0.2808731E-007  0.2581867E+03  0.7546771E-02  0.1020369E+00
        -11   -1    0    0    0    0  0.00000000000E+00  0.00000000000E+00  0.18250000000E+03  0.18250000000E+03  0.00000000000E+00 0. -1.
         11   -1    0    0    0    0 -0.00000000000E+00 -0.00000000000E+00 -0.18250000000E+03  0.18250000000E+03  0.00000000000E+00 0.  1.
         23    2    1    2    0    0  0.10405280017E+02 -0.10711427036E+02 -0.44677681147E+02  0.10681328791E+03  0.95864376912E+02 0.  0.
        -11    1    3    3    0    0 -0.37965777826E+02 -0.25956346362E+02 -0.25538527759E+02  0.52605594783E+02  0.00000000000E+00 0.  1.
         11    1    3    3    0    0  0.48371057843E+02  0.15244919326E+02 -0.19139153388E+02  0.54207693130E+02  0.00000000000E+00 0. -1.
        -15    1    1    2    0    0  0.75530842153E+02 -0.20327884890E+02  0.11761568429E+03  0.14126124005E+03  0.17770000000E+01 0. -1.
         15    1    1    2    0    0 -0.85936122170E+02  0.31039311927E+02 -0.72938003146E+02  0.11692547203E+03  0.17770000000E+01 0.  1.
</event>
<event>
 7    1  0.2808731E-007  0.2364261E+03  0.7546771E-02  0.1032150E+00
        -11   -1    0    0    0    0  0.00000000000E+00  0.00000000000E+00  0.18250000000E+03  0.18250000000E+03  0.00000000000E+00 0. -1.
         11   -1    0    0    0    0 -0.00000000000E+00 -0.00000000000E+00 -0.18250000000E+03  0.18250000000E+03  0.00000000000E+00 0.  1.
         23    2    1    2    0    0  0.78192148992E+02  0.15928274175E+02 -0.45687452239E+02  0.12857388269E+03  0.89867557755E+02 0.  0.
        -11    1    3    3    0    0  0.95496782125E+02  0.27485578163E+02 -0.37841707646E+02  0.10633478848E+03  0.00000000000E+00 0.  1.
         11    1    3    3    0    0 -0.17304633133E+02 -0.11557303988E+02 -0.78457445931E+01  0.22239094216E+02  0.00000000000E+00 0. -1.
        -15    1    1    2    0    0 -0.39959084430E+02  0.19038795968E+01  0.13329172837E+03  0.13917685068E+03  0.17770000000E+01 0. -1.
         15    1    1    2    0    0 -0.38233064562E+02 -0.17832153772E+02 -0.87604276127E+02  0.97249266623E+02  0.17770000000E+01 0.  1.
</event>
<event>
 7    1  0.2808731E-007  0.1924477E+03  0.7546771E-02  0.1060801E+00
        -11   -1    0    0    0    0  0.00000000000E+00  0.00000000000E+00  0.18250000000E+03  0.18250000000E+03  0.00000000000E+00 0.  1.
         11   -1    0    0    0    0 -0.00000000000E+00 -0.00000000000E+00 -0.18250000000E+03  0.18250000000E+03  0.00000000000E+00 0. -1.
         23    2    1    2    0    0 -0.13957941098E+02 -0.12961662834E+03 -0.66552803840E+02  0.17255234933E+03  0.91376928706E+02 0.  0.
        -11    1    3    3    0    0 -0.45726487033E+02 -0.32681461192E+02 -0.14569868597E+02  0.58062643696E+02  0.00000000000E+00 0.  1.
         11    1    3    3    0    0  0.31768545935E+02 -0.96935167145E+02 -0.51982935242E+02  0.11448970564E+03  0.00000000000E+00 0. -1.
        -15    1    1    2    0    0  0.17312389240E+02  0.10375612912E+02 -0.31884663540E+02  0.37777793246E+02  0.17770000000E+01 0. -1.
         15    1    1    2    0    0 -0.33544481418E+01  0.11924101542E+03  0.98437467380E+02  0.15466985742E+03  0.17770000000E+01 0. -1.
</event>
<event>
 7    1  0.2808731E-007  0.2647668E+03  0.7546771E-02  0.1017052E+00
        -11   -1    0    0    0    0  0.00000000000E+00  0.00000000000E+00  0.18250000000E+03  0.18250000000E+03  0.00000000000E+00 0.  1.
         11   -1    0    0    0    0 -0.00000000000E+00 -0.00000000000E+00 -0.18250000000E+03  0.18250000000E+03  0.00000000000E+00 0. -1.
         23    2    1    2    0    0 -0.13160895447E+02  0.23741491040E+02  0.27420487551E+02  0.10023321890E+03  0.92509175043E+02 0.  0.
        -11    1    3    3    0    0 -0.11736267581E+02 -0.20264772971E+00 -0.33106948119E+02  0.35126216088E+02  0.00000000000E+00 0.  1.
         11    1    3    3    0    0 -0.14246278655E+01  0.23944138769E+02  0.60527435670E+02  0.65107002809E+02  0.00000000000E+00 0. -1.
        -15    1    1    2    0    0 -0.84275645881E+02 -0.41978613678E+02  0.76361438653E+02  0.12123867179E+03  0.17770000000E+01 0.  1.
         15    1    1    2    0    0  0.97436541328E+02  0.18237122639E+02 -0.10378192620E+03  0.14352810931E+03  0.17770000000E+01 0. -1.
</event>
<event>
 7    1  0.2808731E-007  0.3650000E+03  0.7546771E-02  0.9765871E-01
        -11   -1    0    0    0    0  0.00000000000E+00  0.00000000000E+00  0.18250000000E+03  0.18250000000E+03  0.00000000000E+00 0.  1.
         11   -1    0    0    0    0 -0.00000000000E+00 -0.00000000000E+00 -0.18250000000E+03  0.18250000000E+03  0.00000000000E+00 0. -1.
         23    2    1    2    0    0 -0.51585651101E+02 -0.19923862253E+02  0.10966336377E+03  0.15181760761E+03  0.89244007861E+02 0.  0.
        -11    1    3    3    0    0  0.25215885800E+01  0.16933416710E+02  0.76570378779E+02  0.78460957914E+02  0.00000000000E+00 0.  1.
         11    1    3    3    0    0 -0.54107239681E+02 -0.36857278963E+02  0.33092984994E+02  0.73356649694E+02  0.00000000000E+00 0. -1.
        -15    1    1    2    0    0 -0.33453950010E+02  0.34081590179E+02  0.24495621280E+02  0.53702092616E+02  0.17770000000E+01 0.  1.
         15    1    1    2    0    0  0.85039601111E+02 -0.14157727926E+02 -0.13415898505E+03  0.15948029978E+03  0.17770000000E+01 0. -1.
</event>
<event>
 7    1  0.2949389E-007  0.2320150E+03  0.7546771E-02  0.1034706E+00
        -11   -1    0    0    0    0  0.00000000000E+00  0.00000000000E+00  0.18250000000E+03  0.18250000000E+03  0.00000000000E+00 0. -1.
         11   -1    0    0    0    0 -0.00000000000E+00 -0.00000000000E+00 -0.18250000000E+03  0.18250000000E+03  0.00000000000E+00 0.  1.
         23    2    1    2    0    0  0.22304294917E+02  0.18395741297E+02 -0.91718767930E+02  0.13298496064E+03  0.91851959677E+02 0.  0.
        -11    1    3    3    0    0 -0.13864030238E+01  0.52154131138E+02 -0.66946507767E+02  0.84875263830E+02  0.00000000000E+00 0. -1.
         11    1    3    3    0    0  0.23690697941E+02 -0.33758389841E+02 -0.24772260164E+02  0.48109696811E+02  0.00000000000E+00 0.  1.
        -15    1    1    2    0    0 -0.11091706508E+03 -0.27740567675E+02  0.16775840832E+02  0.11557128097E+03  0.17770000000E+01 0.  1.
         15    1    1    2    0    0  0.88612770163E+02  0.93448263785E+01  0.74942927098E+02  0.11644375839E+03  0.17770000000E+01 0. -1.
</event>
<event>
 7    1  0.2808731E-007  0.3650000E+03  0.7546771E-02  0.9765871E-01
        -11   -1    0    0    0    0  0.00000000000E+00  0.00000000000E+00  0.18250000000E+03  0.18250000000E+03  0.00000000000E+00 0.  1.
         11   -1    0    0    0    0 -0.00000000000E+00 -0.00000000000E+00 -0.18250000000E+03  0.18250000000E+03  0.00000000000E+00 0. -1.
         23    2    1    2    0    0  0.75523433815E+02 -0.17345923527E+02 -0.98609912027E+02  0.15360033537E+03  0.88681893057E+02 0.  0.
        -11    1    3    3    0    0  0.23658769198E+02  0.18091085428E+02 -0.83979078112E+02  0.89103929725E+02  0.00000000000E+00 0. -1.
         11    1    3    3    0    0  0.51864664617E+02 -0.35437008955E+02 -0.14630833915E+02  0.64496405640E+02  0.00000000000E+00 0.  1.
        -15    1    1    2    0    0 -0.81476559028E+02 -0.86185021597E+01  0.13995578978E+03  0.16218350431E+03  0.17770000000E+01 0.  1.
         15    1    1    2    0    0  0.59531252126E+01  0.25964425687E+02 -0.41345877748E+02  0.49216160322E+02  0.17770000000E+01 0. -1.
</event>
<event>
 7    1  0.2808731E-007  0.2658335E+03  0.7546771E-02  0.1016525E+00
        -11   -1    0    0    0    0  0.00000000000E+00  0.00000000000E+00  0.18250000000E+03  0.18250000000E+03  0.00000000000E+00 0. -1.
         11   -1    0    0    0    0 -0.00000000000E+00 -0.00000000000E+00 -0.18250000000E+03  0.18250000000E+03  0.00000000000E+00 0.  1.
         23    2    1    2    0    0 -0.23007635460E+02  0.31153260583E+02  0.67493795637E+01  0.99166490357E+02  0.91041538601E+02 0.  0.
        -11    1    3    3    0    0 -0.24290766024E+02 -0.14078472236E+02 -0.29841955828E+02  0.40973003577E+02  0.00000000000E+00 0. -1.
         11    1    3    3    0    0  0.12831305635E+01  0.45231732819E+02  0.36591335391E+02  0.58193486780E+02  0.00000000000E+00 0.  1.
        -15    1    1    2    0    0 -0.27379747686E+02 -0.12993792365E+03  0.49186138446E+02  0.14161902602E+03  0.17770000000E+01 0.  1.
         15    1    1    2    0    0  0.50387383146E+02  0.98784663069E+02 -0.55935518010E+02  0.12421448362E+03  0.17770000000E+01 0. -1.
</event>
<event>
 7    1  0.2808731E-007  0.2111776E+03  0.7546771E-02  0.1047674E+00
        -11   -1    0    0    0    0  0.00000000000E+00  0.00000000000E+00  0.18250000000E+03  0.18250000000E+03  0.00000000000E+00 0.  1.
         11   -1    0    0    0    0 -0.00000000000E+00 -0.00000000000E+00 -0.18250000000E+03  0.18250000000E+03  0.00000000000E+00 0. -1.
         23    2    1    2    0    0  0.19106614705E+02  0.48540259445E+02  0.11369431217E+03  0.15382243520E+03  0.89519413740E+02 0.  0.
        -11    1    3    3    0    0  0.47899171689E+02  0.55444352190E+02  0.88906324114E+02  0.11520738390E+03  0.00000000000E+00 0.  1.
         11    1    3    3    0    0 -0.28792556984E+02 -0.69040927444E+01  0.24787988060E+02  0.38615051293E+02  0.00000000000E+00 0. -1.
        -15    1    1    2    0    0  0.59511378384E+02 -0.70212528638E+02 -0.36999616090E+02  0.99214578841E+02  0.17770000000E+01 0. -1.
         15    1    1    2    0    0 -0.78617993089E+02  0.21672269192E+02 -0.76694696085E+02  0.11196298596E+03  0.17770000000E+01 0.  1.
</event>
<event>
 7    1  0.2808731E-007  0.2553223E+03  0.7546771E-02  0.1021847E+00
        -11   -1    0    0    0    0  0.00000000000E+00  0.00000000000E+00  0.18250000000E+03  0.18250000000E+03  0.00000000000E+00 0. -1.
         11   -1    0    0    0    0 -0.00000000000E+00 -0.00000000000E+00 -0.18250000000E+03  0.18250000000E+03  0.00000000000E+00 0.  1.
         23    2    1    2    0    0 -0.67112513252E+02  0.11431173843E+02  0.17616787160E+02  0.10967767667E+03  0.84166979264E+02 0.  0.
        -11    1    3    3    0    0 -0.70918463218E+02  0.36925572113E+02  0.29280631953E+01  0.80009373546E+02  0.00000000000E+00 0. -1.
         11    1    3    3    0    0  0.38059499656E+01 -0.25494398270E+02  0.14688723965E+02  0.29668303120E+02  0.00000000000E+00 0.  1.
        -15    1    1    2    0    0  0.21438831361E+02  0.90035408648E+02  0.68042381763E+02  0.11488656033E+03  0.17770000000E+01 0. -1.
         15    1    1    2    0    0  0.45673681891E+02 -0.10146658249E+03 -0.85659168923E+02  0.14043576300E+03  0.17770000000E+01 0.  1.
</event>
<event>
 7    1  0.2808731E-007  0.3650000E+03  0.7546771E-02  0.9765871E-01
        -11   -1    0    0    0    0  0.00000000000E+00  0.00000000000E+00  0.18250000000E+03  0.18250000000E+03  0.00000000000E+00 0.  1.
         11   -1    0    0    0    0 -0.00000000000E+00 -0.00000000000E+00 -0.18250000000E+03  0.18250000000E+03  0.00000000000E+00 0. -1.
         23    2    1    2    0    0  0.12901489909E+03 -0.27143587637E+02 -0.17375090771E+02  0.16216010807E+03  0.92802954344E+02 0.  0.
        -11    1    3    3    0    0  0.10262706265E+02  0.20214824158E+02  0.18625805713E+02  0.29340805954E+02  0.00000000000E+00 0.  1.
         11    1    3    3    0    0  0.11875219282E+03 -0.47358411795E+02 -0.36000896483E+02  0.13281930212E+03  0.00000000000E+00 0. -1.
        -15    1    1    2    0    0 -0.11555064640E+03  0.10247947097E+02  0.77101705925E+02  0.13930112379E+03  0.17770000000E+01 0.  1.
         15    1    1    2    0    0 -0.13464252690E+02  0.16895640540E+02 -0.59726615154E+02  0.63538768139E+02  0.17770000000E+01 0. -1.
</event>
<event>
 7    1  0.2808731E-007  0.2591325E+03  0.7546771E-02  0.1019886E+00
        -11   -1    0    0    0    0  0.00000000000E+00  0.00000000000E+00  0.18250000000E+03  0.18250000000E+03  0.00000000000E+00 0.  1.
         11   -1    0    0    0    0 -0.00000000000E+00 -0.00000000000E+00 -0.18250000000E+03  0.18250000000E+03  0.00000000000E+00 0. -1.
         23    2    1    2    0    0 -0.46938700812E+02  0.22132638207E+02  0.12659275138E+02  0.10586746484E+03  0.91403323555E+02 0.  0.
        -11    1    3    3    0    0  0.10883153866E+02  0.18784890173E+02 -0.27758938636E+02  0.35240230009E+02  0.00000000000E+00 0. -1.
         11    1    3    3    0    0 -0.57821854678E+02  0.33477480343E+01  0.40418213774E+02  0.70627234832E+02  0.00000000000E+00 0.  1.
        -15    1    1    2    0    0 -0.58517951251E+01  0.81326628103E+02 -0.88543509591E+02  0.12038012612E+03  0.17770000000E+01 0. -1.
         15    1    1    2    0    0  0.52790495937E+02 -0.10345926631E+03  0.75884234453E+02  0.13875240904E+03  0.17770000000E+01 0.  1.
</event>
<event>
 7    1  0.2808731E-007  0.2029934E+03  0.7546771E-02  0.1053220E+00
        -11   -1    0    0    0    0  0.00000000000E+00  0.00000000000E+00  0.18250000000E+03  0.18250000000E+03  0.00000000000E+00 0. -1.
         11   -1    0    0    0    0 -0.00000000000E+00 -0.00000000000E+00 -0.18250000000E+03  0.18250000000E+03  0.00000000000E+00 0.  1.
         23    2    1    2    0    0  0.24646157996E+02 -0.16374682486E+02  0.13210943194E+03  0.16200662470E+03  0.88981352602E+02 0.  0.
        -11    1    3    3    0    0  0.36309228862E+02 -0.39031319113E+01  0.88571627890E+01  0.37577172219E+02  0.00000000000E+00 0.  1.
         11    1    3    3    0    0 -0.11663070866E+02 -0.12471550575E+02  0.12325226915E+03  0.12442945248E+03  0.00000000000E+00 0. -1.
        -15    1    1    2    0    0  0.43084656410E+02 -0.17379919038E+02 -0.11686982935E+03  0.12577783567E+03  0.17770000000E+01 0. -1.
         15    1    1    2    0    0 -0.67730814406E+02  0.33754601523E+02 -0.15239602584E+02  0.77215539628E+02  0.17770000000E+01 0.  1.
</event>
<event>
 7    1  0.2808731E-007  0.1911954E+03  0.7546771E-02  0.1061736E+00
        -11   -1    0    0    0    0  0.00000000000E+00  0.00000000000E+00  0.18250000000E+03  0.18250000000E+03  0.00000000000E+00 0. -1.
         11   -1    0    0    0    0 -0.00000000000E+00 -0.00000000000E+00 -0.18250000000E+03  0.18250000000E+03  0.00000000000E+00 0.  1.
         23    2    1    2    0    0 -0.56991385120E+01  0.11391855125E+03  0.95998246078E+02  0.17380456564E+03  0.89344542573E+02 0.  0.
        -11    1    3    3    0    0  0.82325414740E+01  0.12609984951E+03  0.84506936267E+02  0.15202094942E+03  0.00000000000E+00 0. -1.
         11    1    3    3    0    0 -0.13931679986E+02 -0.12181298256E+02  0.11491309811E+02  0.21783616220E+02  0.00000000000E+00 0.  1.
        -15    1    1    2    0    0 -0.10624695537E+02  0.16750178151E+02 -0.46357148925E+02  0.50453895873E+02  0.17770000000E+01 0. -1.
         15    1    1    2    0    0  0.16323834049E+02 -0.13066872940E+03 -0.49641097153E+02  0.14074153849E+03  0.17770000000E+01 0.  1.
</event>
<event>
 7    1  0.2808731E-007  0.1833036E+03  0.7546771E-02  0.1067817E+00
        -11   -1    0    0    0    0  0.00000000000E+00  0.00000000000E+00  0.18250000000E+03  0.18250000000E+03  0.00000000000E+00 0.  1.
         11   -1    0    0    0    0 -0.00000000000E+00 -0.00000000000E+00 -0.18250000000E+03  0.18250000000E+03  0.00000000000E+00 0. -1.
         23    2    1    2    0    0 -0.66875837713E+02  0.97222560904E+01 -0.14336613581E+03  0.18169635294E+03  0.88841520933E+02 0.  0.
        -11    1    3    3    0    0 -0.33715756372E+02 -0.36378160637E+02 -0.39843136492E+02  0.63620738164E+02  0.00000000000E+00 0.  1.
         11    1    3    3    0    0 -0.33160081341E+02  0.46100416728E+02 -0.10352299932E+03  0.11807561478E+03  0.00000000000E+00 0. -1.
        -15    1    1    2    0    0  0.86382155814E+02 -0.21072027511E+02  0.12830687734E+03  0.15611444420E+03  0.17770000000E+01 0.  1.
         15    1    1    2    0    0 -0.19506318102E+02  0.11349771421E+02  0.15059258474E+02  0.27189202857E+02  0.17770000000E+01 0. -1.
</event>
<event>
 7    1  0.2808731E-007  0.3650000E+03  0.7546771E-02  0.9765871E-01
        -11   -1    0    0    0    0  0.00000000000E+00  0.00000000000E+00  0.18250000000E+03  0.18250000000E+03  0.00000000000E+00 0.  1.
         11   -1    0    0    0    0 -0.00000000000E+00 -0.00000000000E+00 -0.18250000000E+03  0.18250000000E+03  0.00000000000E+00 0. -1.
         23    2    1    2    0    0  0.61085209147E+01 -0.40716061527E+02  0.94357184952E+02  0.13621241613E+03  0.89193229912E+02 0.  0.
        -11    1    3    3    0    0 -0.73667365652E+01 -0.65619745862E+02  0.47054328314E+02  0.81082240150E+02  0.00000000000E+00 0.  1.
         11    1    3    3    0    0  0.13475257480E+02  0.24903684335E+02  0.47302856638E+02  0.55130175981E+02  0.00000000000E+00 0. -1.
        -15    1    1    2    0    0 -0.50254062869E+02  0.64615146267E+02 -0.13917260257E+03  0.16147061342E+03  0.17770000000E+01 0. -1.
         15    1    1    2    0    0  0.44145541954E+02 -0.23899084741E+02  0.44815417617E+02  0.67316970454E+02  0.17770000000E+01 0.  1.
</event>
<event>
 7    1  0.2808731E-007  0.3650000E+03  0.7546771E-02  0.9765871E-01
        -11   -1    0    0    0    0  0.00000000000E+00  0.00000000000E+00  0.18250000000E+03  0.18250000000E+03  0.00000000000E+00 0. -1.
         11   -1    0    0    0    0 -0.00000000000E+00 -0.00000000000E+00 -0.18250000000E+03  0.18250000000E+03  0.00000000000E+00 0.  1.
         23    2    1    2    0    0 -0.91944574095E+02 -0.11242339311E+02  0.15624819000E+02  0.13030347348E+03  0.90303185618E+02 0.  0.
        -11    1    3    3    0    0 -0.73060530390E+02 -0.25764703030E+02 -0.26526606729E+02  0.81886029869E+02  0.00000000000E+00 0.  1.
         11    1    3    3    0    0 -0.18884043705E+02  0.14522363719E+02  0.42151425729E+02  0.48417443609E+02  0.00000000000E+00 0. -1.
        -15    1    1    2    0    0  0.14136102186E+03 -0.20852318705E+02 -0.65762972159E+02  0.15730760927E+03  0.17770000000E+01 0. -1.
         15    1    1    2    0    0 -0.49416447765E+02  0.32094658016E+02  0.50138153159E+02  0.77388917256E+02  0.17770000000E+01 0.  1.
</event>
<event>
 7    1  0.2808731E-007  0.3650000E+03  0.7546771E-02  0.9765871E-01
        -11   -1    0    0    0    0  0.00000000000E+00  0.00000000000E+00  0.18250000000E+03  0.18250000000E+03  0.00000000000E+00 0.  1.
         11   -1    0    0    0    0 -0.00000000000E+00 -0.00000000000E+00 -0.18250000000E+03  0.18250000000E+03  0.00000000000E+00 0. -1.
         23    2    1    2    0    0 -0.52633641401E+02  0.43701592642E+02  0.67855740184E+02  0.13271423291E+03  0.91260817084E+02 0.  0.
        -11    1    3    3    0    0 -0.31336477268E+02  0.66990746382E+02  0.68982819700E+02  0.10113537621E+03  0.00000000000E+00 0.  1.
         11    1    3    3    0    0 -0.21297164133E+02 -0.23289153740E+02 -0.11270795155E+01  0.31578856697E+02  0.00000000000E+00 0. -1.
        -15    1    1    2    0    0  0.26829505946E+02  0.81004214602E+02  0.51137397022E+01  0.85503293711E+02  0.17770000000E+01 0.  1.
         15    1    1    2    0    0  0.25804135455E+02 -0.12470580724E+03 -0.72969479887E+02  0.14678247338E+03  0.17770000000E+01 0. -1.
</event>
<event>
 7    1  0.2808731E-007  0.3650000E+03  0.7546771E-02  0.9765871E-01
        -11   -1    0    0    0    0  0.00000000000E+00  0.00000000000E+00  0.18250000000E+03  0.18250000000E+03  0.00000000000E+00 0.  1.
         11   -1    0    0    0    0 -0.00000000000E+00 -0.00000000000E+00 -0.18250000000E+03  0.18250000000E+03  0.00000000000E+00 0.  1.
         23    2    1    2    0    0 -0.56833013231E+02 -0.66319855675E+02  0.83547037917E+02  0.15124981734E+03  0.90929011052E+02 0.  0.
        -11    1    3    3    0    0 -0.43938100474E+02 -0.25095113740E+02  0.94049302415E+02  0.10679696949E+03  0.00000000000E+00 0.  1.
         11    1    3    3    0    0 -0.12894912757E+02 -0.41224741935E+02 -0.10502264498E+02  0.44452847852E+02  0.00000000000E+00 0.  1.
        -15    1    1    2    0    0  0.44043307661E+02 -0.12568049634E+02  0.43796393483E+02  0.63395982779E+02  0.17770000000E+01 0. -1.
         15    1    1    2    0    0  0.12789705570E+02  0.78887905308E+02 -0.12734343140E+03  0.15035419988E+03  0.17770000000E+01 0.  1.
</event>
<event>
 7    1  0.2808731E-007  0.2522301E+03  0.7546771E-02  0.1023466E+00
        -11   -1    0    0    0    0  0.00000000000E+00  0.00000000000E+00  0.18250000000E+03  0.18250000000E+03  0.00000000000E+00 0. -1.
         11   -1    0    0    0    0 -0.00000000000E+00 -0.00000000000E+00 -0.18250000000E+03  0.18250000000E+03  0.00000000000E+00 0.  1.
         23    2    1    2    0    0  0.57540085686E+02  0.16274265018E+02  0.30293931581E+02  0.11276987839E+03  0.90684122199E+02 0.  0.
        -11    1    3    3    0    0  0.62204426254E+02  0.11937707854E+02 -0.16573271130E+02  0.65471923986E+02  0.00000000000E+00 0.  1.
         11    1    3    3    0    0 -0.46643405677E+01  0.43365571644E+01  0.46867202711E+02  0.47297954405E+02  0.00000000000E+00 0. -1.
        -15    1    1    2    0    0  0.11960005588E+02 -0.11833908732E+03  0.16650621490E+02  0.12011487105E+03  0.17770000000E+01 0. -1.
         15    1    1    2    0    0 -0.69500091274E+02  0.10206482230E+03 -0.46944553071E+02  0.13211525056E+03  0.17770000000E+01 0.  1.
</event>
<event>
 7    1  0.2808731E-007  0.3650000E+03  0.7546771E-02  0.9765871E-01
        -11   -1    0    0    0    0  0.00000000000E+00  0.00000000000E+00  0.18250000000E+03  0.18250000000E+03  0.00000000000E+00 0.  1.
         11   -1    0    0    0    0 -0.00000000000E+00 -0.00000000000E+00 -0.18250000000E+03  0.18250000000E+03  0.00000000000E+00 0. -1.
         23    2    1    2    0    0 -0.16391309067E+02 -0.12597490316E+02 -0.93221793286E+02  0.13331229649E+03  0.93029532279E+02 0.  0.
        -11    1    3    3    0    0  0.16570920133E+02 -0.41863746383E+02 -0.23403396363E+02  0.50743350467E+02  0.00000000000E+00 0. -1.
         11    1    3    3    0    0 -0.32962229201E+02  0.29266256067E+02 -0.69818396923E+02  0.82568946021E+02  0.00000000000E+00 0.  1.
        -15    1    1    2    0    0  0.12709876003E+02  0.10026038289E+03  0.10186650395E+03  0.14350480021E+03  0.17770000000E+01 0.  1.
         15    1    1    2    0    0  0.36814330642E+01 -0.87662892576E+02 -0.86447106660E+01  0.88182903307E+02  0.17770000000E+01 0. -1.
</event>
<event>
 7    1  0.2808731E-007  0.3650000E+03  0.7546771E-02  0.9765871E-01
        -11   -1    0    0    0    0  0.00000000000E+00  0.00000000000E+00  0.18250000000E+03  0.18250000000E+03  0.00000000000E+00 0. -1.
         11   -1    0    0    0    0 -0.00000000000E+00 -0.00000000000E+00 -0.18250000000E+03  0.18250000000E+03  0.00000000000E+00 0. -1.
         23    2    1    2    0    0  0.16724443886E+02  0.85698832863E+02  0.24276542913E+02  0.12804258791E+03  0.90451958547E+02 0.  0.
        -11    1    3    3    0    0  0.13605062137E+02  0.95750438171E+02  0.43563601937E+02  0.10607087979E+03  0.00000000000E+00 0. -1.
         11    1    3    3    0    0  0.31193817489E+01 -0.10051605308E+02 -0.19287059025E+02  0.21971708117E+02  0.00000000000E+00 0. -1.
        -15    1    1    2    0    0  0.85734375205E+00 -0.14295578651E+03  0.40619532483E+02  0.14862770968E+03  0.17770000000E+01 0.  1.
         15    1    1    2    0    0 -0.17581787638E+02  0.57256953650E+02 -0.64896075396E+02  0.88329702414E+02  0.17770000000E+01 0. -1.
</event>
<event>
 7    1  0.2808731E-007  0.2607702E+03  0.7546771E-02  0.1019055E+00
        -11   -1    0    0    0    0  0.00000000000E+00  0.00000000000E+00  0.18250000000E+03  0.18250000000E+03  0.00000000000E+00 0.  1.
         11   -1    0    0    0    0 -0.00000000000E+00 -0.00000000000E+00 -0.18250000000E+03  0.18250000000E+03  0.00000000000E+00 0. -1.
         23    2    1    2    0    0 -0.26324051138E+01 -0.81494762631E+01  0.47809285040E+02  0.10422983758E+03  0.92221406336E+02 0.  0.
        -11    1    3    3    0    0 -0.39017098198E+02 -0.30211846761E+02  0.19174584113E+02  0.52941045630E+02  0.00000000000E+00 0.  1.
         11    1    3    3    0    0  0.36384693084E+02  0.22062370498E+02  0.28634700927E+02  0.51288791953E+02  0.00000000000E+00 0. -1.
        -15    1    1    2    0    0 -0.29840814956E+02  0.10047278732E+03  0.55367557349E+02  0.11854948066E+03  0.17770000000E+01 0.  1.
         15    1    1    2    0    0  0.32473220070E+02 -0.92323311054E+02 -0.10317684239E+03  0.14222068176E+03  0.17770000000E+01 0. -1.
</event>
<event>
 7    1  0.2808731E-007  0.2547251E+03  0.7546771E-02  0.1022158E+00
        -11   -1    0    0    0    0  0.00000000000E+00  0.00000000000E+00  0.18250000000E+03  0.18250000000E+03  0.00000000000E+00 0.  1.
         11   -1    0    0    0    0 -0.00000000000E+00 -0.00000000000E+00 -0.18250000000E+03  0.18250000000E+03  0.00000000000E+00 0. -1.
         23    2    1    2    0    0 -0.54916261343E+01  0.23803544461E+02 -0.56476816959E+02  0.11027490685E+03  0.91510423120E+02 0.  0.
        -11    1    3    3    0    0 -0.45396877579E+02  0.29794664614E+02 -0.34359058747E+02  0.64258411522E+02  0.00000000000E+00 0.  1.
         11    1    3    3    0    0  0.39905251445E+02 -0.59911201522E+01 -0.22117758212E+02  0.46016495324E+02  0.00000000000E+00 0. -1.
        -15    1    1    2    0    0  0.11449351775E+03 -0.62746128310E+02  0.13606240475E+02  0.13127882439E+03  0.17770000000E+01 0. -1.
         15    1    1    2    0    0 -0.10900189162E+03  0.38942583849E+02  0.42870576484E+02  0.12344626876E+03  0.17770000000E+01 0.  1.
</event>
<event>
 7    1  0.2808731E-007  0.2383204E+03  0.7546771E-02  0.1031071E+00
        -11   -1    0    0    0    0  0.00000000000E+00  0.00000000000E+00  0.18250000000E+03  0.18250000000E+03  0.00000000000E+00 0.  1.
         11   -1    0    0    0    0 -0.00000000000E+00 -0.00000000000E+00 -0.18250000000E+03  0.18250000000E+03  0.00000000000E+00 0.  1.
         23    2    1    2    0    0 -0.40192356357E+02  0.10857425896E+02 -0.77964785868E+02  0.12667962845E+03  0.90751921308E+02 0.  0.
        -11    1    3    3    0    0 -0.97737183451E-02  0.34255926839E+02  0.18522742434E+01  0.34305969437E+02  0.00000000000E+00 0.  1.
         11    1    3    3    0    0 -0.40182582638E+02 -0.23398500943E+02 -0.79817060111E+02  0.92373659009E+02  0.00000000000E+00 0.  1.
        -15    1    1    2    0    0  0.48809116864E+01  0.77481351541E+02  0.11284011470E+03  0.13697894856E+03  0.17770000000E+01 0.  1.
         15    1    1    2    0    0  0.35311444670E+02 -0.88338777438E+02 -0.34875328830E+02  0.10134142299E+03  0.17770000000E+01 0. -1.
</event>
<event>
 7    1  0.2808731E-007  0.2450856E+03  0.7546771E-02  0.1027304E+00
        -11   -1    0    0    0    0  0.00000000000E+00  0.00000000000E+00  0.18250000000E+03  0.18250000000E+03  0.00000000000E+00 0.  1.
         11   -1    0    0    0    0 -0.00000000000E+00 -0.00000000000E+00 -0.18250000000E+03  0.18250000000E+03  0.00000000000E+00 0. -1.
         23    2    1    2    0    0 -0.50875934917E+02 -0.13292807426E+02  0.59112861811E+02  0.11991442651E+03  0.90111485237E+02 0.  0.
        -11    1    3    3    0    0 -0.44919030224E+01  0.30048040593E+02  0.45944621568E+02  0.55081486792E+02  0.00000000000E+00 0.  1.
         11    1    3    3    0    0 -0.46384031895E+02 -0.43340848019E+02  0.13168240243E+02  0.64832939721E+02  0.00000000000E+00 0. -1.
        -15    1    1    2    0    0 -0.15472608105E+02  0.11332648748E+03 -0.81985899490E+01  0.11468508609E+03  0.17770000000E+01 0.  1.
         15    1    1    2    0    0  0.66348543022E+02 -0.10003368005E+03 -0.50914271862E+02  0.13040048740E+03  0.17770000000E+01 0. -1.
</event>
<event>
 7    1  0.2808731E-007  0.2003488E+03  0.7546771E-02  0.1055073E+00
        -11   -1    0    0    0    0  0.00000000000E+00  0.00000000000E+00  0.18250000000E+03  0.18250000000E+03  0.00000000000E+00 0.  1.
         11   -1    0    0    0    0 -0.00000000000E+00 -0.00000000000E+00 -0.18250000000E+03  0.18250000000E+03  0.00000000000E+00 0. -1.
         23    2    1    2    0    0 -0.35777514987E+02  0.14485979884E+02 -0.13184771012E+03  0.16465115790E+03  0.90754123551E+02 0.  0.
        -11    1    3    3    0    0 -0.30111402664E+02  0.51572282749E+02 -0.93954693508E+02  0.11132781032E+03  0.00000000000E+00 0. -1.
         11    1    3    3    0    0 -0.56661123226E+01 -0.37086302865E+02 -0.37893016609E+02  0.53323347577E+02  0.00000000000E+00 0.  1.
        -15    1    1    2    0    0 -0.55552148702E+02  0.55530681180E+01  0.36098781016E+02  0.66506823039E+02  0.17770000000E+01 0. -1.
         15    1    1    2    0    0  0.91329663688E+02 -0.20039048002E+02  0.95748929102E+02  0.13384201906E+03  0.17770000000E+01 0.  1.
</event>
<event>
 7    1  0.2808731E-007  0.2585211E+03  0.7546771E-02  0.1020198E+00
        -11   -1    0    0    0    0  0.00000000000E+00  0.00000000000E+00  0.18250000000E+03  0.18250000000E+03  0.00000000000E+00 0.  1.
         11   -1    0    0    0    0 -0.00000000000E+00 -0.00000000000E+00 -0.18250000000E+03  0.18250000000E+03  0.00000000000E+00 0. -1.
         23    2    1    2    0    0  0.51684209213E+02 -0.53686310036E+01 -0.19189709986E+02  0.10647891229E+03  0.90936428964E+02 0.  0.
        -11    1    3    3    0    0  0.40090730180E+02  0.12569515141E+00 -0.55216488809E+02  0.68235936881E+02  0.00000000000E+00 0. -1.
         11    1    3    3    0    0  0.11593479034E+02 -0.54943261550E+01  0.36026778822E+02  0.38242975411E+02  0.00000000000E+00 0.  1.
        -15    1    1    2    0    0 -0.59418605956E+02 -0.74295470703E+02  0.10463622658E+03  0.14142943591E+03  0.17770000000E+01 0.  1.
         15    1    1    2    0    0  0.77343967427E+01  0.79664101707E+02 -0.85446516592E+02  0.11709165180E+03  0.17770000000E+01 0. -1.
</event>
<event>
 7    1  0.2808731E-007  0.3650000E+03  0.7546771E-02  0.9765871E-01
        -11   -1    0    0    0    0  0.00000000000E+00  0.00000000000E+00  0.18250000000E+03  0.18250000000E+03  0.00000000000E+00 0. -1.
         11   -1    0    0    0    0 -0.00000000000E+00 -0.00000000000E+00 -0.18250000000E+03  0.18250000000E+03  0.00000000000E+00 0.  1.
         23    2    1    2    0    0 -0.92626980785E+02  0.65808449328E+02  0.90207708432E+01  0.14661080169E+03  0.92210863205E+02 0.  0.
        -11    1    3    3    0    0  0.26001339821E+01  0.45335821811E+02 -0.11992056085E+02  0.46967082570E+02  0.00000000000E+00 0.  1.
         11    1    3    3    0    0 -0.95227114767E+02  0.20472627517E+02  0.21012826929E+02  0.99643719119E+02  0.00000000000E+00 0. -1.
        -15    1    1    2    0    0  0.57432295193E+02 -0.13039594073E+03  0.85284208145E+01  0.14274964651E+03  0.17770000000E+01 0. -1.
         15    1    1    2    0    0  0.35194685592E+02  0.64587491399E+02 -0.17549191658E+02  0.75639551797E+02  0.17770000000E+01 0.  1.
</event>
<event>
 7    1  0.2808731E-007  0.3650000E+03  0.7546771E-02  0.9765871E-01
        -11   -1    0    0    0    0  0.00000000000E+00  0.00000000000E+00  0.18250000000E+03  0.18250000000E+03  0.00000000000E+00 0.  1.
         11   -1    0    0    0    0 -0.00000000000E+00 -0.00000000000E+00 -0.18250000000E+03  0.18250000000E+03  0.00000000000E+00 0. -1.
         23    2    1    2    0    0  0.52330331427E+01 -0.57777330368E+02  0.14413120281E+02  0.11386216203E+03  0.96908458684E+02 0.  0.
        -11    1    3    3    0    0  0.45670030634E+02 -0.56279281394E+02  0.88400581999E+01  0.73015449333E+02  0.00000000000E+00 0.  1.
         11    1    3    3    0    0 -0.40436997491E+02 -0.14980489740E+01  0.55730620810E+01  0.40846712692E+02  0.00000000000E+00 0. -1.
        -15    1    1    2    0    0  0.70202533812E+02  0.12364618573E+03  0.23335483904E+02  0.14409884641E+03  0.17770000000E+01 0.  1.
         15    1    1    2    0    0 -0.75435566954E+02 -0.65868855361E+02 -0.37748604185E+02  0.10703899156E+03  0.17770000000E+01 0. -1.
</event>
<event>
 7    1  0.2808731E-007  0.3650000E+03  0.7546771E-02  0.9765871E-01
        -11   -1    0    0    0    0  0.00000000000E+00  0.00000000000E+00  0.18250000000E+03  0.18250000000E+03  0.00000000000E+00 0.  1.
         11   -1    0    0    0    0 -0.00000000000E+00 -0.00000000000E+00 -0.18250000000E+03  0.18250000000E+03  0.00000000000E+00 0.  1.
         23    2    1    2    0    0  0.59621673447E+01  0.11986113141E+03 -0.47249287786E+02  0.14409184994E+03  0.64247394987E+02 0.  0.
        -11    1    3    3    0    0  0.32593305706E+01  0.59381912337E+01 -0.27645031685E+02  0.28462837662E+02  0.00000000000E+00 0.  1.
         11    1    3    3    0    0  0.27028367741E+01  0.11392294017E+03 -0.19604256101E+02  0.11562901228E+03  0.00000000000E+00 0.  1.
        -15    1    1    2    0    0  0.19245954939E+02 -0.14717963879E+03  0.82346867248E+02  0.16975399003E+03  0.17770000000E+01 0.  1.
         15    1    1    2    0    0 -0.25208122283E+02  0.27318507386E+02 -0.35097579462E+02  0.51154160026E+02  0.17770000000E+01 0. -1.
</event>
<event>
 7    1  0.2808731E-007  0.2592674E+03  0.7546771E-02  0.1019817E+00
        -11   -1    0    0    0    0  0.00000000000E+00  0.00000000000E+00  0.18250000000E+03  0.18250000000E+03  0.00000000000E+00 0. -1.
         11   -1    0    0    0    0 -0.00000000000E+00 -0.00000000000E+00 -0.18250000000E+03  0.18250000000E+03  0.00000000000E+00 0.  1.
         23    2    1    2    0    0 -0.31535557019E+01 -0.33509095214E+02 -0.44969084342E+02  0.10573260355E+03  0.89578795102E+02 0.  0.
        -11    1    3    3    0    0 -0.19537396830E+02  0.25152295811E+02 -0.28251842250E+02  0.42573635621E+02  0.00000000000E+00 0. -1.
         11    1    3    3    0    0  0.16383841128E+02 -0.58661391025E+02 -0.16717242091E+02  0.63158967932E+02  0.00000000000E+00 0.  1.
        -15    1    1    2    0    0  0.89538340479E+02 -0.41400774318E+02  0.92673647761E+02  0.13536137281E+03  0.17770000000E+01 0. -1.
         15    1    1    2    0    0 -0.86384784777E+02  0.74909869532E+02 -0.47704563419E+02  0.12390602364E+03  0.17770000000E+01 0.  1.
</event>
<event>
 7    1  0.2808731E-007  0.1873891E+03  0.7546771E-02  0.1064628E+00
        -11   -1    0    0    0    0  0.00000000000E+00  0.00000000000E+00  0.18250000000E+03  0.18250000000E+03  0.00000000000E+00 0.  1.
         11   -1    0    0    0    0 -0.00000000000E+00 -0.00000000000E+00 -0.18250000000E+03  0.18250000000E+03  0.00000000000E+00 0. -1.
         23    2    1    2    0    0 -0.15410567585E+03  0.21429835035E+02 -0.13907064324E+00  0.17761092107E+03  0.85661092582E+02 0.  0.
        -11    1    3    3    0    0 -0.12678744808E+03  0.18528843424E+02 -0.35378403611E+02  0.13292857658E+03  0.00000000000E+00 0. -1.
         11    1    3    3    0    0 -0.27318227771E+02  0.29009916105E+01  0.35239332968E+02  0.44682344487E+02  0.00000000000E+00 0.  1.
        -15    1    1    2    0    0  0.16554305166E+02  0.28348879240E+02 -0.21819009254E+02  0.39457963297E+02  0.17770000000E+01 0.  1.
         15    1    1    2    0    0  0.13755137068E+03 -0.49778714275E+02  0.21958079898E+02  0.14793111564E+03  0.17770000000E+01 0. -1.
</event>
<event>
 7    1  0.2808731E-007  0.3650000E+03  0.7546771E-02  0.9765871E-01
        -11   -1    0    0    0    0  0.00000000000E+00  0.00000000000E+00  0.18250000000E+03  0.18250000000E+03  0.00000000000E+00 0. -1.
         11   -1    0    0    0    0 -0.00000000000E+00 -0.00000000000E+00 -0.18250000000E+03  0.18250000000E+03  0.00000000000E+00 0.  1.
         23    2    1    2    0    0  0.27971254553E+02  0.20250241548E+02  0.10137832175E+03  0.13996143482E+03  0.90106468973E+02 0.  0.
        -11    1    3    3    0    0 -0.30758513290E+02 -0.72946765509E+01  0.34447052015E+02  0.46753586368E+02  0.00000000000E+00 0.  1.
         11    1    3    3    0    0  0.58729767842E+02  0.27544918099E+02  0.66931269736E+02  0.93207848448E+02  0.00000000000E+00 0. -1.
        -15    1    1    2    0    0  0.81457254144E+02 -0.10506175915E+02 -0.11232674928E+02  0.82915587799E+02  0.17770000000E+01 0. -1.
         15    1    1    2    0    0 -0.10942850870E+03 -0.97440656328E+01 -0.90145646823E+02  0.14212297738E+03  0.17770000000E+01 0.  1.
</event>
<event>
 7    1  0.2808731E-007  0.3650000E+03  0.7546771E-02  0.9765871E-01
        -11   -1    0    0    0    0  0.00000000000E+00  0.00000000000E+00  0.18250000000E+03  0.18250000000E+03  0.00000000000E+00 0. -1.
         11   -1    0    0    0    0 -0.00000000000E+00 -0.00000000000E+00 -0.18250000000E+03  0.18250000000E+03  0.00000000000E+00 0.  1.
         23    2    1    2    0    0  0.36810353266E+02  0.77359336893E+02  0.10173276259E+02  0.12361968768E+03  0.88537350987E+02 0.  0.
        -11    1    3    3    0    0  0.13319005349E+02  0.83868818713E+02 -0.17538740771E+02  0.86712064234E+02  0.00000000000E+00 0.  1.
         11    1    3    3    0    0  0.23491347916E+02 -0.65094818206E+01  0.27712017029E+02  0.36907623445E+02  0.00000000000E+00 0. -1.
        -15    1    1    2    0    0 -0.11308626578E+03 -0.77375177728E+02 -0.60692929293E+02  0.14987398384E+03  0.17770000000E+01 0. -1.
         15    1    1    2    0    0  0.76275912514E+02  0.15840835556E-01  0.50519653035E+02  0.91506328483E+02  0.17770000000E+01 0.  1.
</event>
<event>
 7    1  0.2808731E-007  0.3650000E+03  0.7546771E-02  0.9765871E-01
        -11   -1    0    0    0    0  0.00000000000E+00  0.00000000000E+00  0.18250000000E+03  0.18250000000E+03  0.00000000000E+00 0.  1.
         11   -1    0    0    0    0 -0.00000000000E+00 -0.00000000000E+00 -0.18250000000E+03  0.18250000000E+03  0.00000000000E+00 0. -1.
         23    2    1    2    0    0 -0.48742335887E+02 -0.49619026434E+02 -0.69103091752E+01  0.11494427157E+03  0.91250041655E+02 0.  0.
        -11    1    3    3    0    0 -0.72769043726E+02 -0.25900069070E+02  0.87354510679E+01  0.77733232327E+02  0.00000000000E+00 0. -1.
         11    1    3    3    0    0  0.24026707839E+02 -0.23718957364E+02 -0.15645760243E+02  0.37211039244E+02  0.00000000000E+00 0.  1.
        -15    1    1    2    0    0 -0.49877703839E+02 -0.74014815363E+02 -0.14546703444E+02  0.90447457364E+02  0.17770000000E+01 0. -1.
         15    1    1    2    0    0  0.98620039726E+02  0.12363384180E+03  0.21457012620E+02  0.15960827107E+03  0.17770000000E+01 0.  1.
</event>
<event>
 7    1  0.2808731E-007  0.2025910E+03  0.7546771E-02  0.1053500E+00
        -11   -1    0    0    0    0  0.00000000000E+00  0.00000000000E+00  0.18250000000E+03  0.18250000000E+03  0.00000000000E+00 0.  1.
         11   -1    0    0    0    0 -0.00000000000E+00 -0.00000000000E+00 -0.18250000000E+03  0.18250000000E+03  0.00000000000E+00 0. -1.
         23    2    1    2    0    0  0.46276592754E+02  0.69440927478E+02 -0.11020858518E+03  0.16240904362E+03  0.85247872441E+02 0.  0.
        -11    1    3    3    0    0 -0.14913273976E+02  0.20958100466E+02  0.19038308215E+01  0.25792872807E+02  0.00000000000E+00 0.  1.
         11    1    3    3    0    0  0.61189866730E+02  0.48482827012E+02 -0.11211241600E+03  0.13661617081E+03  0.00000000000E+00 0. -1.
        -15    1    1    2    0    0 -0.41510704141E+02 -0.37956143978E+02  0.14491358298E+03  0.15545710562E+03  0.17770000000E+01 0.  1.
         15    1    1    2    0    0 -0.47658886131E+01 -0.31484783501E+02 -0.34704997807E+02  0.47133850767E+02  0.17770000000E+01 0. -1.
</event>
<event>
 7    1  0.2808731E-007  0.3650000E+03  0.7546771E-02  0.9765871E-01
        -11   -1    0    0    0    0  0.00000000000E+00  0.00000000000E+00  0.18250000000E+03  0.18250000000E+03  0.00000000000E+00 0.  1.
         11   -1    0    0    0    0 -0.00000000000E+00 -0.00000000000E+00 -0.18250000000E+03  0.18250000000E+03  0.00000000000E+00 0. -1.
         23    2    1    2    0    0 -0.91215155837E+01  0.53141044678E+02 -0.62437056194E+02  0.12315937504E+03  0.91447651678E+02 0.  0.
        -11    1    3    3    0    0  0.38385001957E+01  0.71978506773E+02 -0.19755420896E+02  0.74738986987E+02  0.00000000000E+00 0. -1.
         11    1    3    3    0    0 -0.12960015779E+02 -0.18837462096E+02 -0.42681635298E+02  0.48420388050E+02  0.00000000000E+00 0.  1.
        -15    1    1    2    0    0  0.63399662288E+02 -0.54730290871E+02  0.13030099448E+03  0.15490780745E+03  0.17770000000E+01 0.  1.
         15    1    1    2    0    0 -0.54278146704E+02  0.15892461940E+01 -0.67863938283E+02  0.86932817517E+02  0.17770000000E+01 0. -1.
</event>
<event>
 7    1  0.2808731E-007  0.1978098E+03  0.7546771E-02  0.1056882E+00
        -11   -1    0    0    0    0  0.00000000000E+00  0.00000000000E+00  0.18250000000E+03  0.18250000000E+03  0.00000000000E+00 0.  1.
         11   -1    0    0    0    0 -0.00000000000E+00 -0.00000000000E+00 -0.18250000000E+03  0.18250000000E+03  0.00000000000E+00 0. -1.
         23    2    1    2    0    0  0.34447704614E+02  0.12301906954E+03 -0.53524348962E+02  0.16719020842E+03  0.93634256753E+02 0.  0.
        -11    1    3    3    0    0 -0.32462894810E+02  0.43512635128E+02 -0.22254886016E+02  0.58672556675E+02  0.00000000000E+00 0.  1.
         11    1    3    3    0    0  0.66910599425E+02  0.79506434410E+02 -0.31269462946E+02  0.10851765175E+03  0.00000000000E+00 0. -1.
        -15    1    1    2    0    0 -0.13095401307E+02 -0.15099633736E+03  0.27609672947E+02  0.15406763190E+03  0.17770000000E+01 0.  1.
         15    1    1    2    0    0 -0.21352303307E+02  0.27977267819E+02  0.25914676015E+02  0.43742159676E+02  0.17770000000E+01 0. -1.
</event>
<event>
 7    1  0.2808731E-007  0.2658383E+03  0.7546771E-02  0.1016522E+00
        -11   -1    0    0    0    0  0.00000000000E+00  0.00000000000E+00  0.18250000000E+03  0.18250000000E+03  0.00000000000E+00 0.  1.
         11   -1    0    0    0    0 -0.00000000000E+00 -0.00000000000E+00 -0.18250000000E+03  0.18250000000E+03  0.00000000000E+00 0. -1.
         23    2    1    2    0    0  0.20245966525E+02 -0.89766068754E+01  0.32015867535E+02  0.99161730142E+02  0.91200626747E+02 0.  0.
        -11    1    3    3    0    0 -0.18807521760E+02 -0.39411252587E+02  0.91150890932E+01  0.44610027510E+02  0.00000000000E+00 0.  1.
         11    1    3    3    0    0  0.39053488285E+02  0.30434645712E+02  0.22900778442E+02  0.54551702632E+02  0.00000000000E+00 0. -1.
        -15    1    1    2    0    0 -0.11182995810E+03  0.12225709964E+02  0.66969373156E+02  0.13093304465E+03  0.17770000000E+01 0.  1.
         15    1    1    2    0    0  0.91583991574E+02 -0.32491030888E+01 -0.98985240691E+02  0.13490522520E+03  0.17770000000E+01 0. -1.
</event>
<event>
 7    1  0.2808731E-007  0.3650000E+03  0.7546771E-02  0.9765871E-01
        -11   -1    0    0    0    0  0.00000000000E+00  0.00000000000E+00  0.18250000000E+03  0.18250000000E+03  0.00000000000E+00 0.  1.
         11   -1    0    0    0    0 -0.00000000000E+00 -0.00000000000E+00 -0.18250000000E+03  0.18250000000E+03  0.00000000000E+00 0. -1.
         23    2    1    2    0    0  0.77689797603E+02  0.58884115338E+02  0.47278900986E+01  0.13380236218E+03  0.91529642676E+02 0.  0.
        -11    1    3    3    0    0  0.81969590466E+02  0.17929201149E+02  0.25479880706E+02  0.87690902241E+02  0.00000000000E+00 0. -1.
         11    1    3    3    0    0 -0.42797928629E+01  0.40954914189E+02 -0.20751990608E+02  0.46111459935E+02  0.00000000000E+00 0.  1.
        -15    1    1    2    0    0 -0.68355147129E+02 -0.10389783811E+03  0.70534713387E+02  0.14298772823E+03  0.17770000000E+01 0.  1.
         15    1    1    2    0    0 -0.93346504740E+01  0.45013722775E+02 -0.75262603486E+02  0.88209909591E+02  0.17770000000E+01 0. -1.
</event>
<event>
 7    1  0.2808731E-007  0.2498047E+03  0.7546771E-02  0.1024753E+00
        -11   -1    0    0    0    0  0.00000000000E+00  0.00000000000E+00  0.18250000000E+03  0.18250000000E+03  0.00000000000E+00 0. -1.
         11   -1    0    0    0    0 -0.00000000000E+00 -0.00000000000E+00 -0.18250000000E+03  0.18250000000E+03  0.00000000000E+00 0.  1.
         23    2    1    2    0    0  0.75203331469E+01 -0.55558306543E+02  0.27504499150E+02  0.11519529992E+03  0.96799683955E+02 0.  0.
        -11    1    3    3    0    0  0.16322662312E+02 -0.75992230324E+02 -0.25908313028E+01  0.77768636232E+02  0.00000000000E+00 0.  1.
         11    1    3    3    0    0 -0.88023291646E+01  0.20433923781E+02  0.30095330453E+02  0.37426663689E+02  0.00000000000E+00 0. -1.
        -15    1    1    2    0    0 -0.10343744034E+03  0.93226771226E+02  0.11204695990E+02  0.13971126611E+03  0.17770000000E+01 0. -1.
         15    1    1    2    0    0  0.95917107197E+02 -0.37668464683E+02 -0.38709195141E+02  0.11009343396E+03  0.17770000000E+01 0.  1.
</event>
<event>
 7    1  0.2808731E-007  0.3650000E+03  0.7546771E-02  0.9765871E-01
        -11   -1    0    0    0    0  0.00000000000E+00  0.00000000000E+00  0.18250000000E+03  0.18250000000E+03  0.00000000000E+00 0.  1.
         11   -1    0    0    0    0 -0.00000000000E+00 -0.00000000000E+00 -0.18250000000E+03  0.18250000000E+03  0.00000000000E+00 0. -1.
         23    2    1    2    0    0  0.44192291350E+02 -0.10711227158E+02  0.12187746819E+03  0.15780792994E+03  0.89339445362E+02 0.  0.
        -11    1    3    3    0    0 -0.20138750459E+02  0.18536474566E+02  0.20347053683E+02  0.34105318544E+02  0.00000000000E+00 0. -1.
         11    1    3    3    0    0  0.64331041810E+02 -0.29247701723E+02  0.10153041450E+03  0.12370261139E+03  0.00000000000E+00 0.  1.
        -15    1    1    2    0    0  0.47016267347E+02  0.35395561210E+02 -0.83343460431E+01  0.59464226234E+02  0.17770000000E+01 0.  1.
         15    1    1    2    0    0 -0.91208558698E+02 -0.24684334053E+02 -0.11354312214E+03  0.14772784383E+03  0.17770000000E+01 0. -1.
</event>
<event>
 7    1  0.2808731E-007  0.2351962E+03  0.7546771E-02  0.1032857E+00
        -11   -1    0    0    0    0  0.00000000000E+00  0.00000000000E+00  0.18250000000E+03  0.18250000000E+03  0.00000000000E+00 0.  1.
         11   -1    0    0    0    0 -0.00000000000E+00 -0.00000000000E+00 -0.18250000000E+03  0.18250000000E+03  0.00000000000E+00 0. -1.
         23    2    1    2    0    0 -0.73453974503E+02 -0.43180061001E+02 -0.34731852988E+02  0.12980376875E+03  0.91557155544E+02 0.  0.
        -11    1    3    3    0    0 -0.73935397855E+02  0.64101003424E+01 -0.11720427202E+02  0.75132555235E+02  0.00000000000E+00 0.  1.
         11    1    3    3    0    0  0.48142335161E+00 -0.49590161343E+02 -0.23011425786E+02  0.54671213515E+02  0.00000000000E+00 0. -1.
        -15    1    1    2    0    0 -0.37095647210E+02  0.94619875510E+02  0.48226217779E+02  0.11250748283E+03  0.17770000000E+01 0.  1.
         15    1    1    2    0    0  0.11054962171E+03 -0.51439814509E+02 -0.13494364790E+02  0.12268874842E+03  0.17770000000E+01 0. -1.
</event>
<event>
 7    1  0.2808731E-007  0.3650000E+03  0.7546771E-02  0.9765871E-01
        -11   -1    0    0    0    0  0.00000000000E+00  0.00000000000E+00  0.18250000000E+03  0.18250000000E+03  0.00000000000E+00 0. -1.
         11   -1    0    0    0    0 -0.00000000000E+00 -0.00000000000E+00 -0.18250000000E+03  0.18250000000E+03  0.00000000000E+00 0.  1.
         23    2    1    2    0    0  0.72302654540E+02  0.19714514768E+02  0.48519480402E+01  0.11714673964E+03  0.89908182394E+02 0.  0.
        -11    1    3    3    0    0  0.76737487026E+01 -0.14660677716E+02 -0.31374713047E+02  0.35471037609E+02  0.00000000000E+00 0.  1.
         11    1    3    3    0    0  0.64628905838E+02  0.34375192485E+02  0.36226661087E+02  0.81675702027E+02  0.00000000000E+00 0. -1.
        -15    1    1    2    0    0  0.71121841509E+02 -0.55630508378E+02 -0.35161045374E+02  0.96915048588E+02  0.17770000000E+01 0. -1.
         15    1    1    2    0    0 -0.14342449605E+03  0.35915993609E+02  0.30309097334E+02  0.15093821178E+03  0.17770000000E+01 0.  1.
</event>
<event>
 7    1  0.2808731E-007  0.3650000E+03  0.7546771E-02  0.9765871E-01
        -11   -1    0    0    0    0  0.00000000000E+00  0.00000000000E+00  0.18250000000E+03  0.18250000000E+03  0.00000000000E+00 0.  1.
         11   -1    0    0    0    0 -0.00000000000E+00 -0.00000000000E+00 -0.18250000000E+03  0.18250000000E+03  0.00000000000E+00 0. -1.
         23    2    1    2    0    0  0.84039980299E+02 -0.33805564193E+02 -0.20050969736E+02  0.13080948831E+03  0.92214675543E+02 0.  0.
        -11    1    3    3    0    0  0.73367012006E+02 -0.59883397786E+02  0.24734756283E+01  0.94735726432E+02  0.00000000000E+00 0.  1.
         11    1    3    3    0    0  0.10672968294E+02  0.26077833592E+02 -0.22524445364E+02  0.36073761878E+02  0.00000000000E+00 0. -1.
        -15    1    1    2    0    0  0.38628747502E+02  0.80854067002E+02 -0.28601376156E+02  0.94078460507E+02  0.17770000000E+01 0.  1.
         15    1    1    2    0    0 -0.12266872780E+03 -0.47048502808E+02  0.48652345891E+02  0.14011205118E+03  0.17770000000E+01 0. -1.
</event>
<event>
 7    1  0.2808731E-007  0.2419739E+03  0.7546771E-02  0.1029020E+00
        -11   -1    0    0    0    0  0.00000000000E+00  0.00000000000E+00  0.18250000000E+03  0.18250000000E+03  0.00000000000E+00 0.  1.
         11   -1    0    0    0    0 -0.00000000000E+00 -0.00000000000E+00 -0.18250000000E+03  0.18250000000E+03  0.00000000000E+00 0. -1.
         23    2    1    2    0    0 -0.81868927749E+02  0.18236481622E+02  0.31590713399E+01  0.12302605450E+03  0.89946315993E+02 0.  0.
        -11    1    3    3    0    0 -0.59028231646E+02 -0.31650360031E+02  0.10049908882E+02  0.67727971252E+02  0.00000000000E+00 0. -1.
         11    1    3    3    0    0 -0.22840696103E+02  0.49886841653E+02 -0.68908375418E+01  0.55298083246E+02  0.00000000000E+00 0.  1.
        -15    1    1    2    0    0  0.10046430031E+03  0.17503649612E+02  0.92795236921E+02  0.13788969182E+03  0.17770000000E+01 0.  1.
         15    1    1    2    0    0 -0.18595372562E+02 -0.35740131234E+02 -0.95954308261E+02  0.10408425368E+03  0.17770000000E+01 0. -1.
</event>
<event>
 7    1  0.2808731E-007  0.2362950E+03  0.7546771E-02  0.1032225E+00
        -11   -1    0    0    0    0  0.00000000000E+00  0.00000000000E+00  0.18250000000E+03  0.18250000000E+03  0.00000000000E+00 0.  1.
         11   -1    0    0    0    0 -0.00000000000E+00 -0.00000000000E+00 -0.18250000000E+03  0.18250000000E+03  0.00000000000E+00 0. -1.
         23    2    1    2    0    0 -0.84611075988E+02  0.54848707718E+00  0.30143402944E+02  0.12870495034E+03  0.92179197666E+02 0.  0.
        -11    1    3    3    0    0 -0.54144010811E+02  0.35127172269E+02  0.46776616032E+02  0.79709120844E+02  0.00000000000E+00 0.  1.
         11    1    3    3    0    0 -0.30467065178E+02 -0.34578685192E+02 -0.16633213088E+02  0.48995829494E+02  0.00000000000E+00 0. -1.
        -15    1    1    2    0    0  0.70904846483E+02  0.79889875674E+02  0.53457171003E+02  0.11946010359E+03  0.17770000000E+01 0.  1.
         15    1    1    2    0    0  0.13706229505E+02 -0.80438362751E+02 -0.83600573947E+02  0.11683494607E+03  0.17770000000E+01 0. -1.
</event>
<event>
 7    1  0.2808731E-007  0.2024305E+03  0.7546771E-02  0.1053612E+00
        -11   -1    0    0    0    0  0.00000000000E+00  0.00000000000E+00  0.18250000000E+03  0.18250000000E+03  0.00000000000E+00 0. -1.
         11   -1    0    0    0    0 -0.00000000000E+00 -0.00000000000E+00 -0.18250000000E+03  0.18250000000E+03  0.00000000000E+00 0.  1.
         23    2    1    2    0    0 -0.11371546445E+03 -0.59072592081E+02  0.26908307812E+02  0.16256947348E+03  0.96353508954E+02 0.  0.
        -11    1    3    3    0    0 -0.70273657308E+02  0.96486901302E+01  0.38074401889E+02  0.80505553919E+02  0.00000000000E+00 0. -1.
         11    1    3    3    0    0 -0.43441807139E+02 -0.68721282211E+02 -0.11166094077E+02  0.82063919558E+02  0.00000000000E+00 0.  1.
        -15    1    1    2    0    0  0.10978050780E+03 -0.26528682281E+02 -0.29279929844E+02  0.11668762958E+03  0.17770000000E+01 0. -1.
         15    1    1    2    0    0  0.39349566469E+01  0.85601274362E+02  0.23716220314E+01  0.85742896944E+02  0.17770000000E+01 0.  1.
</event>
<event>
 6    1  0.2808731E-007  0.1514415E+03  0.7546771E-02  0.1096275E+00
        -11   -1    0    0    0    0  0.00000000000E+00  0.00000000000E+00  0.18250000000E+03  0.18250000000E+03  0.00000000000E+00 0.  1.
         11   -1    0    0    0    0 -0.00000000000E+00 -0.00000000000E+00 -0.18250000000E+03  0.18250000000E+03  0.00000000000E+00 0. -1.
        -11    1    1    2    0    0 -0.12620485729E+01  0.12106705616E+02  0.58439464616E+01  0.13502473763E+02  0.00000000000E+00 0.  1.
         11    1    1    2    0    0 -0.30372465295E+02 -0.32988537528E+02 -0.11146348039E+02  0.46205749977E+02  0.00000000000E+00 0. -1.
        -15    1    1    2    0    0  0.16063748081E+03  0.50060456838E+02 -0.23554238756E+02  0.16990706127E+03  0.17770000000E+01 0. -1.
         15    1    1    2    0    0 -0.12900296694E+03 -0.29178624927E+02  0.28856640333E+02  0.13538471499E+03  0.17770000000E+01 0.  1.
</event>
<event>
 7    1  0.2808731E-007  0.3650000E+03  0.7546771E-02  0.9765871E-01
        -11   -1    0    0    0    0  0.00000000000E+00  0.00000000000E+00  0.18250000000E+03  0.18250000000E+03  0.00000000000E+00 0. -1.
         11   -1    0    0    0    0 -0.00000000000E+00 -0.00000000000E+00 -0.18250000000E+03  0.18250000000E+03  0.00000000000E+00 0.  1.
         23    2    1    2    0    0  0.19334487008E+02  0.11340636564E+01 -0.11631287131E+02  0.96539158538E+02  0.93858477522E+02 0.  0.
        -11    1    3    3    0    0 -0.17462314930E+02 -0.33176687148E+02  0.14068008979E+02  0.40044149253E+02  0.00000000000E+00 0. -1.
         11    1    3    3    0    0  0.36796801938E+02  0.34310750804E+02 -0.25699296109E+02  0.56495009285E+02  0.00000000000E+00 0.  1.
        -15    1    1    2    0    0 -0.86214975087E+02  0.67241167964E+02  0.92477075535E+02  0.14321160507E+03  0.17770000000E+01 0. -1.
         15    1    1    2    0    0  0.66880488079E+02 -0.68375231621E+02 -0.80845788405E+02  0.12524923639E+03  0.17770000000E+01 0.  1.
</event>
<event>
 7    1  0.2808731E-007  0.3650000E+03  0.7546771E-02  0.9765871E-01
        -11   -1    0    0    0    0  0.00000000000E+00  0.00000000000E+00  0.18250000000E+03  0.18250000000E+03  0.00000000000E+00 0. -1.
         11   -1    0    0    0    0 -0.00000000000E+00 -0.00000000000E+00 -0.18250000000E+03  0.18250000000E+03  0.00000000000E+00 0.  1.
         23    2    1    2    0    0 -0.73012095839E+02  0.23620666830E+02  0.30424990311E+02  0.12353152010E+03  0.91900241471E+02 0.  0.
        -11    1    3    3    0    0  0.21955623515E+02  0.42245335362E+01  0.99095599138E+01  0.24455990375E+02  0.00000000000E+00 0.  1.
         11    1    3    3    0    0 -0.94967719354E+02  0.19396133293E+02  0.20515430397E+02  0.99075529725E+02  0.00000000000E+00 0. -1.
        -15    1    1    2    0    0 -0.23594363608E+02  0.86795073246E+02  0.64164312905E+01  0.90190947735E+02  0.17770000000E+01 0. -1.
         15    1    1    2    0    0  0.96606459447E+02 -0.11041574008E+03 -0.36841421602E+02  0.15127753217E+03  0.17770000000E+01 0.  1.
</event>
<event>
 7    1  0.2808731E-007  0.3650000E+03  0.7546771E-02  0.9765871E-01
        -11   -1    0    0    0    0  0.00000000000E+00  0.00000000000E+00  0.18250000000E+03  0.18250000000E+03  0.00000000000E+00 0.  1.
         11   -1    0    0    0    0 -0.00000000000E+00 -0.00000000000E+00 -0.18250000000E+03  0.18250000000E+03  0.00000000000E+00 0. -1.
         23    2    1    2    0    0  0.67872166983E+02  0.13696235862E+02 -0.13104423693E+02  0.11452805352E+03  0.90281400051E+02 0.  0.
        -11    1    3    3    0    0  0.85591879447E+02 -0.39728443360E+01  0.12234919085E+01  0.85692766625E+02  0.00000000000E+00 0.  1.
         11    1    3    3    0    0 -0.17719712464E+02  0.17669080198E+02 -0.14327915602E+02  0.28835286896E+02  0.00000000000E+00 0. -1.
        -15    1    1    2    0    0  0.83792021593E+02  0.34622458551E+02  0.10284046867E+02  0.91261913566E+02  0.17770000000E+01 0.  1.
         15    1    1    2    0    0 -0.15166418858E+03 -0.48318694413E+02  0.28203768260E+01  0.15921003291E+03  0.17770000000E+01 0. -1.
</event>
<event>
 7    1  0.3427408E-007  0.3650000E+03  0.7546771E-02  0.9765871E-01
        -11   -1    0    0    0    0  0.00000000000E+00  0.00000000000E+00  0.18250000000E+03  0.18250000000E+03  0.00000000000E+00 0.  1.
         11   -1    0    0    0    0 -0.00000000000E+00 -0.00000000000E+00 -0.18250000000E+03  0.18250000000E+03  0.00000000000E+00 0. -1.
         23    2    1    2    0    0 -0.23464412567E+02 -0.66962992590E+02 -0.12122944012E+02  0.11957819560E+03  0.95484857743E+02 0.  0.
        -11    1    3    3    0    0  0.13346686294E+02 -0.37935448670E+02 -0.46476084503E+02  0.61459407185E+02  0.00000000000E+00 0.  1.
         11    1    3    3    0    0 -0.36811098862E+02 -0.29027543920E+02  0.34353140491E+02  0.58118788416E+02  0.00000000000E+00 0. -1.
        -15    1    1    2    0    0  0.34965029262E+02  0.14247586515E+03  0.56322694264E+02  0.15715383876E+03  0.17770000000E+01 0.  1.
         15    1    1    2    0    0 -0.11500616695E+02 -0.75512872555E+02 -0.44199750252E+02  0.88267965634E+02  0.17770000000E+01 0. -1.
</event>
<event>
 7    1  0.2808731E-007  0.2370665E+03  0.7546771E-02  0.1031784E+00
        -11   -1    0    0    0    0  0.00000000000E+00  0.00000000000E+00  0.18250000000E+03  0.18250000000E+03  0.00000000000E+00 0.  1.
         11   -1    0    0    0    0 -0.00000000000E+00 -0.00000000000E+00 -0.18250000000E+03  0.18250000000E+03  0.00000000000E+00 0. -1.
         23    2    1    2    0    0 -0.83700360103E+02  0.38225769528E+02  0.15082953981E+02  0.12793353913E+03  0.87593008838E+02 0.  0.
        -11    1    3    3    0    0 -0.24614285255E+02 -0.99187717331E+01 -0.29463703856E+02  0.39652930739E+02  0.00000000000E+00 0. -1.
         11    1    3    3    0    0 -0.59086074848E+02  0.48144541261E+02  0.44546657837E+02  0.88280608395E+02  0.00000000000E+00 0.  1.
        -15    1    1    2    0    0  0.52537324380E+01 -0.12176711380E+03 -0.47003691693E+01  0.12198394529E+03  0.17770000000E+01 0.  1.
         15    1    1    2    0    0  0.78446627665E+02  0.83541344275E+02 -0.10382584811E+02  0.11508251558E+03  0.17770000000E+01 0. -1.
</event>
<event>
 7    1  0.2809336E-007  0.3650000E+03  0.7546771E-02  0.9765871E-01
        -11   -1    0    0    0    0  0.00000000000E+00  0.00000000000E+00  0.18250000000E+03  0.18250000000E+03  0.00000000000E+00 0. -1.
         11   -1    0    0    0    0 -0.00000000000E+00 -0.00000000000E+00 -0.18250000000E+03  0.18250000000E+03  0.00000000000E+00 0.  1.
         23    2    1    2    0    0  0.29942610982E+02  0.17244629427E+01  0.11239340165E+02  0.97661927664E+02  0.92260477036E+02 0.  0.
        -11    1    3    3    0    0  0.17400706428E+02 -0.18906273669E+02 -0.36223331200E+02  0.44411276625E+02  0.00000000000E+00 0.  1.
         11    1    3    3    0    0  0.12541904553E+02  0.20630736612E+02  0.47462671365E+02  0.53250651039E+02  0.00000000000E+00 0. -1.
        -15    1    1    2    0    0 -0.10309237351E+03 -0.10011773668E+03  0.40197455421E+01  0.14377383196E+03  0.17770000000E+01 0. -1.
         15    1    1    2    0    0  0.73149762529E+02  0.98393273734E+02 -0.15259085707E+02  0.12356424038E+03  0.17770000000E+01 0.  1.
</event>
<event>
 7    1  0.2808731E-007  0.2435440E+03  0.7546771E-02  0.1028151E+00
        -11   -1    0    0    0    0  0.00000000000E+00  0.00000000000E+00  0.18250000000E+03  0.18250000000E+03  0.00000000000E+00 0.  1.
         11   -1    0    0    0    0 -0.00000000000E+00 -0.00000000000E+00 -0.18250000000E+03  0.18250000000E+03  0.00000000000E+00 0. -1.
         23    2    1    2    0    0 -0.33666445152E+02  0.67039220358E+02  0.22557198937E+02  0.12145602405E+03  0.92817304197E+02 0.  0.
        -11    1    3    3    0    0  0.24299113906E+02  0.43093099328E+02  0.30683723845E+02  0.58214715110E+02  0.00000000000E+00 0.  1.
         11    1    3    3    0    0 -0.57965559058E+02  0.23946121029E+02 -0.81265249082E+01  0.63241308939E+02  0.00000000000E+00 0. -1.
        -15    1    1    2    0    0 -0.51773800203E+02 -0.12698391595E+03 -0.23555288200E+02  0.13915261632E+03  0.17770000000E+01 0. -1.
         15    1    1    2    0    0  0.85440245355E+02  0.59944695588E+02  0.99808926314E+00  0.10439135964E+03  0.17770000000E+01 0.  1.
</event>
<event>
 7    1  0.2808731E-007  0.3650000E+03  0.7546771E-02  0.9765871E-01
        -11   -1    0    0    0    0  0.00000000000E+00  0.00000000000E+00  0.18250000000E+03  0.18250000000E+03  0.00000000000E+00 0. -1.
         11   -1    0    0    0    0 -0.00000000000E+00 -0.00000000000E+00 -0.18250000000E+03  0.18250000000E+03  0.00000000000E+00 0.  1.
         23    2    1    2    0    0  0.78787890231E+02  0.22029352352E+02 -0.86361341724E+02  0.15054735549E+03  0.92268092473E+02 0.  0.
        -11    1    3    3    0    0  0.98186194508E+02  0.28170171150E+02 -0.78115789773E+02  0.12859301671E+03  0.00000000000E+00 0.  1.
         11    1    3    3    0    0 -0.19398304277E+02 -0.61408187976E+01 -0.82455519514E+01  0.21954338781E+02  0.00000000000E+00 0. -1.
        -15    1    1    2    0    0  0.52331369022E+02  0.65907666935E+01  0.55790693980E+02  0.76796937785E+02  0.17770000000E+01 0.  1.
         15    1    1    2    0    0 -0.13111925925E+03 -0.28620119046E+02  0.30570647744E+02  0.13765570672E+03  0.17770000000E+01 0. -1.
</event>
<event>
 7    1  0.2808731E-007  0.2541938E+03  0.7546771E-02  0.1022435E+00
        -11   -1    0    0    0    0  0.00000000000E+00  0.00000000000E+00  0.18250000000E+03  0.18250000000E+03  0.00000000000E+00 0.  1.
         11   -1    0    0    0    0 -0.00000000000E+00 -0.00000000000E+00 -0.18250000000E+03  0.18250000000E+03  0.00000000000E+00 0. -1.
         23    2    1    2    0    0 -0.36371479196E+02 -0.26167626328E+02  0.44221691408E+02  0.11080618465E+03  0.91185653470E+02 0.  0.
        -11    1    3    3    0    0 -0.62850763161E+02 -0.73052591307E+01  0.10815394438E+02  0.64191572638E+02  0.00000000000E+00 0. -1.
         11    1    3    3    0    0  0.26479283965E+02 -0.18862367197E+02  0.33406296970E+02  0.46614612010E+02  0.00000000000E+00 0.  1.
        -15    1    1    2    0    0  0.93665132290E+02 -0.81110018665E+02  0.23845852337E+01  0.12393884020E+03  0.17770000000E+01 0.  1.
         15    1    1    2    0    0 -0.57293653094E+02  0.10727764499E+03 -0.46606276642E+02  0.13025497515E+03  0.17770000000E+01 0. -1.
</event>
<event>
 7    1  0.2808731E-007  0.3650000E+03  0.7546771E-02  0.9765871E-01
        -11   -1    0    0    0    0  0.00000000000E+00  0.00000000000E+00  0.18250000000E+03  0.18250000000E+03  0.00000000000E+00 0. -1.
         11   -1    0    0    0    0 -0.00000000000E+00 -0.00000000000E+00 -0.18250000000E+03  0.18250000000E+03  0.00000000000E+00 0.  1.
         23    2    1    2    0    0  0.28089784411E+02  0.48089554344E+02  0.53646861736E+02  0.11637559389E+03  0.86969258101E+02 0.  0.
        -11    1    3    3    0    0 -0.67478947826E+01  0.62880667540E+01 -0.21616160720E+02  0.23501750398E+02  0.00000000000E+00 0.  1.
         11    1    3    3    0    0  0.34837679193E+02  0.41801487590E+02  0.75263022456E+02  0.92873843495E+02  0.00000000000E+00 0. -1.
        -15    1    1    2    0    0 -0.12181422026E+03 -0.31293420737E+02 -0.80918374406E+02  0.14956244009E+03  0.17770000000E+01 0.  1.
         15    1    1    2    0    0  0.93724435850E+02 -0.16796133607E+02  0.27271512671E+02  0.99061966021E+02  0.17770000000E+01 0. -1.
</event>
<event>
 7    1  0.2808731E-007  0.2683264E+03  0.7546771E-02  0.1015301E+00
        -11   -1    0    0    0    0  0.00000000000E+00  0.00000000000E+00  0.18250000000E+03  0.18250000000E+03  0.00000000000E+00 0.  1.
         11   -1    0    0    0    0 -0.00000000000E+00 -0.00000000000E+00 -0.18250000000E+03  0.18250000000E+03  0.00000000000E+00 0. -1.
         23    2    1    2    0    0  0.39385752902E+02 -0.25810293681E+02 -0.56440458115E+01  0.96673643249E+02  0.84240900128E+02 0.  0.
        -11    1    3    3    0    0  0.58349994854E+02  0.18537640650E+00  0.12583544550E+02  0.59691723525E+02  0.00000000000E+00 0.  1.
         11    1    3    3    0    0 -0.18964241952E+02 -0.25995670088E+02 -0.18227590361E+02  0.36981919725E+02  0.00000000000E+00 0. -1.
        -15    1    1    2    0    0  0.15284236386E+02 -0.85885927201E+02  0.84174834640E+02  0.12123762159E+03  0.17770000000E+01 0.  1.
         15    1    1    2    0    0 -0.54669989288E+02  0.11169622088E+03 -0.78530788828E+02  0.14708873516E+03  0.17770000000E+01 0. -1.
</event>
<event>
 7    1  0.2808731E-007  0.2375054E+03  0.7546771E-02  0.1031534E+00
        -11   -1    0    0    0    0  0.00000000000E+00  0.00000000000E+00  0.18250000000E+03  0.18250000000E+03  0.00000000000E+00 0. -1.
         11   -1    0    0    0    0 -0.00000000000E+00 -0.00000000000E+00 -0.18250000000E+03  0.18250000000E+03  0.00000000000E+00 0.  1.
         23    2    1    2    0    0  0.21238070112E+02 -0.49551184085E+02  0.73485515381E+02  0.12749464941E+03  0.89153739075E+02 0.  0.
        -11    1    3    3    0    0 -0.20074242577E+02 -0.33160276870E+02  0.73448226311E+02  0.83049510085E+02  0.00000000000E+00 0. -1.
         11    1    3    3    0    0  0.41312312690E+02 -0.16390907216E+02  0.37289069357E-01  0.44445139325E+02  0.00000000000E+00 0.  1.
        -15    1    1    2    0    0 -0.39418327940E+02  0.93476084807E+02  0.44121672182E+02  0.11064114376E+03  0.17770000000E+01 0. -1.
         15    1    1    2    0    0  0.18180257828E+02 -0.43924900721E+02 -0.11760718756E+03  0.12686420683E+03  0.17770000000E+01 0.  1.
</event>
<event>
 7    1  0.2808731E-007  0.1884007E+03  0.7546771E-02  0.1063853E+00
        -11   -1    0    0    0    0  0.00000000000E+00  0.00000000000E+00  0.18250000000E+03  0.18250000000E+03  0.00000000000E+00 0. -1.
         11   -1    0    0    0    0 -0.00000000000E+00 -0.00000000000E+00 -0.18250000000E+03  0.18250000000E+03  0.00000000000E+00 0.  1.
         23    2    1    2    0    0  0.26653523155E+02 -0.97354198399E+02  0.12982610997E+03  0.18840070320E+03  0.91933431866E+02 0.  0.
        -11    1    3    3    0    0  0.14081003507E+02  0.13890686058E+02  0.43712868686E+01  0.20256701800E+02  0.00000000000E+00 0.  1.
         11    1    3    3    0    0  0.12572519648E+02 -0.11124488446E+03  0.12545482310E+03  0.16814400140E+03  0.00000000000E+00 0. -1.
        -15    1    1    2    0    0 -0.15260815981E+02 -0.49190723652E+01 -0.24517944697E+02  0.29349226881E+02  0.17770000000E+01 0. -1.
         15    1    1    2    0    0 -0.11392707174E+02  0.10227327076E+03 -0.10530816527E+03  0.14725006992E+03  0.17770000000E+01 0.  1.
</event>
<event>
 7    1  0.2808731E-007  0.2193917E+03  0.7546771E-02  0.1042375E+00
        -11   -1    0    0    0    0  0.00000000000E+00  0.00000000000E+00  0.18250000000E+03  0.18250000000E+03  0.00000000000E+00 0.  1.
         11   -1    0    0    0    0 -0.00000000000E+00 -0.00000000000E+00 -0.18250000000E+03  0.18250000000E+03  0.00000000000E+00 0. -1.
         23    2    1    2    0    0 -0.20985899885E+02  0.10815897403E+03  0.97104219873E+01  0.14560826642E+03  0.94703238050E+02 0.  0.
        -11    1    3    3    0    0 -0.44656647978E+02  0.10721869409E+03  0.23063734969E+02  0.11841452800E+03  0.00000000000E+00 0.  1.
         11    1    3    3    0    0  0.23670748094E+02  0.94027994341E+00 -0.13353312981E+02  0.27193738420E+02  0.00000000000E+00 0. -1.
        -15    1    1    2    0    0  0.84644233838E+02 -0.32369381549E+02  0.50268454351E+02  0.10364602460E+03  0.17770000000E+01 0.  1.
         15    1    1    2    0    0 -0.63658333953E+02 -0.75789592485E+02 -0.59978876338E+02  0.11574570898E+03  0.17770000000E+01 0. -1.
</event>
<event>
 7    1  0.2808731E-007  0.2499065E+03  0.7546771E-02  0.1024699E+00
        -11   -1    0    0    0    0  0.00000000000E+00  0.00000000000E+00  0.18250000000E+03  0.18250000000E+03  0.00000000000E+00 0.  1.
         11   -1    0    0    0    0 -0.00000000000E+00 -0.00000000000E+00 -0.18250000000E+03  0.18250000000E+03  0.00000000000E+00 0. -1.
         23    2    1    2    0    0 -0.47945367068E+02 -0.28181075672E+01  0.50895198018E+02  0.11509352454E+03  0.91375588946E+02 0.  0.
        -11    1    3    3    0    0 -0.64609223408E+01  0.37599356998E+02  0.24354585145E+00  0.38151205469E+02  0.00000000000E+00 0.  1.
         11    1    3    3    0    0 -0.41484444727E+02 -0.40417464565E+02  0.50651652167E+02  0.76942319067E+02  0.00000000000E+00 0. -1.
        -15    1    1    2    0    0 -0.65123085635E+02  0.44170990769E+02 -0.93468673480E+02  0.12219510366E+03  0.17770000000E+01 0.  1.
         15    1    1    2    0    0  0.11306845270E+03 -0.41352883202E+02  0.42573475461E+02  0.12771137180E+03  0.17770000000E+01 0. -1.
</event>
<event>
 7    1  0.2808731E-007  0.3650000E+03  0.7546771E-02  0.9765871E-01
        -11   -1    0    0    0    0  0.00000000000E+00  0.00000000000E+00  0.18250000000E+03  0.18250000000E+03  0.00000000000E+00 0.  1.
         11   -1    0    0    0    0 -0.00000000000E+00 -0.00000000000E+00 -0.18250000000E+03  0.18250000000E+03  0.00000000000E+00 0. -1.
         23    2    1    2    0    0  0.52654815529E+01 -0.72170934431E+02 -0.10173864961E+03  0.15552601171E+03  0.92742754005E+02 0.  0.
        -11    1    3    3    0    0  0.10745052896E+02  0.20422641209E+02 -0.32119758751E+02  0.39550212868E+02  0.00000000000E+00 0.  1.
         11    1    3    3    0    0 -0.54795713433E+01 -0.92593575640E+02 -0.69618890858E+02  0.11597579884E+03  0.00000000000E+00 0. -1.
        -15    1    1    2    0    0 -0.35772650393E+02  0.12058368232E+03  0.67277642900E+02  0.14265183462E+03  0.17770000000E+01 0.  1.
         15    1    1    2    0    0  0.30507168840E+02 -0.48412747889E+02  0.34461006709E+02  0.66822153671E+02  0.17770000000E+01 0. -1.
</event>
<event>
 7    1  0.2808731E-007  0.2446774E+03  0.7546771E-02  0.1027527E+00
        -11   -1    0    0    0    0  0.00000000000E+00  0.00000000000E+00  0.18250000000E+03  0.18250000000E+03  0.00000000000E+00 0. -1.
         11   -1    0    0    0    0 -0.00000000000E+00 -0.00000000000E+00 -0.18250000000E+03  0.18250000000E+03  0.00000000000E+00 0.  1.
         23    2    1    2    0    0  0.74505858418E+02 -0.14793509394E+01 -0.28895848162E+02  0.12032255942E+03  0.89940184832E+02 0.  0.
        -11    1    3    3    0    0  0.56172784385E+02  0.85781919967E+01 -0.60131896233E+02  0.82733379165E+02  0.00000000000E+00 0. -1.
         11    1    3    3    0    0  0.18333074034E+02 -0.10057542936E+02  0.31236048071E+02  0.37589180259E+02  0.00000000000E+00 0.  1.
        -15    1    1    2    0    0  0.17003999051E+02  0.10324707503E+03  0.25727540496E+02  0.10776900554E+03  0.17770000000E+01 0.  1.
         15    1    1    2    0    0 -0.91509857469E+02 -0.10176772409E+03  0.31683076654E+01  0.13690843503E+03  0.17770000000E+01 0. -1.
</event>
<event>
 7    1  0.3799297E-007  0.3650000E+03  0.7546771E-02  0.9765871E-01
        -11   -1    0    0    0    0  0.00000000000E+00  0.00000000000E+00  0.18250000000E+03  0.18250000000E+03  0.00000000000E+00 0. -1.
         11   -1    0    0    0    0 -0.00000000000E+00 -0.00000000000E+00 -0.18250000000E+03  0.18250000000E+03  0.00000000000E+00 0.  1.
         23    2    1    2    0    0 -0.11897893704E+02 -0.75412963304E+02 -0.96832413667E+02  0.15288057785E+03  0.90373003923E+02 0.  0.
        -11    1    3    3    0    0 -0.41358856449E+02 -0.39110545127E+02 -0.88747609304E+02  0.10543399786E+03  0.00000000000E+00 0.  1.
         11    1    3    3    0    0  0.29460962745E+02 -0.36302418177E+02 -0.80848043623E+01  0.47446579992E+02  0.00000000000E+00 0. -1.
        -15    1    1    2    0    0  0.30350321791E+02  0.12577209819E+03  0.90895130782E+02  0.15812920428E+03  0.17770000000E+01 0. -1.
         15    1    1    2    0    0 -0.18452428087E+02 -0.50359134888E+02  0.59372828844E+01  0.53990217874E+02  0.17770000000E+01 0.  1.
</event>
<event>
 7    1  0.2808731E-007  0.2500469E+03  0.7546771E-02  0.1024624E+00
        -11   -1    0    0    0    0  0.00000000000E+00  0.00000000000E+00  0.18250000000E+03  0.18250000000E+03  0.00000000000E+00 0. -1.
         11   -1    0    0    0    0 -0.00000000000E+00 -0.00000000000E+00 -0.18250000000E+03  0.18250000000E+03  0.00000000000E+00 0.  1.
         23    2    1    2    0    0  0.66042368690E+01 -0.44455089532E+02 -0.52966755678E+02  0.11495307589E+03  0.91590728347E+02 0.  0.
        -11    1    3    3    0    0  0.42107579600E+02 -0.92857950095E+01 -0.13966467236E+01  0.43141915475E+02  0.00000000000E+00 0. -1.
         11    1    3    3    0    0 -0.35503342731E+02 -0.35169294522E+02 -0.51570108954E+02  0.71811160413E+02  0.00000000000E+00 0.  1.
        -15    1    1    2    0    0  0.10726282817E+03  0.48698687899E+02  0.66500439901E+02  0.13528615135E+03  0.17770000000E+01 0. -1.
         15    1    1    2    0    0 -0.11386706504E+03 -0.42435983671E+01 -0.13533684223E+02  0.11476077276E+03  0.17770000000E+01 0.  1.
</event>
<event>
 7    1  0.2808731E-007  0.3650000E+03  0.7546771E-02  0.9765871E-01
        -11   -1    0    0    0    0  0.00000000000E+00  0.00000000000E+00  0.18250000000E+03  0.18250000000E+03  0.00000000000E+00 0. -1.
         11   -1    0    0    0    0 -0.00000000000E+00 -0.00000000000E+00 -0.18250000000E+03  0.18250000000E+03  0.00000000000E+00 0.  1.
         23    2    1    2    0    0 -0.10386299738E+03  0.62516686488E+02 -0.74663862121E+01  0.15161380394E+03  0.90747673844E+02 0.  0.
        -11    1    3    3    0    0 -0.11858168696E+03  0.60948709934E+02  0.32043616922E+01  0.13336652375E+03  0.00000000000E+00 0.  1.
         11    1    3    3    0    0  0.14718689578E+02  0.15679765540E+01 -0.10670747904E+02  0.18247280186E+02  0.00000000000E+00 0. -1.
        -15    1    1    2    0    0  0.14071908127E+03 -0.74261588162E+02 -0.27179471922E+02  0.16142653045E+03  0.17770000000E+01 0. -1.
         15    1    1    2    0    0 -0.36856083894E+02  0.11744901674E+02  0.34645858134E+02  0.51959665608E+02  0.17770000000E+01 0.  1.
</event>
<event>
 7    1  0.2808731E-007  0.3650000E+03  0.7546771E-02  0.9765871E-01
        -11   -1    0    0    0    0  0.00000000000E+00  0.00000000000E+00  0.18250000000E+03  0.18250000000E+03  0.00000000000E+00 0.  1.
         11   -1    0    0    0    0 -0.00000000000E+00 -0.00000000000E+00 -0.18250000000E+03  0.18250000000E+03  0.00000000000E+00 0. -1.
         23    2    1    2    0    0 -0.24276902165E+02  0.11627549494E+03 -0.62195807420E+01  0.15250625268E+03  0.95446923570E+02 0.  0.
        -11    1    3    3    0    0 -0.78594153049E+01  0.12967371136E+03 -0.12212464556E+02  0.13048442864E+03  0.00000000000E+00 0. -1.
         11    1    3    3    0    0 -0.16417486860E+02 -0.13398216413E+02  0.59928838135E+01  0.22021824045E+02  0.00000000000E+00 0.  1.
        -15    1    1    2    0    0 -0.70684663681E+02 -0.35437953410E+02 -0.26742793360E+02  0.83489549929E+02  0.17770000000E+01 0. -1.
         15    1    1    2    0    0  0.94961565847E+02 -0.80837541533E+02  0.32962374102E+02  0.12900419739E+03  0.17770000000E+01 0.  1.
</event>
<event>
 7    1  0.2808731E-007  0.1932236E+03  0.7546771E-02  0.1060225E+00
        -11   -1    0    0    0    0  0.00000000000E+00  0.00000000000E+00  0.18250000000E+03  0.18250000000E+03  0.00000000000E+00 0. -1.
         11   -1    0    0    0    0 -0.00000000000E+00 -0.00000000000E+00 -0.18250000000E+03  0.18250000000E+03  0.00000000000E+00 0.  1.
         23    2    1    2    0    0 -0.19221945419E+02 -0.20222153797E+02 -0.14381150518E+03  0.17177641971E+03  0.89704908776E+02 0.  0.
        -11    1    3    3    0    0 -0.84683314589E+00  0.92068307334E+01 -0.13587050460E+03  0.13618471602E+03  0.00000000000E+00 0.  1.
         11    1    3    3    0    0 -0.18375112273E+02 -0.29428984531E+02 -0.79410005818E+01  0.35591703693E+02  0.00000000000E+00 0. -1.
        -15    1    1    2    0    0  0.25204536939E+02 -0.18607862454E+02  0.15014453150E+03  0.15338858920E+03  0.17770000000E+01 0. -1.
         15    1    1    2    0    0 -0.59825915202E+01  0.38830016252E+02 -0.63330263258E+01  0.39834991087E+02  0.17770000000E+01 0.  1.
</event>
<event>
 7    1  0.2808731E-007  0.1951022E+03  0.7546771E-02  0.1058844E+00
        -11   -1    0    0    0    0  0.00000000000E+00  0.00000000000E+00  0.18250000000E+03  0.18250000000E+03  0.00000000000E+00 0.  1.
         11   -1    0    0    0    0 -0.00000000000E+00 -0.00000000000E+00 -0.18250000000E+03  0.18250000000E+03  0.00000000000E+00 0. -1.
         23    2    1    2    0    0 -0.22908879401E+02 -0.25826414025E+02 -0.13597049052E+03  0.16989784513E+03  0.95840925861E+02 0.  0.
        -11    1    3    3    0    0 -0.40970951759E+02 -0.42244814036E+02 -0.40705398322E+02  0.71555381723E+02  0.00000000000E+00 0.  1.
         11    1    3    3    0    0  0.18062072358E+02  0.16418400011E+02 -0.95265092202E+02  0.98342463408E+02  0.00000000000E+00 0. -1.
        -15    1    1    2    0    0  0.66905776323E+02  0.33538667975E+02  0.12998302834E+03  0.14999990180E+03  0.17770000000E+01 0.  1.
         15    1    1    2    0    0 -0.43996896922E+02 -0.77122539502E+01  0.59874621886E+01  0.45102253072E+02  0.17770000000E+01 0. -1.
</event>
<event>
 7    1  0.2808731E-007  0.1939089E+03  0.7546771E-02  0.1059719E+00
        -11   -1    0    0    0    0  0.00000000000E+00  0.00000000000E+00  0.18250000000E+03  0.18250000000E+03  0.00000000000E+00 0.  1.
         11   -1    0    0    0    0 -0.00000000000E+00 -0.00000000000E+00 -0.18250000000E+03  0.18250000000E+03  0.00000000000E+00 0. -1.
         23    2    1    2    0    0  0.34721688278E+02 -0.11871366133E+03 -0.73651920115E+02  0.17109108593E+03  0.92460939454E+02 0.  0.
        -11    1    3    3    0    0  0.26889796263E+02 -0.12619238995E+03 -0.85698284074E+02  0.15489278976E+03  0.00000000000E+00 0. -1.
         11    1    3    3    0    0  0.78318920147E+01  0.74787286218E+01  0.12046363959E+02  0.16198296175E+02  0.00000000000E+00 0.  1.
        -15    1    1    2    0    0 -0.51899049858E+02  0.14058993694E+03  0.71210804121E+02  0.16593124509E+03  0.17770000000E+01 0.  1.
         15    1    1    2    0    0  0.17177361580E+02 -0.21876275606E+02  0.24411159948E+01  0.27977668980E+02  0.17770000000E+01 0. -1.
</event>
<event>
 7    1  0.2808731E-007  0.1847638E+03  0.7546771E-02  0.1066667E+00
        -11   -1    0    0    0    0  0.00000000000E+00  0.00000000000E+00  0.18250000000E+03  0.18250000000E+03  0.00000000000E+00 0.  1.
         11   -1    0    0    0    0 -0.00000000000E+00 -0.00000000000E+00 -0.18250000000E+03  0.18250000000E+03  0.00000000000E+00 0. -1.
         23    2    1    2    0    0  0.10927380424E+03 -0.20888075657E+01 -0.11719848849E+03  0.18476377752E+03  0.91962168130E+02 0.  0.
        -11    1    3    3    0    0  0.51390278753E+02 -0.16401230655E+02 -0.76379850497E+00  0.53949462513E+02  0.00000000000E+00 0.  1.
         11    1    3    3    0    0  0.57883525489E+02  0.14312423089E+02 -0.11643468999E+03  0.13081431500E+03  0.00000000000E+00 0. -1.
        -15    1    1    2    0    0 -0.74512228576E+02 -0.37713594387E+02  0.64002563505E+02  0.10523247252E+03  0.17770000000E+01 0.  1.
         15    1    1    2    0    0 -0.34761575666E+02  0.39802401953E+02  0.53195924987E+02  0.75003749961E+02  0.17770000000E+01 0. -1.
</event>
<event>
 7    1  0.2808731E-007  0.1919988E+03  0.7546771E-02  0.1061136E+00
        -11   -1    0    0    0    0  0.00000000000E+00  0.00000000000E+00  0.18250000000E+03  0.18250000000E+03  0.00000000000E+00 0. -1.
         11   -1    0    0    0    0 -0.00000000000E+00 -0.00000000000E+00 -0.18250000000E+03  0.18250000000E+03  0.00000000000E+00 0.  1.
         23    2    1    2    0    0 -0.96848168836E+02 -0.98479975436E+02 -0.52653423042E+02  0.17300124789E+03  0.89884233566E+02 0.  0.
        -11    1    3    3    0    0 -0.35469445669E+02 -0.95857386003E+02 -0.42679401159E+02  0.11076213843E+03  0.00000000000E+00 0.  1.
         11    1    3    3    0    0 -0.61378723167E+02 -0.26225894331E+01 -0.99740218835E+01  0.62239109452E+02  0.00000000000E+00 0. -1.
        -15    1    1    2    0    0  0.11431592029E+03  0.11349643050E+03  0.50336019646E+02  0.16877926997E+03  0.17770000000E+01 0. -1.
         15    1    1    2    0    0 -0.17467751450E+02 -0.15016455069E+02  0.23174033961E+01  0.23219482145E+02  0.17770000000E+01 0.  1.
</event>
<event>
 7    1  0.2808731E-007  0.3650000E+03  0.7546771E-02  0.9765871E-01
        -11   -1    0    0    0    0  0.00000000000E+00  0.00000000000E+00  0.18250000000E+03  0.18250000000E+03  0.00000000000E+00 0. -1.
         11   -1    0    0    0    0 -0.00000000000E+00 -0.00000000000E+00 -0.18250000000E+03  0.18250000000E+03  0.00000000000E+00 0.  1.
         23    2    1    2    0    0 -0.85658244854E+01  0.83420828471E+01  0.11683765182E+03  0.14945454727E+03  0.92426517425E+02 0.  0.
        -11    1    3    3    0    0 -0.26673974940E+02 -0.90031543986E+01 -0.17865948822E+01  0.28209034891E+02  0.00000000000E+00 0.  1.
         11    1    3    3    0    0  0.18108150454E+02  0.17345237246E+02  0.11862424670E+03  0.12124551238E+03  0.00000000000E+00 0. -1.
        -15    1    1    2    0    0 -0.19438660769E+02 -0.83465093354E+02 -0.10327626568E+03  0.13421411298E+03  0.17770000000E+01 0. -1.
         15    1    1    2    0    0  0.28004485254E+02  0.75123010507E+02 -0.13561386140E+02  0.81331339747E+02  0.17770000000E+01 0.  1.
</event>
<event>
 7    1  0.2808731E-007  0.1898057E+03  0.7546771E-02  0.1062784E+00
        -11   -1    0    0    0    0  0.00000000000E+00  0.00000000000E+00  0.18250000000E+03  0.18250000000E+03  0.00000000000E+00 0.  1.
         11   -1    0    0    0    0 -0.00000000000E+00 -0.00000000000E+00 -0.18250000000E+03  0.18250000000E+03  0.00000000000E+00 0. -1.
         23    2    1    2    0    0  0.48972310778E+02  0.98404059754E+02  0.10266130622E+03  0.17519431064E+03  0.89844624145E+02 0.  0.
        -11    1    3    3    0    0  0.56523029019E+02  0.27850597781E+02  0.77556898800E+02  0.99927879782E+02  0.00000000000E+00 0. -1.
         11    1    3    3    0    0 -0.75507182407E+01  0.70553461973E+02  0.25104407415E+02  0.75266430858E+02  0.00000000000E+00 0.  1.
        -15    1    1    2    0    0  0.54641365986E+01 -0.14913615579E+02  0.23868502120E+02  0.28725177821E+02  0.17770000000E+01 0.  1.
         15    1    1    2    0    0 -0.54436447377E+02 -0.83490444175E+02 -0.12652980833E+03  0.16108051154E+03  0.17770000000E+01 0. -1.
</event>
<event>
 7    1  0.2808731E-007  0.2435153E+03  0.7546771E-02  0.1028166E+00
        -11   -1    0    0    0    0  0.00000000000E+00  0.00000000000E+00  0.18250000000E+03  0.18250000000E+03  0.00000000000E+00 0.  1.
         11   -1    0    0    0    0 -0.00000000000E+00 -0.00000000000E+00 -0.18250000000E+03  0.18250000000E+03  0.00000000000E+00 0. -1.
         23    2    1    2    0    0 -0.50901703502E+02 -0.58695792461E+02  0.25357506163E+02  0.12148468571E+03  0.89885183824E+02 0.  0.
        -11    1    3    3    0    0 -0.43843005120E+02 -0.82544665686E+02  0.24384196110E+02  0.96594098946E+02  0.00000000000E+00 0.  1.
         11    1    3    3    0    0 -0.70586983824E+01  0.23848873225E+02  0.97331005315E+00  0.24890586764E+02  0.00000000000E+00 0. -1.
        -15    1    1    2    0    0  0.13802763328E+03  0.11542925613E+02 -0.37975197977E+02  0.14363196048E+03  0.17770000000E+01 0.  1.
         15    1    1    2    0    0 -0.87125929781E+02  0.47152866848E+02  0.12617691814E+02  0.99883353808E+02  0.17770000000E+01 0. -1.
</event>
<event>
 7    1  0.2808731E-007  0.2225644E+03  0.7546771E-02  0.1040396E+00
        -11   -1    0    0    0    0  0.00000000000E+00  0.00000000000E+00  0.18250000000E+03  0.18250000000E+03  0.00000000000E+00 0. -1.
         11   -1    0    0    0    0 -0.00000000000E+00 -0.00000000000E+00 -0.18250000000E+03  0.18250000000E+03  0.00000000000E+00 0.  1.
         23    2    1    2    0    0  0.75880404101E+02  0.56615744520E+01  0.45100824022E+02  0.14243564816E+03  0.11164201891E+03 0.  0.
        -11    1    3    3    0    0 -0.54151504156E+01  0.42153832329E+02  0.30080483806E+02  0.52068271913E+02  0.00000000000E+00 0. -1.
         11    1    3    3    0    0  0.81295554517E+02 -0.36492257877E+02  0.15020340216E+02  0.90367376245E+02  0.00000000000E+00 0.  1.
        -15    1    1    2    0    0 -0.19114045181E+02 -0.10305435568E+03 -0.28271138465E+02  0.10857238114E+03  0.17770000000E+01 0. -1.
         15    1    1    2    0    0 -0.56766358920E+02  0.97392781225E+02 -0.16829685557E+02  0.11399197070E+03  0.17770000000E+01 0.  1.
</event>
<event>
 7    1  0.2808731E-007  0.2428505E+03  0.7546771E-02  0.1028534E+00
        -11   -1    0    0    0    0  0.00000000000E+00  0.00000000000E+00  0.18250000000E+03  0.18250000000E+03  0.00000000000E+00 0.  1.
         11   -1    0    0    0    0 -0.00000000000E+00 -0.00000000000E+00 -0.18250000000E+03  0.18250000000E+03  0.00000000000E+00 0. -1.
         23    2    1    2    0    0 -0.56574183930E+02 -0.74694102893E+02  0.92789897362E+01  0.12214954538E+03  0.77811082066E+02 0.  0.
        -11    1    3    3    0    0 -0.40086674757E+02  0.44531398363E+01  0.88944193136E+01  0.41302332166E+02  0.00000000000E+00 0.  1.
         11    1    3    3    0    0 -0.16487509173E+02 -0.79147242729E+02  0.38457042256E+00  0.80847213216E+02  0.00000000000E+00 0. -1.
        -15    1    1    2    0    0  0.47668915894E+02  0.10489489476E+03  0.85159896782E+02  0.14328513614E+03  0.17770000000E+01 0.  1.
         15    1    1    2    0    0  0.89052680364E+01 -0.30200791867E+02 -0.94438886518E+02  0.99565318480E+02  0.17770000000E+01 0. -1.
</event>
<event>
 7    1  0.2808731E-007  0.2152854E+03  0.7546771E-02  0.1044992E+00
        -11   -1    0    0    0    0  0.00000000000E+00  0.00000000000E+00  0.18250000000E+03  0.18250000000E+03  0.00000000000E+00 0.  1.
         11   -1    0    0    0    0 -0.00000000000E+00 -0.00000000000E+00 -0.18250000000E+03  0.18250000000E+03  0.00000000000E+00 0. -1.
         23    2    1    2    0    0 -0.89471167800E+02 -0.79172585094E+02  0.86100385229E+01  0.14971462380E+03  0.89816188509E+02 0.  0.
        -11    1    3    3    0    0 -0.59303776721E+02 -0.83064498253E+02  0.36553336533E+02  0.10841030954E+03  0.00000000000E+00 0.  1.
         11    1    3    3    0    0 -0.30167391080E+02  0.38919131596E+01 -0.27943298010E+02  0.41304314258E+02  0.00000000000E+00 0. -1.
        -15    1    1    2    0    0  0.81456340166E+02 -0.42652251949E+01  0.64532738264E+02  0.10402384119E+03  0.17770000000E+01 0.  1.
         15    1    1    2    0    0  0.80148276345E+01  0.83437810288E+02 -0.73142776786E+02  0.11126153501E+03  0.17770000000E+01 0. -1.
</event>
<event>
 7    1  0.2808731E-007  0.3650000E+03  0.7546771E-02  0.9765871E-01
        -11   -1    0    0    0    0  0.00000000000E+00  0.00000000000E+00  0.18250000000E+03  0.18250000000E+03  0.00000000000E+00 0.  1.
         11   -1    0    0    0    0 -0.00000000000E+00 -0.00000000000E+00 -0.18250000000E+03  0.18250000000E+03  0.00000000000E+00 0. -1.
         23    2    1    2    0    0  0.58890047800E+02  0.13489317875E+02  0.12092867806E+03  0.16384145932E+03  0.92575802391E+02 0.  0.
        -11    1    3    3    0    0  0.55179212086E+02  0.22761277607E+02  0.20790546963E+02  0.63206550671E+02  0.00000000000E+00 0.  1.
         11    1    3    3    0    0  0.37108357135E+01 -0.92719597322E+01  0.10013813110E+03  0.10063490865E+03  0.00000000000E+00 0. -1.
        -15    1    1    2    0    0  0.47255947486E+02 -0.24300388804E+02 -0.30559329946E+02  0.61324251683E+02  0.17770000000E+01 0.  1.
         15    1    1    2    0    0 -0.10614599529E+03  0.10811070928E+02 -0.90369348119E+02  0.13983428899E+03  0.17770000000E+01 0. -1.
</event>
<event>
 7    1  0.2808731E-007  0.3650000E+03  0.7546771E-02  0.9765871E-01
        -11   -1    0    0    0    0  0.00000000000E+00  0.00000000000E+00  0.18250000000E+03  0.18250000000E+03  0.00000000000E+00 0.  1.
         11   -1    0    0    0    0 -0.00000000000E+00 -0.00000000000E+00 -0.18250000000E+03  0.18250000000E+03  0.00000000000E+00 0. -1.
         23    2    1    2    0    0 -0.75187865811E+01 -0.41449329321E+02 -0.25950298662E+02  0.10344795407E+03  0.90848677195E+02 0.  0.
        -11    1    3    3    0    0  0.14183648444E+01  0.19885536782E+02  0.18481753235E+02  0.27184950516E+02  0.00000000000E+00 0. -1.
         11    1    3    3    0    0 -0.89371514255E+01 -0.61334866103E+02 -0.44432051897E+02  0.76263003555E+02  0.00000000000E+00 0.  1.
        -15    1    1    2    0    0 -0.10038307369E+03 -0.35747072591E+02 -0.39430671653E+02  0.11363340300E+03  0.17770000000E+01 0.  1.
         15    1    1    2    0    0  0.10790186027E+03  0.77196401912E+02  0.65380970315E+02  0.14791864293E+03  0.17770000000E+01 0. -1.
</event>
<event>
 7    1  0.2808731E-007  0.3650000E+03  0.7546771E-02  0.9765871E-01
        -11   -1    0    0    0    0  0.00000000000E+00  0.00000000000E+00  0.18250000000E+03  0.18250000000E+03  0.00000000000E+00 0.  1.
         11   -1    0    0    0    0 -0.00000000000E+00 -0.00000000000E+00 -0.18250000000E+03  0.18250000000E+03  0.00000000000E+00 0. -1.
         23    2    1    2    0    0  0.45736020701E+02  0.16646719067E+02  0.78062214653E+00  0.10295990712E+03  0.90726160819E+02 0.  0.
        -11    1    3    3    0    0  0.62127168974E+02  0.40134260226E+02 -0.32593475113E+01  0.74034906056E+02  0.00000000000E+00 0.  1.
         11    1    3    3    0    0 -0.16391148273E+02 -0.23487541159E+02  0.40399696578E+01  0.28925001059E+02  0.00000000000E+00 0. -1.
        -15    1    1    2    0    0 -0.14284654258E+03  0.40817019625E+02 -0.93099903268E+01  0.14886570279E+03  0.17770000000E+01 0.  1.
         15    1    1    2    0    0  0.97110521876E+02 -0.57463738692E+02  0.85293681802E+01  0.11317439010E+03  0.17770000000E+01 0. -1.
</event>
<event>
 7    1  0.2808731E-007  0.1889614E+03  0.7546771E-02  0.1063425E+00
        -11   -1    0    0    0    0  0.00000000000E+00  0.00000000000E+00  0.18250000000E+03  0.18250000000E+03  0.00000000000E+00 0. -1.
         11   -1    0    0    0    0 -0.00000000000E+00 -0.00000000000E+00 -0.18250000000E+03  0.18250000000E+03  0.00000000000E+00 0.  1.
         23    2    1    2    0    0  0.10880435374E+03  0.82917601451E+02  0.92144018636E+02  0.18896142298E+03  0.92207283773E+02 0.  0.
        -11    1    3    3    0    0  0.10256643356E+03  0.98813489352E+02  0.95609060200E+02  0.17153737599E+03  0.00000000000E+00 0. -1.
         11    1    3    3    0    0  0.62379201875E+01 -0.15895887901E+02 -0.34650415633E+01  0.17424046988E+02  0.00000000000E+00 0.  1.
        -15    1    1    2    0    0 -0.97351615856E+02 -0.89571318899E+02 -0.94345005174E+02  0.16249460302E+03  0.17770000000E+01 0. -1.
         15    1    1    2    0    0 -0.11452737888E+02  0.66537174485E+01  0.22009865380E+01  0.13543974002E+02  0.17770000000E+01 0.  1.
</event>
<event>
 7    1  0.2808731E-007  0.3650000E+03  0.7546771E-02  0.9765871E-01
        -11   -1    0    0    0    0  0.00000000000E+00  0.00000000000E+00  0.18250000000E+03  0.18250000000E+03  0.00000000000E+00 0.  1.
         11   -1    0    0    0    0 -0.00000000000E+00 -0.00000000000E+00 -0.18250000000E+03  0.18250000000E+03  0.00000000000E+00 0. -1.
         23    2    1    2    0    0  0.49305366088E+02  0.26487996277E+02 -0.98692973745E+02  0.14560946537E+03  0.91264342797E+02 0.  0.
        -11    1    3    3    0    0  0.43345846927E+02  0.53677573910E+01 -0.11181347535E+03  0.12004136177E+03  0.00000000000E+00 0. -1.
         11    1    3    3    0    0  0.59595191609E+01  0.21120238886E+02  0.13120501606E+02  0.25568103599E+02  0.00000000000E+00 0.  1.
        -15    1    1    2    0    0 -0.41623230460E+02  0.71155275131E+02  0.30935740352E+01  0.82512389507E+02  0.17770000000E+01 0.  1.
         15    1    1    2    0    0 -0.76821356275E+01 -0.97643271408E+02  0.95599399710E+02  0.13687814513E+03  0.17770000000E+01 0. -1.
</event>
<event>
 7    1  0.2808731E-007  0.3650000E+03  0.7546771E-02  0.9765871E-01
        -11   -1    0    0    0    0  0.00000000000E+00  0.00000000000E+00  0.18250000000E+03  0.18250000000E+03  0.00000000000E+00 0. -1.
         11   -1    0    0    0    0 -0.00000000000E+00 -0.00000000000E+00 -0.18250000000E+03  0.18250000000E+03  0.00000000000E+00 0.  1.
         23    2    1    2    0    0  0.53242624125E+02 -0.44125003099E-01 -0.80939027607E+02  0.13061317902E+03  0.87600784083E+02 0.  0.
        -11    1    3    3    0    0  0.21590143009E+02 -0.10576667825E+02 -0.92294623663E+02  0.95374513024E+02  0.00000000000E+00 0.  1.
         11    1    3    3    0    0  0.31652481116E+02  0.10532542822E+02  0.11355596056E+02  0.35238665992E+02  0.00000000000E+00 0. -1.
        -15    1    1    2    0    0  0.46201974595E+02  0.74153712847E+02  0.20919590586E+01  0.87412411059E+02  0.17770000000E+01 0. -1.
         15    1    1    2    0    0 -0.99444598720E+02 -0.74109587844E+02  0.78847068549E+02  0.14697440992E+03  0.17770000000E+01 0.  1.
</event>
<event>
 7    1  0.2808731E-007  0.1832994E+03  0.7546771E-02  0.1067820E+00
        -11   -1    0    0    0    0  0.00000000000E+00  0.00000000000E+00  0.18250000000E+03  0.18250000000E+03  0.00000000000E+00 0.  1.
         11   -1    0    0    0    0 -0.00000000000E+00 -0.00000000000E+00 -0.18250000000E+03  0.18250000000E+03  0.00000000000E+00 0. -1.
         23    2    1    2    0    0  0.41645065834E+02 -0.60234029455E+02  0.13953810249E+03  0.18329939168E+03  0.93623368495E+02 0.  0.
        -11    1    3    3    0    0  0.59858575158E+01 -0.73695670274E+02  0.60444837433E+02  0.95501103029E+02  0.00000000000E+00 0.  1.
         11    1    3    3    0    0  0.35659208318E+02  0.13461640819E+02  0.79093265061E+02  0.87798288647E+02  0.00000000000E+00 0. -1.
        -15    1    1    2    0    0 -0.52750642357E+02  0.48194486435E+01 -0.37106896320E+02  0.64698816355E+02  0.17770000000E+01 0.  1.
         15    1    1    2    0    0  0.11105576523E+02  0.55414580812E+02 -0.10243120617E+03  0.11700179197E+03  0.17770000000E+01 0. -1.
</event>
<event>
 7    1  0.2808731E-007  0.3650000E+03  0.7546771E-02  0.9765871E-01
        -11   -1    0    0    0    0  0.00000000000E+00  0.00000000000E+00  0.18250000000E+03  0.18250000000E+03  0.00000000000E+00 0.  1.
         11   -1    0    0    0    0 -0.00000000000E+00 -0.00000000000E+00 -0.18250000000E+03  0.18250000000E+03  0.00000000000E+00 0. -1.
         23    2    1    2    0    0  0.79952501171E+02  0.32649535483E+01  0.40281472960E+01  0.12131442344E+03  0.91092815297E+02 0.  0.
        -11    1    3    3    0    0  0.15737208675E+01 -0.27535035427E+02 -0.19616604177E+02  0.33844732718E+02  0.00000000000E+00 0.  1.
         11    1    3    3    0    0  0.78378780304E+02  0.30799988975E+02  0.23644751473E+02  0.87469690722E+02  0.00000000000E+00 0. -1.
        -15    1    1    2    0    0 -0.15097075704E+03  0.42323133190E+02  0.13821603613E+02  0.15740905800E+03  0.17770000000E+01 0.  1.
         15    1    1    2    0    0  0.71018255868E+02 -0.45588086739E+02 -0.17849750909E+02  0.86276518564E+02  0.17770000000E+01 0. -1.
</event>
<event>
 7    1  0.2808731E-007  0.2026443E+03  0.7546771E-02  0.1053463E+00
        -11   -1    0    0    0    0  0.00000000000E+00  0.00000000000E+00  0.18250000000E+03  0.18250000000E+03  0.00000000000E+00 0.  1.
         11   -1    0    0    0    0 -0.00000000000E+00 -0.00000000000E+00 -0.18250000000E+03  0.18250000000E+03  0.00000000000E+00 0. -1.
         23    2    1    2    0    0  0.18846689506E+02 -0.13212699250E+03 -0.13073878551E+02  0.16235571595E+03  0.91518917984E+02 0.  0.
        -11    1    3    3    0    0  0.97450158171E+01 -0.13678729654E+03  0.96134174576E+01  0.13747053366E+03  0.00000000000E+00 0. -1.
         11    1    3    3    0    0  0.91016736894E+01  0.46603040407E+01 -0.22687296008E+02  0.24885182295E+02  0.00000000000E+00 0.  1.
        -15    1    1    2    0    0 -0.52541657255E+02  0.14947528962E+03  0.29718161658E+02  0.16121356895E+03  0.17770000000E+01 0.  1.
         15    1    1    2    0    0  0.33694967749E+02 -0.17348297115E+02 -0.16644283107E+02  0.41430715098E+02  0.17770000000E+01 0. -1.
</event>
<event>
 7    1  0.2808731E-007  0.3650000E+03  0.7546771E-02  0.9765871E-01
        -11   -1    0    0    0    0  0.00000000000E+00  0.00000000000E+00  0.18250000000E+03  0.18250000000E+03  0.00000000000E+00 0.  1.
         11   -1    0    0    0    0 -0.00000000000E+00 -0.00000000000E+00 -0.18250000000E+03  0.18250000000E+03  0.00000000000E+00 0. -1.
         23    2    1    2    0    0 -0.77998938826E+02  0.46683622440E+02  0.90086238202E+01  0.12829657433E+03  0.90086961432E+02 0.  0.
        -11    1    3    3    0    0  0.12917585564E+02 -0.49649396758E+01 -0.15623851822E+02  0.20871497036E+02  0.00000000000E+00 0.  1.
         11    1    3    3    0    0 -0.90916524390E+02  0.51648562115E+02  0.24632475642E+02  0.10742507730E+03  0.00000000000E+00 0. -1.
        -15    1    1    2    0    0 -0.76399943342E+02 -0.53862518370E+01 -0.58973931893E+01  0.76836840297E+02  0.17770000000E+01 0.  1.
         15    1    1    2    0    0  0.15439888217E+03 -0.41297370603E+02 -0.31112306309E+01  0.15986658537E+03  0.17770000000E+01 0. -1.
</event>
<event>
 7    1  0.2808731E-007  0.3650000E+03  0.7546771E-02  0.9765871E-01
        -11   -1    0    0    0    0  0.00000000000E+00  0.00000000000E+00  0.18250000000E+03  0.18250000000E+03  0.00000000000E+00 0.  1.
         11   -1    0    0    0    0 -0.00000000000E+00 -0.00000000000E+00 -0.18250000000E+03  0.18250000000E+03  0.00000000000E+00 0. -1.
         23    2    1    2    0    0 -0.13128409712E+02 -0.10147302256E+03 -0.16096777563E+02  0.14394199826E+03  0.99955305841E+02 0.  0.
        -11    1    3    3    0    0 -0.50287749945E+01 -0.86068321002E+02 -0.54349398694E+02  0.10191614983E+03  0.00000000000E+00 0.  1.
         11    1    3    3    0    0 -0.80996347180E+01 -0.15404701558E+02  0.38252621131E+02  0.42025848428E+02  0.00000000000E+00 0. -1.
        -15    1    1    2    0    0 -0.73886317300E+02  0.11049317350E+03  0.76600959535E+01  0.13315316020E+03  0.17770000000E+01 0.  1.
         15    1    1    2    0    0  0.87014727012E+02 -0.90201509362E+01  0.84366816093E+01  0.87904841536E+02  0.17770000000E+01 0. -1.
</event>
