<event>
 7    1  0.2452998E-008  0.4718846E+03  0.7546771E-02  0.9465015E-01
        -11   -1    0    0    0    0  0.00000000000E+00  0.00000000000E+00  0.50000000000E+03  0.50000000000E+03  0.00000000000E+00 0.  1.
         11   -1    0    0    0    0 -0.00000000000E+00 -0.00000000000E+00 -0.50000000000E+03  0.50000000000E+03  0.00000000000E+00 0. -1.
         23    2    1    2    0    0  0.10113672922E+03 -0.33843325459E+03 -0.31632551938E+03  0.48313143006E+03  0.92673829561E+02 0.  0.
        -11    1    1    2    0    0 -0.59837431707E+02  0.29592791584E+03  0.33850879346E+03  0.45358797697E+03  0.00000000000E+00 0.  1.
         11    1    1    2    0    0 -0.41299297517E+02  0.42505338750E+02 -0.22183274076E+02  0.63280592968E+02  0.00000000000E+00 0. -1.
        -15    1    3    3    0    0  0.84012400334E+01 -0.87495721685E+00 -0.28967255280E+02  0.30225915895E+02  0.17770000000E+01 0.  1.
         15    1    3    3    0    0  0.92735489191E+02 -0.33755829738E+03 -0.28735826410E+03  0.45290551416E+03  0.17770000000E+01 0. -1.
</event>
<event>
 7    1  0.2452998E-008  0.5188757E+03  0.7546771E-02  0.9358537E-01
        -11   -1    0    0    0    0  0.00000000000E+00  0.00000000000E+00  0.50000000000E+03  0.50000000000E+03  0.00000000000E+00 0.  1.
         11   -1    0    0    0    0 -0.00000000000E+00 -0.00000000000E+00 -0.50000000000E+03  0.50000000000E+03  0.00000000000E+00 0.  1.
         23    2    1    2    0    0 -0.12750935929E+03 -0.21485896320E+03 -0.52947713507E+02  0.27081612359E+03  0.90082748932E+02 0.  0.
        -11    1    1    2    0    0  0.25749959528E+03  0.40440697349E+03 -0.40367160763E+02  0.48112425572E+03  0.00000000000E+00 0.  1.
         11    1    1    2    0    0 -0.12999023599E+03 -0.18954801029E+03  0.93314874270E+02  0.24805962069E+03  0.00000000000E+00 0.  1.
        -15    1    3    3    0    0 -0.59749709969E+02 -0.17640255506E+03 -0.24526707133E+02  0.18786326508E+03  0.17770000000E+01 0.  1.
         15    1    3    3    0    0 -0.67759649322E+02 -0.38456408145E+02 -0.28421006374E+02  0.82952858516E+02  0.17770000000E+01 0. -1.
</event>
<event>
 7    1  0.2452998E-008  0.5216870E+03  0.7546771E-02  0.9352550E-01
        -11   -1    0    0    0    0  0.00000000000E+00  0.00000000000E+00  0.50000000000E+03  0.50000000000E+03  0.00000000000E+00 0.  1.
         11   -1    0    0    0    0 -0.00000000000E+00 -0.00000000000E+00 -0.50000000000E+03  0.50000000000E+03  0.00000000000E+00 0. -1.
         23    2    1    2    0    0 -0.41618969307E+02  0.70962434873E+02 -0.21469011528E+03  0.24780077035E+03  0.92442254507E+02 0.  0.
        -11    1    1    2    0    0  0.23556718468E+03 -0.17496031611E+03  0.37773052820E+03  0.47831303834E+03  0.00000000000E+00 0.  1.
         11    1    1    2    0    0 -0.19394821538E+03  0.10399788123E+03 -0.16304041292E+03  0.27388619132E+03  0.00000000000E+00 0. -1.
        -15    1    3    3    0    0 -0.13257205344E+02  0.63911183781E+02 -0.20766791032E+03  0.21769132186E+03  0.17770000000E+01 0. -1.
         15    1    3    3    0    0 -0.28361763962E+02  0.70512510923E+01 -0.70222049561E+01  0.30109448492E+02  0.17770000000E+01 0.  1.
</event>
<event>
 7    1  0.2452998E-008  0.4171073E+03  0.7546771E-02  0.9607162E-01
        -11   -1    0    0    0    0  0.00000000000E+00  0.00000000000E+00  0.50000000000E+03  0.50000000000E+03  0.00000000000E+00 0.  1.
         11   -1    0    0    0    0 -0.00000000000E+00 -0.00000000000E+00 -0.50000000000E+03  0.50000000000E+03  0.00000000000E+00 0. -1.
         23    2    1    2    0    0  0.27132606842E+02  0.33391331681E+03  0.16707129539E+03  0.38472139646E+03  0.88676116570E+02 0.  0.
        -11    1    1    2    0    0  0.15118588952E+03  0.52060895898E+02 -0.41330243084E+01  0.15995184263E+03  0.00000000000E+00 0.  1.
         11    1    1    2    0    0 -0.17831849636E+03 -0.38597421271E+03 -0.16293827108E+03  0.45532676091E+03  0.00000000000E+00 0. -1.
        -15    1    3    3    0    0 -0.64102904922E+01  0.67747402788E+01 -0.77744360020E+01  0.12271451185E+02  0.17770000000E+01 0. -1.
         15    1    3    3    0    0  0.33542897334E+02  0.32713857653E+03  0.17484573139E+03  0.37244994527E+03  0.17770000000E+01 0.  1.
</event>
<event>
 7    1  0.2452998E-008  0.3731764E+03  0.7546771E-02  0.9739155E-01
        -11   -1    0    0    0    0  0.00000000000E+00  0.00000000000E+00  0.50000000000E+03  0.50000000000E+03  0.00000000000E+00 0.  1.
         11   -1    0    0    0    0 -0.00000000000E+00 -0.00000000000E+00 -0.50000000000E+03  0.50000000000E+03  0.00000000000E+00 0. -1.
         23    2    1    2    0    0  0.40280072583E+02  0.20070586976E+03 -0.53967216300E+01  0.22606402414E+03  0.95762664976E+02 0.  0.
        -11    1    1    2    0    0 -0.23690234790E+03 -0.28265536121E+03  0.25305233373E+03  0.44727201932E+03  0.00000000000E+00 0.  1.
         11    1    1    2    0    0  0.19662227532E+03  0.81949491448E+02 -0.24765561210E+03  0.32666395654E+03  0.00000000000E+00 0. -1.
        -15    1    3    3    0    0  0.58235051772E+02  0.61963023858E+02  0.84417186120E+01  0.85470216583E+02  0.17770000000E+01 0.  1.
         15    1    3    3    0    0 -0.17954979189E+02  0.13874284590E+03 -0.13838440242E+02  0.14059380756E+03  0.17770000000E+01 0. -1.
</event>
<event>
 7    1  0.2452998E-008  0.3604803E+03  0.7546771E-02  0.9780963E-01
        -11   -1    0    0    0    0  0.00000000000E+00  0.00000000000E+00  0.50000000000E+03  0.50000000000E+03  0.00000000000E+00 0. -1.
         11   -1    0    0    0    0 -0.00000000000E+00 -0.00000000000E+00 -0.50000000000E+03  0.50000000000E+03  0.00000000000E+00 0.  1.
         23    2    1    2    0    0 -0.94138724836E+02  0.23157424946E+02 -0.20444271519E+03  0.24436813779E+03  0.92307080612E+02 0.  0.
        -11    1    1    2    0    0  0.34284651540E+01 -0.36391793133E+03  0.16890179839E+03  0.40121793656E+03  0.00000000000E+00 0. -1.
         11    1    1    2    0    0  0.90710259682E+02  0.34076050639E+03  0.35540916796E+02  0.35441392565E+03  0.00000000000E+00 0.  1.
        -15    1    3    3    0    0  0.86543769735E+01  0.25713494461E+02 -0.70053129226E+02  0.75144398870E+02  0.17770000000E+01 0.  1.
         15    1    3    3    0    0 -0.10279310181E+03 -0.25560695155E+01 -0.13438958596E+03  0.16922373892E+03  0.17770000000E+01 0. -1.
</event>
<event>
 7    1  0.2452998E-008  0.5253639E+03  0.7546771E-02  0.9344779E-01
        -11   -1    0    0    0    0  0.00000000000E+00  0.00000000000E+00  0.50000000000E+03  0.50000000000E+03  0.00000000000E+00 0. -1.
         11   -1    0    0    0    0 -0.00000000000E+00 -0.00000000000E+00 -0.50000000000E+03  0.50000000000E+03  0.00000000000E+00 0. -1.
         23    2    1    2    0    0 -0.24308478755E+03 -0.27841185429E+02  0.18937053128E+03  0.32450996846E+03  0.97878373348E+02 0.  0.
        -11    1    1    2    0    0 -0.18316078374E+03 -0.81612586512E+02 -0.11567125702E+02  0.20085389062E+03  0.00000000000E+00 0. -1.
         11    1    1    2    0    0  0.42624557129E+03  0.10945377194E+03 -0.17780340558E+03  0.47463614092E+03  0.00000000000E+00 0. -1.
        -15    1    3    3    0    0 -0.22263764933E+03 -0.13415399938E+02  0.12559566040E+03  0.25597836529E+03  0.17770000000E+01 0. -1.
         15    1    3    3    0    0 -0.20447138216E+02 -0.14425785491E+02  0.63774870884E+02  0.68531603173E+02  0.17770000000E+01 0.  1.
</event>
<event>
 7    1  0.2452998E-008  0.4734647E+03  0.7546771E-02  0.9461224E-01
        -11   -1    0    0    0    0  0.00000000000E+00  0.00000000000E+00  0.50000000000E+03  0.50000000000E+03  0.00000000000E+00 0.  1.
         11   -1    0    0    0    0 -0.00000000000E+00 -0.00000000000E+00 -0.50000000000E+03  0.50000000000E+03  0.00000000000E+00 0. -1.
         23    2    1    2    0    0  0.13826007956E+03 -0.71099275929E+02 -0.41529039106E+03  0.45250598841E+03  0.90136585244E+02 0.  0.
        -11    1    1    2    0    0 -0.16450426410E+03  0.11651862670E+03  0.44405322961E+03  0.48766947208E+03  0.00000000000E+00 0.  1.
         11    1    1    2    0    0  0.26244184543E+02 -0.45419350771E+02 -0.28762838542E+02  0.59824539512E+02  0.00000000000E+00 0. -1.
        -15    1    3    3    0    0  0.77891878862E+02  0.10044656066E+02 -0.18191245744E+03  0.19814979134E+03  0.17770000000E+01 0.  1.
         15    1    3    3    0    0  0.60368200695E+02 -0.81143931995E+02 -0.23337793363E+03  0.25435619707E+03  0.17770000000E+01 0. -1.
</event>
<event>
 7    1  0.2452998E-008  0.5378775E+03  0.7546771E-02  0.9318829E-01
        -11   -1    0    0    0    0  0.00000000000E+00  0.00000000000E+00  0.50000000000E+03  0.50000000000E+03  0.00000000000E+00 0.  1.
         11   -1    0    0    0    0 -0.00000000000E+00 -0.00000000000E+00 -0.50000000000E+03  0.50000000000E+03  0.00000000000E+00 0.  1.
         23    2    1    2    0    0 -0.20748800996E+03  0.70057205625E+02  0.25641305192E+03  0.34939404243E+03  0.91483645265E+02 0.  0.
        -11    1    1    2    0    0  0.16796778101E+03 -0.21082294723E+03 -0.37536339850E+03  0.46212246371E+03  0.00000000000E+00 0.  1.
         11    1    1    2    0    0  0.39520228950E+02  0.14076574161E+03  0.11895034657E+03  0.18848349386E+03  0.00000000000E+00 0.  1.
        -15    1    3    3    0    0 -0.17970715155E+03  0.88013702032E+02  0.23982484481E+03  0.31234625975E+03  0.17770000000E+01 0.  1.
         15    1    3    3    0    0 -0.27780858407E+02 -0.17956496407E+02  0.16588207118E+02  0.37047782679E+02  0.17770000000E+01 0. -1.
</event>
<event>
 7    1  0.2452998E-008  0.4072279E+03  0.7546771E-02  0.9635282E-01
        -11   -1    0    0    0    0  0.00000000000E+00  0.00000000000E+00  0.50000000000E+03  0.50000000000E+03  0.00000000000E+00 0.  1.
         11   -1    0    0    0    0 -0.00000000000E+00 -0.00000000000E+00 -0.50000000000E+03  0.50000000000E+03  0.00000000000E+00 0. -1.
         23    2    1    2    0    0 -0.40829314273E+02  0.16223693439E+03  0.32781495388E+03  0.37942736997E+03  0.92274749067E+02 0.  0.
        -11    1    1    2    0    0  0.13756202141E+03  0.11092566802E+03  0.81448908559E+01  0.17690153422E+03  0.00000000000E+00 0.  1.
         11    1    1    2    0    0 -0.96732707137E+02 -0.27316260241E+03 -0.33595984473E+03  0.44367109581E+03  0.00000000000E+00 0. -1.
        -15    1    3    3    0    0 -0.17996995700E+01  0.83790608521E+02  0.77311347067E+02  0.11403642887E+03  0.17770000000E+01 0.  1.
         15    1    3    3    0    0 -0.39029614703E+02  0.78446325865E+02  0.25050360681E+03  0.26539094110E+03  0.17770000000E+01 0. -1.
</event>
<event>
 7    1  0.2452998E-008  0.4533275E+03  0.7546771E-02  0.9510761E-01
        -11   -1    0    0    0    0  0.00000000000E+00  0.00000000000E+00  0.50000000000E+03  0.50000000000E+03  0.00000000000E+00 0.  1.
         11   -1    0    0    0    0 -0.00000000000E+00 -0.00000000000E+00 -0.50000000000E+03  0.50000000000E+03  0.00000000000E+00 0. -1.
         23    2    1    2    0    0 -0.40104033041E+03  0.11926133680E+03  0.14423430894E+03  0.45166687181E+03  0.90237542877E+02 0.  0.
        -11    1    1    2    0    0  0.59651449914E+01 -0.69331263586E+02  0.67823751277E+02  0.97172363882E+02  0.00000000000E+00 0.  1.
         11    1    1    2    0    0  0.39507518542E+03 -0.49930073213E+02 -0.21205806022E+03  0.45116076431E+03  0.00000000000E+00 0. -1.
        -15    1    3    3    0    0 -0.13881383496E+03  0.84796502295E+02  0.68864217048E+02  0.17664983922E+03  0.17770000000E+01 0. -1.
         15    1    3    3    0    0 -0.26222649546E+03  0.34464834504E+02  0.75370091891E+02  0.27501703259E+03  0.17770000000E+01 0.  1.
</event>
<event>
 7    1  0.2452998E-008  0.3402375E+03  0.7546771E-02  0.9851591E-01
        -11   -1    0    0    0    0  0.00000000000E+00  0.00000000000E+00  0.50000000000E+03  0.50000000000E+03  0.00000000000E+00 0.  1.
         11   -1    0    0    0    0 -0.00000000000E+00 -0.00000000000E+00 -0.50000000000E+03  0.50000000000E+03  0.00000000000E+00 0. -1.
         23    2    1    2    0    0 -0.42127014201E+02 -0.23176248456E+03 -0.10195214146E+03  0.27272493097E+03  0.92174368725E+02 0.  0.
        -11    1    1    2    0    0  0.50798764485E+02  0.66968013563E+02 -0.29003410005E+03  0.30196855549E+03  0.00000000000E+00 0. -1.
         11    1    1    2    0    0 -0.86717502842E+01  0.16479447099E+03  0.39198624151E+03  0.42530651354E+03  0.00000000000E+00 0.  1.
        -15    1    3    3    0    0 -0.38552513341E+02 -0.23149955172E+03 -0.76333864446E+02  0.24679618174E+03  0.17770000000E+01 0. -1.
         15    1    3    3    0    0 -0.35745008597E+01 -0.26293283377E+00 -0.25618277018E+02  0.25928749226E+02  0.17770000000E+01 0.  1.
</event>
<event>
 7    1  0.2452998E-008  0.4162103E+03  0.7546771E-02  0.9609681E-01
        -11   -1    0    0    0    0  0.00000000000E+00  0.00000000000E+00  0.50000000000E+03  0.50000000000E+03  0.00000000000E+00 0.  1.
         11   -1    0    0    0    0 -0.00000000000E+00 -0.00000000000E+00 -0.50000000000E+03  0.50000000000E+03  0.00000000000E+00 0. -1.
         23    2    1    2    0    0 -0.31519880723E+02  0.42780813577E+02 -0.11746748935E+03  0.15765421771E+03  0.90733347881E+02 0.  0.
        -11    1    1    2    0    0 -0.13405638904E+03  0.13383887157E+03  0.41652602777E+03  0.45757828925E+03  0.00000000000E+00 0.  1.
         11    1    1    2    0    0  0.16557626976E+03 -0.17661968515E+03 -0.29905853842E+03  0.38476749303E+03  0.00000000000E+00 0. -1.
        -15    1    3    3    0    0 -0.95880695514E+01  0.66117815651E+02 -0.51747430750E+02  0.84524853992E+02  0.17770000000E+01 0.  1.
         15    1    3    3    0    0 -0.21931811171E+02 -0.23337002074E+02 -0.65720058598E+02  0.73129363720E+02  0.17770000000E+01 0. -1.
</event>
<event>
 7    1  0.2452998E-008  0.3851435E+03  0.7546771E-02  0.9701345E-01
        -11   -1    0    0    0    0  0.00000000000E+00  0.00000000000E+00  0.50000000000E+03  0.50000000000E+03  0.00000000000E+00 0. -1.
         11   -1    0    0    0    0 -0.00000000000E+00 -0.00000000000E+00 -0.50000000000E+03  0.50000000000E+03  0.00000000000E+00 0. -1.
         23    2    1    2    0    0  0.41334233134E+02 -0.61822295661E+02 -0.16995133887E+03  0.20768941647E+03  0.93385871829E+02 0.  0.
        -11    1    1    2    0    0  0.10577686825E+03  0.36791101741E+03  0.23121670813E+03  0.44722301899E+03  0.00000000000E+00 0. -1.
         11    1    1    2    0    0 -0.14711110139E+03 -0.30608872175E+03 -0.61265369259E+02  0.34508756455E+03  0.00000000000E+00 0. -1.
        -15    1    3    3    0    0  0.11937835219E+02 -0.82020731607E+02 -0.10757676213E+03  0.13581542550E+03  0.17770000000E+01 0. -1.
         15    1    3    3    0    0  0.29396397915E+02  0.20198435946E+02 -0.62374576742E+02  0.71873990969E+02  0.17770000000E+01 0.  1.
</event>
<event>
 7    1  0.2452998E-008  0.3851597E+03  0.7546771E-02  0.9701295E-01
        -11   -1    0    0    0    0  0.00000000000E+00  0.00000000000E+00  0.50000000000E+03  0.50000000000E+03  0.00000000000E+00 0. -1.
         11   -1    0    0    0    0 -0.00000000000E+00 -0.00000000000E+00 -0.50000000000E+03  0.50000000000E+03  0.00000000000E+00 0.  1.
         23    2    1    2    0    0  0.48389590879E+02 -0.83801517571E+02  0.15850354277E+03  0.20761147319E+03  0.92816506477E+02 0.  0.
        -11    1    1    2    0    0 -0.20877597521E+03  0.20628092666E+03  0.21773738704E+03  0.36544329005E+03  0.00000000000E+00 0. -1.
         11    1    1    2    0    0  0.16038638433E+03 -0.12247940909E+03 -0.37624092981E+03  0.42694523676E+03  0.00000000000E+00 0.  1.
        -15    1    3    3    0    0 -0.18258568142E+02 -0.59412673964E+02  0.62009330743E+02  0.87815465417E+02  0.17770000000E+01 0.  1.
         15    1    3    3    0    0  0.66648159022E+02 -0.24388843607E+02  0.96494212027E+02  0.11979600777E+03  0.17770000000E+01 0. -1.
</event>
<event>
 7    1  0.2452998E-008  0.5143455E+03  0.7546771E-02  0.9368271E-01
        -11   -1    0    0    0    0  0.00000000000E+00  0.00000000000E+00  0.50000000000E+03  0.50000000000E+03  0.00000000000E+00 0. -1.
         11   -1    0    0    0    0 -0.00000000000E+00 -0.00000000000E+00 -0.50000000000E+03  0.50000000000E+03  0.00000000000E+00 0. -1.
         23    2    1    2    0    0  0.82367352151E+02 -0.50458206943E+02 -0.18806647136E+03  0.22994950833E+03  0.90428797317E+02 0.  0.
        -11    1    1    2    0    0 -0.28347622175E+03  0.13510815184E+03  0.37046903256E+03  0.48565449146E+03  0.00000000000E+00 0. -1.
         11    1    1    2    0    0  0.20110886959E+03 -0.84649944892E+02 -0.18240256121E+03  0.28439600021E+03  0.00000000000E+00 0. -1.
        -15    1    3    3    0    0  0.11761367602E+02 -0.54116087485E+02 -0.49147697676E+02  0.74064395011E+02  0.17770000000E+01 0. -1.
         15    1    3    3    0    0  0.70605984549E+02  0.36578805425E+01 -0.13891877368E+03  0.15588511332E+03  0.17770000000E+01 0.  1.
</event>
<event>
 7    1  0.2452998E-008  0.3799303E+03  0.7546771E-02  0.9717633E-01
        -11   -1    0    0    0    0  0.00000000000E+00  0.00000000000E+00  0.50000000000E+03  0.50000000000E+03  0.00000000000E+00 0. -1.
         11   -1    0    0    0    0 -0.00000000000E+00 -0.00000000000E+00 -0.50000000000E+03  0.50000000000E+03  0.00000000000E+00 0. -1.
         23    2    1    2    0    0  0.47864140503E+02 -0.16860056044E+03 -0.28404168227E+03  0.34573094516E+03  0.90183614096E+02 0.  0.
        -11    1    1    2    0    0  0.15289229304E+03  0.24875877005E+03  0.32213186984E+03  0.43477111279E+03  0.00000000000E+00 0. -1.
         11    1    1    2    0    0 -0.20075643354E+03 -0.80158209611E+02 -0.38090187572E+02  0.21949794205E+03  0.00000000000E+00 0. -1.
        -15    1    3    3    0    0  0.50402625948E+02 -0.80596556834E+02 -0.82838164903E+02  0.12610134404E+03  0.17770000000E+01 0.  1.
         15    1    3    3    0    0 -0.25384854456E+01 -0.88004003602E+02 -0.20120351737E+03  0.21962960112E+03  0.17770000000E+01 0. -1.
</event>
<event>
 7    1  0.2452998E-008  0.3930989E+03  0.7546771E-02  0.9677014E-01
        -11   -1    0    0    0    0  0.00000000000E+00  0.00000000000E+00  0.50000000000E+03  0.50000000000E+03  0.00000000000E+00 0.  1.
         11   -1    0    0    0    0 -0.00000000000E+00 -0.00000000000E+00 -0.50000000000E+03  0.50000000000E+03  0.00000000000E+00 0. -1.
         23    2    1    2    0    0  0.16805775509E+03  0.30563476117E+02  0.23450835245E+02  0.19511836458E+03  0.91343852585E+02 0.  0.
        -11    1    1    2    0    0  0.17210346969E+03 -0.14597373206E+03 -0.28282031347E+03  0.36182214477E+03  0.00000000000E+00 0. -1.
         11    1    1    2    0    0 -0.34016122478E+03  0.11541025595E+03  0.25936947823E+03  0.44305949065E+03  0.00000000000E+00 0.  1.
        -15    1    3    3    0    0  0.10639244653E+03 -0.95845993649E+01 -0.21351306138E+02  0.10895069172E+03  0.17770000000E+01 0. -1.
         15    1    3    3    0    0  0.61665308560E+02  0.40148075482E+02  0.44802141383E+02  0.86167672860E+02  0.17770000000E+01 0.  1.
</event>
<event>
 7    1  0.2452998E-008  0.5392110E+03  0.7546771E-02  0.9316108E-01
        -11   -1    0    0    0    0  0.00000000000E+00  0.00000000000E+00  0.50000000000E+03  0.50000000000E+03  0.00000000000E+00 0.  1.
         11   -1    0    0    0    0 -0.00000000000E+00 -0.00000000000E+00 -0.50000000000E+03  0.50000000000E+03  0.00000000000E+00 0.  1.
         23    2    1    2    0    0 -0.88422317569E+02  0.17776531590E+02  0.13530644838E+03  0.18704780086E+03  0.92436645937E+02 0.  0.
        -11    1    1    2    0    0  0.41896874929E+03  0.10040483086E+03 -0.16343365865E+03  0.46078900130E+03  0.00000000000E+00 0.  1.
         11    1    1    2    0    0 -0.33054643172E+03 -0.11818136245E+03  0.28127210273E+02  0.35216319784E+03  0.00000000000E+00 0.  1.
        -15    1    3    3    0    0  0.14379035693E+02 -0.54624413046E+01  0.47167585637E+02  0.49644071109E+02  0.17770000000E+01 0. -1.
         15    1    3    3    0    0 -0.10280135326E+03  0.23238972895E+02  0.88138862744E+02  0.13740372975E+03  0.17770000000E+01 0.  1.
</event>
<event>
 7    1  0.2452998E-008  0.5335665E+03  0.7546771E-02  0.9327684E-01
        -11   -1    0    0    0    0  0.00000000000E+00  0.00000000000E+00  0.50000000000E+03  0.50000000000E+03  0.00000000000E+00 0.  1.
         11   -1    0    0    0    0 -0.00000000000E+00 -0.00000000000E+00 -0.50000000000E+03  0.50000000000E+03  0.00000000000E+00 0. -1.
         23    2    1    2    0    0 -0.32029902130E+02  0.79153300935E+02 -0.92075048388E+02  0.15468931614E+03  0.90331668388E+02 0.  0.
        -11    1    1    2    0    0  0.14326112118E+03  0.71222709789E+01  0.44383074170E+03  0.46643349244E+03  0.00000000000E+00 0.  1.
         11    1    1    2    0    0 -0.11123121905E+03 -0.86275571913E+02 -0.35175569332E+03  0.37887719142E+03  0.00000000000E+00 0. -1.
        -15    1    3    3    0    0 -0.31337111998E+02 -0.39843406773E+01 -0.14222393796E+01  0.31671281200E+02  0.17770000000E+01 0. -1.
         15    1    3    3    0    0 -0.69279013199E+00  0.83137641612E+02 -0.90652809009E+02  0.12301803494E+03  0.17770000000E+01 0.  1.
</event>
<event>
 7    1  0.2452998E-008  0.4109796E+03  0.7546771E-02  0.9624505E-01
        -11   -1    0    0    0    0  0.00000000000E+00  0.00000000000E+00  0.50000000000E+03  0.50000000000E+03  0.00000000000E+00 0. -1.
         11   -1    0    0    0    0 -0.00000000000E+00 -0.00000000000E+00 -0.50000000000E+03  0.50000000000E+03  0.00000000000E+00 0. -1.
         23    2    1    2    0    0 -0.97420199636E+01 -0.28383709864E+02 -0.13590127743E+03  0.16634151760E+03  0.91103245454E+02 0.  0.
        -11    1    1    2    0    0 -0.13041837114E+03  0.36263105100E+03  0.24316500044E+03  0.45567471745E+03  0.00000000000E+00 0. -1.
         11    1    1    2    0    0  0.14016039110E+03 -0.33424734114E+03 -0.10726372301E+03  0.37798376495E+03  0.00000000000E+00 0. -1.
        -15    1    3    3    0    0 -0.19336441832E+02 -0.59605008736E+02 -0.97285026468E+02  0.11573326727E+03  0.17770000000E+01 0.  1.
         15    1    3    3    0    0  0.95944218680E+01  0.31221298872E+02 -0.38616250963E+02  0.50608250332E+02  0.17770000000E+01 0. -1.
</event>
<event>
 7    1  0.2907333E-008  0.3932089E+03  0.7546771E-02  0.9676682E-01
        -11   -1    0    0    0    0  0.00000000000E+00  0.00000000000E+00  0.50000000000E+03  0.50000000000E+03  0.00000000000E+00 0.  1.
         11   -1    0    0    0    0 -0.00000000000E+00 -0.00000000000E+00 -0.50000000000E+03  0.50000000000E+03  0.00000000000E+00 0. -1.
         23    2    1    2    0    0  0.31677733605E+02 -0.38654115558E+02 -0.16453432101E+03  0.19500180323E+03  0.91959453104E+02 0.  0.
        -11    1    1    2    0    0  0.18053604476E+03  0.26392440184E+03  0.32538625232E+03  0.45620781070E+03  0.00000000000E+00 0.  1.
         11    1    1    2    0    0 -0.21221377836E+03 -0.22527028628E+03 -0.16085193131E+03  0.34879038607E+03  0.00000000000E+00 0. -1.
        -15    1    3    3    0    0 -0.25722638616E+02 -0.12741296223E+02 -0.10297815885E+03  0.10691891178E+03  0.17770000000E+01 0.  1.
         15    1    3    3    0    0  0.57400372221E+02 -0.25912819335E+02 -0.61556162165E+02  0.88082891452E+02  0.17770000000E+01 0. -1.
</event>
<event>
 7    1  0.2452998E-008  0.5216654E+03  0.7546771E-02  0.9352595E-01
        -11   -1    0    0    0    0  0.00000000000E+00  0.00000000000E+00  0.50000000000E+03  0.50000000000E+03  0.00000000000E+00 0. -1.
         11   -1    0    0    0    0 -0.00000000000E+00 -0.00000000000E+00 -0.50000000000E+03  0.50000000000E+03  0.00000000000E+00 0. -1.
         23    2    1    2    0    0 -0.38124856446E+02 -0.61116449762E+02  0.53026993484E+02  0.12622745470E+03  0.89066172987E+02 0.  0.
        -11    1    1    2    0    0  0.55812389212E+02  0.31359188739E+03 -0.35686000545E+03  0.47833456713E+03  0.00000000000E+00 0. -1.
         11    1    1    2    0    0 -0.17687532767E+02 -0.25247543763E+03  0.30383301197E+03  0.39543797817E+03  0.00000000000E+00 0. -1.
        -15    1    3    3    0    0 -0.61829538995E+02 -0.22782640907E+02  0.46461937063E+02  0.80646202289E+02  0.17770000000E+01 0. -1.
         15    1    3    3    0    0  0.23704682550E+02 -0.38333808855E+02  0.65650564212E+01  0.45581252407E+02  0.17770000000E+01 0.  1.
</event>
<event>
 7    1  0.2452998E-008  0.5160388E+03  0.7546771E-02  0.9364620E-01
        -11   -1    0    0    0    0  0.00000000000E+00  0.00000000000E+00  0.50000000000E+03  0.50000000000E+03  0.00000000000E+00 0. -1.
         11   -1    0    0    0    0 -0.00000000000E+00 -0.00000000000E+00 -0.50000000000E+03  0.50000000000E+03  0.00000000000E+00 0.  1.
         23    2    1    2    0    0  0.58946708870E+02 -0.89940052886E+02 -0.40290757831E+02  0.14655535078E+03  0.91056016140E+02 0.  0.
        -11    1    1    2    0    0 -0.22571052572E+03  0.39887577159E+03  0.15547132039E+03  0.48396121131E+03  0.00000000000E+00 0. -1.
         11    1    1    2    0    0  0.16676381685E+03 -0.30893571871E+03 -0.11518056256E+03  0.36948343792E+03  0.00000000000E+00 0.  1.
        -15    1    3    3    0    0 -0.59392920595E+01 -0.67307770418E+02 -0.38502016654E+02  0.77789293378E+02  0.17770000000E+01 0.  1.
         15    1    3    3    0    0  0.64886000929E+02 -0.22632282468E+02 -0.17887411763E+01  0.68766057400E+02  0.17770000000E+01 0. -1.
</event>
<event>
 7    1  0.2452998E-008  0.5178967E+03  0.7546771E-02  0.9360631E-01
        -11   -1    0    0    0    0  0.00000000000E+00  0.00000000000E+00  0.50000000000E+03  0.50000000000E+03  0.00000000000E+00 0.  1.
         11   -1    0    0    0    0 -0.00000000000E+00 -0.00000000000E+00 -0.50000000000E+03  0.50000000000E+03  0.00000000000E+00 0.  1.
         23    2    1    2    0    0 -0.15185212299E+02 -0.12862048215E+02  0.18258969356E+03  0.20460175833E+03  0.90149100735E+02 0.  0.
        -11    1    1    2    0    0 -0.17007955332E+03 -0.55094083926E+02  0.25727675388E+03  0.31329497383E+03  0.00000000000E+00 0.  1.
         11    1    1    2    0    0  0.18526476562E+03  0.67956132141E+02 -0.43986644743E+03  0.48210326783E+03  0.00000000000E+00 0.  1.
        -15    1    3    3    0    0  0.66598148060E+01  0.30611109216E+02  0.12648292161E+03  0.13031684591E+03  0.17770000000E+01 0.  1.
         15    1    3    3    0    0 -0.21845027105E+02 -0.43473157431E+02  0.56106771949E+02  0.74284912423E+02  0.17770000000E+01 0. -1.
</event>
<event>
 7    1  0.2452998E-008  0.3536226E+03  0.7546771E-02  0.9804321E-01
        -11   -1    0    0    0    0  0.00000000000E+00  0.00000000000E+00  0.50000000000E+03  0.50000000000E+03  0.00000000000E+00 0.  1.
         11   -1    0    0    0    0 -0.00000000000E+00 -0.00000000000E+00 -0.50000000000E+03  0.50000000000E+03  0.00000000000E+00 0.  1.
         23    2    1    2    0    0 -0.54635203154E+02 -0.93293100711E+02  0.25636968497E+03  0.29308015808E+03  0.92097533215E+02 0.  0.
        -11    1    1    2    0    0  0.15119962402E+03 -0.19704853725E+03  0.71493935408E+02  0.25845857528E+03  0.00000000000E+00 0.  1.
         11    1    1    2    0    0 -0.96564420864E+02  0.29034163797E+03 -0.32786362037E+03  0.44846126664E+03  0.00000000000E+00 0.  1.
        -15    1    3    3    0    0 -0.71714417600E+02 -0.99386434588E+02  0.20849182809E+03  0.24185247814E+03  0.17770000000E+01 0. -1.
         15    1    3    3    0    0  0.17079214446E+02  0.60933338777E+01  0.47877856875E+02  0.51227679938E+02  0.17770000000E+01 0.  1.
</event>
<event>
 7    1  0.2452998E-008  0.3430077E+03  0.7546771E-02  0.9841619E-01
        -11   -1    0    0    0    0  0.00000000000E+00  0.00000000000E+00  0.50000000000E+03  0.50000000000E+03  0.00000000000E+00 0. -1.
         11   -1    0    0    0    0 -0.00000000000E+00 -0.00000000000E+00 -0.50000000000E+03  0.50000000000E+03  0.00000000000E+00 0.  1.
         23    2    1    2    0    0  0.25948310283E+03 -0.77797487236E+02  0.13233264912E+03  0.31332371039E+03  0.85298814726E+02 0.  0.
        -11    1    1    2    0    0 -0.11933541851E+03 -0.30783320803E+02  0.24250622799E+03  0.27202541345E+03  0.00000000000E+00 0. -1.
         11    1    1    2    0    0 -0.14014768433E+03  0.10858080804E+03 -0.37483887712E+03  0.41465087615E+03  0.00000000000E+00 0.  1.
        -15    1    3    3    0    0  0.11858820278E+03 -0.16446791961E+02  0.10062490012E+03  0.15640392277E+03  0.17770000000E+01 0.  1.
         15    1    3    3    0    0  0.14089490005E+03 -0.61350695275E+02  0.31707749002E+02  0.15691978762E+03  0.17770000000E+01 0. -1.
</event>
<event>
 7    1  0.2452998E-008  0.3553908E+03  0.7546771E-02  0.9798245E-01
        -11   -1    0    0    0    0  0.00000000000E+00  0.00000000000E+00  0.50000000000E+03  0.50000000000E+03  0.00000000000E+00 0.  1.
         11   -1    0    0    0    0 -0.00000000000E+00 -0.00000000000E+00 -0.50000000000E+03  0.50000000000E+03  0.00000000000E+00 0. -1.
         23    2    1    2    0    0  0.15776720653E+02  0.55608612918E+02  0.22761349521E+03  0.25142833031E+03  0.89816921231E+02 0.  0.
        -11    1    1    2    0    0 -0.98029748251E+02 -0.29601243271E+03  0.10588485461E+03  0.32930957213E+03  0.00000000000E+00 0.  1.
         11    1    1    2    0    0  0.82253027598E+02  0.24040381979E+03 -0.33349834981E+03  0.41926209756E+03  0.00000000000E+00 0. -1.
        -15    1    3    3    0    0  0.51855026320E+02  0.19392196918E+02  0.10942620917E+03  0.12264686722E+03  0.17770000000E+01 0. -1.
         15    1    3    3    0    0 -0.36078305667E+02  0.36216415999E+02  0.11818728603E+03  0.12878146309E+03  0.17770000000E+01 0.  1.
</event>
<event>
 7    1  0.2452998E-008  0.3574590E+03  0.7546771E-02  0.9791185E-01
        -11   -1    0    0    0    0  0.00000000000E+00  0.00000000000E+00  0.50000000000E+03  0.50000000000E+03  0.00000000000E+00 0. -1.
         11   -1    0    0    0    0 -0.00000000000E+00 -0.00000000000E+00 -0.50000000000E+03  0.50000000000E+03  0.00000000000E+00 0.  1.
         23    2    1    2    0    0 -0.39436057765E+01  0.33772235674E+03 -0.70731426439E+02  0.35642036300E+03  0.89222184498E+02 0.  0.
        -11    1    1    2    0    0  0.21689494398E+03 -0.31917963242E+03 -0.63616614437E+02  0.39110884432E+03  0.00000000000E+00 0.  1.
         11    1    1    2    0    0 -0.21295133821E+03 -0.18542724317E+02  0.13434804088E+03  0.25247079268E+03  0.00000000000E+00 0. -1.
        -15    1    3    3    0    0  0.21442365921E+02  0.31321330629E+03 -0.65366430538E+02  0.32068407860E+03  0.17770000000E+01 0.  1.
         15    1    3    3    0    0 -0.25385971698E+02  0.24509050442E+02 -0.53649959008E+01  0.35736284399E+02  0.17770000000E+01 0. -1.
</event>
<event>
 7    1  0.2452998E-008  0.5350080E+03  0.7546771E-02  0.9324713E-01
        -11   -1    0    0    0    0  0.00000000000E+00  0.00000000000E+00  0.50000000000E+03  0.50000000000E+03  0.00000000000E+00 0.  1.
         11   -1    0    0    0    0 -0.00000000000E+00 -0.00000000000E+00 -0.50000000000E+03  0.50000000000E+03  0.00000000000E+00 0.  1.
         23    2    1    2    0    0 -0.85809728819E+02  0.13480048730E+03 -0.25413057275E+03  0.31380892043E+03  0.91428713185E+02 0.  0.
        -11    1    1    2    0    0 -0.14638329812E+03 -0.80387588024E+02 -0.14504757502E+03  0.22119908069E+03  0.00000000000E+00 0.  1.
         11    1    1    2    0    0  0.23219302694E+03 -0.54412899278E+02  0.39917814777E+03  0.46499199889E+03  0.00000000000E+00 0.  1.
        -15    1    3    3    0    0 -0.38099677960E+02  0.67492045325E+02 -0.20158562070E+03  0.21597842912E+03  0.17770000000E+01 0.  1.
         15    1    3    3    0    0 -0.47710050860E+02  0.67308441977E+02 -0.52544952055E+02  0.97830491309E+02  0.17770000000E+01 0. -1.
</event>
<event>
 7    1  0.2452998E-008  0.4456284E+03  0.7546771E-02  0.9530430E-01
        -11   -1    0    0    0    0  0.00000000000E+00  0.00000000000E+00  0.50000000000E+03  0.50000000000E+03  0.00000000000E+00 0. -1.
         11   -1    0    0    0    0 -0.00000000000E+00 -0.00000000000E+00 -0.50000000000E+03  0.50000000000E+03  0.00000000000E+00 0.  1.
         23    2    1    2    0    0 -0.18903910621E+02  0.29663652168E+02 -0.47649325309E+02  0.10677750672E+03  0.88846427286E+02 0.  0.
        -11    1    1    2    0    0  0.72821402415E+02 -0.44015491679E+03 -0.93453083926E+02  0.45582100250E+03  0.00000000000E+00 0.  1.
         11    1    1    2    0    0 -0.53917491793E+02  0.41049126462E+03  0.14110240923E+03  0.43740149079E+03  0.00000000000E+00 0. -1.
        -15    1    3    3    0    0 -0.53091409457E+02  0.30325937792E+02 -0.33379385219E+02  0.69682862655E+02  0.17770000000E+01 0.  1.
         15    1    3    3    0    0  0.34187498836E+02 -0.66228562454E+00 -0.14269940089E+02  0.37094644062E+02  0.17770000000E+01 0. -1.
</event>
<event>
 7    1  0.2452998E-008  0.5334076E+03  0.7546771E-02  0.9328012E-01
        -11   -1    0    0    0    0  0.00000000000E+00  0.00000000000E+00  0.50000000000E+03  0.50000000000E+03  0.00000000000E+00 0.  1.
         11   -1    0    0    0    0 -0.00000000000E+00 -0.00000000000E+00 -0.50000000000E+03  0.50000000000E+03  0.00000000000E+00 0.  1.
         23    2    1    2    0    0 -0.75604117205E+02 -0.14901606917E+02 -0.81596292553E+01  0.11971483673E+03  0.91252518634E+02 0.  0.
        -11    1    1    2    0    0 -0.28800840049E+03 -0.59131379988E+02  0.29102630737E+03  0.41369272466E+03  0.00000000000E+00 0.  1.
         11    1    1    2    0    0  0.36361251770E+03  0.74032986905E+02 -0.28286667812E+03  0.46659243861E+03  0.00000000000E+00 0.  1.
        -15    1    3    3    0    0 -0.61870906535E+02 -0.14037241186E+02 -0.46670799258E+02  0.78780546126E+02  0.17770000000E+01 0.  1.
         15    1    3    3    0    0 -0.13733210670E+02 -0.86436573090E+00  0.38511170003E+02  0.40934290606E+02  0.17770000000E+01 0. -1.
</event>
<event>
 7    1  0.2452998E-008  0.5259325E+03  0.7546771E-02  0.9343583E-01
        -11   -1    0    0    0    0  0.00000000000E+00  0.00000000000E+00  0.50000000000E+03  0.50000000000E+03  0.00000000000E+00 0. -1.
         11   -1    0    0    0    0 -0.00000000000E+00 -0.00000000000E+00 -0.50000000000E+03  0.50000000000E+03  0.00000000000E+00 0.  1.
         23    2    1    2    0    0  0.29825454130E+02 -0.51381909875E+02  0.92835974479E+02  0.14250746284E+03  0.90333827729E+02 0.  0.
        -11    1    1    2    0    0 -0.83441195388E+02 -0.31131345207E+03  0.20769264684E+03  0.38342500450E+03  0.00000000000E+00 0. -1.
         11    1    1    2    0    0  0.53615741257E+02  0.36269536195E+03 -0.30052862131E+03  0.47406753265E+03  0.00000000000E+00 0.  1.
        -15    1    3    3    0    0 -0.99320066046E+01  0.22197386505E+02  0.23345386431E+02  0.33756977345E+02  0.17770000000E+01 0.  1.
         15    1    3    3    0    0  0.39757460735E+02 -0.73579296380E+02  0.69490588048E+02  0.10875048550E+03  0.17770000000E+01 0. -1.
</event>
<event>
 7    1  0.2452998E-008  0.3692260E+03  0.7546771E-02  0.9751970E-01
        -11   -1    0    0    0    0  0.00000000000E+00  0.00000000000E+00  0.50000000000E+03  0.50000000000E+03  0.00000000000E+00 0. -1.
         11   -1    0    0    0    0 -0.00000000000E+00 -0.00000000000E+00 -0.50000000000E+03  0.50000000000E+03  0.00000000000E+00 0. -1.
         23    2    1    2    0    0  0.25550357139E+03 -0.14614428889E+03  0.95440872733E+02  0.32259728824E+03  0.91213058401E+02 0.  0.
        -11    1    1    2    0    0 -0.19349058062E+03  0.36581745513E+03 -0.15431820689E+03  0.44167309658E+03  0.00000000000E+00 0. -1.
         11    1    1    2    0    0 -0.62012990774E+02 -0.21967316625E+03  0.58877334157E+02  0.23572961518E+03  0.00000000000E+00 0. -1.
        -15    1    3    3    0    0  0.20520985315E+02  0.12445171059E+02  0.13021454770E+02  0.27362549851E+02  0.17770000000E+01 0.  1.
         15    1    3    3    0    0  0.23498258608E+03 -0.15858945995E+03  0.82419417963E+02  0.29523473839E+03  0.17770000000E+01 0. -1.
</event>
<event>
 7    1  0.2452998E-008  0.3487053E+03  0.7546771E-02  0.9821422E-01
        -11   -1    0    0    0    0  0.00000000000E+00  0.00000000000E+00  0.50000000000E+03  0.50000000000E+03  0.00000000000E+00 0.  1.
         11   -1    0    0    0    0 -0.00000000000E+00 -0.00000000000E+00 -0.50000000000E+03  0.50000000000E+03  0.00000000000E+00 0. -1.
         23    2    1    2    0    0  0.11455312835E+02 -0.77380186121E+01  0.24407898432E+03  0.26098226767E+03  0.91356950088E+02 0.  0.
        -11    1    1    2    0    0 -0.34113533801E+03  0.58433558753E+02 -0.41046071864E+02  0.34852916613E+03  0.00000000000E+00 0.  1.
         11    1    1    2    0    0  0.32968002518E+03 -0.50695540141E+02 -0.20303291245E+03  0.39048856620E+03  0.00000000000E+00 0. -1.
        -15    1    3    3    0    0 -0.56293054256E+01 -0.39589093844E+01 -0.65926072294E+01  0.96944438814E+01  0.17770000000E+01 0. -1.
         15    1    3    3    0    0  0.17084618261E+02 -0.37791092277E+01  0.25067159155E+03  0.25128782379E+03  0.17770000000E+01 0.  1.
</event>
<event>
 7    1  0.2452998E-008  0.3850238E+03  0.7546771E-02  0.9701716E-01
        -11   -1    0    0    0    0  0.00000000000E+00  0.00000000000E+00  0.50000000000E+03  0.50000000000E+03  0.00000000000E+00 0. -1.
         11   -1    0    0    0    0 -0.00000000000E+00 -0.00000000000E+00 -0.50000000000E+03  0.50000000000E+03  0.00000000000E+00 0. -1.
         23    2    1    2    0    0  0.68542150363E+02  0.50942634994E+02  0.16646473792E+03  0.20755002205E+03  0.89851679142E+02 0.  0.
        -11    1    1    2    0    0 -0.27620669663E+03  0.25587424012E+03 -0.18898130871E+03  0.42127865014E+03  0.00000000000E+00 0. -1.
         11    1    1    2    0    0  0.20766454626E+03 -0.30681687512E+03  0.22516570795E+02  0.37117132781E+03  0.00000000000E+00 0. -1.
        -15    1    3    3    0    0 -0.82920095839E+01 -0.18487590067E+02  0.25191508952E+02  0.32377743308E+02  0.17770000000E+01 0.  1.
         15    1    3    3    0    0  0.76834159947E+02  0.69430225061E+02  0.14127322897E+03  0.17517227874E+03  0.17770000000E+01 0. -1.
</event>
<event>
 7    1  0.2669417E-008  0.3831749E+03  0.7546771E-02  0.9707463E-01
        -11   -1    0    0    0    0  0.00000000000E+00  0.00000000000E+00  0.50000000000E+03  0.50000000000E+03  0.00000000000E+00 0.  1.
         11   -1    0    0    0    0 -0.00000000000E+00 -0.00000000000E+00 -0.50000000000E+03  0.50000000000E+03  0.00000000000E+00 0. -1.
         23    2    1    2    0    0  0.19262090245E+02 -0.67682100030E+02  0.17709383180E+03  0.21031257395E+03  0.88978979049E+02 0.  0.
        -11    1    1    2    0    0 -0.29611881617E+03  0.10735836878E+03  0.15867741408E+03  0.35269064969E+03  0.00000000000E+00 0.  1.
         11    1    1    2    0    0  0.27685672592E+03 -0.39676268750E+02 -0.33577124589E+03  0.43699677637E+03  0.00000000000E+00 0. -1.
        -15    1    3    3    0    0 -0.27069125830E+02 -0.27773396419E+02  0.12184810365E+03  0.12788360807E+03  0.17770000000E+01 0.  1.
         15    1    3    3    0    0  0.46331216075E+02 -0.39908703612E+02  0.55245728154E+02  0.82428965875E+02  0.17770000000E+01 0. -1.
</event>
<event>
 7    1  0.2452998E-008  0.3181591E+03  0.7546771E-02  0.9934898E-01
        -11   -1    0    0    0    0  0.00000000000E+00  0.00000000000E+00  0.50000000000E+03  0.50000000000E+03  0.00000000000E+00 0.  1.
         11   -1    0    0    0    0 -0.00000000000E+00 -0.00000000000E+00 -0.50000000000E+03  0.50000000000E+03  0.00000000000E+00 0.  1.
         23    2    1    2    0    0 -0.23819480052E+02 -0.38314671266E+02  0.28419736937E+03  0.30164157714E+03  0.90466096630E+02 0.  0.
        -11    1    1    2    0    0 -0.11797648897E+03 -0.26716231991E+03 -0.19084244257E+03  0.34887676193E+03  0.00000000000E+00 0.  1.
         11    1    1    2    0    0  0.14179596902E+03  0.30547699118E+03 -0.93354926795E+02  0.34948166093E+03  0.00000000000E+00 0.  1.
        -15    1    3    3    0    0 -0.31608075462E+02 -0.64132826674E+02  0.23326305621E+03  0.24398135382E+03  0.17770000000E+01 0.  1.
         15    1    3    3    0    0  0.77885954104E+01  0.25818155408E+02  0.50934313162E+02  0.57660223321E+02  0.17770000000E+01 0. -1.
</event>
<event>
 7    1  0.2452998E-008  0.4407883E+03  0.7546771E-02  0.9543013E-01
        -11   -1    0    0    0    0  0.00000000000E+00  0.00000000000E+00  0.50000000000E+03  0.50000000000E+03  0.00000000000E+00 0.  1.
         11   -1    0    0    0    0 -0.00000000000E+00 -0.00000000000E+00 -0.50000000000E+03  0.50000000000E+03  0.00000000000E+00 0. -1.
         23    2    1    2    0    0 -0.15777674752E+02 -0.67877698058E+02 -0.30475972402E+02  0.11514831801E+03  0.86452491763E+02 0.  0.
        -11    1    1    2    0    0 -0.16488568322E+02 -0.26458594230E+03  0.33886060859E+03  0.43023726687E+03  0.00000000000E+00 0.  1.
         11    1    1    2    0    0  0.32266243074E+02  0.33246364036E+03 -0.30838463619E+03  0.45461441512E+03  0.00000000000E+00 0. -1.
        -15    1    3    3    0    0 -0.26198382184E+02  0.40354046718E+01 -0.33065736459E+02  0.42416274901E+02  0.17770000000E+01 0. -1.
         15    1    3    3    0    0  0.10420707432E+02 -0.71913102730E+02  0.25897640576E+01  0.72732043107E+02  0.17770000000E+01 0.  1.
</event>
<event>
 7    1  0.2452998E-008  0.4067537E+03  0.7546771E-02  0.9636653E-01
        -11   -1    0    0    0    0  0.00000000000E+00  0.00000000000E+00  0.50000000000E+03  0.50000000000E+03  0.00000000000E+00 0.  1.
         11   -1    0    0    0    0 -0.00000000000E+00 -0.00000000000E+00 -0.50000000000E+03  0.50000000000E+03  0.00000000000E+00 0.  1.
         23    2    1    2    0    0 -0.25688966276E+02  0.19752710488E+03  0.30314588129E+03  0.37404418822E+03  0.91294847891E+02 0.  0.
        -11    1    1    2    0    0  0.40940861246E+02  0.16731623830E+03 -0.42805662046E+02  0.17749141506E+03  0.00000000000E+00 0.  1.
         11    1    1    2    0    0 -0.15251894970E+02 -0.36484334318E+03 -0.26034021924E+03  0.44846439671E+03  0.00000000000E+00 0.  1.
        -15    1    3    3    0    0 -0.62893580290E+01 -0.39568391952E+01  0.46763523725E+02  0.47383514866E+02  0.17770000000E+01 0. -1.
         15    1    3    3    0    0 -0.19399608247E+02  0.20148394408E+03  0.25638235756E+03  0.32666067336E+03  0.17770000000E+01 0.  1.
</event>
<event>
 7    1  0.2452998E-008  0.5120233E+03  0.7546771E-02  0.9373301E-01
        -11   -1    0    0    0    0  0.00000000000E+00  0.00000000000E+00  0.50000000000E+03  0.50000000000E+03  0.00000000000E+00 0. -1.
         11   -1    0    0    0    0 -0.00000000000E+00 -0.00000000000E+00 -0.50000000000E+03  0.50000000000E+03  0.00000000000E+00 0.  1.
         23    2    1    2    0    0 -0.25321574736E+03 -0.17949621149E+03 -0.77098066961E+01  0.32587585919E+03  0.98987523627E+02 0.  0.
        -11    1    1    2    0    0  0.43375658531E+03  0.22353273497E+03 -0.30918551672E+01  0.48797665771E+03  0.00000000000E+00 0. -1.
         11    1    1    2    0    0 -0.18054083794E+03 -0.44036523479E+02  0.10801661863E+02  0.18614748310E+03  0.00000000000E+00 0.  1.
        -15    1    3    3    0    0 -0.17255218401E+03 -0.14297214049E+03  0.36238838775E+02  0.22700594778E+03  0.17770000000E+01 0. -1.
         15    1    3    3    0    0 -0.80663563354E+02 -0.36524071003E+02 -0.43948645471E+02  0.98869911415E+02  0.17770000000E+01 0.  1.
</event>
<event>
 7    1  0.2452998E-008  0.3690006E+03  0.7546771E-02  0.9752707E-01
        -11   -1    0    0    0    0  0.00000000000E+00  0.00000000000E+00  0.50000000000E+03  0.50000000000E+03  0.00000000000E+00 0.  1.
         11   -1    0    0    0    0 -0.00000000000E+00 -0.00000000000E+00 -0.50000000000E+03  0.50000000000E+03  0.00000000000E+00 0. -1.
         23    2    1    2    0    0  0.33313502451E+02 -0.20045615880E+02  0.20925503434E+03  0.23192116220E+03  0.92131101802E+02 0.  0.
        -11    1    1    2    0    0 -0.29879326146E+03  0.10289619361E+03  0.11915652613E+03  0.33773261239E+03  0.00000000000E+00 0.  1.
         11    1    1    2    0    0  0.26547975901E+03 -0.82850577727E+02 -0.32841156046E+03  0.43034622541E+03  0.00000000000E+00 0. -1.
        -15    1    3    3    0    0  0.17050221598E+02 -0.34646661127E+02  0.24274573141E+02  0.45645523482E+02  0.17770000000E+01 0.  1.
         15    1    3    3    0    0  0.16263280853E+02  0.14601045247E+02  0.18498046120E+03  0.18627563872E+03  0.17770000000E+01 0. -1.
</event>
<event>
 7    1  0.2452998E-008  0.5282972E+03  0.7546771E-02  0.9338628E-01
        -11   -1    0    0    0    0  0.00000000000E+00  0.00000000000E+00  0.50000000000E+03  0.50000000000E+03  0.00000000000E+00 0. -1.
         11   -1    0    0    0    0 -0.00000000000E+00 -0.00000000000E+00 -0.50000000000E+03  0.50000000000E+03  0.00000000000E+00 0.  1.
         23    2    1    2    0    0 -0.51770027445E+02 -0.61452669613E+02 -0.84253988836E+02  0.14791585399E+03  0.91234855630E+02 0.  0.
        -11    1    1    2    0    0 -0.54836555289E+02  0.31839042658E+03  0.34369178991E+03  0.47170282804E+03  0.00000000000E+00 0. -1.
         11    1    1    2    0    0  0.10660658273E+03 -0.25693775697E+03 -0.25943780107E+03  0.38038131797E+03  0.00000000000E+00 0.  1.
        -15    1    3    3    0    0  0.13688450000E+02 -0.28842112785E+01  0.11331210310E+02  0.18089952852E+02  0.17770000000E+01 0.  1.
         15    1    3    3    0    0 -0.65458477444E+02 -0.58568458334E+02 -0.95585199146E+02  0.12982590114E+03  0.17770000000E+01 0. -1.
</event>
<event>
 7    1  0.2452998E-008  0.5092147E+03  0.7546771E-02  0.9379424E-01
        -11   -1    0    0    0    0  0.00000000000E+00  0.00000000000E+00  0.50000000000E+03  0.50000000000E+03  0.00000000000E+00 0.  1.
         11   -1    0    0    0    0 -0.00000000000E+00 -0.00000000000E+00 -0.50000000000E+03  0.50000000000E+03  0.00000000000E+00 0. -1.
         23    2    1    2    0    0  0.15413875038E+03  0.15794626678E+03  0.24577889202E+03  0.34267735452E+03  0.91185130285E+02 0.  0.
        -11    1    1    2    0    0  0.59620517144E+02  0.12292894647E+03  0.95228917912E+02  0.16653731939E+03  0.00000000000E+00 0.  1.
         11    1    1    2    0    0 -0.21375926752E+03 -0.28087521325E+03 -0.34100780993E+03  0.49078532608E+03  0.00000000000E+00 0. -1.
        -15    1    3    3    0    0  0.30723147629E+02  0.46561838496E+02  0.14186266788E+02  0.57587537703E+02  0.17770000000E+01 0. -1.
         15    1    3    3    0    0  0.12341560275E+03  0.11138442829E+03  0.23159262523E+03  0.28508981682E+03  0.17770000000E+01 0.  1.
</event>
<event>
 7    1  0.2452998E-008  0.5362801E+03  0.7546771E-02  0.9322100E-01
        -11   -1    0    0    0    0  0.00000000000E+00  0.00000000000E+00  0.50000000000E+03  0.50000000000E+03  0.00000000000E+00 0.  1.
         11   -1    0    0    0    0 -0.00000000000E+00 -0.00000000000E+00 -0.50000000000E+03  0.50000000000E+03  0.00000000000E+00 0. -1.
         23    2    1    2    0    0 -0.64763368067E+02 -0.37148807329E+02  0.33742765380E+02  0.12184016856E+03  0.90178294117E+02 0.  0.
        -11    1    1    2    0    0 -0.23739787413E+03  0.18218890461E+03  0.28672269050E+03  0.41443992188E+03  0.00000000000E+00 0.  1.
         11    1    1    2    0    0  0.30216124220E+03 -0.14504009728E+03 -0.32046545588E+03  0.46371990956E+03  0.00000000000E+00 0. -1.
        -15    1    3    3    0    0  0.22578765826E+02 -0.17554327296E+01  0.85676334867E+01  0.24278473652E+02  0.17770000000E+01 0. -1.
         15    1    3    3    0    0 -0.87342133893E+02 -0.35393374599E+02  0.25175131894E+02  0.97561694908E+02  0.17770000000E+01 0.  1.
</event>
<event>
 7    1  0.2452998E-008  0.5399127E+03  0.7546771E-02  0.9314680E-01
        -11   -1    0    0    0    0  0.00000000000E+00  0.00000000000E+00  0.50000000000E+03  0.50000000000E+03  0.00000000000E+00 0.  1.
         11   -1    0    0    0    0 -0.00000000000E+00 -0.00000000000E+00 -0.50000000000E+03  0.50000000000E+03  0.00000000000E+00 0.  1.
         23    2    1    2    0    0  0.26972919160E+02 -0.56205491708E+02 -0.11290444567E+03  0.16378937721E+03  0.10096014347E+03 0.  0.
        -11    1    1    2    0    0  0.26756020659E+03  0.12242181557E+03 -0.23429289584E+03  0.37612328580E+03  0.00000000000E+00 0.  1.
         11    1    1    2    0    0 -0.29453312575E+03 -0.66216323861E+02  0.34719734151E+03  0.46008733699E+03  0.00000000000E+00 0.  1.
        -15    1    3    3    0    0 -0.55040684000E+01  0.11668883710E+02 -0.81001743343E+02  0.82042048789E+02  0.17770000000E+01 0. -1.
         15    1    3    3    0    0  0.32476987560E+02 -0.67874375418E+02 -0.31902702325E+02  0.81747328421E+02  0.17770000000E+01 0.  1.
</event>
<event>
 7    1  0.2452998E-008  0.5402361E+03  0.7546771E-02  0.9314022E-01
        -11   -1    0    0    0    0  0.00000000000E+00  0.00000000000E+00  0.50000000000E+03  0.50000000000E+03  0.00000000000E+00 0.  1.
         11   -1    0    0    0    0 -0.00000000000E+00 -0.00000000000E+00 -0.50000000000E+03  0.50000000000E+03  0.00000000000E+00 0.  1.
         23    2    1    2    0    0 -0.25743457767E+02 -0.83066358712E+02  0.14781864542E+03  0.19597810970E+03  0.94838399292E+02 0.  0.
        -11    1    1    2    0    0  0.13272340047E+03  0.41005028266E+03 -0.16008152995E+03  0.45976388676E+03  0.00000000000E+00 0.  1.
         11    1    1    2    0    0 -0.10697994270E+03 -0.32698392395E+03  0.12262884529E+02  0.34425800353E+03  0.00000000000E+00 0.  1.
        -15    1    3    3    0    0 -0.33750604057E+02 -0.92898249086E+01  0.10407067567E+03  0.10981469567E+03  0.17770000000E+01 0.  1.
         15    1    3    3    0    0  0.80071462902E+01 -0.73776533804E+02  0.43747969755E+02  0.86163414037E+02  0.17770000000E+01 0. -1.
</event>
<event>
 7    1  0.2452998E-008  0.4090922E+03  0.7546771E-02  0.9629911E-01
        -11   -1    0    0    0    0  0.00000000000E+00  0.00000000000E+00  0.50000000000E+03  0.50000000000E+03  0.00000000000E+00 0.  1.
         11   -1    0    0    0    0 -0.00000000000E+00 -0.00000000000E+00 -0.50000000000E+03  0.50000000000E+03  0.00000000000E+00 0. -1.
         23    2    1    2    0    0  0.79078975915E+02 -0.91757384352E+02 -0.33772578568E+03  0.37061209428E+03  0.92853196521E+02 0.  0.
        -11    1    1    2    0    0  0.49946118755E+02  0.17818096755E+03  0.41613242101E+03  0.45542207214E+03  0.00000000000E+00 0.  1.
         11    1    1    2    0    0 -0.12902509467E+03 -0.86423583197E+02 -0.78406635335E+02  0.17396583358E+03  0.00000000000E+00 0. -1.
        -15    1    3    3    0    0  0.39998206147E+02 -0.56226429789E+02 -0.72231373236E+02  0.99908943095E+02  0.17770000000E+01 0.  1.
         15    1    3    3    0    0  0.39080769767E+02 -0.35530954563E+02 -0.26549441244E+03  0.27070315119E+03  0.17770000000E+01 0. -1.
</event>
<event>
 7    1  0.2452998E-008  0.4218622E+03  0.7546771E-02  0.9593923E-01
        -11   -1    0    0    0    0  0.00000000000E+00  0.00000000000E+00  0.50000000000E+03  0.50000000000E+03  0.00000000000E+00 0.  1.
         11   -1    0    0    0    0 -0.00000000000E+00 -0.00000000000E+00 -0.50000000000E+03  0.50000000000E+03  0.00000000000E+00 0. -1.
         23    2    1    2    0    0 -0.64594209426E+02  0.60246627962E+02 -0.73557898590E+02  0.14848154585E+03  0.93989025638E+02 0.  0.
        -11    1    1    2    0    0 -0.18744797311E+03 -0.25670767055E+03  0.31766600628E+03  0.44938542732E+03  0.00000000000E+00 0.  1.
         11    1    1    2    0    0  0.25204218253E+03  0.19646104258E+03 -0.24410810769E+03  0.40213302683E+03  0.00000000000E+00 0. -1.
        -15    1    3    3    0    0 -0.19296929765E+02  0.41315658549E+02 -0.86394185023E+02  0.97706028855E+02  0.17770000000E+01 0.  1.
         15    1    3    3    0    0 -0.45297279660E+02  0.18930969413E+02  0.12836286434E+02  0.50775516993E+02  0.17770000000E+01 0. -1.
</event>
<event>
 7    1  0.2452998E-008  0.4110388E+03  0.7546771E-02  0.9624335E-01
        -11   -1    0    0    0    0  0.00000000000E+00  0.00000000000E+00  0.50000000000E+03  0.50000000000E+03  0.00000000000E+00 0.  1.
         11   -1    0    0    0    0 -0.00000000000E+00 -0.00000000000E+00 -0.50000000000E+03  0.50000000000E+03  0.00000000000E+00 0. -1.
         23    2    1    2    0    0  0.49718388266E+02 -0.12359688598E+02  0.35659517689E+03  0.37137196246E+03  0.90179456008E+02 0.  0.
        -11    1    1    2    0    0 -0.13856062850E+03 -0.11800884639E+03 -0.42066720473E+03  0.45835142929E+03  0.00000000000E+00 0. -1.
         11    1    1    2    0    0  0.88842240238E+02  0.13036853499E+03  0.64072027836E+02  0.17027660825E+03  0.00000000000E+00 0.  1.
        -15    1    3    3    0    0  0.70499769032E+02 -0.20055137576E+02  0.19635465686E+03  0.20959660058E+03  0.17770000000E+01 0.  1.
         15    1    3    3    0    0 -0.20781380766E+02  0.76954489778E+01  0.16024052003E+03  0.16177536188E+03  0.17770000000E+01 0. -1.
</event>
<event>
 7    1  0.2452998E-008  0.4973398E+03  0.7546771E-02  0.9405782E-01
        -11   -1    0    0    0    0  0.00000000000E+00  0.00000000000E+00  0.50000000000E+03  0.50000000000E+03  0.00000000000E+00 0.  1.
         11   -1    0    0    0    0 -0.00000000000E+00 -0.00000000000E+00 -0.50000000000E+03  0.50000000000E+03  0.00000000000E+00 0. -1.
         23    2    1    2    0    0 -0.21075992382E+03  0.14605773715E+03  0.41269440716E+03  0.49419399773E+03  0.90324003535E+02 0.  0.
        -11    1    1    2    0    0  0.16518188220E+01  0.12878031441E+02  0.36942623353E+01  0.13498880450E+02  0.00000000000E+00 0.  1.
         11    1    1    2    0    0  0.20910810500E+03 -0.15893576859E+03 -0.41638866950E+03  0.49230712182E+03  0.00000000000E+00 0. -1.
        -15    1    3    3    0    0 -0.21397530410E+01 -0.54796682188E+01 -0.14711259942E+01  0.63188011169E+01  0.17770000000E+01 0. -1.
         15    1    3    3    0    0 -0.20862017078E+03  0.15153740537E+03  0.41416553316E+03  0.48787519661E+03  0.17770000000E+01 0.  1.
</event>
<event>
 7    1  0.2452998E-008  0.5249163E+03  0.7546771E-02  0.9345721E-01
        -11   -1    0    0    0    0  0.00000000000E+00  0.00000000000E+00  0.50000000000E+03  0.50000000000E+03  0.00000000000E+00 0.  1.
         11   -1    0    0    0    0 -0.00000000000E+00 -0.00000000000E+00 -0.50000000000E+03  0.50000000000E+03  0.00000000000E+00 0. -1.
         23    2    1    2    0    0 -0.73356528591E+02 -0.11904466578E+03  0.67240361729E+02  0.18155318565E+03  0.94273433358E+02 0.  0.
        -11    1    1    2    0    0  0.76664054957E+02  0.46219952746E+03 -0.78731865527E+02  0.47508366332E+03  0.00000000000E+00 0. -1.
         11    1    1    2    0    0 -0.33075263653E+01 -0.34315486168E+03  0.11491503798E+02  0.34336315103E+03  0.00000000000E+00 0.  1.
        -15    1    3    3    0    0  0.14292113852E+02  0.62260979844E+01  0.49540599882E+01  0.16453852249E+02  0.17770000000E+01 0.  1.
         15    1    3    3    0    0 -0.87648642443E+02 -0.12527076376E+03  0.62286301741E+02  0.16509933340E+03  0.17770000000E+01 0. -1.
</event>
<event>
 7    1  0.2452998E-008  0.3736777E+03  0.7546771E-02  0.9737541E-01
        -11   -1    0    0    0    0  0.00000000000E+00  0.00000000000E+00  0.50000000000E+03  0.50000000000E+03  0.00000000000E+00 0. -1.
         11   -1    0    0    0    0 -0.00000000000E+00 -0.00000000000E+00 -0.50000000000E+03  0.50000000000E+03  0.00000000000E+00 0. -1.
         23    2    1    2    0    0 -0.86054692097E+02  0.15978857233E+03 -0.10058699797E+03  0.22437400961E+03  0.85370686710E+02 0.  0.
        -11    1    1    2    0    0 -0.17072246365E+02  0.25482827842E+03  0.21441775246E+03  0.33347246610E+03  0.00000000000E+00 0. -1.
         11    1    1    2    0    0  0.10312693846E+03 -0.41461685076E+03 -0.11383075449E+03  0.44215352428E+03  0.00000000000E+00 0. -1.
        -15    1    3    3    0    0 -0.21045810750E+02  0.12409183804E+03 -0.55561172074E+02  0.13759328468E+03  0.17770000000E+01 0. -1.
         15    1    3    3    0    0 -0.65008881347E+02  0.35696734294E+02 -0.45025825895E+02  0.86780724932E+02  0.17770000000E+01 0.  1.
</event>
<event>
 7    1  0.2452998E-008  0.3623483E+03  0.7546771E-02  0.9774697E-01
        -11   -1    0    0    0    0  0.00000000000E+00  0.00000000000E+00  0.50000000000E+03  0.50000000000E+03  0.00000000000E+00 0. -1.
         11   -1    0    0    0    0 -0.00000000000E+00 -0.00000000000E+00 -0.50000000000E+03  0.50000000000E+03  0.00000000000E+00 0. -1.
         23    2    1    2    0    0  0.20585317054E+02  0.28499451298E+03 -0.30601199454E+03  0.42955063772E+03  0.96045727948E+02 0.  0.
        -11    1    1    2    0    0 -0.66243870547E+02 -0.31017250803E+03  0.64868328671E+02  0.32373312340E+03  0.00000000000E+00 0. -1.
         11    1    1    2    0    0  0.45658553493E+02  0.25177995049E+02  0.24114366587E+03  0.24671623888E+03  0.00000000000E+00 0. -1.
        -15    1    3    3    0    0 -0.24878438044E+02  0.18041437517E+03 -0.14801359090E+03  0.23469014523E+03  0.17770000000E+01 0.  1.
         15    1    3    3    0    0  0.45463755098E+02  0.10458013780E+03 -0.15799840364E+03  0.19486049249E+03  0.17770000000E+01 0. -1.
</event>
<event>
 7    1  0.2452998E-008  0.3973368E+03  0.7546771E-02  0.9664303E-01
        -11   -1    0    0    0    0  0.00000000000E+00  0.00000000000E+00  0.50000000000E+03  0.50000000000E+03  0.00000000000E+00 0.  1.
         11   -1    0    0    0    0 -0.00000000000E+00 -0.00000000000E+00 -0.50000000000E+03  0.50000000000E+03  0.00000000000E+00 0. -1.
         23    2    1    2    0    0  0.11658219597E+03  0.63593940746E+02  0.31151939538E+03  0.35064943441E+03  0.90967546064E+02 0.  0.
        -11    1    1    2    0    0 -0.54201019795E+02  0.16784551217E+03  0.77306730585E+02  0.19257776896E+03  0.00000000000E+00 0.  1.
         11    1    1    2    0    0 -0.62381176173E+02 -0.23143945292E+03 -0.38882612597E+03  0.45677279663E+03  0.00000000000E+00 0. -1.
        -15    1    3    3    0    0  0.82451923495E+02  0.56244271263E+02  0.12059219161E+03  0.15654830611E+03  0.17770000000E+01 0.  1.
         15    1    3    3    0    0  0.34130272473E+02  0.73496694834E+01  0.19092720377E+03  0.19410112830E+03  0.17770000000E+01 0. -1.
</event>
<event>
 7    1  0.2452998E-008  0.5366022E+03  0.7546771E-02  0.9321439E-01
        -11   -1    0    0    0    0  0.00000000000E+00  0.00000000000E+00  0.50000000000E+03  0.50000000000E+03  0.00000000000E+00 0. -1.
         11   -1    0    0    0    0 -0.00000000000E+00 -0.00000000000E+00 -0.50000000000E+03  0.50000000000E+03  0.00000000000E+00 0. -1.
         23    2    1    2    0    0  0.21562787127E+02 -0.13138634233E+03  0.23681918629E+03  0.28687381284E+03  0.92119122654E+02 0.  0.
        -11    1    1    2    0    0  0.89102870720E+02  0.34823031544E+03 -0.29246165784E+03  0.46339777240E+03  0.00000000000E+00 0. -1.
         11    1    1    2    0    0 -0.11066565785E+03 -0.21684397311E+03  0.55642471541E+02  0.24972841476E+03  0.00000000000E+00 0. -1.
        -15    1    3    3    0    0 -0.33489358593E+02 -0.56032542427E+02  0.70092461700E+02  0.95798193438E+02  0.17770000000E+01 0.  1.
         15    1    3    3    0    0  0.55052145720E+02 -0.75353799902E+02  0.16672672459E+03  0.19107561940E+03  0.17770000000E+01 0. -1.
</event>
<event>
 7    1  0.2452998E-008  0.5245029E+03  0.7546771E-02  0.9346592E-01
        -11   -1    0    0    0    0  0.00000000000E+00  0.00000000000E+00  0.50000000000E+03  0.50000000000E+03  0.00000000000E+00 0. -1.
         11   -1    0    0    0    0 -0.00000000000E+00 -0.00000000000E+00 -0.50000000000E+03  0.50000000000E+03  0.00000000000E+00 0.  1.
         23    2    1    2    0    0  0.45232145387E+02 -0.28189863302E+02  0.52062519580E+02  0.11653975549E+03  0.89612461715E+02 0.  0.
        -11    1    1    2    0    0  0.88967830256E+02 -0.25973501211E+03  0.30175544826E+03  0.40796311339E+03  0.00000000000E+00 0. -1.
         11    1    1    2    0    0 -0.13419997564E+03  0.28792487541E+03 -0.35381796784E+03  0.47549713112E+03  0.00000000000E+00 0.  1.
        -15    1    3    3    0    0  0.60909174098E+02 -0.96765465126E+01  0.64467946287E+02  0.89234729053E+02  0.17770000000E+01 0.  1.
         15    1    3    3    0    0 -0.15677028711E+02 -0.18513316789E+02 -0.12405426707E+02  0.27305026434E+02  0.17770000000E+01 0. -1.
</event>
<event>
 7    1  0.2452998E-008  0.5389957E+03  0.7546771E-02  0.9316547E-01
        -11   -1    0    0    0    0  0.00000000000E+00  0.00000000000E+00  0.50000000000E+03  0.50000000000E+03  0.00000000000E+00 0. -1.
         11   -1    0    0    0    0 -0.00000000000E+00 -0.00000000000E+00 -0.50000000000E+03  0.50000000000E+03  0.00000000000E+00 0. -1.
         23    2    1    2    0    0 -0.27969705314E+02 -0.63919993484E+02 -0.20874521523E+03  0.23783046919E+03  0.90114911154E+02 0.  0.
        -11    1    1    2    0    0 -0.23649079693E+03 -0.16049913518E+03 -0.94934940976E+02  0.30116525769E+03  0.00000000000E+00 0. -1.
         11    1    1    2    0    0  0.26446050224E+03  0.22441912866E+03  0.30368015621E+03  0.46100427311E+03  0.00000000000E+00 0. -1.
        -15    1    3    3    0    0 -0.46778100569E+02 -0.71967850126E+02 -0.19515829004E+03  0.21320759377E+03  0.17770000000E+01 0. -1.
         15    1    3    3    0    0  0.18808395255E+02  0.80478566419E+01 -0.13586925196E+02  0.24622875419E+02  0.17770000000E+01 0.  1.
</event>
<event>
 7    1  0.2452998E-008  0.3673401E+03  0.7546771E-02  0.9758149E-01
        -11   -1    0    0    0    0  0.00000000000E+00  0.00000000000E+00  0.50000000000E+03  0.50000000000E+03  0.00000000000E+00 0.  1.
         11   -1    0    0    0    0 -0.00000000000E+00 -0.00000000000E+00 -0.50000000000E+03  0.50000000000E+03  0.00000000000E+00 0.  1.
         23    2    1    2    0    0 -0.90406219926E+02 -0.18997844446E+03  0.21528277697E+03  0.31455213155E+03  0.91275820708E+02 0.  0.
        -11    1    1    2    0    0  0.32599012829E+03  0.22607183410E+03 -0.20583093501E+03  0.44692774776E+03  0.00000000000E+00 0.  1.
         11    1    1    2    0    0 -0.23558390836E+03 -0.36093389638E+02 -0.94518419598E+01  0.23852012068E+03  0.00000000000E+00 0.  1.
        -15    1    3    3    0    0 -0.72205908009E+02 -0.18693418907E+03  0.16060617408E+03  0.25681819460E+03  0.17770000000E+01 0.  1.
         15    1    3    3    0    0 -0.18200311918E+02 -0.30442553944E+01  0.54676602882E+02  0.57733936957E+02  0.17770000000E+01 0. -1.
</event>
<event>
 7    1  0.2452998E-008  0.4136353E+03  0.7546771E-02  0.9616949E-01
        -11   -1    0    0    0    0  0.00000000000E+00  0.00000000000E+00  0.50000000000E+03  0.50000000000E+03  0.00000000000E+00 0.  1.
         11   -1    0    0    0    0 -0.00000000000E+00 -0.00000000000E+00 -0.50000000000E+03  0.50000000000E+03  0.00000000000E+00 0. -1.
         23    2    1    2    0    0  0.12083725094E+03 -0.44106193785E+02 -0.41252418029E+02  0.16177250825E+03  0.89003285829E+02 0.  0.
        -11    1    1    2    0    0 -0.17509775019E+03 -0.32406462764E+02 -0.37308637439E+03  0.41340397157E+03  0.00000000000E+00 0. -1.
         11    1    1    2    0    0  0.54260499253E+02  0.76512656548E+02  0.41433879242E+03  0.42482352018E+03  0.00000000000E+00 0.  1.
        -15    1    3    3    0    0  0.69677866284E+02  0.15276273870E+02 -0.43078252975E+02  0.83350244160E+02  0.17770000000E+01 0. -1.
         15    1    3    3    0    0  0.51159384653E+02 -0.59382467654E+02  0.18258349457E+01  0.78422264090E+02  0.17770000000E+01 0.  1.
</event>
<event>
 7    1  0.2452998E-008  0.5188687E+03  0.7546771E-02  0.9358552E-01
        -11   -1    0    0    0    0  0.00000000000E+00  0.00000000000E+00  0.50000000000E+03  0.50000000000E+03  0.00000000000E+00 0. -1.
         11   -1    0    0    0    0 -0.00000000000E+00 -0.00000000000E+00 -0.50000000000E+03  0.50000000000E+03  0.00000000000E+00 0. -1.
         23    2    1    2    0    0  0.28582153461E+01 -0.16318106542E+03 -0.19168351198E+02  0.19324068894E+03  0.10167747374E+03 0.  0.
        -11    1    1    2    0    0 -0.12205717848E+03 -0.30082499984E+03 -0.25298102014E+02  0.32562805363E+03  0.00000000000E+00 0. -1.
         11    1    1    2    0    0  0.11919896313E+03  0.46400606527E+03  0.44466453212E+02  0.48113125743E+03  0.00000000000E+00 0. -1.
        -15    1    3    3    0    0 -0.23322309236E+02 -0.40575086432E+02 -0.45306970240E+02  0.65162466408E+02  0.17770000000E+01 0. -1.
         15    1    3    3    0    0  0.26180524583E+02 -0.12260597899E+03  0.26138619042E+02  0.12807822253E+03  0.17770000000E+01 0.  1.
</event>
<event>
 7    1  0.2452998E-008  0.3623081E+03  0.7546771E-02  0.9774832E-01
        -11   -1    0    0    0    0  0.00000000000E+00  0.00000000000E+00  0.50000000000E+03  0.50000000000E+03  0.00000000000E+00 0.  1.
         11   -1    0    0    0    0 -0.00000000000E+00 -0.00000000000E+00 -0.50000000000E+03  0.50000000000E+03  0.00000000000E+00 0. -1.
         23    2    1    2    0    0 -0.53255614283E+01  0.33146189583E+02 -0.28019814016E+03  0.29681095105E+03  0.91971253251E+02 0.  0.
        -11    1    1    2    0    0 -0.23099039780E+02 -0.25745380461E+03  0.37710819348E+03  0.45719428773E+03  0.00000000000E+00 0.  1.
         11    1    1    2    0    0  0.28424601208E+02  0.22430761503E+03 -0.96910053318E+02  0.24599476122E+03  0.00000000000E+00 0. -1.
        -15    1    3    3    0    0  0.31906741028E+02 -0.15265796750E+02 -0.79804494063E+02  0.87309791405E+02  0.17770000000E+01 0.  1.
         15    1    3    3    0    0 -0.37232302457E+02  0.48411986333E+02 -0.20039364610E+03  0.20950115964E+03  0.17770000000E+01 0. -1.
</event>
<event>
 7    1  0.2452998E-008  0.5171683E+03  0.7546771E-02  0.9362193E-01
        -11   -1    0    0    0    0  0.00000000000E+00  0.00000000000E+00  0.50000000000E+03  0.50000000000E+03  0.00000000000E+00 0. -1.
         11   -1    0    0    0    0 -0.00000000000E+00 -0.00000000000E+00 -0.50000000000E+03  0.50000000000E+03  0.00000000000E+00 0.  1.
         23    2    1    2    0    0 -0.89397035153E+02 -0.16839889882E+03 -0.72329424400E+02  0.22264032160E+03  0.89370846177E+02 0.  0.
        -11    1    1    2    0    0  0.27776968708E+03  0.30061608045E+03  0.25612577380E+03  0.48283168795E+03  0.00000000000E+00 0. -1.
         11    1    1    2    0    0 -0.18837265192E+03 -0.13221718162E+03 -0.18379634940E+03  0.29452799046E+03  0.00000000000E+00 0.  1.
        -15    1    3    3    0    0 -0.80815946238E+02 -0.15312650371E+03 -0.92134368920E+02  0.19613985564E+03  0.17770000000E+01 0.  1.
         15    1    3    3    0    0 -0.85810889159E+01 -0.15272395119E+02  0.19804944520E+02  0.26500465960E+02  0.17770000000E+01 0. -1.
</event>
<event>
 7    1  0.2452998E-008  0.3813505E+03  0.7546771E-02  0.9713168E-01
        -11   -1    0    0    0    0  0.00000000000E+00  0.00000000000E+00  0.50000000000E+03  0.50000000000E+03  0.00000000000E+00 0.  1.
         11   -1    0    0    0    0 -0.00000000000E+00 -0.00000000000E+00 -0.50000000000E+03  0.50000000000E+03  0.00000000000E+00 0. -1.
         23    2    1    2    0    0  0.73198855046E+02  0.35247690651E+02  0.17484194918E+03  0.21330879036E+03  0.91271357907E+02 0.  0.
        -11    1    1    2    0    0  0.34497809762E+03 -0.14241384098E+02 -0.11390827003E+03  0.36357640027E+03  0.00000000000E+00 0.  1.
         11    1    1    2    0    0 -0.41817695266E+03 -0.21006306553E+02 -0.60933679154E+02  0.42311480937E+03  0.00000000000E+00 0. -1.
        -15    1    3    3    0    0  0.40553369217E+02 -0.23814050724E+02  0.11026557300E+03  0.11988886139E+03  0.17770000000E+01 0.  1.
         15    1    3    3    0    0  0.32645485829E+02  0.59061741375E+02  0.64576376181E+02  0.93419928971E+02  0.17770000000E+01 0. -1.
</event>
<event>
 7    1  0.2452998E-008  0.3630703E+03  0.7546771E-02  0.9772286E-01
        -11   -1    0    0    0    0  0.00000000000E+00  0.00000000000E+00  0.50000000000E+03  0.50000000000E+03  0.00000000000E+00 0. -1.
         11   -1    0    0    0    0 -0.00000000000E+00 -0.00000000000E+00 -0.50000000000E+03  0.50000000000E+03  0.00000000000E+00 0.  1.
         23    2    1    2    0    0  0.13914406599E+03  0.24384208297E+02  0.17157234691E+03  0.24061020462E+03  0.92198371076E+02 0.  0.
        -11    1    1    2    0    0 -0.29453783310E+03 -0.25278064642E+03  0.67614325500E+02  0.39398259777E+03  0.00000000000E+00 0. -1.
         11    1    1    2    0    0  0.15539376711E+03  0.22839643812E+03 -0.23918667241E+03  0.36540719761E+03  0.00000000000E+00 0.  1.
        -15    1    3    3    0    0  0.47889601645E+02 -0.26689335669E+02  0.99416301861E+02  0.11354511610E+03  0.17770000000E+01 0.  1.
         15    1    3    3    0    0  0.91254464347E+02  0.51073543966E+02  0.72156045051E+02  0.12706508853E+03  0.17770000000E+01 0. -1.
</event>
<event>
 7    1  0.2452998E-008  0.4334708E+03  0.7546771E-02  0.9562367E-01
        -11   -1    0    0    0    0  0.00000000000E+00  0.00000000000E+00  0.50000000000E+03  0.50000000000E+03  0.00000000000E+00 0.  1.
         11   -1    0    0    0    0 -0.00000000000E+00 -0.00000000000E+00 -0.50000000000E+03  0.50000000000E+03  0.00000000000E+00 0. -1.
         23    2    1    2    0    0  0.14352062367E+02  0.89443467415E+02 -0.14050919748E+02  0.12822512353E+03  0.89655665748E+02 0.  0.
        -11    1    1    2    0    0 -0.41504591214E+03  0.10201373406E+03 -0.19085582916E+01  0.42740326826E+03  0.00000000000E+00 0.  1.
         11    1    1    2    0    0  0.40069384978E+03 -0.19145720148E+03  0.15959478040E+02  0.44437160821E+03  0.00000000000E+00 0. -1.
        -15    1    3    3    0    0  0.29733246214E+01  0.10188563181E+03  0.58124987302E+01  0.10211006561E+03  0.17770000000E+01 0. -1.
         15    1    3    3    0    0  0.11378737746E+02 -0.12442164393E+02 -0.19863418478E+02  0.26115057919E+02  0.17770000000E+01 0.  1.
</event>
<event>
 7    1  0.2452998E-008  0.4478043E+03  0.7546771E-02  0.9524829E-01
        -11   -1    0    0    0    0  0.00000000000E+00  0.00000000000E+00  0.50000000000E+03  0.50000000000E+03  0.00000000000E+00 0.  1.
         11   -1    0    0    0    0 -0.00000000000E+00 -0.00000000000E+00 -0.50000000000E+03  0.50000000000E+03  0.00000000000E+00 0. -1.
         23    2    1    2    0    0 -0.10971421212E+02  0.20271131410E+01  0.46723617222E+02  0.10310402770E+03  0.91229725698E+02 0.  0.
        -11    1    1    2    0    0  0.22418745282E+03 -0.25374817956E+03  0.27492424365E+03  0.43615535349E+03  0.00000000000E+00 0.  1.
         11    1    1    2    0    0 -0.21321603161E+03  0.25172106642E+03 -0.32164786087E+03  0.46074061881E+03  0.00000000000E+00 0. -1.
        -15    1    3    3    0    0  0.20666741664E+02  0.31903310692E+02 -0.15535839057E+01  0.38085519506E+02  0.17770000000E+01 0. -1.
         15    1    3    3    0    0 -0.31638162877E+02 -0.29876197551E+02  0.48277201128E+02  0.65018508196E+02  0.17770000000E+01 0.  1.
</event>
<event>
 7    1  0.2452998E-008  0.5363937E+03  0.7546771E-02  0.9321867E-01
        -11   -1    0    0    0    0  0.00000000000E+00  0.00000000000E+00  0.50000000000E+03  0.50000000000E+03  0.00000000000E+00 0.  1.
         11   -1    0    0    0    0 -0.00000000000E+00 -0.00000000000E+00 -0.50000000000E+03  0.50000000000E+03  0.00000000000E+00 0.  1.
         23    2    1    2    0    0  0.14702607422E+02  0.43998099069E+02 -0.29891119035E+03  0.31569545964E+03  0.90353329427E+02 0.  0.
        -11    1    1    2    0    0  0.12312261367E+03 -0.17454790127E+03  0.41146643558E+03  0.46360627201E+03  0.00000000000E+00 0.  1.
         11    1    1    2    0    0 -0.13782522109E+03  0.13054980220E+03 -0.11255524524E+03  0.22069826835E+03  0.00000000000E+00 0.  1.
        -15    1    3    3    0    0 -0.12042656125E+02  0.10652478698E+02 -0.25076817808E+03  0.25128935063E+03  0.17770000000E+01 0.  1.
         15    1    3    3    0    0  0.26745263547E+02  0.33345620372E+02 -0.48143012260E+02  0.64406109017E+02  0.17770000000E+01 0. -1.
</event>
<event>
 7    1  0.2452998E-008  0.4470703E+03  0.7546771E-02  0.9526714E-01
        -11   -1    0    0    0    0  0.00000000000E+00  0.00000000000E+00  0.50000000000E+03  0.50000000000E+03  0.00000000000E+00 0.  1.
         11   -1    0    0    0    0 -0.00000000000E+00 -0.00000000000E+00 -0.50000000000E+03  0.50000000000E+03  0.00000000000E+00 0.  1.
         23    2    1    2    0    0 -0.15878727530E+02  0.39980286057E+02  0.27596396270E+02  0.10439981783E+03  0.91034079418E+02 0.  0.
        -11    1    1    2    0    0 -0.30776952864E+03 -0.30719989028E+03  0.11931865147E+03  0.45092216173E+03  0.00000000000E+00 0.  1.
         11    1    1    2    0    0  0.32364825617E+03  0.26721960423E+03 -0.14691504774E+03  0.44467802044E+03  0.00000000000E+00 0.  1.
        -15    1    3    3    0    0 -0.47961428161E+01  0.62706477061E+02  0.41616992777E+02  0.75433660047E+02  0.17770000000E+01 0.  1.
         15    1    3    3    0    0 -0.11082584714E+02 -0.22726191004E+02 -0.14020596507E+02  0.28966157786E+02  0.17770000000E+01 0. -1.
</event>
<event>
 7    1  0.2452998E-008  0.4392383E+03  0.7546771E-02  0.9547079E-01
        -11   -1    0    0    0    0  0.00000000000E+00  0.00000000000E+00  0.50000000000E+03  0.50000000000E+03  0.00000000000E+00 0. -1.
         11   -1    0    0    0    0 -0.00000000000E+00 -0.00000000000E+00 -0.50000000000E+03  0.50000000000E+03  0.00000000000E+00 0.  1.
         23    2    1    2    0    0 -0.97928057944E+01  0.45193037784E+02  0.66367504979E+02  0.11780720401E+03  0.85648011596E+02 0.  0.
        -11    1    1    2    0    0  0.19043039530E+03 -0.37478241797E+03  0.15258505661E+03  0.44722231136E+03  0.00000000000E+00 0. -1.
         11    1    1    2    0    0 -0.18063758951E+03  0.32958938019E+03 -0.21895256159E+03  0.43497048463E+03  0.00000000000E+00 0.  1.
        -15    1    3    3    0    0  0.14632388374E+02  0.58818445104E+02  0.20412177712E+02  0.63980708045E+02  0.17770000000E+01 0.  1.
         15    1    3    3    0    0 -0.24425194168E+02 -0.13625407320E+02  0.45955327267E+02  0.53826495966E+02  0.17770000000E+01 0. -1.
</event>
<event>
 7    1  0.2452998E-008  0.3505617E+03  0.7546771E-02  0.9814931E-01
        -11   -1    0    0    0    0  0.00000000000E+00  0.00000000000E+00  0.50000000000E+03  0.50000000000E+03  0.00000000000E+00 0.  1.
         11   -1    0    0    0    0 -0.00000000000E+00 -0.00000000000E+00 -0.50000000000E+03  0.50000000000E+03  0.00000000000E+00 0. -1.
         23    2    1    2    0    0  0.63683313739E+02  0.28783796148E+00  0.23287541607E+03  0.25847421072E+03  0.92316363113E+02 0.  0.
        -11    1    1    2    0    0  0.23999082108E+03 -0.15514994208E+03  0.60119884897E+02  0.29202996300E+03  0.00000000000E+00 0.  1.
         11    1    1    2    0    0 -0.30367413482E+03  0.15486210412E+03 -0.29299530097E+03  0.44949582628E+03  0.00000000000E+00 0. -1.
        -15    1    3    3    0    0  0.66575398583E+02  0.33922322224E+02  0.18783457033E+03  0.20215833196E+03  0.17770000000E+01 0. -1.
         15    1    3    3    0    0 -0.28920848439E+01 -0.33634484263E+02  0.45040845740E+02  0.56315878759E+02  0.17770000000E+01 0.  1.
</event>
<event>
 7    1  0.2452998E-008  0.3577382E+03  0.7546771E-02  0.9790236E-01
        -11   -1    0    0    0    0  0.00000000000E+00  0.00000000000E+00  0.50000000000E+03  0.50000000000E+03  0.00000000000E+00 0.  1.
         11   -1    0    0    0    0 -0.00000000000E+00 -0.00000000000E+00 -0.50000000000E+03  0.50000000000E+03  0.00000000000E+00 0.  1.
         23    2    1    2    0    0 -0.78031018029E+01 -0.14432438115E+03 -0.17935747249E+03  0.24835778302E+03  0.92855102463E+02 0.  0.
        -11    1    1    2    0    0  0.26925263159E+03  0.31749753092E+03  0.10591243252E+03  0.42955687065E+03  0.00000000000E+00 0.  1.
         11    1    1    2    0    0 -0.26144952979E+03 -0.17317314977E+03  0.73445039969E+02  0.32208534633E+03  0.00000000000E+00 0.  1.
        -15    1    3    3    0    0 -0.32721800247E+01 -0.97181543357E+01 -0.80772227834E+02  0.81439917755E+02  0.17770000000E+01 0. -1.
         15    1    3    3    0    0 -0.45309217782E+01 -0.13460622682E+03 -0.98585244658E+02  0.16691786526E+03  0.17770000000E+01 0.  1.
</event>
<event>
 7    1  0.2452998E-008  0.5148358E+03  0.7546771E-02  0.9367212E-01
        -11   -1    0    0    0    0  0.00000000000E+00  0.00000000000E+00  0.50000000000E+03  0.50000000000E+03  0.00000000000E+00 0.  1.
         11   -1    0    0    0    0 -0.00000000000E+00 -0.00000000000E+00 -0.50000000000E+03  0.50000000000E+03  0.00000000000E+00 0.  1.
         23    2    1    2    0    0  0.19688903848E+03  0.13244517885E+03 -0.17178206088E+03  0.30727051998E+03  0.92731209062E+02 0.  0.
        -11    1    1    2    0    0  0.17611432425E+03 -0.22569258079E+01 -0.10982719522E+03  0.20756531919E+03  0.00000000000E+00 0.  1.
         11    1    1    2    0    0 -0.37300336273E+03 -0.13018825304E+03  0.28160925610E+03  0.48516416083E+03  0.00000000000E+00 0.  1.
        -15    1    3    3    0    0  0.20480210263E+03  0.12198760704E+03 -0.14959631111E+03  0.28143754465E+03  0.17770000000E+01 0.  1.
         15    1    3    3    0    0 -0.79130641489E+01  0.10457571807E+02 -0.22185749773E+02  0.25832975328E+02  0.17770000000E+01 0. -1.
</event>
<event>
 7    1  0.2452998E-008  0.3126733E+03  0.7546771E-02  0.9956729E-01
        -11   -1    0    0    0    0  0.00000000000E+00  0.00000000000E+00  0.50000000000E+03  0.50000000000E+03  0.00000000000E+00 0.  1.
         11   -1    0    0    0    0 -0.00000000000E+00 -0.00000000000E+00 -0.50000000000E+03  0.50000000000E+03  0.00000000000E+00 0. -1.
         23    2    1    2    0    0  0.23594312790E+03  0.76875571924E+02 -0.15994397899E+03  0.30846580882E+03  0.89387167024E+02 0.  0.
        -11    1    1    2    0    0  0.63019852430E+01 -0.15682037995E+03  0.34323602348E+03  0.37741663239E+03  0.00000000000E+00 0.  1.
         11    1    1    2    0    0 -0.24224511315E+03  0.79944808023E+02 -0.18329204449E+03  0.31411755880E+03  0.00000000000E+00 0. -1.
        -15    1    3    3    0    0  0.32963031038E+02  0.11405281455E+01  0.84146745003E+01  0.34085578998E+02  0.17770000000E+01 0.  1.
         15    1    3    3    0    0  0.20298009687E+03  0.75735043778E+02 -0.16835865350E+03  0.27438022982E+03  0.17770000000E+01 0. -1.
</event>
<event>
 7    1  0.2452998E-008  0.4596716E+03  0.7546771E-02  0.9494864E-01
        -11   -1    0    0    0    0  0.00000000000E+00  0.00000000000E+00  0.50000000000E+03  0.50000000000E+03  0.00000000000E+00 0. -1.
         11   -1    0    0    0    0 -0.00000000000E+00 -0.00000000000E+00 -0.50000000000E+03  0.50000000000E+03  0.00000000000E+00 0.  1.
         23    2    1    2    0    0  0.18909898737E+03  0.47444437094E+01 -0.36375207180E+03  0.42024979542E+03  0.92268001208E+02 0.  0.
        -11    1    1    2    0    0  0.46173159605E+02 -0.18246083465E+02 -0.70174476423E+02  0.85961255057E+02  0.00000000000E+00 0.  1.
         11    1    1    2    0    0 -0.23527214697E+03  0.13501639756E+02  0.43392654822E+03  0.49378894952E+03  0.00000000000E+00 0. -1.
        -15    1    3    3    0    0  0.18552122535E+03  0.26187024498E+02 -0.30977779163E+03  0.36203497514E+03  0.17770000000E+01 0.  1.
         15    1    3    3    0    0  0.35777620123E+01 -0.21442580788E+02 -0.53974280171E+02  0.58214820285E+02  0.17770000000E+01 0. -1.
</event>
<event>
 7    1  0.2452998E-008  0.4181633E+03  0.7546771E-02  0.9604206E-01
        -11   -1    0    0    0    0  0.00000000000E+00  0.00000000000E+00  0.50000000000E+03  0.50000000000E+03  0.00000000000E+00 0. -1.
         11   -1    0    0    0    0 -0.00000000000E+00 -0.00000000000E+00 -0.50000000000E+03  0.50000000000E+03  0.00000000000E+00 0.  1.
         23    2    1    2    0    0  0.78067439127E+02 -0.11166860347E+02  0.96469786249E+02  0.15444231480E+03  0.91251219826E+02 0.  0.
        -11    1    1    2    0    0 -0.88104880576E+02 -0.33629872563E+03  0.18904376099E+03  0.39572319417E+03  0.00000000000E+00 0. -1.
         11    1    1    2    0    0  0.10037441449E+02  0.34746558597E+03 -0.28551354723E+03  0.44983449103E+03  0.00000000000E+00 0.  1.
        -15    1    3    3    0    0  0.90835578401E+02 -0.12601271320E+02  0.46538293892E+02  0.10285360893E+03  0.17770000000E+01 0.  1.
         15    1    3    3    0    0 -0.12768139274E+02  0.14344109730E+01  0.49931492357E+02  0.51588705870E+02  0.17770000000E+01 0. -1.
</event>
<event>
 7    1  0.2452998E-008  0.3435689E+03  0.7546771E-02  0.9839611E-01
        -11   -1    0    0    0    0  0.00000000000E+00  0.00000000000E+00  0.50000000000E+03  0.50000000000E+03  0.00000000000E+00 0.  1.
         11   -1    0    0    0    0 -0.00000000000E+00 -0.00000000000E+00 -0.50000000000E+03  0.50000000000E+03  0.00000000000E+00 0.  1.
         23    2    1    2    0    0 -0.31086073134E+02  0.21222796806E+03  0.21721807685E+03  0.31901161613E+03  0.92615678740E+02 0.  0.
        -11    1    1    2    0    0  0.30088328274E+03 -0.17345201566E+03 -0.21489907059E+03  0.40840906223E+03  0.00000000000E+00 0.  1.
         11    1    1    2    0    0 -0.26979720961E+03 -0.38775952402E+02 -0.23190062632E+01  0.27257932164E+03  0.00000000000E+00 0.  1.
        -15    1    3    3    0    0 -0.53475036106E+02  0.19780212466E+03  0.17717104475E+03  0.27088373305E+03  0.17770000000E+01 0. -1.
         15    1    3    3    0    0  0.22388962972E+02  0.14425843400E+02  0.40047032100E+02  0.48127883080E+02  0.17770000000E+01 0.  1.
</event>
<event>
 7    1  0.2452998E-008  0.3939140E+03  0.7546771E-02  0.9674556E-01
        -11   -1    0    0    0    0  0.00000000000E+00  0.00000000000E+00  0.50000000000E+03  0.50000000000E+03  0.00000000000E+00 0. -1.
         11   -1    0    0    0    0 -0.00000000000E+00 -0.00000000000E+00 -0.50000000000E+03  0.50000000000E+03  0.00000000000E+00 0. -1.
         23    2    1    2    0    0  0.12628826587E+02  0.10422027428E+03 -0.13472562333E+03  0.19387012392E+03  0.91723925652E+02 0.  0.
        -11    1    1    2    0    0  0.17789663501E+02  0.33833524036E+03  0.12889194276E+03  0.36249184806E+03  0.00000000000E+00 0. -1.
         11    1    1    2    0    0 -0.30418490088E+02 -0.44255551464E+03  0.58336805759E+01  0.44363802802E+03  0.00000000000E+00 0. -1.
        -15    1    3    3    0    0  0.27329770309E+02 -0.35079255814E+01 -0.12605252857E+02  0.30352463090E+02  0.17770000000E+01 0.  1.
         15    1    3    3    0    0 -0.14700943721E+02  0.10772819986E+03 -0.12212037048E+03  0.16351766084E+03  0.17770000000E+01 0. -1.
</event>
<event>
 7    1  0.2522925E-008  0.5250552E+03  0.7546771E-02  0.9345429E-01
        -11   -1    0    0    0    0  0.00000000000E+00  0.00000000000E+00  0.50000000000E+03  0.50000000000E+03  0.00000000000E+00 0. -1.
         11   -1    0    0    0    0 -0.00000000000E+00 -0.00000000000E+00 -0.50000000000E+03  0.50000000000E+03  0.00000000000E+00 0. -1.
         23    2    1    2    0    0 -0.10185051344E+01 -0.15483912765E+02 -0.75051060014E+02  0.12005416706E+03  0.92409699225E+02 0.  0.
        -11    1    1    2    0    0  0.26094345201E+02  0.26314963514E+03  0.39451734994E+03  0.47494482283E+03  0.00000000000E+00 0. -1.
         11    1    1    2    0    0 -0.25075840067E+02 -0.24766572238E+03 -0.31946628993E+03  0.40500101012E+03  0.00000000000E+00 0. -1.
        -15    1    3    3    0    0  0.23901221496E+02 -0.26914376101E+02 -0.83800116907E+02  0.91220991841E+02  0.17770000000E+01 0. -1.
         15    1    3    3    0    0 -0.24919726630E+02  0.11430463336E+02  0.87490568925E+01  0.28833175214E+02  0.17770000000E+01 0.  1.
</event>
<event>
 7    1  0.2452998E-008  0.4222908E+03  0.7546771E-02  0.9592739E-01
        -11   -1    0    0    0    0  0.00000000000E+00  0.00000000000E+00  0.50000000000E+03  0.50000000000E+03  0.00000000000E+00 0.  1.
         11   -1    0    0    0    0 -0.00000000000E+00 -0.00000000000E+00 -0.50000000000E+03  0.50000000000E+03  0.00000000000E+00 0.  1.
         23    2    1    2    0    0  0.54186456864E+02  0.19952535966E+02 -0.10576518003E+03  0.14686535141E+03  0.83957622277E+02 0.  0.
        -11    1    1    2    0    0 -0.25942102099E+03 -0.14650663628E+03 -0.27302691547E+03  0.40411280254E+03  0.00000000000E+00 0.  1.
         11    1    1    2    0    0  0.20523456412E+03  0.12655410031E+03  0.37879209550E+03  0.44902184605E+03  0.00000000000E+00 0.  1.
        -15    1    3    3    0    0 -0.74965392439E+01 -0.19962792871E+02 -0.50704699176E+02  0.55034856658E+02  0.17770000000E+01 0.  1.
         15    1    3    3    0    0  0.61682996108E+02  0.39915328837E+02 -0.55060480854E+02  0.91830494750E+02  0.17770000000E+01 0. -1.
</event>
<event>
 7    1  0.2452998E-008  0.5148627E+03  0.7546771E-02  0.9367154E-01
        -11   -1    0    0    0    0  0.00000000000E+00  0.00000000000E+00  0.50000000000E+03  0.50000000000E+03  0.00000000000E+00 0.  1.
         11   -1    0    0    0    0 -0.00000000000E+00 -0.00000000000E+00 -0.50000000000E+03  0.50000000000E+03  0.00000000000E+00 0. -1.
         23    2    1    2    0    0 -0.11172766549E+03 -0.10677078722E+03 -0.15522990468E+03  0.23575834096E+03  0.87192888377E+02 0.  0.
        -11    1    1    2    0    0  0.13893711866E+03  0.29780577219E+03  0.35688433146E+03  0.48513732790E+03  0.00000000000E+00 0.  1.
         11    1    1    2    0    0 -0.27209453163E+02 -0.19103498496E+03 -0.20165442677E+03  0.27910433114E+03  0.00000000000E+00 0. -1.
        -15    1    3    3    0    0  0.11132945768E+02 -0.20097104996E+02 -0.40590429811E+02  0.46675227176E+02  0.17770000000E+01 0.  1.
         15    1    3    3    0    0 -0.12286061126E+03 -0.86673682228E+02 -0.11463947487E+03  0.18908311378E+03  0.17770000000E+01 0. -1.
</event>
<event>
 7    1  0.2452998E-008  0.4367127E+03  0.7546771E-02  0.9553743E-01
        -11   -1    0    0    0    0  0.00000000000E+00  0.00000000000E+00  0.50000000000E+03  0.50000000000E+03  0.00000000000E+00 0.  1.
         11   -1    0    0    0    0 -0.00000000000E+00 -0.00000000000E+00 -0.50000000000E+03  0.50000000000E+03  0.00000000000E+00 0. -1.
         23    2    1    2    0    0  0.15597386303E+02  0.72745375236E+02  0.38200197676E+02  0.12257962332E+03  0.89617748652E+02 0.  0.
        -11    1    1    2    0    0  0.22882007978E+03 -0.25083109625E+03  0.27878836490E+03  0.43931517178E+03  0.00000000000E+00 0.  1.
         11    1    1    2    0    0 -0.24441746608E+03  0.17808572102E+03 -0.31698856257E+03  0.43810520490E+03  0.00000000000E+00 0. -1.
        -15    1    3    3    0    0 -0.34062026263E+02  0.83826225712E+01  0.10068868093E+02  0.36538059992E+02  0.17770000000E+01 0.  1.
         15    1    3    3    0    0  0.49659412567E+02  0.64362752664E+02  0.28131329584E+02  0.86041563329E+02  0.17770000000E+01 0. -1.
</event>
<event>
 7    1  0.2452998E-008  0.5092812E+03  0.7546771E-02  0.9379279E-01
        -11   -1    0    0    0    0  0.00000000000E+00  0.00000000000E+00  0.50000000000E+03  0.50000000000E+03  0.00000000000E+00 0.  1.
         11   -1    0    0    0    0 -0.00000000000E+00 -0.00000000000E+00 -0.50000000000E+03  0.50000000000E+03  0.00000000000E+00 0. -1.
         23    2    1    2    0    0 -0.15849402792E+03 -0.13998616478E+03  0.29909468397E+03  0.37735143323E+03  0.90664165845E+02 0.  0.
        -11    1    1    2    0    0 -0.76459508479E+01 -0.47895218574E+02  0.12269086148E+03  0.13192975410E+03  0.00000000000E+00 0.  1.
         11    1    1    2    0    0  0.16613997876E+03  0.18788138335E+03 -0.42178554545E+03  0.49071881267E+03  0.00000000000E+00 0. -1.
        -15    1    3    3    0    0 -0.16078284178E+03 -0.14970169290E+03  0.28198990161E+03  0.35746773478E+03  0.17770000000E+01 0.  1.
         15    1    3    3    0    0  0.22888138663E+01  0.97155281215E+01  0.17104782361E+02  0.19883698454E+02  0.17770000000E+01 0. -1.
</event>
<event>
 7    1  0.2452998E-008  0.3880573E+03  0.7546771E-02  0.9692361E-01
        -11   -1    0    0    0    0  0.00000000000E+00  0.00000000000E+00  0.50000000000E+03  0.50000000000E+03  0.00000000000E+00 0.  1.
         11   -1    0    0    0    0 -0.00000000000E+00 -0.00000000000E+00 -0.50000000000E+03  0.50000000000E+03  0.00000000000E+00 0. -1.
         23    2    1    2    0    0 -0.12017872612E+03 -0.13315142440E+03  0.27866417591E+02  0.20294121846E+03  0.90754464846E+02 0.  0.
        -11    1    1    2    0    0 -0.67752285725E+02  0.43168058359E+03 -0.67250001602E+02  0.44210978409E+03  0.00000000000E+00 0.  1.
         11    1    1    2    0    0  0.18793101184E+03 -0.29852915919E+03  0.39383584011E+02  0.35494899745E+03  0.00000000000E+00 0. -1.
        -15    1    3    3    0    0 -0.66735677606E+02 -0.67614853394E+02  0.60092876987E+02  0.11242655673E+03  0.17770000000E+01 0.  1.
         15    1    3    3    0    0 -0.53443048512E+02 -0.65536571010E+02 -0.32226459396E+02  0.90514661731E+02  0.17770000000E+01 0. -1.
</event>
<event>
 7    1  0.2452998E-008  0.3122216E+03  0.7546771E-02  0.9958548E-01
        -11   -1    0    0    0    0  0.00000000000E+00  0.00000000000E+00  0.50000000000E+03  0.50000000000E+03  0.00000000000E+00 0.  1.
         11   -1    0    0    0    0 -0.00000000000E+00 -0.00000000000E+00 -0.50000000000E+03  0.50000000000E+03  0.00000000000E+00 0.  1.
         23    2    1    2    0    0  0.12275030269E+03 -0.19847709810E+02 -0.28316180510E+03  0.32270329824E+03  0.92169639435E+02 0.  0.
        -11    1    1    2    0    0 -0.25436333246E+03 -0.18310324914E+03  0.11602789607E+02  0.31362737360E+03  0.00000000000E+00 0.  1.
         11    1    1    2    0    0  0.13161302978E+03  0.20295095895E+03  0.27155901549E+03  0.36366932816E+03  0.00000000000E+00 0.  1.
        -15    1    3    3    0    0  0.26845659221E+02 -0.44426066725E+02 -0.65629630129E+02  0.83694509399E+02  0.17770000000E+01 0. -1.
         15    1    3    3    0    0  0.95904643464E+02  0.24578356915E+02 -0.21753217497E+03  0.23900878884E+03  0.17770000000E+01 0.  1.
</event>
<event>
 7    1  0.2452998E-008  0.5320633E+03  0.7546771E-02  0.9330792E-01
        -11   -1    0    0    0    0  0.00000000000E+00  0.00000000000E+00  0.50000000000E+03  0.50000000000E+03  0.00000000000E+00 0.  1.
         11   -1    0    0    0    0 -0.00000000000E+00 -0.00000000000E+00 -0.50000000000E+03  0.50000000000E+03  0.00000000000E+00 0. -1.
         23    2    1    2    0    0 -0.77317682151E+02 -0.66665356406E+02  0.15228935699E+03  0.20367325730E+03  0.88704305253E+02 0.  0.
        -11    1    1    2    0    0  0.12854449512E+03 -0.18552055956E+03  0.23853394248E+03  0.32839002263E+03  0.00000000000E+00 0.  1.
         11    1    1    2    0    0 -0.51226812965E+02  0.25218591597E+03 -0.39082329947E+03  0.46793672007E+03  0.00000000000E+00 0. -1.
        -15    1    3    3    0    0 -0.14590584781E+02 -0.70627406063E+02  0.75487957395E+02  0.10441601933E+03  0.17770000000E+01 0. -1.
         15    1    3    3    0    0 -0.62727097371E+02  0.39620496574E+01  0.76801399594E+02  0.99257237976E+02  0.17770000000E+01 0.  1.
</event>
<event>
 7    1  0.2452998E-008  0.5251372E+03  0.7546771E-02  0.9345256E-01
        -11   -1    0    0    0    0  0.00000000000E+00  0.00000000000E+00  0.50000000000E+03  0.50000000000E+03  0.00000000000E+00 0.  1.
         11   -1    0    0    0    0 -0.00000000000E+00 -0.00000000000E+00 -0.50000000000E+03  0.50000000000E+03  0.00000000000E+00 0.  1.
         23    2    1    2    0    0  0.83719184016E+02  0.19031641052E+02  0.26405476470E+03  0.29307759165E+03  0.93800057746E+02 0.  0.
        -11    1    1    2    0    0 -0.59246131805E+02  0.12074214250E+03  0.18911080294E+03  0.23205961497E+03  0.00000000000E+00 0.  1.
         11    1    1    2    0    0 -0.24473052211E+02 -0.13977378355E+03 -0.45316556764E+03  0.47486279339E+03  0.00000000000E+00 0.  1.
        -15    1    3    3    0    0  0.74531251309E+02  0.27523307652E+02  0.96342130164E+02  0.12488956585E+03  0.17770000000E+01 0.  1.
         15    1    3    3    0    0  0.91879327069E+01 -0.84916665996E+01  0.16771263453E+03  0.16818802579E+03  0.17770000000E+01 0. -1.
</event>
<event>
 7    1  0.2452998E-008  0.3766874E+03  0.7546771E-02  0.9727906E-01
        -11   -1    0    0    0    0  0.00000000000E+00  0.00000000000E+00  0.50000000000E+03  0.50000000000E+03  0.00000000000E+00 0. -1.
         11   -1    0    0    0    0 -0.00000000000E+00 -0.00000000000E+00 -0.50000000000E+03  0.50000000000E+03  0.00000000000E+00 0. -1.
         23    2    1    2    0    0 -0.16844432669E+02 -0.15821589899E+03 -0.28740480223E+03  0.34066762477E+03  0.90204792642E+02 0.  0.
        -11    1    1    2    0    0 -0.61569693536E+02  0.36153186072E+03  0.23379746396E+03  0.43492225469E+03  0.00000000000E+00 0. -1.
         11    1    1    2    0    0  0.78414126205E+02 -0.20331596173E+03  0.53607338277E+02  0.22441012054E+03  0.00000000000E+00 0. -1.
        -15    1    3    3    0    0  0.32411008447E+02 -0.85874197298E+02 -0.11355149542E+03  0.14602037896E+03  0.17770000000E+01 0.  1.
         15    1    3    3    0    0 -0.49255441116E+02 -0.72341701687E+02 -0.17385330682E+03  0.19464724581E+03  0.17770000000E+01 0. -1.
</event>
<event>
 7    1  0.2452998E-008  0.5151428E+03  0.7546771E-02  0.9366550E-01
        -11   -1    0    0    0    0  0.00000000000E+00  0.00000000000E+00  0.50000000000E+03  0.50000000000E+03  0.00000000000E+00 0. -1.
         11   -1    0    0    0    0 -0.00000000000E+00 -0.00000000000E+00 -0.50000000000E+03  0.50000000000E+03  0.00000000000E+00 0. -1.
         23    2    1    2    0    0  0.45134400927E+02 -0.91184982812E+02  0.12391060092E+03  0.18426498711E+03  0.90818132637E+02 0.  0.
        -11    1    1    2    0    0 -0.13957247856E+02 -0.22269422495E+03  0.24432072858E+03  0.33087783396E+03  0.00000000000E+00 0. -1.
         11    1    1    2    0    0 -0.31177153071E+02  0.31387920776E+03 -0.36823132950E+03  0.48485717893E+03  0.00000000000E+00 0. -1.
        -15    1    3    3    0    0  0.46300396711E+02 -0.90111707440E+02  0.54957302531E+02  0.11527059202E+03  0.17770000000E+01 0.  1.
         15    1    3    3    0    0 -0.11659957835E+01 -0.10732753722E+01  0.68953298390E+02  0.68994395091E+02  0.17770000000E+01 0. -1.
</event>
<event>
 7    1  0.2452998E-008  0.4317324E+03  0.7546771E-02  0.9567026E-01
        -11   -1    0    0    0    0  0.00000000000E+00  0.00000000000E+00  0.50000000000E+03  0.50000000000E+03  0.00000000000E+00 0.  1.
         11   -1    0    0    0    0 -0.00000000000E+00 -0.00000000000E+00 -0.50000000000E+03  0.50000000000E+03  0.00000000000E+00 0. -1.
         23    2    1    2    0    0 -0.39383161907E+02  0.44618726423E+02  0.72694617074E+02  0.13143921506E+03  0.91923314315E+02 0.  0.
        -11    1    1    2    0    0  0.43293710522E+03  0.14512261653E+02  0.83284913558E+02  0.44111395313E+03  0.00000000000E+00 0.  1.
         11    1    1    2    0    0 -0.39355394332E+03 -0.59130988076E+02 -0.15597953063E+03  0.42744683181E+03  0.00000000000E+00 0. -1.
        -15    1    3    3    0    0  0.20314940227E+02  0.44969661730E+02  0.38539610552E+02  0.62637261938E+02  0.17770000000E+01 0.  1.
         15    1    3    3    0    0 -0.59698102133E+02 -0.35093530739E+00  0.34155006522E+02  0.68801953122E+02  0.17770000000E+01 0. -1.
</event>
<event>
 7    1  0.2452998E-008  0.5361597E+03  0.7546771E-02  0.9322347E-01
        -11   -1    0    0    0    0  0.00000000000E+00  0.00000000000E+00  0.50000000000E+03  0.50000000000E+03  0.00000000000E+00 0.  1.
         11   -1    0    0    0    0 -0.00000000000E+00 -0.00000000000E+00 -0.50000000000E+03  0.50000000000E+03  0.00000000000E+00 0. -1.
         23    2    1    2    0    0  0.49347728822E+00 -0.19746828017E+02 -0.96802178521E+02  0.13825272537E+03  0.96710772762E+02 0.  0.
        -11    1    1    2    0    0  0.90505828353E+02  0.36642967213E+03  0.26960300002E+03  0.46384026044E+03  0.00000000000E+00 0.  1.
         11    1    1    2    0    0 -0.90999305641E+02 -0.34668284412E+03 -0.17280082150E+03  0.39790701419E+03  0.00000000000E+00 0. -1.
        -15    1    3    3    0    0  0.48066182251E+02 -0.29018158030E+01 -0.48749243004E+02  0.68545056959E+02  0.17770000000E+01 0.  1.
         15    1    3    3    0    0 -0.47572704963E+02 -0.16845012214E+02 -0.48052935517E+02  0.69707668407E+02  0.17770000000E+01 0. -1.
</event>
<event>
 7    1  0.2452998E-008  0.5314984E+03  0.7546771E-02  0.9331963E-01
        -11   -1    0    0    0    0  0.00000000000E+00  0.00000000000E+00  0.50000000000E+03  0.50000000000E+03  0.00000000000E+00 0. -1.
         11   -1    0    0    0    0 -0.00000000000E+00 -0.00000000000E+00 -0.50000000000E+03  0.50000000000E+03  0.00000000000E+00 0.  1.
         23    2    1    2    0    0  0.48467091387E+02  0.86468806626E+01 -0.96652940554E+02  0.14124470670E+03  0.90467943278E+02 0.  0.
        -11    1    1    2    0    0 -0.14882041558E+03 -0.32303259483E+03  0.30495271137E+03  0.46850157907E+03  0.00000000000E+00 0. -1.
         11    1    1    2    0    0  0.10035332419E+03  0.31438571417E+03 -0.20829977081E+03  0.39025371423E+03  0.00000000000E+00 0.  1.
        -15    1    3    3    0    0  0.12707630076E+02 -0.28119158481E+01  0.17030011175E+02  0.21507434587E+02  0.17770000000E+01 0.  1.
         15    1    3    3    0    0  0.35759461311E+02  0.11458796511E+02 -0.11368295173E+03  0.11973727212E+03  0.17770000000E+01 0. -1.
</event>
<event>
 7    1  0.2452998E-008  0.3460341E+03  0.7546771E-02  0.9830839E-01
        -11   -1    0    0    0    0  0.00000000000E+00  0.00000000000E+00  0.50000000000E+03  0.50000000000E+03  0.00000000000E+00 0.  1.
         11   -1    0    0    0    0 -0.00000000000E+00 -0.00000000000E+00 -0.50000000000E+03  0.50000000000E+03  0.00000000000E+00 0. -1.
         23    2    1    2    0    0 -0.91691885112E+02  0.29593110876E+02  0.25637162417E+03  0.28878430932E+03  0.91579548049E+02 0.  0.
        -11    1    1    2    0    0  0.14046682883E+03  0.19437408024E+03  0.12181980606E+03  0.26898378802E+03  0.00000000000E+00 0.  1.
         11    1    1    2    0    0 -0.48774943722E+02 -0.22396719111E+03 -0.37819143023E+03  0.44223190266E+03  0.00000000000E+00 0. -1.
        -15    1    3    3    0    0 -0.47016832959E+02  0.19623357543E+02  0.32916352159E+02  0.60681980119E+02  0.17770000000E+01 0.  1.
         15    1    3    3    0    0 -0.44675052154E+02  0.99697533332E+01  0.22345527201E+03  0.22810232920E+03  0.17770000000E+01 0. -1.
</event>
<event>
 7    1  0.2452998E-008  0.4356681E+03  0.7546771E-02  0.9556513E-01
        -11   -1    0    0    0    0  0.00000000000E+00  0.00000000000E+00  0.50000000000E+03  0.50000000000E+03  0.00000000000E+00 0. -1.
         11   -1    0    0    0    0 -0.00000000000E+00 -0.00000000000E+00 -0.50000000000E+03  0.50000000000E+03  0.00000000000E+00 0.  1.
         23    2    1    2    0    0  0.61403580053E+02  0.39144538430E+02  0.42454750621E+02  0.12459617420E+03  0.91755687794E+02 0.  0.
        -11    1    1    2    0    0 -0.95481689573E+02  0.38220175466E+03 -0.17686281822E+03  0.43182796433E+03  0.00000000000E+00 0.  1.
         11    1    1    2    0    0  0.34078109519E+02 -0.42134629309E+03  0.13440806760E+03  0.44357586147E+03  0.00000000000E+00 0. -1.
        -15    1    3    3    0    0  0.17482505758E+02 -0.14288576303E+02 -0.20872992736E+02  0.30800015829E+02  0.17770000000E+01 0.  1.
         15    1    3    3    0    0  0.43921074295E+02  0.53433114733E+02  0.63327743356E+02  0.93796158370E+02  0.17770000000E+01 0. -1.
</event>
<event>
 7    1  0.2452998E-008  0.3622354E+03  0.7546771E-02  0.9775075E-01
        -11   -1    0    0    0    0  0.00000000000E+00  0.00000000000E+00  0.50000000000E+03  0.50000000000E+03  0.00000000000E+00 0.  1.
         11   -1    0    0    0    0 -0.00000000000E+00 -0.00000000000E+00 -0.50000000000E+03  0.50000000000E+03  0.00000000000E+00 0.  1.
         23    2    1    2    0    0  0.95941013577E+02  0.13922928938E+02  0.20385977053E+03  0.24117503758E+03  0.84900333775E+02 0.  0.
        -11    1    1    2    0    0 -0.13117399322E+03  0.29460352259E+03  0.86292724300E+02  0.33383272202E+03  0.00000000000E+00 0.  1.
         11    1    1    2    0    0  0.35232979641E+02 -0.30852645153E+03 -0.29015249483E+03  0.42499224040E+03  0.00000000000E+00 0.  1.
        -15    1    3    3    0    0 -0.91088164192E+01 -0.16074243262E+02  0.19894180376E+02  0.27208233586E+02  0.17770000000E+01 0. -1.
         15    1    3    3    0    0  0.10504983000E+03  0.29997172200E+02  0.18396559015E+03  0.21396680399E+03  0.17770000000E+01 0.  1.
</event>
<event>
 7    1  0.3117842E-008  0.3832339E+03  0.7546771E-02  0.9707279E-01
        -11   -1    0    0    0    0  0.00000000000E+00  0.00000000000E+00  0.50000000000E+03  0.50000000000E+03  0.00000000000E+00 0.  1.
         11   -1    0    0    0    0 -0.00000000000E+00 -0.00000000000E+00 -0.50000000000E+03  0.50000000000E+03  0.00000000000E+00 0. -1.
         23    2    1    2    0    0 -0.17275111731E+02 -0.15152651183E+01  0.18825759038E+03  0.21056059363E+03  0.92704464518E+02 0.  0.
        -11    1    1    2    0    0 -0.25199216949E+00 -0.30547094739E+03  0.14315652240E+03  0.33735197214E+03  0.00000000000E+00 0.  1.
         11    1    1    2    0    0  0.17527103901E+02  0.30698621250E+03 -0.33141411278E+03  0.45208743423E+03  0.00000000000E+00 0. -1.
        -15    1    3    3    0    0 -0.44257217684E+02 -0.15826220734E+02  0.48763989216E+02  0.67751420304E+02  0.17770000000E+01 0.  1.
         15    1    3    3    0    0  0.26982105953E+02  0.14310955615E+02  0.13949360116E+03  0.14280917333E+03  0.17770000000E+01 0. -1.
</event>
<event>
 7    1  0.2452998E-008  0.3476081E+03  0.7546771E-02  0.9825279E-01
        -11   -1    0    0    0    0  0.00000000000E+00  0.00000000000E+00  0.50000000000E+03  0.50000000000E+03  0.00000000000E+00 0.  1.
         11   -1    0    0    0    0 -0.00000000000E+00 -0.00000000000E+00 -0.50000000000E+03  0.50000000000E+03  0.00000000000E+00 0.  1.
         23    2    1    2    0    0 -0.16947241417E+03 -0.13969328919E+03  0.11098462129E+03  0.26251895850E+03  0.91452190781E+02 0.  0.
        -11    1    1    2    0    0 -0.81431690262E+02  0.29859148008E+03 -0.26090779002E+03  0.40479731601E+03  0.00000000000E+00 0.  1.
         11    1    1    2    0    0  0.25090410443E+03 -0.15889819088E+03  0.14992316873E+03  0.33268372550E+03  0.00000000000E+00 0.  1.
        -15    1    3    3    0    0 -0.17672770863E+03 -0.11315961415E+03  0.92571221050E+02  0.22936950532E+03  0.17770000000E+01 0. -1.
         15    1    3    3    0    0  0.72552944631E+01 -0.26533675041E+02  0.18413400235E+02  0.33149453181E+02  0.17770000000E+01 0.  1.
</event>
<event>
 7    1  0.2452998E-008  0.3704820E+03  0.7546771E-02  0.9747877E-01
        -11   -1    0    0    0    0  0.00000000000E+00  0.00000000000E+00  0.50000000000E+03  0.50000000000E+03  0.00000000000E+00 0.  1.
         11   -1    0    0    0    0 -0.00000000000E+00 -0.00000000000E+00 -0.50000000000E+03  0.50000000000E+03  0.00000000000E+00 0. -1.
         23    2    1    2    0    0 -0.19745881196E+00  0.11334504633E+03  0.17846777914E+03  0.22946415994E+03  0.89195930335E+02 0.  0.
        -11    1    1    2    0    0  0.14831738521E+03 -0.39481472953E+03 -0.16280488430E+03  0.45208643837E+03  0.00000000000E+00 0.  1.
         11    1    1    2    0    0 -0.14811992640E+03  0.28146968320E+03 -0.15662894846E+02  0.31844940168E+03  0.00000000000E+00 0. -1.
        -15    1    3    3    0    0  0.20920591087E+02  0.83526097251E+02  0.58680773641E+02  0.10421550258E+03  0.17770000000E+01 0. -1.
         15    1    3    3    0    0 -0.21118049899E+02  0.29818949082E+02  0.11978700550E+03  0.12524865736E+03  0.17770000000E+01 0.  1.
</event>
<event>
 7    1  0.2452998E-008  0.3419434E+03  0.7546771E-02  0.9845438E-01
        -11   -1    0    0    0    0  0.00000000000E+00  0.00000000000E+00  0.50000000000E+03  0.50000000000E+03  0.00000000000E+00 0. -1.
         11   -1    0    0    0    0 -0.00000000000E+00 -0.00000000000E+00 -0.50000000000E+03  0.50000000000E+03  0.00000000000E+00 0. -1.
         23    2    1    2    0    0  0.41324267156E+02 -0.42317272234E+01 -0.25251891008E+03  0.26979973774E+03  0.85442939806E+02 0.  0.
        -11    1    1    2    0    0 -0.30483407224E+03 -0.90214170902E+02  0.31045064686E+03  0.44434447489E+03  0.00000000000E+00 0. -1.
         11    1    1    2    0    0  0.26350980509E+03  0.94445898125E+02 -0.57931736776E+02  0.28585578737E+03  0.00000000000E+00 0. -1.
        -15    1    3    3    0    0  0.45433881032E+02  0.28553970076E+02 -0.97669601213E+02  0.11145436502E+03  0.17770000000E+01 0.  1.
         15    1    3    3    0    0 -0.41096138764E+01 -0.32785697299E+02 -0.15484930887E+03  0.15834537271E+03  0.17770000000E+01 0. -1.
</event>
<event>
 7    1  0.2452998E-008  0.3713676E+03  0.7546771E-02  0.9745002E-01
        -11   -1    0    0    0    0  0.00000000000E+00  0.00000000000E+00  0.50000000000E+03  0.50000000000E+03  0.00000000000E+00 0. -1.
         11   -1    0    0    0    0 -0.00000000000E+00 -0.00000000000E+00 -0.50000000000E+03  0.50000000000E+03  0.00000000000E+00 0.  1.
         23    2    1    2    0    0  0.45214138377E+02 -0.10170979648E+03  0.17640947922E+03  0.22853062709E+03  0.93363494736E+02 0.  0.
        -11    1    1    2    0    0 -0.21233543508E+03 -0.26290247824E+03 -0.14934308712E+03  0.36946908900E+03  0.00000000000E+00 0. -1.
         11    1    1    2    0    0  0.16712129670E+03  0.36461227472E+03 -0.27066392102E+02  0.40200028392E+03  0.00000000000E+00 0.  1.
        -15    1    3    3    0    0  0.28258865524E+02  0.11405524638E+02  0.30842790212E+02  0.43394526268E+02  0.17770000000E+01 0.  1.
         15    1    3    3    0    0  0.16955272853E+02 -0.11311532111E+03  0.14556668901E+03  0.18513610082E+03  0.17770000000E+01 0. -1.
</event>
<event>
 7    1  0.2452998E-008  0.4143703E+03  0.7546771E-02  0.9614869E-01
        -11   -1    0    0    0    0  0.00000000000E+00  0.00000000000E+00  0.50000000000E+03  0.50000000000E+03  0.00000000000E+00 0. -1.
         11   -1    0    0    0    0 -0.00000000000E+00 -0.00000000000E+00 -0.50000000000E+03  0.50000000000E+03  0.00000000000E+00 0. -1.
         23    2    1    2    0    0  0.15181572909E+03 -0.14044027606E+03  0.30286541087E+03  0.37779201351E+03  0.90707561038E+02 0.  0.
        -11    1    1    2    0    0  0.15405303512E+03 -0.53723578443E+02 -0.23759581576E+02  0.16487291538E+03  0.00000000000E+00 0. -1.
         11    1    1    2    0    0 -0.30586876421E+03  0.19416385450E+03 -0.27910582930E+03  0.45733507111E+03  0.00000000000E+00 0. -1.
        -15    1    3    3    0    0  0.15051781327E+03 -0.96447034972E+02  0.26522660736E+03  0.31985301882E+03  0.17770000000E+01 0.  1.
         15    1    3    3    0    0  0.12979158184E+01 -0.43993241089E+02  0.37638803517E+02  0.57938994694E+02  0.17770000000E+01 0. -1.
</event>
<event>
 7    1  0.2452998E-008  0.4140031E+03  0.7546771E-02  0.9615907E-01
        -11   -1    0    0    0    0  0.00000000000E+00  0.00000000000E+00  0.50000000000E+03  0.50000000000E+03  0.00000000000E+00 0.  1.
         11   -1    0    0    0    0 -0.00000000000E+00 -0.00000000000E+00 -0.50000000000E+03  0.50000000000E+03  0.00000000000E+00 0. -1.
         23    2    1    2    0    0 -0.16243613185E+02 -0.22211778313E+02 -0.12762040055E+03  0.16176458521E+03  0.95517518426E+02 0.  0.
        -11    1    1    2    0    0  0.28497971153E+03 -0.28489925298E+03  0.14889245813E+03  0.42959281235E+03  0.00000000000E+00 0.  1.
         11    1    1    2    0    0 -0.26873609835E+03  0.30711103129E+03 -0.21272057589E+02  0.40864260244E+03  0.00000000000E+00 0. -1.
        -15    1    3    3    0    0 -0.25427260132E+02  0.20065770696E+02 -0.11056671414E+03  0.11522732626E+03  0.17770000000E+01 0.  1.
         15    1    3    3    0    0  0.91836469465E+01 -0.42277549009E+02 -0.17053686405E+02  0.46537258949E+02  0.17770000000E+01 0. -1.
</event>
<event>
 7    1  0.2452998E-008  0.3983632E+03  0.7546771E-02  0.9661249E-01
        -11   -1    0    0    0    0  0.00000000000E+00  0.00000000000E+00  0.50000000000E+03  0.50000000000E+03  0.00000000000E+00 0.  1.
         11   -1    0    0    0    0 -0.00000000000E+00 -0.00000000000E+00 -0.50000000000E+03  0.50000000000E+03  0.00000000000E+00 0. -1.
         23    2    1    2    0    0 -0.84509658339E+02 -0.18187589793E+02 -0.33080354570E+03  0.35372193767E+03  0.90639685389E+02 0.  0.
        -11    1    1    2    0    0  0.22073679091E+03 -0.10430227578E+03  0.38442216940E+03  0.45539444432E+03  0.00000000000E+00 0.  1.
         11    1    1    2    0    0 -0.13622713257E+03  0.12248986557E+03 -0.53618623705E+02  0.19088361801E+03  0.00000000000E+00 0. -1.
        -15    1    3    3    0    0 -0.25450440707E+02 -0.17862337470E+02 -0.25839324526E+03  0.26026335693E+03  0.17770000000E+01 0. -1.
         15    1    3    3    0    0 -0.59059217633E+02 -0.32525232284E+00 -0.72410300435E+02  0.93458580743E+02  0.17770000000E+01 0.  1.
</event>
<event>
 7    1  0.2452998E-008  0.5367994E+03  0.7546771E-02  0.9321035E-01
        -11   -1    0    0    0    0  0.00000000000E+00  0.00000000000E+00  0.50000000000E+03  0.50000000000E+03  0.00000000000E+00 0.  1.
         11   -1    0    0    0    0 -0.00000000000E+00 -0.00000000000E+00 -0.50000000000E+03  0.50000000000E+03  0.00000000000E+00 0. -1.
         23    2    1    2    0    0 -0.25117899695E+03  0.19900576258E+03  0.56275569298E+02  0.33686408709E+03  0.87271366588E+02 0.  0.
        -11    1    1    2    0    0  0.25990296419E+02  0.18630327057E+03  0.67747634585E+02  0.19993535486E+03  0.00000000000E+00 0.  1.
         11    1    1    2    0    0  0.22518870053E+03 -0.38530903315E+03 -0.12402320388E+03  0.46320055804E+03  0.00000000000E+00 0. -1.
        -15    1    3    3    0    0 -0.23731994832E+03  0.20680403707E+03  0.59949882900E+02  0.32044627288E+03  0.17770000000E+01 0.  1.
         15    1    3    3    0    0 -0.13859048632E+02 -0.77982744893E+01 -0.36743136011E+01  0.16417814210E+02  0.17770000000E+01 0. -1.
</event>
<event>
 7    1  0.2452998E-008  0.3519089E+03  0.7546771E-02  0.9810247E-01
        -11   -1    0    0    0    0  0.00000000000E+00  0.00000000000E+00  0.50000000000E+03  0.50000000000E+03  0.00000000000E+00 0.  1.
         11   -1    0    0    0    0 -0.00000000000E+00 -0.00000000000E+00 -0.50000000000E+03  0.50000000000E+03  0.00000000000E+00 0. -1.
         23    2    1    2    0    0 -0.15335140863E+03 -0.11912137320E+02 -0.18416526865E+03  0.25640408764E+03  0.90375087471E+02 0.  0.
        -11    1    1    2    0    0  0.32432878670E+03 -0.24533138674E+03  0.14731013035E+03  0.43252390189E+03  0.00000000000E+00 0. -1.
         11    1    1    2    0    0 -0.17097737807E+03  0.25724352406E+03  0.36855138299E+02  0.31107201047E+03  0.00000000000E+00 0.  1.
        -15    1    3    3    0    0  0.11464751781E+02 -0.37724630317E+01 -0.21289163835E+02  0.24536875036E+02  0.17770000000E+01 0.  1.
         15    1    3    3    0    0 -0.16481616041E+03 -0.81396742886E+01 -0.16287610482E+03  0.23186721260E+03  0.17770000000E+01 0. -1.
</event>
<event>
 7    1  0.2452998E-008  0.3874558E+03  0.7546771E-02  0.9694209E-01
        -11   -1    0    0    0    0  0.00000000000E+00  0.00000000000E+00  0.50000000000E+03  0.50000000000E+03  0.00000000000E+00 0.  1.
         11   -1    0    0    0    0 -0.00000000000E+00 -0.00000000000E+00 -0.50000000000E+03  0.50000000000E+03  0.00000000000E+00 0. -1.
         23    2    1    2    0    0  0.66783631022E+02  0.18836386541E+01 -0.36918735414E+03  0.38594882378E+03  0.90518454766E+02 0.  0.
        -11    1    1    2    0    0  0.52527763482E+02 -0.17219024239E+03  0.36395494196E+03  0.40604414204E+03  0.00000000000E+00 0.  1.
         11    1    1    2    0    0 -0.11931139450E+03  0.17030660373E+03  0.52324121821E+01  0.20800703418E+03  0.00000000000E+00 0. -1.
        -15    1    3    3    0    0  0.76372095064E+02 -0.34145952864E+00 -0.16845845440E+03  0.18497086821E+03  0.17770000000E+01 0.  1.
         15    1    3    3    0    0 -0.95884640424E+01  0.22250981828E+01 -0.20072889974E+03  0.20097795557E+03  0.17770000000E+01 0. -1.
</event>
<event>
 7    1  0.2452998E-008  0.5234184E+03  0.7546771E-02  0.9348882E-01
        -11   -1    0    0    0    0  0.00000000000E+00  0.00000000000E+00  0.50000000000E+03  0.50000000000E+03  0.00000000000E+00 0.  1.
         11   -1    0    0    0    0 -0.00000000000E+00 -0.00000000000E+00 -0.50000000000E+03  0.50000000000E+03  0.00000000000E+00 0. -1.
         23    2    1    2    0    0 -0.69873310828E+02 -0.13280625957E+03  0.27454961260E+03  0.32568016665E+03  0.90389706387E+02 0.  0.
        -11    1    1    2    0    0 -0.14850081529E+03 -0.10724393089E+03  0.74475759440E+02  0.19773818953E+03  0.00000000000E+00 0.  1.
         11    1    1    2    0    0  0.21837412612E+03  0.24005019046E+03 -0.34902537204E+03  0.47658164382E+03  0.00000000000E+00 0. -1.
        -15    1    3    3    0    0 -0.54452711835E+02 -0.84562805041E+02  0.24977264923E+03  0.26926845313E+03  0.17770000000E+01 0.  1.
         15    1    3    3    0    0 -0.15420598993E+02 -0.48243454532E+02  0.24776963374E+02  0.56411713514E+02  0.17770000000E+01 0. -1.
</event>
<event>
 7    1  0.2452998E-008  0.5424440E+03  0.7546771E-02  0.9309546E-01
        -11   -1    0    0    0    0  0.00000000000E+00  0.00000000000E+00  0.50000000000E+03  0.50000000000E+03  0.00000000000E+00 0. -1.
         11   -1    0    0    0    0 -0.00000000000E+00 -0.00000000000E+00 -0.50000000000E+03  0.50000000000E+03  0.00000000000E+00 0.  1.
         23    2    1    2    0    0  0.12521328480E+03  0.20378876780E+03 -0.74371284423E+02  0.26760493639E+03  0.94197056551E+02 0.  0.
        -11    1    1    2    0    0 -0.11903647493E+03  0.18916922379E+03 -0.15994328938E+03  0.27483910459E+03  0.00000000000E+00 0.  1.
         11    1    1    2    0    0 -0.61768098647E+01 -0.39295799159E+03  0.23431457380E+03  0.45755595902E+03  0.00000000000E+00 0. -1.
        -15    1    3    3    0    0  0.15691005716E+02  0.97573493725E+02 -0.23198448052E+01  0.98870287483E+02  0.17770000000E+01 0.  1.
         15    1    3    3    0    0  0.10952227908E+03  0.10621527407E+03 -0.72051439618E+02  0.16873464891E+03  0.17770000000E+01 0. -1.
</event>
<event>
 7    1  0.2452998E-008  0.5202654E+03  0.7546771E-02  0.9355572E-01
        -11   -1    0    0    0    0  0.00000000000E+00  0.00000000000E+00  0.50000000000E+03  0.50000000000E+03  0.00000000000E+00 0. -1.
         11   -1    0    0    0    0 -0.00000000000E+00 -0.00000000000E+00 -0.50000000000E+03  0.50000000000E+03  0.00000000000E+00 0. -1.
         23    2    1    2    0    0  0.85046180099E+02  0.26930185700E+02  0.16786582920E+02  0.12922029185E+03  0.91967422541E+02 0.  0.
        -11    1    1    2    0    0 -0.41003888129E+03 -0.22353248016E+03 -0.10975723973E+03  0.47973461990E+03  0.00000000000E+00 0. -1.
         11    1    1    2    0    0  0.32499270119E+03  0.19660229446E+03  0.92970656809E+02  0.39104508825E+03  0.00000000000E+00 0. -1.
        -15    1    3    3    0    0  0.59121057820E+02  0.35115050968E+02 -0.30028341387E+02  0.75054815287E+02  0.17770000000E+01 0.  1.
         15    1    3    3    0    0  0.25925122279E+02 -0.81848652683E+01  0.46814924307E+02  0.54165476565E+02  0.17770000000E+01 0. -1.
</event>
<event>
 7    1  0.2452998E-008  0.5128354E+03  0.7546771E-02  0.9371539E-01
        -11   -1    0    0    0    0  0.00000000000E+00  0.00000000000E+00  0.50000000000E+03  0.50000000000E+03  0.00000000000E+00 0.  1.
         11   -1    0    0    0    0 -0.00000000000E+00 -0.00000000000E+00 -0.50000000000E+03  0.50000000000E+03  0.00000000000E+00 0. -1.
         23    2    1    2    0    0  0.13167044212E+03 -0.63064187434E+02 -0.49594361387E+02  0.17936447611E+03  0.91639606858E+02 0.  0.
        -11    1    1    2    0    0  0.27927055509E+03 -0.12183215902E+03 -0.13552767525E+03  0.33347094126E+03  0.00000000000E+00 0. -1.
         11    1    1    2    0    0 -0.41094099721E+03  0.18489634645E+03  0.18512203663E+03  0.48716458262E+03  0.00000000000E+00 0.  1.
        -15    1    3    3    0    0  0.73282404835E+02 -0.36126796438E+02  0.20471544989E+02  0.84247837732E+02  0.17770000000E+01 0.  1.
         15    1    3    3    0    0  0.58388037284E+02 -0.26937390996E+02 -0.70065906375E+02  0.95116638380E+02  0.17770000000E+01 0. -1.
</event>
<event>
 7    1  0.4187198E-008  0.5158652E+03  0.7546771E-02  0.9364993E-01
        -11   -1    0    0    0    0  0.00000000000E+00  0.00000000000E+00  0.50000000000E+03  0.50000000000E+03  0.00000000000E+00 0.  1.
         11   -1    0    0    0    0 -0.00000000000E+00 -0.00000000000E+00 -0.50000000000E+03  0.50000000000E+03  0.00000000000E+00 0. -1.
         23    2    1    2    0    0  0.66394973644E+02 -0.45705037273E+02  0.24555843118E+03  0.27431327148E+03  0.91932501463E+02 0.  0.
        -11    1    1    2    0    0  0.15891678176E+03  0.11261701812E+02  0.18156536668E+03  0.24155196507E+03  0.00000000000E+00 0.  1.
         11    1    1    2    0    0 -0.22531175540E+03  0.34443335461E+02 -0.42712379787E+03  0.48413476345E+03  0.00000000000E+00 0. -1.
        -15    1    3    3    0    0  0.76583658460E+01  0.32340116174E+01  0.15731253873E+03  0.15754206413E+03  0.17770000000E+01 0.  1.
         15    1    3    3    0    0  0.58736607798E+02 -0.48939048890E+02  0.88245892454E+02  0.11677120735E+03  0.17770000000E+01 0. -1.
</event>
<event>
 7    1  0.2452998E-008  0.4154965E+03  0.7546771E-02  0.9611690E-01
        -11   -1    0    0    0    0  0.00000000000E+00  0.00000000000E+00  0.50000000000E+03  0.50000000000E+03  0.00000000000E+00 0.  1.
         11   -1    0    0    0    0 -0.00000000000E+00 -0.00000000000E+00 -0.50000000000E+03  0.50000000000E+03  0.00000000000E+00 0. -1.
         23    2    1    2    0    0  0.22495290037E+02  0.44624593245E+02 -0.11327013936E+03  0.15983529608E+03  0.10109305123E+03 0.  0.
        -11    1    1    2    0    0 -0.37896456354E+03 -0.20666011230E+03  0.12179041686E+03  0.44850356528E+03  0.00000000000E+00 0.  1.
         11    1    1    2    0    0  0.35646927350E+03  0.16203551906E+03 -0.85202775006E+01  0.39166113863E+03  0.00000000000E+00 0. -1.
        -15    1    3    3    0    0  0.61095941934E+01 -0.18169978851E+02  0.91120502482E+01  0.21299353544E+02  0.17770000000E+01 0.  1.
         15    1    3    3    0    0  0.16385695844E+02  0.62794572096E+02 -0.12238218961E+03  0.13853594254E+03  0.17770000000E+01 0. -1.
</event>
<event>
 7    1  0.2452998E-008  0.5260479E+03  0.7546771E-02  0.9343341E-01
        -11   -1    0    0    0    0  0.00000000000E+00  0.00000000000E+00  0.50000000000E+03  0.50000000000E+03  0.00000000000E+00 0. -1.
         11   -1    0    0    0    0 -0.00000000000E+00 -0.00000000000E+00 -0.50000000000E+03  0.50000000000E+03  0.00000000000E+00 0.  1.
         23    2    1    2    0    0 -0.41128843948E+02  0.10457721480E+03 -0.28112018252E+03  0.31589342502E+03  0.90178286132E+02 0.  0.
        -11    1    1    2    0    0  0.21397450994E+02  0.18817744943E+03 -0.91084025449E+02  0.21015447431E+03  0.00000000000E+00 0.  1.
         11    1    1    2    0    0  0.19731392955E+02 -0.29275466423E+03  0.37220420797E+03  0.47395210067E+03  0.00000000000E+00 0. -1.
        -15    1    3    3    0    0 -0.49030279739E+02  0.50805661520E+02 -0.76272532061E+02  0.10395114453E+03  0.17770000000E+01 0.  1.
         15    1    3    3    0    0  0.79014357909E+01  0.53771553285E+02 -0.20484765046E+03  0.21194228049E+03  0.17770000000E+01 0. -1.
</event>
<event>
 7    1  0.2452998E-008  0.3644011E+03  0.7546771E-02  0.9767858E-01
        -11   -1    0    0    0    0  0.00000000000E+00  0.00000000000E+00  0.50000000000E+03  0.50000000000E+03  0.00000000000E+00 0. -1.
         11   -1    0    0    0    0 -0.00000000000E+00 -0.00000000000E+00 -0.50000000000E+03  0.50000000000E+03  0.00000000000E+00 0.  1.
         23    2    1    2    0    0 -0.11428572304E+02 -0.34101397004E+02 -0.21678632900E+03  0.23878878203E+03  0.93435819907E+02 0.  0.
        -11    1    1    2    0    0 -0.23462180294E+03  0.18076096031E+03  0.33867394903E+03  0.44991327935E+03  0.00000000000E+00 0. -1.
         11    1    1    2    0    0  0.24605037524E+03 -0.14665956331E+03 -0.12188762003E+03  0.31129793861E+03  0.00000000000E+00 0.  1.
        -15    1    3    3    0    0  0.16546150048E+02 -0.14846400000E+01 -0.18387865888E+03  0.18463612365E+03  0.17770000000E+01 0. -1.
         15    1    3    3    0    0 -0.27974722352E+02 -0.32616757004E+02 -0.32907670123E+02  0.54152658384E+02  0.17770000000E+01 0.  1.
</event>
<event>
 7    1  0.2452998E-008  0.3538324E+03  0.7546771E-02  0.9803598E-01
        -11   -1    0    0    0    0  0.00000000000E+00  0.00000000000E+00  0.50000000000E+03  0.50000000000E+03  0.00000000000E+00 0.  1.
         11   -1    0    0    0    0 -0.00000000000E+00 -0.00000000000E+00 -0.50000000000E+03  0.50000000000E+03  0.00000000000E+00 0.  1.
         23    2    1    2    0    0 -0.18639552026E+02 -0.18407788574E+03 -0.14740429278E+03  0.25384347280E+03  0.92067270171E+02 0.  0.
        -11    1    1    2    0    0  0.25452647551E+03 -0.13805612410E+03 -0.60791263831E+02  0.29586956230E+03  0.00000000000E+00 0.  1.
         11    1    1    2    0    0 -0.23588692348E+03  0.32213400984E+03  0.20819555661E+03  0.45028696490E+03  0.00000000000E+00 0.  1.
        -15    1    3    3    0    0 -0.38312586062E+02 -0.11101380847E+03 -0.43399927528E+02  0.12521434167E+03  0.17770000000E+01 0. -1.
         15    1    3    3    0    0  0.19673034036E+02 -0.73064077273E+02 -0.10400436525E+03  0.12862913114E+03  0.17770000000E+01 0.  1.
</event>
<event>
 7    1  0.2452998E-008  0.3543847E+03  0.7546771E-02  0.9801698E-01
        -11   -1    0    0    0    0  0.00000000000E+00  0.00000000000E+00  0.50000000000E+03  0.50000000000E+03  0.00000000000E+00 0.  1.
         11   -1    0    0    0    0 -0.00000000000E+00 -0.00000000000E+00 -0.50000000000E+03  0.50000000000E+03  0.00000000000E+00 0.  1.
         23    2    1    2    0    0 -0.13136476448E+03 -0.14642318261E+03  0.12801892183E+03  0.25338146626E+03  0.95482319542E+02 0.  0.
        -11    1    1    2    0    0 -0.14955502778E+03  0.98762332611E+02 -0.34479793185E+03  0.38859531454E+03  0.00000000000E+00 0.  1.
         11    1    1    2    0    0  0.28091979225E+03  0.47660850004E+02  0.21677901001E+03  0.35802321920E+03  0.00000000000E+00 0.  1.
        -15    1    3    3    0    0 -0.93728177078E+02 -0.12387865133E+03  0.13862680512E+03  0.20821008684E+03  0.17770000000E+01 0.  1.
         15    1    3    3    0    0 -0.37636587401E+02 -0.22544531285E+02 -0.10607883294E+02  0.45171379423E+02  0.17770000000E+01 0. -1.
</event>
<event>
 7    1  0.2452998E-008  0.5351588E+03  0.7546771E-02  0.9324403E-01
        -11   -1    0    0    0    0  0.00000000000E+00  0.00000000000E+00  0.50000000000E+03  0.50000000000E+03  0.00000000000E+00 0.  1.
         11   -1    0    0    0    0 -0.00000000000E+00 -0.00000000000E+00 -0.50000000000E+03  0.50000000000E+03  0.00000000000E+00 0.  1.
         23    2    1    2    0    0  0.24571598132E+02  0.12874778656E+03  0.68640550012E+02  0.17340130048E+03  0.90425272606E+02 0.  0.
        -11    1    1    2    0    0  0.18783244045E+03  0.27997422266E+03 -0.13115601015E+03  0.36175750170E+03  0.00000000000E+00 0.  1.
         11    1    1    2    0    0 -0.21240403858E+03 -0.40872200922E+03  0.62515460140E+02  0.46484119781E+03  0.00000000000E+00 0.  1.
        -15    1    3    3    0    0 -0.77181886038E+00  0.72493339383E+02 -0.10242219270E+02  0.73238929155E+02  0.17770000000E+01 0.  1.
         15    1    3    3    0    0  0.25343416993E+02  0.56254447173E+02  0.78882769283E+02  0.10016237133E+03  0.17770000000E+01 0. -1.
</event>
<event>
 7    1  0.2452998E-008  0.5316517E+03  0.7546771E-02  0.9331645E-01
        -11   -1    0    0    0    0  0.00000000000E+00  0.00000000000E+00  0.50000000000E+03  0.50000000000E+03  0.00000000000E+00 0. -1.
         11   -1    0    0    0    0 -0.00000000000E+00 -0.00000000000E+00 -0.50000000000E+03  0.50000000000E+03  0.00000000000E+00 0.  1.
         23    2    1    2    0    0  0.74785234943E+02 -0.16414366748E+03  0.20829017530E+03  0.29004574964E+03  0.90585676669E+02 0.  0.
        -11    1    1    2    0    0 -0.12921166994E+03  0.39953789959E+03 -0.20742213493E+03  0.46834830086E+03  0.00000000000E+00 0.  1.
         11    1    1    2    0    0  0.54426434994E+02 -0.23539423211E+03 -0.86804037218E+00  0.24160594950E+03  0.00000000000E+00 0. -1.
        -15    1    3    3    0    0 -0.28190973558E+01 -0.81535745017E+02  0.51232444608E+02  0.96353236245E+02  0.17770000000E+01 0.  1.
         15    1    3    3    0    0  0.77604332299E+02 -0.82607922462E+02  0.15705773070E+03  0.19369251340E+03  0.17770000000E+01 0. -1.
</event>
<event>
 7    1  0.2452998E-008  0.3314976E+03  0.7546771E-02  0.9883734E-01
        -11   -1    0    0    0    0  0.00000000000E+00  0.00000000000E+00  0.50000000000E+03  0.50000000000E+03  0.00000000000E+00 0. -1.
         11   -1    0    0    0    0 -0.00000000000E+00 -0.00000000000E+00 -0.50000000000E+03  0.50000000000E+03  0.00000000000E+00 0. -1.
         23    2    1    2    0    0  0.10743614046E+03  0.28754933834E+02 -0.25204821973E+03  0.29128297570E+03  0.94594378096E+02 0.  0.
        -11    1    1    2    0    0 -0.18233117023E+03 -0.18238714572E+03 -0.13100613867E+03  0.28926170665E+03  0.00000000000E+00 0. -1.
         11    1    1    2    0    0  0.74895029767E+02  0.15363221189E+03  0.38305435840E+03  0.41945531765E+03  0.00000000000E+00 0. -1.
        -15    1    3    3    0    0  0.11740213201E+03  0.27963614670E+02 -0.16933517329E+03  0.20794899131E+03  0.17770000000E+01 0. -1.
         15    1    3    3    0    0 -0.99659915484E+01  0.79131916374E+00 -0.82713046443E+02  0.83333984391E+02  0.17770000000E+01 0.  1.
</event>
<event>
 7    1  0.2452998E-008  0.4225481E+03  0.7546771E-02  0.9592028E-01
        -11   -1    0    0    0    0  0.00000000000E+00  0.00000000000E+00  0.50000000000E+03  0.50000000000E+03  0.00000000000E+00 0.  1.
         11   -1    0    0    0    0 -0.00000000000E+00 -0.00000000000E+00 -0.50000000000E+03  0.50000000000E+03  0.00000000000E+00 0. -1.
         23    2    1    2    0    0  0.52959502188E+02  0.90870520758E+02  0.43839019566E+02  0.14725639936E+03  0.93276080000E+02 0.  0.
        -11    1    1    2    0    0  0.12106219734E+03 -0.41792478543E+03  0.11440044416E+03  0.44989403588E+03  0.00000000000E+00 0.  1.
         11    1    1    2    0    0 -0.17402169953E+03  0.32705426467E+03 -0.15823946373E+03  0.40284956476E+03  0.00000000000E+00 0. -1.
        -15    1    3    3    0    0  0.59430416826E+01  0.63812095358E+02  0.62817661004E+02  0.89758116744E+02  0.17770000000E+01 0.  1.
         15    1    3    3    0    0  0.47016460505E+02  0.27058425400E+02 -0.18978641438E+02  0.57498282613E+02  0.17770000000E+01 0. -1.
</event>
<event>
 7    1  0.2452998E-008  0.4850645E+03  0.7546771E-02  0.9433863E-01
        -11   -1    0    0    0    0  0.00000000000E+00  0.00000000000E+00  0.50000000000E+03  0.50000000000E+03  0.00000000000E+00 0.  1.
         11   -1    0    0    0    0 -0.00000000000E+00 -0.00000000000E+00 -0.50000000000E+03  0.50000000000E+03  0.00000000000E+00 0.  1.
         23    2    1    2    0    0 -0.10159914531E+02 -0.42668736051E+01  0.48390062969E+03  0.49266085154E+03  0.91833899816E+02 0.  0.
        -11    1    1    2    0    0  0.26615327574E+01  0.34483141720E+02 -0.15491713810E+02  0.37896754693E+02  0.00000000000E+00 0.  1.
         11    1    1    2    0    0  0.74983817732E+01 -0.30216268115E+02 -0.46840891588E+03  0.46944239376E+03  0.00000000000E+00 0.  1.
        -15    1    3    3    0    0 -0.42413226056E+02 -0.28680057299E+02  0.30135754413E+03  0.30568113217E+03  0.17770000000E+01 0.  1.
         15    1    3    3    0    0  0.32253311525E+02  0.24413183694E+02  0.18254308556E+03  0.18697971937E+03  0.17770000000E+01 0. -1.
</event>
<event>
 7    1  0.2452998E-008  0.5344717E+03  0.7546771E-02  0.9325817E-01
        -11   -1    0    0    0    0  0.00000000000E+00  0.00000000000E+00  0.50000000000E+03  0.50000000000E+03  0.00000000000E+00 0. -1.
         11   -1    0    0    0    0 -0.00000000000E+00 -0.00000000000E+00 -0.50000000000E+03  0.50000000000E+03  0.00000000000E+00 0. -1.
         23    2    1    2    0    0 -0.55607143386E+02  0.12876314668E+02 -0.21735870220E+03  0.24056511957E+03  0.85841816478E+02 0.  0.
        -11    1    1    2    0    0  0.71543805995E+02 -0.18927707855E+03 -0.21315892436E+03  0.29390654242E+03  0.00000000000E+00 0. -1.
         11    1    1    2    0    0 -0.15936662609E+02  0.17640076389E+03  0.43051762656E+03  0.46552833801E+03  0.00000000000E+00 0. -1.
        -15    1    3    3    0    0 -0.38112249086E+02 -0.31823494914E+02 -0.72021977123E+02  0.87496292931E+02  0.17770000000E+01 0. -1.
         15    1    3    3    0    0 -0.17494894299E+02  0.44699809582E+02 -0.14533672508E+03  0.15306882664E+03  0.17770000000E+01 0.  1.
</event>
<event>
 7    1  0.2452998E-008  0.5316967E+03  0.7546771E-02  0.9331552E-01
        -11   -1    0    0    0    0  0.00000000000E+00  0.00000000000E+00  0.50000000000E+03  0.50000000000E+03  0.00000000000E+00 0. -1.
         11   -1    0    0    0    0 -0.00000000000E+00 -0.00000000000E+00 -0.50000000000E+03  0.50000000000E+03  0.00000000000E+00 0.  1.
         23    2    1    2    0    0  0.72895402918E+02  0.14931080230E+03 -0.21588050459E+03  0.28726084045E+03  0.91142431094E+02 0.  0.
        -11    1    1    2    0    0 -0.15853667804E+03 -0.37800832194E+03  0.22645927359E+03  0.46830329097E+03  0.00000000000E+00 0. -1.
         11    1    1    2    0    0  0.85641275121E+02  0.22869751964E+03 -0.10578768994E+02  0.24443586858E+03  0.00000000000E+00 0.  1.
        -15    1    3    3    0    0  0.69498419425E+01 -0.98643616362E+01 -0.16059705801E+01  0.12302146318E+02  0.17770000000E+01 0. -1.
         15    1    3    3    0    0  0.65945560975E+02  0.15917516394E+03 -0.21427453401E+03  0.27495869414E+03  0.17770000000E+01 0.  1.
</event>
<event>
 7    1  0.2452998E-008  0.3438196E+03  0.7546771E-02  0.9838715E-01
        -11   -1    0    0    0    0  0.00000000000E+00  0.00000000000E+00  0.50000000000E+03  0.50000000000E+03  0.00000000000E+00 0. -1.
         11   -1    0    0    0    0 -0.00000000000E+00 -0.00000000000E+00 -0.50000000000E+03  0.50000000000E+03  0.00000000000E+00 0.  1.
         23    2    1    2    0    0 -0.13071939111E+03 -0.12994279691E+03  0.20375970921E+03  0.29003098660E+03  0.92883068478E+02 0.  0.
        -11    1    1    2    0    0 -0.14736964291E+03 -0.19674406976E+03 -0.11710319282E+03  0.27228514173E+03  0.00000000000E+00 0.  1.
         11    1    1    2    0    0  0.27808903402E+03  0.32668686667E+03 -0.86656516387E+02  0.43768387168E+03  0.00000000000E+00 0. -1.
        -15    1    3    3    0    0 -0.93682608875E+02 -0.43902313108E+02  0.14933282812E+03  0.18167910057E+03  0.17770000000E+01 0.  1.
         15    1    3    3    0    0 -0.37036782230E+02 -0.86040483803E+02  0.54426881089E+02  0.10835188602E+03  0.17770000000E+01 0. -1.
</event>
<event>
 7    1  0.2452998E-008  0.5075028E+03  0.7546771E-02  0.9383176E-01
        -11   -1    0    0    0    0  0.00000000000E+00  0.00000000000E+00  0.50000000000E+03  0.50000000000E+03  0.00000000000E+00 0.  1.
         11   -1    0    0    0    0 -0.00000000000E+00 -0.00000000000E+00 -0.50000000000E+03  0.50000000000E+03  0.00000000000E+00 0. -1.
         23    2    1    2    0    0 -0.14949894719E+03  0.32524606971E+03 -0.32590568776E+03  0.49249722360E+03  0.90576248891E+02 0.  0.
        -11    1    1    2    0    0  0.88570042795E+02 -0.30046634462E+03  0.30806664171E+03  0.43935149080E+03  0.00000000000E+00 0.  1.
         11    1    1    2    0    0  0.60928904390E+02 -0.24779725091E+02  0.17839046048E+02  0.68151285606E+02  0.00000000000E+00 0. -1.
        -15    1    3    3    0    0 -0.10591421256E+02 -0.78826617633E+00 -0.26331008930E+02  0.28447835208E+02  0.17770000000E+01 0.  1.
         15    1    3    3    0    0 -0.13890752593E+03  0.32603433589E+03 -0.29957467883E+03  0.46404938839E+03  0.17770000000E+01 0. -1.
</event>
<event>
 7    1  0.2452998E-008  0.5391909E+03  0.7546771E-02  0.9316149E-01
        -11   -1    0    0    0    0  0.00000000000E+00  0.00000000000E+00  0.50000000000E+03  0.50000000000E+03  0.00000000000E+00 0.  1.
         11   -1    0    0    0    0 -0.00000000000E+00 -0.00000000000E+00 -0.50000000000E+03  0.50000000000E+03  0.00000000000E+00 0. -1.
         23    2    1    2    0    0 -0.72974372732E+02 -0.18120556358E+03  0.94572758595E+02  0.23469920430E+03  0.89325217516E+02 0.  0.
        -11    1    1    2    0    0  0.17692462036E+03 -0.18575915492E+03  0.16403171577E+03  0.30449168905E+03  0.00000000000E+00 0.  1.
         11    1    1    2    0    0 -0.10395024763E+03  0.36696471850E+03 -0.25860447437E+03  0.46080910664E+03  0.00000000000E+00 0. -1.
        -15    1    3    3    0    0 -0.66632332920E+02 -0.16782671119E+03  0.11143054972E+03  0.21219236065E+03  0.17770000000E+01 0.  1.
         15    1    3    3    0    0 -0.63420398119E+01 -0.13378852389E+02 -0.16857791130E+02  0.22506843648E+02  0.17770000000E+01 0. -1.
</event>
<event>
 7    1  0.2452998E-008  0.3843942E+03  0.7546771E-02  0.9703669E-01
        -11   -1    0    0    0    0  0.00000000000E+00  0.00000000000E+00  0.50000000000E+03  0.50000000000E+03  0.00000000000E+00 0.  1.
         11   -1    0    0    0    0 -0.00000000000E+00 -0.00000000000E+00 -0.50000000000E+03  0.50000000000E+03  0.00000000000E+00 0. -1.
         23    2    1    2    0    0 -0.17316430382E+03  0.52923624982E+02  0.48766361414E+02  0.20867166271E+03  0.91536433262E+02 0.  0.
        -11    1    1    2    0    0  0.24724275244E+03  0.19721105855E+03  0.24381634138E+03  0.39933393116E+03  0.00000000000E+00 0.  1.
         11    1    1    2    0    0 -0.74078448627E+02 -0.25013468354E+03 -0.29258270280E+03  0.39199440613E+03  0.00000000000E+00 0. -1.
        -15    1    3    3    0    0 -0.17079537774E+03  0.25476547486E+02  0.29974051858E+02  0.17527611658E+03  0.17770000000E+01 0.  1.
         15    1    3    3    0    0 -0.23689260769E+01  0.27447077496E+02  0.18792309557E+02  0.33395546130E+02  0.17770000000E+01 0. -1.
</event>
<event>
 7    1  0.2452998E-008  0.4733983E+03  0.7546771E-02  0.9461383E-01
        -11   -1    0    0    0    0  0.00000000000E+00  0.00000000000E+00  0.50000000000E+03  0.50000000000E+03  0.00000000000E+00 0.  1.
         11   -1    0    0    0    0 -0.00000000000E+00 -0.00000000000E+00 -0.50000000000E+03  0.50000000000E+03  0.00000000000E+00 0. -1.
         23    2    1    2    0    0  0.38174948460E+03 -0.64274547957E+02  0.28094116501E+03  0.48718140168E+03  0.92487260947E+02 0.  0.
        -11    1    1    2    0    0 -0.45971913259E+02  0.33230626259E+02  0.20699689585E+02  0.60383511650E+02  0.00000000000E+00 0.  1.
         11    1    1    2    0    0 -0.33577757134E+03  0.31043921697E+02 -0.30164085459E+03  0.45243508667E+03  0.00000000000E+00 0. -1.
        -15    1    3    3    0    0  0.35997588508E+03 -0.46706735604E+02  0.23207009121E+03  0.43084085456E+03  0.17770000000E+01 0.  1.
         15    1    3    3    0    0  0.21773599517E+02 -0.17567812352E+02  0.48871073797E+02  0.56340547121E+02  0.17770000000E+01 0. -1.
</event>
<event>
 7    1  0.2452998E-008  0.4152335E+03  0.7546771E-02  0.9612431E-01
        -11   -1    0    0    0    0  0.00000000000E+00  0.00000000000E+00  0.50000000000E+03  0.50000000000E+03  0.00000000000E+00 0.  1.
         11   -1    0    0    0    0 -0.00000000000E+00 -0.00000000000E+00 -0.50000000000E+03  0.50000000000E+03  0.00000000000E+00 0. -1.
         23    2    1    2    0    0 -0.26529318779E+02  0.12496870476E+03  0.14394808014E+02  0.15964073948E+03  0.94641287405E+02 0.  0.
        -11    1    1    2    0    0  0.36113429774E+03  0.64011828584E+02  0.18128755406E+03  0.40912183083E+03  0.00000000000E+00 0.  1.
         11    1    1    2    0    0 -0.33460497897E+03 -0.18898053334E+03 -0.19568236208E+03  0.43123742968E+03  0.00000000000E+00 0. -1.
        -15    1    3    3    0    0 -0.36091449649E+02  0.30978702197E+02  0.39520769257E+02  0.61865351040E+02  0.17770000000E+01 0.  1.
         15    1    3    3    0    0  0.95621308697E+01  0.93990002561E+02 -0.25125961243E+02  0.97775388445E+02  0.17770000000E+01 0. -1.
</event>
<event>
 7    1  0.2452998E-008  0.5267920E+03  0.7546771E-02  0.9341779E-01
        -11   -1    0    0    0    0  0.00000000000E+00  0.00000000000E+00  0.50000000000E+03  0.50000000000E+03  0.00000000000E+00 0. -1.
         11   -1    0    0    0    0 -0.00000000000E+00 -0.00000000000E+00 -0.50000000000E+03  0.50000000000E+03  0.00000000000E+00 0. -1.
         23    2    1    2    0    0 -0.10902066248E+02  0.33942061185E+02 -0.20247346822E+03  0.22284336128E+03  0.85981043049E+02 0.  0.
        -11    1    1    2    0    0  0.11497914631E+03  0.11983586635E+03  0.44310826905E+03  0.47320796385E+03  0.00000000000E+00 0. -1.
         11    1    1    2    0    0 -0.10407708006E+03 -0.15377792754E+03 -0.24063480082E+03  0.30394867488E+03  0.00000000000E+00 0. -1.
        -15    1    3    3    0    0  0.23364065006E+02  0.32450542343E+02 -0.39298543254E+02  0.56093230098E+02  0.17770000000E+01 0. -1.
         15    1    3    3    0    0 -0.34266131254E+02  0.14915188424E+01 -0.16317492497E+03  0.16675013118E+03  0.17770000000E+01 0.  1.
</event>
<event>
 7    1  0.2452998E-008  0.5171962E+03  0.7546771E-02  0.9362133E-01
        -11   -1    0    0    0    0  0.00000000000E+00  0.00000000000E+00  0.50000000000E+03  0.50000000000E+03  0.00000000000E+00 0.  1.
         11   -1    0    0    0    0 -0.00000000000E+00 -0.00000000000E+00 -0.50000000000E+03  0.50000000000E+03  0.00000000000E+00 0. -1.
         23    2    1    2    0    0 -0.57548185034E+02  0.54007404921E+02  0.10554896476E+03  0.15855958211E+03  0.88158741656E+02 0.  0.
        -11    1    1    2    0    0 -0.19973765150E+02  0.17834816443E+03  0.31050478532E+03  0.35863664168E+03  0.00000000000E+00 0.  1.
         11    1    1    2    0    0  0.77521950184E+02 -0.23235556935E+03 -0.41605375008E+03  0.48280377621E+03  0.00000000000E+00 0. -1.
        -15    1    3    3    0    0 -0.24080610646E+02  0.59101757682E+02  0.20581850330E+02  0.67079533855E+02  0.17770000000E+01 0. -1.
         15    1    3    3    0    0 -0.33467574389E+02 -0.50943527614E+01  0.84967114427E+02  0.91480048254E+02  0.17770000000E+01 0.  1.
</event>
